/*--------------------------------*- C++ -*----------------------------------*\
  =========                 |
  \\      /  F ield         | OpenFOAM: The Open Source CFD Toolbox
   \\    /   O peration     | Website:  https://openfoam.org
    \\  /    A nd           | Version:  4.x
     \\/     M anipulation  |
\*---------------------------------------------------------------------------*/
FoamFile
{
    version     2.0;
    format      ascii;
    class       vectorField;
    location    0;
    object      v;
}
// * * * * * * * * * * * * * * * * * * * * * * * * * * * * * * * * * * * * * //

325
(
( 6.73566e-11 7.62043e-11 4.50167e-10 )  
( 5.67033e-10 2.39535e-10 1.0336e-09 )  
( 3.78682e-09 -4.53161e-10 4.92554e-09 )  
( 7.46054e-10 -2.42558e-11 1.03945e-09 )  
( 1.62284e-09 2.91311e-10 1.97543e-09 )  
( 1.58718e-09 7.95286e-11 1.39817e-09 )  
( 2.87317e-10 1.23092e-10 5.55097e-10 )  
( 1.95884e-10 1.69558e-10 5.44535e-10 )  
( 4.67747e-09 -1.44539e-09 3.39837e-09 )  
( 1.67117e-10 -8.44739e-11 4.65601e-10 )  
( 4.04369e-09 -8.39042e-10 3.19522e-09 )  
( 8.86948e-10 1.32033e-10 4.92805e-09 )  
( 2.86998e-09 1.73085e-10 3.3138e-09 )  
( 8.44352e-10 -1.09213e-09 4.38473e-09 )  
( -7.14996e-09 4.23161e-09 8.60336e-09 )  
( 1.22405e-09 -3.72365e-11 1.48652e-09 )  
( 4.89371e-10 2.95853e-10 8.54153e-10 )  
( 9.11947e-10 -5.51035e-11 9.47516e-10 )  
( 1.42173e-09 2.87653e-11 1.6284e-09 )  
( 4.05852e-09 -4.19829e-10 2.72702e-09 )  
( 5.57292e-10 4.5661e-10 1.16397e-09 )  
( 3.11848e-09 -8.55679e-11 2.73934e-09 )  
( 4.07137e-09 -1.32569e-09 2.34051e-09 )  
( 2.74391e-09 9.70913e-11 2.17863e-09 )  
( 3.60576e-10 1.05888e-10 3.52056e-10 )  
( 3.6169e-09 -5.01657e-10 4.15511e-09 )  
( 9.12995e-10 3.18372e-10 8.52045e-10 )  
( 1.38005e-09 -6.32056e-10 4.29121e-09 )  
( 1.94277e-09 -3.61621e-11 8.6122e-10 )  
( 1.78957e-10 -4.50071e-10 2.77024e-09 )  
( 2.027e-09 3.25179e-10 1.79572e-09 )  
( 1.83765e-09 -3.88183e-10 7.65882e-10 )  
( -2.04353e-10 -1.09279e-10 2.15544e-09 )  
( 1.08138e-09 1.93644e-10 8.53517e-10 )  
( 9.57712e-10 1.61291e-10 8.48406e-10 )  
( 6.5672e-11 2.28339e-10 3.2544e-10 )  
( 6.68425e-10 -1.89773e-10 6.12786e-10 )  
( 1.59232e-09 2.33805e-10 2.02553e-09 )  
( 1.37325e-09 2.87796e-10 1.68821e-09 )  
( 2.13096e-10 -2.35562e-11 2.80216e-09 )  
( 4.00278e-10 -1.60091e-10 2.42564e-10 )  
( 1.08123e-09 -1.63593e-10 6.47493e-10 )  
( 4.56725e-10 2.33045e-10 7.86672e-10 )  
( 2.02239e-09 9.28026e-11 1.49761e-09 )  
( -2.34839e-10 -9.61892e-11 8.78695e-10 )  
( 1.31417e-09 -8.26321e-14 2.54532e-09 )  
( 2.41899e-09 5.92452e-10 2.66065e-09 )  
( 5.30371e-10 6.56187e-10 1.25289e-09 )  
( -3.47982e-10 2.9072e-11 1.36661e-09 )  
( 1.09042e-09 2.29512e-11 9.57637e-10 )  
( 9.38075e-10 1.10454e-10 5.02801e-10 )  
( 2.74659e-09 1.23884e-10 1.02461e-09 )  
( 3.18468e-09 -2.95717e-10 2.0589e-09 )  
( 3.66549e-09 -7.25765e-10 3.32826e-09 )  
( -4.9694e-10 -3.24529e-11 2.5036e-09 )  
( 1.08276e-09 1.40909e-12 1.30554e-09 )  
( 4.46989e-09 -7.78883e-10 3.0781e-09 )  
( 7.93855e-11 3.9036e-11 3.48296e-10 )  
( 5.58705e-09 -5.22909e-10 3.48292e-09 )  
( 1.05337e-10 -1.35136e-12 3.31173e-10 )  
( 1.48844e-09 -2.08972e-10 1.04595e-09 )  
( 1.34702e-10 7.55812e-11 5.183e-10 )  
( 3.42411e-10 -2.2585e-10 4.8778e-10 )  
( 2.49791e-09 -2.03912e-11 3.51147e-09 )  
( 8.3625e-10 3.56377e-10 9.37984e-10 )  
( -1.47981e-09 1.75874e-11 2.85685e-09 )  
( 2.70121e-09 -7.03205e-10 4.62537e-09 )  
( 1.29234e-09 2.42517e-10 1.78026e-09 )  
( -6.84505e-10 3.22824e-10 4.63637e-09 )  
( 5.15605e-10 -1.76009e-11 6.24104e-10 )  
( 5.59425e-10 -1.67485e-10 3.63482e-10 )  
( 2.28233e-09 -3.07166e-10 1.37618e-09 )  
( -1.76971e-10 2.94286e-11 1.42494e-09 )  
( 1.22525e-09 -4.66945e-11 1.37489e-09 )  
( 7.56175e-10 -1.01681e-09 8.59292e-10 )  
( 3.75434e-09 -1.53446e-10 2.12502e-09 )  
( -1.28945e-09 -1.82688e-10 2.70876e-09 )  
( 3.60877e-09 -2.00632e-09 3.86793e-09 )  
( 6.92184e-10 -5.74055e-10 1.09513e-09 )  
( 4.39962e-09 -1.21338e-09 2.72859e-09 )  
( 5.72509e-10 -8.46675e-10 3.7945e-11 )  
( 2.54197e-09 -7.98615e-10 3.77395e-09 )  
( 3.09895e-09 -5.30121e-10 2.51447e-09 )  
( 3.44539e-09 -2.09849e-09 2.73521e-09 )  
( 3.00346e-09 -2.45929e-10 2.47469e-09 )  
( -2.30523e-10 -8.75609e-10 2.93851e-10 )  
( 7.20985e-11 1.21474e-10 3.79535e-09 )  
( 1.6291e-10 6.8855e-11 3.73985e-10 )  
( 1.47494e-09 2.11144e-10 1.49672e-09 )  
( -1.20828e-09 -7.20323e-10 3.0232e-09 )  
( -3.79887e-11 7.66294e-11 4.06094e-10 )  
( 4.88311e-10 2.53296e-10 6.82867e-10 )  
( 4.24593e-10 1.02202e-11 1.84343e-09 )  
( 1.64604e-10 -1.76274e-10 3.82447e-10 )  
( 2.47481e-10 -1.9655e-11 3.57912e-10 )  
( 1.15609e-09 5.89561e-10 1.45046e-09 )  
( 1.11088e-10 1.45898e-11 6.51709e-10 )  
( 1.51255e-10 -3.07504e-10 6.18797e-10 )  
( 2.64965e-09 -1.53226e-09 3.47094e-09 )  
( 7.87198e-10 -2.2094e-10 1.17825e-09 )  
( 1.61147e-10 -1.61049e-10 1.05016e-09 )  
( -2.93838e-10 6.6019e-11 9.65151e-10 )  
( 1.81793e-09 -4.42838e-10 1.43896e-09 )  
( -2.29578e-10 -1.14053e-10 5.28651e-10 )  
( 4.17735e-10 2.13955e-10 3.71988e-10 )  
( -2.62887e-10 8.89584e-11 2.48182e-10 )  
( 1.28511e-09 -1.00538e-10 1.77742e-09 )  
( 7.2969e-10 -1.04328e-10 7.8095e-10 )  
( 2.94516e-09 -5.05984e-10 3.69704e-09 )  
( -3.67705e-10 1.39394e-10 1.67887e-10 )  
( 1.09043e-09 1.31576e-10 8.06383e-10 )  
( -9.36193e-11 -4.52759e-11 4.11993e-10 )  
( 3.64692e-11 -2.5592e-10 1.03888e-09 )  
( 2.37127e-09 1.96791e-10 2.40837e-09 )  
( 1.06044e-09 -1.23021e-09 3.52063e-09 )  
( 7.24897e-10 -3.2881e-10 4.48637e-10 )  
( 4.99116e-10 4.20225e-10 4.408e-10 )  
( -5.91648e-10 -2.86416e-10 1.10877e-09 )  
( -1.27119e-11 1.03894e-10 8.106e-11 )  
( 2.20546e-09 5.47128e-10 9.97278e-10 )  
( 2.27523e-10 -6.84852e-11 3.42605e-10 )  
( -3.59995e-11 -1.60938e-10 1.47441e-09 )  
( 2.68382e-11 -5.49504e-10 2.02584e-09 )  
( -1.96016e-10 -1.11418e-10 5.56485e-10 )  
( 9.75998e-10 -3.44349e-11 7.97172e-10 )  
( 1.80794e-09 -6.27114e-10 3.2831e-09 )  
( 3.06072e-09 -4.0925e-10 2.10649e-09 )  
( 2.66255e-09 4.1305e-10 2.03591e-09 )  
( 6.18274e-11 -1.9621e-10 1.32462e-11 )  
( 7.54123e-10 5.90285e-11 3.18192e-10 )  
( 1.61615e-10 -2.0478e-11 1.88958e-10 )  
( 2.38678e-09 5.41882e-11 2.32153e-09 )  
( 1.01685e-09 -2.58714e-10 1.41378e-09 )  
( 3.52046e-10 4.26289e-11 1.72663e-10 )  
( 2.16441e-10 2.28696e-12 1.12842e-09 )  
( 2.32034e-09 2.27753e-10 2.23523e-09 )  
( -5.70733e-10 6.15767e-10 1.15692e-09 )  
( -4.44596e-10 -1.51273e-10 1.20818e-09 )  
( 4.60926e-09 -1.58824e-09 3.16675e-09 )  
( 1.47741e-09 9.63929e-11 9.05288e-10 )  
( -9.45466e-11 -5.65836e-10 2.14357e-10 )  
( 2.85327e-09 -7.43167e-11 2.28974e-09 )  
( 5.4752e-10 -3.90756e-10 5.9632e-10 )  
( 2.48355e-10 -3.73314e-11 5.91287e-10 )  
( 8.49892e-10 -2.76064e-10 7.26711e-10 )  
( 8.48711e-10 -5.01081e-10 8.43479e-10 )  
( 5.18193e-10 -2.33717e-11 2.69435e-09 )  
( 1.16639e-10 1.55485e-10 2.48037e-10 )  
( -1.95681e-10 1.58162e-10 1.37864e-10 )  
( -1.53987e-11 -3.91536e-10 1.47793e-10 )  
( 2.35389e-11 2.04114e-10 4.96002e-10 )  
( 2.9922e-10 -2.43539e-10 1.44527e-09 )  
( -2.32074e-09 7.40402e-10 1.59588e-09 )  
( -1.93703e-10 -2.06744e-11 2.02676e-09 )  
( -4.4083e-10 4.31815e-10 1.10408e-09 )  
( 1.09188e-09 4.37817e-10 3.45974e-10 )  
( 6.78632e-10 -8.02708e-10 7.80237e-10 )  
( -3.90235e-12 -2.41733e-11 2.55389e-10 )  
( 1.14305e-09 -1.75133e-10 1.21113e-09 )  
( 2.4327e-09 -1.09169e-10 2.90144e-09 )  
( 3.27308e-10 1.24332e-10 6.95391e-10 )  
( 2.71369e-10 -1.49635e-10 4.7891e-10 )  
( -3.03989e-11 8.94779e-11 4.31454e-10 )  
( -3.25746e-10 -1.44255e-09 2.24298e-09 )  
( 4.95452e-10 2.25602e-11 4.32795e-10 )  
( 1.25442e-09 1.16549e-10 2.66497e-09 )  
( 2.20921e-10 1.00266e-10 2.73891e-10 )  
( 3.24105e-09 -1.96797e-10 2.40201e-09 )  
( 8.69785e-10 -2.73152e-10 1.52098e-09 )  
( 2.64865e-09 -3.59288e-10 2.1278e-09 )  
( 1.88693e-09 -1.11581e-10 3.41976e-09 )  
( 1.19922e-09 -3.34757e-10 5.83247e-10 )  
( 1.70082e-09 1.86715e-10 1.39948e-09 )  
( 3.8866e-10 1.11629e-10 9.57866e-10 )  
( 6.00151e-11 -2.86273e-10 5.3483e-10 )  
( -5.79476e-11 8.49731e-11 1.71114e-10 )  
( 3.20565e-09 -1.12144e-09 4.26184e-09 )  
( 1.50964e-10 -6.09419e-12 4.00182e-10 )  
( 1.59715e-10 -6.11007e-11 3.82482e-10 )  
( 3.4e-10 -3.9882e-10 2.79337e-09 )  
( 1.00879e-09 -8.84376e-13 1.37936e-09 )  
( 2.20567e-09 -2.61411e-10 2.12613e-09 )  
( 1.47097e-09 -7.20653e-10 2.09686e-09 )  
( 8.28903e-10 3.8034e-10 1.94516e-09 )  
( 9.44274e-10 2.19302e-10 8.79978e-10 )  
( 2.03852e-10 -3.39561e-10 5.23525e-11 )  
( 5.73271e-10 -3.92232e-10 3.01835e-10 )  
( 1.52994e-11 -6.46139e-11 2.21469e-09 )  
( 1.54351e-10 -1.81217e-10 3.30384e-10 )  
( -1.30458e-10 4.81063e-11 9.58819e-11 )  
( 1.77811e-11 6.09285e-11 1.83831e-10 )  
( 1.69693e-10 -2.52254e-10 1.75866e-10 )  
( 2.27438e-10 6.01317e-10 1.02563e-09 )  
( 4.01106e-09 -1.22089e-09 3.29351e-09 )  
( 2.96201e-09 -1.65931e-10 2.85992e-09 )  
( 1.49457e-09 5.3884e-11 1.13092e-09 )  
( 1.47321e-10 4.61286e-11 3.9893e-10 )  
( 4.96275e-10 -5.5011e-10 4.62211e-10 )  
( 3.5832e-09 -2.90933e-10 2.59914e-09 )  
( 4.88656e-11 9.35445e-12 2.38786e-10 )  
( 3.94828e-10 -6.62765e-10 5.55462e-10 )  
( 7.75752e-10 -2.42427e-10 5.319e-10 )  
( 3.05101e-09 -3.95718e-10 2.2243e-09 )  
( 1.55845e-10 7.26419e-11 3.59675e-10 )  
( 1.93042e-09 3.22967e-10 2.14602e-09 )  
( -8.32803e-10 5.72197e-10 1.70496e-09 )  
( 2.29254e-10 1.71709e-10 1.81337e-10 )  
( 1.42911e-10 3.10901e-11 3.59654e-10 )  
( 1.43551e-10 -4.26509e-11 2.24789e-09 )  
( 1.85758e-09 -1.12673e-10 2.50865e-09 )  
( -1.06252e-10 4.79635e-11 4.0227e-11 )  
( -3.70817e-10 -2.60479e-10 1.3782e-09 )  
( 2.79359e-09 4.05953e-11 2.31899e-09 )  
( 2.14825e-10 1.63565e-10 1.57102e-09 )  
( -2.11704e-10 6.61298e-11 4.969e-10 )  
( 3.49598e-09 -9.26953e-10 2.51131e-09 )  
( 5.87536e-11 2.68921e-11 1.61826e-10 )  
( 2.06724e-10 -7.07777e-11 2.08817e-10 )  
( 3.34803e-09 8.67946e-10 1.83371e-09 )  
( 7.69639e-10 3.66039e-10 7.82916e-10 )  
( -2.58909e-10 2.61878e-11 2.80428e-10 )  
( 8.61832e-10 -1.00199e-09 1.30309e-09 )  
( -5.35697e-10 1.02809e-10 4.37785e-10 )  
( 1.81853e-10 -8.23729e-10 2.0015e-09 )  
( 5.09833e-10 2.99704e-11 4.25666e-10 )  
( 2.99705e-11 -1.1493e-09 2.37301e-09 )  
( 7.1163e-11 -3.15749e-11 5.03336e-10 )  
( 1.41534e-09 -2.47209e-10 1.83261e-09 )  
( 9.61296e-11 2.63276e-10 5.29725e-10 )  
( 1.5408e-09 2.84619e-10 4.82134e-10 )  
( 9.97524e-10 -1.45815e-10 9.80478e-10 )  
( 3.80549e-11 -9.8307e-10 8.68222e-11 )  
( 4.88687e-10 -5.01059e-10 9.71577e-10 )  
( -4.07e-11 -8.16508e-11 2.39593e-10 )  
( 1.0156e-09 1.51471e-09 2.19819e-09 )  
( 2.01364e-09 -4.90685e-10 2.1925e-09 )  
( 2.43667e-09 1.5438e-10 1.50096e-09 )  
( 1.0278e-10 8.16301e-11 2.29706e-10 )  
( -1.00087e-10 -1.45052e-10 6.88644e-10 )  
( 2.70218e-09 3.04802e-11 1.88855e-09 )  
( 1.18099e-09 7.75872e-12 8.3198e-10 )  
( 8.93147e-11 -9.7704e-12 2.39804e-10 )  
( 2.48043e-09 1.43373e-10 1.66707e-09 )  
( -1.68259e-10 -2.73193e-10 8.77384e-10 )  
( 1.56619e-10 -4.53233e-12 4.99213e-11 )  
( 2.45383e-10 1.23673e-10 3.18121e-10 )  
( -3.03126e-10 2.58647e-10 8.00961e-10 )  
( 1.32366e-09 1.6584e-09 1.38763e-09 )  
( 5.98689e-10 -1.48537e-10 3.45171e-10 )  
( -1.19725e-10 -1.19979e-10 1.15525e-09 )  
( -1.05782e-10 9.95913e-11 2.69798e-10 )  
( 9.68441e-11 -1.9188e-10 2.66236e-11 )  
( 1.88139e-10 -5.84796e-12 1.62981e-10 )  
( 7.8235e-10 -6.21062e-11 6.64462e-10 )  
( 3.43578e-09 -1.84117e-10 2.07148e-09 )  
( 7.75462e-10 -3.11753e-10 6.24183e-10 )  
( 4.0905e-10 -1.08564e-10 6.9066e-10 )  
( 5.29306e-11 2.08516e-10 3.44042e-10 )  
( 6.73226e-11 7.50757e-11 1.73273e-10 )  
( 5.22963e-10 -2.38039e-10 3.83835e-10 )  
( -1.15026e-11 -1.66663e-10 2.84272e-10 )  
( 2.95485e-09 3.33491e-10 4.14891e-09 )  
( -1.29041e-11 5.71786e-11 2.93208e-10 )  
( -6.0785e-11 8.08158e-11 3.20699e-10 )  
( 4.96623e-10 -2.80125e-10 7.86904e-10 )  
( -3.07004e-11 7.62974e-11 8.3802e-11 )  
( 1.1823e-09 1.23567e-11 9.34372e-10 )  
( 5.28342e-10 -1.19017e-10 2.49618e-10 )  
( -1.22168e-10 7.5455e-11 7.58896e-11 )  
( 1.63993e-10 6.74598e-11 1.7638e-10 )  
( 3.64365e-09 -8.14709e-10 2.56631e-09 )  
( 6.12838e-10 1.7425e-11 2.91508e-10 )  
( 1.55368e-10 7.90671e-13 1.84157e-10 )  
( 1.01889e-10 1.26546e-10 1.60797e-10 )  
( -1.21673e-10 -9.31652e-11 6.89554e-10 )  
( 5.24466e-10 -1.48351e-10 5.22567e-10 )  
( 1.02172e-09 -6.08343e-11 1.35638e-09 )  
( 7.03563e-10 1.42197e-10 1.24102e-09 )  
( 2.82712e-10 -1.1139e-10 1.99117e-10 )  
( 4.36402e-10 -1.81749e-10 4.65383e-10 )  
( 5.11643e-10 4.81721e-12 5.15886e-10 )  
( 1.48689e-10 -4.06555e-10 3.87487e-12 )  
( 1.48826e-09 3.04481e-10 6.05415e-10 )  
( 4.1107e-10 -1.7876e-10 2.24513e-10 )  
( 5.81861e-10 8.28178e-11 1.08213e-09 )  
( 2.38004e-10 1.0485e-10 2.05787e-10 )  
( 6.16987e-10 -3.2315e-11 4.94674e-10 )  
( 6.01304e-11 -4.44074e-10 7.72509e-11 )  
( 1.57283e-10 1.20917e-11 1.13089e-10 )  
( 2.25481e-09 1.23252e-10 1.93127e-09 )  
( 3.89365e-11 1.06445e-10 5.54199e-10 )  
( 2.91832e-13 2.04866e-14 1.19704e-10 )  
( 2.11186e-10 -8.09416e-11 1.93149e-10 )  
( 3.64758e-10 1.26762e-10 4.15045e-10 )  
( -7.09781e-10 2.88448e-10 1.66518e-10 )  
( 1.80622e-10 -5.38081e-10 1.72624e-09 )  
( -1.15154e-10 -1.63316e-10 6.0648e-10 )  
( 8.13498e-10 1.8427e-10 2.10622e-10 )  
( 4.78916e-10 -7.16947e-10 3.3458e-10 )  
( -1.71247e-11 6.39693e-11 5.39624e-11 )  
( 1.78842e-11 -1.26394e-10 2.40807e-10 )  
( 2.6203e-10 -1.97767e-10 2.79162e-10 )  
( -8.92046e-11 1.23234e-11 1.638e-10 )  
( 3.20872e-10 -8.97686e-11 3.50991e-10 )  
( 2.23876e-10 -6.76975e-11 2.47269e-10 )  
( 4.82899e-10 -2.84166e-10 5.53921e-10 )  
( 2.78723e-10 -8.30819e-13 3.70183e-10 )  
( 3.11578e-10 2.09997e-12 2.01584e-10 )  
( 2.94695e-10 2.61986e-10 5.25658e-10 )  
( 1.29424e-10 1.39098e-11 1.10383e-10 )  
( 8.84003e-11 -1.06098e-10 1.73711e-11 )  
( 2.07093e-12 -6.96997e-11 6.91474e-11 )  
( -2.59087e-11 -1.63125e-10 1.27953e-10 )  
( -4.33505e-11 2.8757e-11 1.56433e-10 )  
( 9.59942e-11 6.37507e-11 5.93644e-11 )  
( -2.84362e-09 2.80698e-09 4.12751e-10 )  
( 2.64992e-10 -8.90771e-11 2.60658e-10 )  
( -8.05649e-11 -1.77575e-10 3.88225e-10 )  
( 1.17684e-09 -4.70897e-11 1.14718e-09 )  
( 4.48874e-11 5.33398e-11 1.18383e-10 )  
( 1.15592e-10 1.84135e-11 9.66372e-11 )  
( 1.26142e-09 -9.27252e-10 1.07458e-09 )  
( 3.73185e-09 -6.13418e-10 7.58538e-10 )  
( 1.19632e-09 2.17495e-11 6.40327e-10 )  
( 3.82304e-10 1.55989e-10 3.63805e-10 )  
)
