/*--------------------------------*- C++ -*----------------------------------*\
| =========                 |                                                 |
| \\      /  F ield         | OpenFOAM: The Open Source CFD Toolbox           |
|  \\    /   O peration     | Version:  4.x                                   |
|   \\  /    A nd           | Web:      www.OpenFOAM.org                      |
|    \\/     M anipulation  |                                                 |
\*---------------------------------------------------------------------------*/
FoamFile
{
    version     2.0;
    format      ascii;
    class       volVectorField;
    location    "36.5";
    object      ddtUrel;
}
// * * * * * * * * * * * * * * * * * * * * * * * * * * * * * * * * * * * * * //

dimensions      [0 1 -2 0 0 0 0];

internalField   nonuniform List<vector> 
132
(
(-2.23595e-09 5.92559e-10 6.48081e-10)
(-2.60833e-09 4.56033e-10 1.13334e-09)
(-2.46446e-09 1.90366e-10 1.56092e-09)
(-1.87593e-09 -1.84125e-10 1.92065e-09)
(-1.01532e-09 -5.5301e-10 2.22022e-09)
(-9.49738e-11 -8.91164e-10 2.51737e-09)
(6.1681e-10 -1.14866e-09 2.73379e-09)
(1.11393e-09 -1.22554e-09 2.64147e-09)
(1.27113e-09 -1.14508e-09 2.51774e-09)
(-1.1446e-09 5.17994e-10 6.53618e-10)
(-1.41509e-09 3.87043e-10 1.10309e-09)
(-1.38049e-09 1.54394e-10 1.51142e-09)
(-1.0338e-09 -1.58999e-10 1.84879e-09)
(-4.39272e-10 -4.92023e-10 2.12873e-09)
(2.01896e-10 -7.46907e-10 2.41846e-09)
(6.55206e-10 -8.95417e-10 2.69068e-09)
(1.01321e-09 -8.00627e-10 2.7041e-09)
(1.14176e-09 -6.13419e-10 2.52457e-09)
(-6.41922e-10 3.88091e-10 5.76198e-10)
(-8.85375e-10 2.64711e-10 9.7948e-10)
(-8.89396e-10 8.83647e-11 1.36077e-09)
(-6.90666e-10 -1.2125e-10 1.64979e-09)
(-2.25092e-10 -3.55343e-10 1.89817e-09)
(2.37879e-10 -4.51925e-10 2.14538e-09)
(6.05131e-10 -4.54133e-10 2.37895e-09)
(8.96476e-10 -1.55353e-10 2.33692e-09)
(1.34805e-09 2.37583e-10 2.19555e-09)
(-7.27464e-10 2.86162e-10 5.01924e-10)
(-9.64228e-10 1.89641e-10 8.50731e-10)
(-9.37243e-10 6.58702e-11 1.19744e-09)
(-7.95446e-10 -7.6213e-11 1.4418e-09)
(-2.99949e-10 -2.13285e-10 1.65817e-09)
(1.20814e-10 -1.85179e-10 1.85515e-09)
(5.89445e-10 -2.87028e-11 2.01167e-09)
(1.02592e-09 3.62381e-10 1.91793e-09)
(1.3551e-09 8.86715e-10 1.74742e-09)
(-1.68094e-09 1.60327e-10 1.12704e-09)
(-1.38938e-09 -1.5348e-10 1.4232e-09)
(-8.3516e-10 -4.43162e-10 1.66319e-09)
(-1.79543e-10 -6.77954e-10 1.90903e-09)
(4.13212e-10 -8.21686e-10 2.10131e-09)
(8.68275e-10 -8.62134e-10 2.09954e-09)
(1.07902e-09 -8.0629e-10 2.14078e-09)
(-7.79161e-10 5.05465e-10 4.44372e-10)
(-9.77273e-10 3.76568e-10 7.50854e-10)
(-1.0344e-09 1.92634e-10 1.08483e-09)
(-8.91699e-10 -6.29463e-11 1.37274e-09)
(-4.9949e-10 -3.25959e-10 1.62108e-09)
(1.83444e-12 -5.05492e-10 1.88379e-09)
(3.96927e-10 -6.07187e-10 2.06842e-09)
(7.6819e-10 -5.63165e-10 2.08638e-09)
(9.7839e-10 -4.73388e-10 2.0002e-09)
(-4.5073e-10 4.11036e-10 4.0129e-10)
(-6.52589e-10 2.9902e-10 6.89093e-10)
(-7.21956e-10 1.46971e-10 9.87298e-10)
(-6.50633e-10 -6.54994e-13 1.26434e-09)
(-3.27062e-10 -1.80477e-10 1.48409e-09)
(8.90219e-11 -2.70605e-10 1.72806e-09)
(4.48716e-10 -3.11596e-10 1.89612e-09)
(8.60781e-10 -1.34811e-10 1.8367e-09)
(1.44324e-09 2.16697e-10 1.75808e-09)
(-5.05116e-10 3.04569e-10 3.56284e-10)
(-7.70111e-10 2.21571e-10 6.16687e-10)
(-8.09234e-10 1.13219e-10 8.98328e-10)
(-7.51931e-10 1.65816e-11 1.14034e-09)
(-4.03849e-10 -1.02168e-10 1.34076e-09)
(-6.42996e-11 -1.23728e-10 1.54107e-09)
(4.03297e-10 -8.38406e-11 1.66723e-09)
(8.28276e-10 1.18021e-10 1.58991e-09)
(1.19748e-09 4.37402e-10 1.49098e-09)
(-8.11487e-10 -3.18773e-10 1.2232e-09)
(-3.6819e-10 -4.79058e-10 1.38718e-09)
(1.2474e-10 -5.67969e-10 1.5338e-09)
(4.97662e-10 -5.63958e-10 1.54585e-09)
(6.53932e-10 -5.33916e-10 1.50955e-09)
(-6.47823e-10 4.5401e-10 2.91552e-10)
(-7.8618e-10 3.44671e-10 5.1389e-10)
(-8.93098e-10 1.86392e-10 7.42439e-10)
(-8.16808e-10 -2.25786e-12 9.99215e-10)
(-5.63564e-10 -1.88601e-10 1.20801e-09)
(-2.04875e-10 -3.26178e-10 1.40857e-09)
(1.9603e-10 -3.89482e-10 1.54932e-09)
(4.76778e-10 -3.66831e-10 1.53735e-09)
(6.66974e-10 -3.29871e-10 1.48089e-09)
(-3.95389e-10 3.94614e-10 2.75949e-10)
(-5.59479e-10 2.98075e-10 4.79135e-10)
(-6.75165e-10 1.85769e-10 7.02996e-10)
(-6.55665e-10 7.52688e-11 9.44677e-10)
(-4.42564e-10 -6.88519e-11 1.14332e-09)
(-6.70115e-11 -1.58718e-10 1.34007e-09)
(3.3628e-10 -1.98254e-10 1.43471e-09)
(6.30108e-10 -1.14531e-10 1.40554e-09)
(8.00916e-10 -1.77518e-12 1.33249e-09)
(-4.4875e-10 3.21677e-10 2.61326e-10)
(-6.66964e-10 2.4815e-10 4.56432e-10)
(-7.71664e-10 1.6509e-10 6.66077e-10)
(-8.07418e-10 8.09218e-11 8.8637e-10)
(-6.45319e-10 -1.00532e-11 1.07247e-09)
(-1.70849e-10 -7.77605e-11 1.25847e-09)
(3.08605e-10 -8.26378e-11 1.32062e-09)
(6.31071e-10 2.93036e-11 1.2586e-09)
(7.87088e-10 1.55693e-10 1.1805e-09)
(-3.13247e-10 -4.32845e-10 1.17345e-09)
(-2.16249e-10 -4.04345e-10 1.20361e-09)
(2.66067e-10 -3.42474e-10 1.05315e-09)
(-5.62235e-10 4.09849e-10 2.35373e-10)
(-6.45113e-10 3.00467e-10 4.04691e-10)
(-8.33602e-10 1.70874e-10 5.93091e-10)
(-8.24504e-10 1.64184e-11 7.8431e-10)
(-7.23569e-10 -1.21591e-10 9.70136e-10)
(-5.60115e-10 -2.34463e-10 1.11742e-09)
(-1.74641e-10 -2.87613e-10 1.1889e-09)
(-5.22706e-11 -2.67609e-10 1.18629e-09)
(3.39822e-10 -2.37359e-10 1.10766e-09)
(-3.54482e-10 3.89726e-10 2.32773e-10)
(-4.98877e-10 2.8694e-10 3.88361e-10)
(-6.66944e-10 1.92431e-10 5.65862e-10)
(-7.51823e-10 9.40537e-11 7.54001e-10)
(-7.59251e-10 -5.93569e-12 9.41902e-10)
(-4.53475e-10 -9.70454e-11 1.08079e-09)
(-8.78892e-12 -1.37191e-10 1.13e-09)
(2.0879e-10 -9.90255e-11 1.11618e-09)
(4.80138e-10 -4.56793e-11 1.05827e-09)
(-4.17001e-10 3.31176e-10 2.25136e-10)
(-5.95488e-10 2.53049e-10 3.7729e-10)
(-7.68866e-10 1.81138e-10 5.51827e-10)
(-1.00085e-09 1.22487e-10 7.41431e-10)
(-1.60968e-09 1.11264e-10 9.46438e-10)
(-6.17117e-10 -2.12436e-11 1.04355e-09)
(1.99453e-11 -4.6392e-11 1.06951e-09)
(3.43843e-10 1.40872e-11 1.03516e-09)
(5.91482e-10 1.34092e-10 9.62641e-10)
)
;

boundaryField
{
    inlet
    {
        type            calculated;
        value           nonuniform 0();
    }
    outlet
    {
        type            calculated;
        value           nonuniform List<vector> 
16
(
(2.32555e-09 -1.70107e-09 4.0524e-09)
(2.42282e-09 -1.84392e-09 4.24607e-09)
(4.4625e-09 -8.99118e-11 2.85258e-09)
(2.47935e-09 5.16084e-10 8.56779e-10)
(2.43738e-09 -1.16039e-09 3.68888e-09)
(1.00564e-09 -1.27079e-09 2.02288e-09)
(8.65997e-09 3.25436e-09 1.5942e-09)
(3.53082e-09 1.49478e-09 5.49008e-10)
(8.7747e-10 -6.98196e-10 1.01664e-09)
(1.09967e-09 -4.82657e-10 1.18202e-09)
(1.38734e-09 1.97869e-10 5.15429e-10)
(1.20724e-09 2.71078e-10 1.37496e-10)
(3.94575e-11 2.84059e-10 -7.46999e-10)
(7.53594e-11 -1.61063e-10 1.02284e-10)
(5.76868e-10 2.68477e-11 1.76282e-10)
(1.53642e-09 1.12263e-09 -1.82456e-10)
)
;
    }
    wall
    {
        type            calculated;
        value           nonuniform List<vector> 
66
(
(3.96462e-10 4.99088e-10 -6.3829e-11)
(8.84928e-10 5.51307e-10 3.52473e-13)
(-2.60608e-10 2.76522e-10 -2.14862e-11)
(2.10627e-09 4.2273e-10 -2.19329e-11)
(9.92689e-10 2.90219e-10 2.81795e-11)
(-3.33519e-10 1.40869e-10 2.58555e-11)
(-3.67653e-10 3.81255e-10 9.07175e-11)
(1.22926e-10 3.2855e-10 6.78771e-11)
(-9.54488e-10 1.55552e-10 1.23367e-10)
(-1.4434e-10 1.22463e-10 1.53262e-10)
(-2.30258e-10 2.96565e-10 1.3135e-10)
(-1.23557e-09 1.70333e-10 2.0399e-10)
(-1.07397e-09 4.13406e-11 4.37312e-10)
(-6.6087e-10 1.60384e-10 4.2005e-10)
(-1.26542e-08 1.23827e-09 9.42191e-10)
(-4.75465e-09 -1.32232e-10 7.8513e-10)
(-2.78482e-09 1.25372e-10 6.44949e-10)
(-2.54463e-09 3.31274e-11 5.34139e-10)
(-2.27897e-09 -2.92577e-10 2.70392e-10)
(-1.12793e-09 -8.57145e-11 4.46093e-10)
(-3.15973e-10 5.53863e-11 5.41289e-10)
(-1.86085e-10 9.57049e-11 3.65978e-10)
(-1.00916e-08 -4.29688e-10 1.24993e-09)
(-6.43485e-09 -2.20352e-10 9.76758e-10)
(-2.55458e-09 2.8188e-11 4.06804e-10)
(-7.36494e-10 7.1782e-11 2.08921e-10)
(-3.75584e-12 8.6304e-10 -1.12138e-09)
(1.0027e-10 4.78963e-10 -2.02305e-10)
(2.98144e-10 1.89387e-10 3.46867e-10)
(6.88965e-10 1.14444e-09 -1.35657e-10)
(-3.3395e-09 2.47933e-10 9.71721e-13)
(-9.62446e-10 7.19802e-11 -1.5524e-10)
(-1.02545e-09 1.86014e-10 -1.38776e-10)
(-1.09073e-09 2.86781e-10 -1.32339e-11)
(-3.46512e-09 1.38612e-10 4.31056e-10)
(-3.62528e-09 1.10929e-10 1.36188e-10)
(-2.50607e-09 2.01367e-10 9.2279e-11)
(-1.73767e-09 1.50649e-10 3.62034e-11)
(-1.9076e-09 1.34428e-10 1.01348e-09)
(-2.3822e-09 -7.5054e-11 6.68972e-10)
(-1.77379e-09 2.22168e-10 1.83726e-10)
(-1.44697e-09 1.64336e-10 1.31725e-10)
(-4.17666e-09 8.20864e-11 9.12448e-10)
(-2.79707e-09 2.41105e-10 7.70735e-10)
(-2.40768e-09 1.85551e-10 4.84573e-10)
(-1.72019e-09 1.73414e-10 2.07906e-10)
(-1.42845e-09 -2.67653e-10 1.04666e-09)
(-4.33617e-10 -1.5638e-10 7.81645e-10)
(-3.93741e-10 3.21752e-11 4.38863e-10)
(-2.84947e-08 1.74589e-09 1.54363e-09)
(-2.66428e-09 1.34697e-11 1.04965e-09)
(-2.95306e-09 2.02244e-10 1.13011e-09)
(-2.77183e-10 -4.0563e-11 1.20161e-09)
(-1.76178e-09 4.14765e-11 5.16518e-10)
(-1.03317e-09 -2.97423e-10 1.93413e-09)
(-2.26656e-10 -1.58136e-10 1.71421e-09)
(1.01729e-09 -1.38057e-10 1.13521e-09)
(7.00275e-11 7.96109e-11 3.27548e-10)
(1.95842e-09 -5.1076e-10 1.24461e-09)
(1.82467e-09 -2.54632e-11 9.52368e-10)
(1.93744e-09 2.11121e-10 5.53438e-10)
(1.88757e-10 1.18392e-10 2.27695e-10)
(1.22851e-09 5.72908e-10 6.5934e-10)
(2.39258e-09 1.61967e-09 5.15692e-10)
(6.87187e-10 1.61928e-10 2.02089e-10)
(6.02603e-10 9.68858e-10 7.60467e-10)
)
;
    }
    procBoundary7to0
    {
        type            processor;
        value           uniform (-1.54871e-09 5.87842e-10 2.63223e-10);
    }
    procBoundary7to1
    {
        type            processor;
        value           uniform (-3.85118e-09 5.30905e-10 5.92981e-10);
    }
    procBoundary7to3
    {
        type            processor;
        value           nonuniform List<vector> 
36
(
(-3.6406e-09 6.79735e-10 9.21663e-10)
(-4.2456e-09 5.78205e-10 1.54956e-09)
(-3.83192e-09 3.07026e-10 2.10404e-09)
(-2.76444e-09 -1.5635e-10 2.47126e-09)
(-1.33609e-09 -6.0885e-10 2.81195e-09)
(2.01837e-11 -1.07025e-09 3.12694e-09)
(9.35697e-10 -1.48696e-09 3.357e-09)
(1.20567e-09 -1.77126e-09 3.04014e-09)
(9.00428e-10 -1.90291e-09 2.23039e-09)
(-1.82298e-09 5.25683e-10 9.01423e-10)
(-2.19021e-09 3.72566e-10 1.4859e-09)
(-2.01737e-09 8.40636e-11 1.98761e-09)
(-1.36072e-09 -2.46887e-10 2.38292e-09)
(-3.80081e-10 -6.18892e-10 2.69879e-09)
(5.91715e-10 -9.87335e-10 3.04841e-09)
(1.19182e-09 -1.19844e-09 3.35522e-09)
(1.36336e-09 -1.11119e-09 3.26562e-09)
(1.01715e-09 -8.0688e-10 2.67956e-09)
(-1.04162e-09 3.31866e-10 7.97825e-10)
(-1.33929e-09 1.92185e-10 1.29683e-09)
(-1.28647e-09 -4.17998e-11 1.77631e-09)
(-7.98749e-10 -2.77505e-10 2.09259e-09)
(-2.60532e-11 -5.21371e-10 2.34712e-09)
(7.06866e-10 -6.29056e-10 2.62186e-09)
(1.10704e-09 -5.33787e-10 2.90717e-09)
(1.28096e-09 2.70288e-11 2.83468e-09)
(1.49618e-09 7.3581e-10 2.49116e-09)
(-9.96635e-10 2.533e-10 6.83386e-10)
(-1.36698e-09 1.36942e-10 1.11553e-09)
(-1.30316e-09 3.66233e-12 1.52427e-09)
(-8.23561e-10 -1.77486e-10 1.7571e-09)
(-2.60883e-11 -3.25547e-10 1.99225e-09)
(6.76427e-10 -1.87755e-10 2.18621e-09)
(1.26247e-09 2.81856e-10 2.2957e-09)
(1.7324e-09 1.30534e-09 2.1669e-09)
(1.90445e-09 2.66303e-09 1.76354e-09)
)
;
    }
    procBoundary7to5
    {
        type            processor;
        value           nonuniform List<vector> 
44
(
(-4.46006e-09 4.12815e-10 1.08471e-09)
(-4.03946e-09 1.80873e-10 1.48827e-09)
(-3.00353e-09 -1.74488e-10 1.82321e-09)
(-1.73048e-09 -5.14345e-10 2.10581e-09)
(-4.45932e-10 -8.54341e-10 2.39465e-09)
(6.72273e-10 -1.0991e-09 2.6463e-09)
(1.58979e-09 -1.1988e-09 2.61371e-09)
(2.06859e-09 -1.04456e-09 2.59901e-09)
(-1.46772e-09 5.32782e-10 4.51781e-10)
(-1.70823e-09 3.79446e-10 7.96557e-10)
(-2.55038e-09 7.15036e-11 1.08521e-09)
(-2.02553e-09 -2.1861e-10 1.3655e-09)
(-1.26183e-09 -4.85478e-10 1.5945e-09)
(-4.06522e-10 -7.18044e-10 1.81136e-09)
(4.04295e-10 -8.74212e-10 2.0128e-09)
(1.07319e-09 -9.19318e-10 2.02051e-09)
(1.36402e-09 -8.8079e-10 2.05944e-09)
(-1.46772e-09 5.32782e-10 4.51781e-10)
(-1.70823e-09 3.79446e-10 7.96557e-10)
(-1.70823e-09 3.79446e-10 7.96557e-10)
(-1.36205e-09 1.125e-10 8.05135e-10)
(-1.17982e-09 -1.24451e-10 1.03822e-09)
(-1.08173e-09 -4.28624e-10 1.17865e-09)
(-5.18832e-10 -5.63324e-10 1.32585e-09)
(7.21126e-11 -6.3501e-10 1.45601e-09)
(5.50434e-10 -6.30204e-10 1.46674e-09)
(7.40194e-10 -5.73308e-10 1.45346e-09)
(-1.16384e-09 4.3029e-10 3.12586e-10)
(-1.29805e-09 3.05696e-10 5.47311e-10)
(-1.36205e-09 1.125e-10 8.05135e-10)
(-1.17982e-09 -1.24451e-10 1.03822e-09)
(-1.17982e-09 -1.24451e-10 1.03822e-09)
(-9.02769e-10 -2.5251e-10 9.65576e-10)
(-6.51026e-10 -3.67896e-10 1.08562e-09)
(-3.48964e-10 -4.92828e-10 1.11065e-09)
(-1.40481e-10 -4.81387e-10 1.12865e-09)
(2.70111e-10 -4.17194e-10 1.0095e-09)
(-9.28972e-10 3.54165e-10 2.52177e-10)
(-1.02005e-09 2.45091e-10 4.28621e-10)
(-1.20264e-09 8.55028e-11 6.31782e-10)
(-1.11825e-09 -9.70441e-11 8.11638e-10)
(-9.02769e-10 -2.5251e-10 9.65576e-10)
(-6.51026e-10 -3.67896e-10 1.08562e-09)
(-6.51026e-10 -3.67896e-10 1.08562e-09)
)
;
    }
    procBoundary7to6
    {
        type            processor;
        value           nonuniform List<vector> 
12
(
(-7.29498e-10 5.56296e-10 2.97868e-10)
(-3.76504e-10 4.44922e-10 2.80172e-10)
(-4.34789e-10 3.36829e-10 2.50799e-10)
(-4.9809e-10 5.48289e-10 2.04756e-10)
(-2.51719e-10 4.54105e-10 1.90277e-10)
(-3.22557e-10 3.55746e-10 1.73683e-10)
(-4.41241e-10 5.30331e-10 1.33565e-10)
(-2.27266e-10 4.66435e-10 1.32852e-10)
(-2.73923e-10 3.7296e-10 1.20941e-10)
(-3.72984e-10 5.20972e-10 1.09433e-10)
(-2.17318e-10 4.6995e-10 1.15727e-10)
(-2.54799e-10 3.74205e-10 1.09889e-10)
)
;
    }
}


// ************************************************************************* //
