/*--------------------------------*- C++ -*----------------------------------*\
| =========                 |                                                 |
| \\      /  F ield         | OpenFOAM: The Open Source CFD Toolbox           |
|  \\    /   O peration     | Version:  4.x                                   |
|   \\  /    A nd           | Web:      www.OpenFOAM.org                      |
|    \\/     M anipulation  |                                                 |
\*---------------------------------------------------------------------------*/
FoamFile
{
    version     2.0;
    format      ascii;
    class       volScalarField;
    location    "36.5";
    object      Ksl;
}
// * * * * * * * * * * * * * * * * * * * * * * * * * * * * * * * * * * * * * //

dimensions      [1 -3 -1 0 0 0 0];

internalField   nonuniform List<scalar> 
132
(
1e+10
3841.56
1e+10
3793.04
1e+10
3802.61
1e+10
4156.93
20095.7
822443
3848.34
1e+10
3871.3
54661.7
3918.22
15526.2
4093.09
6596.84
16964.5
3484.18
17761.5
3335.99
16522.8
3149.11
12940.8
2799.01
10008.9
6826.54
3085.52
7082.36
2987.36
7801.38
2898.67
9206.33
2691.1
11695.1
1e+10
3751.96
1e+10
3752.5
1e+10
4063.12
14361.2
1e+10
3889.7
1e+10
3793.97
1e+10
3713.53
1e+10
3665.44
30057.8
505409
3787.47
1e+10
3852.26
1e+10
4130.85
1e+10
4966.33
18849.9
8818.58
3311.46
10679.9
3313.71
14290.2
3339.02
18719.7
3391.98
25914.7
31692.3
3426.09
16571.5
3513.68
6388.73
6.99125e+06
3751.92
1e+10
3751.04
1e+10
3870.95
64597
4152.71
8605.97
15421.4
3462.77
16911.4
3277.08
16482.4
2987.16
13921.4
2535.93
9526.52
6420.36
3069.59
6645.77
3018.55
7292.26
2921.8
8879.02
2663.91
14450.3
8427.08
2387.9
8617.5
9420.68
3287.79
10937
3236.5
12410
3126.09
13064
2907.26
13877.2
6663.08
3081.36
7058.5
3060.89
8070.02
2937.6
9862.81
2777.43
15508
5085.9
2867
5236.9
2886.65
5668.12
2886.18
6128.57
3125.17
5965.06
)
;

boundaryField
{
    inlet
    {
        type            zeroGradient;
    }
    outlet
    {
        type            zeroGradient;
    }
    wall
    {
        type            zeroGradient;
    }
    procBoundary7to0
    {
        type            processor;
        value           uniform 3862.09;
    }
    procBoundary7to1
    {
        type            processor;
        value           uniform 1e+10;
    }
    procBoundary7to3
    {
        type            processor;
        value           nonuniform List<scalar> 
36
(
73226.7
3745.33
162797
3730.59
150247
3751.03
63153.5
3967.15
11467.2
161598
3823.95
1e+10
3826.59
1e+10
3842.26
1e+10
4144.45
24183.9
44005.2
3655.99
109669
3536.41
54470.3
3444.78
16124.3
3422.28
5421.7
6776.46
3097.57
6915.83
2982.9
7537.76
2800.44
8229.49
2280.44
8260.78
)
;
    }
    procBoundary7to5
    {
        type            processor;
        value           nonuniform List<scalar> 
44
(
4119.05
1e+10
4166.14
1e+10
4267.73
318877
4635.61
12987.6
1e+10
3797.22
1e+10
3627.25
1.56347e+06
3521.59
51894
3634.73
13752
1e+10
3797.22
3797.22
50882.9
3508.15
1e+10
3858.62
34292.3
4166.36
7176.08
41763.9
3607.95
50882.9
3508.15
3508.15
8275.27
2780.86
7760.62
2316.61
7640.02
7423.88
3112.92
7725.05
2995.5
8275.27
2780.86
2780.86
)
;
    }
    procBoundary7to6
    {
        type            processor;
        value           nonuniform List<scalar> 
12
(
3856.75
3586.99
3176.64
3957.98
3796.51
3350.28
3757.98
3578.36
3168.32
3337.71
3174.39
2949.04
)
;
    }
}


// ************************************************************************* //
