/*--------------------------------*- C++ -*----------------------------------*\
| =========                 |                                                 |
| \\      /  F ield         | OpenFOAM: The Open Source CFD Toolbox           |
|  \\    /   O peration     | Version:  4.x                                   |
|   \\  /    A nd           | Web:      www.OpenFOAM.org                      |
|    \\/     M anipulation  |                                                 |
\*---------------------------------------------------------------------------*/
FoamFile
{
    version     2.0;
    format      ascii;
    class       volVectorField;
    location    "36.5";
    object      Us;
}
// * * * * * * * * * * * * * * * * * * * * * * * * * * * * * * * * * * * * * //

dimensions      [0 1 -1 0 0 0 0];

internalField   nonuniform List<vector> 
132
(
(2.22907e-09 -1.10924e-09 2.69788e-09)
(2.37486e-09 -1.2515e-09 3.52622e-09)
(2.02308e-09 -1.1404e-09 3.62976e-09)
(9.0573e-10 -1.90116e-09 2.22926e-10)
(1.50515e-09 -1.19856e-09 -1.76982e-09)
(8.64791e-10 -4.73827e-10 -5.44469e-09)
(-7.43307e-10 -6.50611e-11 -6.62314e-09)
(-3.14188e-10 1.26485e-09 -6.54778e-09)
(-7.55389e-11 -4.17723e-11 -5.2932e-09)
(3.58085e-10 -2.41246e-09 3.7897e-09)
(6.07865e-10 -2.03743e-09 3.17059e-09)
(5.02779e-10 -3.27824e-09 3.5199e-09)
(5.72726e-10 -2.3586e-09 1.12588e-09)
(2.49493e-10 -1.67528e-09 -2.25164e-09)
(-5.72833e-11 -1.21228e-09 -4.81664e-09)
(-2.96128e-10 -2.16706e-11 -6.81861e-09)
(-1.18747e-09 9.04913e-10 -1.02653e-08)
(-1.66345e-09 -1.31927e-10 -7.25741e-09)
(5.284e-10 -3.28191e-09 1.06495e-09)
(5.56822e-10 -2.34735e-09 2.35142e-09)
(-1.73415e-10 -2.56157e-09 1.76153e-09)
(-6.90117e-10 -1.98802e-09 2.13874e-10)
(-2.68132e-10 -1.63286e-09 -2.26399e-09)
(-9.22929e-10 -1.59405e-09 -3.93251e-09)
(-1.43856e-09 -2.2859e-10 -4.89939e-09)
(-1.44812e-09 2.90452e-10 -6.5367e-09)
(1.73586e-09 1.02883e-09 -4.8105e-09)
(-3.5803e-10 -3.14541e-09 9.90945e-11)
(-1.30446e-10 -1.54706e-09 6.1744e-10)
(-4.57557e-10 -1.59394e-09 1.01604e-09)
(-1.33729e-09 -1.38946e-09 1.51833e-10)
(-1.11379e-09 -1.26494e-09 -1.06478e-09)
(-1.63585e-09 -9.26193e-10 -2.08601e-09)
(-2.18379e-09 -6.75072e-10 -2.60179e-09)
(-1.68479e-09 8.00164e-10 -2.49334e-09)
(7.00512e-10 3.60394e-10 -9.51884e-10)
(1.86873e-09 -1.73413e-09 6.88249e-10)
(1.68396e-09 -1.29133e-09 4.0623e-10)
(1.39985e-09 -7.56079e-10 -9.70444e-10)
(1.01946e-09 -3.0032e-10 -3.02237e-09)
(-1.14634e-10 -2.17941e-11 -4.20067e-09)
(-4.88931e-11 1.35341e-09 -4.86226e-09)
(2.10238e-10 5.61088e-10 -4.1624e-09)
(1.12971e-09 -1.39835e-09 2.18489e-09)
(1.40243e-09 -1.28353e-09 1.94124e-09)
(1.37906e-09 -2.39138e-09 1.6843e-09)
(1.07463e-09 -1.7388e-09 7.17821e-10)
(5.89909e-10 -1.03585e-09 -1.24395e-09)
(-2.69324e-11 -7.23192e-10 -3.13819e-09)
(-7.39565e-10 -2.07169e-10 -4.32484e-09)
(-5.47824e-10 1.4547e-09 -6.68379e-09)
(-1.83602e-10 1.06637e-09 -3.50442e-09)
(-2.30436e-10 -1.84649e-09 1.09507e-09)
(-4.93402e-10 -1.5966e-09 1.29344e-09)
(-7.33507e-10 -2.59843e-09 8.9013e-11)
(-5.11694e-10 -1.6193e-09 1.77876e-10)
(-1.55043e-09 -1.41616e-09 -8.79452e-10)
(-2.24413e-09 -2.2643e-09 -2.75928e-09)
(-1.86556e-09 -9.7767e-10 -3.49745e-09)
(-1.25308e-09 1.12283e-09 -3.40605e-09)
(5.36615e-09 3.62676e-09 -2.01349e-09)
(-1.43006e-09 -1.52108e-09 2.78107e-10)
(-2.05645e-09 -1.70577e-09 4.32212e-10)
(-3.07047e-09 -2.34537e-09 2.26041e-10)
(-2.3261e-09 -7.37063e-10 9.85569e-11)
(-2.49504e-09 -7.23646e-10 -1.58811e-10)
(-2.70714e-09 -1.30795e-09 -1.6791e-09)
(-2.89357e-09 -1.02966e-09 -1.31007e-09)
(-2.0648e-09 8.42619e-10 -1.44422e-09)
(1.22701e-09 1.28906e-09 -4.18462e-10)
(1.57054e-09 -5.20355e-10 -2.83838e-10)
(1.48846e-09 -2.41655e-10 -1.49124e-09)
(6.41048e-10 2.52183e-10 -3.23369e-09)
(3.77905e-10 5.01035e-10 -3.60738e-09)
(3.2435e-10 4.79375e-10 -2.64657e-09)
(1.63547e-09 -9.60247e-10 1.48074e-09)
(1.54589e-09 -9.63808e-10 1.57564e-09)
(8.85237e-10 -7.96127e-10 1.80789e-09)
(1.44892e-09 -1.16922e-09 8.47855e-10)
(1.69552e-09 -7.21336e-10 -3.65405e-10)
(1.84504e-09 -3.78144e-10 -1.97101e-09)
(1.4704e-09 2.94037e-10 -3.66371e-09)
(1.06675e-09 9.51509e-10 -4.39293e-09)
(4.5655e-10 9.90639e-10 -2.88143e-09)
(-8.22284e-10 -1.47916e-09 1.08863e-09)
(-4.7971e-10 -1.69441e-09 1.00539e-09)
(-1.00143e-09 -1.42663e-09 1.48902e-09)
(-1.08809e-09 -1.18291e-09 1.12311e-10)
(-8.1381e-10 -1.0277e-09 -3.61718e-10)
(-5.28171e-10 -7.9101e-10 -1.72811e-09)
(-9.99617e-10 -5.66628e-10 -2.05874e-09)
(2.98147e-10 1.41004e-09 -1.97377e-09)
(4.13815e-10 1.45486e-09 -1.77008e-09)
(-1.13792e-09 -6.40175e-10 6.33099e-10)
(-1.66335e-09 -8.1467e-10 5.59689e-10)
(-2.37637e-09 -6.47754e-10 5.7664e-10)
(-2.60522e-09 -5.59451e-10 2.5716e-10)
(-1.48361e-09 -5.03877e-10 -1.74504e-10)
(-1.91999e-09 -6.97019e-10 -9.19944e-10)
(-2.07073e-09 -7.31813e-10 -1.00843e-09)
(-2.54718e-10 5.52159e-10 -1.1577e-09)
(-1.82162e-10 8.35225e-10 -9.49478e-10)
(6.54208e-10 5.53913e-10 -1.6613e-09)
(2.32607e-11 3.48851e-10 -2.4992e-09)
(1.32004e-09 1.10328e-10 -2.08041e-09)
(2.08934e-09 -5.5684e-10 7.81124e-10)
(2.1586e-09 -8.3226e-10 1.10329e-09)
(1.75037e-09 -6.5104e-10 7.31945e-10)
(1.76903e-09 -3.81529e-10 4.60144e-10)
(2.30342e-09 -1.58645e-10 -3.29436e-10)
(3.42752e-09 3.03884e-10 -1.2326e-09)
(2.31566e-09 2.98812e-10 -1.20038e-09)
(1.77515e-09 9.75184e-10 -2.20028e-09)
(1.29043e-09 1.41544e-09 -2.32209e-09)
(-3.28485e-10 -1.53934e-09 3.88642e-10)
(1.997e-11 -1.2312e-09 4.11721e-10)
(8.9444e-11 -1.28957e-09 3.65598e-10)
(2.13668e-10 -7.23959e-10 2.01405e-10)
(3.58516e-10 -4.59842e-10 -2.93322e-10)
(1.02235e-09 -1.21762e-10 -7.2569e-10)
(1.11251e-09 -2.96138e-11 -5.93868e-10)
(1.31732e-09 1.17576e-09 -1.01859e-09)
(9.9115e-10 2.31801e-09 -8.68574e-10)
(-3.97955e-10 -5.51513e-10 1.79873e-10)
(-6.08409e-10 -6.59333e-10 3.02776e-10)
(-8.28379e-10 -5.63513e-10 3.10288e-11)
(-7.43911e-10 -2.9362e-10 1.08319e-10)
(-1.28712e-09 -2.13379e-08 -1.52151e-10)
(-4.98779e-10 -3.13624e-10 -4.79411e-10)
(-4.01196e-10 -2.16385e-10 -3.8543e-10)
(-2.42157e-10 2.73028e-10 -6.13611e-10)
(5.59224e-10 9.67473e-10 -1.2752e-09)
)
;

boundaryField
{
    inlet
    {
        type            zeroGradient;
    }
    outlet
    {
        type            zeroGradient;
    }
    wall
    {
        type            zeroGradient;
    }
    procBoundary7to0
    {
        type            processor;
        value           uniform (1.19395e-09 -1.36507e-09 3.85117e-09);
    }
    procBoundary7to1
    {
        type            processor;
        value           uniform (1.49589e-09 1.11456e-10 3.70948e-09);
    }
    procBoundary7to3
    {
        type            processor;
        value           nonuniform List<vector> 
36
(
(1.57152e-09 -3.35699e-09 5.09399e-09)
(2.09327e-09 -1.17265e-09 5.91112e-09)
(1.34554e-09 -2.30042e-09 6.44701e-09)
(3.83501e-10 -2.64926e-09 1.24023e-09)
(2.45433e-09 -3.19854e-09 -2.95872e-09)
(3.90201e-09 -1.30579e-09 -6.72922e-09)
(3.39323e-09 -4.72862e-10 -1.18515e-08)
(6.91842e-09 -2.67496e-10 -1.40479e-08)
(5.4576e-09 3.63036e-11 -9.66122e-09)
(-1.67008e-09 -3.97987e-09 5.16756e-09)
(-3.29858e-09 -3.35448e-09 5.53026e-09)
(-2.88152e-09 -5.3993e-09 4.92996e-09)
(-4.15517e-10 -2.60395e-09 1.05287e-09)
(-2.52423e-10 -2.25604e-09 -3.27546e-09)
(4.60267e-10 -9.80671e-10 -6.3463e-09)
(8.40382e-10 8.66081e-10 -1.18139e-08)
(8.04662e-10 1.09848e-09 -1.61899e-08)
(-9.90909e-10 1.50204e-09 -1.42708e-08)
(-1.51947e-09 -1.64033e-09 3.69025e-09)
(-1.56268e-09 -2.34765e-09 4.12275e-09)
(-8.3454e-10 -3.09931e-10 4.4362e-09)
(-1.61306e-09 -1.77489e-09 8.67763e-10)
(-7.36386e-10 -1.53025e-09 -3.05095e-09)
(2.81967e-10 -7.38015e-10 -5.28491e-09)
(8.42303e-10 1.99879e-09 -8.08858e-09)
(1.64271e-09 1.68114e-09 -1.18911e-08)
(6.53552e-10 -1.33561e-09 -1.1838e-08)
(-6.26752e-10 -1.11725e-09 1.76115e-09)
(-1.55286e-09 -1.7094e-09 1.67344e-09)
(-2.14864e-09 -3.22872e-09 2.24765e-09)
(-1.73872e-09 -1.54823e-09 5.45901e-11)
(-1.42331e-09 -1.43603e-09 -2.58211e-09)
(-6.82331e-10 -9.5053e-10 -3.29183e-09)
(-1.40398e-10 1.25724e-10 -4.40147e-09)
(1.85122e-10 -1.89742e-10 -5.80127e-09)
(3.15405e-10 -2.1215e-09 -6.67177e-09)
)
;
    }
    procBoundary7to5
    {
        type            processor;
        value           nonuniform List<vector> 
44
(
(1.88854e-09 -3.5986e-10 5.00126e-09)
(2.26571e-09 8.23374e-10 4.36274e-09)
(2.44542e-09 -4.35536e-10 1.23913e-09)
(1.92888e-09 -9.92186e-10 -1.17612e-09)
(1.45992e-09 -9.28601e-10 -3.19481e-09)
(6.84299e-10 -7.30131e-11 -4.71583e-09)
(1.06474e-09 2.78765e-10 -7.02097e-09)
(3.05499e-10 -9.11945e-11 -4.3546e-09)
(1.62926e-09 -3.69175e-10 1.06185e-09)
(1.50182e-09 -1.04757e-09 1.67124e-09)
(1.7745e-09 -1.87406e-10 3.48537e-09)
(1.82216e-09 7.9203e-11 1.37773e-09)
(1.74447e-09 -2.11237e-10 -9.18485e-10)
(1.32371e-09 -1.38773e-10 -2.29212e-09)
(7.76868e-10 9.47222e-11 -3.88852e-09)
(5.92128e-10 5.70173e-10 -4.39181e-09)
(7.95856e-11 3.50927e-10 -2.8588e-09)
(1.62926e-09 -3.69175e-10 1.06185e-09)
(1.50182e-09 -1.04757e-09 1.67124e-09)
(1.50182e-09 -1.04757e-09 1.67124e-09)
(2.02784e-09 -5.01117e-10 8.75738e-10)
(1.7427e-09 -5.4456e-10 4.24496e-10)
(1.69334e-09 -8.96475e-11 -3.84052e-10)
(1.28793e-09 4.96519e-11 -1.46497e-09)
(2.03407e-10 6.24642e-10 -2.58908e-09)
(2.10125e-10 5.56656e-10 -3.17218e-09)
(3.72063e-10 4.72389e-10 -2.71966e-09)
(2.3501e-09 -1.66152e-10 1.11994e-09)
(2.33991e-09 -3.13187e-10 1.31327e-09)
(2.02784e-09 -5.01117e-10 8.75738e-10)
(1.7427e-09 -5.4456e-10 4.24496e-10)
(1.7427e-09 -5.4456e-10 4.24496e-10)
(1.67405e-09 -1.78049e-10 -1.30821e-10)
(1.40981e-09 1.72775e-11 -5.48828e-10)
(3.57584e-10 5.44678e-10 -1.21388e-09)
(-1.41726e-10 6.19666e-10 -1.6405e-09)
(5.21598e-10 5.12663e-10 -1.37103e-09)
(2.10626e-09 1.15124e-10 5.06469e-10)
(1.68777e-09 -1.4469e-11 6.58907e-10)
(1.3642e-09 1.97712e-11 4.42525e-10)
(1.35989e-09 -2.83445e-10 2.39375e-10)
(1.67405e-09 -1.78049e-10 -1.30821e-10)
(1.40981e-09 1.72775e-11 -5.48828e-10)
(1.40981e-09 1.72775e-11 -5.48828e-10)
)
;
    }
    procBoundary7to6
    {
        type            processor;
        value           nonuniform List<vector> 
12
(
(5.59749e-10 -8.43829e-10 2.42721e-09)
(3.55837e-10 -1.62108e-09 1.86882e-09)
(3.46652e-10 -5.5861e-10 8.53252e-10)
(9.42766e-10 -1.10384e-09 2.03648e-09)
(2.06098e-10 -1.15453e-09 1.03803e-09)
(-8.48048e-10 -6.53374e-10 2.86837e-10)
(1.58943e-09 -1.01122e-09 1.26636e-09)
(3.38011e-10 -1.05229e-09 7.7363e-10)
(-6.13645e-10 -3.33506e-10 3.10156e-10)
(2.08174e-09 -7.05422e-10 8.37836e-10)
(5.71336e-10 -1.10263e-09 2.71408e-10)
(-5.72472e-11 -3.05831e-10 2.60792e-10)
)
;
    }
}


// ************************************************************************* //
