/*--------------------------------*- C++ -*----------------------------------*\
| =========                 |                                                 |
| \\      /  F ield         | OpenFOAM: The Open Source CFD Toolbox           |
|  \\    /   O peration     | Version:  4.x                                   |
|   \\  /    A nd           | Web:      www.OpenFOAM.org                      |
|    \\/     M anipulation  |                                                 |
\*---------------------------------------------------------------------------*/
FoamFile
{
    version     2.0;
    format      ascii;
    class       volVectorField;
    location    "36.5";
    object      UsPrev;
}
// * * * * * * * * * * * * * * * * * * * * * * * * * * * * * * * * * * * * * //

dimensions      [0 1 -1 0 0 0 0];

internalField   nonuniform List<vector> 
132
(
(2.22133e-09 -1.08132e-09 2.72884e-09)
(2.35752e-09 -1.21972e-09 3.58233e-09)
(2.03255e-09 -1.11017e-09 3.69003e-09)
(1.07204e-09 -1.8648e-09 3.23796e-10)
(1.67902e-09 -1.18173e-09 -1.71588e-09)
(1.16464e-09 -4.91918e-10 -5.3057e-09)
(-6.16265e-10 -3.75373e-11 -6.58359e-09)
(-3.73356e-10 1.25126e-09 -6.53336e-09)
(-8.07532e-11 -4.31178e-11 -5.29035e-09)
(3.4239e-10 -2.38554e-09 3.82032e-09)
(6.03737e-10 -2.00198e-09 3.22974e-09)
(5.1469e-10 -3.24856e-09 3.57908e-09)
(7.28007e-10 -2.31586e-09 1.21782e-09)
(3.56406e-10 -1.66241e-09 -2.20426e-09)
(1.20968e-10 -1.24927e-09 -4.708e-09)
(-1.47988e-10 -7.90269e-11 -6.77921e-09)
(-1.09656e-09 8.47475e-10 -1.02249e-08)
(-1.61944e-09 -1.34304e-10 -7.25448e-09)
(5.12287e-10 -3.26674e-09 1.09407e-09)
(5.61091e-10 -2.32045e-09 2.39393e-09)
(-1.4041e-10 -2.53968e-09 1.80933e-09)
(-5.42116e-10 -1.95364e-09 2.80985e-10)
(-1.72117e-10 -1.61695e-09 -2.2274e-09)
(-7.87343e-10 -1.59903e-09 -3.85113e-09)
(-1.27591e-09 -2.45725e-10 -4.86397e-09)
(-1.31033e-09 2.56931e-10 -6.50231e-09)
(1.8052e-09 1.02945e-09 -4.81149e-09)
(-3.72143e-10 -3.13966e-09 1.3892e-10)
(-1.20857e-10 -1.53764e-09 6.43738e-10)
(-4.36997e-10 -1.57873e-09 1.03524e-09)
(-1.21015e-09 -1.37031e-09 1.81414e-10)
(-1.0258e-09 -1.25506e-09 -1.04058e-09)
(-1.56436e-09 -9.19919e-10 -2.03914e-09)
(-2.07419e-09 -6.76448e-10 -2.58731e-09)
(-1.57463e-09 7.93247e-10 -2.46988e-09)
(7.54009e-10 3.59209e-10 -9.50074e-10)
(1.89609e-09 -1.71188e-09 7.2974e-10)
(1.8426e-09 -1.26171e-09 4.63311e-10)
(1.50658e-09 -7.44408e-10 -9.58476e-10)
(1.20405e-09 -2.9024e-10 -3.0167e-09)
(-8.75203e-12 -1.71846e-12 -4.21892e-09)
(-4.22339e-11 1.35624e-09 -4.90203e-09)
(2.23049e-10 5.63092e-10 -4.16576e-09)
(1.12597e-09 -1.38176e-09 2.2073e-09)
(1.41428e-09 -1.25926e-09 1.97826e-09)
(1.39739e-09 -2.37698e-09 1.7121e-09)
(1.21989e-09 -1.7157e-09 7.67752e-10)
(6.71854e-10 -1.0336e-09 -1.22469e-09)
(8.46505e-11 -7.44415e-10 -3.10779e-09)
(-6.5234e-10 -2.20322e-10 -4.32297e-09)
(-4.89781e-10 1.42538e-09 -6.68412e-09)
(-1.5049e-10 1.06185e-09 -3.50441e-09)
(-2.40536e-10 -1.83163e-09 1.1221e-09)
(-4.79045e-10 -1.58116e-09 1.32745e-09)
(-7.08043e-10 -2.58811e-09 1.15297e-10)
(-3.69846e-10 -1.60379e-09 2.19686e-10)
(-1.47239e-09 -1.41427e-09 -8.60761e-10)
(-2.14422e-09 -2.27721e-09 -2.71874e-09)
(-1.76392e-09 -9.86538e-10 -3.48772e-09)
(-1.16073e-09 1.10367e-09 -3.3917e-09)
(5.42094e-09 3.62541e-09 -2.01244e-09)
(-1.4391e-09 -1.51524e-09 3.02224e-10)
(-2.04666e-09 -1.69997e-09 4.56573e-10)
(-3.03778e-09 -2.33982e-09 2.51528e-10)
(-2.19026e-09 -7.28346e-10 1.28049e-10)
(-2.42676e-09 -7.22673e-10 -1.47987e-10)
(-2.65372e-09 -1.3117e-09 -1.65129e-09)
(-2.80984e-09 -1.0311e-09 -1.29867e-09)
(-2.00421e-09 8.33793e-10 -1.43101e-09)
(1.27137e-09 1.28608e-09 -4.15785e-10)
(1.6561e-09 -5.07841e-10 -2.76131e-10)
(1.61467e-09 -2.15184e-10 -1.50814e-09)
(7.69638e-10 2.70368e-10 -3.27076e-09)
(4.8491e-10 5.15387e-10 -3.65026e-09)
(3.66518e-10 4.81144e-10 -2.64637e-09)
(1.62801e-09 -9.43031e-10 1.49823e-09)
(1.56621e-09 -9.43446e-10 1.60124e-09)
(9.1209e-10 -7.8403e-10 1.82369e-09)
(1.60701e-09 -1.15144e-09 8.74037e-10)
(1.76713e-09 -7.16723e-10 -3.59511e-10)
(1.9527e-09 -3.76257e-10 -1.96779e-09)
(1.58253e-09 2.93168e-10 -3.67253e-09)
(1.16046e-09 9.45929e-10 -4.40619e-09)
(5.10827e-10 9.91244e-10 -2.88118e-09)
(-8.32447e-10 -1.46645e-09 1.10883e-09)
(-4.59436e-10 -1.68159e-09 1.02885e-09)
(-9.61912e-10 -1.4167e-09 1.5092e-09)
(-9.32994e-10 -1.17454e-09 1.39694e-10)
(-7.14761e-10 -1.02656e-09 -3.49324e-10)
(-4.17328e-10 -7.97714e-10 -1.71041e-09)
(-8.77766e-10 -5.70443e-10 -2.05297e-09)
(4.14188e-10 1.40126e-09 -1.97278e-09)
(4.75937e-10 1.45382e-09 -1.76828e-09)
(-1.14675e-09 -6.3541e-10 6.47709e-10)
(-1.64925e-09 -8.09473e-10 5.77596e-10)
(-2.34024e-09 -6.44105e-10 5.93192e-10)
(-2.47482e-09 -5.55958e-10 2.77694e-10)
(-1.40813e-09 -5.0386e-10 -1.65013e-10)
(-1.82014e-09 -6.99678e-10 -9.01845e-10)
(-1.97133e-09 -7.35277e-10 -1.00451e-09)
(-1.94959e-10 5.48601e-10 -1.15212e-09)
(-1.29996e-10 8.31469e-10 -9.46383e-10)
(7.61447e-10 5.64362e-10 -1.67386e-09)
(1.21242e-10 3.61236e-10 -2.51655e-09)
(1.3662e-09 1.09513e-10 -2.07878e-09)
(2.08055e-09 -5.40617e-10 7.91035e-10)
(2.17843e-09 -8.1539e-10 1.11309e-09)
(1.77888e-09 -6.39047e-10 7.4256e-10)
(1.91054e-09 -3.67784e-10 4.6892e-10)
(2.37657e-09 -1.53369e-10 -3.27379e-10)
(3.54091e-09 3.13318e-10 -1.23443e-09)
(2.40872e-09 3.00532e-10 -1.2046e-09)
(1.84513e-09 9.78476e-10 -2.20773e-09)
(1.33526e-09 1.41461e-09 -2.32145e-09)
(-3.36873e-10 -1.5301e-09 3.96532e-10)
(3.22617e-11 -1.22209e-09 4.19688e-10)
(1.18829e-10 -1.28213e-09 3.75041e-10)
(3.52568e-10 -7.15823e-10 2.11439e-10)
(4.36919e-10 -4.57416e-10 -2.8922e-10)
(1.08706e-09 -1.22285e-10 -7.20337e-10)
(1.20642e-09 -3.03207e-11 -5.95018e-10)
(1.39282e-09 1.17479e-09 -1.01964e-09)
(1.03506e-09 2.31672e-09 -8.70231e-10)
(-4.05125e-10 -5.47516e-10 1.85388e-10)
(-5.96947e-10 -6.55563e-10 3.09853e-10)
(-8.02618e-10 -5.60985e-10 3.90239e-11)
(-6.05417e-10 -2.89282e-10 1.17625e-10)
(-1.20436e-09 -2.13382e-08 -1.4563e-10)
(-4.56402e-10 -3.14437e-10 -4.75466e-10)
(-3.2893e-10 -2.16375e-10 -3.84647e-10)
(-1.90101e-10 2.72067e-10 -6.11314e-10)
(6.09825e-10 9.65686e-10 -1.27496e-09)
)
;

boundaryField
{
    inlet
    {
        type            calculated;
        value           nonuniform 0();
    }
    outlet
    {
        type            calculated;
        value           uniform (0 0 0);
    }
    wall
    {
        type            calculated;
        value           uniform (0 0 0);
    }
    procBoundary7to0
    {
        type            processor;
        value           uniform (0 0 0);
    }
    procBoundary7to1
    {
        type            processor;
        value           uniform (0 0 0);
    }
    procBoundary7to3
    {
        type            processor;
        value           uniform (0 0 0);
    }
    procBoundary7to5
    {
        type            processor;
        value           uniform (0 0 0);
    }
    procBoundary7to6
    {
        type            processor;
        value           uniform (0 0 0);
    }
}


// ************************************************************************* //
