/*--------------------------------*- C++ -*----------------------------------*\
| =========                 |                                                 |
| \\      /  F ield         | OpenFOAM: The Open Source CFD Toolbox           |
|  \\    /   O peration     | Version:  4.x                                   |
|   \\  /    A nd           | Web:      www.OpenFOAM.org                      |
|    \\/     M anipulation  |                                                 |
\*---------------------------------------------------------------------------*/
FoamFile
{
    version     2.0;
    format      ascii;
    class       volScalarField;
    location    "4";
    object      nu;
}
// * * * * * * * * * * * * * * * * * * * * * * * * * * * * * * * * * * * * * //

dimensions      [0 2 -1 0 0 0 0];

internalField   nonuniform List<scalar> 
132
(
9.99826e-07
9.99717e-07
9.99629e-07
9.99513e-07
9.99415e-07
9.99445e-07
9.99721e-07
9.99846e-07
9.99975e-07
9.99741e-07
9.9964e-07
9.99552e-07
9.9944e-07
9.99342e-07
9.99329e-07
9.99451e-07
9.99554e-07
9.99806e-07
9.99749e-07
9.99544e-07
9.99451e-07
9.99436e-07
9.99353e-07
9.99367e-07
9.99397e-07
9.99457e-07
9.99438e-07
1.00034e-06
1.00024e-06
1.00016e-06
1.00009e-06
1.00001e-06
9.99947e-07
9.99827e-07
9.99787e-07
9.93049e-07
9.99504e-07
9.99366e-07
9.99508e-07
9.99897e-07
9.99979e-07
9.99982e-07
1e-06
9.99612e-07
9.99569e-07
9.99436e-07
9.99369e-07
9.99388e-07
9.99573e-07
9.99766e-07
9.99904e-07
9.99996e-07
9.99763e-07
9.99655e-07
9.99541e-07
9.99469e-07
9.99474e-07
9.99558e-07
9.99608e-07
9.99681e-07
9.99844e-07
1.00025e-06
1.0002e-06
1.00012e-06
1.00002e-06
9.99981e-07
9.9993e-07
9.99851e-07
9.99818e-07
9.99492e-07
9.99402e-07
9.99456e-07
9.99592e-07
9.9974e-07
9.99994e-07
9.99768e-07
9.99732e-07
9.99579e-07
9.99483e-07
9.99431e-07
9.99473e-07
9.99579e-07
9.99703e-07
9.99888e-07
9.99711e-07
9.99678e-07
9.9966e-07
9.99678e-07
9.99669e-07
9.99711e-07
9.99648e-07
9.99718e-07
9.998e-07
1.00024e-06
1.0002e-06
1.00015e-06
1.0001e-06
1.00004e-06
9.99998e-07
9.99935e-07
9.99909e-07
9.99388e-07
9.99807e-07
9.99797e-07
9.95827e-07
1.00014e-06
9.99978e-07
9.99828e-07
9.99814e-07
9.99801e-07
9.99734e-07
9.99646e-07
9.99645e-07
9.99093e-07
1.00024e-06
1.00019e-06
1.00014e-06
1.00008e-06
1.00006e-06
1e-06
9.99887e-07
9.99814e-07
9.99424e-07
1.00028e-06
1.00026e-06
1.00023e-06
1.0002e-06
1.00017e-06
1.00014e-06
1.00011e-06
1.00009e-06
9.9807e-07
)
;

boundaryField
{
    inlet
    {
        type            calculated;
        value           nonuniform 0();
    }
    outlet
    {
        type            calculated;
        value           uniform 1e-06;
    }
    wall
    {
        type            calculated;
        value           nonuniform List<scalar> 
66
(
1.00014e-06
1.00024e-06
1.00028e-06
9.99978e-07
1.00019e-06
1.00026e-06
9.99828e-07
1.00014e-06
1.00023e-06
9.99814e-07
1.00008e-06
1.0002e-06
9.99801e-07
1.00006e-06
1.00017e-06
9.99734e-07
1e-06
1.00014e-06
9.99807e-07
9.99646e-07
9.99887e-07
1.00011e-06
9.99797e-07
9.99645e-07
9.99814e-07
1.00009e-06
9.95827e-07
9.99093e-07
9.99424e-07
9.9807e-07
1.00034e-06
1.00025e-06
1.00024e-06
1.00028e-06
1.00024e-06
1.0002e-06
1.0002e-06
1.00026e-06
1.00016e-06
1.00012e-06
1.00015e-06
1.00023e-06
1.00009e-06
1.00002e-06
1.0001e-06
1.0002e-06
1.00001e-06
9.99981e-07
1.00004e-06
1.00017e-06
9.99947e-07
9.9993e-07
9.99998e-07
1.00014e-06
9.99827e-07
9.99851e-07
9.99935e-07
1.00011e-06
9.99787e-07
9.99818e-07
9.99909e-07
1.00009e-06
9.93049e-07
9.99492e-07
9.99388e-07
9.9807e-07
)
;
    }
    procBoundary7to0
    {
        type            processor;
        value           uniform 9.99942e-07;
    }
    procBoundary7to1
    {
        type            processor;
        value           uniform 9.99635e-07;
    }
    procBoundary7to3
    {
        type            processor;
        value           nonuniform List<scalar> 
36
(
9.9986e-07
9.99692e-07
9.99518e-07
9.99343e-07
9.99241e-07
9.99261e-07
9.99397e-07
9.99538e-07
9.99467e-07
9.9975e-07
9.99597e-07
9.99449e-07
9.99317e-07
9.9921e-07
9.9919e-07
9.99267e-07
9.99368e-07
9.99061e-07
9.99804e-07
9.99532e-07
9.99426e-07
9.99356e-07
9.99241e-07
9.99254e-07
9.99257e-07
9.99339e-07
9.98435e-07
1.00049e-06
1.00032e-06
1.00024e-06
1.00012e-06
9.99967e-07
9.99855e-07
9.99736e-07
9.99688e-07
9.9039e-07
)
;
    }
    procBoundary7to5
    {
        type            processor;
        value           nonuniform List<scalar> 
44
(
9.99501e-07
9.99375e-07
9.99307e-07
9.99297e-07
9.99371e-07
9.99496e-07
9.996e-07
9.99781e-07
9.99752e-07
9.99627e-07
9.99416e-07
9.99353e-07
9.99351e-07
9.99508e-07
9.99677e-07
9.99837e-07
9.99991e-07
9.99752e-07
9.99627e-07
9.99627e-07
9.9957e-07
9.99459e-07
9.99421e-07
9.99427e-07
9.99493e-07
9.99583e-07
9.99803e-07
9.99813e-07
9.99707e-07
9.9957e-07
9.99459e-07
9.99459e-07
9.99954e-07
9.9989e-07
9.99858e-07
9.99832e-07
9.99113e-07
1.00019e-06
1.00013e-06
1.00007e-06
1.00002e-06
9.99954e-07
9.9989e-07
9.9989e-07
)
;
    }
    procBoundary7to6
    {
        type            processor;
        value           nonuniform List<scalar> 
12
(
9.9985e-07
9.99903e-07
1.00043e-06
9.99745e-07
9.99873e-07
1.0003e-06
9.99853e-07
9.99826e-07
1.00026e-06
1.00023e-06
1.00025e-06
1.00029e-06
)
;
    }
}


// ************************************************************************* //
