/*--------------------------------*- C++ -*----------------------------------*\
| =========                 |                                                 |
| \\      /  F ield         | OpenFOAM: The Open Source CFD Toolbox           |
|  \\    /   O peration     | Version:  4.x                                   |
|   \\  /    A nd           | Web:      www.OpenFOAM.org                      |
|    \\/     M anipulation  |                                                 |
\*---------------------------------------------------------------------------*/
FoamFile
{
    version     2.0;
    format      ascii;
    class       volScalarField;
    location    "4";
    object      QWallFluid;
}
// * * * * * * * * * * * * * * * * * * * * * * * * * * * * * * * * * * * * * //

dimensions      [1 -1 -3 0 0 0 0];

internalField   nonuniform List<scalar> 
132
(
0
0
0
0
0
0
0
0
0
0
0
0
0
0
0
0
0
0
0
0
0
0
0
0
0
0
0
7.31902e+08
1.11594e+09
7.6022e+08
1.21129e+09
8.13544e+08
1.29458e+09
7.1314e+08
1.60427e+09
1.21443e+09
0
0
0
0
0
0
0
0
0
0
0
0
0
0
0
0
0
0
0
0
0
0
0
0
0
6.88679e+08
1.06443e+09
7.14958e+08
1.13239e+09
7.66962e+08
1.15402e+09
5.90001e+08
1.08851e+09
7.94211e+08
0
0
0
0
0
0
0
0
0
0
0
0
0
0
0
0
0
0
0
0
0
0
0
7.56947e+08
1.11257e+09
7.8253e+08
1.17894e+09
7.59624e+08
1.22724e+09
6.45187e+08
1.38611e+09
6.7203e+08
5.18411e+08
1.14269e+09
6.40666e+08
2.88151e+08
7.86301e+08
557648
8.19184e+08
408742
8.87765e+08
293523
9.36666e+08
2.21481e+08
5.4073e+08
9.62965e+08
4.52813e+08
9.80857e+08
5.29244e+08
8.96873e+08
1.20837e+08
8.26934e+08
2.26086e+08
1.52506e+09
2.25717e+09
1.75088e+09
2.46027e+09
1.88736e+09
2.58184e+09
1.91651e+09
2.73279e+09
1.97865e+09
)
;

boundaryField
{
    inlet
    {
        type            calculated;
        value           nonuniform 0();
    }
    outlet
    {
        type            calculated;
        value           uniform 0;
    }
    wall
    {
        type            calculated;
        value           uniform 0;
    }
    procBoundary7to0
    {
        type            processor;
        value           uniform 0;
    }
    procBoundary7to1
    {
        type            processor;
        value           uniform 0;
    }
    procBoundary7to3
    {
        type            processor;
        value           nonuniform List<scalar> 
36
(
0
0
0
0
0
0
0
0
0
0
0
0
0
0
0
0
0
0
0
0
0
0
0
0
0
0
0
6.84029e+08
1.19626e+09
8.2921e+08
1.19669e+09
7.12553e+08
1.22782e+09
5.83105e+08
1.43996e+09
6.99515e+08
)
;
    }
    procBoundary7to5
    {
        type            processor;
        value           nonuniform List<scalar> 
44
(
0
0
0
0
0
0
0
0
0
0
0
0
0
0
0
0
0
0
0
0
0
0
0
0
0
0
0
0
0
0
0
0
5.60341e+08
9.65167e+08
4.43508e+08
9.87351e+08
4.63929e+08
7.06953e+08
9.97353e+08
6.17316e+08
9.805e+08
5.60341e+08
9.65167e+08
9.65167e+08
)
;
    }
    procBoundary7to6
    {
        type            processor;
        value           nonuniform List<scalar> 
12
(
0
0
1.0491e+09
0
0
9.93341e+08
0
0
1.03508e+09
8.56139e+08
9.49296e+08
2.07229e+09
)
;
    }
}


// ************************************************************************* //
