/*--------------------------------*- C++ -*----------------------------------*\
| =========                 |                                                 |
| \\      /  F ield         | OpenFOAM: The Open Source CFD Toolbox           |
|  \\    /   O peration     | Version:  4.x                                   |
|   \\  /    A nd           | Web:      www.OpenFOAM.org                      |
|    \\/     M anipulation  |                                                 |
\*---------------------------------------------------------------------------*/
FoamFile
{
    version     2.0;
    format      ascii;
    class       volScalarField;
    location    "4";
    object      rho;
}
// * * * * * * * * * * * * * * * * * * * * * * * * * * * * * * * * * * * * * //

dimensions      [1 -3 0 0 0 0 0];

internalField   nonuniform List<scalar> 
132
(
6701.16
6701.9
6702.49
6703.26
6703.92
6703.72
6701.87
6701.03
6700.16
6701.74
6702.42
6703.01
6703.76
6704.41
6704.5
6703.68
6702.99
6701.3
6701.68
6703.06
6703.68
6703.78
6704.34
6704.25
6704.04
6703.64
6703.77
6697.7
6698.38
6698.95
6699.41
6699.95
6700.35
6701.16
6701.43
6746.9
6703.32
6704.25
6703.3
6700.69
6700.14
6700.12
6700
6702.6
6702.89
6703.78
6704.23
6704.1
6702.86
6701.57
6700.65
6700.03
6701.59
6702.31
6703.08
6703.56
6703.53
6702.96
6702.62
6702.14
6701.04
6698.33
6698.67
6699.23
6699.85
6700.13
6700.47
6701
6701.22
6703.4
6704.01
6703.64
6702.74
6701.74
6700.04
6701.55
6701.8
6702.82
6703.47
6703.82
6703.53
6702.82
6701.99
6700.75
6701.93
6702.15
6702.28
6702.16
6702.22
6701.94
6702.36
6701.89
6701.34
6698.41
6698.66
6698.99
6699.34
6699.7
6700.02
6700.43
6700.61
6704.1
6701.3
6701.36
6728.07
6699.04
6700.14
6701.16
6701.25
6701.33
6701.78
6702.37
6702.38
6706.08
6698.39
6698.73
6699.04
6699.46
6699.59
6699.98
6700.76
6701.25
6703.86
6698.1
6698.26
6698.45
6698.66
6698.85
6699.03
6699.25
6699.42
6712.96
)
;

boundaryField
{
    inlet
    {
        type            calculated;
        value           nonuniform 0();
    }
    outlet
    {
        type            calculated;
        value           uniform 6700;
    }
    wall
    {
        type            calculated;
        value           nonuniform List<scalar> 
66
(
6699.04
6698.39
6698.1
6700.14
6698.73
6698.26
6701.16
6699.04
6698.45
6701.25
6699.46
6698.66
6701.33
6699.59
6698.85
6701.78
6699.98
6699.03
6701.3
6702.37
6700.76
6699.25
6701.36
6702.38
6701.25
6699.42
6728.07
6706.08
6703.86
6712.96
6697.7
6698.33
6698.41
6698.1
6698.38
6698.67
6698.66
6698.26
6698.95
6699.23
6698.99
6698.45
6699.41
6699.85
6699.34
6698.66
6699.95
6700.13
6699.7
6698.85
6700.35
6700.47
6700.02
6699.03
6701.16
6701
6700.43
6699.25
6701.43
6701.22
6700.61
6699.42
6746.9
6703.4
6704.1
6712.96
)
;
    }
    procBoundary7to0
    {
        type            processor;
        value           uniform 6700.39;
    }
    procBoundary7to1
    {
        type            processor;
        value           uniform 6702.45;
    }
    procBoundary7to3
    {
        type            processor;
        value           nonuniform List<scalar> 
36
(
6700.94
6702.06
6703.23
6704.4
6705.09
6704.95
6704.04
6703.1
6703.57
6701.68
6702.7
6703.7
6704.58
6705.3
6705.43
6704.91
6704.24
6706.3
6701.32
6703.14
6703.85
6704.32
6705.09
6705
6704.98
6704.43
6710.5
6696.73
6697.86
6698.36
6699.23
6700.22
6700.97
6701.77
6702.09
6765.01
)
;
    }
    procBoundary7to5
    {
        type            processor;
        value           nonuniform List<scalar> 
44
(
6703.34
6704.19
6704.65
6704.71
6704.22
6703.38
6702.68
6701.46
6701.66
6702.5
6703.92
6704.34
6704.35
6703.3
6702.16
6701.09
6700.06
6701.66
6702.5
6702.5
6702.88
6703.63
6703.88
6703.84
6703.4
6702.79
6701.32
6701.25
6701.97
6702.88
6703.63
6703.63
6700.31
6700.73
6700.95
6701.13
6705.95
6698.73
6699.1
6699.54
6699.86
6700.31
6700.73
6700.73
)
;
    }
    procBoundary7to6
    {
        type            processor;
        value           nonuniform List<scalar> 
12
(
6701.01
6700.65
6697.1
6701.71
6700.85
6697.96
6700.98
6701.17
6698.26
6698.48
6698.31
6698.04
)
;
    }
}


// ************************************************************************* //
