/*--------------------------------*- C++ -*----------------------------------*\
| =========                 |                                                 |
| \\      /  F ield         | OpenFOAM: The Open Source CFD Toolbox           |
|  \\    /   O peration     | Version:  4.x                                   |
|   \\  /    A nd           | Web:      www.OpenFOAM.org                      |
|    \\/     M anipulation  |                                                 |
\*---------------------------------------------------------------------------*/
FoamFile
{
    version     2.0;
    format      ascii;
    class       volScalarField;
    location    "4";
    object      thCond;
}
// * * * * * * * * * * * * * * * * * * * * * * * * * * * * * * * * * * * * * //

dimensions      [1 1 -3 -1 0 0 0];

internalField   nonuniform List<scalar> 
132
(
189.999
189.948
190.001
189.835
189.459
189.396
189.512
189.736
189.548
190.174
189.856
189.938
189.932
189.656
189.721
189.595
189.671
189.577
190.54
190.145
190.115
190.036
189.804
189.629
189.603
189.682
189.646
190.804
190.36
190.096
190.229
189.97
189.851
189.716
189.928
190.187
189.788
189.604
189.54
189.427
189.277
189.325
189.462
190.212
189.746
189.694
189.632
189.414
189.446
189.475
189.377
189.56
190.269
189.817
189.833
189.835
189.534
189.346
189.266
189.442
189.488
190.451
189.965
189.978
189.848
189.689
189.685
189.561
189.573
189.941
189.549
189.502
189.366
189.452
189.565
189.927
189.743
189.655
189.703
189.404
189.472
189.389
189.283
189.446
190.085
189.857
189.735
189.694
189.453
189.44
189.38
189.445
189.491
190.392
190.071
189.872
189.8
189.751
189.76
189.513
189.617
189.91
189.608
189.591
189.682
190.079
189.976
189.66
189.628
189.708
189.837
189.569
189.568
189.746
190.199
190.052
189.921
189.818
189.667
189.673
189.537
189.636
189.692
190.305
190.032
190.063
189.966
189.79
189.741
189.675
189.822
190.209
)
;

boundaryField
{
    inlet
    {
        type            zeroGradient;
    }
    outlet
    {
        type            zeroGradient;
    }
    wall
    {
        type            zeroGradient;
    }
    procBoundary7to0
    {
        type            processor;
        value           uniform 190.804;
    }
    procBoundary7to1
    {
        type            processor;
        value           uniform 190.367;
    }
    procBoundary7to3
    {
        type            processor;
        value           nonuniform List<scalar> 
36
(
190.491
190.315
190.247
190.129
190.26
190.159
189.949
190.076
190.087
190.513
190.574
190.368
190.573
190.483
190.125
189.999
189.919
190.14
190.839
190.569
190.456
190.581
190.395
190.133
190.136
190.083
190.249
191.124
191.155
190.87
190.727
190.568
190.32
190.274
190.118
190.13
)
;
    }
    procBoundary7to5
    {
        type            processor;
        value           nonuniform List<scalar> 
44
(
190.091
190.177
189.956
189.952
189.944
189.746
189.828
189.704
189.835
190.03
189.837
189.673
189.633
189.53
189.462
189.489
189.647
189.835
190.03
190.03
189.467
189.492
189.264
189.351
189.271
189.264
189.363
190.164
189.658
189.467
189.492
189.492
189.277
189.415
189.525
189.514
189.567
190.046
189.962
189.616
189.627
189.277
189.415
189.415
)
;
    }
    procBoundary7to6
    {
        type            processor;
        value           nonuniform List<scalar> 
12
(
190.482
190.534
190.872
190.071
190.174
190.387
190.022
190.115
190.463
190.373
190.185
190.468
)
;
    }
}


// ************************************************************************* //
