/*--------------------------------*- C++ -*----------------------------------*\
| =========                 |                                                 |
| \\      /  F ield         | OpenFOAM: The Open Source CFD Toolbox           |
|  \\    /   O peration     | Version:  4.x                                   |
|   \\  /    A nd           | Web:      www.OpenFOAM.org                      |
|    \\/     M anipulation  |                                                 |
\*---------------------------------------------------------------------------*/
FoamFile
{
    version     2.0;
    format      ascii;
    class       volVectorField;
    location    "43.5";
    object      GField;
}
// * * * * * * * * * * * * * * * * * * * * * * * * * * * * * * * * * * * * * //

dimensions      [1 -2 -1 0 0 0 0];

internalField   nonuniform List<vector> 
87
(
(93.1322 2.051 -2.95693)
(141.597 1.33379 -3.04725)
(95.0609 2.48051 -4.81308)
(150.384 1.73494 -2.51055)
(93.5199 2.75706 -8.54709)
(166.579 2.15722 0.247701)
(82.6754 1.19772 -17.4358)
(205.054 3.86135 9.23059)
(43.2397 -11.2021 -37.493)
(80.2809 -2.10414 -3.02969)
(134.383 -2.13728 -3.06197)
(81.4254 -3.07201 -4.22164)
(142.089 -1.03777 -1.91497)
(78.3147 -5.50475 -6.65429)
(154.708 1.8242 2.40627)
(65.9847 -11.8225 -12.9703)
(179.621 10.5609 11.9934)
(33.9786 -30.5862 -30.7375)
(66.0916 0.599888 -2.49421)
(121.372 0.936801 -2.66023)
(64.4794 1.6178 -3.40369)
(125.401 1.93601 -0.356705)
(60.8692 0.736831 -6.70133)
(134.509 2.2325 3.64368)
(54.5828 -3.21696 -14.5532)
(156.802 4.13545 14.7745)
(33.3247 -13.5399 -37.0628)
(57.9342 1.26837 -0.523327)
(116.212 0.715609 -0.517065)
(57.5734 1.96509 -0.995248)
(119.398 1.24675 0.485077)
(53.7611 2.90793 -2.12731)
(123.612 2.22239 3.32637)
(43.2254 2.90463 -7.42682)
(129.525 2.02246 12.0232)
(20.5772 0.662749 -20.1196)
(30.9195 -1.00632 -0.328169)
(104.853 -1.4568 -0.109576)
(27.3917 -1.09301 -0.157771)
(108.685 1.39098 1.99088)
(22.3933 -2.27327 -1.01039)
(114.492 5.66712 6.59036)
(19.589 -5.47524 -4.12194)
(119.902 16.2598 15.9462)
(17.6374 -18.9101 -18.8398)
(8.17045 0.408551 -0.454022)
(95.0308 1.00452 0.753743)
(1.08957 0.102393 -0.0989812)
(94.7573 1.36495 2.26773)
(4.74042e-05 -6.61734e-06 -9.04961e-06)
(90.3877 0.670238 5.46367)
(5.74984 0.384623 -2.21433)
(81.2442 -0.21813 13.0763)
(27.9376 -0.0779496 -32.1785)
(53.421 1.2981 -4.52988)
(113.659 0.979075 -4.27305)
(50.9809 2.14231 -6.45013)
(117.36 2.1472 -4.01356)
(45.4988 1.72659 -10.5657)
(122.941 3.38629 -0.0641625)
(35.6224 0.308053 -17.5444)
(129.609 4.59435 10.4444)
(20.1003 -2.53034 -30.4492)
(27.3613 -1.92066 -3.04236)
(102.908 -0.644151 -2.06038)
(27.2071 -2.90208 -3.74299)
(107.918 0.750756 0.307097)
(26.2404 -5.42993 -6.69214)
(112.987 3.94535 3.53234)
(25.0523 -10.8238 -12.4193)
(119.726 12.6782 12.3159)
(19.6322 -25.7904 -25.7293)
(8.95086 -0.439705 -1.87722)
(92.0332 -0.121241 0.336505)
(7.02511 -0.552735 -2.2627)
(92.5142 1.42094 0.118277)
(7.45971 -1.29323 -3.43463)
(92.031 2.84728 2.08483)
(12.8248 -5.11914 -7.64349)
(86.7486 8.95917 8.26735)
(27.4085 -22.6161 -16.0068)
(37.7495 0.288188 -1.51592)
(98.648 1.47708 -0.612429)
(26.0227 1.17727 -1.49642)
(5.3027 -0.770753 -0.540475)
(89.4693 1.85535 -1.12965)
(3.73436e-05 9.70332e-08 3.09714e-06)
)
;

boundaryField
{
    inlet
    {
        type            calculated;
        value           nonuniform 0();
    }
    outlet
    {
        type            calculated;
        value           nonuniform List<vector> 9((89.8398 -23.2747 -77.8996) (70.3269 -63.3054 -63.6187) (69.2089 -28.1197 -76.9721) (43.4247 1.39862 -42.459) (37.187 -39.8704 -39.7223) (59.1435 -0.165018 -68.1215) (42.837 -5.39258 -64.8924) (41.9599 -55.1218 -54.9911) (58.7951 -48.5147 -34.3368));
    }
    wall
    {
        type            calculated;
        value           uniform (0 0 0);
    }
    procBoundary1to0
    {
        type            processor;
        value           nonuniform List<vector> 
12
(
(136.066 0.231975 -3.9513)
(127.578 -3.23196 -4.05879)
(117.6 -0.610283 -3.76072)
(112.904 -0.244461 -1.67525)
(101.951 -2.87501 -1.77188)
(94.9029 0.261349 -1.07101)
(110.06 -0.386851 -4.05728)
(98.9426 -2.23896 -3.28356)
(91.4915 -1.04944 -0.0175682)
(101.276 -0.497942 -1.92499)
(90.3902 0.0524845 -2.18617)
(81.3522 1.0993 -0.352571)
)
;
    }
    procBoundary1to3
    {
        type            processor;
        value           nonuniform List<vector> 
27
(
(72.4016 -0.93998 -0.917826)
(128.883 -0.91896 -1.66788)
(74.4268 -1.17127 -1.03466)
(137.028 -2.06669 0.145033)
(72.0686 -5.13191 -1.69624)
(146.461 -4.21041 4.52208)
(58.7826 -14.322 -5.83446)
(159.434 0.408704 11.0962)
(28.5106 -37.0253 -17.5505)
(20.7788 0.279294 -1.42682)
(101.917 0.553129 -1.1308)
(17.1325 0.415599 -1.83804)
(105.652 0.0967949 1.86681)
(14.2398 0.338737 -2.98942)
(110.5 -0.997794 7.61306)
(13.1573 0.0450624 -6.6395)
(115.285 -3.29285 20.3418)
(16.5803 -2.02029 -31.1023)
(10.4539 -0.943147 -2.13786)
(92.9877 -0.412909 -0.195754)
(7.77749 -1.11246 -2.20009)
(93.4547 -1.21659 1.05104)
(7.88605 -2.13583 -3.55617)
(92.1634 -1.74507 3.98013)
(10.5589 -4.32258 -7.06344)
(84.0565 2.98795 12.2648)
(23.0366 -11.9334 -25.2366)
)
;
    }
    procBoundary1to5
    {
        type            processor;
        value           nonuniform List<vector> 
32
(
(91.1589 3.31244 0.475112)
(9.50591 0.703266 -1.0546)
(77.9132 1.66497 2.79778)
(3.03469e-05 4.76663e-06 -8.16375e-06)
(53.8851 -1.19255 6.50517)
(3.48083 1.11297 -0.303851)
(0.0426476 -0.00881828 -0.00686563)
(88.4538 3.56098 0.94868)
(0.177361 -0.0494385 -0.0480236)
(84.7052 3.8675 5.02162)
(3.89567 -1.15461 -1.78625)
(72.9035 8.62023 13.0324)
(18.7561 -2.63256 -15.0509)
(79.4983 2.10031 0.304874)
(4.38288e-05 2.83643e-07 3.33184e-06)
(78.1009 1.03135 1.16365)
(4.20718e-05 -4.54634e-06 -5.48611e-06)
(75.2268 -1.05792 2.54413)
(3.82865e-05 -7.49689e-07 -1.09018e-05)
(64.4198 -4.24043 4.13007)
(20.0652 0.506296 -1.30926)
(45.2953 -1.01606 0.62628)
(106.476 -1.08823 2.228)
(91.1589 3.31244 0.475112)
(0.0426476 -0.00881828 -0.00686563)
(43.5562 -1.42332 2.41022)
(10.0372 -1.23655 0.171224)
(0.0426476 -0.00881828 -0.00686563)
(79.4983 2.10031 0.304874)
(92.3282 -0.0278719 0.863279)
(79.4983 2.10031 0.304874)
(0.31144 -0.0486324 0.0385733)
)
;
    }
    procBoundary1to7
    {
        type            processor;
        value           uniform (1.23601 0.149331 -0.254779);
    }
}


// ************************************************************************* //
