/*--------------------------------*- C++ -*----------------------------------*\
| =========                 |                                                 |
| \\      /  F ield         | OpenFOAM: The Open Source CFD Toolbox           |
|  \\    /   O peration     | Version:  4.x                                   |
|   \\  /    A nd           | Web:      www.OpenFOAM.org                      |
|    \\/     M anipulation  |                                                 |
\*---------------------------------------------------------------------------*/
FoamFile
{
    version     2.0;
    format      ascii;
    class       volScalarField;
    location    "43.5";
    object      p;
}
// * * * * * * * * * * * * * * * * * * * * * * * * * * * * * * * * * * * * * //

dimensions      [1 -1 -2 0 0 0 0];

internalField   nonuniform List<scalar> 
87
(
5652.68
5708.45
5632.89
5702.84
5611.52
5699.04
5586.8
5699.54
5551.58
5652.16
5708.44
5632.4
5702.79
5610.95
5698.97
5586.74
5698.8
5556.28
5652.89
5708.68
5633.63
5702.58
5613.07
5697.74
5591.33
5695.05
5565.03
3775
3830.82
3755.9
3824.79
3735.78
3819.6
3714.69
3815.94
3693.12
3774.62
3830.83
3755.32
3824.72
3734.85
3819.48
3713.78
3815.94
3692.58
3775.32
3831.07
3756.4
3824.35
3737.41
3818.19
3719.72
3811.85
3703.77
1896.84
1952.66
1877.31
1946.77
1856.44
1942.14
1834.25
1939.98
1811.03
1896.34
1952.59
1876.61
1946.51
1855.96
1941.59
1834.46
1939.1
1812.32
1897.76
1952.65
1878.94
1946.32
1859.72
1940.75
1840.8
1936.26
1823.35
20.3958
75.4863
2.02213
20.2246
75.1683
22.3559
)
;

boundaryField
{
    inlet
    {
        type            calculated;
        value           nonuniform 0();
    }
    outlet
    {
        type            calculated;
        value           nonuniform List<scalar> 9(5633.74 5633.74 5633.74 3755.83 3755.83 3755.83 1877.91 1877.91 1877.91);
    }
    wall
    {
        type            calculated;
        value           nonuniform List<scalar> 
57
(
6591.64
6591.12
6591.85
6647.4
6647.4
6647.64
6571.85
6571.36
6572.58
6641.8
6641.75
6641.54
6550.48
6549.9
6552.02
6637.99
6637.93
6636.7
6525.76
6525.69
6530.29
6638.49
6637.76
6634.01
6487.85
6494.38
6503.58
5652.68
3775
1896.84
20.3958
5708.45
3830.82
1952.66
75.4863
5632.89
3755.9
1877.31
2.02213
5702.84
3824.79
1946.77
5611.52
3735.78
1856.44
5699.04
3819.6
1942.14
5586.8
3714.69
1834.25
5699.54
3815.94
1939.98
5551.58
3693.12
1811.03
)
;
    }
    procBoundary1to0
    {
        type            processor;
        value           nonuniform List<scalar> 
12
(
5714.72
5714.72
5715.15
3837.28
3837.39
3837.86
1959.11
1959.2
1959.53
82.0099
82.1131
81.9273
)
;
    }
    procBoundary1to3
    {
        type            processor;
        value           nonuniform List<scalar> 
27
(
5651.89
5708.24
5631.8
5702.55
5610.85
5698.4
5587.81
5697.36
5561.51
3773.93
3830.61
3754.08
3824.42
3733.49
3819.16
3712.18
3816.09
3691.79
1896.94
1952.58
1877.61
1946.13
1858.19
1940.74
1839.18
1936.6
1822.57
)
;
    }
    procBoundary1to5
    {
        type            processor;
        value           nonuniform List<scalar> 
32
(
69.1295
-16.2399
62.4591
-33.1903
55.4455
-47.5089
1.45934
68.4522
-17.0077
62.1273
-34.9665
56.1508
-50.3782
75.0261
4.79993
68.351
-12.5732
61.6089
-29.3945
53.7495
-44.4831
-1858.48
-1803.16
69.1295
1.45934
-1877.68
-1858.26
1.45934
75.0261
-1803.01
75.0261
-1856.89
)
;
    }
    procBoundary1to7
    {
        type            processor;
        value           uniform 20.8104;
    }
}


// ************************************************************************* //
