/*--------------------------------*- C++ -*----------------------------------*\
| =========                 |                                                 |
| \\      /  F ield         | OpenFOAM: The Open Source CFD Toolbox           |
|  \\    /   O peration     | Version:  4.x                                   |
|   \\  /    A nd           | Web:      www.OpenFOAM.org                      |
|    \\/     M anipulation  |                                                 |
\*---------------------------------------------------------------------------*/
FoamFile
{
    version     2.0;
    format      ascii;
    class       volScalarField;
    location    "43.5";
    object      pSmooth;
}
// * * * * * * * * * * * * * * * * * * * * * * * * * * * * * * * * * * * * * //

dimensions      [1 -1 -2 0 0 0 0];

internalField   nonuniform List<scalar> 
87
(
18.9609
74.7355
0.1
69.1051
0.1
65.2584
0.1
65.7796
0.1
18.4208
74.7145
0.1
69.0647
0.1
65.1748
0.1
64.9892
0.1
19.1521
74.9495
0.1
68.9113
0.1
63.9953
0.1
61.3402
0.1
19.2249
75.0385
0.100003
68.9679
0.1
63.7526
0.1
60.1396
0.1
18.7674
75.0239
0.1
68.917
0.1
63.5902
0.1
60.0489
0.1
19.4952
75.2669
0.554279
68.5737
0.1
62.3238
0.1
56.0018
0.1
18.9286
74.7814
0.1
68.8656
0.1
64.2351
0.1
62.2244
0.1
18.4231
74.7059
0.1
68.615
0.1
63.6503
0.1
61.2088
0.1
19.8018
74.7604
0.95483
68.4441
0.1
62.8789
0.1
58.4532
0.1
20.3906
75.518
1.99815
20.2073
75.2134
22.3577
)
;

boundaryField
{
    inlet
    {
        type            zeroGradient;
    }
    outlet
    {
        type            fixedValue;
        value           uniform 0;
    }
    wall
    {
        type            zeroGradient;
    }
    procBoundary1to0
    {
        type            processor;
        value           nonuniform List<scalar> 
12
(
81.0603
81.055
81.4618
81.541
81.6261
82.0867
81.2518
81.344
81.6504
82.0503
82.1594
81.9518
)
;
    }
    procBoundary1to3
    {
        type            processor;
        value           nonuniform List<scalar> 
27
(
18.1585
74.5706
0.1
68.8122
0.1
64.748
0.1
63.6683
0.1
18.1065
74.8415
0.1
68.6402
0.1
63.4803
0.1
60.3816
0.1
19.0083
74.7004
0.1
68.2678
0.1
62.9532
0.1
58.819
0.1
)
;
    }
    procBoundary1to5
    {
        type            processor;
        value           nonuniform List<scalar> 
32
(
69.1589
0.1
62.5112
0.1
55.819
0.1
1.40713
68.5067
0.1
62.1784
0.1
56.2116
0.1
75.0548
4.7977
68.3891
0.1
61.6445
0.1
53.7659
0.1
19.4191
74.7758
69.1589
1.40713
0.216058
19.6474
1.40713
75.0548
74.9181
75.0548
20.9923
)
;
    }
    procBoundary1to7
    {
        type            processor;
        value           uniform 20.9001;
    }
}


// ************************************************************************* //
