/*--------------------------------*- C++ -*----------------------------------*\
| =========                 |                                                 |
| \\      /  F ield         | OpenFOAM: The Open Source CFD Toolbox           |
|  \\    /   O peration     | Version:  4.x                                   |
|   \\  /    A nd           | Web:      www.OpenFOAM.org                      |
|    \\/     M anipulation  |                                                 |
\*---------------------------------------------------------------------------*/
FoamFile
{
    version     2.0;
    format      ascii;
    class       volVectorField;
    location    "43.5";
    object      Urel;
}
// * * * * * * * * * * * * * * * * * * * * * * * * * * * * * * * * * * * * * //

dimensions      [0 1 -1 0 0 0 0];

internalField   nonuniform List<vector> 
87
(
(-0.0254643 1.05442e-05 0.000621885)
(-0.0268487 -3.18427e-05 0.00059134)
(-0.0259542 -8.59176e-05 0.00061363)
(-0.0273773 -8.84484e-05 0.00058544)
(-0.0261189 -7.03118e-05 0.000748731)
(-0.0276613 -1.60083e-06 0.000691491)
(-0.0254747 0.000208706 0.00127159)
(-0.0270712 0.000400498 0.00117755)
(-0.0217047 0.00118899 0.00293071)
(-0.0244187 0.000130522 0.000589246)
(-0.0258609 8.94988e-05 0.000544834)
(-0.0247909 7.31821e-05 0.000538952)
(-0.0262893 4.3332e-05 0.000485503)
(-0.0248444 0.000146873 0.000607264)
(-0.0264402 0.000113895 0.00051167)
(-0.024145 0.000490279 0.00104009)
(-0.0256652 0.000408934 0.000950732)
(-0.0207853 0.00163752 0.00264213)
(-0.0232833 6.38498e-05 0.000525)
(-0.0247338 2.56931e-05 0.000467373)
(-0.0234812 4.84055e-06 0.000432499)
(-0.0249782 7.71737e-06 0.00034579)
(-0.0233981 8.91372e-05 0.000457155)
(-0.0249146 0.000136241 0.000328648)
(-0.0226898 0.000400986 0.000855962)
(-0.0240756 0.000460513 0.000738057)
(-0.0198406 0.00125986 0.00253936)
(-0.0234508 2.61297e-05 0.000512976)
(-0.0249182 -2.24342e-05 0.000469577)
(-0.0236778 -8.56008e-05 0.000461727)
(-0.0251644 -9.98291e-05 0.000420193)
(-0.0235883 -9.76321e-05 0.000511712)
(-0.0250582 -5.15033e-05 0.000446591)
(-0.0227365 0.000115579 0.000872174)
(-0.023885 0.000284467 0.000772781)
(-0.019646 0.000787611 0.00219337)
(-0.0220692 0.000110587 0.000469277)
(-0.0237505 6.7413e-05 0.000408102)
(-0.022174 3.30338e-05 0.000377182)
(-0.0239479 -1.92493e-05 0.000305223)
(-0.0220579 6.42582e-05 0.000378598)
(-0.0238509 -6.36418e-06 0.000265754)
(-0.0214056 0.000304741 0.00066675)
(-0.022816 0.000178077 0.000583935)
(-0.0190274 0.001231 0.00205275)
(-0.0207167 5.618e-05 0.000416438)
(-0.0225624 1.75475e-05 0.000332231)
(-0.0206627 1.4404e-05 0.000298157)
(-0.0226094 -7.34959e-06 0.000203968)
(-0.0205197 5.89296e-05 0.000251185)
(-0.0223254 8.32228e-05 0.000144735)
(-0.0199887 0.000242855 0.000499257)
(-0.0212232 0.000340251 0.000510521)
(-0.018414 0.000796821 0.00215527)
(-0.0219364 3.81161e-05 0.000520984)
(-0.0233879 -2.42569e-05 0.000474407)
(-0.021902 -8.442e-05 0.0004845)
(-0.0233974 -0.000115558 0.000419398)
(-0.0215449 -7.22176e-05 0.000530679)
(-0.0230478 -6.00037e-05 0.00035758)
(-0.0205545 0.000153758 0.0007559)
(-0.0217493 0.000234441 0.00043975)
(-0.0179937 0.000751567 0.0017132)
(-0.020473 0.000116862 0.00044351)
(-0.0222002 4.78086e-05 0.000376256)
(-0.0204567 4.50987e-05 0.000361537)
(-0.0222522 -2.48067e-05 0.00026426)
(-0.0202674 9.4482e-05 0.000363156)
(-0.0220195 3.81825e-06 0.000188211)
(-0.0196118 0.000352835 0.000559126)
(-0.0209818 0.000181957 0.00030336)
(-0.0176553 0.00124625 0.00155972)
(-0.0191356 7.4909e-05 0.000359802)
(-0.0209967 3.24749e-05 0.000268886)
(-0.0190602 3.14906e-05 0.000266139)
(-0.0209761 -6.97047e-06 0.000174758)
(-0.0189067 7.24076e-05 0.000225)
(-0.0206788 4.88097e-05 9.94782e-05)
(-0.0184204 0.000272968 0.000384782)
(-0.019641 0.000205927 0.000259617)
(-0.0172209 0.00102756 0.00131967)
(-0.0206518 7.33072e-05 0.000303231)
(-0.0220385 -1.12933e-05 0.0002297)
(-0.020245 -5.35651e-05 0.000193572)
(-0.0190912 9.50643e-05 0.000256961)
(-0.0208767 -1.04904e-06 0.000203313)
(-0.0179673 5.34312e-05 0.000208067)
)
;

boundaryField
{
    inlet
    {
        type            calculated;
        value           nonuniform 0();
    }
    outlet
    {
        type            calculated;
        value           nonuniform List<vector> 9((-0.0134507 0.0035974 0.0117522) (-0.0104238 0.00939184 0.00935927) (-0.0103314 0.00421346 0.0115069) (-0.00654153 -5.64956e-05 0.00644078) (-0.00554364 0.0060377 0.00577197) (-0.00874443 0.000127671 0.0100323) (-0.00642108 0.000935293 0.009791) (-0.00624061 0.00827193 0.0081332) (-0.00875727 0.0072886 0.00505802));
    }
    wall
    {
        type            calculated;
        value           nonuniform List<vector> 
57
(
(1.05913e-08 7.34515e-09 2.6109e-08)
(4.46116e-09 -5.38089e-09 1.15327e-08)
(6.07374e-09 -6.92246e-09 4.57106e-09)
(-3.74222e-08 1.07701e-06 1.02671e-07)
(3.91093e-09 -9.51608e-09 2.2222e-08)
(4.41154e-09 -1.06408e-08 7.54492e-09)
(-1.0586e-08 5.98429e-10 1.69375e-08)
(-1.06423e-08 -7.93549e-09 7.33087e-09)
(4.79006e-09 -6.61467e-09 3.43791e-09)
(-5.39939e-09 -1.01431e-09 1.62017e-09)
(-6.42713e-10 -2.92613e-09 5.59349e-10)
(3.18074e-09 -2.79752e-09 8.97701e-10)
(-1.78869e-09 -1.17886e-10 -3.27669e-10)
(2.50535e-09 -4.64959e-09 -2.0237e-10)
(3.70512e-09 -2.49328e-09 -6.26424e-10)
(8.30967e-10 -2.55407e-09 -1.75996e-09)
(2.95493e-09 -1.10175e-09 -3.02045e-09)
(4.47242e-09 -1.99679e-09 -1.46318e-09)
(5.48644e-09 -3.19595e-09 -3.88887e-09)
(3.36639e-09 -3.1642e-09 -6.79225e-09)
(5.30856e-09 -2.14287e-09 -4.92476e-09)
(3.38612e-07 4.18258e-09 -2.37479e-08)
(2.49861e-09 -8.3628e-09 -1.04544e-08)
(2.93064e-09 -5.50849e-09 -1.19705e-08)
(1.7482e-07 -1.12961e-08 -3.59678e-08)
(-4.66549e-09 -2.0239e-08 -2.11346e-08)
(3.35152e-09 -1.04751e-09 -9.69653e-09)
(1.05913e-08 7.34515e-09 2.6109e-08)
(-5.01876e-09 4.70403e-09 1.75825e-08)
(-4.82137e-10 1.70056e-10 3.34953e-09)
(4.03957e-10 2.82901e-10 2.11375e-09)
(-3.74222e-08 1.07701e-06 1.02671e-07)
(1.72991e-09 2.9411e-09 4.08869e-08)
(1.25627e-09 1.55739e-09 4.94232e-09)
(1.03749e-09 8.89726e-10 6.07523e-10)
(-1.0586e-08 5.98429e-10 1.69375e-08)
(3.82397e-09 1.4166e-09 1.49255e-08)
(1.53841e-09 1.36259e-09 6.30377e-09)
(1.5934e-09 4.43362e-10 1.37325e-09)
(-5.39939e-09 -1.01431e-09 1.62017e-09)
(2.75457e-09 -1.45703e-09 9.72797e-10)
(2.82416e-09 -5.96334e-10 1.06511e-09)
(-1.78869e-09 -1.17886e-10 -3.27669e-10)
(1.35856e-09 -1.47719e-10 2.59389e-10)
(2.4167e-09 -5.13718e-10 2.75535e-11)
(8.30967e-10 -2.55407e-09 -1.75996e-09)
(1.28984e-09 -3.55944e-11 -1.24281e-09)
(2.17164e-09 -3.94012e-10 -1.13441e-09)
(5.48644e-09 -3.19595e-09 -3.88887e-09)
(2.66641e-09 -7.5414e-10 -2.96673e-09)
(1.79969e-09 1.26955e-10 -1.68495e-09)
(3.38612e-07 4.18258e-09 -2.37479e-08)
(2.66707e-09 -2.05821e-09 -6.98114e-09)
(-5.04933e-11 -2.44265e-10 -2.22836e-09)
(1.7482e-07 -1.12961e-08 -3.59678e-08)
(2.8887e-10 -4.32076e-09 -1.24096e-08)
(3.8235e-10 -4.97567e-10 -5.09644e-09)
)
;
    }
    procBoundary1to0
    {
        type            processor;
        value           nonuniform List<vector> 
12
(
(-0.0261765 0.000116302 0.000701391)
(-0.0253114 0.000211309 0.000676555)
(-0.0243666 0.000121783 0.000622737)
(-0.0245221 0.000127932 0.000597985)
(-0.023474 0.000195679 0.0005637)
(-0.0224429 9.99913e-05 0.000503151)
(-0.023211 0.000138998 0.000573132)
(-0.0220793 0.000182467 0.0005103)
(-0.0209879 0.000116875 0.0004021)
(-0.0221809 0.000155395 0.000374704)
(-0.0209978 0.000142619 0.000336708)
(-0.0199262 7.20467e-05 0.000266338)
)
;
    }
    procBoundary1to3
    {
        type            processor;
        value           nonuniform List<vector> 
27
(
(-0.0230298 6.3855e-05 0.000443581)
(-0.024489 5.36713e-05 0.000379805)
(-0.0232186 6.56665e-05 0.00030495)
(-0.0246891 0.000104236 0.00020686)
(-0.02302 0.000199284 0.000228341)
(-0.0244274 0.000255256 0.000106668)
(-0.0219594 0.000487237 0.00049863)
(-0.0231713 0.000429375 0.000476825)
(-0.0189451 0.00122731 0.00179804)
(-0.0205158 3.0864e-05 0.000400502)
(-0.0223398 1.44931e-05 0.000318543)
(-0.0204906 2.37056e-05 0.000268072)
(-0.0224046 3.8873e-05 0.000140402)
(-0.0202924 7.34925e-05 0.000189629)
(-0.022122 0.000119367 1.00514e-05)
(-0.0195991 0.00017459 0.000394716)
(-0.021029 0.000251986 0.000268952)
(-0.0177553 0.000371042 0.00187669)
(-0.018738 5.21941e-05 0.000335967)
(-0.0206418 3.35167e-05 0.000244157)
(-0.0186535 4.58908e-05 0.000224372)
(-0.0205985 4.86323e-05 0.00011491)
(-0.0184905 8.20521e-05 0.000159351)
(-0.0202709 8.3523e-05 3.4904e-06)
(-0.0179517 0.000146219 0.000280767)
(-0.0191705 7.71286e-05 0.000130786)
(-0.0167603 0.000356933 0.00131851)
)
;
    }
    procBoundary1to5
    {
        type            processor;
        value           nonuniform List<vector> 
32
(
(-0.0216345 -0.000114709 9.8685e-05)
(-0.0194845 -3.23947e-05 7.73431e-05)
(-0.0207895 -4.50215e-06 -7.12929e-05)
(-0.0183333 0.000199112 -3.67189e-05)
(-0.0190751 0.000344154 -0.000206466)
(-0.0164773 0.000707333 9.65686e-05)
(-0.018831 -4.78117e-06 0.000142801)
(-0.0206666 -8.38978e-05 5.93743e-05)
(-0.0184992 8.80899e-06 3.22562e-05)
(-0.0201731 -1.80638e-05 -0.000125114)
(-0.017833 0.000206851 -3.72795e-05)
(-0.0189248 0.000188357 -0.000269308)
(-0.016578 0.000807078 0.000334912)
(-0.0198085 -1.20377e-05 0.000151821)
(-0.0178461 9.66746e-06 0.000112497)
(-0.0196821 -2.09667e-05 3.40056e-05)
(-0.0176429 4.05007e-05 7.89091e-06)
(-0.0193007 7.49682e-05 -0.000113502)
(-0.0170905 0.000185424 -6.51148e-05)
(-0.0182343 0.000298724 -0.000176554)
(-0.0162519 0.000536008 0.00014666)
(-0.020637 0.000144553 7.09248e-05)
(-0.0220697 9.2094e-05 -2.07586e-05)
(-0.0216345 -0.000114709 9.8685e-05)
(-0.018831 -4.78117e-06 0.000142801)
(-0.020461 6.19106e-05 -8.31348e-05)
(-0.0190472 0.000139739 7.30099e-05)
(-0.018831 -4.78117e-06 0.000142801)
(-0.0198085 -1.20377e-05 0.000151821)
(-0.0208216 7.25559e-05 1.19422e-05)
(-0.0198085 -1.20377e-05 0.000151821)
(-0.0178753 8.17562e-05 7.76427e-05)
)
;
    }
    procBoundary1to7
    {
        type            processor;
        value           uniform (-0.017638 3.02642e-05 0.000204237);
    }
}


// ************************************************************************* //
