/*--------------------------------*- C++ -*----------------------------------*\
| =========                 |                                                 |
| \\      /  F ield         | OpenFOAM: The Open Source CFD Toolbox           |
|  \\    /   O peration     | Version:  4.x                                   |
|   \\  /    A nd           | Web:      www.OpenFOAM.org                      |
|    \\/     M anipulation  |                                                 |
\*---------------------------------------------------------------------------*/
FoamFile
{
    version     2.0;
    format      ascii;
    class       volVectorField;
    location    "38";
    object      GField;
}
// * * * * * * * * * * * * * * * * * * * * * * * * * * * * * * * * * * * * * //

dimensions      [1 -2 -1 0 0 0 0];

internalField   nonuniform List<vector> 
114
(
(55.0022 -0.598141 -2.89551)
(111.598 -0.928955 -5.43977)
(63.4298 -0.697474 -2.61374)
(116.853 -0.994039 -4.07125)
(68.7602 -0.291214 -1.56733)
(121.901 -0.561047 -2.665)
(99.0429 0.348966 -4.58002)
(41.9466 0.172914 -2.66213)
(103.522 0.771894 -5.38975)
(49.8194 0.42392 -2.46214)
(107.054 0.440163 -4.51596)
(54.7341 -0.200213 -2.0629)
(110.115 -0.164072 -3.65378)
(57.0206 -0.795268 -1.2206)
(112.971 -0.318566 -2.43063)
(99.9256 3.2242 -4.60631)
(44.4828 1.58602 -2.55472)
(106.04 3.30479 -4.92473)
(55.5796 1.90542 -2.19266)
(111.807 3.21774 -3.87298)
(63.3204 1.61575 -1.58743)
(116.617 2.67785 -2.82158)
(68.2718 1.14785 -0.882078)
(121.137 2.24329 -1.92709)
(100.221 1.79917 -3.87972)
(49.038 0.918985 -2.33944)
(109.331 1.81222 -4.11125)
(64.2908 0.887642 -2.14857)
(118.832 1.62055 -3.36814)
(76.8496 0.417843 -1.66855)
(127.467 1.0276 -2.50922)
(85.9051 -0.532658 -0.947584)
(133.716 0.206177 -1.79518)
(26.5343 -0.0279765 -1.81485)
(95.7478 0.0147639 -3.94466)
(22.4059 0.201734 -1.26131)
(97.8253 0.594616 -2.06948)
(97.3506 1.24653 -7.56422)
(34.1547 0.285891 -3.54286)
(96.3291 1.36129 -7.7765)
(29.4614 0.67179 -2.79607)
(94.9776 1.69809 -5.76766)
(24.0177 0.270313 -2.12779)
(94.0182 0.772036 -3.85502)
(17.9151 -0.161348 -1.48389)
(94.5857 0.419154 -2.28837)
(97.737 3.85107 -7.743)
(36.5239 1.86866 -3.984)
(97.8948 4.35699 -8.21141)
(35.5585 1.79918 -3.31756)
(98.5145 4.13372 -6.34807)
(34.2358 1.45057 -2.68908)
(99.5017 3.56858 -4.94872)
(31.5983 0.868943 -2.32495)
(101.404 2.62422 -3.42582)
(98.3178 2.47539 -6.98573)
(43.6091 1.23261 -4.0319)
(102.899 2.60906 -7.14013)
(51.4277 1.01753 -3.95049)
(107.693 2.19328 -5.79143)
(57.7352 0.499514 -3.8963)
(112.062 1.49437 -4.59145)
(61.8037 -0.330636 -3.17097)
(116.099 0.581865 -3.58253)
(9.55714 -0.620782 -1.45734)
(91.1753 -1.40641 -1.12294)
(95.3526 1.59353 -6.76976)
(32.1794 0.386595 -3.32256)
(92.7709 1.21343 -6.30903)
(23.7282 0.168715 -2.09106)
(90.6853 0.607252 -4.24838)
(15.4962 -0.270369 -1.29631)
(89.1307 -0.77108 -2.40902)
(7.11507 -0.281828 -0.812549)
(88.4992 -0.994032 -0.847103)
(96.3646 3.77136 -6.30919)
(33.6174 1.54541 -3.16838)
(94.2372 4.06741 -5.86582)
(27.1028 1.39646 -2.29061)
(92.6999 3.52284 -4.08069)
(20.9848 0.900153 -1.54709)
(91.8677 2.5632 -2.29819)
(13.8237 0.609895 -0.970172)
(91.9941 1.60084 -0.816946)
(97.1225 2.59865 -5.90503)
(40.3704 1.40865 -3.4593)
(99.1844 3.2432 -5.86815)
(44.2306 1.31721 -3.38794)
(101.871 2.79358 -4.59908)
(47.6818 0.66559 -2.93878)
(103.192 2.18535 -3.10193)
(48.9419 0.473773 -2.88174)
(105.611 1.17104 -2.26103)
(94.7009 2.06881 -5.72175)
(29.073 1.13465 -2.34197)
(90.3495 2.94517 -4.77177)
(18.9921 0.84316 -1.62687)
(88.1831 2.36317 -2.94594)
(11.136 0.6156 -0.861613)
(86.9702 1.39228 -0.722557)
(4.32736 0.320772 -0.47775)
(94.8169 4.7301 -4.81983)
(33.3921 2.23051 -2.32601)
(92.6932 5.00664 -4.22983)
(28.1633 1.67957 -2.02251)
(91.8788 4.34299 -3.30199)
(24.1473 1.46647 -1.52596)
(92.1214 3.58345 -1.9833)
(96.4034 2.90272 -4.40525)
(40.7019 1.43028 -2.70638)
(98.1537 2.90931 -4.47221)
(43.6763 1.12829 -3.14155)
(100.085 2.29565 -4.07268)
(46.2716 0.78112 -2.46378)
)
;

boundaryField
{
    inlet
    {
        type            calculated;
        value           uniform (67 0 0);
    }
    outlet
    {
        type            calculated;
        value           nonuniform 0();
    }
    wall
    {
        type            calculated;
        value           uniform (0 0 0);
    }
    procBoundary2to0
    {
        type            processor;
        value           nonuniform List<vector> 
44
(
(54.4628 -1.31673 -3.11136)
(111.277 -1.65403 -5.50338)
(61.8519 -0.523407 -2.95846)
(115.874 -1.2123 -4.88773)
(66.199 -0.159925 -2.18915)
(117.923 -0.807931 -3.80369)
(100.925 -1.53211 -5.66469)
(44.6746 -0.510291 -2.79855)
(106.716 -1.07898 -5.71815)
(106.716 -1.07898 -5.71815)
(31.8261 -0.0937 -2.9775)
(95.9498 -0.113214 -6.39388)
(25.9213 -0.147403 -1.37902)
(95.035 -0.707969 -2.98903)
(18.7731 0.38323 -0.397349)
(95.2278 -0.0221814 -1.12349)
(96.8455 -0.693886 -8.87825)
(34.5924 -0.332624 -4.06424)
(97.147 -0.689831 -8.76116)
(31.8261 -0.0937 -2.9775)
(95.9498 -0.113214 -6.39388)
(95.9498 -0.113214 -6.39388)
(13.2629 -0.644042 -1.54671)
(90.6628 -1.51028 -2.77233)
(13.3676 -0.335816 -1.93022)
(92.2665 -1.07791 -0.22539)
(95.0656 -0.837496 -7.01732)
(29.8341 -0.416849 -3.73124)
(92.2914 -0.937796 -7.37338)
(20.2838 -0.437785 -2.14929)
(90.6304 -1.07621 -4.60155)
(13.2629 -0.644042 -1.54671)
(90.6628 -1.51028 -2.77233)
(90.6628 -1.51028 -2.77233)
(1.16775 0.0547787 -0.182609)
(86.4506 -0.431258 -0.200984)
(95.0617 -0.615685 -4.59477)
(28.6839 0.0228959 -2.56957)
(89.9907 0.318057 -4.49065)
(15.4314 0.274543 -1.49075)
(87.7075 0.749245 -3.34221)
(6.08435 0.173212 -0.735169)
(86.6601 -0.0980708 -2.11274)
(1.16775 0.0547787 -0.182609)
)
;
    }
    procBoundary2to3
    {
        type            processor;
        value           nonuniform List<vector> 
12
(
(71.0314 -0.839193 -0.864002)
(57.0325 -1.01607 -0.894185)
(71.1147 1.94495 -0.424281)
(91.6585 -1.55935 -0.817489)
(18.6457 0.267283 -1.38736)
(12.57 -0.209655 -1.26527)
(28.5358 1.11495 -2.34016)
(63.5439 -1.4623 -3.15872)
(5.89581 -0.472802 -1.44352)
(0.0279601 -0.00102729 -0.00390501)
(7.68744 0.586831 -0.624734)
(48.6292 0.13512 -3.05561)
)
;
    }
    procBoundary2to6
    {
        type            processor;
        value           nonuniform List<vector> 
32
(
(86.2991 0.767862 0.508921)
(21.4968 1.50381 -1.58508)
(93.6168 2.36401 -1.10815)
(102.304 1.48257 -2.56854)
(48.2551 -0.068112 -2.95178)
(104.424 0.249916 -2.32221)
(92.0875 1.27339 -1.80258)
(27.0348 0.814222 -0.566288)
(87.4909 1.5339 -1.31048)
(13.3262 0.399315 -0.404633)
(84.1658 0.843836 -0.812854)
(3.49358 0.131338 -0.116162)
(82.8797 -0.269973 -0.505711)
(86.2991 0.767862 0.508921)
(21.4968 1.50381 -1.58508)
(3.41259e-05 -8.56956e-07 3.10182e-06)
(94.2424 5.06637 -1.38652)
(30.8583 1.79439 -0.785041)
(90.9557 4.71989 -1.12271)
(21.7677 1.32909 -0.870766)
(88.5555 3.02598 -0.918173)
(13.7213 0.881149 -0.721183)
(21.4968 1.50381 -1.58508)
(102.304 1.48257 -2.56854)
(87.1841 1.44971 -1.06756)
(96.1363 3.12351 -1.65999)
(40.0495 1.50301 -1.10929)
(96.8177 3.31962 -1.67796)
(41.486 1.14917 -1.70797)
(96.5796 2.42252 -1.66543)
(102.304 1.48257 -2.56854)
(40.4938 0.852603 -1.73895)
)
;
    }
}


// ************************************************************************* //
