/*--------------------------------*- C++ -*----------------------------------*\
| =========                 |                                                 |
| \\      /  F ield         | OpenFOAM: The Open Source CFD Toolbox           |
|  \\    /   O peration     | Version:  4.x                                   |
|   \\  /    A nd           | Web:      www.OpenFOAM.org                      |
|    \\/     M anipulation  |                                                 |
\*---------------------------------------------------------------------------*/
FoamFile
{
    version     2.0;
    format      ascii;
    class       volScalarField;
    location    "38";
    object      particleRelTemp;
}
// * * * * * * * * * * * * * * * * * * * * * * * * * * * * * * * * * * * * * //

dimensions      [0 0 0 0 0 0 0];

internalField   nonuniform List<scalar> 
114
(
-2.27226e-10
-2.03959e-10
-1.59553e-10
-1.30063e-10
-8.84549e-11
-7.91834e-11
-2.79965e-10
-2.66198e-10
-2.50267e-10
-2.2787e-10
-2.00418e-10
-1.68316e-10
-1.42172e-10
-1.1153e-10
-9.1826e-11
-2.8397e-10
-2.72373e-10
-2.55374e-10
-2.38235e-10
-2.12884e-10
-1.91391e-10
-1.65197e-10
-1.321e-10
-1.22625e-10
-2.83756e-10
-2.7679e-10
-2.64726e-10
-2.49723e-10
-2.29104e-10
-2.18101e-10
-1.88924e-10
-1.71546e-10
-1.60158e-10
-1.43047e-10
-9.94919e-11
-6.1575e-11
-2.73351e-11
-2.80721e-10
-2.64704e-10
-2.41704e-10
-2.15478e-10
-1.88598e-10
-1.47134e-10
-1.15003e-10
-7.38559e-11
-4.45004e-11
-2.81356e-10
-2.67237e-10
-2.49171e-10
-2.25771e-10
-2.00648e-10
-1.75023e-10
-1.43787e-10
-1.10042e-10
-8.57759e-11
-2.81875e-10
-2.71285e-10
-2.5657e-10
-2.38592e-10
-2.1996e-10
-1.98467e-10
-1.75537e-10
-1.43579e-10
-1.30033e-10
-1.43907e-11
2.22496e-11
-2.76099e-10
-2.60137e-10
-2.33646e-10
-2.03427e-10
-1.67695e-10
-1.22356e-10
-8.21171e-11
-3.76588e-11
-6.13644e-12
-2.80453e-10
-2.6335e-10
-2.37543e-10
-2.14852e-10
-1.7886e-10
-1.47503e-10
-1.15015e-10
-7.6382e-11
-3.11967e-11
-2.80736e-10
-2.66938e-10
-2.49464e-10
-2.23626e-10
-2.03175e-10
-1.7505e-10
-1.45154e-10
-1.168e-10
-8.102e-11
-2.75088e-10
-2.51473e-10
-2.26072e-10
-1.97997e-10
-1.60511e-10
-1.12476e-10
-6.49677e-11
7.1168e-13
-2.79325e-10
-2.58904e-10
-2.39585e-10
-2.0738e-10
-1.74307e-10
-1.36155e-10
-1.1115e-10
-2.8145e-10
-2.65608e-10
-2.44307e-10
-2.22294e-10
-1.95115e-10
-1.60823e-10
)
;

boundaryField
{
    inlet
    {
        type            calculated;
        value           nonuniform List<scalar> 
12
(
-2.79965e-10
-2.8397e-10
-2.83756e-10
-2.80721e-10
-2.81356e-10
-2.81875e-10
-2.76099e-10
-2.80453e-10
-2.80736e-10
-2.75088e-10
-2.79325e-10
-2.8145e-10
)
;
    }
    outlet
    {
        type            calculated;
        value           nonuniform 0();
    }
    wall
    {
        type            calculated;
        value           nonuniform List<scalar> 
66
(
-2.79965e-10
-2.8397e-10
-2.83756e-10
-2.66198e-10
-2.72373e-10
-2.7679e-10
-2.50267e-10
-2.55374e-10
-2.64726e-10
-2.27226e-10
-2.2787e-10
-2.38235e-10
-2.49723e-10
-2.03959e-10
-2.00418e-10
-2.12884e-10
-2.29104e-10
-1.59553e-10
-1.68316e-10
-1.91391e-10
-2.18101e-10
-1.30063e-10
-1.42172e-10
-1.65197e-10
-1.88924e-10
-8.84549e-11
-1.1153e-10
-1.321e-10
-1.71546e-10
-7.91834e-11
-9.1826e-11
-1.22625e-10
-1.60158e-10
-2.83756e-10
-2.81875e-10
-2.80736e-10
-2.8145e-10
-2.7679e-10
-2.71285e-10
-2.66938e-10
-2.65608e-10
-2.64726e-10
-2.5657e-10
-2.49464e-10
-2.44307e-10
-2.49723e-10
-2.38592e-10
-2.23626e-10
-2.22294e-10
-2.29104e-10
-2.1996e-10
-2.03175e-10
-1.95115e-10
-2.18101e-10
-1.98467e-10
-1.7505e-10
-1.60823e-10
-1.88924e-10
-1.75537e-10
-1.45154e-10
-1.71546e-10
-1.43579e-10
-1.168e-10
-1.60158e-10
-1.30033e-10
-8.102e-11
)
;
    }
    procBoundary2to0
    {
        type            processor;
        value           nonuniform List<scalar> 
44
(
-2.24069e-10
-2.00992e-10
-1.71988e-10
-1.35969e-10
-1.02811e-10
-7.82092e-11
-2.83271e-10
-2.64109e-10
-2.56032e-10
-2.56032e-10
-2.02803e-10
-1.77646e-10
-1.56389e-10
-1.09169e-10
-6.92773e-11
-2.88653e-11
-2.7675e-10
-2.57971e-10
-2.33732e-10
-2.02803e-10
-1.77646e-10
-1.77646e-10
-1.22599e-10
-5.50644e-11
-1.93863e-11
3.45334e-12
-2.75223e-10
-2.52014e-10
-2.25633e-10
-1.98319e-10
-1.5828e-10
-1.22599e-10
-5.50644e-11
-5.50644e-11
-1.94392e-12
4.37344e-11
-2.74861e-10
-2.55842e-10
-2.26897e-10
-1.88056e-10
-1.52805e-10
-1.01845e-10
-3.74054e-11
-1.94392e-12
)
;
    }
    procBoundary2to3
    {
        type            processor;
        value           nonuniform List<scalar> 
12
(
-3.42438e-11
-5.58332e-11
-9.54442e-11
-1.42013e-10
1.64629e-11
-7.51967e-12
-5.89354e-11
-9.16618e-11
8.01156e-11
4.79779e-11
1.28576e-11
-3.49894e-11
)
;
    }
    procBoundary2to6
    {
        type            processor;
        value           nonuniform List<scalar> 
32
(
3.0587e-11
-6.84173e-11
-5.053e-12
-1.3741e-10
-9.56879e-11
-6.10715e-11
-2.7402e-10
-2.54426e-10
-2.25675e-10
-1.89568e-10
-1.50283e-10
-1.10548e-10
-7.58261e-11
3.0587e-11
-6.84173e-11
-3.00946e-11
-2.75239e-10
-2.61851e-10
-2.38017e-10
-2.05806e-10
-1.76389e-10
-1.40055e-10
-6.84173e-11
-1.3741e-10
-9.6775e-11
-2.80211e-10
-2.65112e-10
-2.48169e-10
-2.1801e-10
-1.95432e-10
-1.3741e-10
-1.60397e-10
)
;
    }
}


// ************************************************************************* //
