/*--------------------------------*- C++ -*----------------------------------*\
| =========                 |                                                 |
| \\      /  F ield         | OpenFOAM: The Open Source CFD Toolbox           |
|  \\    /   O peration     | Version:  4.x                                   |
|   \\  /    A nd           | Web:      www.OpenFOAM.org                      |
|    \\/     M anipulation  |                                                 |
\*---------------------------------------------------------------------------*/
FoamFile
{
    version     2.0;
    format      ascii;
    class       volScalarField;
    location    "38";
    object      pSmooth;
}
// * * * * * * * * * * * * * * * * * * * * * * * * * * * * * * * * * * * * * //

dimensions      [1 -1 -2 0 0 0 0];

internalField   nonuniform List<scalar> 
114
(
74.0782
94.8615
55.8043
87.8689
37.1294
81.1114
108.723
91.7423
101.98
74.2188
95.0622
56.1388
88.1208
37.6918
81.3407
108.411
91.6072
101.725
74.0044
94.8133
55.9129
87.8873
37.3669
81.0972
108.077
91.4705
101.443
73.942
94.5663
55.9977
87.7096
37.6586
80.9721
56.0051
88.4882
37.1177
81.532
109.618
92.3311
102.852
74.5418
95.7973
56.3586
88.7171
37.7016
81.7447
109.294
92.0995
102.489
74.2035
95.4095
55.969
88.3293
37.299
81.4267
108.806
91.8739
102.047
74.1218
95.0342
56.0481
88.0479
37.5841
81.25
37.6823
81.4637
110.329
92.6763
103.399
75.0111
96.1201
56.9786
88.8198
38.5665
81.7273
110.048
92.6279
103.208
74.7625
95.9456
56.6002
88.7696
38.0841
81.6575
109.519
92.3032
102.616
74.5689
95.4439
56.6398
88.3206
38.1408
81.4244
111.123
93.3353
104.003
75.3563
96.5973
57.2452
89.1728
39.0813
110.665
93.0103
103.549
75.0219
96.1443
56.7512
88.7249
110.065
92.7079
103.035
74.8599
95.7332
56.6789
)
;

boundaryField
{
    inlet
    {
        type            zeroGradient;
    }
    outlet
    {
        type            fixedValue;
        value           nonuniform 0();
    }
    wall
    {
        type            zeroGradient;
    }
    procBoundary2to0
    {
        type            processor;
        value           nonuniform List<scalar> 
44
(
74.1301
94.9189
56.0225
87.976
37.7184
81.2515
108.478
91.6441
101.87
101.87
74.4434
95.7411
56.3447
88.7354
37.8251
81.8748
109.556
92.1214
102.766
74.4434
95.7411
95.7411
56.34
88.616
37.7722
81.4698
110.404
92.6812
103.444
74.7858
96.0684
56.34
88.616
88.616
39.1445
81.6604
111.137
93.4422
104.149
75.464
96.6257
57.4025
88.9933
39.1445
)
;
    }
    procBoundary2to3
    {
        type            processor;
        value           nonuniform List<scalar> 
12
(
18.1324
19.2271
18.4247
18.898
18.0628
19.2595
18.3139
18.8708
19.1453
20.487
19.4169
19.4858
)
;
    }
    procBoundary2to6
    {
        type            processor;
        value           nonuniform List<scalar> 
32
(
81.8815
38.1565
81.5298
88.4686
38.3251
81.4694
111.633
93.4331
104.328
75.8986
96.6822
57.8522
88.9408
81.8815
38.1565
39.9743
111.128
93.2952
103.988
75.517
96.5416
57.2917
38.1565
88.4686
89.102
110.476
92.9741
103.385
75.37
96.0825
88.4686
57.1685
)
;
    }
}


// ************************************************************************* //
