/*--------------------------------*- C++ -*----------------------------------*\
| =========                 |                                                 |
| \\      /  F ield         | OpenFOAM: The Open Source CFD Toolbox           |
|  \\    /   O peration     | Version:  4.x                                   |
|   \\  /    A nd           | Web:      www.OpenFOAM.org                      |
|    \\/     M anipulation  |                                                 |
\*---------------------------------------------------------------------------*/
FoamFile
{
    version     2.0;
    format      ascii;
    class       volScalarField;
    location    "41";
    object      Ksl;
}
// * * * * * * * * * * * * * * * * * * * * * * * * * * * * * * * * * * * * * //

dimensions      [1 -3 -1 0 0 0 0];

internalField   nonuniform List<scalar> 
108
(
3380.11
7965.07
3385.75
7608.09
3367.63
7308.4
3304.08
7154.41
3180.28
3471.96
9940.85
3649.69
12738.3
3700.71
15493.2
3678.64
19419.8
3605.89
3508.58
11175.2
3758.72
17152.4
3813.77
27213.7
3787.17
67327
3730.69
3488.43
11326
3787.1
19325.2
3876.38
48831
3896.68
1e+10
3871.61
3360.37
7878.3
3351.53
7574.67
3358.16
7309.57
3297.44
7408.74
3257.21
3442.58
9029.4
3535.91
9972.71
3572.68
11058.4
3563.52
13000.6
3534.8
3457.37
10260.5
3675.15
14104.3
3751.51
20151.1
3724.33
32916
3678.29
3491.49
10555.4
3702.5
14948.2
3777.41
21757.6
3756.28
32672
3668.24
3316.1
6979.21
3165.22
5978.58
3101.05
5552.62
3027.43
5236.2
2899.66
3368.6
7741.69
3351.53
7101.36
3286.46
6690.37
3195.23
6381.76
3079.42
3419.9
8306.61
3448.51
8176.61
3418.08
7887.88
3315.05
7487.58
3200.74
3462.23
8509.03
3491.52
8643.15
3456.61
8278.51
3327.02
7628.67
3206.24
)
;

boundaryField
{
    inlet
    {
        type            zeroGradient;
    }
    outlet
    {
        type            zeroGradient;
    }
    wall
    {
        type            zeroGradient;
    }
    procBoundary4to0
    {
        type            processor;
        value           nonuniform List<scalar> 
36
(
3379.94
8204.61
3386.09
7706.45
3363.02
7559.87
3348.18
7677.17
3310.63
3449.86
10252.1
3618.19
12716
3691.41
16497.5
3747.74
26164.4
3722.88
3506.72
11665.9
3769.04
21415.7
3914.95
71810.1
4014.82
1e+10
4077.96
3493.29
11545.2
3756.89
20106.6
3814.91
39962.2
3809.36
93587.1
3756.9
)
;
    }
    procBoundary4to5
    {
        type            processor;
        value           nonuniform List<scalar> 
12
(
7205.18
32250.8
732074
1e+10
7774.45
15216
82934.3
47829.2
4858.59
6144.85
7267.28
7476.44
)
;
    }
    procBoundary4to6
    {
        type            processor;
        value           nonuniform List<scalar> 
27
(
3568.8
12486.3
3839.56
26273.5
3958.94
116488
3984.55
1e+10
3956.61
3508.89
10715.7
3696.42
15270.6
3745.12
23985.9
3776.32
48943.8
3744.8
3421.25
8117.05
3450.38
8113.38
3407.98
8137.39
3397.7
8454.61
3313.21
)
;
    }
}


// ************************************************************************* //
