/*--------------------------------*- C++ -*----------------------------------*\
| =========                 |                                                 |
| \\      /  F ield         | OpenFOAM: The Open Source CFD Toolbox           |
|  \\    /   O peration     | Version:  4.x                                   |
|   \\  /    A nd           | Web:      www.OpenFOAM.org                      |
|    \\/     M anipulation  |                                                 |
\*---------------------------------------------------------------------------*/
FoamFile
{
    version     2.0;
    format      ascii;
    class       volScalarField;
    location    "41";
    object      magGField;
}
// * * * * * * * * * * * * * * * * * * * * * * * * * * * * * * * * * * * * * //

dimensions      [1 -2 -1 0 0 0 0];

internalField   nonuniform List<scalar> 
108
(
96.348
40.8696
97.7133
43.5995
99.5292
45.4522
101.14
45.91
102.966
94.6924
33.3765
92.527
26.3281
91.196
21.55
91.4086
16.9913
91.7719
94.3724
29.8808
90.0165
19.4848
88.1357
12.1762
87.7767
4.84251
87.874
94.5496
29.4731
89.1339
17.2591
86.2582
6.74778
84.7732
3.74508e-05
84.1079
96.226
41.1487
97.8168
43.2747
98.9239
44.9354
100.361
43.9965
100.139
95.3693
36.4224
94.5374
33.295
93.7884
29.904
93.2951
25.2099
93.1681
95.0368
32.1912
91.2405
23.5035
89.0383
16.3252
88.5473
9.85655
88.8006
93.7962
31.3076
90.3051
22.0833
87.9843
15.0568
87.4252
9.8675
88.241
96.6129
45.6154
101.78
53.6922
105.083
58.0496
107.461
61.594
111.38
95.87
41.579
97.857
45.8962
100.164
48.6164
102.178
50.6963
104.874
94.7462
38.8851
94.9586
39.7153
96.219
41.12
98.0759
42.8852
100.385
93.54
38.0201
94.0314
37.5821
94.8082
38.9234
97.2969
42.0137
99.8839
)
;

boundaryField
{
    inlet
    {
        type            calculated;
        value           uniform 67;
    }
    outlet
    {
        type            calculated;
        value           nonuniform 0();
    }
    wall
    {
        type            calculated;
        value           uniform 0;
    }
    procBoundary4to0
    {
        type            processor;
        value           nonuniform List<scalar> 
36
(
97.3823
40.2712
99.1097
43.3951
100.506
44.4797
101.491
43.7053
101.505
96.3952
32.7418
94.1958
26.7145
92.5396
20.5115
91.0521
12.8246
90.5545
95.5185
28.8755
90.6521
15.7966
86.8663
4.66991
84.2334
3.62752e-05
81.524
95.4156
29.1438
90.7663
16.7722
88.8963
8.34507
88.1314
3.52766
87.9462
)
;
    }
    procBoundary4to5
    {
        type            processor;
        value           nonuniform List<scalar> 
12
(
45.1665
10.1447
0.440719
3.56542e-05
41.607
21.3814
3.87749
6.69594
66.0738
52.3345
43.7607
42.2596
)
;
    }
    procBoundary4to6
    {
        type            processor;
        value           nonuniform List<scalar> 
27
(
92.2432
26.6521
87.529
12.6319
84.1302
2.82356
82.847
3.61372e-05
82.3439
93.2343
30.7574
90.1526
21.539
88.3767
13.6378
87.191
6.59603
86.6213
94.817
39.9417
95.1279
39.9174
95.3056
39.6107
95.5441
37.7422
97.2503
)
;
    }
}


// ************************************************************************* //
