/*--------------------------------*- C++ -*----------------------------------*\
| =========                 |                                                 |
| \\      /  F ield         | OpenFOAM: The Open Source CFD Toolbox           |
|  \\    /   O peration     | Version:  4.x                                   |
|   \\  /    A nd           | Web:      www.OpenFOAM.org                      |
|    \\/     M anipulation  |                                                 |
\*---------------------------------------------------------------------------*/
FoamFile
{
    version     2.0;
    format      ascii;
    class       volScalarField;
    location    "41";
    object      particleRelTemp;
}
// * * * * * * * * * * * * * * * * * * * * * * * * * * * * * * * * * * * * * //

dimensions      [0 0 0 0 0 0 0];

internalField   nonuniform List<scalar> 
108
(
-8.64326e-11
-8.31376e-11
-7.78512e-11
-7.11977e-11
-6.49812e-11
-5.72524e-11
-4.49824e-11
-3.3027e-11
-2.26249e-11
-8.59332e-11
-8.19436e-11
-7.53086e-11
-6.8062e-11
-5.87259e-11
-4.88685e-11
-3.7246e-11
-2.43559e-11
-1.16316e-11
-8.57147e-11
-8.0495e-11
-7.23618e-11
-6.47842e-11
-5.40259e-11
-4.29562e-11
-2.86083e-11
-1.51556e-11
-1.20984e-12
-8.56634e-11
-8.06064e-11
-7.25237e-11
-6.42338e-11
-5.14037e-11
-3.94547e-11
-2.39179e-11
-1.01677e-11
4.08157e-12
-8.63395e-11
-8.34697e-11
-7.87951e-11
-7.3272e-11
-6.80542e-11
-6.16463e-11
-5.32597e-11
-3.92233e-11
-2.9875e-11
-8.58259e-11
-8.22033e-11
-7.72819e-11
-7.01451e-11
-6.21128e-11
-5.38891e-11
-4.26221e-11
-3.40603e-11
-1.98328e-11
-8.66454e-11
-8.1457e-11
-7.52501e-11
-6.8361e-11
-5.81152e-11
-4.6093e-11
-3.46294e-11
-2.27735e-11
-1.08041e-11
-8.58231e-11
-8.15732e-11
-7.40693e-11
-6.73628e-11
-5.62317e-11
-4.41499e-11
-3.2929e-11
-1.88473e-11
-5.51369e-12
-8.74731e-11
-8.41091e-11
-8.05794e-11
-7.56521e-11
-7.15048e-11
-6.4768e-11
-5.67624e-11
-4.7628e-11
-4.05491e-11
-8.67252e-11
-8.33911e-11
-7.7662e-11
-7.38292e-11
-6.69221e-11
-5.8529e-11
-5.03403e-11
-4.06361e-11
-3.04725e-11
-8.64426e-11
-8.20712e-11
-7.63767e-11
-7.04105e-11
-6.35658e-11
-5.12769e-11
-4.3398e-11
-3.25425e-11
-2.12719e-11
-8.59502e-11
-8.21928e-11
-7.67466e-11
-6.87899e-11
-6.10613e-11
-5.1463e-11
-4.02688e-11
-2.80998e-11
-1.84761e-11
)
;

boundaryField
{
    inlet
    {
        type            calculated;
        value           nonuniform List<scalar> 
12
(
-8.64326e-11
-8.59332e-11
-8.57147e-11
-8.56634e-11
-8.63395e-11
-8.58259e-11
-8.66454e-11
-8.58231e-11
-8.74731e-11
-8.67252e-11
-8.64426e-11
-8.59502e-11
)
;
    }
    outlet
    {
        type            calculated;
        value           nonuniform 0();
    }
    wall
    {
        type            calculated;
        value           nonuniform List<scalar> 
63
(
-8.74731e-11
-8.67252e-11
-8.64426e-11
-8.59502e-11
-8.41091e-11
-8.33911e-11
-8.20712e-11
-8.21928e-11
-8.05794e-11
-7.7662e-11
-7.63767e-11
-7.67466e-11
-7.56521e-11
-7.38292e-11
-7.04105e-11
-6.87899e-11
-7.15048e-11
-6.69221e-11
-6.35658e-11
-6.10613e-11
-6.4768e-11
-5.8529e-11
-5.12769e-11
-5.1463e-11
-5.67624e-11
-5.03403e-11
-4.3398e-11
-4.02688e-11
-4.7628e-11
-4.06361e-11
-3.25425e-11
-2.80998e-11
-4.05491e-11
-3.04725e-11
-2.12719e-11
-1.84761e-11
-8.64326e-11
-8.63395e-11
-8.74731e-11
-8.31376e-11
-8.34697e-11
-8.41091e-11
-7.78512e-11
-7.87951e-11
-8.05794e-11
-7.11977e-11
-7.3272e-11
-7.56521e-11
-6.49812e-11
-6.80542e-11
-7.15048e-11
-5.72524e-11
-6.16463e-11
-6.4768e-11
-4.49824e-11
-5.32597e-11
-5.67624e-11
-3.3027e-11
-3.92233e-11
-4.7628e-11
-2.26249e-11
-2.9875e-11
-4.05491e-11
)
;
    }
    procBoundary4to0
    {
        type            processor;
        value           nonuniform List<scalar> 
36
(
-8.68779e-11
-8.18403e-11
-7.72141e-11
-7.00968e-11
-6.21579e-11
-5.25728e-11
-4.54375e-11
-3.17903e-11
-2.32521e-11
-8.60769e-11
-8.14814e-11
-7.54061e-11
-6.65884e-11
-5.6971e-11
-4.54979e-11
-3.30357e-11
-2.26481e-11
-9.27815e-12
-8.40898e-11
-7.95586e-11
-7.37469e-11
-6.23239e-11
-5.31264e-11
-3.74552e-11
-2.46221e-11
-1.11344e-11
-5.9433e-13
-8.52731e-11
-8.02853e-11
-7.26249e-11
-6.22179e-11
-5.26794e-11
-3.84878e-11
-2.02048e-11
-9.89109e-12
4.28161e-12
)
;
    }
    procBoundary4to5
    {
        type            processor;
        value           nonuniform List<scalar> 
12
(
-9.78082e-12
7.93281e-14
1.54268e-11
1.95122e-11
-1.74973e-11
-5.06264e-12
7.73209e-12
4.30035e-12
-2.95305e-11
-1.85636e-11
-8.54529e-12
-5.96582e-12
)
;
    }
    procBoundary4to6
    {
        type            processor;
        value           nonuniform List<scalar> 
27
(
-8.50464e-11
-7.98931e-11
-7.22612e-11
-6.25647e-11
-5.18448e-11
-4.0758e-11
-3.08779e-11
-1.73276e-11
1.01619e-12
-8.58647e-11
-8.07072e-11
-7.50222e-11
-6.67603e-11
-5.78719e-11
-4.74858e-11
-3.66124e-11
-2.42003e-11
-1.02335e-11
-8.63126e-11
-8.27898e-11
-7.72821e-11
-7.02313e-11
-6.31336e-11
-5.19932e-11
-4.24822e-11
-3.26923e-11
-2.71176e-11
)
;
    }
}


// ************************************************************************* //
