/*--------------------------------*- C++ -*----------------------------------*\
| =========                 |                                                 |
| \\      /  F ield         | OpenFOAM: The Open Source CFD Toolbox           |
|  \\    /   O peration     | Version:  4.x                                   |
|   \\  /    A nd           | Web:      www.OpenFOAM.org                      |
|    \\/     M anipulation  |                                                 |
\*---------------------------------------------------------------------------*/
FoamFile
{
    version     2.0;
    format      ascii;
    class       volScalarField;
    location    "9";
    object      Cs;
}
// * * * * * * * * * * * * * * * * * * * * * * * * * * * * * * * * * * * * * //

dimensions      [1 -3 0 0 0 0 0];

internalField   nonuniform List<scalar> 
87
(
334.927
334.897
334.908
334.925
334.897
334.866
335
334.998
334.992
334.977
334.957
334.937
334.93
334.942
334.97
335
334.998
334.994
334.982
334.965
334.946
334.932
334.934
334.951
335
334.999
334.996
334.989
334.978
334.963
334.945
334.926
334.908
335
334.999
334.994
334.984
334.968
334.95
334.939
334.941
334.955
335
334.999
334.995
334.986
334.972
334.956
334.943
334.942
334.956
335
334.999
334.996
334.991
334.982
334.97
334.957
334.944
334.932
335
334.999
334.996
334.989
334.978
334.964
334.949
334.936
334.925
335
334.999
334.996
334.99
334.98
334.968
334.955
334.942
334.932
335
334.999
334.996
334.991
334.983
334.971
334.958
334.945
334.933
)
;

boundaryField
{
    inlet
    {
        type            calculated;
        value           uniform 335;
    }
    outlet
    {
        type            calculated;
        value           nonuniform 0();
    }
    wall
    {
        type            calculated;
        value           nonuniform List<scalar> 
57
(
335
335
335
334.999
334.999
334.999
334.996
334.996
334.996
334.989
334.99
334.991
334.978
334.98
334.983
334.964
334.968
334.971
334.949
334.955
334.958
334.936
334.942
334.945
334.925
334.932
334.933
335
335
335
334.999
334.999
334.999
334.996
334.996
334.996
334.989
334.991
334.991
334.978
334.982
334.983
334.963
334.97
334.971
334.925
334.945
334.957
334.958
334.897
334.926
334.944
334.945
334.866
334.908
334.932
334.933
)
;
    }
    procBoundary6to0
    {
        type            processor;
        value           uniform 334.903;
    }
    procBoundary6to2
    {
        type            processor;
        value           nonuniform List<scalar> 
32
(
334.859
334.822
334.832
334.87
334.824
334.78
335
334.998
334.992
334.977
334.954
334.929
334.91
334.911
334.911
334.911
335
334.998
334.993
334.979
334.956
334.928
334.903
334.903
334.903
335
334.999
334.995
334.986
334.971
334.951
334.951
)
;
    }
    procBoundary6to4
    {
        type            processor;
        value           nonuniform List<scalar> 
27
(
335
334.998
334.992
334.978
334.956
334.933
334.92
334.927
334.95
335
334.999
334.994
334.985
334.968
334.95
334.935
334.932
334.944
335
334.999
334.995
334.988
334.977
334.963
334.948
334.936
334.928
)
;
    }
    procBoundary6to7
    {
        type            processor;
        value           nonuniform List<scalar> 
12
(
334.959
334.941
334.843
335.01
334.981
334.895
334.979
334.983
334.923
334.919
334.925
334.924
)
;
    }
}


// ************************************************************************* //
