/*--------------------------------*- C++ -*----------------------------------*\
| =========                 |                                                 |
| \\      /  F ield         | OpenFOAM: The Open Source CFD Toolbox           |
|  \\    /   O peration     | Version:  4.x                                   |
|   \\  /    A nd           | Web:      www.OpenFOAM.org                      |
|    \\/     M anipulation  |                                                 |
\*---------------------------------------------------------------------------*/
FoamFile
{
    version     2.0;
    format      ascii;
    class       volVectorField;
    location    "9";
    object      ddtUrel;
}
// * * * * * * * * * * * * * * * * * * * * * * * * * * * * * * * * * * * * * //

dimensions      [0 1 -2 0 0 0 0];

internalField   nonuniform List<vector> 
87
(
(1.6232e-06 1.01214e-07 -9.04749e-07)
(1.58568e-06 6.29341e-08 -9.30784e-07)
(1.53066e-06 1.45913e-07 -9.22226e-07)
(1.28493e-06 2.47929e-08 -9.35549e-07)
(1.29598e-06 8.71103e-08 -9.6381e-07)
(1.3169e-06 1.62579e-07 -9.21458e-07)
(5.37829e-07 -5.46874e-08 -1.02788e-06)
(6.93968e-07 -6.15522e-08 -1.06599e-06)
(9.4335e-07 -6.08072e-08 -1.09944e-06)
(1.20829e-06 -3.41827e-08 -1.11898e-06)
(1.46237e-06 -1.37263e-09 -1.12057e-06)
(1.68742e-06 2.94118e-08 -1.12217e-06)
(1.80387e-06 5.63351e-08 -1.09132e-06)
(1.78021e-06 8.93244e-08 -1.04494e-06)
(1.65145e-06 1.00055e-07 -1.00736e-06)
(4.81531e-07 -6.27779e-08 -9.5975e-07)
(6.23882e-07 -5.46428e-08 -1.01487e-06)
(8.3839e-07 -3.64926e-08 -1.05452e-06)
(1.08473e-06 -1.55863e-08 -1.06445e-06)
(1.31013e-06 -1.46209e-09 -1.08314e-06)
(1.53408e-06 1.743e-08 -1.0856e-06)
(1.65138e-06 4.89336e-08 -1.06774e-06)
(1.66649e-06 7.32665e-08 -1.0345e-06)
(1.66621e-06 1.10327e-07 -1.02413e-06)
(4.24463e-07 -5.87802e-08 -9.79878e-07)
(5.34365e-07 -4.85797e-08 -9.83415e-07)
(7.04438e-07 -2.47639e-08 -1.04235e-06)
(8.92881e-07 -1.5391e-08 -1.01915e-06)
(1.0988e-06 -3.05791e-09 -1.04244e-06)
(1.32579e-06 1.7067e-08 -1.05313e-06)
(1.45919e-06 6.00203e-08 -1.03462e-06)
(1.56469e-06 8.90426e-08 -1.03146e-06)
(1.6267e-06 1.24786e-07 -1.03595e-06)
(5.74154e-07 -3.38025e-08 -1.06894e-06)
(7.05003e-07 -5.36551e-08 -1.10876e-06)
(9.41613e-07 -4.59193e-08 -1.16011e-06)
(1.18737e-06 -1.04787e-08 -1.18763e-06)
(1.43011e-06 1.07893e-08 -1.19894e-06)
(1.63563e-06 4.19972e-08 -1.20098e-06)
(1.69813e-06 7.53958e-08 -1.17272e-06)
(1.68478e-06 9.97044e-08 -1.1136e-06)
(1.59248e-06 8.42291e-08 -1.09509e-06)
(5.22029e-07 -4.25494e-08 -9.94904e-07)
(6.36917e-07 -4.19609e-08 -1.03536e-06)
(8.41775e-07 -2.4366e-08 -1.08232e-06)
(1.07349e-06 2.66939e-09 -1.12566e-06)
(1.27511e-06 1.64426e-08 -1.17929e-06)
(1.51803e-06 3.25215e-08 -1.20464e-06)
(1.59461e-06 5.90711e-08 -1.17769e-06)
(1.54515e-06 5.66831e-08 -1.1405e-06)
(1.60462e-06 8.66341e-08 -1.11988e-06)
(4.7207e-07 -4.05677e-08 -9.99762e-07)
(5.64445e-07 -3.3628e-08 -1.00372e-06)
(7.35473e-07 -1.30989e-08 -1.04376e-06)
(9.44422e-07 2.78992e-09 -1.0529e-06)
(1.14289e-06 9.71673e-09 -1.14437e-06)
(1.3204e-06 3.1942e-08 -1.17339e-06)
(1.43839e-06 5.90199e-08 -1.17008e-06)
(1.50353e-06 6.97637e-08 -1.14837e-06)
(1.54788e-06 1.13708e-07 -1.1199e-06)
(6.09754e-07 -1.43665e-08 -1.06203e-06)
(7.34861e-07 -2.92648e-08 -1.1092e-06)
(9.43444e-07 -2.40752e-08 -1.15116e-06)
(1.17915e-06 1.26967e-08 -1.23011e-06)
(1.44376e-06 3.33784e-08 -1.24021e-06)
(1.64386e-06 4.61004e-08 -1.22766e-06)
(1.72229e-06 6.94823e-08 -1.18341e-06)
(1.80063e-06 9.63736e-08 -1.11973e-06)
(1.60772e-06 5.92296e-08 -1.1382e-06)
(5.44659e-07 -2.23971e-08 -1.00401e-06)
(6.53602e-07 -2.19503e-08 -1.03706e-06)
(8.438e-07 -8.62658e-09 -1.10264e-06)
(1.07367e-06 2.63933e-08 -1.16083e-06)
(1.30383e-06 5.29141e-08 -1.25478e-06)
(1.56655e-06 5.10893e-08 -1.25137e-06)
(1.57014e-06 5.65271e-08 -1.2169e-06)
(1.65781e-06 5.67312e-08 -1.17951e-06)
(1.70811e-06 8.53874e-08 -1.15743e-06)
(5.01258e-07 -2.85478e-08 -1.04791e-06)
(5.9938e-07 -2.12891e-08 -1.02837e-06)
(7.74752e-07 -6.27118e-09 -1.04075e-06)
(9.58736e-07 2.64516e-08 -1.07031e-06)
(1.1807e-06 5.56358e-08 -1.18773e-06)
(1.47682e-06 5.24356e-08 -1.2132e-06)
(1.48807e-06 4.44786e-08 -1.19921e-06)
(1.57696e-06 5.29093e-08 -1.18997e-06)
(1.62911e-06 1.17698e-07 -1.13388e-06)
)
;

boundaryField
{
    inlet
    {
        type            calculated;
        value           nonuniform List<vector> 9((2.93099e-07 -8.9632e-08 -9.52119e-07) (8.82601e-08 -1.39467e-07 -8.98259e-08) (1.35297e-07 -9.34633e-09 -9.79749e-07) (2.53258e-07 4.29865e-08 -1.19945e-06) (2.07923e-07 -8.8528e-08 -7.12888e-07) (4.16367e-08 -5.02265e-08 -9.08187e-07) (3.69149e-07 7.05914e-08 -7.73674e-07) (1.43738e-07 3.43897e-08 -6.14479e-07) (-4.99739e-08 -4.45869e-08 -1.38386e-06));
    }
    outlet
    {
        type            calculated;
        value           nonuniform 0();
    }
    wall
    {
        type            calculated;
        value           nonuniform List<vector> 
57
(
(4.8961e-07 -1.70078e-08 -7.45393e-07)
(3.42054e-07 6.37062e-08 -5.90609e-07)
(3.91239e-07 -5.03221e-08 -1.39354e-06)
(1.11572e-06 2.2199e-08 -1.05201e-06)
(6.3215e-07 3.37218e-08 -6.87169e-07)
(4.46502e-07 3.95277e-09 -9.75489e-07)
(1.28044e-06 -1.58051e-08 -8.93616e-07)
(7.8475e-07 5.45366e-08 -1.23112e-06)
(8.50063e-07 -2.25926e-08 -7.69405e-07)
(1.49525e-06 3.82788e-07 -1.87377e-06)
(1.71934e-06 3.45261e-07 -1.20867e-06)
(1.12577e-06 1.8092e-07 -5.09533e-07)
(2.08314e-06 1.85254e-07 -1.38585e-06)
(1.86965e-06 3.75147e-07 -2.1607e-06)
(4.27545e-07 2.64485e-07 -1.57404e-06)
(2.32959e-06 -5.40693e-09 -1.34513e-06)
(4.24973e-06 1.89909e-07 -1.63413e-06)
(2.74956e-06 1.00313e-07 -1.4563e-06)
(2.63414e-06 6.08336e-08 -1.25109e-06)
(1.25937e-06 1.63765e-07 -1.48516e-06)
(1.66672e-06 -7.17664e-08 -1.30573e-06)
(5.60174e-06 5.26937e-07 -7.33874e-07)
(5.07105e-06 2.71294e-07 -1.17507e-06)
(3.58911e-06 -5.75349e-08 -1.43394e-06)
(7.47354e-07 -7.59985e-07 -1.66421e-06)
(4.10294e-06 -1.76705e-07 -1.56238e-06)
(2.63309e-06 8.18807e-08 -1.10339e-06)
(1.02675e-07 -2.53684e-08 -1.20291e-06)
(1.24045e-07 -3.54752e-08 -9.89145e-07)
(1.79932e-07 -2.70846e-08 -1.36412e-06)
(4.27886e-07 -1.70422e-08 -7.12154e-07)
(2.29668e-07 -2.89553e-08 -8.05136e-07)
(3.73692e-07 1.10818e-08 -9.65359e-07)
(4.08492e-07 6.15304e-08 -1.23242e-06)
(4.81738e-07 6.60849e-08 -9.73565e-07)
(9.02297e-07 -1.37555e-08 -7.58947e-07)
(2.46066e-07 -6.99274e-08 -7.06388e-07)
(1.14014e-06 3.54545e-08 -5.15446e-07)
(7.30016e-07 1.34691e-07 -5.14701e-07)
(4.41543e-07 2.27541e-08 -8.94526e-07)
(1.37675e-06 -1.29729e-07 -1.7029e-06)
(1.12784e-06 3.20634e-07 -1.39363e-06)
(1.9164e-06 -2.74728e-08 -9.22409e-07)
(5.20297e-07 3.60758e-09 -1.41085e-06)
(3.51137e-06 1.71472e-07 -1.26317e-06)
(1.45969e-06 1.49869e-07 -1.41914e-07)
(3.00507e-06 3.94821e-07 -5.62773e-07)
(4.19106e-07 1.68999e-07 -1.49947e-06)
(3.49913e-07 -9.76152e-08 -1.26173e-06)
(1.55228e-06 3.73031e-07 -1.38656e-06)
(4.18629e-06 2.21841e-07 -7.5391e-07)
(8.31352e-07 7.41462e-09 -1.40674e-06)
(7.68612e-07 -1.99832e-07 -1.5756e-06)
(4.06233e-06 6.93261e-07 -4.3738e-07)
(7.29206e-06 -4.21568e-08 -1.0962e-06)
(4.46495e-06 7.68846e-08 -1.24553e-06)
(3.58635e-07 1.60365e-07 -9.73565e-07)
)
;
    }
    procBoundary6to0
    {
        type            processor;
        value           uniform (1.67741e-06 5.88735e-08 -8.84777e-07);
    }
    procBoundary6to2
    {
        type            processor;
        value           nonuniform List<vector> 
32
(
(1.61822e-06 8.14085e-08 -7.80478e-07)
(1.57041e-06 3.82186e-08 -8.41697e-07)
(1.43407e-06 9.68661e-08 -8.39771e-07)
(1.25272e-06 -1.43904e-08 -8.923e-07)
(1.22391e-06 5.70421e-08 -9.2553e-07)
(1.09427e-06 1.14057e-07 -8.97854e-07)
(4.78922e-07 -6.06376e-08 -9.99846e-07)
(6.31368e-07 -5.65495e-08 -1.01235e-06)
(8.79653e-07 -5.53161e-08 -1.02364e-06)
(1.15595e-06 -3.83162e-08 -1.0268e-06)
(1.43197e-06 -1.75398e-08 -1.01243e-06)
(1.6405e-06 9.79378e-09 -1.00293e-06)
(1.76601e-06 2.11089e-08 -9.72354e-07)
(1.75618e-06 4.92308e-08 -9.36667e-07)
(1.75618e-06 4.92308e-08 -9.36667e-07)
(1.75618e-06 4.92308e-08 -9.36667e-07)
(3.99197e-07 -8.81036e-08 -9.74528e-07)
(5.48831e-07 -7.28928e-08 -9.87716e-07)
(7.6524e-07 -4.43921e-08 -1.00997e-06)
(1.00859e-06 -2.90037e-08 -9.97302e-07)
(1.28493e-06 -2.79548e-08 -9.80436e-07)
(1.46444e-06 -1.55204e-08 -9.66934e-07)
(1.57618e-06 -3.87802e-09 -9.43946e-07)
(1.57618e-06 -3.87802e-09 -9.43946e-07)
(1.57618e-06 -3.87802e-09 -9.43946e-07)
(3.29002e-07 -1.00905e-07 -9.649e-07)
(3.9717e-07 -8.2867e-08 -9.62183e-07)
(6.00183e-07 -3.78851e-08 -1.01928e-06)
(8.2896e-07 -3.27899e-08 -9.81239e-07)
(1.04746e-06 -2.99018e-08 -9.47409e-07)
(1.19005e-06 -5.10533e-09 -9.56382e-07)
(1.19005e-06 -5.10533e-09 -9.56382e-07)
)
;
    }
    procBoundary6to4
    {
        type            processor;
        value           nonuniform List<vector> 
27
(
(5.58389e-07 -2.7051e-08 -1.04761e-06)
(7.25139e-07 -3.59882e-08 -1.10123e-06)
(9.82945e-07 -5.85473e-08 -1.12869e-06)
(1.26573e-06 -4.81272e-08 -1.14015e-06)
(1.53111e-06 -1.3877e-08 -1.14132e-06)
(1.75778e-06 2.51178e-08 -1.16117e-06)
(1.8705e-06 4.66004e-08 -1.12393e-06)
(1.84043e-06 6.84133e-08 -1.05487e-06)
(1.65029e-06 5.94631e-08 -9.78392e-07)
(5.98861e-07 -1.992e-08 -1.10352e-06)
(7.38448e-07 -3.10958e-08 -1.15174e-06)
(9.7427e-07 -3.93522e-08 -1.17697e-06)
(1.25418e-06 -2.8282e-08 -1.19078e-06)
(1.5143e-06 -1.17767e-09 -1.21415e-06)
(1.70203e-06 3.53874e-08 -1.22478e-06)
(1.70942e-06 7.40674e-08 -1.17096e-06)
(1.64296e-06 1.00179e-07 -1.10912e-06)
(1.45281e-06 6.93238e-08 -1.05567e-06)
(6.5573e-07 -4.47615e-09 -1.15037e-06)
(7.85577e-07 -1.63201e-08 -1.17919e-06)
(9.98111e-07 -2.28332e-08 -1.20332e-06)
(1.27326e-06 -1.01968e-08 -1.21476e-06)
(1.58105e-06 -1.8533e-09 -1.24379e-06)
(1.74472e-06 3.64492e-08 -1.23194e-06)
(1.8052e-06 7.59228e-08 -1.15443e-06)
(1.65305e-06 6.2365e-08 -1.09935e-06)
(1.34119e-06 2.87715e-08 -1.07926e-06)
)
;
    }
    procBoundary6to7
    {
        type            processor;
        value           nonuniform List<vector> 
12
(
(1.23372e-06 1.19368e-07 -8.6539e-07)
(1.18846e-06 1.96738e-07 -8.9139e-07)
(1.26708e-06 2.33743e-07 -8.53043e-07)
(1.30916e-06 8.98419e-08 -9.78324e-07)
(1.31822e-06 1.50136e-07 -1.02019e-06)
(1.21626e-06 2.04458e-07 -1.03441e-06)
(1.32915e-06 7.27541e-08 -1.06927e-06)
(1.30437e-06 1.57716e-07 -1.09337e-06)
(1.2121e-06 1.99692e-07 -1.08563e-06)
(1.58718e-06 3.39696e-08 -1.10081e-06)
(1.61364e-06 1.91221e-07 -1.09752e-06)
(1.94078e-06 2.1474e-07 -1.11712e-06)
)
;
    }
}


// ************************************************************************* //
