/*--------------------------------*- C++ -*----------------------------------*\
| =========                 |                                                 |
| \\      /  F ield         | OpenFOAM: The Open Source CFD Toolbox           |
|  \\    /   O peration     | Version:  4.x                                   |
|   \\  /    A nd           | Web:      www.OpenFOAM.org                      |
|    \\/     M anipulation  |                                                 |
\*---------------------------------------------------------------------------*/
FoamFile
{
    version     2.0;
    format      ascii;
    class       volVectorField;
    location    "9";
    object      impParticleForces;
}
// * * * * * * * * * * * * * * * * * * * * * * * * * * * * * * * * * * * * * //

dimensions      [1 1 -2 0 0 0 0];

internalField   nonuniform List<vector> 
87
(
(0.00240116 4.42233e-06 -4.38046e-06)
(0.00238123 1.27929e-05 -6.95079e-06)
(0.00241704 1.11131e-05 -2.14193e-06)
(0.00235536 1.85735e-05 -1.84583e-05)
(0.00235317 1.59871e-05 -7.38639e-06)
(0.00237575 1.38058e-05 -1.66025e-06)
(0.0023268 8.81838e-06 -7.21155e-05)
(0.00235076 9.11787e-06 -6.98557e-05)
(0.00236937 9.4364e-06 -6.30227e-05)
(0.00236546 8.6111e-06 -5.12732e-05)
(0.00239145 7.99392e-06 -3.78601e-05)
(0.00235896 6.41726e-06 -2.39387e-05)
(0.00238461 5.34177e-06 -1.24485e-05)
(0.00235589 3.65932e-06 -7.40482e-06)
(0.00238903 2.26255e-06 -7.22527e-06)
(0.00229283 1.86284e-05 -7.1057e-05)
(0.00232804 1.98843e-05 -6.97356e-05)
(0.00236131 2.06362e-05 -6.3895e-05)
(0.00236248 1.90965e-05 -5.29371e-05)
(0.00238549 1.80271e-05 -4.00213e-05)
(0.00236571 1.53785e-05 -2.61895e-05)
(0.00238749 1.35773e-05 -1.4186e-05)
(0.00236779 1.06447e-05 -7.95381e-06)
(0.00240269 8.36615e-06 -6.25537e-06)
(0.00223863 2.16106e-05 -6.93406e-05)
(0.00227169 2.30715e-05 -6.83896e-05)
(0.00229748 2.341e-05 -6.28618e-05)
(0.00230947 2.2354e-05 -5.3237e-05)
(0.00234792 2.18923e-05 -4.12396e-05)
(0.00234719 1.95458e-05 -2.80994e-05)
(0.00235267 1.70463e-05 -1.61201e-05)
(0.00233604 1.35651e-05 -8.79211e-06)
(0.00237624 1.11952e-05 -5.47208e-06)
(0.00230025 8.03579e-06 -5.55409e-05)
(0.00232757 8.60274e-06 -5.31547e-05)
(0.00236204 8.77903e-06 -4.68866e-05)
(0.00234722 7.67057e-06 -3.80665e-05)
(0.00236159 6.64871e-06 -2.72167e-05)
(0.00235085 5.21954e-06 -1.71228e-05)
(0.00237772 3.95108e-06 -8.4426e-06)
(0.00234471 2.03669e-06 -6.14264e-06)
(0.00237858 3.23462e-07 -7.56355e-06)
(0.00226365 1.72232e-05 -5.58598e-05)
(0.00230461 1.86024e-05 -5.36813e-05)
(0.00234053 1.91726e-05 -4.78609e-05)
(0.00233318 1.72938e-05 -3.97622e-05)
(0.00235855 1.61067e-05 -2.89874e-05)
(0.00234099 1.34439e-05 -1.9462e-05)
(0.00237877 1.18729e-05 -1.02952e-05)
(0.0023509 8.64266e-06 -7.42727e-06)
(0.00239226 6.43738e-06 -7.75908e-06)
(0.00222227 2.07011e-05 -5.58818e-05)
(0.00224199 2.13878e-05 -5.39529e-05)
(0.00227328 2.17292e-05 -4.87386e-05)
(0.002287 2.06965e-05 -4.1046e-05)
(0.00231464 1.96026e-05 -3.13059e-05)
(0.00230968 1.70307e-05 -2.16085e-05)
(0.00233563 1.50278e-05 -1.29573e-05)
(0.00232787 1.17385e-05 -8.69617e-06)
(0.0023589 9.10736e-06 -7.9976e-06)
(0.00225297 6.95557e-06 -4.74773e-05)
(0.00226583 7.1284e-06 -4.49907e-05)
(0.00231028 7.29026e-06 -3.92894e-05)
(0.00230409 6.27696e-06 -3.19497e-05)
(0.00232141 5.24626e-06 -2.2866e-05)
(0.0023182 3.94188e-06 -1.46241e-05)
(0.00235392 2.53115e-06 -7.63622e-06)
(0.00232592 7.45451e-07 -6.10015e-06)
(0.00233693 -1.14673e-06 -8.53737e-06)
(0.00222296 1.54647e-05 -4.81531e-05)
(0.00224461 1.60291e-05 -4.57463e-05)
(0.00228242 1.63664e-05 -4.05217e-05)
(0.00228676 1.50923e-05 -3.35535e-05)
(0.00231469 1.39138e-05 -2.46271e-05)
(0.00230736 1.16401e-05 -1.67398e-05)
(0.00233581 9.76438e-06 -9.9074e-06)
(0.00232283 6.91098e-06 -7.88991e-06)
(0.00234799 4.70769e-06 -9.46749e-06)
(0.00219232 1.9016e-05 -4.87051e-05)
(0.00220894 1.94926e-05 -4.65426e-05)
(0.00224488 1.98186e-05 -4.17673e-05)
(0.00224882 1.85426e-05 -3.49889e-05)
(0.00226726 1.70593e-05 -2.67583e-05)
(0.00228563 1.52007e-05 -1.87162e-05)
(0.00230369 1.28334e-05 -1.23423e-05)
(0.00230218 9.85594e-06 -9.58342e-06)
(0.00233437 7.30426e-06 -1.02748e-05)
)
;

boundaryField
{
    inlet
    {
        type            zeroGradient;
    }
    outlet
    {
        type            zeroGradient;
    }
    wall
    {
        type            zeroGradient;
    }
    procBoundary6to0
    {
        type            processor;
        value           uniform (0.00236927 -3.98723e-06 -4.60005e-06);
    }
    procBoundary6to2
    {
        type            processor;
        value           nonuniform List<vector> 
32
(
(0.00240851 6.66297e-06 1.21539e-07)
(0.00241107 1.57047e-05 -4.08246e-06)
(0.00243996 1.48808e-05 3.97557e-06)
(0.00239482 2.13581e-05 -1.98669e-05)
(0.00237546 1.90115e-05 -5.33419e-06)
(0.00240336 1.79244e-05 4.11929e-06)
(0.00231029 8.28952e-06 -8.83767e-05)
(0.00235751 9.40197e-06 -8.82767e-05)
(0.00240247 1.04179e-05 -8.26551e-05)
(0.00238267 9.51709e-06 -6.67862e-05)
(0.0023982 8.82531e-06 -4.93587e-05)
(0.00237691 7.50908e-06 -3.08277e-05)
(0.00239933 6.58195e-06 -1.51551e-05)
(0.00237454 5.33698e-06 -6.98552e-06)
(0.00237454 5.33698e-06 -6.98552e-06)
(0.00237454 5.33698e-06 -6.98552e-06)
(0.00228428 1.77603e-05 -8.6656e-05)
(0.00232928 1.96582e-05 -8.706e-05)
(0.00239048 2.17671e-05 -8.29089e-05)
(0.00237197 1.97489e-05 -6.79454e-05)
(0.00239906 1.91264e-05 -5.158e-05)
(0.00237558 1.65865e-05 -3.28623e-05)
(0.00240543 1.55007e-05 -1.68008e-05)
(0.00240543 1.55007e-05 -1.68008e-05)
(0.00240543 1.55007e-05 -1.68008e-05)
(0.00223332 2.10244e-05 -8.34036e-05)
(0.00227339 2.28611e-05 -8.35657e-05)
(0.00233264 2.49579e-05 -7.98441e-05)
(0.00233169 2.35906e-05 -6.71313e-05)
(0.0023549 2.28331e-05 -5.17398e-05)
(0.00234314 2.03509e-05 -3.41021e-05)
(0.00234314 2.03509e-05 -3.41021e-05)
)
;
    }
    procBoundary6to4
    {
        type            processor;
        value           nonuniform List<vector> 
27
(
(0.00229161 -5.21082e-06 -7.05256e-05)
(0.00234033 -5.55195e-06 -6.89827e-05)
(0.00238635 -5.24166e-06 -6.27549e-05)
(0.00236764 -4.93966e-06 -5.0405e-05)
(0.00239018 -4.79227e-06 -3.61661e-05)
(0.00236399 -4.49977e-06 -2.23966e-05)
(0.00239702 -4.49935e-06 -1.04032e-05)
(0.00235224 -4.85409e-06 -5.85229e-06)
(0.00237117 -5.46098e-06 -5.93352e-06)
(0.00229025 -5.46578e-06 -5.529e-05)
(0.00232783 -5.59257e-06 -5.26722e-05)
(0.00236328 -5.56808e-06 -4.61027e-05)
(0.00236374 -5.20378e-06 -3.67997e-05)
(0.00238973 -5.32804e-06 -2.49137e-05)
(0.00236042 -5.15796e-06 -1.49824e-05)
(0.00238943 -5.47835e-06 -5.46622e-06)
(0.00235195 -6.11694e-06 -3.55675e-06)
(0.00236717 -7.29125e-06 -5.06311e-06)
(0.00226764 -5.43418e-06 -4.71848e-05)
(0.00227702 -5.32794e-06 -4.44428e-05)
(0.00231583 -5.53814e-06 -3.8477e-05)
(0.00232105 -5.50519e-06 -3.0571e-05)
(0.00234975 -5.62928e-06 -2.07537e-05)
(0.00233416 -5.58876e-06 -1.23262e-05)
(0.0023303 -5.93966e-06 -5.90922e-06)
(0.0023207 -6.83727e-06 -3.74943e-06)
(0.00233677 -8.30432e-06 -5.52587e-06)
)
;
    }
    procBoundary6to7
    {
        type            processor;
        value           nonuniform List<vector> 
12
(
(0.00240359 3.30551e-06 -1.11932e-05)
(0.00241023 8.68024e-06 -7.15909e-06)
(0.00238693 1.13759e-05 -3.92591e-06)
(0.00236917 4.21504e-07 -1.45577e-05)
(0.00238791 5.58067e-06 -1.23138e-05)
(0.0023684 8.14319e-06 -9.85559e-06)
(0.00236909 -1.52094e-06 -1.56256e-05)
(0.00237901 3.7862e-06 -1.48854e-05)
(0.00235377 6.28457e-06 -1.35414e-05)
(0.00233868 -3.0395e-06 -1.61089e-05)
(0.00233867 2.42026e-06 -1.66948e-05)
(0.0023224 4.86524e-06 -1.65123e-05)
)
;
    }
}


// ************************************************************************* //
