/*--------------------------------*- C++ -*----------------------------------*\
| =========                 |                                                 |
| \\      /  F ield         | OpenFOAM: The Open Source CFD Toolbox           |
|  \\    /   O peration     | Version:  4.x                                   |
|   \\  /    A nd           | Web:      www.OpenFOAM.org                      |
|    \\/     M anipulation  |                                                 |
\*---------------------------------------------------------------------------*/
FoamFile
{
    version     2.0;
    format      ascii;
    class       volScalarField;
    location    "9";
    object      KslPrev;
}
// * * * * * * * * * * * * * * * * * * * * * * * * * * * * * * * * * * * * * //

dimensions      [1 -3 -1 0 0 0 0];

internalField   nonuniform List<scalar> 
87
(
3760.9
19195.2
3811.03
3286.93
5971.06
3148.91
3619.1
10666.6
3914.45
19005.3
4038.8
37599.6
4058.12
71051.8
4052.95
3530.28
9766.35
3779.85
14503.5
3929.35
23492.1
4000.27
38062.7
4033.9
3412.09
7345.18
3431.03
7092.16
3456.15
7092.44
3432.4
6759.09
3371.97
3577.23
9398.66
3794.62
12779.4
3841.86
16605.8
3872.73
20203.5
3857.14
3473.82
8666.08
3659.27
10633.2
3742.38
13190
3826.67
16704.9
3875.86
3394.43
6922.43
3339.38
6427.96
3300.42
6061.96
3244.3
5713.35
3153.64
3463.21
7463.27
3522.7
7738.63
3508.29
7866.98
3518.6
8033.56
3470.43
3402.05
7066.45
3406.26
6786.58
3375.07
6449.77
3342.58
6099.52
3269.93
3346.64
6570.33
3257.9
5944.94
3159.96
5552.9
3129.63
5247.61
3072.78
)
;

boundaryField
{
    inlet
    {
        type            zeroGradient;
    }
    outlet
    {
        type            zeroGradient;
    }
    wall
    {
        type            zeroGradient;
    }
    procBoundary6to0
    {
        type            processor;
        value           uniform 0;
    }
    procBoundary6to2
    {
        type            processor;
        value           uniform 0;
    }
    procBoundary6to4
    {
        type            processor;
        value           uniform 0;
    }
    procBoundary6to7
    {
        type            processor;
        value           uniform 0;
    }
}


// ************************************************************************* //
