/*--------------------------------*- C++ -*----------------------------------*\
| =========                 |                                                 |
| \\      /  F ield         | OpenFOAM: The Open Source CFD Toolbox           |
|  \\    /   O peration     | Version:  4.x                                   |
|   \\  /    A nd           | Web:      www.OpenFOAM.org                      |
|    \\/     M anipulation  |                                                 |
\*---------------------------------------------------------------------------*/
FoamFile
{
    version     2.0;
    format      ascii;
    class       volVectorField;
    location    "9";
    object      U;
}
// * * * * * * * * * * * * * * * * * * * * * * * * * * * * * * * * * * * * * //

dimensions      [0 1 -1 0 0 0 0];

internalField   nonuniform List<vector> 
87
(
(0.0281469 0.000218606 0.000718517)
(0.00547019 8.30108e-05 6.58447e-05)
(0.02795 0.000421785 0.000989814)
(0.0315851 0.00113383 -1.4376e-05)
(0.0173748 0.000427339 0.000128393)
(0.0332237 0.00065613 0.00169789)
(0.0283402 0.000580873 -0.00117393)
(0.00969852 0.000405547 -0.000589441)
(0.0266773 0.000728591 -0.00100788)
(0.00547544 0.000243528 -0.000334496)
(0.026113 0.00049395 -0.000226455)
(0.00276181 0.000150449 -8.0278e-05)
(0.0259117 0.000292993 0.000366836)
(0.00145875 8.75068e-05 -4.13237e-05)
(0.0259956 0.000161271 1.08722e-05)
(0.0286026 0.00150091 -0.00101986)
(0.0104834 0.000564427 -0.000653739)
(0.0275095 0.00143977 -0.00096922)
(0.00716108 0.000384112 -0.000466448)
(0.0267625 0.000931381 -0.000279059)
(0.00443527 0.000191221 -0.000146444)
(0.0263119 0.000677039 0.00035647)
(0.00274066 0.00010272 -6.48779e-05)
(0.0262664 0.000212964 0.000250732)
(0.0289061 0.00120951 -0.00109738)
(0.0136014 0.000723735 -0.000858001)
(0.0294832 0.0014757 -0.00123824)
(0.0143149 0.000688725 -0.00100439)
(0.0299296 0.00124548 -0.000859253)
(0.0145712 0.000584306 -0.000643492)
(0.030212 0.00106843 -3.45056e-05)
(0.0152349 0.000463258 -9.08587e-05)
(0.0310556 0.000550317 0.0010643)
(0.0283555 0.000684705 0.00056407)
(0.01092 0.000348974 6.2565e-05)
(0.0274454 0.000675855 0.000577495)
(0.00809547 0.000289316 0.000158263)
(0.0270977 0.000415976 0.00080625)
(0.00623796 0.000158668 0.00022326)
(0.0270615 0.000257976 0.000909659)
(0.00510722 0.000142626 0.000305471)
(0.0271938 0.000235955 0.000298885)
(0.0287132 0.00137898 0.000450166)
(0.0117171 0.000601274 9.75254e-05)
(0.0281817 0.00127042 0.00062115)
(0.00967172 0.0003799 0.000100861)
(0.0277666 0.000932168 0.000949702)
(0.00781945 0.000284101 0.00024533)
(0.0273814 0.00065311 0.00122212)
(0.00620026 0.000140852 0.000255411)
(0.0272065 0.000388595 0.00080286)
(0.0288643 0.0010948 6.61933e-05)
(0.0142715 0.000695489 -0.000166346)
(0.0300036 0.00131657 -1.13471e-05)
(0.01568 0.00067626 -0.000140958)
(0.0309096 0.00122786 0.000224556)
(0.016791 0.000687901 -1.14581e-06)
(0.0317271 0.00110893 0.000571725)
(0.0179563 0.000571773 0.000375349)
(0.0329635 0.000664457 0.00108413)
(0.0286839 0.000790817 0.000486078)
(0.0133877 0.000355442 0.000135307)
(0.0289201 0.00065879 0.000340832)
(0.0131298 0.000290929 4.42503e-05)
(0.0291811 0.000352042 0.000325744)
(0.0129955 0.000112149 0.000104575)
(0.0295026 -2.00835e-05 0.000357906)
(0.0127676 4.25518e-05 0.000162153)
(0.0296967 -0.000123359 0.000208374)
(0.0288057 0.00102419 0.000388647)
(0.0140031 0.000507348 0.000147839)
(0.0295386 0.000997309 0.000427382)
(0.0148559 0.000458327 8.74523e-05)
(0.0302358 0.000744318 0.000536628)
(0.0157722 0.00036475 0.000241)
(0.0308033 0.00064102 0.000778831)
(0.0167934 6.2873e-05 0.000224368)
(0.031661 0.000325093 0.000572243)
(0.0288887 0.000818668 0.000112564)
(0.0148238 0.000490229 -7.7229e-05)
(0.0303846 0.000874746 -2.99801e-05)
(0.0166781 0.000511107 -0.000126665)
(0.0316398 0.000707387 -7.09832e-05)
(0.0181504 0.000345997 -0.000188802)
(0.0324606 0.000518802 8.98199e-05)
(0.0193468 0.000189318 -0.000181853)
(0.0335038 0.000108043 0.000158936)
)
;

boundaryField
{
    inlet
    {
        type            fixedValue;
        value           uniform (0.01 0 0);
    }
    outlet
    {
        type            zeroGradient;
    }
    wall
    {
        type            fixedValue;
        value           uniform (0 0 0);
    }
    procBoundary6to0
    {
        type            processor;
        value           uniform (0.0273413 5.14562e-05 0.000817619);
    }
    procBoundary6to2
    {
        type            processor;
        value           nonuniform List<vector> 
32
(
(0.0276903 0.00013843 0.00122744)
(0.0042792 0.000168211 0.00031217)
(0.0276253 0.000793381 0.0017899)
(0.0312972 0.00126818 0.000113723)
(0.0169816 0.000648773 0.000578552)
(0.0330444 0.00107539 0.00249695)
(0.0285138 0.00054084 -0.00232798)
(0.0104026 0.000351551 -0.00119702)
(0.0275785 0.000663282 -0.00203414)
(0.00735575 0.000250051 -0.000726398)
(0.027084 0.000340311 -0.000674223)
(0.00568878 0.000175455 -0.00013101)
(0.0274373 9.24663e-05 0.000561514)
(0.00533039 0.000139656 -3.37909e-05)
(0.00533039 0.000139656 -3.37909e-05)
(0.00533039 0.000139656 -3.37909e-05)
(0.0286535 0.0012476 -0.0021218)
(0.0109934 0.000591997 -0.00121709)
(0.0279835 0.00126954 -0.00193884)
(0.00839573 0.000367894 -0.000834033)
(0.0273862 0.000961483 -0.000812328)
(0.00632204 0.000213542 -0.000202001)
(0.0274404 0.000691807 0.00065446)
(0.0274404 0.000691807 0.00065446)
(0.0274404 0.000691807 0.00065446)
(0.0288462 0.0011523 -0.00198978)
(0.01372 0.000695489 -0.00144934)
(0.0298129 0.00141807 -0.00215552)
(0.0147894 0.000689016 -0.00153328)
(0.0305593 0.00135176 -0.0015621)
(0.0158724 0.000645876 -0.000793457)
(0.0158724 0.000645876 -0.000793457)
)
;
    }
    procBoundary6to4
    {
        type            processor;
        value           nonuniform List<vector> 
27
(
(0.0285472 -0.000345718 -0.00117352)
(0.0100069 5.47538e-06 -0.000611236)
(0.026861 -0.000153637 -0.000919002)
(0.00588642 -5.28149e-05 -0.000372714)
(0.0259038 -9.45358e-05 -0.00014381)
(0.00296305 -1.40482e-05 -4.51795e-05)
(0.0254264 6.83933e-05 0.000378151)
(0.0010252 -2.98014e-06 -1.63142e-05)
(0.02498 2.61282e-05 0.000304839)
(0.0284805 -0.000401608 0.000251899)
(0.0108861 -1.99978e-05 0.000256371)
(0.0273379 -0.000188795 0.000764995)
(0.00793854 -3.4014e-05 0.000270953)
(0.0267763 -0.000162689 0.00125148)
(0.00591721 -9.13613e-05 0.000494856)
(0.0263722 -0.000130502 0.00171804)
(0.00426243 -7.35466e-05 0.000447286)
(0.0256453 -0.000138793 0.00123713)
(0.028519 -0.000130996 0.000285972)
(0.0128597 -3.71326e-05 0.00020385)
(0.0285465 -0.000249037 0.000490177)
(0.0126029 -0.000154642 0.000239873)
(0.0290288 -0.000336705 0.000707911)
(0.0135194 -0.000244118 0.000456225)
(0.029839 -0.0005084 0.00120286)
(0.0156364 -0.000299107 0.000622604)
(0.0309993 -0.000735047 0.00114075)
)
;
    }
    procBoundary6to7
    {
        type            processor;
        value           nonuniform List<vector> 
12
(
(0.00572317 0.000400308 -0.000339347)
(0.00606421 1.14064e-05 -0.000227336)
(0.0193952 0.000159582 0.00107434)
(0.00120997 0.000127184 -0.00012163)
(0.00205387 7.48224e-05 -0.000167027)
(0.0161144 0.000277476 0.000501147)
(0.00394368 0.000270251 7.9789e-05)
(0.00501309 0.000103604 5.15262e-05)
(0.0194388 0.000454289 0.000871218)
(0.0117186 0.000118951 -0.000188924)
(0.0175101 0.000129619 -0.000116261)
(0.0207021 5.75599e-05 -0.000244343)
)
;
    }
}


// ************************************************************************* //
