/*--------------------------------*- C++ -*----------------------------------*\
| =========                 |                                                 |
| \\      /  F ield         | OpenFOAM: The Open Source CFD Toolbox           |
|  \\    /   O peration     | Version:  4.x                                   |
|   \\  /    A nd           | Web:      www.OpenFOAM.org                      |
|    \\/     M anipulation  |                                                 |
\*---------------------------------------------------------------------------*/
FoamFile
{
    version     2.0;
    format      ascii;
    class       volVectorField;
    location    "13.5";
    object      Us;
}
// * * * * * * * * * * * * * * * * * * * * * * * * * * * * * * * * * * * * * //

dimensions      [0 1 -1 0 0 0 0];

internalField   nonuniform List<vector> 
87
(
(-3.8951e-06 -1.39407e-07 -6.52974e-08)
(-3.00382e-06 -3.37072e-07 -2.78163e-08)
(-3.53216e-06 -1.06132e-07 -1.1039e-07)
(-1.0171e-06 3.92236e-09 5.31468e-08)
(-1.6374e-06 -1.85632e-07 -1.82618e-07)
(-1.25087e-06 -4.93761e-08 -2.47802e-07)
(-5.77021e-08 5.93333e-08 5.87088e-08)
(-2.13427e-07 1.31508e-07 8.86e-08)
(-5.33605e-07 8.20632e-08 1.56864e-07)
(-9.05201e-07 4.97461e-08 1.26458e-07)
(-1.70727e-06 5.14146e-08 5.80311e-08)
(-2.45154e-06 -1.91714e-07 1.90506e-07)
(-2.81968e-06 -3.11294e-07 1.29378e-07)
(-3.14725e-06 -3.06123e-07 9.27502e-08)
(-3.60966e-06 -1.41393e-07 -2.34306e-09)
(-5.61765e-08 5.76988e-08 6.45545e-08)
(-1.67813e-07 1.16594e-07 9.07483e-08)
(-4.28302e-07 1.1179e-07 1.14861e-07)
(-8.90703e-07 8.73238e-08 7.42141e-08)
(-1.25331e-06 1.32425e-07 -4.82888e-08)
(-1.84718e-06 -1.29753e-08 6.42696e-08)
(-2.44961e-06 -2.61011e-07 -6.66724e-09)
(-2.73939e-06 -2.48283e-07 -1.12399e-07)
(-3.19896e-06 -1.0573e-07 2.69736e-08)
(2.4371e-09 2.19073e-08 -4.985e-09)
(-2.94886e-08 1.15535e-07 5.88744e-08)
(-1.38353e-07 6.83565e-08 8.95784e-08)
(-3.9304e-07 1.62377e-07 5.96926e-08)
(-4.93356e-07 1.38408e-07 2.6557e-08)
(-9.81955e-07 7.12953e-08 4.80088e-08)
(-1.29785e-06 -5.46893e-08 9.8494e-08)
(-1.20145e-06 -8.60111e-08 -3.02574e-08)
(-2.00032e-06 9.45792e-09 -1.18879e-07)
(2.34603e-08 3.09342e-08 3.54083e-08)
(-1.73599e-07 1.08008e-07 1.12213e-07)
(-4.29432e-07 1.25671e-07 1.68038e-07)
(-6.60743e-07 1.38646e-07 1.18138e-07)
(-1.04356e-06 1.09981e-07 7.82595e-08)
(-1.88587e-06 5.66583e-08 1.25187e-07)
(-2.31952e-06 -1.35347e-07 -2.69346e-08)
(-2.73439e-06 -2.75022e-07 7.512e-08)
(-3.00765e-06 -3.02313e-07 -3.45242e-08)
(1.65589e-09 5.32673e-08 5.05808e-08)
(-1.43837e-07 1.08794e-07 7.41786e-08)
(-3.50976e-07 1.55901e-07 9.62844e-08)
(-6.42739e-07 1.63996e-07 6.2081e-08)
(-7.88477e-07 1.09558e-07 -5.05413e-08)
(-1.6192e-06 6.94509e-08 1.36669e-07)
(-1.98581e-06 -1.90351e-07 -1.01347e-07)
(-2.47694e-06 3.81943e-07 -1.78493e-07)
(-3.07511e-06 -3.59208e-07 2.01112e-07)
(2.78158e-07 -1.83439e-08 -6.78391e-08)
(2.25017e-07 8.4903e-08 -9.3151e-08)
(-1.45169e-07 1.23037e-07 3.02554e-08)
(-2.42316e-07 1.06288e-07 3.02805e-08)
(-3.66479e-07 1.01405e-07 -3.93751e-08)
(-5.61388e-07 1.1644e-07 2.86747e-08)
(-8.68355e-07 -6.04209e-08 -2.55908e-08)
(-1.15292e-06 -7.04445e-08 -1.60975e-07)
(-1.72692e-06 -2.84563e-07 1.30965e-07)
(2.30515e-08 3.05236e-09 1.40409e-08)
(-2.23022e-08 6.17668e-08 4.74011e-08)
(-2.20961e-07 1.18818e-08 1.03155e-07)
(-4.38442e-07 5.8294e-08 1.01152e-07)
(-7.5733e-07 6.19826e-08 1.14245e-07)
(-1.18038e-06 1.12209e-08 1.42069e-07)
(-8.71425e-07 7.45069e-07 1.40581e-08)
(-1.95335e-06 -1.28105e-07 3.67627e-08)
(-2.31075e-06 -4.98362e-07 -3.38567e-07)
(-1.20557e-06 -5.84894e-07 1.75709e-08)
(-5.30452e-08 6.02861e-08 4.77974e-08)
(-3.10758e-08 7.11229e-08 5.6268e-08)
(-3.43156e-07 9.12586e-08 4.79529e-08)
(-5.73276e-07 9.16417e-08 3.47355e-08)
(-8.84903e-07 7.87149e-08 5.86511e-08)
(7.89584e-07 2.14743e-06 -1.93894e-07)
(-2.03642e-06 6.35402e-07 8.68467e-08)
(-1.99183e-06 -6.38903e-07 2.09901e-07)
(-2.43773e-06 -1.40265e-06 4.5004e-08)
(-1.0268e-07 -3.3773e-08 2.76031e-08)
(-2.44295e-08 7.577e-08 2.37185e-08)
(-1.27148e-07 6.0077e-08 4.47649e-08)
(-2.04169e-07 3.3964e-08 -1.05905e-08)
(-4.43082e-07 4.97555e-08 3.7426e-08)
(-5.54854e-07 -5.55646e-09 -1.49369e-08)
(-6.63693e-07 -4.15485e-08 -1.40191e-07)
(-1.44563e-06 -3.11319e-07 2.32342e-07)
)
;

boundaryField
{
    inlet
    {
        type            zeroGradient;
    }
    outlet
    {
        type            zeroGradient;
    }
    wall
    {
        type            zeroGradient;
    }
    procBoundary6to0
    {
        type            processor;
        value           uniform (-4.38229e-06 -1.54367e-07 -1.12155e-07);
    }
    procBoundary6to2
    {
        type            processor;
        value           nonuniform List<vector> 
32
(
(-4.37318e-06 -1.63243e-07 -1.66633e-07)
(-3.29675e-06 -1.75106e-07 -1.42024e-07)
(-3.72639e-06 -2.45605e-07 -1.51734e-07)
(-1.44383e-06 1.55772e-07 7.9533e-08)
(-1.76498e-06 1.45095e-07 -2.3687e-07)
(-2.23004e-06 -3.72752e-08 -3.62455e-07)
(-2.3476e-08 4.19998e-08 4.89372e-08)
(-2.6169e-07 1.04028e-07 9.36016e-08)
(-6.01702e-07 1.0245e-07 6.67635e-08)
(-1.11716e-06 1.00501e-07 5.10993e-08)
(-1.74663e-06 -2.94329e-09 5.70387e-08)
(-2.5042e-06 -4.97262e-08 1.55014e-07)
(-3.0919e-06 -1.25116e-07 2.36367e-08)
(-3.63347e-06 -2.33201e-07 -5.87155e-08)
(-3.63347e-06 -2.33201e-07 -5.87155e-08)
(-3.63347e-06 -2.33201e-07 -5.87155e-08)
(-5.33516e-09 2.0398e-08 5.37146e-08)
(-2.51417e-07 1.20943e-07 1.2173e-07)
(-5.26496e-07 1.51995e-07 2.18775e-08)
(-9.54456e-07 1.49889e-07 3.82677e-08)
(-1.52837e-06 1.22322e-07 1.00721e-07)
(-1.9804e-06 1.13963e-08 6.08069e-08)
(-2.33459e-06 -2.2832e-08 -5.68531e-08)
(-2.33459e-06 -2.2832e-08 -5.68531e-08)
(-2.33459e-06 -2.2832e-08 -5.68531e-08)
(2.00751e-08 2.44931e-08 3.06901e-08)
(-8.6523e-08 8.8456e-08 6.76133e-08)
(-2.77465e-07 9.89984e-08 6.63909e-08)
(-3.84892e-07 1.37171e-07 6.28151e-08)
(-8.68554e-07 1.42489e-07 3.51571e-08)
(-9.06904e-07 7.12409e-08 3.64566e-08)
(-9.06904e-07 7.12409e-08 3.64566e-08)
)
;
    }
    procBoundary6to4
    {
        type            processor;
        value           nonuniform List<vector> 
27
(
(-8.55168e-09 2.97706e-08 4.11101e-08)
(-1.55038e-07 4.63073e-08 7.8122e-08)
(-4.81186e-07 1.37481e-07 1.33014e-07)
(-8.71937e-07 1.31279e-07 1.77872e-07)
(-1.69274e-06 -6.41852e-08 1.01949e-07)
(-2.65572e-06 -2.28309e-07 7.44095e-08)
(-3.02114e-06 -9.79905e-08 -4.22066e-08)
(-3.56315e-06 -3.18255e-07 5.74895e-08)
(-3.85396e-06 -6.65177e-08 -1.60104e-07)
(3.05525e-08 2.14499e-08 2.70659e-08)
(-7.25477e-08 2.40481e-08 6.76593e-08)
(-3.96776e-07 9.73096e-08 1.68472e-07)
(-6.67433e-07 1.04389e-07 1.7741e-07)
(-1.07791e-06 2.89642e-08 1.98505e-07)
(-2.00136e-06 -1.51562e-07 1.65062e-07)
(-2.33944e-06 -3.40034e-07 7.1579e-08)
(-2.7581e-06 -2.51399e-07 -7.88372e-08)
(-3.14016e-06 -2.09808e-07 -5.62266e-07)
(4.70431e-09 1.69476e-08 2.42786e-08)
(-3.54074e-08 5.85614e-09 5.56764e-08)
(-2.52217e-07 -7.7717e-08 1.18244e-07)
(-3.78154e-07 5.78123e-08 1.04356e-07)
(-6.56847e-07 1.24548e-07 1.95211e-07)
(-9.86603e-07 8.0262e-08 1.75644e-07)
(-1.17271e-06 -1.33953e-07 4.95068e-08)
(-9.24432e-06 4.17127e-06 -2.91156e-08)
(-2.52447e-06 -2.15479e-07 -7.19285e-08)
)
;
    }
    procBoundary6to7
    {
        type            processor;
        value           nonuniform List<vector> 
12
(
(-4.23042e-06 -3.07215e-09 -3.39537e-08)
(-3.71933e-06 -2.1488e-07 2.19883e-08)
(-3.09029e-06 2.02229e-07 -6.18579e-08)
(-3.85114e-06 -2.00382e-07 -2.04543e-08)
(-3.61988e-06 -2.37669e-07 1.41785e-07)
(-2.99047e-06 -1.72171e-07 2.53325e-07)
(-3.42464e-06 -4.2232e-07 -3.49108e-08)
(-3.15419e-06 -2.61595e-07 2.2151e-07)
(-2.20918e-06 -9.15522e-08 2.0785e-07)
(-2.29694e-06 -4.68521e-07 -1.17491e-08)
(-2.06726e-06 -3.02714e-07 1.47567e-08)
(-1.40106e-06 -5.09574e-08 -7.70989e-08)
)
;
    }
}


// ************************************************************************* //
