/*--------------------------------*- C++ -*----------------------------------*\
| =========                 |                                                 |
| \\      /  F ield         | OpenFOAM: The Open Source CFD Toolbox           |
|  \\    /   O peration     | Version:  4.x                                   |
|   \\  /    A nd           | Web:      www.OpenFOAM.org                      |
|    \\/     M anipulation  |                                                 |
\*---------------------------------------------------------------------------*/
FoamFile
{
    version     2.0;
    format      ascii;
    class       volScalarField;
    location    "45.5";
    object      KslNext;
}
// * * * * * * * * * * * * * * * * * * * * * * * * * * * * * * * * * * * * * //

dimensions      [1 -3 -1 0 0 0 0];

internalField   nonuniform List<scalar> 
114
(
6253.63
3142.79
5504.71
3028.29
5062.88
2874.65
3394.89
8095.97
3327.85
7000.48
3279.26
6456.04
3213.53
6231.64
3128.42
3347.88
7537.17
3225.38
6177.82
3136.3
5508.58
3031.33
5133.91
2913.28
3291.64
6770.88
3091.47
5287.8
2909.06
4513.36
2739.06
4073.61
2634.51
12845.4
3679.04
14742.8
3556.19
3435.33
9984.77
3587.91
12021.8
3690.94
15512.7
3741.1
23508.1
3711.18
3410.1
9105.99
3516.39
9484.02
3527.2
9809.01
3510.42
10390.6
3422.97
3332.53
7579.74
3291.99
6556.8
3165.79
5916.13
3077
5541.77
2967.03
23830.1
3653.17
3497.29
10756.2
3715.22
15907.7
3835.82
29106.6
3901.7
123419
3921.68
3440.83
9988.54
3637.57
12826.3
3724.66
17306.8
3770.79
29114.3
3749.04
3366.7
8187.82
3391.1
7673.56
3323
7224.62
3322.02
7184.67
3256
3503.06
11552.4
3749.62
17798.7
3819.35
30187.5
3822.32
78474.8
3460.25
9736.5
3632.35
11282.8
3650.61
12438.5
3592.64
3356.92
7964.1
3386.22
7482.22
3329.24
7015.15
)
;

boundaryField
{
    inlet
    {
        type            zeroGradient;
    }
    outlet
    {
        type            zeroGradient;
    }
    wall
    {
        type            zeroGradient;
    }
    procBoundary2to0
    {
        type            processor;
        value           uniform 0;
    }
    procBoundary2to3
    {
        type            processor;
        value           uniform 0;
    }
    procBoundary2to6
    {
        type            processor;
        value           uniform 0;
    }
}


// ************************************************************************* //
