/*--------------------------------*- C++ -*----------------------------------*\
| =========                 |                                                 |
| \\      /  F ield         | OpenFOAM: The Open Source CFD Toolbox           |
|  \\    /   O peration     | Version:  4.x                                   |
|   \\  /    A nd           | Web:      www.OpenFOAM.org                      |
|    \\/     M anipulation  |                                                 |
\*---------------------------------------------------------------------------*/
FoamFile
{
    version     2.0;
    format      ascii;
    class       volScalarField;
    location    "45.5";
    object      magGField;
}
// * * * * * * * * * * * * * * * * * * * * * * * * * * * * * * * * * * * * * //

dimensions      [1 -2 -1 0 0 0 0];

internalField   nonuniform List<scalar> 
114
(
55.454
111.89
64.1019
117.35
69.7621
122.729
99.2817
41.8347
103.7
49.5808
107.056
54.3383
109.901
56.2528
112.426
100.004
44.6534
106.151
55.7696
111.912
63.5706
116.747
68.634
121.343
100.325
49.0344
109.38
64.2259
118.775
76.6947
127.267
85.5715
133.297
27.2527
96.013
23.6584
98.2094
97.8593
34.089
96.7975
28.8809
95.1575
22.4426
93.831
14.7685
93.9427
98.0602
37.1282
98.4565
36.4568
99.1138
35.545
100.212
33.5469
102.356
98.6347
43.874
103.269
51.7227
108.01
58.0627
112.359
62.1481
116.419
14.1943
92.6012
95.6376
31.4568
92.4972
21.4935
89.7598
11.6918
87.6248
2.74023
86.4708
96.5559
33.6133
94.2371
26.5606
92.3462
19.6781
91.1543
11.6722
91.056
97.3368
40.2494
99.1714
43.717
101.445
46.6149
102.224
46.9958
103.862
95.0031
29.0452
90.6807
18.9207
88.6247
11.0615
87.741
4.19907
95.0386
34.1569
93.3078
29.7964
92.8916
26.8865
93.6271
96.5483
40.9692
98.4542
44.2472
100.599
47.1868
)
;

boundaryField
{
    inlet
    {
        type            calculated;
        value           uniform 67;
    }
    outlet
    {
        type            calculated;
        value           nonuniform 0();
    }
    wall
    {
        type            calculated;
        value           uniform 0;
    }
    procBoundary2to0
    {
        type            processor;
        value           nonuniform List<scalar> 
44
(
54.391
111.337
61.6233
115.771
65.7468
117.634
100.965
44.9788
106.853
106.853
32.3608
96.1952
24.4519
94.7653
16.5116
94.8906
97.1057
35.0668
97.4665
32.3608
96.1952
96.1952
16.4658
91.5189
12.5166
91.2346
95.1184
30.6194
92.5758
22.0199
91.0748
16.4658
91.5189
91.5189
7.27954
88.2983
95.2214
30.021
90.9274
18.8761
89.3344
11.6356
88.6288
7.27954
)
;
    }
    procBoundary2to3
    {
        type            processor;
        value           nonuniform List<scalar> 
12
(
72.5258
54.7779
71.6236
90.9831
21.1477
7.50914
31.4646
63.9855
11.414
3.78999e-05
4.96718
44.6703
)
;
    }
    procBoundary2to6
    {
        type            processor;
        value           nonuniform List<scalar> 
32
(
87.7076
25.75
95.7398
103.127
49.7191
105.772
92.0817
26.5152
87.1403
12.1305
83.5176
2.24288
82.0272
87.7076
25.75
3.64731e-05
94.3927
30.7243
90.9413
21.2141
88.2858
12.7071
25.75
103.127
86.7726
96.2054
39.8913
96.7032
40.9895
96.1206
103.127
39.2731
)
;
    }
}


// ************************************************************************* //
