/*--------------------------------*- C++ -*----------------------------------*\
| =========                 |                                                 |
| \\      /  F ield         | OpenFOAM: The Open Source CFD Toolbox           |
|  \\    /   O peration     | Version:  4.x                                   |
|   \\  /    A nd           | Web:      www.OpenFOAM.org                      |
|    \\/     M anipulation  |                                                 |
\*---------------------------------------------------------------------------*/
FoamFile
{
    version     2.0;
    format      ascii;
    class       volScalarField;
    location    "45.5";
    object      p;
}
// * * * * * * * * * * * * * * * * * * * * * * * * * * * * * * * * * * * * * //

dimensions      [1 -1 -2 0 0 0 0];

internalField   nonuniform List<scalar> 
114
(
5707.74
5728.4
5689.37
5721.36
5670.66
5714.65
5742.52
5725.53
5735.8
5707.94
5728.84
5689.79
5721.86
5671.26
5715.09
5742.11
5725.31
5735.41
5707.7
5728.47
5689.59
5721.55
5671.12
5714.75
5741.82
5725.21
5735.19
5707.66
5728.31
5689.7
5721.47
5671.4
5714.72
3811.66
3844.06
3792.76
3837.14
3865.48
3848.14
3858.73
3830.3
3851.67
3812.04
3844.6
3793.33
3837.65
3865.03
3847.84
3858.19
3829.93
3851.07
3811.66
3843.97
3792.98
3837.08
3864.59
3847.65
3857.83
3829.87
3850.81
3811.76
3843.83
3793.27
3837.01
1915.43
1959.21
1988.4
1970.72
1981.48
1953.03
1974.17
1935.02
1966.75
1916.72
1959.38
1987.98
1970.56
1981.13
1952.7
1973.86
1934.56
1966.67
1916.11
1959.55
1987.5
1970.27
1980.6
1952.53
1973.43
1934.62
1966.31
1916.19
1959.4
111.14
93.3249
104.004
75.2632
96.5599
57.0511
89.1116
38.7676
110.538
92.8798
103.37
74.8374
95.9192
56.4775
88.4827
109.999
92.6323
102.947
74.7399
95.6171
56.4931
)
;

boundaryField
{
    inlet
    {
        type            calculated;
        value           nonuniform List<scalar> 
12
(
5742.52
5742.11
5741.82
3865.48
3865.03
3864.59
1988.4
1987.98
1987.5
111.14
110.538
109.999
)
;
    }
    outlet
    {
        type            calculated;
        value           nonuniform 0();
    }
    wall
    {
        type            calculated;
        value           nonuniform List<scalar> 
66
(
6681.48
6681.06
6680.78
6664.49
6664.27
6664.16
6674.76
6674.37
6674.15
6646.7
6646.9
6646.65
6646.61
6667.36
6667.8
6667.43
6667.27
6628.32
6628.75
6628.55
6628.66
6660.32
6660.82
6660.5
6660.43
6609.62
6610.21
6610.08
6610.36
6653.61
6654.04
6653.71
6653.68
5741.82
3864.59
1987.5
109.999
5725.21
3847.65
1970.27
92.6323
5735.19
3857.83
1980.6
102.947
5707.66
3829.87
1952.53
74.7399
5728.31
3850.81
1973.43
95.6171
5689.7
3811.76
1934.62
56.4931
5721.47
3843.83
1966.31
5671.4
3793.27
1916.19
5714.72
3837.01
1959.4
)
;
    }
    procBoundary2to0
    {
        type            processor;
        value           nonuniform List<scalar> 
44
(
5707.79
5728.51
5689.53
5721.6
5671.3
5714.94
5742.35
5725.44
5735.56
5735.56
3830.17
3851.35
3811.96
3844.49
3793.46
3837.65
3865.41
3847.92
3858.5
3830.17
3851.35
3851.35
1934.14
1966.31
1915.79
1959.34
1988.35
1970.61
1981.27
1952.65
1973.78
1934.14
1966.31
1966.31
38.4473
81.6558
111.027
93.3075
103.938
75.1871
96.3468
56.9345
88.7796
38.4473
)
;
    }
    procBoundary2to3
    {
        type            processor;
        value           nonuniform List<scalar> 
12
(
5651.68
5652.9
5652.1
5652.61
3773.72
3774.92
3773.99
3774.42
1896.77
1898.86
1897.53
1897.65
)
;
    }
    procBoundary2to6
    {
        type            processor;
        value           nonuniform List<scalar> 
32
(
81.8166
37.7574
81.3131
88.3336
38.0583
81.3392
-1766.16
-1784.38
-1773.48
-1801.93
-1781.2
-1819.96
-1789.08
81.8166
37.7574
-1837.77
-1766.76
-1784.61
-1773.9
-1802.4
-1781.36
-1820.63
37.7574
88.3336
-1788.83
-1767.38
-1784.89
-1774.47
-1802.51
-1781.77
88.3336
-1820.7
)
;
    }
}


// ************************************************************************* //
