/*--------------------------------*- C++ -*----------------------------------*\
| =========                 |                                                 |
| \\      /  F ield         | OpenFOAM: The Open Source CFD Toolbox           |
|  \\    /   O peration     | Version:  4.x                                   |
|   \\  /    A nd           | Web:      www.OpenFOAM.org                      |
|    \\/     M anipulation  |                                                 |
\*---------------------------------------------------------------------------*/
FoamFile
{
    version     2.0;
    format      ascii;
    class       volScalarField;
    location    "45.5";
    object      Qsource;
}
// * * * * * * * * * * * * * * * * * * * * * * * * * * * * * * * * * * * * * //

dimensions      [1 -1 -3 0 0 0 0];

internalField   nonuniform List<scalar> 
114
(
7.6673e+09
6.52629e+09
3.65005e+09
6.94009e+09
4.27601e+09
5.60381e+09
6.66385e+09
7.35559e+09
7.01058e+09
4.86252e+09
8.2378e+09
5.51414e+09
7.9174e+09
7.24958e+09
5.40797e+09
4.7317e+09
6.61403e+09
5.99018e+09
5.92727e+09
6.74466e+09
5.83861e+09
7.76713e+09
6.03217e+09
7.50796e+09
5.69647e+09
4.97016e+09
6.9929e+09
5.73873e+09
5.91517e+09
5.4757e+09
5.1285e+09
6.84708e+09
6.12725e+09
9.84892e+09
1.23051e+10
6.61272e+09
1.12291e+10
4.73247e+09
7.93569e+09
9.59245e+09
9.17226e+09
8.88149e+09
6.98221e+09
1.11495e+10
8.69343e+09
6.40565e+09
5.86075e+09
1.00138e+10
1.06622e+10
9.18536e+09
9.42298e+09
8.87297e+09
9.17318e+09
8.90341e+09
7.69334e+09
5.90795e+09
5.82168e+09
9.23363e+09
6.53086e+09
8.5067e+09
7.08419e+09
7.65566e+09
7.6851e+09
5.78381e+09
8.06878e+09
9.29699e+09
6.86099e+09
5.73645e+09
6.74682e+09
6.86034e+09
6.75705e+09
7.67564e+09
9.819e+09
7.20008e+09
5.73728e+09
4.99166e+09
6.95316e+09
9.08982e+09
1.04719e+10
9.18056e+09
7.01075e+09
9.47043e+09
8.47935e+09
1.02327e+10
5.8438e+09
8.01275e+09
7.82944e+09
7.92753e+09
5.64339e+09
7.29959e+09
1.05645e+10
5.81204e+09
8.61824e+09
4.89894e+09
9.48524e+09
1.03019e+10
7.15676e+09
8.24193e+09
6.27619e+09
7.58926e+09
7.49736e+09
5.87228e+09
7.91197e+09
1.0529e+10
6.61821e+09
9.1261e+09
7.71587e+09
1.03161e+10
5.08838e+09
6.72183e+09
8.35618e+09
7.69664e+09
7.61283e+09
6.96942e+09
)
;

boundaryField
{
    inlet
    {
        type            calculated;
        value           uniform 0;
    }
    outlet
    {
        type            calculated;
        value           nonuniform 0();
    }
    wall
    {
        type            calculated;
        value           uniform 0;
    }
    procBoundary2to0
    {
        type            processor;
        value           nonuniform List<scalar> 
44
(
5.58697e+09
6.49359e+09
5.46718e+09
4.93866e+09
5.77951e+09
9.476e+09
3.83823e+09
4.98281e+09
4.40807e+09
4.40807e+09
5.51158e+09
1.13195e+10
6.73798e+09
1.05157e+10
6.89214e+09
6.34577e+09
7.96441e+09
7.03674e+09
7.79716e+09
5.51158e+09
1.13195e+10
1.13195e+10
8.03973e+09
8.77902e+09
6.45044e+09
5.39608e+09
6.90607e+09
8.67106e+09
9.57666e+09
9.00198e+09
9.97728e+09
8.03973e+09
8.77902e+09
8.77902e+09
5.54138e+09
2.61802e+09
4.82802e+09
6.73041e+09
9.83121e+09
1.02228e+10
5.51009e+09
9.80568e+09
8.55982e+09
5.54138e+09
)
;
    }
    procBoundary2to3
    {
        type            processor;
        value           nonuniform List<scalar> 
12
(
9.15031e+09
6.71576e+09
7.29205e+09
5.92007e+09
8.55749e+09
7.60734e+09
1.27417e+10
9.02521e+09
8.25217e+09
9.55239e+09
6.03643e+09
9.20833e+09
)
;
    }
    procBoundary2to6
    {
        type            processor;
        value           nonuniform List<scalar> 
32
(
8.11378e+09
6.80732e+09
8.97053e+09
6.57711e+09
6.72121e+09
6.51829e+09
9.95321e+09
8.95455e+09
6.08435e+09
7.99357e+09
1.10698e+10
6.08808e+09
8.70331e+09
8.11378e+09
6.80732e+09
6.66596e+09
6.30336e+09
9.21715e+09
8.17777e+09
1.02187e+10
8.85353e+09
8.73501e+09
6.80732e+09
6.57711e+09
8.75201e+09
5.50564e+09
7.9925e+09
6.79123e+09
6.56301e+09
9.53318e+09
6.57711e+09
9.86798e+09
)
;
    }
}


// ************************************************************************* //
