/*--------------------------------*- C++ -*----------------------------------*\
| =========                 |                                                 |
| \\      /  F ield         | OpenFOAM: The Open Source CFD Toolbox           |
|  \\    /   O peration     | Version:  4.x                                   |
|   \\  /    A nd           | Web:      www.OpenFOAM.org                      |
|    \\/     M anipulation  |                                                 |
\*---------------------------------------------------------------------------*/
FoamFile
{
    version     2.0;
    format      ascii;
    class       volVectorField;
    location    "45.5";
    object      UsPrev;
}
// * * * * * * * * * * * * * * * * * * * * * * * * * * * * * * * * * * * * * //

dimensions      [0 1 -1 0 0 0 0];

internalField   nonuniform List<vector> 
114
(
(1.8126e-10 -1.49417e-10 4.50742e-10)
(4.71885e-10 -4.21417e-11 6.70803e-10)
(8.6795e-10 -2.62256e-10 6.60576e-10)
(1.30653e-09 -3.82318e-10 9.07257e-10)
(2.06868e-09 -1.53956e-09 1.54065e-09)
(2.39845e-09 -2.34181e-09 1.74629e-09)
(1.87272e-09 -9.49239e-10 6.04074e-11)
(1.63626e-10 -2.87168e-10 1.9097e-10)
(2.6729e-10 -3.54624e-10 3.3847e-10)
(2.4026e-10 -3.37055e-10 4.06752e-10)
(4.08394e-10 -5.08351e-10 4.32676e-10)
(8.03129e-10 -5.50482e-10 4.01101e-10)
(1.25144e-09 -9.61625e-10 6.52036e-10)
(1.44662e-09 -1.28944e-09 8.53312e-10)
(1.65281e-09 -1.72931e-09 1.18799e-09)
(1.24464e-10 -1.11514e-10 1.45891e-10)
(7.15032e-11 -1.31626e-10 1.31651e-10)
(2.8368e-10 -1.08121e-10 4.37658e-10)
(3.37006e-10 -2.44395e-10 4.0674e-10)
(4.75615e-10 -4.0965e-10 4.81613e-10)
(6.75774e-10 -5.78604e-10 3.17452e-10)
(1.09301e-09 -4.7735e-10 5.50002e-10)
(1.11541e-09 -1.02427e-09 6.04475e-10)
(1.18845e-09 -1.25531e-09 8.89054e-10)
(3.02866e-10 -9.11469e-11 1.41617e-10)
(-1.02937e-10 -9.44016e-11 1.43141e-10)
(1.34508e-10 -6.6812e-11 5.90844e-10)
(-3.11526e-10 3.97755e-11 2.21629e-10)
(4.31515e-10 -5.50202e-10 2.57665e-11)
(4.66781e-10 -2.57334e-10 -7.03999e-11)
(6.34505e-10 -4.84103e-10 3.07687e-10)
(8.19127e-10 -9.58842e-10 4.94738e-10)
(8.08577e-10 -8.23455e-10 4.99179e-10)
(5.78844e-10 -1.02333e-10 7.41469e-10)
(9.1101e-10 -1.41151e-10 1.01427e-09)
(1.54162e-09 -8.25636e-10 1.36145e-09)
(1.93434e-09 -1.22546e-09 1.68497e-09)
(3.15662e-11 -1.94585e-10 8.18811e-11)
(4.3402e-11 -2.65154e-10 1.57233e-10)
(5.02897e-11 -2.27176e-10 2.69977e-10)
(6.24719e-11 -2.25526e-10 3.9757e-10)
(1.24805e-10 -3.61272e-10 4.60001e-10)
(4.35473e-10 -3.38475e-10 3.28896e-10)
(8.29968e-10 -4.30596e-10 6.11344e-10)
(1.1331e-09 -7.31794e-10 7.06911e-10)
(1.70342e-09 -1.12951e-09 9.42262e-10)
(4.16707e-11 -8.93735e-11 5.83185e-11)
(7.01188e-11 -1.04056e-10 7.22521e-11)
(9.71401e-11 -1.80185e-10 2.00532e-10)
(1.19037e-10 -1.75733e-10 2.89108e-10)
(2.00731e-10 -2.94904e-10 1.63186e-10)
(3.71108e-10 -3.90031e-10 2.61426e-10)
(5.5529e-10 -4.67635e-10 3.49694e-10)
(6.77816e-10 -6.26452e-10 4.49205e-10)
(9.72744e-10 -9.44335e-10 4.91096e-10)
(2.96263e-11 -5.0968e-11 3.33134e-11)
(3.86742e-11 -8.47058e-11 3.49146e-11)
(9.20635e-11 -1.33849e-10 2.2503e-11)
(1.62249e-10 -8.33955e-11 4.71942e-11)
(2.86039e-10 -1.84487e-10 -2.11832e-10)
(2.38525e-10 -2.54497e-10 6.3624e-11)
(3.45169e-10 -3.1511e-10 1.47232e-10)
(3.64967e-10 -3.51217e-10 7.18683e-11)
(2.73045e-10 -3.81197e-10 1.62575e-10)
(1.42951e-09 -2.15781e-11 1.33964e-09)
(1.73545e-09 -1.87579e-10 1.65818e-09)
(5.40436e-11 -2.09128e-10 1.52954e-10)
(-1.65232e-11 -2.67691e-10 3.27609e-10)
(2.86959e-11 -2.39789e-10 3.92493e-10)
(-2.70484e-11 -2.48876e-10 5.47754e-10)
(3.57001e-11 -3.60835e-10 6.4397e-10)
(3.21446e-10 -1.82931e-10 5.45736e-10)
(5.81446e-10 -2.73352e-10 7.29084e-10)
(9.78443e-10 -1.96514e-10 7.2973e-10)
(1.16708e-09 -5.08704e-10 6.86803e-10)
(1.84347e-11 -6.52525e-11 9.39982e-11)
(-1.15309e-10 -1.72582e-10 3.254e-10)
(-1.46152e-10 -1.13887e-10 3.64859e-10)
(-1.55523e-10 -8.73339e-11 4.51213e-10)
(-7.80438e-11 -2.2134e-10 4.57252e-10)
(1.17326e-10 -2.56863e-10 3.73109e-10)
(2.4373e-10 -4.18055e-10 5.33038e-10)
(4.60574e-10 -2.33456e-10 6.28556e-10)
(8.54386e-10 -7.26e-10 3.47754e-10)
(3.6225e-11 -8.72424e-11 7.62277e-11)
(-4.68165e-11 -8.77514e-11 1.31653e-10)
(-1.02467e-10 -1.31138e-10 1.13472e-10)
(-1.6672e-10 -1.63543e-10 1.52138e-10)
(1.33445e-10 -1.53017e-10 1.24193e-10)
(6.45548e-11 -1.78082e-10 1.75826e-10)
(1.60499e-10 -1.8357e-10 2.58442e-10)
(1.84963e-10 -2.89333e-10 2.78471e-10)
(4.57571e-10 -3.84173e-10 2.78789e-10)
(5.8297e-11 -1.27298e-10 1.2341e-10)
(1.69019e-10 -2.79349e-10 3.00033e-10)
(2.79308e-10 -3.32461e-10 4.25073e-10)
(3.35031e-10 -2.44059e-10 4.57604e-10)
(4.60184e-10 -1.45346e-10 6.2668e-10)
(9.27756e-10 -1.26497e-10 5.31002e-10)
(1.14954e-09 1.12445e-11 7.16828e-10)
(1.88941e-09 -7.84441e-11 6.62269e-10)
(7.43048e-12 -2.84414e-11 6.53284e-11)
(1.08605e-10 -1.87629e-10 3.051e-10)
(1.18671e-10 -1.61128e-10 3.42719e-10)
(2.01792e-10 -1.41153e-10 3.82434e-10)
(2.59285e-10 -2.61922e-10 4.39536e-10)
(4.74886e-10 -1.19707e-10 4.46822e-10)
(6.31448e-10 -1.5477e-10 5.85597e-10)
(1.4783e-12 -8.52848e-11 6.14944e-11)
(-2.48695e-11 -9.40721e-11 1.24154e-10)
(-4.77994e-11 -1.05573e-10 2.10492e-10)
(-2.42875e-11 -1.45635e-10 1.61085e-10)
(1.3977e-10 -1.66729e-10 2.25841e-10)
(1.60186e-10 -1.32214e-10 1.96329e-10)
)
;

boundaryField
{
    inlet
    {
        type            calculated;
        value           uniform (0 0 0);
    }
    outlet
    {
        type            calculated;
        value           nonuniform 0();
    }
    wall
    {
        type            calculated;
        value           uniform (0 0 0);
    }
    procBoundary2to0
    {
        type            processor;
        value           uniform (0 0 0);
    }
    procBoundary2to3
    {
        type            processor;
        value           uniform (0 0 0);
    }
    procBoundary2to6
    {
        type            processor;
        value           uniform (0 0 0);
    }
}


// ************************************************************************* //
