/*--------------------------------*- C++ -*----------------------------------*\
| =========                 |                                                 |
| \\      /  F ield         | OpenFOAM: The Open Source CFD Toolbox           |
|  \\    /   O peration     | Version:  4.x                                   |
|   \\  /    A nd           | Web:      www.OpenFOAM.org                      |
|    \\/     M anipulation  |                                                 |
\*---------------------------------------------------------------------------*/
FoamFile
{
    version     2.0;
    format      ascii;
    class       volVectorField;
    location    "22.5";
    object      impParticleForces;
}
// * * * * * * * * * * * * * * * * * * * * * * * * * * * * * * * * * * * * * //

dimensions      [1 1 -2 0 0 0 0];

internalField   nonuniform List<vector> 
108
(
(0.0022803 -2.83706e-05 -6.18667e-05)
(0.00230908 -2.918e-05 -6.21337e-05)
(0.00236513 -2.99012e-05 -6.16026e-05)
(0.00237363 -2.76779e-05 -5.88503e-05)
(0.00240258 -2.55029e-05 -5.54133e-05)
(0.00238499 -2.16261e-05 -5.03952e-05)
(0.00240983 -1.88381e-05 -4.48913e-05)
(0.00237736 -1.47602e-05 -3.76185e-05)
(0.00239181 -1.19853e-05 -2.97918e-05)
(0.00232871 -2.66452e-05 -6.29538e-05)
(0.00236542 -2.78325e-05 -6.32443e-05)
(0.00242638 -2.89235e-05 -6.28099e-05)
(0.00242979 -2.64325e-05 -5.99744e-05)
(0.00244593 -2.39259e-05 -5.60058e-05)
(0.00241837 -1.9874e-05 -5.05341e-05)
(0.00243227 -1.70481e-05 -4.47796e-05)
(0.0023922 -1.30912e-05 -3.72599e-05)
(0.00242116 -1.08318e-05 -2.96041e-05)
(0.00235013 -1.89195e-05 -6.35425e-05)
(0.00239873 -2.01786e-05 -6.42518e-05)
(0.00244143 -2.03344e-05 -6.29956e-05)
(0.00243426 -1.82326e-05 -5.97337e-05)
(0.00244457 -1.6268e-05 -5.52895e-05)
(0.00240959 -1.30704e-05 -4.95749e-05)
(0.00241888 -1.06902e-05 -4.35481e-05)
(0.00238842 -8.07136e-06 -3.63662e-05)
(0.00238506 -5.67788e-06 -2.82304e-05)
(0.00233858 -6.54585e-06 -6.31985e-05)
(0.00239087 -6.90972e-06 -6.35992e-05)
(0.00244127 -6.47748e-06 -6.27214e-05)
(0.00242232 -5.60104e-06 -5.92238e-05)
(0.00244179 -4.75666e-06 -5.51565e-05)
(0.00240889 -3.26335e-06 -4.9601e-05)
(0.00242674 -1.88411e-06 -4.37125e-05)
(0.0023662 -3.35625e-07 -3.63167e-05)
(0.00236766 1.25031e-06 -2.87457e-05)
(0.00226546 -2.81216e-05 -5.06053e-05)
(0.00229193 -2.87639e-05 -5.01932e-05)
(0.00234257 -2.91251e-05 -4.88677e-05)
(0.00236214 -2.74432e-05 -4.71005e-05)
(0.00239355 -2.5606e-05 -4.40425e-05)
(0.00236354 -2.1865e-05 -4.02271e-05)
(0.00238199 -1.95569e-05 -3.50204e-05)
(0.00237289 -1.70766e-05 -2.93487e-05)
(0.00239046 -1.56517e-05 -2.2395e-05)
(0.00231498 -2.65765e-05 -5.03698e-05)
(0.00234428 -2.72927e-05 -4.99408e-05)
(0.0023944 -2.77125e-05 -4.82837e-05)
(0.00239623 -2.53821e-05 -4.67245e-05)
(0.00242002 -2.33569e-05 -4.33534e-05)
(0.00239307 -1.97762e-05 -3.95877e-05)
(0.00241039 -1.76061e-05 -3.43942e-05)
(0.00239258 -1.5176e-05 -2.86785e-05)
(0.00241192 -1.40206e-05 -2.17848e-05)
(0.0023225 -1.84384e-05 -5.03618e-05)
(0.00236693 -1.95309e-05 -4.97304e-05)
(0.00242526 -2.0237e-05 -4.75526e-05)
(0.00241397 -1.80451e-05 -4.57649e-05)
(0.0024356 -1.65006e-05 -4.22628e-05)
(0.00240105 -1.36571e-05 -3.8493e-05)
(0.0024042 -1.16775e-05 -3.34452e-05)
(0.00237066 -9.70075e-06 -2.80682e-05)
(0.00238217 -8.74005e-06 -2.14733e-05)
(0.00233841 -6.71944e-06 -5.0225e-05)
(0.00237864 -6.84032e-06 -4.95184e-05)
(0.0024166 -6.58383e-06 -4.77042e-05)
(0.0024157 -5.73135e-06 -4.55069e-05)
(0.0024363 -5.16062e-06 -4.19224e-05)
(0.00239953 -3.96734e-06 -3.83084e-05)
(0.00241348 -3.0326e-06 -3.31444e-05)
(0.00235748 -1.991e-06 -2.84085e-05)
(0.00235687 -1.27712e-06 -2.24904e-05)
(0.00224379 -2.72283e-05 -4.48641e-05)
(0.00225795 -2.74098e-05 -4.42006e-05)
(0.00228483 -2.69317e-05 -4.29713e-05)
(0.00230408 -2.52796e-05 -4.13861e-05)
(0.00234466 -2.378e-05 -3.86637e-05)
(0.00234362 -2.1232e-05 -3.5161e-05)
(0.00236202 -1.92366e-05 -3.04899e-05)
(0.00234307 -1.72891e-05 -2.5348e-05)
(0.00234999 -1.63151e-05 -1.94335e-05)
(0.00227759 -2.50987e-05 -4.43927e-05)
(0.00230823 -2.58866e-05 -4.34213e-05)
(0.00234573 -2.58054e-05 -4.18145e-05)
(0.0023424 -2.33834e-05 -4.0418e-05)
(0.00237503 -2.17665e-05 -3.75205e-05)
(0.00236369 -1.90689e-05 -3.41685e-05)
(0.00236892 -1.70366e-05 -2.96284e-05)
(0.00235019 -1.52761e-05 -2.47495e-05)
(0.00235657 -1.45767e-05 -1.89885e-05)
(0.00229713 -1.77486e-05 -4.40364e-05)
(0.00232221 -1.82367e-05 -4.30074e-05)
(0.00236663 -1.85645e-05 -4.10991e-05)
(0.0023596 -1.66893e-05 -3.95265e-05)
(0.00238497 -1.54352e-05 -3.65545e-05)
(0.00236379 -1.31968e-05 -3.33287e-05)
(0.00236394 -1.16013e-05 -2.90708e-05)
(0.00234135 -1.03705e-05 -2.44812e-05)
(0.00233619 -9.69387e-06 -1.90901e-05)
(0.00231653 -6.64297e-06 -4.35885e-05)
(0.00232687 -6.45364e-06 -4.28108e-05)
(0.00236736 -6.43054e-06 -4.09568e-05)
(0.00236974 -5.94109e-06 -3.90967e-05)
(0.00239326 -5.31592e-06 -3.60505e-05)
(0.00236703 -4.31528e-06 -3.2994e-05)
(0.0023496 -3.41856e-06 -2.91577e-05)
(0.00232139 -2.79377e-06 -2.49276e-05)
(0.00232052 -2.41888e-06 -1.99177e-05)
)
;

boundaryField
{
    inlet
    {
        type            zeroGradient;
    }
    outlet
    {
        type            zeroGradient;
    }
    wall
    {
        type            zeroGradient;
    }
    procBoundary4to0
    {
        type            processor;
        value           nonuniform List<vector> 
36
(
(0.00228452 -2.77246e-05 -7.46402e-05)
(0.00231674 -2.86179e-05 -7.55004e-05)
(0.00237278 -2.91503e-05 -7.55347e-05)
(0.00237273 -2.64883e-05 -7.13065e-05)
(0.00240846 -2.42716e-05 -6.74233e-05)
(0.00240868 -2.04909e-05 -6.16596e-05)
(0.00242368 -1.66133e-05 -5.50946e-05)
(0.00239145 -1.11661e-05 -4.6669e-05)
(0.00240575 -6.38765e-06 -3.81265e-05)
(0.00232859 -2.58666e-05 -7.69014e-05)
(0.002382 -2.76867e-05 -7.88207e-05)
(0.00243206 -2.81108e-05 -7.84316e-05)
(0.00243288 -2.5411e-05 -7.41027e-05)
(0.00244898 -2.27001e-05 -6.91097e-05)
(0.00243543 -1.86904e-05 -6.24236e-05)
(0.00246666 -1.56866e-05 -5.62723e-05)
(0.00242016 -1.04796e-05 -4.71759e-05)
(0.00243075 -6.33375e-06 -3.81866e-05)
(0.00234881 -1.83506e-05 -7.79941e-05)
(0.00238599 -1.90409e-05 -7.90983e-05)
(0.00244926 -1.96467e-05 -7.93711e-05)
(0.00243719 -1.73048e-05 -7.43492e-05)
(0.00246033 -1.5545e-05 -6.94532e-05)
(0.00244074 -1.23329e-05 -6.2292e-05)
(0.00245154 -9.48244e-06 -5.5114e-05)
(0.002396 -5.63963e-06 -4.56368e-05)
(0.00240796 -2.73893e-06 -3.65491e-05)
(0.00234771 -6.50913e-06 -7.79227e-05)
(0.00239477 -6.44757e-06 -7.96544e-05)
(0.00245865 -6.14542e-06 -7.99741e-05)
(0.00245153 -4.89223e-06 -7.53068e-05)
(0.00245037 -3.78012e-06 -6.93071e-05)
(0.0024388 -2.30768e-06 -6.25072e-05)
(0.00244336 -6.59405e-07 -5.51156e-05)
(0.00238563 1.34931e-06 -4.55757e-05)
(0.0023745 3.44579e-06 -3.6292e-05)
)
;
    }
    procBoundary4to5
    {
        type            processor;
        value           nonuniform List<vector> 
12
(
(0.00236622 -9.05568e-06 -2.13795e-05)
(0.00238854 -7.99036e-06 -2.08796e-05)
(0.00236204 -3.69246e-06 -2.00992e-05)
(0.00235091 2.39184e-06 -2.10454e-05)
(0.00235839 -1.41576e-05 -1.58327e-05)
(0.00236914 -1.24196e-05 -1.54107e-05)
(0.00234808 -7.73107e-06 -1.53633e-05)
(0.00233049 -7.28112e-07 -1.66679e-05)
(0.00230417 -1.53327e-05 -1.36682e-05)
(0.00233422 -1.42938e-05 -1.3378e-05)
(0.00231174 -9.51446e-06 -1.37957e-05)
(0.00229892 -2.3149e-06 -1.48637e-05)
)
;
    }
    procBoundary4to6
    {
        type            processor;
        value           nonuniform List<vector> 
27
(
(0.00237322 6.65776e-06 -6.38178e-05)
(0.00240047 7.03431e-06 -6.37233e-05)
(0.00242266 7.62215e-06 -6.23931e-05)
(0.0024199 7.39592e-06 -5.93543e-05)
(0.00244303 7.62254e-06 -5.58769e-05)
(0.00240215 7.14922e-06 -5.00282e-05)
(0.00241581 7.51193e-06 -4.4506e-05)
(0.00237014 7.54079e-06 -3.75915e-05)
(0.00238403 8.19244e-06 -3.06149e-05)
(0.0023471 6.31523e-06 -4.9874e-05)
(0.00237812 7.0225e-06 -4.93905e-05)
(0.00241494 7.60754e-06 -4.76744e-05)
(0.00240174 7.08309e-06 -4.58698e-05)
(0.00240977 6.91729e-06 -4.27579e-05)
(0.00239067 6.53552e-06 -3.91147e-05)
(0.00240435 6.79852e-06 -3.43064e-05)
(0.00235369 6.4025e-06 -2.97922e-05)
(0.00236945 6.78453e-06 -2.43837e-05)
(0.00230266 5.5089e-06 -4.3585e-05)
(0.00231597 5.80944e-06 -4.29999e-05)
(0.00236336 6.40135e-06 -4.12591e-05)
(0.00235443 5.90054e-06 -3.97303e-05)
(0.0023663 5.75328e-06 -3.70684e-05)
(0.00235382 5.53115e-06 -3.40271e-05)
(0.00237613 5.66794e-06 -2.99736e-05)
(0.00233081 5.39827e-06 -2.61447e-05)
(0.00232513 5.57295e-06 -2.16731e-05)
)
;
    }
}


// ************************************************************************* //
