/*--------------------------------*- C++ -*----------------------------------*\
| =========                 |                                                 |
| \\      /  F ield         | OpenFOAM: The Open Source CFD Toolbox           |
|  \\    /   O peration     | Version:  4.x                                   |
|   \\  /    A nd           | Web:      www.OpenFOAM.org                      |
|    \\/     M anipulation  |                                                 |
\*---------------------------------------------------------------------------*/
FoamFile
{
    version     2.0;
    format      ascii;
    class       volScalarField;
    location    "22.5";
    object      QWallFluid;
}
// * * * * * * * * * * * * * * * * * * * * * * * * * * * * * * * * * * * * * //

dimensions      [1 -1 -3 0 0 0 0];

internalField   nonuniform List<scalar> 
108
(
8.08355e+08
4.35425e+08
8.14893e+08
4.50553e+08
8.22894e+08
4.57487e+08
8.27452e+08
4.51372e+08
8.29514e+08
0
0
0
0
0
0
0
0
0
0
0
0
0
0
0
0
0
0
0
0
0
0
0
0
0
0
0
8.05212e+08
4.47656e+08
8.19613e+08
4.70674e+08
8.31876e+08
4.93992e+08
8.48492e+08
5.01901e+08
8.5732e+08
0
0
0
0
0
0
0
0
0
0
0
0
0
0
0
0
0
0
0
0
0
0
0
0
0
0
0
1.61922e+09
9.51047e+08
1.6907e+09
1.07161e+09
1.73497e+09
1.13418e+09
1.76418e+09
1.18475e+09
1.81231e+09
8.0446e+08
4.42345e+08
8.16454e+08
4.73621e+08
8.30081e+08
4.92711e+08
8.40208e+08
5.07026e+08
8.52516e+08
7.9619e+08
4.2378e+08
7.96871e+08
4.28417e+08
8.0429e+08
4.36666e+08
8.14046e+08
4.46219e+08
8.24314e+08
7.88373e+08
4.10037e+08
7.86263e+08
3.91988e+08
7.83756e+08
3.8512e+08
7.90266e+08
3.93353e+08
7.94315e+08
)
;

boundaryField
{
    inlet
    {
        type            calculated;
        value           uniform 0;
    }
    outlet
    {
        type            calculated;
        value           nonuniform 0();
    }
    wall
    {
        type            calculated;
        value           uniform 0;
    }
    procBoundary4to0
    {
        type            processor;
        value           nonuniform List<scalar> 
36
(
8.12107e+08
4.43055e+08
8.29245e+08
4.74754e+08
8.4593e+08
4.9436e+08
8.62968e+08
5.11505e+08
8.80774e+08
0
0
0
0
0
0
0
0
0
0
0
0
0
0
0
0
0
0
0
0
0
0
0
0
0
0
0
)
;
    }
    procBoundary4to5
    {
        type            processor;
        value           nonuniform List<scalar> 
12
(
4.29217e+08
0
0
0
5.04681e+08
0
0
0
1.24838e+09
5.18492e+08
4.45638e+08
3.86458e+08
)
;
    }
    procBoundary4to6
    {
        type            processor;
        value           nonuniform List<scalar> 
27
(
0
0
0
0
0
0
0
0
0
0
0
0
0
0
0
0
0
0
7.96482e+08
4.30157e+08
7.96661e+08
4.22522e+08
7.94387e+08
4.1062e+08
7.9039e+08
3.88385e+08
7.95264e+08
)
;
    }
}


// ************************************************************************* //
