/*--------------------------------*- C++ -*----------------------------------*\
| =========                 |                                                 |
| \\      /  F ield         | OpenFOAM: The Open Source CFD Toolbox           |
|  \\    /   O peration     | Version:  4.x                                   |
|   \\  /    A nd           | Web:      www.OpenFOAM.org                      |
|    \\/     M anipulation  |                                                 |
\*---------------------------------------------------------------------------*/
FoamFile
{
    version     2.0;
    format      ascii;
    class       volScalarField;
    location    "22.5";
    object      SPartFluid;
}
// * * * * * * * * * * * * * * * * * * * * * * * * * * * * * * * * * * * * * //

dimensions      [1 -3 -1 0 0 0 0];

internalField   nonuniform List<scalar> 
108
(
5.19257e-65
7.36258e-65
7.51757e-65
5.58004e-65
5.96753e-65
5.65751e-65
7.595e-65
6.74248e-65
8.91245e-65
7.75009e-65
6.35507e-65
7.36256e-65
8.60255e-65
8.21502e-65
7.5175e-65
6.35497e-65
5.42496e-65
9.06741e-65
6.97508e-65
8.75759e-65
6.66505e-65
8.44754e-65
6.665e-65
5.96748e-65
6.12245e-65
9.6874e-65
5.65742e-65
4.34005e-65
5.73506e-65
7.59505e-65
5.19252e-65
7.3625e-65
6.35498e-65
9.22242e-65
5.96743e-65
5.96741e-65
5.34757e-65
5.11506e-65
7.05257e-65
7.67256e-65
6.97505e-65
5.27002e-65
4.49501e-65
6.97499e-65
8.21498e-65
5.65757e-65
6.51007e-65
5.81255e-65
6.43254e-65
5.96753e-65
5.96751e-65
6.66499e-65
7.90497e-65
8.13744e-65
4.41756e-65
6.27757e-65
7.82756e-65
7.20754e-65
7.67252e-65
7.28499e-65
6.66497e-65
6.66495e-65
6.81993e-65
6.66508e-65
7.20757e-65
5.96754e-65
8.52505e-65
8.44751e-65
6.74249e-65
9.60994e-65
7.90493e-65
6.81992e-65
4.96006e-65
6.66508e-65
4.41755e-65
6.74256e-65
5.73505e-65
8.06005e-65
7.20753e-65
6.27751e-65
7.20751e-65
5.34757e-65
8.7576e-65
5.81256e-65
5.50254e-65
6.20004e-65
7.20753e-65
6.35501e-65
5.65749e-65
7.59497e-65
5.42507e-65
7.36258e-65
7.44007e-65
7.36255e-65
5.65753e-65
6.5875e-65
6.4325e-65
7.51747e-65
6.27747e-65
7.44009e-65
7.05258e-65
5.81255e-65
7.67255e-65
6.97503e-65
9.2225e-65
4.49499e-65
4.88248e-65
6.35496e-65
)
;

boundaryField
{
    inlet
    {
        type            calculated;
        value           uniform 0;
    }
    outlet
    {
        type            calculated;
        value           nonuniform 0();
    }
    wall
    {
        type            calculated;
        value           uniform 0;
    }
    procBoundary4to0
    {
        type            processor;
        value           nonuniform List<scalar> 
36
(
4.57256e-65
4.88255e-65
5.73505e-65
5.34754e-65
6.12253e-65
7.44001e-65
4.805e-65
4.10748e-65
4.95998e-65
5.50257e-65
8.13759e-65
7.28506e-65
6.74254e-65
5.81251e-65
5.96749e-65
8.36996e-65
6.58745e-65
5.50244e-65
4.57255e-65
4.96005e-65
7.28506e-65
5.73502e-65
7.285e-65
8.05996e-65
6.74244e-65
5.11494e-65
8.05989e-65
5.27006e-65
5.89006e-65
7.82756e-65
9.22253e-65
4.495e-65
9.14496e-65
7.12993e-65
5.42493e-65
2.32496e-65
)
;
    }
    procBoundary4to5
    {
        type            processor;
        value           nonuniform List<scalar> 
12
(
6.35495e-65
7.05242e-65
8.21487e-65
9.99733e-65
6.66496e-65
5.42495e-65
6.8974e-65
4.80493e-65
2.635e-65
6.35497e-65
6.12244e-65
7.36243e-65
)
;
    }
    procBoundary4to6
    {
        type            processor;
        value           nonuniform List<scalar> 
27
(
1.03851e-64
7.59508e-65
4.96004e-65
7.44003e-65
9.3775e-65
6.12248e-65
7.36245e-65
6.50993e-65
8.52488e-65
7.67259e-65
7.67258e-65
7.75006e-65
7.67254e-65
5.34751e-65
7.05249e-65
6.27748e-65
5.88996e-65
7.90492e-65
5.03756e-65
5.27006e-65
6.12256e-65
6.89755e-65
6.51003e-65
6.43251e-65
8.67999e-65
8.75746e-65
3.79749e-65
)
;
    }
}


// ************************************************************************* //
