/*--------------------------------*- C++ -*----------------------------------*\
  =========                 |
  \\      /  F ield         | OpenFOAM: The Open Source CFD Toolbox
   \\    /   O peration     | Website:  https://openfoam.org
    \\  /    A nd           | Version:  4.x
     \\/     M anipulation  |
\*---------------------------------------------------------------------------*/
FoamFile
{
    version     2.0;
    format      ascii;
    class       vectorField;
    location    0;
    object      v;
}
// * * * * * * * * * * * * * * * * * * * * * * * * * * * * * * * * * * * * * //

348
(
( -1.00851e-09 -2.5006e-09 7.51835e-09 )  
( -2.15313e-09 -3.75862e-09 4.73761e-09 )  
( -3.27218e-09 -4.07402e-09 3.89719e-09 )  
( -1.86342e-09 6.66363e-09 -1.88587e-08 )  
( 1.35046e-09 1.5234e-09 7.58166e-09 )  
( -6.48627e-09 3.1511e-09 -7.79118e-09 )  
( 3.12823e-09 5.10195e-09 -1.10769e-08 )  
( -3.35966e-09 1.59377e-09 -2.98053e-09 )  
( -3.42748e-09 2.79362e-09 3.48056e-09 )  
( 2.80831e-10 5.60558e-09 -8.9044e-09 )  
( -1.47963e-09 3.29433e-09 -1.33039e-08 )  
( -2.1316e-09 7.57345e-10 -1.63344e-08 )  
( -3.34579e-09 1.56121e-09 1.87963e-09 )  
( -1.43984e-09 2.75561e-09 -1.40439e-08 )  
( -2.89378e-09 5.92722e-09 -1.63516e-08 )  
( -2.10808e-09 -3.86726e-09 1.28447e-08 )  
( -4.78311e-09 2.1639e-09 -2.58682e-09 )  
( -3.03633e-09 2.96756e-09 -1.09335e-08 )  
( -1.69286e-09 -2.15793e-09 1.42526e-08 )  
( -1.78152e-09 -1.42364e-10 8.76811e-10 )  
( -3.74761e-09 3.15146e-09 -4.99802e-09 )  
( -1.95587e-09 -2.10844e-09 1.17447e-08 )  
( -1.90893e-09 1.3765e-09 9.52523e-09 )  
( -3.93122e-09 2.26923e-09 7.00976e-09 )  
( -4.08531e-09 1.54686e-09 9.25048e-10 )  
( -2.67543e-09 4.53856e-10 -2.82395e-09 )  
( 2.46027e-09 1.99419e-09 -8.0814e-09 )  
( -5.97739e-09 2.85485e-10 -4.76664e-09 )  
( -8.74093e-09 1.80828e-08 -1.73925e-08 )  
( -2.89068e-09 1.5873e-09 -1.39842e-09 )  
( -2.60275e-09 2.57242e-09 -1.04082e-08 )  
( -6.54597e-09 5.1626e-09 -7.64591e-09 )  
( -2.3099e-09 2.34005e-10 7.0741e-09 )  
( -2.42479e-09 9.85392e-10 -5.09104e-10 )  
( -5.51415e-09 2.55885e-09 3.42246e-09 )  
( -1.35018e-09 2.35891e-09 -9.29155e-09 )  
( -3.52896e-09 2.93792e-09 -4.29396e-09 )  
( -5.83769e-09 2.34511e-09 -6.0885e-09 )  
( 8.10043e-10 1.25422e-10 7.72318e-09 )  
( -2.41292e-09 2.63157e-09 -1.4024e-08 )  
( -2.93874e-09 5.36586e-09 -6.87648e-09 )  
( -1.05954e-09 3.9052e-09 -2.5435e-08 )  
( -7.82757e-10 3.14822e-09 -8.82626e-09 )  
( -1.31601e-09 2.74639e-09 7.02965e-09 )  
( -2.13609e-09 1.70004e-09 8.01097e-09 )  
( -3.72697e-09 1.9889e-09 5.21829e-10 )  
( -2.00288e-09 2.56636e-09 1.17527e-08 )  
( -1.18544e-09 2.00737e-09 -4.67553e-09 )  
( -2.14919e-09 1.89382e-09 -3.00619e-09 )  
( 1.28887e-08 1.24831e-08 2.60605e-09 )  
( -7.99036e-10 2.49352e-09 1.83005e-08 )  
( -9.25512e-10 3.25689e-09 -6.41278e-09 )  
( -2.69033e-09 4.479e-10 1.29986e-09 )  
( 7.98113e-11 4.13059e-09 -1.3979e-08 )  
( -1.49457e-09 1.41888e-09 -1.02563e-08 )  
( -3.19192e-09 7.69491e-10 3.54445e-09 )  
( -9.19141e-09 4.09797e-09 -4.41133e-09 )  
( -2.55908e-09 1.26503e-09 -1.15353e-09 )  
( -3.34786e-09 1.74098e-09 5.2676e-10 )  
( -1.90318e-09 1.18376e-09 -8.9217e-09 )  
( -8.28483e-10 9.70144e-09 -1.13901e-08 )  
( -4.80857e-09 5.15151e-09 -1.04772e-08 )  
( 9.57289e-10 5.44407e-10 -2.07496e-09 )  
( -2.54049e-09 1.89898e-09 -9.18601e-09 )  
( -5.09995e-09 3.06381e-09 -4.48565e-09 )  
( -7.06103e-10 4.02433e-09 -1.43253e-08 )  
( -1.79749e-09 3.19129e-09 -1.19328e-08 )  
( -3.26733e-09 3.81732e-09 -8.86952e-09 )  
( -3.50357e-10 2.60935e-09 7.35931e-10 )  
( 1.04034e-09 3.44666e-09 8.31915e-09 )  
( -5.23906e-10 2.01138e-09 -3.51459e-09 )  
( -1.75539e-09 -1.96356e-09 8.74766e-09 )  
( -3.77787e-09 5.2453e-09 -1.08935e-08 )  
( -3.43726e-10 1.97618e-09 -4.24981e-10 )  
( -7.1053e-10 -1.70052e-09 6.43363e-09 )  
( -1.70075e-09 -6.5642e-10 -6.25063e-09 )  
( -1.60483e-09 3.24639e-09 -1.63796e-08 )  
( -4.46106e-09 4.14949e-09 -4.6472e-09 )  
( -1.52441e-09 -1.27948e-09 1.05883e-08 )  
( -2.88336e-10 9.18418e-10 1.06987e-08 )  
( -4.0002e-10 6.4367e-09 -7.44382e-09 )  
( -3.12628e-09 1.63898e-09 -4.33921e-10 )  
( -4.62693e-09 2.75312e-09 8.86588e-10 )  
( -1.37833e-09 3.15345e-09 1.16652e-08 )  
( -2.47532e-09 6.80733e-09 -1.87516e-08 )  
( -2.97346e-09 3.80491e-09 -1.18801e-08 )  
( -1.0084e-10 -8.60534e-11 -8.89938e-09 )  
( 9.50609e-10 -7.43188e-10 8.74862e-09 )  
( -5.03919e-09 2.44991e-09 6.85115e-10 )  
( -2.69607e-09 9.55898e-09 -1.6501e-08 )  
( -4.22349e-09 1.52475e-09 5.33733e-10 )  
( -4.20831e-09 3.42078e-10 5.07613e-09 )  
( -5.15776e-10 5.13755e-09 -1.06137e-08 )  
( -2.18658e-10 9.41909e-10 6.28642e-09 )  
( -7.22176e-10 2.13647e-09 4.56735e-09 )  
( 1.7183e-09 2.11993e-09 5.39511e-11 )  
( -8.0589e-10 4.13932e-09 -9.23293e-09 )  
( -1.07877e-09 -1.11191e-09 7.79961e-09 )  
( -2.83151e-09 1.30043e-09 -2.29674e-09 )  
( -1.98848e-09 3.22771e-09 -1.08538e-08 )  
( -4.14499e-09 3.59936e-09 -1.11891e-08 )  
( 7.54586e-09 1.21192e-09 -1.31301e-08 )  
( -1.43086e-09 2.18874e-09 -7.1149e-09 )  
( -4.17897e-09 1.4538e-09 -4.61316e-10 )  
( -2.52889e-09 4.0931e-09 -1.12964e-08 )  
( -9.4442e-10 1.84371e-09 4.45322e-09 )  
( -2.58167e-09 5.50417e-09 -5.05588e-09 )  
( -1.40539e-09 1.65897e-09 -4.83571e-09 )  
( -2.33387e-09 4.40147e-10 4.05374e-09 )  
( -1.86325e-07 1.93042e-09 6.67522e-09 )  
( -1.12848e-09 6.60454e-09 -1.82891e-08 )  
( -2.57469e-09 -2.37549e-10 3.14026e-09 )  
( -2.94635e-09 1.24242e-09 -1.09649e-09 )  
( 3.26506e-09 -2.87184e-09 6.4093e-09 )  
( -4.35584e-09 2.60575e-09 -3.18126e-09 )  
( -4.99168e-09 4.56495e-09 -9.52346e-09 )  
( -8.44033e-10 2.18903e-09 -1.46477e-09 )  
( -9.53926e-10 2.13182e-09 2.23664e-09 )  
( 2.77709e-10 3.0009e-09 -1.01037e-08 )  
( -3.08617e-09 -4.73579e-09 4.75639e-09 )  
( 1.78936e-09 2.92694e-09 -2.56352e-09 )  
( -6.43562e-10 3.32394e-09 -1.22996e-08 )  
( 4.47387e-09 5.90318e-10 8.26795e-10 )  
( -1.21675e-10 1.41463e-10 4.44747e-09 )  
( -1.83372e-09 -7.13134e-10 5.36478e-09 )  
( 2.60739e-09 -2.22268e-09 3.86772e-09 )  
( -6.59803e-10 -6.32839e-10 3.2631e-09 )  
( 7.6332e-10 1.97746e-09 -2.932e-09 )  
( -1.7067e-09 1.19523e-09 -2.46665e-11 )  
( -3.58329e-10 3.01203e-09 -5.77487e-09 )  
( -2.75248e-09 -1.25363e-09 3.60004e-09 )  
( -1.60034e-09 -5.81886e-10 1.59634e-09 )  
( -9.12302e-10 -6.2821e-09 -1.63823e-08 )  
( -1.38981e-09 -3.53362e-09 5.34527e-09 )  
( 1.68524e-09 -3.35546e-09 5.77202e-09 )  
( -1.93621e-10 -1.70914e-09 2.88185e-09 )  
( 3.08562e-10 -4.04608e-11 -6.72138e-09 )  
( -1.14319e-09 1.12635e-10 3.02901e-09 )  
( 2.31159e-11 2.50861e-09 -2.30911e-09 )  
( -2.05103e-09 3.02817e-09 -5.27558e-09 )  
( 7.14929e-10 -1.25956e-09 5.00036e-09 )  
( 5.2219e-10 4.93873e-10 -1.46504e-09 )  
( -3.11118e-10 -1.60175e-11 -9.27622e-09 )  
( 5.84535e-09 9.96441e-09 -1.59805e-08 )  
( 1.78562e-09 -2.58457e-09 6.34017e-09 )  
( 2.52058e-11 -9.13493e-10 4.73197e-09 )  
( 1.30801e-09 2.00571e-09 -2.89332e-10 )  
( -1.77205e-09 9.46158e-10 1.28596e-10 )  
( -2.61663e-09 1.66036e-09 -2.78225e-09 )  
( 5.10336e-10 2.8022e-09 3.11614e-11 )  
( -1.66948e-09 5.19117e-09 -6.69661e-09 )  
( -7.34891e-10 -5.06188e-11 1.91915e-09 )  
( -2.23425e-09 9.46588e-10 -8.00488e-09 )  
( -2.82268e-09 -1.5808e-09 3.42846e-09 )  
( 9.52936e-10 -9.10567e-10 6.25825e-10 )  
( -1.23503e-09 3.18606e-09 -5.87814e-09 )  
( 3.50685e-09 3.5479e-09 -4.63401e-09 )  
( -2.749e-09 5.31166e-10 -1.83745e-09 )  
( 1.32717e-09 -9.79104e-10 1.94159e-09 )  
( 1.13179e-09 1.60565e-09 -5.66735e-09 )  
( 1.94313e-09 -1.59176e-09 4.39234e-09 )  
( 2.13445e-09 2.68648e-09 -4.56026e-09 )  
( 1.75172e-09 1.67932e-09 -6.33303e-10 )  
( 1.79173e-10 -1.40554e-09 4.3985e-10 )  
( 3.41448e-09 -2.80759e-09 4.31462e-09 )  
( -2.28836e-09 1.74948e-09 -1.02028e-09 )  
( -6.51381e-11 2.23868e-09 -6.56879e-09 )  
( 4.86371e-10 -1.95321e-09 7.50788e-09 )  
( -2.79536e-10 -1.67325e-09 3.208e-09 )  
( 1.26924e-09 2.01026e-09 -1.6e-09 )  
( -5.72292e-11 -2.20802e-09 7.01379e-09 )  
( 8.94494e-10 -2.32046e-09 6.57703e-09 )  
( 1.44589e-09 -1.17772e-09 6.0788e-09 )  
( 1.52786e-09 2.27314e-09 -4.77784e-09 )  
( -6.59442e-10 3.11121e-09 -8.00681e-09 )  
( -2.11408e-09 5.41106e-10 -1.41493e-09 )  
( 1.62264e-09 -1.84301e-09 4.07583e-09 )  
( -2.5182e-09 2.14381e-09 1.212e-09 )  
( -2.38139e-09 2.76675e-09 -4.71795e-09 )  
( -3.26462e-09 -3.35417e-10 4.71978e-09 )  
( -5.86057e-10 2.42387e-09 1.5109e-09 )  
( 6.77753e-09 3.29992e-09 -7.51889e-09 )  
( -9.98417e-10 -3.1977e-10 3.40142e-09 )  
( -2.88596e-09 1.88385e-09 -1.95598e-10 )  
( 1.02244e-09 -2.10009e-09 6.43503e-09 )  
( -1.35972e-08 -1.57202e-08 2.05561e-08 )  
( -2.04549e-09 3.69322e-09 -3.66245e-09 )  
( -2.99153e-09 -4.39887e-09 3.37401e-09 )  
( -2.8968e-10 -2.48142e-09 8.95764e-09 )  
( -9.55204e-10 -2.67611e-10 1.93698e-09 )  
( 3.41913e-10 1.89003e-09 -9.24575e-09 )  
( 1.71167e-09 3.56859e-10 1.96175e-10 )  
( -2.20274e-09 2.75876e-09 -2.97636e-09 )  
( -5.783e-10 3.42563e-09 -6.24592e-09 )  
( -4.6243e-09 3.40268e-09 -5.46924e-09 )  
( -1.45476e-09 2.37416e-10 3.19783e-09 )  
( -2.44743e-09 -1.22359e-09 6.3468e-09 )  
( 1.53184e-09 -1.55514e-09 -5.19272e-09 )  
( -1.95867e-09 -8.28986e-10 4.56686e-09 )  
( 3.13836e-09 -1.89801e-09 -1.44634e-08 )  
( -2.38419e-09 9.85759e-10 -2.92795e-10 )  
( -1.99761e-09 1.1511e-09 -6.71519e-09 )  
( -1.14988e-09 -1.23172e-09 -5.71871e-11 )  
( 1.24709e-09 4.39022e-10 -6.67034e-09 )  
( 5.85926e-10 7.14072e-10 1.27696e-09 )  
( 9.65036e-10 -1.14584e-09 7.34771e-09 )  
( -1.62411e-09 -1.81409e-10 3.72497e-09 )  
( -8.06364e-10 -6.39175e-11 2.07754e-09 )  
( 1.65317e-09 -4.07578e-09 6.60052e-09 )  
( -2.30772e-09 1.01527e-09 -5.85444e-10 )  
( 2.35732e-10 1.10205e-09 -1.8636e-09 )  
( -1.06739e-09 1.73135e-09 2.63292e-09 )  
( -3.22909e-09 2.00474e-09 -1.53e-09 )  
( -8.40863e-10 3.26196e-09 -4.11341e-09 )  
( -1.71249e-09 -9.12148e-12 1.47008e-09 )  
( 1.18393e-08 -5.22184e-09 -2.0617e-08 )  
( 9.21892e-10 2.07993e-10 3.15258e-09 )  
( -1.54012e-09 4.881e-10 2.62842e-09 )  
( -1.0434e-09 -3.04756e-09 6.2134e-09 )  
( 2.67097e-09 1.97013e-09 -3.66375e-09 )  
( -1.87705e-09 6.9806e-10 9.86342e-10 )  
( -2.13369e-09 1.0924e-09 3.69364e-10 )  
( -1.54587e-09 2.22441e-09 -4.35112e-09 )  
( 7.84104e-10 1.52564e-09 -5.94913e-09 )  
( -6.79697e-08 -2.10208e-08 3.40608e-09 )  
( -4.07523e-09 2.4902e-09 -4.18557e-09 )  
( -2.74719e-09 1.35771e-09 -3.95084e-09 )  
( 4.24718e-09 1.19431e-09 -2.93012e-09 )  
( -4.39913e-09 -4.86261e-09 4.64754e-09 )  
( 3.00254e-09 -2.73106e-09 4.34301e-09 )  
( 8.85061e-10 -1.47175e-09 4.43647e-09 )  
( -2.04179e-09 3.10224e-09 -3.51319e-09 )  
( -1.38608e-09 -1.14397e-09 5.78081e-09 )  
( -5.28178e-11 -3.62924e-10 1.47767e-09 )  
( 1.11238e-09 -7.56468e-10 3.16214e-09 )  
( 2.18502e-09 1.39855e-09 -2.09006e-09 )  
( 9.69935e-11 3.40959e-09 -7.09599e-09 )  
( 6.81992e-10 1.0924e-09 -8.49004e-09 )  
( -1.46154e-09 2.73999e-09 -1.02781e-08 )  
( -3.5219e-09 2.18808e-09 2.51538e-09 )  
( 2.1678e-10 -3.21775e-09 3.76142e-09 )  
( 7.72186e-11 -4.48949e-10 6.2153e-09 )  
( -1.0464e-09 -2.9159e-09 5.59868e-09 )  
( 4.66502e-09 -2.20577e-09 3.2022e-09 )  
( 2.26879e-09 -1.81213e-09 1.39663e-09 )  
( -1.83794e-09 3.69069e-09 -5.70939e-09 )  
( 1.78084e-09 -1.32479e-09 7.39397e-10 )  
( 3.77189e-09 2.72996e-09 -1.56268e-08 )  
( -5.08304e-10 3.0393e-09 -5.5053e-09 )  
( -3.16981e-09 1.95951e-09 -1.61289e-11 )  
( 2.19937e-09 -1.86603e-09 1.7052e-09 )  
( 9.44139e-10 2.25795e-09 -4.98437e-09 )  
( -3.72172e-09 -1.93809e-09 3.35e-09 )  
( -5.90024e-10 2.59168e-09 -8.46997e-09 )  
( -1.75641e-09 2.47152e-09 -5.96249e-09 )  
( -2.03471e-10 2.97097e-10 2.64617e-10 )  
( -1.34804e-09 2.79201e-09 -3.10813e-09 )  
( -1.27454e-09 -3.90468e-10 1.86711e-09 )  
( 2.73844e-09 1.57181e-09 -2.7359e-09 )  
( 1.06893e-09 1.19605e-09 -3.42543e-10 )  
( 1.91466e-09 5.45257e-10 -1.16516e-09 )  
( 4.97219e-09 -1.89347e-09 -4.49742e-11 )  
( 1.07425e-09 -1.20168e-09 1.8366e-09 )  
( 3.23681e-09 -1.1933e-09 2.40531e-09 )  
( 1.8814e-09 4.21507e-09 -4.97904e-09 )  
( 2.63286e-09 1.57881e-09 -1.62136e-09 )  
( 2.57022e-09 4.77978e-11 -3.90256e-10 )  
( -8.09676e-10 4.33502e-11 2.98143e-09 )  
( -2.32877e-09 5.1708e-10 -8.28068e-10 )  
( -1.45551e-10 -1.29658e-09 5.85517e-09 )  
( 2.61187e-09 -4.32651e-10 4.15105e-09 )  
( 2.18844e-09 2.06491e-09 -3.32625e-09 )  
( 3.09171e-09 -2.07896e-09 2.56728e-09 )  
( 1.6694e-09 -2.4571e-10 -3.79609e-09 )  
( -1.33206e-09 -1.44761e-09 4.17042e-09 )  
( -2.04379e-09 4.39776e-11 -4.38758e-11 )  
( 7.04112e-10 4.04697e-10 3.8321e-10 )  
( -4.11526e-10 1.4128e-09 -9.72208e-10 )  
( 3.62891e-09 -4.26361e-11 -1.61964e-09 )  
( -4.18147e-09 3.67442e-09 1.57516e-09 )  
( 4.24307e-09 -2.17763e-09 3.32755e-09 )  
( 3.38812e-09 1.37349e-09 -2.72119e-09 )  
( 3.30771e-09 -1.99892e-09 3.39007e-09 )  
( 2.63909e-09 -6.8741e-10 -3.83602e-10 )  
( 2.13573e-10 5.52931e-10 2.27987e-09 )  
( -1.55862e-09 3.03062e-10 9.30066e-10 )  
( -1.55299e-09 -1.94427e-10 1.4358e-09 )  
( 2.00278e-10 2.23467e-09 -3.77466e-09 )  
( -1.06711e-09 1.29567e-10 -2.83563e-10 )  
( -5.43312e-10 -3.5402e-10 1.27129e-09 )  
( -2.73387e-09 4.28404e-10 -8.62003e-11 )  
( 2.2874e-10 2.90213e-11 2.37266e-09 )  
( 2.84032e-09 3.67713e-09 -2.40872e-10 )  
( 1.21395e-09 1.78847e-10 5.21532e-11 )  
( -5.10314e-09 3.09805e-09 -8.13044e-09 )  
( 2.4061e-09 1.00194e-09 -1.08698e-09 )  
( 4.50163e-10 2.0014e-09 -4.27228e-09 )  
( 2.51526e-09 -1.76569e-09 2.49719e-09 )  
( 2.27532e-09 -3.21794e-12 -7.45105e-10 )  
( 4.13748e-09 1.68507e-08 -2.02886e-08 )  
( -3.28591e-10 -6.29777e-11 1.22949e-09 )  
( 5.92951e-10 5.65833e-10 -7.12391e-10 )  
( 8.36596e-10 1.08409e-09 -1.87689e-09 )  
( 2.85436e-09 -8.64917e-10 1.80397e-09 )  
( -6.6242e-09 2.55426e-09 3.94478e-10 )  
( 1.0342e-09 -3.2796e-10 3.67837e-10 )  
( -1.06443e-09 1.80035e-09 1.63973e-10 )  
( 2.2392e-10 2.15768e-09 -4.88588e-09 )  
( -2.79323e-09 1.66138e-09 -1.08572e-09 )  
( 2.67111e-09 -5.67602e-10 1.96057e-09 )  
( 4.149e-09 -1.22666e-09 1.32678e-09 )  
( 2.23465e-09 2.68887e-09 -2.77341e-09 )  
( 1.1652e-08 4.77267e-08 -1.1373e-09 )  
( -1.92362e-09 3.48637e-10 1.26996e-09 )  
( 1.58502e-09 2.00682e-10 9.26521e-10 )  
( -2.19283e-09 2.20993e-11 1.38987e-09 )  
( 1.23266e-09 -2.97429e-10 8.8205e-10 )  
( 6.15969e-09 8.71044e-09 -3.92206e-09 )  
( 1.62896e-09 5.78542e-10 -3.76202e-10 )  
( 1.55428e-09 7.7997e-12 9.97379e-11 )  
( 1.51423e-09 8.11459e-10 -1.60194e-09 )  
( -1.19826e-09 -2.74839e-10 2.85984e-09 )  
( 3.03301e-09 -9.19918e-10 9.2287e-10 )  
( -1.33179e-09 7.75853e-10 2.32991e-09 )  
( -6.86072e-11 -2.796e-10 9.62536e-10 )  
( 2.5823e-09 9.42003e-10 -1.27793e-09 )  
( -5.36634e-09 1.96514e-09 -2.6627e-09 )  
( 2.74185e-09 3.33165e-09 -3.86684e-11 )  
( -7.83488e-10 -8.63544e-13 8.9811e-10 )  
( -1.95648e-09 -3.04105e-10 9.3112e-10 )  
( -1.31655e-09 1.74901e-09 -3.03274e-09 )  
( 5.00375e-10 1.49791e-09 -3.37307e-09 )  
( 5.57671e-11 1.4219e-09 -2.67777e-09 )  
( 1.07542e-09 -1.07834e-10 1.97795e-09 )  
( 2.15987e-09 2.57182e-11 1.10809e-09 )  
( 1.83875e-09 9.16326e-10 -1.6387e-09 )  
( -2.22708e-09 9.64807e-10 -6.32116e-10 )  
( 1.41009e-09 -3.77792e-10 -7.84209e-10 )  
( 6.04141e-10 5.62899e-10 -2.54653e-09 )  
( 1.18593e-09 -1.2034e-10 1.63092e-09 )  
( 1.66384e-09 -1.72912e-09 1.04462e-09 )  
( -6.88223e-10 7.45759e-10 -1.27247e-09 )  
( 4.77449e-09 1.22528e-08 -1.1367e-08 )  
( 2.36392e-10 2.38046e-10 1.10997e-09 )  
( 7.24011e-10 3.89527e-09 -3.81966e-09 )  
( 5.70175e-11 -4.18207e-10 1.95495e-09 )  
( 3.85569e-10 -1.61589e-10 1.21539e-09 )  
( -2.32986e-09 5.77054e-10 -4.13999e-11 )  
)
