/*--------------------------------*- C++ -*----------------------------------*\
| =========                 |                                                 |
| \\      /  F ield         | OpenFOAM: The Open Source CFD Toolbox           |
|  \\    /   O peration     | Version:  4.x                                   |
|   \\  /    A nd           | Web:      www.OpenFOAM.org                      |
|    \\/     M anipulation  |                                                 |
\*---------------------------------------------------------------------------*/
FoamFile
{
    version     2.0;
    format      ascii;
    class       volVectorField;
    location    "2";
    object      DDtUrel;
}
// * * * * * * * * * * * * * * * * * * * * * * * * * * * * * * * * * * * * * //

dimensions      [0 1 -2 0 0 0 0];

internalField   nonuniform List<vector> 
87
(
(0.0395453 2.06666e-05 0.00139639)
(0.0422212 -8.17884e-05 0.00195678)
(0.0426708 -0.0002557 0.00157265)
(0.0427732 -6.13088e-05 0.00248107)
(0.0459829 -0.000390385 0.00205833)
(0.0470755 -0.00103994 0.00172393)
(0.0147155 0.000284609 0.00313182)
(0.0167486 0.000248669 0.00292183)
(0.0205659 0.0002211 0.00270145)
(0.0249657 0.000172157 0.00242227)
(0.0294203 0.00012714 0.00212688)
(0.0333718 7.28562e-05 0.00183777)
(0.0363825 7.34099e-05 0.00154786)
(0.0379947 2.67365e-06 0.00123154)
(0.0379151 -9.99229e-05 0.000889508)
(0.0150315 0.000463444 0.00304975)
(0.0172359 0.00034005 0.00293)
(0.0212535 0.000258365 0.00274204)
(0.0259361 0.00017049 0.00247788)
(0.0306149 0.000105355 0.00219276)
(0.0349249 1.22167e-05 0.0019011)
(0.0384691 -5.25599e-05 0.00159737)
(0.0402585 -0.000209815 0.00124208)
(0.0402367 -0.000430204 0.000899951)
(0.0154221 0.000498756 0.00303992)
(0.0178962 0.000420894 0.00297531)
(0.0221754 0.000323416 0.0028353)
(0.0273025 0.000204745 0.00254248)
(0.0320935 9.69888e-05 0.00222028)
(0.0369655 -7.16433e-06 0.00194902)
(0.040932 -0.00030956 0.00159353)
(0.0431935 -0.000748399 0.00110142)
(0.0433672 -0.00112872 0.000858264)
(0.0145032 0.000234828 0.00246596)
(0.0165532 0.000222709 0.00228427)
(0.0203607 0.000191888 0.00208758)
(0.0248293 0.000124241 0.00185876)
(0.0294276 6.42421e-05 0.00160985)
(0.0334979 -5.46808e-06 0.00133929)
(0.0365488 -5.49442e-05 0.00107705)
(0.0380467 -0.000165043 0.000730729)
(0.0377749 -0.000190856 0.000306049)
(0.0147046 0.000381956 0.00234467)
(0.0168985 0.000304258 0.00221999)
(0.020885 0.000219882 0.00205829)
(0.0256035 0.000111161 0.00184962)
(0.0304213 2.53089e-05 0.00161422)
(0.0347836 -7.97861e-05 0.0013432)
(0.0382712 -0.000201098 0.00104007)
(0.0399547 -0.00036509 0.000689285)
(0.0394402 -0.000573707 0.000259576)
(0.0149632 0.000413227 0.0022639)
(0.0173589 0.000371373 0.00221364)
(0.0215754 0.000256451 0.00210808)
(0.0266068 0.000115017 0.00185092)
(0.0315173 4.14693e-07 0.00157539)
(0.0363577 -0.000208367 0.00136192)
(0.0400339 -0.000555393 0.00100755)
(0.0423279 -0.000944311 0.000441441)
(0.0421338 -0.00132144 -0.000124215)
(0.0145909 0.000177168 0.00208401)
(0.0168329 0.000190972 0.00199492)
(0.0207133 0.000183021 0.00184551)
(0.0254256 0.000120783 0.00161799)
(0.0300368 -4.99088e-05 0.00133034)
(0.0342354 -0.000106507 0.00101679)
(0.0371356 -0.000162334 0.000578542)
(0.0386356 -0.000495094 6.9791e-05)
(0.0381291 -0.000454983 -0.000232849)
(0.014676 0.000287274 0.00197049)
(0.016968 0.000257708 0.00189377)
(0.0209595 0.000222781 0.0017901)
(0.0259391 0.00011137 0.00158222)
(0.0307095 -2.29137e-05 0.00128359)
(0.0350968 -4.82119e-05 0.00100093)
(0.0386311 -0.000180436 0.000576242)
(0.0405911 -0.000464524 -8.28211e-05)
(0.0396758 -0.000837909 -0.000575065)
(0.0147495 0.000307762 0.00189348)
(0.0170785 0.000299858 0.0018402)
(0.0212665 0.000228759 0.00175282)
(0.0265396 6.13997e-05 0.00151379)
(0.0314913 -0.000139865 0.00116766)
(0.0363733 -0.00029051 0.00095511)
(0.0404534 -0.000621511 0.000537487)
(0.0433563 -0.00109599 -0.000299862)
(0.0432289 -0.00151203 -0.000862492)
)
;

boundaryField
{
    inlet
    {
        type            calculated;
        value           nonuniform List<vector> 9((0.00621274 0.000435876 0.00309011) (0.00664697 0.00132981 0.0021674) (0.0077997 0.000882259 0.00212413) (0.00650053 0.000325941 0.00242832) (0.00650061 0.00102693 0.00160683) (0.00722746 0.000705071 0.000929098) (0.00749285 -3.19185e-06 0.00133093) (0.00718543 0.000363675 0.000957262) (0.00678334 7.23793e-05 0.000693047));
    }
    outlet
    {
        type            calculated;
        value           nonuniform 0();
    }
    wall
    {
        type            calculated;
        value           nonuniform List<vector> 
57
(
(0.00749285 -3.19185e-06 0.00133093)
(0.00718543 0.000363675 0.000957262)
(0.00678334 7.23793e-05 0.000693047)
(0.0120517 0.00033848 0.00131835)
(0.0117399 0.000207296 0.000818305)
(0.0105659 0.000408607 0.000638336)
(0.0182939 0.000502509 0.00126033)
(0.0178184 0.000583323 0.00124916)
(0.0177534 0.00047373 0.00103073)
(0.0260209 0.000492268 0.00100193)
(0.027398 0.000310321 0.00114105)
(0.0292428 -0.000144416 0.000619294)
(0.0310162 -0.0010654 0.000269861)
(0.0325238 -8.72244e-05 0.000408106)
(0.03409 -0.00109609 -0.000867208)
(0.0360024 -0.000644333 0.000155059)
(0.0375747 0.00131123 0.000492277)
(0.0429565 -0.00070892 0.000227694)
(0.036238 0.000449209 -0.000999484)
(0.0438426 0.00165793 2.56313e-05)
(0.0511473 -0.0017088 0.000359503)
(0.035598 -0.00345102 -0.00292325)
(0.0494076 0.00153648 -0.00280414)
(0.0648421 -0.00369184 -0.00411918)
(0.030047 -0.00234168 -0.00100243)
(0.0423547 -0.00114817 -0.00348347)
(0.0674558 -0.00501075 -0.00525119)
(0.0077997 0.000882259 0.00212413)
(0.00722746 0.000705071 0.000929098)
(0.00678334 7.23793e-05 0.000693047)
(0.012866 0.000648486 0.00237126)
(0.0120854 0.000878685 0.00117651)
(0.0105659 0.000408607 0.000638336)
(0.0206868 0.000614181 0.00270609)
(0.020159 0.000335229 0.0015959)
(0.0177534 0.00047373 0.00103073)
(0.0312127 0.000358778 0.00219148)
(0.0281742 -7.21701e-05 0.000812725)
(0.0292428 -0.000144416 0.000619294)
(0.0339913 -6.54742e-05 0.00144586)
(0.0334196 0.000366519 0.000522847)
(0.03409 -0.00109609 -0.000867208)
(0.0429155 0.000791647 0.0013076)
(0.0431105 -0.000512255 0.00133063)
(0.0429565 -0.00070892 0.000227694)
(0.0563657 0.000572154 0.00312638)
(0.051111 -0.00066969 0.00108012)
(0.0459146 -0.00207531 0.00124097)
(0.0511473 -0.0017088 0.000359503)
(0.0695814 0.00048706 0.00199714)
(0.053072 -0.00307657 -0.0010391)
(0.05188 -0.00290625 -7.05826e-05)
(0.0648421 -0.00369184 -0.00411918)
(0.0826709 -0.00409195 0.00399371)
(0.053073 -0.00257856 0.00177844)
(0.050722 -0.00341149 -0.00261268)
(0.0674558 -0.00501075 -0.00525119)
)
;
    }
    procBoundary6to0
    {
        type            processor;
        value           uniform (0.0389295 6.86451e-05 0.00134061);
    }
    procBoundary6to2
    {
        type            processor;
        value           nonuniform List<vector> 
32
(
(0.0421171 1.67853e-05 0.00199773)
(0.0442267 -6.71453e-06 0.00262445)
(0.0447828 -0.000212241 0.00225821)
(0.0439659 9.26909e-06 0.00331852)
(0.0470863 -0.000292361 0.00304691)
(0.0478192 -0.000729 0.00262629)
(0.0152964 0.000323179 0.00408555)
(0.0175362 0.000270685 0.00389118)
(0.0215335 0.000245123 0.00360753)
(0.0260833 0.000190526 0.0032385)
(0.0306289 0.000149782 0.00285234)
(0.0346168 9.50645e-05 0.00249977)
(0.0377142 0.000136506 0.00215933)
(0.0395077 0.000118109 0.00180312)
(0.0395077 0.000118109 0.00180312)
(0.0395077 0.000118109 0.00180312)
(0.0156796 0.000530933 0.00409098)
(0.018086 0.000391494 0.0039486)
(0.0222879 0.000322144 0.00369453)
(0.0270833 0.000220814 0.00332604)
(0.0318743 0.00015337 0.00296203)
(0.0363591 9.96402e-05 0.00263968)
(0.0399564 5.81998e-05 0.00232336)
(0.0399564 5.81998e-05 0.00232336)
(0.0399564 5.81998e-05 0.00232336)
(0.0161263 0.000575272 0.00416504)
(0.0188238 0.000498626 0.00405619)
(0.023295 0.000383651 0.0038491)
(0.0284502 0.000270567 0.00343972)
(0.0334636 0.000234181 0.00308152)
(0.038662 0.000129527 0.00287409)
(0.038662 0.000129527 0.00287409)
)
;
    }
    procBoundary6to4
    {
        type            processor;
        value           nonuniform List<vector> 
27
(
(0.014636 8.78482e-05 0.00316608)
(0.0166598 0.000130461 0.00298284)
(0.0203558 0.000158563 0.00273324)
(0.0246596 0.000145819 0.00243092)
(0.0290624 0.000128982 0.00213877)
(0.0329222 0.000103805 0.00188862)
(0.0358679 8.78989e-05 0.00157195)
(0.0375048 6.52104e-05 0.00124274)
(0.0375466 2.53621e-05 0.000900168)
(0.0144375 7.14642e-05 0.00249645)
(0.0164783 0.000103496 0.00235284)
(0.0202214 0.000114684 0.00213733)
(0.0246483 0.00010504 0.00187632)
(0.029209 7.71795e-05 0.00163632)
(0.0333905 2.54972e-05 0.00140019)
(0.0364548 -3.97761e-06 0.00109493)
(0.0382121 -4.54731e-05 0.000722999)
(0.0385029 4.03831e-05 0.000384638)
(0.0145307 5.07672e-05 0.00214183)
(0.0167991 6.26906e-05 0.00207442)
(0.0207393 8.54624e-05 0.00191076)
(0.0254395 0.00012153 0.00166143)
(0.0301028 1.65971e-05 0.00145445)
(0.0349219 -9.50965e-05 0.00110683)
(0.0380245 -0.000163711 0.000678186)
(0.0403954 -0.000288719 0.00030541)
(0.0414282 0.000134555 -0.000151679)
)
;
    }
    procBoundary6to7
    {
        type            processor;
        value           nonuniform List<vector> 
12
(
(0.0377297 -0.000177619 0.000968247)
(0.0401457 -0.000534562 0.00103191)
(0.0441726 -0.00170539 0.000810251)
(0.0358824 -0.000217165 0.000429192)
(0.0377819 -0.000621757 0.00044123)
(0.0411654 -0.00162488 0.000396256)
(0.0352924 -0.000201113 -0.000119149)
(0.0364244 -0.000732103 -0.000211118)
(0.0396687 -0.00176662 -0.000501909)
(0.0359286 -0.000276143 -0.000567247)
(0.0362931 -0.00108951 -0.00102186)
(0.0400439 -0.00166676 -0.00104128)
)
;
    }
}


// ************************************************************************* //
