/*--------------------------------*- C++ -*----------------------------------*\
| =========                 |                                                 |
| \\      /  F ield         | OpenFOAM: The Open Source CFD Toolbox           |
|  \\    /   O peration     | Version:  4.x                                   |
|   \\  /    A nd           | Web:      www.OpenFOAM.org                      |
|    \\/     M anipulation  |                                                 |
\*---------------------------------------------------------------------------*/
FoamFile
{
    version     2.0;
    format      ascii;
    class       volScalarField;
    location    "2";
    object      p_rgh;
}
// * * * * * * * * * * * * * * * * * * * * * * * * * * * * * * * * * * * * * //

dimensions      [1 -1 -2 0 0 0 0];

internalField   nonuniform List<scalar> 
87
(
65.1853
27.8677
57.5044
73.8945
27.4997
64.7043
117.907
97.3288
101.899
76.0713
81.1256
53.9855
74.5446
28.8458
65.5546
115.994
95.3435
102.229
74.0035
87.2041
53.9315
69.6915
33.2451
66.495
114.346
94.1818
100.038
72.5038
85.0919
50.8032
73.1051
29.3092
65.3924
117.004
95.916
102.496
74.1004
87.1765
51.3696
72.2619
27.2483
65.4617
116.009
95.1207
102.37
73.2651
88.3839
51.404
73.8423
31.1989
58.3429
114.604
94.1718
100.393
72.2677
86.1388
49.4659
72.719
26.8445
62.8804
115.353
94.2975
100.206
71.7771
84.9937
48.1797
73.6473
23.4266
65.8234
114.737
93.9952
100.306
71.8021
85.97
48.3585
72.4631
25.2294
62.0084
114.111
93.728
99.4169
71.628
84.9829
48.7069
72.4563
25.3157
63.2565
)
;

boundaryField
{
    inlet
    {
        type            fixedFluxPressure;
        gradient        nonuniform List<scalar> 9(12.9647 11.7365 12.1872 23.8701 21.6213 22.1836 38.6171 35.5046 34.9864);
        value           nonuniform List<scalar> 9(118.087 116.157 114.516 117.335 116.309 114.912 115.89 115.23 114.597);
    }
    outlet
    {
        type            fixedValue;
        value           nonuniform 0();
    }
    wall
    {
        type            fixedFluxPressure;
        gradient        nonuniform List<scalar> 
57
(
0.000426254
-0.00736218
-0.00384489
-0.00701399
-0.0059674
-0.00178952
-0.0204729
-0.0139083
-0.0131593
-0.0209934
0.0154457
-0.0135645
-0.0220517
0.00557173
0.012078
-0.0870151
-0.00780767
-0.0240762
-0.0426101
0.0187319
0.000676832
-0.168949
-0.0439821
0.0335668
-0.0299175
-0.178107
-0.131478
-0.00541485
-0.00516604
-0.00657898
-0.138953
-0.165566
0.00868883
-0.00836446
-0.0301351
-0.0219067
-0.110922
-0.0643475
-0.035889
-0.0474699
-0.03476
-0.00369897
-0.0193906
-0.0631443
-0.0295312
0.00584021
0.0428364
0.0220503
0.00855079
0.0451634
0.0168258
-0.00584996
0.0424463
-0.0140262
-0.0346066
0.00239812
0.0241233
)
;
        value           nonuniform List<scalar> 
57
(
115.353
114.737
114.111
94.2974
93.9951
93.728
100.206
100.305
99.4168
71.7768
71.8023
71.6278
84.9934
85.9701
84.9831
48.1785
48.3584
48.7065
73.6466
72.4634
72.4563
23.4242
25.2287
25.3161
65.823
62.0059
63.2547
114.346
114.604
114.111
94.1798
94.1694
93.7282
100.038
100.392
99.4166
72.5022
72.2668
71.6275
85.0913
86.1383
84.9829
50.8029
49.465
48.7064
73.8946
73.1057
72.7193
72.4564
27.5004
29.3094
26.8444
25.3163
64.7041
65.3919
62.8804
63.2569
)
;
    }
    procBoundary6to0
    {
        type            processor;
        value           uniform 56.8392;
    }
    procBoundary6to2
    {
        type            processor;
        value           nonuniform List<scalar> 
32
(
63.9448
26.4
61.5775
75.8394
28.4549
67.1245
118.486
98.0418
103.732
75.7083
86.4352
52.9792
69.9423
27.9702
27.9702
27.9702
116.195
95.8374
103.361
73.9859
89.2739
50.8157
73.5729
73.5729
73.5729
114.497
94.6885
101.339
73.0272
87.2527
50.3171
50.3171
)
;
    }
    procBoundary6to4
    {
        type            processor;
        value           nonuniform List<scalar> 
27
(
117.795
97.1692
103.169
74.9805
87.201
51.4504
72.2026
27.4227
61.2099
117.06
95.7868
102.834
73.0579
88.2372
48.8727
73.3267
21.3552
56.3374
115.57
94.1298
100.649
70.9459
85.7978
45.7755
72.1954
21.0348
61.2737
)
;
    }
    procBoundary6to7
    {
        type            processor;
        value           nonuniform List<scalar> 
12
(
5.25307
4.57447
4.90278
5.21762
4.03528
4.11958
1.93208
4.2137
2.60673
-0.0399665
0.662875
0.917413
)
;
    }
}


// ************************************************************************* //
