/*--------------------------------*- C++ -*----------------------------------*\
| =========                 |                                                 |
| \\      /  F ield         | OpenFOAM: The Open Source CFD Toolbox           |
|  \\    /   O peration     | Version:  4.x                                   |
|   \\  /    A nd           | Web:      www.OpenFOAM.org                      |
|    \\/     M anipulation  |                                                 |
\*---------------------------------------------------------------------------*/
FoamFile
{
    version     2.0;
    format      ascii;
    class       volScalarField;
    location    "2";
    object      QPartFluidCoeff;
}
// * * * * * * * * * * * * * * * * * * * * * * * * * * * * * * * * * * * * * //

dimensions      [1 -1 -3 -1 0 0 0];

internalField   nonuniform List<scalar> 
87
(
-2.47302e+07
-2.18907e+07
-2.91437e+07
-2.03001e+07
-2.41348e+07
-2.08254e+07
-3.24005e+07
-2.89807e+07
-1.91279e+07
-2.46208e+07
-3.36231e+07
-1.63576e+07
-2.78705e+07
-1.99258e+07
-2.90867e+07
-2.10025e+07
-3.05628e+07
-2.71861e+07
-3.23847e+07
-3.09283e+07
-2.78382e+07
-2.91702e+07
-3.02314e+07
-3.03476e+07
-1.57823e+07
-2.60857e+07
-2.07261e+07
-2.25392e+07
-3.14849e+07
-3.63304e+07
-2.67529e+07
-2.50649e+07
-3.27768e+07
-2.52966e+07
-3.00584e+07
-3.27271e+07
-2.68608e+07
-2.19159e+07
-2.48043e+07
-2.46396e+07
-1.90433e+07
-2.99581e+07
-1.79624e+07
-2.96564e+07
-2.97193e+07
-2.74923e+07
-2.66721e+07
-2.12098e+07
-3.20467e+07
-2.16778e+07
-3.14767e+07
-1.61872e+07
-2.25859e+07
-2.12348e+07
-2.78165e+07
-2.91534e+07
-2.31114e+07
-2.74562e+07
-2.47653e+07
-2.59452e+07
-1.55758e+07
-1.85858e+07
-2.50852e+07
-2.50794e+07
-2.51755e+07
-2.36409e+07
-3.64986e+07
-3.10045e+07
-1.60565e+07
-1.74692e+07
-1.96392e+07
-2.6101e+07
-2.18001e+07
-3.36553e+07
-2.2063e+07
-2.68127e+07
-2.30002e+07
-3.00622e+07
-1.43192e+07
-2.03473e+07
-2.29945e+07
-2.18821e+07
-1.83963e+07
-3.07911e+07
-2.05599e+07
-2.18563e+07
-2.75172e+07
)
;

boundaryField
{
    inlet
    {
        type            calculated;
        value           uniform 0;
    }
    outlet
    {
        type            calculated;
        value           nonuniform 0();
    }
    wall
    {
        type            calculated;
        value           uniform 0;
    }
    procBoundary6to0
    {
        type            processor;
        value           uniform 182.317;
    }
    procBoundary6to2
    {
        type            processor;
        value           nonuniform List<scalar> 
32
(
390.372
624.798
761.877
788.647
441.25
628.994
361.161
684.793
739.624
507.028
553.542
459.569
528.715
538.584
538.584
538.584
442.185
592.681
743.401
564.503
695.544
567.626
800.647
800.647
800.647
325.238
490.665
593.049
601.494
554.807
565.22
565.22
)
;
    }
    procBoundary6to4
    {
        type            processor;
        value           nonuniform List<scalar> 
27
(
257.506
497.798
685.616
408.44
618.861
430.157
795.785
422.553
497.816
471.514
652.324
576.43
744.703
797.131
572.35
842.717
655.345
599.816
572.046
543.593
526.117
676.219
700.598
802.659
410.683
445.936
578.233
)
;
    }
    procBoundary6to7
    {
        type            processor;
        value           nonuniform List<scalar> 
12
(
449.042
425.841
456.512
242.019
417.077
511.417
613.146
606.438
523.411
560.22
532.026
581.683
)
;
    }
}


// ************************************************************************* //
