/*--------------------------------*- C++ -*----------------------------------*\
| =========                 |                                                 |
| \\      /  F ield         | OpenFOAM: The Open Source CFD Toolbox           |
|  \\    /   O peration     | Version:  4.x                                   |
|   \\  /    A nd           | Web:      www.OpenFOAM.org                      |
|    \\/     M anipulation  |                                                 |
\*---------------------------------------------------------------------------*/
FoamFile
{
    version     2.0;
    format      ascii;
    class       volScalarField;
    location    "2";
    object      QWallFluidCoeff;
}
// * * * * * * * * * * * * * * * * * * * * * * * * * * * * * * * * * * * * * //

dimensions      [1 -1 -3 -1 0 0 0];

internalField   nonuniform List<scalar> 
87
(
0
0
0
-3.79988e+06
-2.92892e+06
-3.95336e+06
0
0
0
0
0
0
0
0
0
0
0
0
0
0
0
0
0
0
-2.86903e+06
-1.6057e+06
-3.13131e+06
-2.14567e+06
-3.45081e+06
-2.5903e+06
-3.6999e+06
-2.75648e+06
-3.89339e+06
0
0
0
0
0
0
0
0
0
0
0
0
0
0
0
0
0
0
-2.85522e+06
-1.54276e+06
-3.07497e+06
-2.12026e+06
-3.40413e+06
-2.62092e+06
-3.72477e+06
-2.89914e+06
-3.97663e+06
-2.77008e+06
-1.57168e+06
-3.0054e+06
-1.95827e+06
-3.20364e+06
-2.13336e+06
-3.30193e+06
-1.84548e+06
-3.3562e+06
-2.83949e+06
-1.50021e+06
-3.01584e+06
-1.94655e+06
-3.22101e+06
-2.25069e+06
-3.39926e+06
-2.1952e+06
-3.46392e+06
-5.70844e+06
-2.87776e+06
-5.9948e+06
-3.81652e+06
-6.64048e+06
-5.0267e+06
-7.51156e+06
-6.21218e+06
-8.42924e+06
)
;

boundaryField
{
    inlet
    {
        type            calculated;
        value           uniform 0;
    }
    outlet
    {
        type            calculated;
        value           nonuniform 0();
    }
    wall
    {
        type            calculated;
        value           uniform 0;
    }
    procBoundary6to0
    {
        type            processor;
        value           uniform 0;
    }
    procBoundary6to2
    {
        type            processor;
        value           uniform 0;
    }
    procBoundary6to4
    {
        type            processor;
        value           uniform 0;
    }
    procBoundary6to7
    {
        type            processor;
        value           uniform 0;
    }
}


// ************************************************************************* //
