/*--------------------------------*- C++ -*----------------------------------*\
| =========                 |                                                 |
| \\      /  F ield         | OpenFOAM: The Open Source CFD Toolbox           |
|  \\    /   O peration     | Version:  4.x                                   |
|   \\  /    A nd           | Web:      www.OpenFOAM.org                      |
|    \\/     M anipulation  |                                                 |
\*---------------------------------------------------------------------------*/
FoamFile
{
    version     2.0;
    format      ascii;
    class       volScalarField;
    location    "2";
    object      SPartFluid;
}
// * * * * * * * * * * * * * * * * * * * * * * * * * * * * * * * * * * * * * //

dimensions      [1 -3 -1 0 0 0 0];

internalField   nonuniform List<scalar> 
87
(
6.74265e-65
6.03597e-65
7.12907e-65
4.95002e-65
5.96052e-65
4.95828e-65
1.03666e-64
7.57056e-65
4.93643e-65
7.39874e-65
9.32781e-65
5.55579e-65
7.87732e-65
6.49758e-65
8.521e-65
5.80223e-65
7.88291e-65
6.40458e-65
8.48191e-65
7.33024e-65
7.56705e-65
7.26403e-65
8.58397e-65
7.58942e-65
4.95441e-65
7.18918e-65
5.40615e-65
6.09226e-65
7.57258e-65
8.73325e-65
6.34042e-65
6.80842e-65
7.51198e-65
7.96978e-65
7.64805e-65
7.87126e-65
7.24851e-65
5.39903e-65
7.02118e-65
6.25558e-65
5.87502e-65
7.89643e-65
5.64802e-65
7.26418e-65
6.79445e-65
7.17468e-65
5.94435e-65
5.55915e-65
7.57261e-65
5.87533e-65
7.74149e-65
5.18682e-65
6.7264e-65
5.56217e-65
7.56766e-65
7.26312e-65
5.95013e-65
6.4949e-65
6.11064e-65
5.65223e-65
4.72125e-65
5.25669e-65
5.94621e-65
6.86888e-65
6.48399e-65
6.40903e-65
8.65439e-65
8.73739e-65
3.79176e-65
6.03765e-65
5.48994e-65
6.79939e-65
5.63782e-65
8.57262e-65
5.64046e-65
6.72434e-65
5.8002e-65
7.81756e-65
4.41432e-65
6.26411e-65
6.10706e-65
6.41345e-65
4.94769e-65
8.19508e-65
4.79566e-65
5.10707e-65
6.03958e-65
)
;

boundaryField
{
    inlet
    {
        type            calculated;
        value           uniform 0;
    }
    outlet
    {
        type            calculated;
        value           nonuniform 0();
    }
    wall
    {
        type            calculated;
        value           uniform 0;
    }
    procBoundary6to0
    {
        type            processor;
        value           uniform 2.32777e-65;
    }
    procBoundary6to2
    {
        type            processor;
        value           nonuniform List<scalar> 
32
(
4.88831e-65
7.4348e-65
8.37472e-65
8.2787e-65
4.87815e-65
6.74152e-65
4.79637e-65
8.10994e-65
8.33252e-65
6.55429e-65
6.39956e-65
6.24796e-65
6.26013e-65
7.74097e-65
7.74097e-65
7.74097e-65
6.8889e-65
6.87841e-65
7.64368e-65
6.48083e-65
7.17736e-65
6.87255e-65
8.3492e-65
8.3492e-65
8.3492e-65
5.26419e-65
6.49547e-65
6.25754e-65
7.10307e-65
5.48643e-65
6.33748e-65
6.33748e-65
)
;
    }
    procBoundary6to4
    {
        type            processor;
        value           nonuniform List<scalar> 
27
(
4.33158e-65
5.71551e-65
7.55742e-65
5.1622e-65
7.31974e-65
6.01598e-65
9.42529e-65
6.03292e-65
5.96506e-65
6.65383e-65
7.18505e-65
5.93895e-65
8.4819e-65
8.40402e-65
6.79021e-65
9.26852e-65
8.19608e-65
6.81351e-65
7.73922e-65
7.03418e-65
5.79188e-65
7.79351e-65
7.09948e-65
9.18715e-65
4.48183e-65
4.87254e-65
6.34828e-65
)
;
    }
    procBoundary6to7
    {
        type            processor;
        value           nonuniform List<scalar> 
12
(
7.68624e-65
5.5077e-65
5.11795e-65
3.95751e-65
5.81511e-65
5.58021e-65
8.05955e-65
7.05099e-65
5.26798e-65
6.89406e-65
5.96419e-65
6.27452e-65
)
;
    }
}


// ************************************************************************* //
