/*--------------------------------*- C++ -*----------------------------------*\
| =========                 |                                                 |
| \\      /  F ield         | OpenFOAM: The Open Source CFD Toolbox           |
|  \\    /   O peration     | Version:  4.x                                   |
|   \\  /    A nd           | Web:      www.OpenFOAM.org                      |
|    \\/     M anipulation  |                                                 |
\*---------------------------------------------------------------------------*/
FoamFile
{
    version     2.0;
    format      ascii;
    class       volVectorField;
    location    "2";
    object      UsNext;
}
// * * * * * * * * * * * * * * * * * * * * * * * * * * * * * * * * * * * * * //

dimensions      [0 1 -1 0 0 0 0];

internalField   nonuniform List<vector> 
87
(
(0.000165621 -2.05893e-06 -7.65203e-05)
(0.000133743 1.68036e-05 -3.27243e-05)
(0.000141106 -7.62664e-06 -5.31161e-05)
(4.21915e-05 7.80336e-07 -1.15642e-05)
(6.58972e-05 4.36731e-06 -1.54627e-05)
(3.69078e-05 -1.99015e-06 -1.21395e-05)
(1.41423e-05 -8.13168e-07 3.15085e-06)
(2.79251e-05 -6.55883e-06 6.53913e-06)
(5.21595e-05 -1.97476e-06 3.96303e-06)
(7.31836e-05 4.51135e-06 6.66238e-06)
(0.000121257 5.2286e-06 3.07641e-06)
(0.000141868 1.56472e-05 -1.94699e-05)
(0.000148898 2.08083e-05 -2.48523e-05)
(0.00014182 1.70047e-05 -4.04082e-05)
(0.000142151 -2.74018e-06 -5.57039e-05)
(1.40563e-05 8.5162e-07 3.974e-07)
(2.31912e-05 -5.24926e-06 6.34441e-06)
(4.47705e-05 -2.34141e-06 6.80281e-06)
(6.69403e-05 4.75262e-07 1.00101e-05)
(8.13548e-05 -4.33364e-06 8.52863e-06)
(0.000100023 2.58798e-06 -4.70015e-06)
(0.000113026 1.61647e-05 -1.27935e-05)
(0.000114454 1.45316e-05 -1.95695e-05)
(0.000123048 -5.30961e-06 -4.27087e-05)
(3.54409e-06 -5.86943e-07 2.67481e-06)
(1.2677e-05 -7.09303e-06 4.41533e-06)
(1.5378e-05 -9.52906e-07 4.7234e-08)
(2.95944e-05 -7.61095e-06 2.83594e-06)
(3.12451e-05 -5.66032e-06 2.5336e-06)
(4.9299e-05 -1.57837e-06 -3.45481e-06)
(5.08851e-05 5.40585e-06 -1.20745e-05)
(3.76674e-05 1.47923e-06 -1.3189e-05)
(6.24425e-05 -4.67009e-06 -1.68807e-05)
(4.69191e-06 -3.11859e-07 3.83685e-07)
(2.38324e-05 -5.1319e-06 -1.42344e-06)
(4.21444e-05 -6.54896e-06 -3.53553e-06)
(4.90014e-05 -5.60678e-06 2.17754e-06)
(6.2698e-05 -2.02383e-06 2.06021e-06)
(9.37255e-05 -1.30479e-06 -6.65946e-06)
(0.000105884 7.95935e-06 -9.82757e-06)
(0.000115647 1.18022e-05 -2.70044e-05)
(0.000109221 -3.92714e-06 -3.69753e-05)
(7.30514e-06 -5.10103e-07 -5.60353e-07)
(2.12825e-05 -5.48101e-06 2.32277e-06)
(3.53814e-05 -8.13112e-06 2.56386e-06)
(4.71301e-05 -8.96626e-06 4.81585e-06)
(4.57348e-05 -4.07237e-06 7.46929e-06)
(7.48561e-05 -3.7184e-06 -7.71926e-06)
(8.38169e-05 8.79846e-06 -3.33361e-06)
(8.43317e-05 1.10106e-05 -1.99199e-06)
(0.000106507 -3.12241e-06 -3.95593e-05)
(1.57382e-06 -5.56307e-07 -3.29342e-07)
(2.42984e-06 -8.07732e-06 -1.00023e-06)
(1.55188e-05 -3.35771e-06 -1.33944e-06)
(1.67467e-05 -4.34651e-06 2.5075e-06)
(1.89628e-05 -4.08789e-06 3.35076e-06)
(2.20908e-05 -5.24828e-06 -2.30034e-06)
(2.94534e-05 2.78296e-06 -2.71237e-06)
(3.4808e-05 -5.39719e-07 -4.6285e-06)
(4.94753e-05 3.27724e-07 -2.23355e-05)
(3.92072e-06 5.07614e-07 4.36978e-08)
(8.03135e-06 -1.69303e-06 -3.47283e-07)
(2.30948e-05 1.37746e-06 -2.18898e-06)
(2.7993e-05 -4.83476e-07 -1.28003e-06)
(4.30563e-05 -3.75252e-06 -2.41591e-06)
(6.283e-05 1.65485e-06 -5.62249e-06)
(7.08894e-05 8.46064e-06 -4.64594e-06)
(6.89047e-05 1.57678e-05 -8.97515e-06)
(6.88346e-05 2.48556e-05 -3.40341e-06)
(2.84501e-06 4.14276e-07 -7.85508e-07)
(7.65019e-06 -1.14904e-06 -2.80403e-07)
(6.14962e-06 -3.93203e-06 -1.50509e-06)
(1.9782e-05 -3.17844e-06 9.37713e-07)
(2.87032e-05 -4.65954e-06 6.11695e-07)
(3.4945e-05 -4.04124e-06 -5.37974e-07)
(4.4207e-05 -1.49913e-06 2.11541e-06)
(3.6489e-05 1.97088e-05 -2.87982e-06)
(4.59713e-05 1.56316e-05 -2.06341e-05)
(-3.75331e-06 -7.13457e-07 -4.16959e-07)
(2.35267e-06 3.91798e-07 -8.06933e-08)
(3.01e-06 -2.37804e-06 -1.42849e-06)
(6.21109e-06 -2.14629e-06 -8.11204e-07)
(8.22448e-06 -4.26951e-07 1.39409e-06)
(1.41171e-05 -2.3264e-06 -1.89667e-06)
(1.62891e-05 1.09311e-06 8.65246e-08)
(1.51942e-05 4.25113e-06 3.36181e-06)
(2.41658e-05 3.51156e-06 -1.91388e-05)
)
;

boundaryField
{
    inlet
    {
        type            calculated;
        value           nonuniform List<vector> 9((1.41423e-05 -8.13168e-07 3.15085e-06) (1.40563e-05 8.5162e-07 3.974e-07) (3.54409e-06 -5.86943e-07 2.67481e-06) (4.69191e-06 -3.11859e-07 3.83685e-07) (7.30514e-06 -5.10103e-07 -5.60353e-07) (1.57382e-06 -5.56307e-07 -3.29342e-07) (3.92072e-06 5.07614e-07 4.36978e-08) (2.84501e-06 4.14276e-07 -7.85508e-07) (-3.75331e-06 -7.13457e-07 -4.16959e-07));
    }
    outlet
    {
        type            calculated;
        value           nonuniform 0();
    }
    wall
    {
        type            calculated;
        value           nonuniform List<vector> 
57
(
(3.92072e-06 5.07614e-07 4.36978e-08)
(2.84501e-06 4.14276e-07 -7.85508e-07)
(-3.75331e-06 -7.13457e-07 -4.16959e-07)
(8.03135e-06 -1.69303e-06 -3.47283e-07)
(7.65019e-06 -1.14904e-06 -2.80403e-07)
(2.35267e-06 3.91798e-07 -8.06933e-08)
(2.30948e-05 1.37746e-06 -2.18898e-06)
(6.14962e-06 -3.93203e-06 -1.50509e-06)
(3.01e-06 -2.37804e-06 -1.42849e-06)
(2.7993e-05 -4.83476e-07 -1.28003e-06)
(1.9782e-05 -3.17844e-06 9.37713e-07)
(6.21109e-06 -2.14629e-06 -8.11204e-07)
(4.30563e-05 -3.75252e-06 -2.41591e-06)
(2.87032e-05 -4.65954e-06 6.11695e-07)
(8.22448e-06 -4.26951e-07 1.39409e-06)
(6.283e-05 1.65485e-06 -5.62249e-06)
(3.4945e-05 -4.04124e-06 -5.37974e-07)
(1.41171e-05 -2.3264e-06 -1.89667e-06)
(7.08894e-05 8.46064e-06 -4.64594e-06)
(4.4207e-05 -1.49913e-06 2.11541e-06)
(1.62891e-05 1.09311e-06 8.65246e-08)
(6.89047e-05 1.57678e-05 -8.97515e-06)
(3.6489e-05 1.97088e-05 -2.87982e-06)
(1.51942e-05 4.25113e-06 3.36181e-06)
(6.88346e-05 2.48556e-05 -3.40341e-06)
(4.59713e-05 1.56316e-05 -2.06341e-05)
(2.41658e-05 3.51156e-06 -1.91388e-05)
(3.54409e-06 -5.86943e-07 2.67481e-06)
(1.57382e-06 -5.56307e-07 -3.29342e-07)
(-3.75331e-06 -7.13457e-07 -4.16959e-07)
(1.2677e-05 -7.09303e-06 4.41533e-06)
(2.42984e-06 -8.07732e-06 -1.00023e-06)
(2.35267e-06 3.91798e-07 -8.06933e-08)
(1.5378e-05 -9.52906e-07 4.7234e-08)
(1.55188e-05 -3.35771e-06 -1.33944e-06)
(3.01e-06 -2.37804e-06 -1.42849e-06)
(2.95944e-05 -7.61095e-06 2.83594e-06)
(1.67467e-05 -4.34651e-06 2.5075e-06)
(6.21109e-06 -2.14629e-06 -8.11204e-07)
(3.12451e-05 -5.66032e-06 2.5336e-06)
(1.89628e-05 -4.08789e-06 3.35076e-06)
(8.22448e-06 -4.26951e-07 1.39409e-06)
(4.9299e-05 -1.57837e-06 -3.45481e-06)
(2.20908e-05 -5.24828e-06 -2.30034e-06)
(1.41171e-05 -2.3264e-06 -1.89667e-06)
(4.21915e-05 7.80336e-07 -1.15642e-05)
(5.08851e-05 5.40585e-06 -1.20745e-05)
(2.94534e-05 2.78296e-06 -2.71237e-06)
(1.62891e-05 1.09311e-06 8.65246e-08)
(6.58972e-05 4.36731e-06 -1.54627e-05)
(3.76674e-05 1.47923e-06 -1.3189e-05)
(3.4808e-05 -5.39719e-07 -4.6285e-06)
(1.51942e-05 4.25113e-06 3.36181e-06)
(3.69078e-05 -1.99015e-06 -1.21395e-05)
(6.24425e-05 -4.67009e-06 -1.68807e-05)
(4.94753e-05 3.27724e-07 -2.23355e-05)
(2.41658e-05 3.51156e-06 -1.91388e-05)
)
;
    }
    procBoundary6to0
    {
        type            processor;
        value           uniform (0.00019474 -2.92077e-06 -9.68496e-05);
    }
    procBoundary6to2
    {
        type            processor;
        value           nonuniform List<vector> 
32
(
(0.000192588 1.06551e-06 -9.17995e-05)
(0.000136548 7.51515e-06 -4.17755e-05)
(0.000151851 -3.54936e-06 -5.93449e-05)
(6.3906e-05 -4.24198e-06 -2.11604e-05)
(7.268e-05 -6.17378e-06 -9.35518e-06)
(8.90643e-05 2.19857e-06 -2.58373e-05)
(1.01952e-05 -5.45067e-07 5.59582e-06)
(3.50208e-05 -4.35589e-06 1.0495e-05)
(6.38909e-05 -2.4269e-06 2.04489e-05)
(9.29739e-05 4.7799e-06 1.89385e-05)
(0.000123429 9.99678e-06 1.22015e-05)
(0.00015421 1.14293e-05 -1.76419e-05)
(0.000170948 2.469e-05 -3.15792e-05)
(0.000159546 1.00983e-05 -5.56243e-05)
(0.000159546 1.00983e-05 -5.56243e-05)
(0.000159546 1.00983e-05 -5.56243e-05)
(7.76324e-06 -4.54779e-07 3.6608e-06)
(3.28251e-05 -7.20628e-06 8.97434e-06)
(4.88665e-05 -6.96457e-06 1.85563e-05)
(7.49589e-05 -3.4957e-06 2.04271e-05)
(0.000101204 -1.90206e-06 5.35908e-06)
(0.000113237 6.11078e-06 -9.01815e-06)
(0.000113463 1.1903e-05 -1.55422e-05)
(0.000113463 1.1903e-05 -1.55422e-05)
(0.000113463 1.1903e-05 -1.55422e-05)
(3.86612e-06 -2.5195e-06 4.6405e-06)
(1.0846e-05 -4.22173e-06 8.77513e-06)
(2.45929e-05 -1.9374e-06 1.04739e-05)
(2.76379e-05 -7.62268e-06 4.38193e-06)
(5.46788e-05 -4.51656e-06 6.11428e-06)
(4.42163e-05 -3.14612e-06 -5.78608e-06)
(4.42163e-05 -3.14612e-06 -5.78608e-06)
)
;
    }
    procBoundary6to4
    {
        type            processor;
        value           nonuniform List<vector> 
27
(
(8.49763e-06 1.17946e-06 5.17189e-06)
(2.55882e-05 1.28183e-06 6.44856e-06)
(4.89617e-05 -5.37483e-06 6.35015e-06)
(7.1242e-05 2.96564e-07 -1.08142e-06)
(0.00011851 1.83759e-05 1.21032e-06)
(0.000164626 2.15299e-05 -1.47787e-05)
(0.000157758 2.27719e-05 -3.70625e-05)
(0.000159971 2.31731e-05 -4.88893e-05)
(0.000146045 3.72973e-06 -5.43205e-05)
(4.82363e-06 1.23859e-06 1.55638e-06)
(1.48973e-05 2.24095e-06 1.45591e-06)
(3.90523e-05 -4.05966e-06 -3.29326e-06)
(5.2138e-05 -2.33791e-06 -3.25029e-06)
(6.61536e-05 8.35334e-06 -6.62394e-06)
(0.000120916 2.04942e-05 -1.00615e-05)
(0.000109538 2.22899e-05 -2.90542e-05)
(0.000106386 1.94319e-05 -2.51373e-05)
(9.46132e-05 2.14825e-06 -1.0895e-05)
(4.66852e-06 -9.95098e-07 -5.74054e-07)
(9.18145e-06 2.81859e-06 -2.33046e-06)
(2.20059e-05 7.28795e-06 -2.7107e-06)
(2.61707e-05 -8.97133e-07 -2.39664e-06)
(3.79461e-05 -6.46306e-06 -8.49569e-06)
(5.97407e-05 -1.75464e-07 -8.87083e-06)
(4.35267e-05 1.25501e-05 -6.12812e-06)
(5.92107e-06 6.40819e-05 -3.06416e-06)
(6.31076e-05 1.79298e-05 -7.83837e-06)
)
;
    }
    procBoundary6to7
    {
        type            processor;
        value           nonuniform List<vector> 
12
(
(0.000157607 -1.93592e-05 -8.67969e-05)
(0.000134293 -2.09168e-05 -6.261e-05)
(9.47083e-05 -4.65243e-05 -2.7564e-05)
(0.000133115 -1.91821e-05 -6.18126e-05)
(0.000121436 -1.32666e-05 -5.04513e-05)
(6.85408e-05 -2.43924e-05 -1.82136e-05)
(9.63868e-05 -9.53069e-06 -3.28368e-05)
(9.03327e-05 -8.96875e-06 -2.87481e-05)
(4.26765e-05 -2.15672e-06 -1.41581e-05)
(4.87502e-05 2.63837e-06 -1.68394e-05)
(2.90424e-05 6.0183e-06 -7.90953e-06)
(1.64559e-05 -4.6151e-06 -5.3979e-06)
)
;
    }
}


// ************************************************************************* //
