/*--------------------------------*- C++ -*----------------------------------*\
| =========                 |                                                 |
| \\      /  F ield         | OpenFOAM: The Open Source CFD Toolbox           |
|  \\    /   O peration     | Version:  4.x                                   |
|   \\  /    A nd           | Web:      www.OpenFOAM.org                      |
|    \\/     M anipulation  |                                                 |
\*---------------------------------------------------------------------------*/
FoamFile
{
    version     2.0;
    format      ascii;
    class       volVectorField;
    location    "6";
    object      ddtUrel;
}
// * * * * * * * * * * * * * * * * * * * * * * * * * * * * * * * * * * * * * //

dimensions      [0 1 -2 0 0 0 0];

internalField   nonuniform List<vector> 
87
(
(2.00773e-05 8.45651e-07 -1.29179e-05)
(1.31543e-05 1.1827e-06 -1.15817e-05)
(6.96515e-06 2.88342e-07 -8.98679e-06)
(-2.39034e-05 -8.6248e-07 -8.03986e-06)
(-6.50045e-05 -2.9156e-07 -1.02135e-05)
(-0.000110986 5.98188e-07 -8.11383e-06)
(-0.000221512 1.0478e-06 -8.23493e-06)
(-0.000268754 3.59009e-06 -1.02817e-05)
(-0.000238793 5.66082e-06 -1.50736e-05)
(2.62695e-05 1.17668e-06 -1.18025e-05)
(1.25227e-05 1.18186e-06 -1.14766e-05)
(1.37177e-06 -3.8964e-07 -9.06661e-06)
(-2.3779e-05 -1.3285e-06 -7.75935e-06)
(-6.42643e-05 -4.4013e-07 -8.34422e-06)
(-0.000126681 1.82205e-07 -8.38894e-06)
(-0.000240168 1.30931e-06 -8.77275e-06)
(-0.000302481 6.35761e-06 -8.68274e-06)
(-0.000252964 8.72111e-06 -1.30461e-05)
(3.17035e-05 9.97681e-07 -1.09291e-05)
(1.77597e-05 6.14712e-07 -1.07053e-05)
(1.21073e-06 -4.66502e-07 -9.89906e-06)
(-2.58362e-05 -8.20898e-07 -8.43122e-06)
(-7.39334e-05 -2.02192e-07 -9.21105e-06)
(-0.000132734 6.62431e-07 -8.42059e-06)
(-0.000250935 2.31887e-06 -8.80251e-06)
(-0.000313745 6.78683e-06 -7.97095e-06)
(-0.000250171 9.97294e-06 -1.25271e-05)
(1.79558e-05 6.18747e-07 -1.20781e-05)
(1.09621e-05 6.42046e-08 -1.01588e-05)
(7.13817e-07 -5.5544e-07 -9.29354e-06)
(-3.01485e-05 -1.20577e-06 -9.00436e-06)
(-7.4497e-05 -7.00056e-07 -9.62443e-06)
(-0.000127714 8.06127e-07 -1.03919e-05)
(-0.000240994 1.09642e-06 -1.08837e-05)
(-0.000290548 1.83343e-06 -1.13741e-05)
(-0.000252565 3.30196e-06 -1.44528e-05)
(2.18703e-05 7.33543e-07 -1.16574e-05)
(1.16278e-05 6.42562e-07 -1.12141e-05)
(-2.79484e-06 -3.84835e-07 -9.8164e-06)
(-3.11227e-05 -1.20703e-06 -9.19278e-06)
(-7.45837e-05 -3.50651e-07 -9.88385e-06)
(-0.000138289 5.25959e-07 -1.03141e-05)
(-0.000263432 1.96864e-06 -1.03444e-05)
(-0.000320792 5.67697e-06 -9.97457e-06)
(-0.000268606 5.85029e-06 -1.40571e-05)
(2.46955e-05 5.04577e-07 -1.11808e-05)
(1.31756e-05 5.44685e-08 -1.13835e-05)
(-2.86541e-06 -4.93053e-07 -1.09127e-05)
(-3.23607e-05 -6.59933e-07 -1.00148e-05)
(-7.73872e-05 4.92862e-08 -1.04037e-05)
(-0.000143356 9.56951e-07 -1.06451e-05)
(-0.000272278 2.73773e-06 -1.03509e-05)
(-0.000334999 5.59823e-06 -9.26634e-06)
(-0.000275549 6.88441e-06 -1.36696e-05)
(1.37655e-05 -5.39256e-07 -1.2414e-05)
(1.04942e-05 -1.7143e-06 -1.13713e-05)
(2.99446e-06 -1.40757e-06 -1.11067e-05)
(-2.56292e-05 -4.54729e-07 -1.12439e-05)
(-7.78648e-05 -1.16974e-07 -1.21063e-05)
(-0.000138189 1.4329e-06 -1.26425e-05)
(-0.000256021 2.81062e-06 -1.36664e-05)
(-0.000311519 3.68712e-06 -1.36791e-05)
(-0.000263334 3.40233e-06 -1.42813e-05)
(1.98137e-05 1.766e-07 -1.29411e-05)
(9.69214e-06 -7.24497e-07 -1.26662e-05)
(-5.55265e-06 -1.62764e-06 -1.23264e-05)
(-3.3473e-05 -8.09796e-07 -1.19521e-05)
(-7.93689e-05 1.13952e-07 -1.22825e-05)
(-0.000146734 5.53951e-07 -1.30197e-05)
(-0.000273899 3.54569e-06 -1.38869e-05)
(-0.000332253 5.964e-06 -1.26974e-05)
(-0.00027481 4.3565e-06 -1.30644e-05)
(2.04133e-05 -3.00621e-07 -1.33381e-05)
(1.22588e-05 -2.36224e-07 -1.33608e-05)
(-6.46889e-06 -2.41292e-07 -1.32784e-05)
(-3.774e-05 -4.00038e-07 -1.31293e-05)
(-8.06198e-05 -1.35087e-07 -1.31852e-05)
(-0.000148948 2.91908e-07 -1.35156e-05)
(-0.000281961 1.99685e-06 -1.38255e-05)
(-0.000340372 3.72379e-06 -1.18247e-05)
(-0.000279235 3.34982e-06 -1.2315e-05)
(1.65361e-05 -8.02514e-07 -1.48441e-05)
(1.539e-05 -1.74489e-06 -1.51357e-05)
(7.97814e-07 -1.57859e-06 -1.44854e-05)
(2.08363e-05 -4.73853e-07 -1.56474e-05)
(1.14742e-05 -1.12705e-06 -1.56161e-05)
(1.97784e-05 -2.65961e-07 -1.65135e-05)
)
;

boundaryField
{
    inlet
    {
        type            calculated;
        value           nonuniform 0();
    }
    outlet
    {
        type            calculated;
        value           nonuniform List<vector> 9((8.75106e-06 8.97162e-06 -3.72826e-05) (3.84071e-05 3.48852e-05 -2.14664e-05) (0.000136559 4.62957e-05 -3.29127e-05) (-1.91271e-05 -9.05075e-06 -2.70316e-05) (-2.99048e-05 3.96512e-06 -3.68515e-05) (-6.52296e-05 1.44461e-05 -4.09278e-05) (-2.71137e-05 -8.32925e-06 -2.69463e-05) (3.76163e-06 2.26812e-06 -2.63846e-05) (-1.98187e-05 -4.32457e-06 -2.05653e-05));
    }
    wall
    {
        type            calculated;
        value           nonuniform List<vector> 
57
(
(-4.36366e-07 -2.58346e-06 -1.8778e-05)
(0.000122422 -1.25482e-07 -1.04866e-05)
(0.000122304 -7.79252e-06 -7.53807e-06)
(-5.85684e-05 7.54109e-06 -3.66822e-05)
(-3.28093e-05 1.18676e-05 -2.43111e-05)
(5.33535e-05 2.51848e-07 -1.80872e-05)
(0.000152673 2.10907e-06 -9.27681e-06)
(8.01047e-05 -5.50981e-06 9.01626e-07)
(6.77712e-05 -4.20145e-06 -1.03071e-05)
(2.05739e-05 -1.13592e-05 -2.1407e-06)
(9.65412e-05 -1.51038e-05 6.98263e-06)
(7.83383e-05 -4.23277e-06 4.13823e-06)
(-5.49754e-05 -3.64621e-06 -3.56085e-05)
(0.000149809 2.37171e-06 9.76851e-06)
(-0.000163508 -5.97892e-06 -1.35074e-05)
(0.000264941 4.1976e-06 1.04299e-05)
(9.00379e-05 -1.10224e-05 4.45251e-07)
(0.000119908 -5.17886e-06 7.32198e-06)
(-0.000250809 -3.59551e-06 9.6255e-07)
(-0.000314508 -2.53796e-05 -5.79914e-06)
(-0.000330075 -8.33566e-06 -2.72022e-06)
(-0.000302064 1.66725e-05 -7.58818e-06)
(-0.000617637 3.39943e-05 1.82259e-05)
(-0.000611209 2.32531e-05 2.6941e-05)
(-8.12449e-08 1.25905e-05 -3.09038e-05)
(-5.06151e-05 5.23556e-05 -1.16474e-05)
(0.000193184 4.45699e-05 9.37909e-06)
(0.000123593 -2.44976e-06 -1.66212e-05)
(4.06028e-05 5.18538e-06 -8.4545e-06)
(-4.17095e-05 -2.15339e-06 -1.12656e-06)
(-2.09127e-05 1.10276e-06 -1.16213e-05)
(0.000162601 7.56003e-06 -7.54792e-06)
(1.06999e-05 2.98698e-07 5.52232e-06)
(1.00777e-05 -1.47274e-05 4.58044e-06)
(0.00015688 -7.90374e-06 -1.95289e-05)
(0.000243365 7.368e-06 9.60333e-06)
(0.000108148 -1.40568e-06 1.87539e-06)
(0.000179745 -3.64845e-06 6.79898e-07)
(0.000149589 -2.78454e-06 -1.2624e-05)
(5.71957e-05 -3.24545e-06 6.49376e-06)
(-1.65298e-05 -8.35429e-06 -3.33303e-06)
(0.000199768 8.2345e-06 -4.41313e-06)
(2.80125e-05 1.49819e-06 -2.94245e-05)
(-9.18777e-05 -8.05045e-06 1.0289e-06)
(-8.52194e-05 -2.34489e-07 -1.4627e-05)
(0.000293947 6.57056e-06 4.55046e-06)
(0.000126664 5.71199e-06 -9.98975e-06)
(0.000129971 1.83664e-05 -1.41778e-05)
(-0.000311478 -8.34277e-06 6.20162e-06)
(-0.000422931 -8.73683e-06 -8.81523e-06)
(-0.000449196 6.91266e-06 -1.73664e-05)
(-0.000345552 -1.88164e-06 -1.72875e-06)
(-0.00052381 -3.00708e-05 -2.56959e-06)
(-0.000733199 2.85149e-06 -2.21385e-05)
(-7.11186e-05 1.5514e-05 -3.9811e-05)
(-8.36082e-05 -2.05994e-05 -1.91177e-05)
(-0.000128807 -2.21295e-05 -2.85103e-05)
)
;
    }
    procBoundary1to0
    {
        type            processor;
        value           nonuniform List<vector> 
12
(
(1.2035e-05 1.48812e-06 -1.47457e-05)
(2.63445e-05 2.30235e-06 -1.31105e-05)
(3.77908e-05 6.32317e-07 -1.20636e-05)
(2.13716e-05 4.98842e-07 -1.44779e-05)
(2.67478e-05 5.91762e-07 -1.32361e-05)
(3.12957e-05 1.94669e-07 -1.21254e-05)
(2.03731e-05 -2.13004e-07 -1.42977e-05)
(2.66973e-05 -2.20511e-07 -1.44632e-05)
(2.77201e-05 -3.41021e-07 -1.48594e-05)
(2.30836e-05 -4.13024e-07 -1.5533e-05)
(2.82245e-05 -4.74704e-07 -1.62354e-05)
(2.77309e-05 -1.45113e-07 -1.71486e-05)
)
;
    }
    procBoundary1to3
    {
        type            processor;
        value           nonuniform List<vector> 
27
(
(3.43296e-05 3.92522e-06 -1.1024e-05)
(1.80042e-05 1.50115e-06 -1.13338e-05)
(1.37848e-06 4.00746e-07 -1.06602e-05)
(-2.19637e-05 -6.18737e-07 -8.75399e-06)
(-6.13674e-05 -6.25188e-07 -8.94025e-06)
(-0.000131124 7.61776e-07 -9.72136e-06)
(-0.000256753 2.18919e-06 -9.32988e-06)
(-0.00031486 4.22628e-06 -8.24432e-06)
(-0.000251781 3.95649e-06 -1.07142e-05)
(2.41746e-05 1.58618e-06 -1.1849e-05)
(1.23576e-05 4.11621e-07 -1.17787e-05)
(-4.6301e-06 5.42912e-08 -1.10653e-05)
(-3.1457e-05 -1.2142e-07 -1.04782e-05)
(-7.38791e-05 -3.77498e-08 -1.10218e-05)
(-0.000142576 6.24444e-07 -1.19913e-05)
(-0.000274248 1.74637e-06 -1.08439e-05)
(-0.000328999 3.53475e-06 -9.63949e-06)
(-0.000265219 4.53185e-06 -1.42942e-05)
(1.90656e-05 4.01126e-07 -1.42376e-05)
(9.2951e-06 2.49713e-07 -1.38814e-05)
(-7.93688e-06 9.60904e-07 -1.35558e-05)
(-3.70285e-05 4.24222e-07 -1.39944e-05)
(-7.9912e-05 -6.52686e-08 -1.41748e-05)
(-0.000148697 2.79781e-07 -1.42367e-05)
(-0.000284033 3.76079e-07 -1.45465e-05)
(-0.000338924 1.23233e-06 -1.25599e-05)
(-0.000276346 1.75969e-06 -1.29888e-05)
)
;
    }
    procBoundary1to5
    {
        type            processor;
        value           nonuniform List<vector> 
32
(
(-3.13547e-05 -1.56884e-06 -1.38635e-05)
(-7.41259e-05 -9.67912e-07 -1.38079e-05)
(-0.000142535 -2.19855e-07 -1.46749e-05)
(-0.000246355 2.52864e-06 -1.55536e-05)
(-0.000301111 4.67466e-06 -1.45268e-05)
(-0.000259481 3.87453e-06 -1.24764e-05)
(-5.47117e-06 -1.37047e-06 -1.4964e-05)
(-3.61287e-05 -1.09583e-06 -1.49952e-05)
(-8.02715e-05 -6.2908e-07 -1.50096e-05)
(-0.000148565 -3.87654e-07 -1.55422e-05)
(-0.000274089 3.05213e-06 -1.65032e-05)
(-0.000329724 5.28721e-06 -1.43007e-05)
(-0.000270964 3.62687e-06 -1.22229e-05)
(1.00728e-05 -1.16106e-07 -1.59866e-05)
(-8.37077e-06 -4.29509e-08 -1.5307e-05)
(-3.78988e-05 -2.58381e-07 -1.57222e-05)
(-8.19436e-05 -3.41252e-07 -1.58208e-05)
(-0.000150901 -1.69581e-08 -1.58144e-05)
(-0.000282783 1.6914e-06 -1.62335e-05)
(-0.000339596 3.05893e-06 -1.37788e-05)
(-0.000273192 2.24091e-06 -1.18023e-05)
(1.7727e-05 -1.09625e-06 -1.72192e-05)
(1.42916e-05 -1.79293e-06 -1.74425e-05)
(-3.13547e-05 -1.56884e-06 -1.38635e-05)
(-5.47117e-06 -1.37047e-06 -1.4964e-05)
(-2.8659e-06 -1.57949e-06 -1.69008e-05)
(2.0464e-05 -4.42739e-07 -1.78857e-05)
(-5.47117e-06 -1.37047e-06 -1.4964e-05)
(1.00728e-05 -1.16106e-07 -1.59866e-05)
(1.18e-05 -1.34781e-06 -1.76051e-05)
(1.00728e-05 -1.16106e-07 -1.59866e-05)
(2.00625e-05 -2.46814e-07 -1.83525e-05)
)
;
    }
    procBoundary1to7
    {
        type            processor;
        value           uniform (1.85273e-05 5.66349e-07 -1.6843e-05);
    }
}


// ************************************************************************* //
