/*--------------------------------*- C++ -*----------------------------------*\
| =========                 |                                                 |
| \\      /  F ield         | OpenFOAM: The Open Source CFD Toolbox           |
|  \\    /   O peration     | Version:  4.x                                   |
|   \\  /    A nd           | Web:      www.OpenFOAM.org                      |
|    \\/     M anipulation  |                                                 |
\*---------------------------------------------------------------------------*/
FoamFile
{
    version     2.0;
    format      ascii;
    class       volScalarField;
    location    "6";
    object      Ksl;
}
// * * * * * * * * * * * * * * * * * * * * * * * * * * * * * * * * * * * * * //

dimensions      [1 -3 -1 0 0 0 0];

internalField   nonuniform List<scalar> 
87
(
4152.72
2760.96
4543.77
2720.7
4472.61
2425.25
4467.88
2103.68
4414.34
8275.75
3286.74
9142.13
3230.89
8819.84
3227.32
10618.2
3437.71
6148.82
18807.8
3496.03
27230.4
3445.23
84745.1
3263.3
23298.8
3441.65
10018.9
4627.51
2838.35
4869.75
2790.61
5417.85
2577.39
5932.48
2190.01
3109.16
14411.7
3501.78
13558.9
3484.66
15721.3
3528.36
18351.2
3780.28
6089.2
28991.8
3604.09
35235.5
3583.3
19473.5
3621.36
46069.6
3891.56
15138.6
4704.25
2899.28
4682.95
2826.23
5271.28
2626.05
6113.8
2124.85
3356.53
18242.1
3692.93
33470.8
3673.39
60813.1
3699.45
23067.9
3671.19
5064.69
21935
3795.85
48637.6
3780.49
27325.8
3730.93
26110.1
3534.39
11319.7
4309.38
2754.77
4122.65
16052
3804.72
22242.9
)
;

boundaryField
{
    inlet
    {
        type            zeroGradient;
    }
    outlet
    {
        type            zeroGradient;
    }
    wall
    {
        type            zeroGradient;
    }
    procBoundary1to0
    {
        type            processor;
        value           nonuniform List<scalar> 
12
(
2654.42
3226.63
3513.94
2904.72
3577.46
3644.22
3009.27
3760.99
3828.94
2976.07
3820.15
3837.47
)
;
    }
    procBoundary1to3
    {
        type            processor;
        value           nonuniform List<scalar> 
27
(
41311.6
3462.58
44727.7
3322.65
38711.4
2986.28
10115.1
2501.74
6547.25
17952.3
3675.84
21038.2
3663.6
12969.8
3540.67
13163.3
3765.34
6857.72
60352.9
4041.51
62678.2
3902.5
22069.6
3926.8
30720.5
4416.83
34615.9
)
;
    }
    procBoundary1to5
    {
        type            processor;
        value           nonuniform List<scalar> 
32
(
2628.06
4381.6
2392.06
5291.12
1917.51
3200.5
19295.7
3680.55
38984
3575.35
13919.1
3453.15
4221.9
3834.89
48319.8
3741.39
20511.7
3505.76
12906.7
3526.63
10839
5533.41
3114.58
2628.06
19295.7
5660.6
42754.9
19295.7
3834.89
4489.93
3834.89
96861.3
)
;
    }
    procBoundary1to7
    {
        type            processor;
        value           uniform 17900.8;
    }
}


// ************************************************************************* //
