/*--------------------------------*- C++ -*----------------------------------*\
| =========                 |                                                 |
| \\      /  F ield         | OpenFOAM: The Open Source CFD Toolbox           |
|  \\    /   O peration     | Version:  4.x                                   |
|   \\  /    A nd           | Web:      www.OpenFOAM.org                      |
|    \\/     M anipulation  |                                                 |
\*---------------------------------------------------------------------------*/
FoamFile
{
    version     2.0;
    format      ascii;
    class       volScalarField;
    location    "6";
    object      Qsource;
}
// * * * * * * * * * * * * * * * * * * * * * * * * * * * * * * * * * * * * * //

dimensions      [1 -1 -3 0 0 0 0];

internalField   nonuniform List<scalar> 
87
(
5.57775e+09
8.70599e+09
5.29741e+09
8.17376e+09
4.76577e+09
7.43348e+09
6.2519e+09
8.46274e+09
5.5248e+09
4.43686e+09
4.89693e+09
5.3219e+09
6.10169e+09
4.52086e+09
6.73334e+09
6.84535e+09
6.36538e+09
4.41272e+09
3.67141e+09
7.09682e+09
5.17515e+09
9.11351e+09
5.30341e+09
6.00435e+09
4.83707e+09
6.15579e+09
4.15192e+09
7.92453e+09
7.49743e+09
6.84061e+09
8.51138e+09
6.93315e+09
8.83367e+09
9.53412e+09
1.03146e+10
7.45154e+09
9.03027e+09
6.37593e+09
7.31672e+09
8.9147e+09
8.29345e+09
7.25181e+09
8.71654e+09
9.75501e+09
4.96232e+09
8.66349e+09
8.04356e+09
6.67584e+09
6.4389e+09
5.64082e+09
8.7515e+09
8.69519e+09
1.25122e+10
4.04894e+09
8.2331e+09
8.19479e+09
9.37662e+09
1.08161e+10
7.15833e+09
1.11263e+10
8.76833e+09
9.38702e+09
4.55479e+09
9.08465e+09
8.89191e+09
6.2907e+09
7.95779e+09
8.03333e+09
8.95209e+09
7.63396e+09
9.21225e+09
4.17068e+09
8.40527e+09
7.80694e+09
5.42484e+09
1.11054e+10
8.99667e+09
1.06767e+10
7.4278e+09
9.68148e+09
3.26904e+09
7.83501e+09
6.96032e+09
9.63167e+09
8.2554e+09
1.25618e+10
6.14376e+09
)
;

boundaryField
{
    inlet
    {
        type            calculated;
        value           nonuniform 0();
    }
    outlet
    {
        type            calculated;
        value           uniform 0;
    }
    wall
    {
        type            calculated;
        value           uniform 0;
    }
    procBoundary1to0
    {
        type            processor;
        value           nonuniform List<scalar> 
12
(
1.97929e+09
6.10229e+09
8.9594e+09
8.24655e+09
8.35359e+09
6.02893e+09
6.44294e+09
7.73101e+09
5.37775e+09
7.20627e+09
7.00541e+09
9.47677e+09
)
;
    }
    procBoundary1to3
    {
        type            processor;
        value           nonuniform List<scalar> 
27
(
6.82144e+09
4.25103e+09
5.67793e+09
3.7783e+09
4.09882e+09
4.48811e+09
5.47172e+09
5.44733e+09
4.24982e+09
7.98221e+09
7.71855e+09
9.58681e+09
1.01488e+10
8.43839e+09
7.70792e+09
6.81221e+09
8.07344e+09
8.03379e+09
8.35217e+09
1.07737e+10
9.42109e+09
1.03437e+10
6.84417e+09
7.76277e+09
9.39051e+09
7.94596e+09
6.99997e+09
)
;
    }
    procBoundary1to5
    {
        type            processor;
        value           nonuniform List<scalar> 
32
(
9.73615e+09
9.24887e+09
9.4053e+09
7.72764e+09
1.12593e+10
8.85367e+09
7.76708e+09
7.34748e+09
6.28695e+09
8.72324e+09
9.37744e+09
1.1099e+10
7.60525e+09
1.01981e+10
6.33512e+09
8.87643e+09
6.27296e+09
5.47406e+09
7.52298e+09
6.7149e+09
6.74329e+09
7.4268e+09
6.82632e+09
9.73615e+09
7.76708e+09
8.69549e+09
8.23224e+09
7.76708e+09
1.01981e+10
8.24907e+09
1.01981e+10
8.55829e+09
)
;
    }
    procBoundary1to7
    {
        type            processor;
        value           uniform 1.06504e+10;
    }
}


// ************************************************************************* //
