/*--------------------------------*- C++ -*----------------------------------*\
| =========                 |                                                 |
| \\      /  F ield         | OpenFOAM: The Open Source CFD Toolbox           |
|  \\    /   O peration     | Version:  4.x                                   |
|   \\  /    A nd           | Web:      www.OpenFOAM.org                      |
|    \\/     M anipulation  |                                                 |
\*---------------------------------------------------------------------------*/
FoamFile
{
    version     2.0;
    format      ascii;
    class       volScalarField;
    location    "6";
    object      Sm;
}
// * * * * * * * * * * * * * * * * * * * * * * * * * * * * * * * * * * * * * //

dimensions      [1 -3 -1 0 0 0 0];

internalField   nonuniform List<scalar> 
87
(
3.71922e-65
5.88914e-65
3.79695e-65
5.11432e-65
3.25449e-65
4.88134e-65
4.41593e-65
5.035e-65
4.80219e-65
3.64155e-65
3.25437e-65
4.649e-65
4.18409e-65
3.71896e-65
5.03579e-65
6.58378e-65
4.56921e-65
3.94935e-65
3.48643e-65
5.50102e-65
5.50093e-65
7.4378e-65
5.50053e-65
4.33831e-65
4.95654e-65
4.56873e-65
4.49068e-65
6.43091e-65
5.65637e-65
5.34647e-65
6.19882e-65
5.81109e-65
6.58512e-65
8.36578e-65
7.28017e-65
6.35039e-65
7.51528e-65
5.03607e-65
6.43084e-65
6.97305e-65
6.97267e-65
5.65482e-65
7.51277e-65
7.58817e-65
5.49634e-65
8.13447e-65
6.58541e-65
6.19804e-65
5.26824e-65
5.26778e-65
7.35812e-65
8.05406e-65
1.02975e-64
4.87668e-65
7.05059e-65
5.81119e-65
7.67082e-65
7.90317e-65
5.81081e-65
8.44391e-65
7.04863e-65
5.73118e-65
4.18152e-65
7.66971e-65
7.05036e-65
5.65594e-65
6.1207e-65
6.9722e-65
6.9714e-65
6.58244e-65
7.20076e-65
4.41233e-65
7.90167e-65
6.35273e-65
5.11325e-65
9.0642e-65
8.28873e-65
8.75202e-65
6.81396e-65
7.8967e-65
3.48304e-65
6.58556e-65
5.26885e-65
8.05826e-65
7.04996e-65
9.99437e-65
5.73245e-65
)
;

boundaryField
{
    inlet
    {
        type            calculated;
        value           nonuniform 0();
    }
    outlet
    {
        type            calculated;
        value           uniform 0;
    }
    wall
    {
        type            calculated;
        value           uniform 0;
    }
    procBoundary1to0
    {
        type            processor;
        value           nonuniform List<scalar> 
12
(
1.70451e-65
4.26113e-65
7.20501e-65
6.19829e-65
6.73998e-65
4.95797e-65
4.72599e-65
6.27491e-65
4.57033e-65
4.95834e-65
5.50002e-65
8.05593e-65
)
;
    }
    procBoundary1to3
    {
        type            processor;
        value           nonuniform List<scalar> 
27
(
6.97235e-65
3.254e-65
5.81058e-65
2.55674e-65
4.10597e-65
3.02124e-65
4.72454e-65
3.87211e-65
4.56839e-65
7.51444e-65
6.27511e-65
8.98675e-65
8.52183e-65
7.59164e-65
6.27408e-65
6.04036e-65
6.42607e-65
9.05753e-65
7.66906e-65
8.98639e-65
8.83162e-65
8.5216e-65
6.1195e-65
6.19608e-65
8.59541e-65
6.81247e-65
7.74056e-65
)
;
    }
    procBoundary1to5
    {
        type            processor;
        value           nonuniform List<scalar> 
32
(
6.81847e-65
8.05774e-65
6.35267e-65
6.73902e-65
7.59037e-65
8.44129e-65
6.81802e-65
5.6558e-65
5.81036e-65
6.66149e-65
8.20935e-65
8.51763e-65
7.89702e-65
8.44427e-65
6.04294e-65
7.43711e-65
5.80985e-65
4.56979e-65
6.96938e-65
5.72915e-65
8.6694e-65
6.27578e-65
4.8815e-65
6.81847e-65
6.81802e-65
6.97346e-65
7.1276e-65
6.81802e-65
8.44427e-65
6.81806e-65
8.44427e-65
8.21169e-65
)
;
    }
    procBoundary1to7
    {
        type            processor;
        value           uniform 9.91543e-65;
    }
}


// ************************************************************************* //
