/*--------------------------------*- C++ -*----------------------------------*\
| =========                 |                                                 |
| \\      /  F ield         | OpenFOAM: The Open Source CFD Toolbox           |
|  \\    /   O peration     | Version:  4.x                                   |
|   \\  /    A nd           | Web:      www.OpenFOAM.org                      |
|    \\/     M anipulation  |                                                 |
\*---------------------------------------------------------------------------*/
FoamFile
{
    version     2.0;
    format      ascii;
    class       volVectorField;
    location    "32.5";
    object      DDtUrel;
}
// * * * * * * * * * * * * * * * * * * * * * * * * * * * * * * * * * * * * * //

dimensions      [0 1 -2 0 0 0 0];

internalField   nonuniform List<vector> 
114
(
(0.000531673 3.0121e-06 -1.10099e-06)
(0.000389613 2.47912e-06 2.03053e-05)
(0.000312297 3.06472e-06 3.52348e-05)
(0.000241687 6.57928e-06 3.9127e-05)
(0.000211199 8.98247e-06 3.97952e-05)
(0.000159659 8.19706e-06 3.19226e-05)
(0.00177178 2.25817e-05 -0.000176563)
(0.00113131 1.48394e-05 -9.69629e-05)
(0.000745532 7.64382e-06 -3.55731e-05)
(0.000527624 -8.94323e-08 1.61467e-06)
(0.000385137 -6.26274e-06 2.01497e-05)
(0.000310059 -9.24337e-06 3.302e-05)
(0.000240829 -7.59043e-06 3.72965e-05)
(0.000211832 -4.03486e-06 3.88236e-05)
(0.000164319 5.45926e-07 3.25688e-05)
(0.00180585 6.09478e-05 -0.000171763)
(0.00117254 2.9637e-05 -9.36991e-05)
(0.00078911 1.18885e-05 -3.35128e-05)
(0.000572998 -7.55546e-07 3.06477e-06)
(0.000430028 -1.0887e-05 2.13863e-05)
(0.000355292 -1.67751e-05 3.27634e-05)
(0.000284988 -1.88137e-05 3.58634e-05)
(0.000255871 -1.64994e-05 3.58246e-05)
(0.000208991 -8.98377e-06 3.14186e-05)
(0.00184889 6.59753e-05 -0.000165196)
(0.00122623 3.48005e-05 -9.13802e-05)
(0.000846612 1.29892e-05 -3.43117e-05)
(0.000636848 -9.85876e-07 1.70476e-06)
(0.000494826 -1.27749e-05 2.03028e-05)
(0.000423915 -1.93434e-05 3.22473e-05)
(0.000350973 -2.43088e-05 3.53614e-05)
(0.000316928 -2.36632e-05 3.39297e-05)
(0.000267959 -2.19691e-05 2.77171e-05)
(0.000223502 3.2046e-06 3.59902e-05)
(0.000164905 4.69281e-06 3.26835e-05)
(0.000141216 7.3502e-06 3.68831e-05)
(0.000100798 7.55962e-06 2.65727e-05)
(0.00170967 2.84732e-05 -0.000198882)
(0.00104651 1.51712e-05 -9.85568e-05)
(0.000654872 7.93795e-06 -3.42699e-05)
(0.000435691 1.51812e-06 5.72583e-06)
(0.00030033 -5.01942e-06 1.95522e-05)
(0.000230258 -9.527e-06 3.28757e-05)
(0.000170963 -7.40317e-06 3.14976e-05)
(0.000148338 -5.48326e-06 3.40873e-05)
(0.000110606 -1.16413e-06 2.66478e-05)
(0.00174563 6.87415e-05 -0.000195868)
(0.00108744 3.28379e-05 -9.80351e-05)
(0.00069631 1.1652e-05 -3.44576e-05)
(0.000479297 -1.3041e-06 4.61157e-06)
(0.000340844 -1.0113e-05 1.89723e-05)
(0.000270223 -1.59831e-05 3.09359e-05)
(0.000206307 -1.72804e-05 3.0557e-05)
(0.000183531 -1.75075e-05 3.3367e-05)
(0.000142745 -1.15641e-05 2.57738e-05)
(0.0017944 7.42796e-05 -0.000189649)
(0.00114781 3.81057e-05 -9.62889e-05)
(0.000758786 1.25442e-05 -3.61701e-05)
(0.000544272 -2.19171e-06 2.17013e-06)
(0.000402578 -1.31299e-05 1.69171e-05)
(0.000330611 -1.88651e-05 3.0439e-05)
(0.000262482 -2.2703e-05 3.14247e-05)
(0.000236764 -2.3449e-05 3.15494e-05)
(0.000192045 -2.25342e-05 2.37598e-05)
(8.16461e-05 3.32099e-06 2.81225e-05)
(5.56016e-05 4.77932e-06 2.20335e-05)
(0.00165411 3.71267e-05 -0.000184566)
(0.000971556 1.67861e-05 -8.71393e-05)
(0.000579422 6.21173e-06 -3.16146e-05)
(0.000361763 -1.57669e-06 4.20565e-06)
(0.000232917 -5.54375e-06 1.42246e-05)
(0.000164978 -1.11452e-05 2.52155e-05)
(0.000114224 -7.22385e-06 2.23119e-05)
(8.97667e-05 -7.06565e-06 2.5749e-05)
(6.18121e-05 -2.88718e-06 2.06041e-05)
(0.00169145 7.52409e-05 -0.000179307)
(0.00101282 3.5137e-05 -8.6913e-05)
(0.000617796 1.1823e-05 -3.40464e-05)
(0.000397488 -2.91161e-06 1.53015e-06)
(0.000264198 -9.92956e-06 1.30464e-05)
(0.000193994 -1.60622e-05 2.4534e-05)
(0.000139012 -1.46472e-05 2.14475e-05)
(0.000116624 -1.64325e-05 2.40376e-05)
(8.55191e-05 -1.1269e-05 1.69585e-05)
(0.00174262 8.25324e-05 -0.000176307)
(0.00107374 4.29586e-05 -8.86746e-05)
(0.000677422 1.41924e-05 -3.74432e-05)
(0.000457205 -2.64086e-06 -1.59717e-06)
(0.000317736 -1.27554e-05 1.17248e-05)
(0.000243006 -1.78094e-05 2.36051e-05)
(0.000180615 -1.89086e-05 1.85235e-05)
(0.000159128 -2.27343e-05 2.00146e-05)
(0.000120749 -1.84644e-05 1.07144e-05)
(0.00161962 4.39273e-05 -0.000139781)
(0.000925857 2.11109e-05 -6.47469e-05)
(0.000535029 6.85486e-06 -2.67103e-05)
(0.000316897 -2.09968e-06 -5.24441e-08)
(0.000193584 -4.34909e-06 8.24974e-06)
(0.000123555 -8.89585e-06 1.59338e-05)
(8.02628e-05 -7.2136e-06 1.3824e-05)
(5.16871e-05 -7.85642e-06 1.6959e-05)
(0.00166353 8.4825e-05 -0.000135141)
(0.000973629 3.69282e-05 -6.61125e-05)
(0.000575656 1.06452e-05 -2.97684e-05)
(0.000354141 -4.07293e-06 -3.79192e-06)
(0.000222236 -8.74157e-06 6.55448e-06)
(0.000152993 -1.44651e-05 1.48553e-05)
(0.000101073 -1.37262e-05 1.11538e-05)
(0.00171776 8.76655e-05 -0.000135164)
(0.00103446 4.24459e-05 -7.03458e-05)
(0.000631091 1.31231e-05 -3.49157e-05)
(0.000405174 -3.6929e-06 -7.9853e-06)
(0.000265298 -1.09308e-05 5.8037e-06)
(0.000191746 -1.71363e-05 1.4745e-05)
)
;

boundaryField
{
    inlet
    {
        type            calculated;
        value           nonuniform List<vector> 
12
(
(0.0039367 4.29599e-05 -0.000363631)
(0.00401447 0.000240639 -0.000356297)
(0.00416528 0.000156959 -0.000309383)
(0.00375175 8.02959e-05 -0.00061453)
(0.00382052 0.000295343 -0.000647245)
(0.00403066 0.00020858 -0.000588887)
(0.00373939 0.00015135 -0.000591438)
(0.00376717 0.00029013 -0.000556242)
(0.0039843 0.000242571 -0.000536262)
(0.00369279 0.000193188 -0.000486665)
(0.00379857 0.000378258 -0.000416762)
(0.00403251 0.000253124 -0.000412357)
)
;
    }
    outlet
    {
        type            calculated;
        value           nonuniform 0();
    }
    wall
    {
        type            calculated;
        value           nonuniform List<vector> 
66
(
(0.0039367 4.29599e-05 -0.000363631)
(0.00401447 0.000240639 -0.000356297)
(0.00416528 0.000156959 -0.000309383)
(0.000432246 2.93493e-05 -4.46882e-05)
(0.000585225 5.4446e-06 -1.96053e-05)
(0.000843637 1.01241e-05 -1.50048e-05)
(0.000329958 2.12672e-05 3.60201e-05)
(0.000489287 5.64436e-06 5.45007e-05)
(0.000741419 -7.66806e-06 3.71041e-05)
(0.000535377 1.35175e-05 1.40659e-05)
(0.000413486 -1.75448e-05 5.33165e-05)
(0.000566284 -8.56137e-06 6.60964e-05)
(0.000896343 -5.08312e-06 5.25472e-05)
(0.000421288 -4.48534e-06 4.37483e-05)
(0.000275134 -3.30181e-05 3.60927e-05)
(0.000421148 -3.54183e-05 5.83698e-05)
(0.000745542 -3.44145e-05 4.88909e-05)
(0.000518221 1.26275e-06 8.89474e-05)
(0.000390353 -3.80595e-05 5.52868e-05)
(0.000530068 -4.69407e-05 6.59352e-05)
(0.000926457 -3.39234e-05 6.48087e-05)
(0.000307951 3.97293e-05 8.46562e-05)
(0.000186664 -2.34114e-05 6.26987e-05)
(0.000325607 -5.52076e-05 5.94073e-05)
(0.000697935 -6.42975e-05 6.06124e-05)
(0.000477749 4.29102e-05 9.01522e-05)
(0.000333243 -4.63957e-06 8.47568e-05)
(0.000482694 -4.65702e-05 5.41367e-05)
(0.000797679 -4.97513e-05 5.09073e-05)
(0.000174539 -1.89275e-05 4.88454e-05)
(8.45332e-05 1.58665e-05 3.54856e-05)
(0.000238401 3.54513e-05 3.52264e-05)
(0.00054936 -5.0132e-05 -5.18459e-07)
(0.00416528 0.000156959 -0.000309383)
(0.00403066 0.00020858 -0.000588887)
(0.0039843 0.000242571 -0.000536262)
(0.00403251 0.000253124 -0.000412357)
(0.000843637 1.01241e-05 -1.50048e-05)
(0.000484542 1.50855e-05 -2.1575e-05)
(0.000270893 4.82988e-05 -8.98131e-06)
(0.000235421 6.89547e-06 -1.69201e-05)
(0.000741419 -7.66806e-06 3.71041e-05)
(0.000364832 -2.6179e-05 2.73388e-05)
(0.000182001 -8.88323e-06 -9.64911e-06)
(0.000138988 -1.86215e-05 -4.19807e-05)
(0.000896343 -5.08312e-06 5.25472e-05)
(0.000490498 -1.95548e-05 8.40703e-05)
(0.000271285 -2.17604e-05 6.97895e-05)
(0.000199961 -2.96245e-05 1.17633e-05)
(0.000745542 -3.44145e-05 4.88909e-05)
(0.000343125 -4.15058e-05 2.00897e-05)
(0.000172808 -4.23164e-05 1.45396e-05)
(0.000112227 -1.5123e-05 2.99986e-05)
(0.000926457 -3.39234e-05 6.48087e-05)
(0.000485656 -3.56839e-05 8.49181e-05)
(0.000241808 -3.48556e-05 8.18978e-05)
(0.000216296 -4.14239e-05 8.32804e-05)
(0.000697935 -6.42975e-05 6.06124e-05)
(0.000276655 -5.61021e-05 6.43258e-05)
(7.23736e-05 -9.6987e-06 -1.65997e-05)
(0.000797679 -4.97513e-05 5.09073e-05)
(0.000453569 -4.86354e-05 7.96543e-05)
(0.000262741 -6.41207e-05 4.45094e-05)
(0.00054936 -5.0132e-05 -5.18459e-07)
(0.000199575 -6.41528e-05 1.29898e-05)
(4.66277e-05 -1.0219e-05 -4.10363e-05)
)
;
    }
    procBoundary2to0
    {
        type            processor;
        value           nonuniform List<vector> 
44
(
(0.000552259 6.32262e-06 -1.71552e-06)
(0.000409008 1.21335e-05 1.86213e-05)
(0.000329043 1.26908e-05 3.08319e-05)
(0.000255361 1.29586e-05 3.59296e-05)
(0.000215765 1.589e-05 3.62632e-05)
(0.000165675 1.9191e-05 2.62038e-05)
(0.0017705 -2.01343e-05 -0.000182164)
(0.00113361 -5.63149e-06 -9.64265e-05)
(0.000750572 -7.8067e-07 -3.66964e-05)
(0.000750572 -7.8067e-07 -3.66964e-05)
(0.000432638 3.90042e-06 6.84972e-06)
(0.000295817 2.6043e-06 2.13628e-05)
(0.000236287 1.38882e-05 3.46545e-05)
(0.000174369 1.32035e-05 3.26008e-05)
(0.000145257 1.49087e-05 3.61367e-05)
(0.000105559 1.48547e-05 2.63377e-05)
(0.00170202 -1.74155e-05 -0.000208985)
(0.00104216 -6.42271e-06 -0.000100035)
(0.000651832 -3.36097e-07 -3.34446e-05)
(0.000432638 3.90042e-06 6.84972e-06)
(0.000295817 2.6043e-06 2.13628e-05)
(0.000295817 2.6043e-06 2.13628e-05)
(0.000156527 1.12629e-06 2.61061e-05)
(0.000110052 2.62665e-06 2.40007e-05)
(9.09295e-05 1.37244e-05 2.93453e-05)
(6.18235e-05 1.20572e-05 2.18305e-05)
(0.00163721 -1.49234e-05 -0.000190556)
(0.000956421 -5.76642e-06 -9.03353e-05)
(0.000567486 -1.44689e-06 -3.12343e-05)
(0.000350933 1.81482e-06 6.40687e-06)
(0.000226388 1.33011e-06 1.49866e-05)
(0.000156527 1.12629e-06 2.61061e-05)
(0.000110052 2.62665e-06 2.40007e-05)
(0.000110052 2.62665e-06 2.40007e-05)
(4.60792e-05 1.38994e-06 1.83776e-05)
(2.83188e-05 2.36877e-06 1.43518e-05)
(0.0016029 -1.39024e-05 -0.000137477)
(0.000907724 -3.31144e-06 -6.58409e-05)
(0.000519892 -3.50929e-07 -2.55929e-05)
(0.000301536 2.32581e-06 6.5054e-07)
(0.000184038 1.51652e-06 8.68204e-06)
(0.000113835 1.11609e-06 1.5246e-05)
(7.48082e-05 1.45598e-06 1.54724e-05)
(4.60792e-05 1.38994e-06 1.83776e-05)
)
;
    }
    procBoundary2to3
    {
        type            processor;
        value           nonuniform List<vector> 
12
(
(0.000149088 1.31216e-05 2.86996e-05)
(0.000154349 3.76137e-06 3.27085e-05)
(0.00020206 -9.51375e-06 3.35706e-05)
(0.000259514 -2.33664e-05 3.04337e-05)
(8.87751e-05 1.01528e-05 2.78847e-05)
(0.000102461 2.65027e-06 2.79895e-05)
(0.000139232 -1.13923e-05 2.75055e-05)
(0.000187174 -2.35616e-05 2.59733e-05)
(3.52241e-05 5.61392e-06 2.23041e-05)
(4.79151e-05 -8.01209e-07 2.06574e-05)
(7.73154e-05 -1.11111e-05 1.50868e-05)
(0.000118185 -1.91553e-05 9.70271e-06)
)
;
    }
    procBoundary2to6
    {
        type            processor;
        value           nonuniform List<vector> 
32
(
(3.19892e-05 -5.08214e-06 1.19619e-05)
(7.85196e-05 -1.74527e-05 1.25866e-05)
(4.95087e-05 -1.1473e-05 6.33749e-06)
(0.000132264 -1.95693e-05 7.19754e-06)
(0.000107985 -2.34659e-05 7.87058e-06)
(7.08274e-05 -1.92278e-05 -4.83524e-07)
(0.00161484 4.30598e-05 -6.80207e-05)
(0.0009115 1.98344e-05 -3.60934e-05)
(0.000520052 5.53261e-06 -1.86597e-05)
(0.000301377 -3.60961e-06 -5.09044e-06)
(0.000177846 -5.3885e-06 8.84787e-07)
(0.000105809 -9.24284e-06 3.78204e-06)
(6.52127e-05 -8.15491e-06 4.07375e-06)
(3.19892e-05 -5.08214e-06 1.19619e-05)
(7.85196e-05 -1.74527e-05 1.25866e-05)
(3.70316e-05 -9.82084e-06 3.3969e-06)
(0.00165814 8.72975e-05 -6.74257e-05)
(0.000959919 3.57062e-05 -3.85134e-05)
(0.0005598 9.95127e-06 -2.16962e-05)
(0.000335087 -6.93027e-06 -7.86304e-06)
(0.000201291 -9.38829e-06 -1.22391e-06)
(0.000126488 -1.45812e-05 2.00494e-06)
(7.85196e-05 -1.74527e-05 1.25866e-05)
(0.000132264 -1.95693e-05 7.19754e-06)
(7.7682e-05 -1.44058e-05 1.81352e-06)
(0.00171437 8.94411e-05 -7.21269e-05)
(0.00102074 4.22596e-05 -4.26388e-05)
(0.000613416 1.16491e-05 -2.62774e-05)
(0.000380318 -6.06428e-06 -1.11445e-05)
(0.000235758 -1.10479e-05 -3.65789e-06)
(0.000132264 -1.95693e-05 7.19754e-06)
(0.000156132 -1.52841e-05 7.86281e-07)
)
;
    }
}


// ************************************************************************* //
