/*--------------------------------*- C++ -*----------------------------------*\
| =========                 |                                                 |
| \\      /  F ield         | OpenFOAM: The Open Source CFD Toolbox           |
|  \\    /   O peration     | Version:  4.x                                   |
|   \\  /    A nd           | Web:      www.OpenFOAM.org                      |
|    \\/     M anipulation  |                                                 |
\*---------------------------------------------------------------------------*/
FoamFile
{
    version     2.0;
    format      ascii;
    class       volVectorField;
    location    "32.5";
    object      ddtUrel;
}
// * * * * * * * * * * * * * * * * * * * * * * * * * * * * * * * * * * * * * //

dimensions      [0 1 -2 0 0 0 0];

internalField   nonuniform List<vector> 
114
(
(8.37524e-10 -4.36345e-10 5.47705e-10)
(-6.84814e-10 -8.15054e-10 2.86425e-10)
(-4.44139e-09 -1.88002e-09 -1.00368e-09)
(-1.22736e-08 -5.53095e-09 -4.57093e-09)
(-3.59044e-08 -1.88245e-08 -1.73486e-08)
(-5.51552e-08 -2.43448e-08 -1.80433e-08)
(1.74035e-09 -2.69864e-10 6.64675e-10)
(1.41387e-09 -1.77023e-10 6.72127e-10)
(1.26481e-09 -2.62029e-10 6.27861e-10)
(8.81141e-10 -4.75809e-10 5.62041e-10)
(-3.75779e-10 -6.76231e-10 1.81182e-10)
(-3.1147e-09 -1.48745e-09 -6.01658e-10)
(-7.43893e-09 -3.65042e-09 -2.21468e-09)
(-1.42953e-08 -7.26752e-09 -5.1701e-09)
(-1.85881e-08 -8.5983e-09 -5.35813e-09)
(1.29301e-09 -2.03646e-10 6.09024e-10)
(1.21368e-09 -1.80936e-10 6.06302e-10)
(1.17298e-09 -2.32353e-10 6.13509e-10)
(1.05528e-09 -3.92741e-10 5.46137e-10)
(1.53473e-10 -6.91558e-10 1.70789e-10)
(-1.90026e-09 -1.27481e-09 -1.97461e-10)
(-3.71225e-09 -2.3952e-09 -6.32194e-10)
(-5.73262e-09 -3.4037e-09 -1.55367e-09)
(-7.15103e-09 -3.86136e-09 -1.583e-09)
(1.10208e-09 -1.76897e-10 5.50936e-10)
(1.06146e-09 -1.62852e-10 5.29505e-10)
(1.12044e-09 -1.58891e-10 5.52941e-10)
(7.9558e-10 -1.48135e-10 4.39844e-10)
(1.2173e-10 -6.72825e-10 1.97812e-10)
(-1.12229e-09 -1.06029e-09 -3.03866e-11)
(-1.98706e-09 -1.68164e-09 -2.41607e-10)
(-2.49063e-09 -2.22006e-09 -4.86779e-10)
(-3.62939e-09 -2.30885e-09 -5.32125e-10)
(-2.36517e-09 -1.54326e-09 -3.11555e-10)
(-5.88703e-09 -3.23985e-09 -1.64231e-09)
(-1.22315e-08 -6.50489e-09 -4.57522e-09)
(-1.72268e-08 -8.14833e-09 -4.27197e-09)
(1.38027e-09 -1.02082e-10 6.57363e-10)
(1.30527e-09 -1.19348e-10 6.61039e-10)
(1.24738e-09 -2.01208e-10 6.38643e-10)
(1.05602e-09 -3.62e-10 5.53639e-10)
(1.406e-10 -6.01984e-10 2.96533e-10)
(-1.61355e-09 -1.17085e-09 -2.01862e-10)
(-3.81892e-09 -2.46667e-09 -8.18537e-10)
(-6.92019e-09 -4.12569e-09 -2.06095e-09)
(-9.09351e-09 -4.92611e-09 -1.9245e-09)
(1.17919e-09 -1.14049e-10 5.76974e-10)
(1.17332e-09 -1.28847e-10 5.77521e-10)
(1.2035e-09 -1.8363e-10 5.7046e-10)
(1.07977e-09 -3.17666e-10 5.17636e-10)
(5.14284e-10 -5.38879e-10 1.84413e-10)
(-7.62726e-10 -9.35834e-10 -1.29375e-10)
(-2.01443e-09 -1.70406e-09 -2.91339e-10)
(-3.31462e-09 -2.49508e-09 -7.87655e-10)
(-4.38011e-09 -2.87541e-09 -7.0904e-10)
(1.04713e-09 -1.13857e-10 5.07969e-10)
(1.05586e-09 -1.27548e-10 4.88483e-10)
(1.06715e-09 -1.63395e-10 4.95187e-10)
(9.13841e-10 -2.69128e-10 4.27393e-10)
(5.24305e-10 -5.49266e-10 1.95412e-10)
(-2.58101e-10 -8.53082e-10 -5.04484e-12)
(-9.57189e-10 -1.30375e-09 -6.12226e-11)
(-1.49967e-09 -1.72755e-09 -2.86528e-10)
(-2.51098e-09 -2.00286e-09 -3.6995e-10)
(-4.27646e-09 -2.90106e-09 -9.06723e-10)
(-6.37415e-09 -3.72578e-09 -6.52703e-10)
(1.1884e-09 -6.1941e-11 5.76011e-10)
(1.18991e-09 -9.38606e-11 6.19942e-10)
(1.26562e-09 -1.58946e-10 6.43908e-10)
(1.21257e-09 -2.7617e-10 6.05041e-10)
(7.31473e-10 -4.53632e-10 4.19183e-10)
(-1.15888e-10 -8.23191e-10 1.94179e-10)
(-1.44107e-09 -1.65108e-09 -1.08182e-10)
(-2.75098e-09 -2.31606e-09 -4.74207e-10)
(-3.9953e-09 -2.82985e-09 -3.91149e-10)
(1.04193e-09 -7.78624e-11 4.92016e-10)
(1.10505e-09 -1.03763e-10 5.3522e-10)
(1.23311e-09 -1.42799e-10 5.60164e-10)
(1.19753e-09 -2.47959e-10 5.30679e-10)
(9.1287e-10 -4.21014e-10 3.18175e-10)
(2.76802e-10 -6.5519e-10 1.16816e-10)
(-4.99457e-10 -1.17089e-09 4.92416e-11)
(-1.1917e-09 -1.70369e-09 -1.2951e-10)
(-1.90753e-09 -2.06998e-09 -6.37445e-11)
(9.81785e-10 -7.5587e-11 4.4421e-10)
(1.05471e-09 -9.5484e-11 4.59723e-10)
(1.12932e-09 -1.36887e-10 4.80244e-10)
(1.12887e-09 -2.23527e-10 4.51758e-10)
(1.00565e-09 -3.81899e-10 2.79077e-10)
(6.28362e-10 -5.76929e-10 1.4625e-10)
(2.13821e-10 -9.35026e-10 8.75572e-11)
(-3.10015e-10 -1.35188e-09 -4.98806e-11)
(-1.11226e-09 -1.68346e-09 -4.67024e-11)
(9.85487e-10 -4.12153e-11 4.63696e-10)
(1.1816e-09 -7.87241e-11 5.36784e-10)
(1.4241e-09 -1.32109e-10 5.82949e-10)
(1.47631e-09 -2.1512e-10 5.4894e-10)
(1.29687e-09 -3.3488e-10 4.39054e-10)
(9.52791e-10 -6.22934e-10 3.57619e-10)
(2.6737e-10 -1.12502e-09 3.05549e-10)
(-3.89223e-10 -1.50704e-09 4.36831e-10)
(9.49277e-10 -4.74525e-11 3.9287e-10)
(1.08797e-09 -7.63443e-11 4.58274e-10)
(1.30563e-09 -1.0779e-10 4.91305e-10)
(1.4137e-09 -1.57691e-10 4.82481e-10)
(1.34975e-09 -2.59869e-10 3.82799e-10)
(1.057e-09 -4.58831e-10 3.12681e-10)
(6.22592e-10 -8.00782e-10 2.50705e-10)
(9.8639e-10 -4.6532e-11 3.41286e-10)
(1.08618e-09 -6.50858e-11 3.87579e-10)
(1.27338e-09 -7.47949e-11 4.22171e-10)
(1.39652e-09 -1.24258e-10 4.2281e-10)
(1.41198e-09 -2.21617e-10 3.62131e-10)
(1.20463e-09 -3.81246e-10 3.14683e-10)
)
;

boundaryField
{
    inlet
    {
        type            calculated;
        value           nonuniform List<vector> 
12
(
(-5.18489e-10 -2.01546e-09 8.86563e-10)
(1.04811e-09 -3.16457e-10 7.26689e-10)
(-1.44959e-09 -3.59681e-10 5.60347e-10)
(8.21149e-10 2.13007e-10 6.46854e-10)
(1.15173e-09 1.73581e-10 7.18792e-10)
(4.64083e-10 6.17604e-11 3.52496e-10)
(7.4319e-10 1.60621e-10 7.02874e-10)
(5.96208e-10 6.54614e-11 4.17896e-10)
(2.79991e-10 5.94032e-11 3.41277e-10)
(8.08277e-10 1.07872e-10 5.71824e-10)
(4.52339e-10 5.27601e-11 3.67716e-10)
(3.01331e-10 4.3568e-11 2.11236e-10)
)
;
    }
    outlet
    {
        type            calculated;
        value           nonuniform 0();
    }
    wall
    {
        type            calculated;
        value           nonuniform List<vector> 
66
(
(5.84913e-09 -2.06311e-09 4.38327e-10)
(9.2992e-10 -3.72512e-10 6.52925e-10)
(2.72881e-10 -3.21906e-10 4.50552e-10)
(1.3317e-09 4.05182e-11 9.36489e-10)
(5.8736e-10 -8.18752e-11 5.99905e-10)
(3.25254e-11 -1.66295e-10 3.38837e-10)
(1.22457e-09 -1.84888e-10 1.22049e-09)
(4.40953e-10 -1.14884e-10 1.20342e-09)
(2.73747e-09 9.90101e-11 1.09832e-09)
(2.0959e-09 2.65175e-10 1.74193e-09)
(2.18605e-09 -1.29986e-09 1.70364e-09)
(4.50601e-09 -8.10169e-10 2.04059e-09)
(-1.99211e-10 2.71954e-09 7.8326e-10)
(2.32086e-09 8.03759e-10 2.00157e-09)
(1.07475e-09 1.41042e-09 1.64946e-09)
(3.75424e-09 -7.05917e-10 1.61942e-11)
(-3.25671e-09 -2.34617e-09 2.27982e-10)
(-5.33177e-09 3.48548e-09 1.35665e-09)
(-5.33681e-09 1.84401e-09 5.93086e-10)
(-9.10093e-09 -8.93984e-10 7.22579e-10)
(-5.5292e-09 4.50289e-11 9.27151e-10)
(-9.82716e-09 5.60866e-09 7.18808e-10)
(-1.26104e-08 -3.23136e-09 -1.16352e-10)
(-7.15159e-09 -4.57455e-09 2.52498e-09)
(-7.7861e-10 -6.79466e-10 1.1448e-09)
(-4.00729e-07 -1.49587e-07 -1.81492e-07)
(-6.80248e-09 -4.77023e-10 2.34569e-10)
(4.43824e-10 -2.67277e-10 6.64524e-10)
(6.5043e-09 -1.45516e-09 1.56515e-09)
(-8.99221e-07 -2.79738e-07 -2.80551e-07)
(-1.08203e-08 -3.64573e-09 -2.15385e-09)
(-1.99202e-09 -2.29537e-12 -2.65894e-10)
(1.0717e-09 1.04991e-09 9.24883e-10)
(2.79165e-10 -3.18975e-10 4.60781e-10)
(3.56438e-10 4.85832e-11 3.27396e-10)
(1.92446e-10 5.09356e-11 3.23159e-10)
(1.45481e-10 3.08194e-11 1.90922e-10)
(-1.07323e-10 -1.67421e-10 3.59065e-10)
(5.12065e-10 1.64789e-11 2.85337e-10)
(6.7674e-11 2.56708e-11 4.18936e-10)
(2.77558e-10 3.83347e-12 3.93494e-10)
(1.18278e-09 2.62164e-11 1.08396e-09)
(9.22477e-10 -7.09626e-12 4.53195e-10)
(3.56259e-10 2.36296e-12 4.82934e-10)
(4.0543e-10 6.82963e-11 5.16116e-10)
(1.92727e-09 2.76551e-09 7.11339e-10)
(8.04895e-10 7.69592e-12 6.61281e-10)
(4.66384e-10 -3.64465e-11 9.41837e-10)
(9.87442e-10 3.22138e-11 5.9044e-10)
(1.01907e-09 -1.52267e-09 5.19091e-10)
(2.07273e-09 -3.6118e-10 2.58254e-10)
(2.83965e-09 -3.57625e-11 2.78001e-10)
(1.77337e-09 7.57112e-11 5.2116e-10)
(-2.19313e-09 -2.07631e-10 8.5662e-10)
(1.43268e-09 -1.37051e-10 4.85502e-10)
(2.67325e-09 2.97543e-10 3.47812e-10)
(1.523e-09 3.68989e-10 5.38679e-10)
(-4.30999e-09 2.18429e-10 1.25168e-09)
(4.00557e-10 -1.67409e-10 1.25585e-09)
(4.18175e-09 6.59795e-11 5.5002e-10)
(1.16167e-08 -9.3606e-10 1.9121e-09)
(4.09218e-09 -4.44752e-10 1.03347e-09)
(5.41582e-09 -3.82095e-10 -3.73767e-11)
(1.23952e-09 9.92182e-10 1.16006e-09)
(-5.74872e-10 -4.23594e-10 -8.0651e-11)
(8.35308e-10 -1.36246e-09 -1.00735e-09)
)
;
    }
    procBoundary2to0
    {
        type            processor;
        value           nonuniform List<vector> 
44
(
(7.67114e-10 -3.41479e-10 6.40675e-10)
(-7.48426e-10 -6.0391e-10 4.92987e-10)
(-4.05009e-09 -1.35881e-09 -3.23273e-10)
(-8.97527e-09 -3.37236e-09 -1.99996e-09)
(-1.70232e-08 -7.2612e-09 -5.18435e-09)
(-2.6042e-08 -8.96042e-09 -5.10525e-09)
(1.55155e-09 -4.66795e-11 7.04026e-10)
(1.50728e-09 -8.26157e-11 7.188e-10)
(1.40073e-09 -2.04284e-10 6.45548e-10)
(1.40073e-09 -2.04284e-10 6.45548e-10)
(1.01878e-09 -3.15225e-10 6.40326e-10)
(-6.12762e-11 -7.34434e-10 3.92491e-10)
(-2.43593e-09 -1.05463e-09 6.07575e-11)
(-5.43491e-09 -2.22912e-09 -7.09195e-10)
(-9.38631e-09 -4.04166e-09 -1.89022e-09)
(-1.41313e-08 -5.07056e-09 -1.5358e-09)
(1.39863e-09 -2.02975e-11 7.04264e-10)
(1.39899e-09 -7.11246e-11 7.09601e-10)
(1.27572e-09 -1.84444e-10 7.05628e-10)
(1.01878e-09 -3.15225e-10 6.40326e-10)
(-6.12762e-11 -7.34434e-10 3.92491e-10)
(-6.12762e-11 -7.34434e-10 3.92491e-10)
(-4.64134e-10 -9.55091e-10 3.30072e-10)
(-2.01255e-09 -1.68327e-09 -1.58135e-10)
(-4.34755e-09 -2.29682e-09 -1.73284e-10)
(-7.14996e-09 -3.1265e-09 -1.36373e-10)
(1.20798e-09 -2.20756e-11 6.45226e-10)
(1.27207e-09 -6.98106e-11 6.7613e-10)
(1.31587e-09 -1.60793e-10 7.27094e-10)
(1.16364e-09 -2.5137e-10 7.10988e-10)
(5.10575e-10 -4.91978e-10 5.14508e-10)
(-4.64134e-10 -9.55091e-10 3.30072e-10)
(-2.01255e-09 -1.68327e-09 -1.58135e-10)
(-2.01255e-09 -1.68327e-09 -1.58135e-10)
(-7.69828e-10 -1.49127e-09 4.82972e-10)
(-2.47343e-09 -2.08792e-09 3.01575e-10)
(9.94107e-10 -1.96399e-11 5.37107e-10)
(1.22645e-09 -6.52613e-11 5.84958e-10)
(1.50125e-09 -1.36523e-10 6.38475e-10)
(1.51632e-09 -2.26638e-10 6.82168e-10)
(1.2912e-09 -3.37168e-10 6.21698e-10)
(9.01182e-10 -5.6938e-10 6.14162e-10)
(2.41998e-10 -9.81467e-10 5.51657e-10)
(-7.69828e-10 -1.49127e-09 4.82972e-10)
)
;
    }
    procBoundary2to3
    {
        type            processor;
        value           nonuniform List<vector> 
12
(
(-2.52557e-08 -8.46705e-09 -3.37492e-09)
(-1.36251e-08 -5.35082e-09 -1.56102e-09)
(-7.02595e-09 -3.22646e-09 -3.7443e-10)
(-4.40388e-09 -2.16464e-09 -6.29335e-11)
(-1.3487e-08 -5.19711e-09 -7.00207e-10)
(-8.04914e-09 -3.97551e-09 -2.52856e-10)
(-4.26203e-09 -2.66981e-09 -7.93257e-12)
(-2.80476e-09 -1.93175e-09 -4.84499e-11)
(-7.85895e-09 -3.42646e-09 2.7947e-10)
(-4.70153e-09 -2.5547e-09 2.21463e-10)
(-2.50575e-09 -2.19435e-09 3.22403e-10)
(-1.40926e-09 -1.63423e-09 6.40924e-11)
)
;
    }
    procBoundary2to6
    {
        type            processor;
        value           nonuniform List<vector> 
32
(
(-6.89589e-10 -1.65927e-09 4.4069e-10)
(4.95459e-10 -1.05635e-09 3.29962e-10)
(-7.56454e-11 -1.44786e-09 2.90729e-10)
(1.03287e-09 -5.34648e-10 2.57863e-10)
(5.41715e-10 -9.39988e-10 1.58387e-10)
(-1.91093e-10 -1.24175e-09 9.55203e-11)
(9.06001e-10 -3.50341e-11 3.65799e-10)
(1.1442e-09 -7.78271e-11 4.06161e-10)
(1.47274e-09 -1.29074e-10 4.46229e-10)
(1.66167e-09 -1.78086e-10 4.84229e-10)
(1.70738e-09 -2.12537e-10 4.77231e-10)
(1.70795e-09 -3.46943e-10 4.74449e-10)
(1.43218e-09 -5.97962e-10 5.46362e-10)
(-6.89589e-10 -1.65927e-09 4.4069e-10)
(4.95459e-10 -1.05635e-09 3.29962e-10)
(9.87326e-10 -8.03681e-10 6.41801e-10)
(9.43735e-10 -3.2349e-11 3.12259e-10)
(1.06615e-09 -6.48508e-11 3.50993e-10)
(1.33382e-09 -9.14529e-11 3.64419e-10)
(1.53089e-09 -1.15339e-10 3.77811e-10)
(1.58418e-09 -1.74267e-10 3.80276e-10)
(1.55223e-09 -3.01818e-10 3.41429e-10)
(4.95459e-10 -1.05635e-09 3.29962e-10)
(1.03287e-09 -5.34648e-10 2.57863e-10)
(1.351e-09 -5.50584e-10 3.77973e-10)
(9.59347e-10 -2.56495e-11 2.64792e-10)
(1.00411e-09 -7.10867e-11 3.06114e-10)
(1.28445e-09 -5.91487e-11 3.18195e-10)
(1.50411e-09 -8.18599e-11 3.33377e-10)
(1.55456e-09 -1.291e-10 3.14576e-10)
(1.03287e-09 -5.34648e-10 2.57863e-10)
(1.45223e-09 -2.42563e-10 2.95499e-10)
)
;
    }
}


// ************************************************************************* //
