/*--------------------------------*- C++ -*----------------------------------*\
| =========                 |                                                 |
| \\      /  F ield         | OpenFOAM: The Open Source CFD Toolbox           |
|  \\    /   O peration     | Version:  4.x                                   |
|   \\  /    A nd           | Web:      www.OpenFOAM.org                      |
|    \\/     M anipulation  |                                                 |
\*---------------------------------------------------------------------------*/
FoamFile
{
    version     2.0;
    format      ascii;
    class       volScalarField;
    location    "32.5";
    object      Ksl;
}
// * * * * * * * * * * * * * * * * * * * * * * * * * * * * * * * * * * * * * //

dimensions      [1 -3 -1 0 0 0 0];

internalField   nonuniform List<scalar> 
114
(
6335.64
3161.64
5610.38
3062.03
5214.4
2928.69
3400.52
8032.62
3325.24
6896.34
3265.69
6302.83
3182.83
5985.58
3068.16
3347.08
7566.44
3227.42
6209.72
3141.84
5550.99
3041.45
5192.49
2929.98
3293.39
6761.26
3090.19
5272.81
2903.92
4492.62
2728.45
4041.38
2614.99
12978.4
3701.99
15468.3
3607.41
3445.35
9818.7
3589.05
11411.7
3676.21
13554
3697.21
16730.1
3609.87
3411.61
9207.03
3526.99
9740.46
3548.15
10319.7
3543.53
11404.7
3474.88
3337
7585.9
3296.99
6569.24
3170.37
5930.07
3080.14
5555.67
2966.43
69797.9
3809.47
3492.58
10383.3
3677.03
13812.9
3753.85
19173.6
3759.97
29336.7
3703.38
3434.88
9972.07
3625.02
12588.6
3700.38
16344.1
3730.5
25304.5
3694.13
3364.95
8113.24
3376.82
7508.43
3292.68
6968.42
3268.93
6773.82
3168.23
3513.19
11363.5
3760.5
17070.6
3836.65
27019.2
3859.24
50257
3466.45
9957.02
3662.81
12156.9
3709.06
14562.3
3684.83
3360.77
7987.29
3396.1
7567.77
3347.67
7169.92
)
;

boundaryField
{
    inlet
    {
        type            zeroGradient;
    }
    outlet
    {
        type            zeroGradient;
    }
    wall
    {
        type            zeroGradient;
    }
    procBoundary2to0
    {
        type            processor;
        value           nonuniform List<scalar> 
44
(
6360.63
3178.17
5677.98
3059.16
5304.79
3008.05
3363.18
7625.41
3234.11
3234.11
10751.7
3669.89
12808.5
3691.48
16616.7
3641.64
3482.52
9724.8
3570.44
10751.7
3669.89
3669.89
36937
3865.63
37570.7
3714.44
3520.66
11611.2
3746.64
19076.9
3854.35
36937
3865.63
3865.63
264304
3912.69
3519.29
11536.8
3817.89
20922.6
3924.87
49329.1
3962.22
264304
)
;
    }
    procBoundary2to3
    {
        type            processor;
        value           nonuniform List<scalar> 
12
(
5110.37
5901.54
4998.63
3751.48
19424.5
20053.4
13170.2
5381.98
219503
62467.3
50166.4
6704.46
)
;
    }
    procBoundary2to6
    {
        type            processor;
        value           nonuniform List<scalar> 
32
(
3868.48
17025.4
3624.8
3256.84
6891.13
3182.56
3566.14
12129.8
3817.81
22982.6
3915.75
67501.2
3929.27
3868.48
17025.4
1e+10
3481.54
10691
3671.23
15122.8
3757.67
23459.6
17025.4
3256.84
3780.44
3367.67
8090.87
3380.14
7838.19
3398.85
3256.84
8006.5
)
;
    }
}


// ************************************************************************* //
