/*--------------------------------*- C++ -*----------------------------------*\
| =========                 |                                                 |
| \\      /  F ield         | OpenFOAM: The Open Source CFD Toolbox           |
|  \\    /   O peration     | Version:  4.x                                   |
|   \\  /    A nd           | Web:      www.OpenFOAM.org                      |
|    \\/     M anipulation  |                                                 |
\*---------------------------------------------------------------------------*/
FoamFile
{
    version     2.0;
    format      ascii;
    class       volScalarField;
    location    "32.5";
    object      Qsource;
}
// * * * * * * * * * * * * * * * * * * * * * * * * * * * * * * * * * * * * * //

dimensions      [1 -1 -3 0 0 0 0];

internalField   nonuniform List<scalar> 
114
(
7.66268e+09
6.5219e+09
3.64864e+09
6.93675e+09
4.26646e+09
5.59416e+09
6.66279e+09
7.36274e+09
7.01606e+09
4.88068e+09
8.25652e+09
5.546e+09
7.95531e+09
7.32157e+09
5.44856e+09
4.73318e+09
6.61124e+09
5.98947e+09
5.92204e+09
6.7454e+09
5.83437e+09
7.76784e+09
6.02586e+09
7.51184e+09
5.69664e+09
4.9718e+09
6.99558e+09
5.74439e+09
5.91937e+09
5.48596e+09
5.13531e+09
6.85933e+09
6.14512e+09
9.84651e+09
1.22785e+10
6.60389e+09
1.12275e+10
4.73225e+09
7.94586e+09
9.60385e+09
9.20811e+09
8.91204e+09
7.0668e+09
1.12246e+10
8.8152e+09
6.45597e+09
5.86155e+09
1.00122e+10
1.06666e+10
9.19127e+09
9.43584e+09
8.8759e+09
9.18795e+09
8.90354e+09
7.7221e+09
5.90722e+09
5.8211e+09
9.23242e+09
6.53043e+09
8.50655e+09
7.08566e+09
7.65642e+09
7.68785e+09
5.79122e+09
7.85026e+09
9.18616e+09
6.86343e+09
5.74935e+09
6.75796e+09
6.90378e+09
6.78772e+09
7.79063e+09
9.86978e+09
7.30912e+09
5.78068e+09
4.99379e+09
6.95641e+09
9.10408e+09
1.04979e+10
9.20703e+09
7.04569e+09
9.51248e+09
8.5277e+09
1.02722e+10
5.84567e+09
8.02016e+09
7.83869e+09
7.95369e+09
5.65617e+09
7.32862e+09
1.06032e+10
5.88488e+09
8.66512e+09
4.89692e+09
9.48674e+09
1.02998e+10
7.17356e+09
8.23752e+09
6.28268e+09
7.57285e+09
7.55832e+09
5.87212e+09
7.90127e+09
1.05198e+10
6.59365e+09
9.1086e+09
7.64352e+09
1.02995e+10
5.08665e+09
6.71826e+09
8.34885e+09
7.68022e+09
7.59639e+09
6.93401e+09
)
;

boundaryField
{
    inlet
    {
        type            calculated;
        value           uniform 0;
    }
    outlet
    {
        type            calculated;
        value           nonuniform 0();
    }
    wall
    {
        type            calculated;
        value           uniform 0;
    }
    procBoundary2to0
    {
        type            processor;
        value           nonuniform List<scalar> 
44
(
5.60031e+09
6.50842e+09
5.4901e+09
4.95789e+09
5.81276e+09
9.51648e+09
3.83956e+09
4.98007e+09
4.40709e+09
4.40709e+09
5.50978e+09
1.13252e+10
6.78595e+09
1.05398e+10
6.94243e+09
6.36266e+09
7.96617e+09
7.03814e+09
7.79794e+09
5.50978e+09
1.13252e+10
1.13252e+10
7.95343e+09
8.69035e+09
6.34572e+09
5.37074e+09
6.9062e+09
8.64372e+09
9.55396e+09
8.90731e+09
9.926e+09
7.95343e+09
8.69035e+09
8.69035e+09
5.3899e+09
2.58418e+09
4.82237e+09
6.71275e+09
9.79148e+09
1.01583e+10
5.45603e+09
9.65963e+09
8.44172e+09
5.3899e+09
)
;
    }
    procBoundary2to3
    {
        type            processor;
        value           nonuniform List<scalar> 
12
(
9.0893e+09
6.85443e+09
7.27757e+09
5.94647e+09
8.51011e+09
7.76189e+09
1.27379e+10
9.02631e+09
8.10123e+09
9.65688e+09
6.06021e+09
9.31659e+09
)
;
    }
    procBoundary2to6
    {
        type            processor;
        value           nonuniform List<scalar> 
32
(
8.07188e+09
6.69541e+09
8.90941e+09
6.55419e+09
6.67669e+09
6.48588e+09
9.95741e+09
8.96192e+09
6.09751e+09
8.04533e+09
1.10894e+10
6.16201e+09
8.72264e+09
8.07188e+09
6.69541e+09
6.6631e+09
6.30588e+09
9.22419e+09
8.18831e+09
1.0245e+10
8.86974e+09
8.77146e+09
6.69541e+09
6.55419e+09
8.77515e+09
5.50721e+09
7.99888e+09
6.79817e+09
6.57772e+09
9.55593e+09
6.55419e+09
9.91652e+09
)
;
    }
}


// ************************************************************************* //
