/*--------------------------------*- C++ -*----------------------------------*\
  =========                 |
  \\      /  F ield         | OpenFOAM: The Open Source CFD Toolbox
   \\    /   O peration     | Website:  https://openfoam.org
    \\  /    A nd           | Version:  4.x
     \\/     M anipulation  |
\*---------------------------------------------------------------------------*/
FoamFile
{
    version     2.0;
    format      ascii;
    class       Cloud<passiveParticle>;
    location    0;
    object      positions;
}
// * * * * * * * * * * * * * * * * * * * * * * * * * * * * * * * * * * * * * //

325
(
( 0.0388631 -0.081191 0.0295149 ) 1
( 0.0912989 -0.0733741 0.0222729 ) 3
( 0.244168 -0.0297268 0.0296034 ) 26
( 0.104003 -0.0622818 0.0322512 ) 12
( 0.121192 -0.0409905 0.0239638 ) 22
( 0.0693446 -0.0265566 0.0234736 ) 20
( 0.0144262 -0.0313875 0.0343353 ) 18
( 0.00979414 -0.0204777 0.0185733 ) 18
( 0.22959 -0.0151999 0.0287307 ) 26
( 0.0184304 -0.0623024 0.0160032 ) 9
( 0.241446 -0.00396328 0.017535 ) 35
( 0.204781 -0.0421106 0.0146932 ) 25
( 0.179646 -0.0292522 0.0209867 ) 24
( 0.247123 -0.0512932 0.0183602 ) 17
( 0.238861 -0.0713759 0.025412 ) 17
( 0.1264 -0.0523798 0.03928 ) 13
( 0.117984 -0.074461 0.048406 ) 40
( 0.066485 -0.0449679 0.0295676 ) 11
( 0.0817053 -0.041391 0.0177736 ) 20
( 0.138684 -0.00760769 0.0336393 ) 31
( 0.12256 -0.0694274 0.0297627 ) 13
( 0.169667 -0.0152748 0.030777 ) 24
( 0.210697 -0.00902717 0.0295729 ) 34
( 0.123969 -0.0216661 0.0208798 ) 22
( 0.0608535 -0.0900888 0.0331811 ) 2
( 0.201921 -0.0203277 0.0159517 ) 25
( 0.0345666 -0.0221364 0.0162385 ) 19
( 0.231689 -0.0461967 0.029807 ) 17
( 0.0976207 -0.0114894 0.033189 ) 30
( 0.197604 -0.0680029 0.0276009 ) 16
( 0.124013 -0.0284749 0.0393461 ) 22
( 0.0770156 -0.00611034 0.0280785 ) 29
( 0.193297 -0.0835909 0.0164865 ) 6
( 0.0536362 -0.0307127 0.0347742 ) 19
( 0.0763793 -0.0602097 0.021359 ) 11
( 0.050634 -0.0900311 0.0160975 ) 1
( 0.0599149 -0.0674061 0.0300245 ) 11
( 0.153218 -0.0452815 0.0287118 ) 14
( 0.136495 -0.0531367 0.022153 ) 13
( 0.180498 -0.0681171 0.0175361 ) 15
( 0.0315651 -0.0621062 0.0307014 ) 10
( 0.0484783 -0.010869 0.0249328 ) 28
( 0.0293502 -0.04179 0.0235011 ) 19
( 0.0874679 -0.0203785 0.0188343 ) 21
( 0.139443 -0.0768737 0.0224069 ) 5
( 0.184095 -0.054007 0.0308745 ) 15
( 0.140833 -0.0319194 0.021122 ) 23
( 0.113481 -0.0820732 0.017302 ) 4
( 0.157471 -0.0838246 0.0271213 ) 5
( 0.0886598 -0.0435646 0.0384357 ) 12
( 0.0677993 -0.0791475 0.016321 ) 2
( 0.10619 -0.0144826 0.0156065 ) 21
( 0.151109 -0.0227448 0.035528 ) 23
( 0.189246 -0.00721898 0.0360913 ) 33
( 0.21199 -0.0901768 0.0161792 ) 7
( 0.0962039 -0.0548934 0.0156123 ) 12
( 0.135671 -0.00507943 0.0145055 ) 31
( 0.00980517 -0.0747256 0.0283051 ) 0
( 0.184658 -0.0102496 0.0170716 ) 33
( 0.00973801 -0.0568919 0.0369874 ) 9
( 0.081523 -0.0226471 0.038277 ) 20
( 0.103529 -0.0901124 0.0325777 ) 3
( 0.0284117 -0.0174506 0.0353742 ) 19
( 0.196383 -0.0317066 0.0310961 ) 25
( 0.0475531 -0.0370004 0.017239 ) 19
( 0.216436 -0.0774666 0.0307369 ) 7
( 0.216715 -0.0300702 0.02512 ) 25
( 0.164417 -0.0590785 0.0369494 ) 14
( 0.225311 -0.0573758 0.0148088 ) 17
( 0.0840169 -0.062823 0.0392913 ) 12
( 0.0477835 -0.0508636 0.0310855 ) 10
( 0.118783 -0.00366233 0.0265749 ) 31
( 0.175903 -0.0902564 0.0230191 ) 6
( 0.108645 -0.0442117 0.0386086 ) 12
( 0.0584094 -3.04603e-05 0.0383022 ) 29
( 0.153792 -0.0121953 0.0192965 ) 32
( 0.24917 -0.0872017 0.017596 ) 8
( 0.228158 0.00821543 0.0255487 ) 35
( 0.065901 0.0126545 0.0236166 ) 29
( 0.188587 0.0101503 0.0260951 ) 33
( 0.0920777 0.00905655 0.0296261 ) 30
( 0.203692 0.00195351 0.0458665 ) 70
( 0.149337 0.00636363 0.0243418 ) 32
( 0.208506 0.0101807 0.0271902 ) 34
( 0.17022 0.00453298 0.0314589 ) 33
( 0.0353638 0.0042398 0.0405111 ) 28
( 0.211699 -0.0541116 0.0288326 ) 16
( 0.0194515 -0.0902648 0.0354854 ) 0
( 0.0992879 -0.0353868 0.0239063 ) 21
( 0.230469 -0.0903258 0.0232474 ) 8
( 0.0283363 -0.0901159 0.0153303 ) 1
( 0.079948 -0.0877869 0.0289352 ) 2
( 0.158512 -0.06557 0.0194269 ) 14
( 0.00962059 -0.000940259 0.0157379 ) 27
( 0.00989386 -0.0452631 0.0212186 ) 9
( 0.115899 -0.0579657 0.0149051 ) 13
( 0.0257989 -0.0467478 0.0422966 ) 9
( 0.0289023 -0.00369951 0.021356 ) 28
( 0.221408 0.0103755 0.0440525 ) 70
( 0.131602 -0.0558861 0.0577707 ) 49
( 0.140663 -0.0729347 0.0543223 ) 41
( 0.168674 -0.0901477 0.0422517 ) 6
( 0.154675 -0.00720966 0.0545357 ) 68
( 0.0334952 -0.0272917 0.0518855 ) 55
( 0.127588 -0.0900646 0.0563034 ) 40
( 0.0426104 -0.0770007 0.0597565 ) 37
( 0.167409 -0.0420493 0.0591449 ) 60
( 0.12583 -0.00927254 0.0692569 ) 67
( 0.230502 -0.023533 0.0596063 ) 62
( 0.0466465 -0.0574922 0.0615846 ) 46
( 0.115957 -0.0443907 0.0603517 ) 49
( 0.0858921 -0.0775461 0.0621506 ) 39
( 0.242378 -0.0904161 0.0561106 ) 44
( 0.210166 -0.0330935 0.0605631 ) 61
( 0.246207 -0.0571088 0.0544664 ) 53
( 0.0741641 0.000130658 0.0626 ) 65
( 0.0648563 -0.0381072 0.0656021 ) 56
( 0.203208 -0.0901077 0.0601529 ) 43
( 0.00989996 -0.082861 0.071517 ) 72
( 0.168197 0.00995385 0.0581949 ) 69
( 0.0718598 -0.0639281 0.0604908 ) 47
( 0.186717 -0.0730198 0.0627571 ) 42
( 0.234055 -0.0727575 0.0540848 ) 44
( 0.148204 -0.0904961 0.0575279 ) 41
( 0.0900654 -0.0189175 0.0612342 ) 57
( 0.229302 -0.0473593 0.0514917 ) 53
( 0.20909 0.00972799 0.0654885 ) 70
( 0.175507 -0.00697379 0.0676791 ) 69
( 0.00968343 -0.010439 0.0627004 ) 63
( 0.0663343 -0.0174031 0.0680595 ) 56
( 0.0269812 -0.0605303 0.0716265 ) 81
( 0.194733 -0.0145106 0.054687 ) 61
( 0.149508 -0.0370985 0.066392 ) 59
( 0.0639206 -0.0902225 0.056583 ) 38
( 0.166202 -0.0655429 0.0621167 ) 50
( 0.18832 -0.033396 0.0595191 ) 60
( 0.10486 -0.0726767 0.0653811 ) 39
( 0.223063 -0.0906522 0.0613508 ) 44
( 0.249313 -0.00231798 0.0533354 ) 71
( 0.115313 -0.0248162 0.0588278 ) 58
( 0.0308713 0.0096547 0.0591041 ) 64
( 0.190782 0.00376748 0.0612034 ) 69
( 0.0881146 0.0129196 0.068595 ) 66
( 0.0876893 -0.0529526 0.0558353 ) 48
( 0.102105 -0.00187348 0.0563641 ) 66
( 0.11862 0.0078148 0.0612644 ) 67
( 0.210827 -0.056797 0.0505933 ) 52
( 0.0167714 -0.0267741 0.0716482 ) 90
( 0.0296106 -0.0852149 0.0724965 ) 73
( 0.0266654 -0.00868294 0.0529444 ) 63
( 0.107623 -0.0899815 0.055506 ) 39
( 0.150946 -0.056073 0.0552902 ) 50
( 0.204339 -0.0900448 0.0403127 ) 7
( 0.214784 -0.0757113 0.0525724 ) 43
( 0.142049 -0.0876292 0.038994 ) 5
( 0.0629561 -0.0214247 0.0492908 ) 56
( 0.0754413 0.00950726 0.0403288 ) 29
( 0.00963131 -0.0454843 0.0630879 ) 45
( 0.0993814 -0.0310144 0.0492889 ) 57
( 0.182269 -0.0244164 0.042994 ) 60
( 0.125225 -0.0733354 0.066845 ) 40
( 0.0628427 -0.0553868 0.0455679 ) 47
( 0.0466653 -0.0304818 0.0679898 ) 55
( 0.227511 -0.0893095 0.0424973 ) 8
( 0.0701582 -0.0756931 0.0447027 ) 38
( 0.193603 -0.0476077 0.0469704 ) 51
( 0.0179556 -0.0611901 0.0543745 ) 45
( 0.215666 -0.00751588 0.0593192 ) 70
( 0.158936 -0.0198101 0.0691519 ) 59
( 0.134431 -0.0120811 0.0520761 ) 67
( 0.210822 -0.0395033 0.0419086 ) 25
( 0.0853043 -0.00572325 0.0474093 ) 66
( 0.133563 -0.0315322 0.0562696 ) 58
( 0.105965 -0.0589464 0.051478 ) 48
( 0.150865 -0.0736473 0.0714398 ) 77
( 0.0456257 -0.0902961 0.0457142 ) 37
( 0.228268 -0.030458 0.0412601 ) 26
( 0.0826461 -0.0905447 0.0479232 ) 38
( 0.177562 -0.0901366 0.0599501 ) 42
( 0.226222 -0.0625503 0.0393081 ) 17
( 0.143436 -0.0623521 0.0380144 ) 14
( 0.163948 -0.0244651 0.0504979 ) 59
( 0.136431 0.00753296 0.0511925 ) 67
( 0.179666 -0.0613778 0.0487194 ) 51
( 0.0802892 -0.0345878 0.0539607 ) 56
( 0.0102536 0.00459239 0.0491808 ) 63
( 0.0556524 -0.00401909 0.0578862 ) 65
( 0.181336 -0.0761432 0.0357473 ) 6
( 0.0460191 -0.0656437 0.0437997 ) 46
( 0.0443514 -0.0688356 0.0774247 ) 82
( 0.0219551 -0.0904699 0.0552339 ) 36
( 0.00982347 -0.0131046 0.0404223 ) 27
( 0.123377 -0.0899998 0.0327291 ) 4
( 0.231324 -0.00786691 0.0471658 ) 71
( 0.231057 -0.00852457 0.0723013 ) 107
( 0.114161 -0.0118648 0.044033 ) 67
( 0.116819 -0.0901245 0.07312 ) 76
( 0.145106 -0.00489143 0.0715335 ) 104
( 0.211608 -0.0204742 0.0453796 ) 61
( 0.0289108 -0.0750284 0.0454684 ) 37
( 0.0455145 -0.0137597 0.0441482 ) 64
( 0.106718 -0.0130468 0.0715673 ) 102
( 0.182819 0.0119084 0.0449297 ) 69
( 0.00983617 -0.0283566 0.053223 ) 54
( 0.172291 -0.0412187 0.0401414 ) 24
( 0.246466 -0.0901563 0.0368232 ) 8
( 0.0615986 -0.0554821 0.0746593 ) 83
( 0.0804959 -0.0484148 0.0734357 ) 83
( 0.197063 -0.0705209 0.0466791 ) 52
( 0.22619 -0.0404534 0.0695113 ) 62
( 0.0490619 -0.0901811 0.0791242 ) 73
( 0.20416 -0.0738653 0.0716067 ) 79
( 0.173396 -0.00619136 0.0479846 ) 69
( 0.249621 -0.0737848 0.0659084 ) 44
( 0.0290998 -0.0438024 0.0614088 ) 46
( 0.247807 -0.0417452 0.0727341 ) 98
( 0.00944653 -0.0774396 0.0476095 ) 36
( 0.0401964 -0.0116501 0.0671597 ) 64
( 0.181802 -0.0238769 0.0757555 ) 96
( 0.0981535 -0.0349223 0.0700392 ) 57
( 0.0868483 -0.0665693 0.0783766 ) 84
( 0.117041 0.00818022 0.0420265 ) 31
( 0.156477 -0.0547969 0.075757 ) 86
( 0.21687 -0.0590148 0.0692346 ) 52
( 0.0806645 -0.0278883 0.0761011 ) 92
( 0.236265 -0.0591647 0.0713478 ) 53
( 0.0967948 -0.0766666 0.0455031 ) 39
( 0.149263 -0.0386265 0.0467676 ) 59
( 0.0504883 -0.0408473 0.0514946 ) 55
( 0.155843 0.014139 0.0729789 ) 104
( 0.131622 -0.0428264 0.0723404 ) 94
( 0.0408971 0.00845054 0.0760524 ) 100
( 0.0925081 0.0137519 0.0493024 ) 66
( 0.141199 -0.0901467 0.076679 ) 77
( 0.198234 -0.0534035 0.065635 ) 52
( 0.154659 0.00874315 0.0430986 ) 68
( 0.198471 -0.0347403 0.0762595 ) 97
( 0.0756807 -0.0901029 0.0751109 ) 74
( 0.221808 -0.080317 0.0776239 ) 79
( 0.193127 0.00251628 0.0814119 ) 105
( 0.120676 -0.0259535 0.077799 ) 94
( 0.0146858 -0.0712104 0.0874156 ) 81
( 0.202247 -0.0128482 0.0729128 ) 106
( 0.174764 -0.0722189 0.0778408 ) 78
( 0.0234157 -0.00799596 0.0766364 ) 99
( 0.0663313 -0.0379703 0.0852782 ) 92
( 0.109669 -0.0723505 0.0843082 ) 75
( 0.181111 -0.0476301 0.0736651 ) 87
( 0.065711 -0.00218567 0.0805279 ) 101
( 0.194438 -0.0899163 0.0779858 ) 78
( 0.0402407 -0.0468812 0.0769127 ) 82
( 0.00979205 0.00610757 0.0806355 ) 99
( 0.0099168 -0.0523774 0.0831444 ) 81
( 0.163089 -0.00316841 0.0825317 ) 104
( 0.224557 0.00927858 0.0771389 ) 107
( 0.131061 0.00824129 0.0763018 ) 103
( 0.136759 -0.0612367 0.0774171 ) 85
( 0.142724 -0.0275458 0.0823663 ) 95
( 0.0613289 -0.0768913 0.0709291 ) 38
( 0.0775346 0.0129487 0.0853013 ) 101
( 0.1617 -0.0902541 0.071691 ) 77
( 0.24789 -0.0321777 0.0562013 ) 62
( 0.160046 -0.0681541 0.0902091 ) 86
( 0.0969658 -0.0902297 0.0722785 ) 75
( 0.245073 -0.0902257 0.0755914 ) 80
( 0.0580392 -0.0763715 0.0903053 ) 74
( 0.231329 -0.0176041 0.0901063 ) 98
( 0.106125 -0.0306427 0.0902645 ) 93
( 0.0358435 -0.0808465 0.0905018 ) 73
( 0.0733102 -0.0557103 0.0904273 ) 83
( 0.242562 0.00724542 0.0698165 ) 71
( 0.228952 -0.0672266 0.0903372 ) 89
( 0.0858028 -0.0403203 0.0904317 ) 93
( 0.0327308 -0.0246337 0.083044 ) 91
( 0.208691 -0.0703434 0.0903553 ) 88
( 0.111854 0.00430879 0.0790218 ) 103
( 0.225354 -0.0481706 0.0874948 ) 89
( 0.1654 -0.0363562 0.0777863 ) 95
( 0.126662 -0.0900299 0.090243 ) 76
( 0.0880767 -0.00569798 0.0753005 ) 102
( 0.111336 -0.0463707 0.0793666 ) 85
( 0.0268809 0.0100859 0.090102 ) 99
( 0.184957 -0.036837 0.0903555 ) 96
( 0.126981 -0.00534246 0.0901527 ) 103
( 0.206104 -0.0516699 0.0840576 ) 88
( 0.0521005 -0.0174296 0.0818326 ) 91
( 0.126405 -0.0392898 0.0906638 ) 94
( 0.0542048 0.0103441 0.0904493 ) 100
( 0.00983864 -0.030608 0.0898273 ) 90
( 0.218763 -0.0233117 0.0757172 ) 97
( 0.210189 -0.0901417 0.0901881 ) 79
( 0.0315492 -0.0614124 0.0905266 ) 82
( 0.146311 -0.00986245 0.0904608 ) 104
( 0.188077 -0.0564844 0.0901011 ) 87
( 0.146418 -0.0455178 0.0901526 ) 86
( 0.248469 -0.0573099 0.0865472 ) 89
( 0.176011 -0.0904664 0.085084 ) 78
( 0.180527 -0.00977117 0.0901434 ) 105
( 0.143805 0.0116285 0.0905136 ) 104
( 0.0506031 -0.0559812 0.0907249 ) 82
( 0.141709 -0.0755414 0.0902246 ) 77
( 0.0945911 0.00428677 0.0906019 ) 102
( 0.0860666 -0.0824633 0.0901922 ) 75
( 0.122303 -0.0585956 0.090432 ) 85
( 0.107871 -0.0107438 0.0906854 ) 102
( 0.247174 -0.0768487 0.0901262 ) 80
( 0.23255 -0.0900671 0.0906424 ) 80
( 0.0699321 -0.0189573 0.0902549 ) 92
( 0.169302 -0.0505356 0.0904881 ) 87
( 0.0256943 -0.0424542 0.0901317 ) 90
( 0.00982226 -0.0108277 0.0904401 ) 99
( 0.0980893 -0.055849 0.0903658 ) 84
( 0.155676 -0.0897787 0.0903392 ) 77
( 0.1045 -0.0901987 0.0904403 ) 75
( 0.0377911 -0.00686243 0.0903072 ) 100
( 0.216775 -0.00356631 0.0901441 ) 106
( 0.0898102 -0.018197 0.0904754 ) 93
( 0.187875 -0.0761515 0.0909503 ) 78
( 0.212011 -0.0340414 0.090544 ) 97
( 0.0476149 -0.035204 0.0905969 ) 91
( 0.00984664 -0.0901601 0.0900712 ) 72
( 0.24247 -0.0392112 0.0908609 ) 98
( 0.241489 0.0125449 0.0902513 ) 107
( 0.197111 -0.0208621 0.0902856 ) 97
( 0.164622 -0.0214115 0.0903814 ) 95
)
