/*--------------------------------*- C++ -*----------------------------------*\
| =========                 |                                                 |
| \\      /  F ield         | OpenFOAM: The Open Source CFD Toolbox           |
|  \\    /   O peration     | Version:  4.x                                   |
|   \\  /    A nd           | Web:      www.OpenFOAM.org                      |
|    \\/     M anipulation  |                                                 |
\*---------------------------------------------------------------------------*/
FoamFile
{
    version     2.0;
    format      ascii;
    class       volScalarField;
    location    "4.5";
    object      pSmooth;
}
// * * * * * * * * * * * * * * * * * * * * * * * * * * * * * * * * * * * * * //

dimensions      [1 -1 -2 0 0 0 0];

internalField   nonuniform List<scalar> 
108
(
160.41
140.751
150.884
118.816
139.492
94.5095
126.525
68.0757
112.948
161.821
141.976
152.568
120.296
140.593
96.7568
127.822
72.1698
117.006
162.242
142.109
152.529
120.095
140.493
95.4477
127.553
68.948
113.31
162.603
142.75
153.161
121.117
141.365
97.4006
128.072
71.5549
114.717
160.261
140.462
150.673
118.002
139.036
92.8494
125.81
65.7385
111.832
161.575
141.38
152.21
118.701
140.358
93.9907
127.074
67.6263
116.059
161.665
141.466
152.042
118.556
140.274
93.408
127.003
66.5652
114.431
162.321
141.832
152.728
119.124
140.955
93.9258
127.371
66.7926
113.063
160.162
140.204
150.148
117.77
138.397
92.7474
124.933
65.5376
110.732
160.928
140.719
150.962
117.955
139.033
92.7141
125.61
65.4489
111.742
161.002
140.718
150.759
117.696
138.904
92.4418
125.33
65.1973
110.873
161.611
141.004
151.534
118.273
139.381
92.8142
125.56
65.6346
111.382
)
;

boundaryField
{
    inlet
    {
        type            zeroGradient;
    }
    outlet
    {
        type            fixedValue;
        value           nonuniform 0();
    }
    wall
    {
        type            zeroGradient;
    }
    procBoundary4to0
    {
        type            processor;
        value           nonuniform List<scalar> 
36
(
159.817
140.546
150.903
118.487
139.943
93.8008
126.84
66.6125
112.987
161.133
141.441
152.483
119.211
141.45
94.3714
127.932
66.7624
113.842
161.512
141.922
152.693
120.04
141.158
95.02
127.859
67.6155
113.211
162.232
142.539
153.464
120.691
141.995
96.25
128.317
68.9653
113.499
)
;
    }
    procBoundary4to5
    {
        type            processor;
        value           nonuniform List<scalar> 
12
(
39.4289
43.5987
41.4856
45.0447
35.2376
36.5447
36.8639
39.004
36.1624
35.2437
36.3443
36.9615
)
;
    }
    procBoundary4to6
    {
        type            processor;
        value           nonuniform List<scalar> 
27
(
162.576
142.201
152.657
120.519
140.676
96.3835
127.78
69.9715
114.691
162.033
141.406
152.245
118.722
140.455
94.0268
127.271
67.1445
112.942
161.093
140.754
151.125
118.113
139.37
93.2921
126.146
66.3577
112.835
)
;
    }
}


// ************************************************************************* //
