/*--------------------------------*- C++ -*----------------------------------*\
| =========                 |                                                 |
| \\      /  F ield         | OpenFOAM: The Open Source CFD Toolbox           |
|  \\    /   O peration     | Version:  4.x                                   |
|   \\  /    A nd           | Web:      www.OpenFOAM.org                      |
|    \\/     M anipulation  |                                                 |
\*---------------------------------------------------------------------------*/
FoamFile
{
    version     2.0;
    format      ascii;
    class       volScalarField;
    location    "4.5";
    object      QPartFluidCoeff;
}
// * * * * * * * * * * * * * * * * * * * * * * * * * * * * * * * * * * * * * //

dimensions      [1 -1 -3 -1 0 0 0];

internalField   nonuniform List<scalar> 
108
(
-1.64459e+07
-2.34985e+07
-2.80355e+07
-1.99782e+07
-2.39944e+07
-2.03495e+07
-3.02163e+07
-2.34991e+07
-3.27396e+07
-2.32609e+07
-2.35851e+07
-3.05116e+07
-3.19158e+07
-3.30081e+07
-2.75971e+07
-2.61762e+07
-1.78859e+07
-3.56839e+07
-2.22448e+07
-3.35584e+07
-2.64705e+07
-3.04148e+07
-2.80981e+07
-2.04625e+07
-2.42604e+07
-3.39613e+07
-2.225e+07
-1.14137e+07
-2.20308e+07
-3.09625e+07
-1.86e+07
-2.92118e+07
-2.09298e+07
-3.81001e+07
-2.01822e+07
-2.36588e+07
-1.69258e+07
-1.81532e+07
-2.69116e+07
-2.78313e+07
-2.87748e+07
-1.89743e+07
-1.90615e+07
-2.69708e+07
-3.32696e+07
-2.08723e+07
-2.4755e+07
-2.57108e+07
-2.51265e+07
-2.53351e+07
-2.20222e+07
-2.82121e+07
-3.0268e+07
-3.46548e+07
-1.40491e+07
-2.40521e+07
-3.35159e+07
-2.74301e+07
-3.1184e+07
-2.74725e+07
-2.74557e+07
-2.45054e+07
-2.91848e+07
-2.07194e+07
-2.83661e+07
-2.52595e+07
-3.22752e+07
-3.68681e+07
-2.45393e+07
-4.03004e+07
-2.90932e+07
-2.78642e+07
-1.52248e+07
-2.05811e+07
-1.4776e+07
-1.99339e+07
-2.12576e+07
-2.68998e+07
-2.56933e+07
-2.39994e+07
-2.84528e+07
-1.62834e+07
-2.96541e+07
-2.38333e+07
-1.9451e+07
-2.51738e+07
-2.60697e+07
-2.51282e+07
-2.13304e+07
-2.9498e+07
-1.64742e+07
-2.49742e+07
-2.84521e+07
-2.35795e+07
-2.22944e+07
-2.41905e+07
-2.56356e+07
-2.88348e+07
-2.45897e+07
-2.5025e+07
-2.32243e+07
-2.2503e+07
-2.76434e+07
-2.93555e+07
-3.31957e+07
-1.72771e+07
-1.85058e+07
-2.47185e+07
)
;

boundaryField
{
    inlet
    {
        type            calculated;
        value           uniform 0;
    }
    outlet
    {
        type            calculated;
        value           nonuniform 0();
    }
    wall
    {
        type            calculated;
        value           uniform 0;
    }
    procBoundary4to0
    {
        type            processor;
        value           nonuniform List<scalar> 
36
(
330.788
374.067
514.119
398.132
547.329
647.045
467.589
353.946
482.978
389.588
713.946
683.011
605.429
546.615
472.43
801.201
554.351
522.143
390.598
411.346
678.103
449.728
655.581
614.027
666.024
381.75
729.661
362.61
493.594
720.807
766.523
410.342
749.981
656.806
430.673
203.443
)
;
    }
    procBoundary4to5
    {
        type            processor;
        value           nonuniform List<scalar> 
12
(
508.28
580.388
625.484
792.285
599.602
397.661
667.946
301.804
199.839
519.919
520.232
574.529
)
;
    }
    procBoundary4to6
    {
        type            processor;
        value           nonuniform List<scalar> 
27
(
746.848
663.941
453.681
584.601
832.174
459.627
662.466
506.889
765.769
576.246
670.148
742.977
608.885
512.79
594.375
608.123
466.473
739.196
352.259
404.532
551.238
535.994
550.72
502.826
796.21
665.873
347.408
)
;
    }
}


// ************************************************************************* //
