/*--------------------------------*- C++ -*----------------------------------*\
| =========                 |                                                 |
| \\      /  F ield         | OpenFOAM: The Open Source CFD Toolbox           |
|  \\    /   O peration     | Version:  4.x                                   |
|   \\  /    A nd           | Web:      www.OpenFOAM.org                      |
|    \\/     M anipulation  |                                                 |
\*---------------------------------------------------------------------------*/
FoamFile
{
    version     2.0;
    format      ascii;
    class       volVectorField;
    location    "4.5";
    object      Urel;
}
// * * * * * * * * * * * * * * * * * * * * * * * * * * * * * * * * * * * * * //

dimensions      [0 1 -1 0 0 0 0];

internalField   nonuniform List<vector> 
108
(
(-0.0235931 0.00111108 5.54828e-05)
(-0.0216444 0.00105428 -0.000174803)
(-0.0228834 0.00116326 -0.000511786)
(-0.021778 0.00108495 -0.000808928)
(-0.0233716 0.00109199 -0.00113488)
(-0.0225549 0.00107473 -0.00125374)
(-0.0241927 0.00112079 -0.0013457)
(-0.0233454 0.00131623 -0.00122204)
(-0.0249992 0.00162491 -0.00103073)
(-0.0232294 0.000996671 -6.72266e-07)
(-0.0208738 0.000879007 -0.000212849)
(-0.0218782 0.000940891 -0.000506801)
(-0.019979 0.000772017 -0.000698671)
(-0.0215019 0.00074752 -0.000937279)
(-0.0198271 0.000644812 -0.000906366)
(-0.0213991 0.000613453 -0.000885455)
(-0.0195933 0.000635412 -0.000640284)
(-0.0209025 0.000645584 -7.11765e-05)
(-0.0229096 0.000573538 -0.000100097)
(-0.0204089 0.000496346 -0.000286512)
(-0.0212608 0.000489702 -0.000570055)
(-0.0190973 0.000394301 -0.000676872)
(-0.0205745 0.000365946 -0.000820296)
(-0.0186136 0.000286574 -0.000743993)
(-0.0203349 0.000215288 -0.000648417)
(-0.0182985 0.000175999 -0.00040542)
(-0.0200529 -5.89653e-05 0.000102467)
(-0.0228097 8.49884e-05 -0.000128083)
(-0.0202548 4.52463e-05 -0.000309707)
(-0.0210738 2.31793e-05 -0.000590334)
(-0.0188837 4.99396e-06 -0.000679593)
(-0.0203037 -1.82418e-05 -0.000814637)
(-0.0183133 -2.61911e-05 -0.000713334)
(-0.0199983 -6.39526e-05 -0.000622009)
(-0.0179925 -5.25116e-05 -0.000395255)
(-0.0197843 -2.47289e-05 -8.49269e-05)
(-0.0237818 0.000994385 -0.000306061)
(-0.0218788 0.000936717 -0.00046384)
(-0.0232329 0.00102929 -0.000745279)
(-0.0222386 0.000931018 -0.000952524)
(-0.0239922 0.000959385 -0.00120141)
(-0.0233503 0.000880824 -0.00133632)
(-0.0251704 0.000917988 -0.00146255)
(-0.024546 0.00100713 -0.00148185)
(-0.0264075 0.00130583 -0.00145466)
(-0.0235214 0.00086856 -0.000431609)
(-0.021272 0.000774194 -0.000557838)
(-0.0224616 0.000823903 -0.000850491)
(-0.0207712 0.000676426 -0.000934833)
(-0.0224586 0.000685302 -0.00110955)
(-0.020954 0.000556646 -0.00108631)
(-0.0227543 0.000542194 -0.00111092)
(-0.0211357 0.000542552 -0.00101685)
(-0.0227515 0.00065825 -0.000923223)
(-0.0232775 0.000512017 -0.000538636)
(-0.0209702 0.000441897 -0.00064848)
(-0.0220208 0.000436279 -0.000937646)
(-0.0201882 0.000357722 -0.000967043)
(-0.021744 0.000340465 -0.00107751)
(-0.0200077 0.000256764 -0.000963325)
(-0.0218098 0.000214291 -0.00090381)
(-0.0199546 0.000154816 -0.000699999)
(-0.0217366 -4.48898e-05 -0.000436453)
(-0.0232031 8.65147e-05 -0.000554144)
(-0.0208413 4.92395e-05 -0.000668318)
(-0.0218651 4.10689e-05 -0.000943469)
(-0.0200084 1.53761e-05 -0.000977433)
(-0.021533 -6.37003e-06 -0.00109157)
(-0.0197839 -8.96028e-06 -0.000963568)
(-0.0215251 -3.9123e-05 -0.000879013)
(-0.0196837 -4.58252e-05 -0.000632389)
(-0.02154 -0.000213655 -0.000449214)
(-0.0239213 0.000854027 -0.000412782)
(-0.0220944 0.000803412 -0.000533853)
(-0.023534 0.000840099 -0.00076599)
(-0.0227078 0.000754036 -0.000913635)
(-0.0246101 0.000762865 -0.00110838)
(-0.0241973 0.000673535 -0.00117539)
(-0.0262283 0.000718493 -0.00129318)
(-0.0259888 0.000708591 -0.00128301)
(-0.0281155 0.000847861 -0.00129122)
(-0.0237658 0.00074905 -0.00054162)
(-0.021809 0.000676233 -0.000651702)
(-0.0231566 0.000686722 -0.000925366)
(-0.0220989 0.000581928 -0.0010203)
(-0.0238692 0.00056329 -0.00118592)
(-0.0230887 0.000464947 -0.00116651)
(-0.0249405 0.000461105 -0.00118331)
(-0.0241058 0.00044112 -0.00114044)
(-0.02604 0.00051468 -0.00119724)
(-0.0235766 0.000457706 -0.000623366)
(-0.0215984 0.000399707 -0.000737192)
(-0.0228659 0.000396854 -0.00101458)
(-0.0217448 0.000336293 -0.00109289)
(-0.0234215 0.000302597 -0.00123401)
(-0.0225613 0.000240651 -0.00113736)
(-0.0242931 0.000204305 -0.0010883)
(-0.0233936 0.00020872 -0.00091129)
(-0.0250972 0.000215862 -0.000844479)
(-0.0235126 6.32765e-05 -0.00065965)
(-0.0214787 4.92125e-05 -0.000759201)
(-0.0227115 5.62526e-05 -0.00102293)
(-0.0215122 4.20445e-05 -0.00108746)
(-0.0231682 4.26982e-05 -0.00122634)
(-0.0222408 5.26168e-05 -0.00111807)
(-0.023925 8.09544e-05 -0.00104282)
(-0.0229491 0.000136786 -0.0007841)
(-0.0245197 0.000231057 -0.000546338)
)
;

boundaryField
{
    inlet
    {
        type            calculated;
        value           nonuniform List<vector> 
12
(
(-0.0100038 6.39558e-07 5.06356e-05)
(-0.0100092 4.83892e-06 4.91803e-05)
(-0.00999593 1.80899e-06 5.75031e-05)
(-0.00999808 -6.69618e-06 7.35915e-05)
(-0.0100022 -1.21911e-05 5.19493e-05)
(-0.0100041 -7.93918e-07 4.11863e-05)
(-0.010005 2.52881e-06 4.93931e-05)
(-0.0100012 -3.03355e-06 5.63287e-05)
(-0.0100016 -5.63515e-06 4.64655e-05)
(-0.00999956 3.84126e-07 4.70391e-05)
(-0.0099999 -3.8623e-06 4.96062e-05)
(-0.0100054 -5.67911e-06 5.04994e-05)
)
;
    }
    outlet
    {
        type            calculated;
        value           nonuniform 0();
    }
    wall
    {
        type            calculated;
        value           nonuniform List<vector> 
63
(
(-1.59802e-06 -5.63515e-06 4.64655e-05)
(4.437e-07 3.84126e-07 4.70391e-05)
(1.04804e-07 -3.8623e-06 4.96062e-05)
(-5.37004e-06 -5.67911e-06 5.04994e-05)
(6.5768e-06 -2.14239e-06 3.5826e-05)
(2.77438e-06 -2.4832e-06 2.82439e-05)
(-3.45173e-07 4.56815e-06 3.08277e-05)
(-5.06087e-06 -3.65995e-06 6.43399e-05)
(5.14757e-06 2.25496e-07 3.71093e-05)
(1.50477e-06 -9.1391e-08 3.36938e-05)
(1.0506e-05 -9.20709e-06 3.76495e-05)
(6.14558e-06 5.07531e-06 6.95785e-05)
(9.82423e-06 -2.79464e-06 2.87787e-05)
(7.29197e-06 2.40315e-06 3.26074e-05)
(1.15083e-05 -1.81726e-06 5.43659e-05)
(6.34215e-06 2.37347e-06 4.37356e-05)
(3.26246e-05 -7.4758e-06 7.74747e-05)
(2.0005e-05 1.20184e-05 3.13825e-05)
(-2.20923e-06 1.00874e-05 5.17251e-05)
(2.96871e-06 1.78458e-05 6.16872e-05)
(1.22344e-05 3.01195e-06 3.70146e-05)
(1.80705e-05 -1.16174e-05 5.32175e-05)
(5.91018e-06 -4.40189e-06 3.28098e-05)
(4.10238e-06 9.13445e-06 6.91984e-05)
(1.00955e-05 -2.14975e-06 2.7315e-05)
(1.63032e-05 1.67833e-06 4.15493e-05)
(3.01785e-05 -1.44617e-05 4.73379e-05)
(3.07355e-05 -8.86187e-06 6.36295e-05)
(4.2868e-05 3.37276e-07 6.00827e-05)
(1.97009e-05 -1.83518e-05 5.08642e-05)
(3.02401e-05 -5.43479e-06 2.31829e-05)
(5.05657e-05 6.38447e-06 5.4734e-05)
(3.11741e-05 -8.2076e-06 5.33427e-05)
(2.76526e-05 -2.78082e-05 5.43912e-05)
(3.12559e-05 -2.19021e-05 3.09335e-05)
(5.15596e-05 -6.16205e-06 5.16229e-05)
(-3.75472e-06 6.39558e-07 5.06356e-05)
(-2.16885e-06 -1.21911e-05 5.19493e-05)
(-1.59802e-06 -5.63515e-06 4.64655e-05)
(3.16352e-05 4.34536e-06 7.3067e-05)
(2.33044e-06 -4.2105e-06 3.9561e-05)
(6.5768e-06 -2.14239e-06 3.5826e-05)
(2.38686e-05 6.09476e-06 4.56916e-05)
(5.40283e-06 -1.7667e-06 4.2499e-05)
(5.14757e-06 2.25496e-07 3.71093e-05)
(1.85957e-05 7.70451e-06 9.49481e-05)
(1.15478e-05 -6.88696e-06 6.3388e-05)
(9.82423e-06 -2.79464e-06 2.87787e-05)
(7.58908e-06 -1.01912e-06 8.39453e-05)
(1.79527e-05 -6.16808e-06 8.89264e-05)
(3.26246e-05 -7.4758e-06 7.74747e-05)
(2.52348e-05 2.33376e-06 6.43772e-05)
(7.44158e-06 -2.69028e-06 5.11337e-05)
(1.22344e-05 3.01195e-06 3.70146e-05)
(3.66648e-05 -5.73312e-06 7.32527e-05)
(4.55064e-05 -8.56648e-06 6.66518e-05)
(1.00955e-05 -2.14975e-06 2.7315e-05)
(3.73775e-05 -5.12842e-06 7.56652e-05)
(3.94575e-05 -1.27888e-06 6.97727e-05)
(4.2868e-05 3.37276e-07 6.00827e-05)
(3.51244e-05 -4.46693e-06 5.98302e-05)
(3.15127e-05 -2.1596e-06 5.59278e-05)
(3.11741e-05 -8.2076e-06 5.33427e-05)
)
;
    }
    procBoundary4to0
    {
        type            processor;
        value           nonuniform List<vector> 
36
(
(-0.0235552 0.00116481 0.000476309)
(-0.0215743 0.00111001 0.000145483)
(-0.0228463 0.00122855 -0.000286451)
(-0.0217188 0.00114537 -0.000686413)
(-0.0233157 0.00119676 -0.00110949)
(-0.0224495 0.00111507 -0.00122966)
(-0.024055 0.00116382 -0.00135324)
(-0.0231837 0.00117324 -0.00115526)
(-0.0248046 0.00132389 -0.00100698)
(-0.0231916 0.00107398 0.000473077)
(-0.0208207 0.000961991 0.000149567)
(-0.0218708 0.0010399 -0.000220531)
(-0.0199922 0.000880329 -0.000525105)
(-0.0214943 0.000855173 -0.000857756)
(-0.0197165 0.000731847 -0.000807772)
(-0.0214056 0.000705825 -0.000808334)
(-0.0195195 0.000679039 -0.000501139)
(-0.0212824 0.000673739 -5.94088e-05)
(-0.0227948 0.000656007 0.000404714)
(-0.020231 0.000562754 0.000100046)
(-0.0210883 0.000572129 -0.000250268)
(-0.0188523 0.000452123 -0.000466417)
(-0.0202933 0.000401077 -0.000703648)
(-0.0182384 0.000335382 -0.000618999)
(-0.0199523 0.000275091 -0.000526637)
(-0.0178597 0.0002462 -0.000278854)
(-0.0197361 0.000151506 0.000113519)
(-0.0226686 8.17579e-05 0.000384428)
(-0.0200274 4.43461e-05 8.60367e-05)
(-0.020858 2.24491e-05 -0.000259473)
(-0.0185442 -3.17271e-06 -0.000455798)
(-0.0199918 -2.7263e-05 -0.000674538)
(-0.0179141 -3.34581e-05 -0.000580316)
(-0.0196388 -6.68799e-05 -0.000522713)
(-0.0175947 -6.32047e-05 -0.000262927)
(-0.0194623 -6.88314e-05 4.0373e-05)
)
;
    }
    procBoundary4to5
    {
        type            processor;
        value           nonuniform List<vector> 
12
(
(-0.0240754 0.00150038 -0.000870216)
(-0.0182073 0.000765597 0.00033297)
(-0.0178202 0.000361413 0.000131511)
(-0.0177905 0.000100762 8.10159e-05)
(-0.0257105 0.00102579 -0.00119685)
(-0.0199977 0.000573496 -0.000199723)
(-0.0190439 0.000498464 4.72913e-05)
(-0.0196214 0.000241807 -0.000116314)
(-0.0279755 0.00061921 -0.000898477)
(-0.0251018 0.000486479 -0.000567553)
(-0.0240261 0.000560015 -0.000231688)
(-0.0233846 0.00059018 -0.000161832)
)
;
    }
    procBoundary4to6
    {
        type            processor;
        value           nonuniform List<vector> 
27
(
(-0.0228417 -0.000485267 -8.61952e-05)
(-0.0202959 -0.000441334 -0.000264071)
(-0.0211126 -0.000465713 -0.000516768)
(-0.0189598 -0.000394779 -0.000633853)
(-0.0204572 -0.000392608 -0.000779369)
(-0.018556 -0.000349275 -0.000713054)
(-0.0203108 -0.000392787 -0.000631069)
(-0.0184486 -0.000343692 -0.000455076)
(-0.0202309 -0.000361661 -0.000159704)
(-0.0232308 -0.000408076 -0.000553762)
(-0.0208861 -0.00037306 -0.000631679)
(-0.0218951 -0.000392586 -0.000873726)
(-0.0200053 -0.000346793 -0.000891454)
(-0.0215841 -0.000349419 -0.000977784)
(-0.0198453 -0.000303989 -0.000858032)
(-0.0216779 -0.000324214 -0.000732173)
(-0.0199051 -0.000279538 -0.000556464)
(-0.0218782 -0.00031724 -0.000334215)
(-0.0235639 -0.000372179 -0.000659316)
(-0.0215739 -0.000332246 -0.000732418)
(-0.0227841 -0.000346539 -0.000971079)
(-0.0215578 -0.000314628 -0.00101266)
(-0.0231621 -0.000308473 -0.00110532)
(-0.0220969 -0.000261184 -0.000970247)
(-0.0237028 -0.000245926 -0.000822173)
(-0.0223971 -0.000193786 -0.000558088)
(-0.0238923 -0.000155156 -0.000218754)
)
;
    }
}


// ************************************************************************* //
