/*--------------------------------*- C++ -*----------------------------------*\
| =========                 |                                                 |
| \\      /  F ield         | OpenFOAM: The Open Source CFD Toolbox           |
|  \\    /   O peration     | Version:  4.x                                   |
|   \\  /    A nd           | Web:      www.OpenFOAM.org                      |
|    \\/     M anipulation  |                                                 |
\*---------------------------------------------------------------------------*/
FoamFile
{
    version     2.0;
    format      ascii;
    class       volVectorField;
    location    "4.5";
    object      Us;
}
// * * * * * * * * * * * * * * * * * * * * * * * * * * * * * * * * * * * * * //

dimensions      [0 1 -1 0 0 0 0];

internalField   nonuniform List<vector> 
108
(
(2.10059e-08 -2.64058e-09 -2.94495e-08)
(-6.67518e-08 -4.48054e-08 5.78444e-09)
(1.46504e-07 -1.69131e-07 1.26964e-07)
(4.51121e-07 -2.2747e-07 3.55502e-07)
(3.94718e-07 -3.36168e-07 3.1882e-07)
(4.93182e-07 -3.00787e-07 -4.0345e-08)
(5.88456e-07 -6.1725e-08 -1.4583e-07)
(4.81562e-07 3.18585e-08 -1.71051e-07)
(-3.12351e-07 2.58207e-07 1.21273e-07)
(1.47199e-07 -1.3803e-08 -6.08868e-08)
(3.77082e-07 -1.14791e-07 -2.40467e-08)
(6.83331e-07 -5.01368e-07 2.44903e-07)
(1.03472e-06 -6.24792e-07 4.45781e-07)
(1.25853e-06 -5.00533e-07 1.66129e-07)
(1.30827e-06 -2.22271e-07 -1.8707e-08)
(8.10756e-07 -1.18388e-08 -2.99955e-07)
(6.55977e-07 1.76645e-07 -3.52297e-07)
(-2.11444e-07 6.3958e-07 1.16821e-08)
(2.28963e-07 -6.83856e-08 -4.93789e-08)
(8.42997e-07 -1.81179e-07 -8.04637e-08)
(1.22617e-06 -6.14698e-07 1.01579e-07)
(1.53336e-06 -6.56275e-07 -1.48336e-07)
(1.58376e-06 -3.98904e-07 -1.0536e-07)
(1.56002e-06 -8.77231e-08 -1.4317e-07)
(1.16123e-06 1.46212e-07 -6.05433e-07)
(7.22067e-07 2.38117e-07 -4.85101e-07)
(-1.8749e-07 3.66325e-07 -2.82943e-07)
(2.86392e-07 -7.58169e-08 -7.39415e-08)
(7.32859e-07 -2.52295e-07 -1.45709e-07)
(1.32211e-06 -5.39846e-07 -2.21174e-07)
(1.47183e-06 -3.88798e-07 -4.56597e-07)
(1.73085e-06 -2.15931e-07 -1.17923e-07)
(1.40111e-06 -6.93467e-08 -2.06275e-07)
(4.78942e-07 2.43e-07 -4.79359e-07)
(-1.04662e-07 4.41817e-07 -2.49372e-07)
(-4.25303e-07 5.17817e-07 -2.84051e-07)
(-1.15032e-08 2.20514e-08 -2.2045e-08)
(-3.31674e-08 1.04715e-08 1.66466e-08)
(5.5568e-08 -5.19057e-08 1.75527e-07)
(1.93401e-07 -5.72833e-08 2.29319e-07)
(3.21009e-07 -4.2771e-08 2.24188e-07)
(3.08856e-07 -6.27143e-08 5.71047e-08)
(2.97457e-07 -7.59148e-08 -1.01979e-07)
(3.18385e-07 4.87828e-08 -1.15128e-07)
(-1.7561e-08 1.06609e-07 -2.90091e-08)
(2.03174e-08 1.41678e-08 -3.58287e-08)
(1.00886e-07 -2.82556e-08 -1.99389e-08)
(2.16678e-07 -1.28263e-07 1.34743e-07)
(5.61669e-07 -8.95413e-08 1.85161e-07)
(8.19436e-07 -4.56976e-08 1.43196e-07)
(8.26816e-07 -1.48533e-07 8.5708e-08)
(6.18579e-07 -1.32197e-07 -1.18299e-07)
(3.55274e-07 -7.91002e-08 -2.82259e-07)
(6.3176e-08 3.79443e-07 -1.70117e-07)
(3.03435e-08 -1.57356e-08 -2.21741e-08)
(2.59502e-07 -4.14766e-08 -1.4107e-07)
(4.89736e-07 -5.51962e-08 -7.39608e-08)
(7.852e-07 -2.87703e-07 4.58117e-08)
(9.90275e-07 -1.74376e-07 -3.39797e-08)
(1.0447e-06 -9.61994e-08 -8.15471e-08)
(7.74706e-07 -2.51846e-08 -3.12349e-07)
(-1.90113e-07 8.69332e-08 -2.67437e-07)
(-3.31477e-07 4.58094e-07 -2.69669e-07)
(6.80061e-08 -9.37009e-08 -7.81921e-08)
(2.71789e-07 -1.66438e-07 -1.40106e-07)
(7.50843e-07 -3.60904e-07 -3.10158e-07)
(8.80369e-07 -3.5031e-07 -1.96736e-07)
(8.74152e-07 -1.1105e-07 -7.03966e-08)
(3.3269e-07 -2.07035e-07 -7.58983e-08)
(-2.43861e-07 -1.57928e-07 -3.21175e-07)
(-6.34254e-07 4.03797e-07 -3.27191e-07)
(-1.2131e-06 5.81388e-07 -1.59127e-07)
(-4.1251e-08 9.30059e-09 -9.61663e-09)
(-1.18066e-07 3.1892e-08 6.68483e-09)
(-1.15369e-07 2.69582e-08 5.09768e-08)
(1.12317e-07 8.41437e-10 7.81282e-08)
(1.10562e-07 -4.60563e-08 7.70086e-08)
(1.32282e-07 -4.56503e-08 3.11493e-08)
(2.59318e-07 -7.71113e-08 -2.83145e-08)
(1.12002e-07 -1.99597e-08 -6.07736e-08)
(-8.97042e-08 7.68981e-08 -2.84749e-09)
(-4.36635e-08 1.28089e-08 1.57621e-08)
(-4.27234e-08 6.5763e-08 -1.98492e-08)
(2.31004e-08 5.57316e-08 -4.09404e-09)
(1.48324e-07 3.69361e-08 1.69477e-08)
(3.9452e-07 -2.99346e-08 7.24537e-08)
(3.81219e-07 -3.12421e-07 7.59191e-08)
(2.78864e-07 -1.33476e-07 -2.86997e-10)
(1.00349e-07 9.03557e-09 -1.35319e-07)
(-7.52319e-08 2.53985e-07 -1.32535e-07)
(-3.30144e-08 -1.3081e-08 1.27976e-08)
(6.70634e-08 1.03251e-07 -6.08718e-08)
(1.23695e-07 4.95555e-08 -3.79753e-08)
(2.9827e-07 -1.78994e-08 -2.07075e-08)
(7.13483e-07 -3.72248e-08 2.99585e-08)
(5.70405e-07 -2.21317e-07 -2.60309e-08)
(-8.75638e-08 -2.35486e-07 -1.14269e-07)
(-2.98922e-07 -1.43109e-08 -1.00274e-07)
(-4.98376e-07 3.32094e-07 -1.08677e-07)
(5.4053e-08 -5.21446e-08 -6.03463e-08)
(8.28855e-08 -1.73764e-08 -8.89189e-08)
(2.34801e-07 2.94353e-08 -1.30392e-07)
(2.90907e-07 -1.64912e-07 -7.91636e-08)
(3.29176e-07 -1.86008e-07 -3.82417e-08)
(1.18631e-07 -2.25446e-07 1.04843e-08)
(-3.36997e-07 -4.18559e-08 -3.65914e-08)
(-7.17537e-06 4.13635e-06 -7.1081e-08)
(-1.07204e-06 4.28226e-07 -1.20907e-07)
)
;

boundaryField
{
    inlet
    {
        type            zeroGradient;
    }
    outlet
    {
        type            zeroGradient;
    }
    wall
    {
        type            zeroGradient;
    }
    procBoundary4to0
    {
        type            processor;
        value           nonuniform List<vector> 
36
(
(4.85806e-08 7.19845e-08 -9.12464e-08)
(9.87077e-08 -1.4641e-07 -7.26127e-08)
(4.22329e-07 -1.28827e-07 7.0716e-08)
(7.80809e-07 -1.64606e-07 2.2858e-07)
(8.0389e-07 -2.08618e-07 -1.88153e-08)
(1.35061e-06 -1.13736e-07 -2.80977e-07)
(1.29544e-06 -9.27413e-08 -2.38394e-07)
(8.92819e-07 -1.18548e-07 -2.18742e-07)
(2.88096e-07 1.57802e-07 -6.14978e-08)
(1.94028e-07 2.27194e-08 -1.01532e-07)
(6.60517e-07 -2.2074e-07 -6.70739e-08)
(1.21121e-06 -6.86701e-07 3.33643e-07)
(2.41448e-06 -6.54138e-07 4.15084e-07)
(2.39036e-06 -6.14027e-07 -3.15126e-08)
(2.05365e-06 -2.70281e-07 -3.02124e-07)
(1.53973e-06 -1.95041e-07 -5.17832e-07)
(8.18818e-07 1.27131e-07 -5.81915e-07)
(5.00901e-07 2.91648e-07 -3.25682e-07)
(6.67548e-07 -1.93952e-07 -3.69761e-09)
(1.25124e-06 -4.56223e-07 7.17847e-08)
(2.54371e-06 -8.15841e-07 3.08481e-07)
(2.30689e-06 -1.03157e-06 1.20793e-07)
(3.01919e-06 -6.84044e-07 9.6179e-09)
(2.18903e-06 -3.67387e-08 -2.87878e-07)
(1.57075e-06 9.27458e-08 -7.7269e-07)
(1.17581e-06 3.22088e-07 -7.31884e-07)
(5.15392e-07 3.43504e-07 -5.12519e-07)
(3.42787e-07 -2.33422e-07 2.59143e-08)
(1.85375e-06 -9.1124e-07 9.72141e-09)
(2.81148e-06 -5.62971e-07 4.86876e-08)
(3.07458e-06 -1.99238e-07 -5.93514e-08)
(2.86359e-06 -1.6375e-07 -3.25668e-07)
(2.38309e-06 1.19864e-07 -4.1133e-07)
(1.59162e-06 4.39372e-07 -7.22017e-07)
(1.23249e-06 4.48243e-07 -5.58283e-07)
(7.682e-07 5.14644e-07 -4.08148e-07)
)
;
    }
    procBoundary4to5
    {
        type            processor;
        value           nonuniform List<vector> 
12
(
(-2.58693e-07 5.01356e-08 7.21075e-08)
(-4.77432e-07 6.02767e-08 2.38376e-08)
(-3.73221e-07 4.89605e-07 -2.18594e-07)
(-5.67049e-07 4.12269e-07 -2.865e-08)
(-3.0414e-07 8.56703e-08 3.43575e-08)
(-2.41329e-07 3.55107e-07 -8.8001e-08)
(-8.11637e-07 4.08331e-07 -2.03316e-07)
(-1.25912e-06 4.07879e-07 -1.07781e-07)
(-3.2388e-07 7.74158e-08 1.88776e-08)
(-2.88265e-07 2.86841e-07 -7.82867e-08)
(-7.14067e-07 1.71885e-07 -1.06835e-07)
(-9.40364e-07 1.44868e-07 6.34299e-08)
)
;
    }
    procBoundary4to6
    {
        type            processor;
        value           nonuniform List<vector> 
27
(
(5.33159e-07 -1.79106e-07 -1.69767e-07)
(9.10481e-07 -5.07139e-07 -2.18862e-07)
(1.45933e-06 -3.85138e-07 -2.24276e-07)
(1.76062e-06 -2.26294e-07 -4.06674e-09)
(1.84428e-06 -1.0975e-08 -1.65621e-07)
(8.58104e-07 1.32862e-07 -1.41571e-07)
(6.02621e-07 3.30212e-07 2.65269e-08)
(-4.56336e-08 5.46511e-07 -3.06e-08)
(-4.58776e-07 4.57252e-07 2.2108e-08)
(1.31247e-07 -1.38726e-07 -9.85236e-08)
(5.78358e-07 -3.83636e-07 -2.40476e-07)
(8.18489e-07 -4.09186e-07 -2.67072e-07)
(7.73246e-07 -3.25814e-07 -7.8548e-08)
(4.77411e-07 -8.40325e-08 -1.01149e-08)
(-5.15403e-08 1.51804e-07 2.77072e-08)
(-3.79515e-07 1.82793e-07 8.95625e-08)
(-6.40821e-07 3.55039e-07 -2.06377e-08)
(-8.08963e-07 4.22673e-07 -2.0422e-08)
(6.33e-08 -1.03872e-07 -3.46118e-08)
(6.83314e-08 -2.25457e-07 -6.8347e-08)
(2.81908e-07 -1.19302e-07 -1.44797e-07)
(2.15535e-07 -1.11668e-07 -5.46766e-08)
(1.30513e-07 -7.96741e-08 2.02941e-08)
(-5.33489e-08 5.60082e-08 3.52021e-08)
(-8.19928e-07 -2.87376e-07 -7.60134e-08)
(-8.48025e-07 4.08241e-07 -2.66721e-08)
(-1.13634e-06 3.1143e-07 -2.30136e-07)
)
;
    }
}


// ************************************************************************* //
