/*--------------------------------*- C++ -*----------------------------------*\
| =========                 |                                                 |
| \\      /  F ield         | OpenFOAM: The Open Source CFD Toolbox           |
|  \\    /   O peration     | Version:  4.x                                   |
|   \\  /    A nd           | Web:      www.OpenFOAM.org                      |
|    \\/     M anipulation  |                                                 |
\*---------------------------------------------------------------------------*/
FoamFile
{
    version     2.0;
    format      ascii;
    class       volScalarField;
    location    "18.5";
    object      KslPrev;
}
// * * * * * * * * * * * * * * * * * * * * * * * * * * * * * * * * * * * * * //

dimensions      [1 -3 -1 0 0 0 0];

internalField   nonuniform List<scalar> 
114
(
2938.68
6792.82
2691.05
7578.62
2240.53
7240.43
18540.8
3468.29
15608
3364.63
11281.9
3443.05
5298.61
3739.45
33851.5
3700.62
50385.4
3724.93
54488.2
3996.42
14579.8
7666.26
3286.52
8592.03
3260.97
10710.1
3328.27
15937.8
3902.13
21349.7
54386.9
3865.92
9.94125e+09
3974.89
1e+10
4260.4
7.44885e+09
5285.09
62677.2
278358
3920.4
1e+10
3940.96
1e+10
3989.38
8.3743e+09
4057.71
30062.1
1e+10
3947.86
6194.85
3061.42
6181.57
2860.06
6154.76
2558.4
5913.21
2068.25
3996.31
19768.8
3657.92
19826.2
3524.39
16158.8
3411.31
10793.6
3391.21
4534.82
21194.5
3606.66
20683.3
3510.35
19288.7
3494.45
16455.9
3707.6
12573.3
44357.4
3919.02
159030
3984.19
4831.89
2811.99
4716.46
2634.5
4684.58
2311.14
4687.56
1673.31
3674.02
6028.2
3119.36
5849.85
2997.93
5766.74
2888.67
5557.42
2795.04
3306.99
7199.56
3231.88
7341.01
3139.79
7413.44
3069.63
7811.29
3075.73
9292.63
8930.7
3435.7
8663.11
3427.86
8517.37
3468.5
)
;

boundaryField
{
    inlet
    {
        type            zeroGradient;
    }
    outlet
    {
        type            zeroGradient;
    }
    wall
    {
        type            zeroGradient;
    }
    procBoundary5to1
    {
        type            processor;
        value           uniform 0;
    }
    procBoundary5to4
    {
        type            processor;
        value           uniform 0;
    }
    procBoundary5to7
    {
        type            processor;
        value           uniform 0;
    }
}


// ************************************************************************* //
