/*--------------------------------*- C++ -*----------------------------------*\
| =========                 |                                                 |
| \\      /  F ield         | OpenFOAM: The Open Source CFD Toolbox           |
|  \\    /   O peration     | Version:  4.x                                   |
|   \\  /    A nd           | Web:      www.OpenFOAM.org                      |
|    \\/     M anipulation  |                                                 |
\*---------------------------------------------------------------------------*/
FoamFile
{
    version     2.0;
    format      ascii;
    class       volScalarField;
    location    "18.5";
    object      p_rgh;
}
// * * * * * * * * * * * * * * * * * * * * * * * * * * * * * * * * * * * * * //

dimensions      [1 -1 -2 0 0 0 0];

internalField   nonuniform List<scalar> 
114
(
66.0908
-17.4545
60.4905
-39.2495
57.4926
-64.1176
2.98633
65.6825
-16.3103
59.2508
-35.8703
53.9028
-52.5606
73.1179
4.32342
66.2497
-14.1007
59.8774
-32.1151
54.0409
-47.902
22.4623
73.0552
4.14075
66.1121
-14.8654
59.5754
-34.0058
53.5292
-47.9604
22.8179
73.0917
4.91108
65.7264
-12.7742
58.9395
-29.7695
49.4028
-54.4497
23.7329
72.738
6.27755
65.9164
-11.2423
59.4256
-28.5986
51.3234
-44.0042
24.2012
72.8005
22.3666
72.7281
3.3552
65.7374
-17.0375
59.5636
-40.1672
56.6526
-69.1047
22.7221
72.585
4.17648
65.1466
-14.7733
58.2095
-34.0712
52.1237
-50.0507
22.8616
72.6877
4.42457
65.5919
-14.2457
59.1032
-32.9179
53.8098
-48.3904
23.9949
72.7515
6.2081
65.1085
22.6789
72.741
3.92871
65.8056
-16.352
59.714
-40.0672
57.208
-27.5839
23.0343
72.6641
4.52132
65.3282
-14.4421
58.2132
-34.1503
52.3494
-53.3371
23.228
72.8091
4.88528
65.5985
-14.0359
58.8329
-33.4052
53.2314
-51.4659
23.8633
72.6475
5.98559
65.0482
-11.9276
57.4346
)
;

boundaryField
{
    inlet
    {
        type            fixedFluxPressure;
        gradient        nonuniform 0();
        value           nonuniform 0();
    }
    outlet
    {
        type            fixedValue;
        value           uniform 0;
    }
    wall
    {
        type            fixedFluxPressure;
        gradient        nonuniform List<scalar> 
66
(
3.43924e-05
6.80835e-05
-6.85119e-06
-4.3387e-05
-7.34932e-06
-2.49534e-05
-2.50144e-05
-9.79177e-06
4.46916e-05
0.000103148
4.92571e-05
-9.07986e-06
0.000108466
8.1645e-05
3.47155e-05
-2.17799e-05
-3.38259e-05
5.15226e-05
-3.572e-05
-0.00012075
8.46334e-06
-2.26972e-05
-4.51737e-05
-2.94979e-05
5.15849e-06
-2.66237e-05
-6.59626e-05
-2.46149e-05
-2.82138e-05
-1.51554e-05
-0.000107615
-3.33561e-05
-8.72274e-05
-1.89941e-05
-2.82818e-05
2.90751e-05
4.00648e-05
2.52596e-05
-5.28971e-06
-3.91082e-05
-1.64904e-05
-1.93885e-05
-9.69264e-05
-2.29251e-05
0.000105982
3.32376e-05
-0.00019736
-4.42008e-05
2.64e-05
-3.43633e-05
-6.25841e-05
-4.10551e-05
-3.40894e-05
-1.15835e-05
-7.01968e-05
-7.49067e-05
-2.09481e-05
-1.18722e-05
-2.22868e-05
-2.83654e-05
-1.64939e-05
-2.13525e-05
-0.000518194
-0.000441656
-4.14473e-05
-0.000101293
)
;
        value           nonuniform List<scalar> 
66
(
22.6789
23.0343
23.228
23.8633
72.741
72.6641
72.8091
72.6475
3.92872
4.52133
4.88528
5.98559
65.8056
65.3282
65.5985
65.0482
-16.352
-14.4421
-14.0359
-11.9276
59.714
58.2132
58.8329
57.4346
-40.0672
-34.1503
-33.4052
57.208
52.3494
53.2314
-27.5839
-53.3371
-51.4659
22.4623
22.3666
22.6789
73.0552
72.7281
72.741
4.14075
3.3552
3.92871
66.0908
66.1121
65.7374
65.8056
-17.4545
-14.8654
-17.0375
-16.352
60.4905
59.5754
59.5636
59.714
-39.2495
-34.0058
-40.1672
-40.0672
57.4926
53.5292
56.6526
57.208
-64.1176
-47.9604
-69.1047
-27.5839
)
;
    }
    procBoundary5to1
    {
        type            processor;
        value           nonuniform List<scalar> 
32
(
66.2175
-16.2763
60.7966
-36.845
57.2597
-59.2746
4.47835
66.8198
-14.6403
60.0563
-33.919
54.6307
-51.7799
73.0196
5.45093
66.5345
-12.6195
60.2404
-30.5387
53.1572
-48.0394
21.739
72.7981
2.74724
2.74724
2.74724
21.9908
72.8167
72.8167
72.8167
22.6389
22.6389
)
;
    }
    procBoundary5to4
    {
        type            processor;
        value           nonuniform List<scalar> 
12
(
80.283
80.6029
80.5171
80.6675
80.0141
80.2432
80.1775
80.4164
79.9031
80.1556
80.1728
80.273
)
;
    }
    procBoundary5to7
    {
        type            processor;
        value           nonuniform List<scalar> 
44
(
73.0308
5.74233
65.6266
-11.9417
58.9145
-29.5164
52.4252
-45.5468
23.6494
73.0308
6.77542
65.5858
-10.8589
58.5847
-28.5842
51.5698
-44.2772
24.1861
6.77542
72.7071
6.77542
65.5858
-10.9804
58.2676
-27.0967
50.8171
-40.2519
23.5277
72.7979
5.34722
-10.9804
65.6537
-10.9804
58.2676
-29.361
50.1987
-44.4061
23.8318
72.8348
5.83121
65.5116
-12.3447
-29.361
58.3079
)
;
    }
}


// ************************************************************************* //
