/*--------------------------------*- C++ -*----------------------------------*\
| =========                 |                                                 |
| \\      /  F ield         | OpenFOAM: The Open Source CFD Toolbox           |
|  \\    /   O peration     | Version:  4.x                                   |
|   \\  /    A nd           | Web:      www.OpenFOAM.org                      |
|    \\/     M anipulation  |                                                 |
\*---------------------------------------------------------------------------*/
FoamFile
{
    version     2.0;
    format      ascii;
    class       volVectorField;
    location    "18.5";
    object      UsPrev;
}
// * * * * * * * * * * * * * * * * * * * * * * * * * * * * * * * * * * * * * //

dimensions      [0 1 -1 0 0 0 0];

internalField   nonuniform List<vector> 
114
(
(-8.56616e-08 1.5259e-08 3.9265e-09)
(-6.58859e-08 1.33257e-08 4.84239e-09)
(-5.75823e-08 1.06717e-08 6.69172e-09)
(-2.57392e-08 4.09772e-09 2.31845e-09)
(-2.09194e-08 2.81743e-09 -1.34306e-09)
(-1.79745e-07 3.11541e-08 -2.9959e-09)
(-1.4322e-07 1.84069e-08 2.06617e-09)
(-1.34543e-07 2.49617e-08 7.90803e-09)
(-1.18303e-07 2.65297e-08 3.83737e-09)
(-8.07841e-08 1.43539e-08 2.45514e-09)
(-5.64993e-08 5.21587e-09 5.34182e-09)
(-3.158e-08 7.35221e-09 -2.21028e-09)
(-2.35712e-08 2.30678e-08 -6.54625e-09)
(-1.69602e-07 9.28006e-09 -7.85305e-09)
(-1.68433e-07 1.77577e-08 4.76538e-10)
(-1.62619e-07 1.64313e-08 2.99699e-09)
(-1.38915e-07 1.56849e-08 6.4261e-10)
(-1.049e-07 1.48457e-08 1.27617e-10)
(-6.81499e-08 2.44765e-09 4.39159e-09)
(-3.91373e-08 7.22088e-09 8.93403e-10)
(-1.79913e-08 5.25441e-09 -2.75484e-09)
(-4.60526e-08 1.14757e-09 7.62037e-09)
(-5.46979e-08 -5.61739e-09 7.41553e-09)
(-6.56974e-08 2.14668e-09 3.58451e-09)
(-5.68726e-08 3.2782e-09 1.09495e-09)
(-5.30624e-08 1.90236e-09 -7.27227e-09)
(-3.30038e-08 5.63904e-09 7.11844e-10)
(-2.49543e-08 1.90462e-09 -1.4204e-09)
(-1.69992e-08 -2.01681e-09 -3.16725e-09)
(-1.2218e-08 4.65895e-09 -8.83503e-09)
(-1.05096e-07 -9.91813e-09 -3.03974e-09)
(-1.27788e-07 -2.42039e-08 1.03878e-08)
(-1.1449e-07 1.07874e-08 -3.5754e-09)
(-1.05547e-07 5.2454e-09 1.26272e-09)
(-9.35366e-08 2.97302e-09 -5.02027e-09)
(-7.16351e-08 4.40617e-09 -4.29034e-09)
(-5.8293e-08 6.19248e-09 -3.39537e-09)
(-3.67184e-08 5.6946e-09 -3.72284e-09)
(-1.36346e-08 4.3737e-09 -6.66189e-09)
(-1.32336e-07 -2.20917e-09 -1.45595e-08)
(-1.45817e-07 5.58934e-09 6.59565e-10)
(-1.45798e-07 1.16987e-08 5.95327e-10)
(-1.44184e-07 1.32758e-08 -2.9625e-09)
(-1.16215e-07 8.78892e-09 6.41862e-10)
(-8.82795e-08 7.43664e-09 -4.7209e-09)
(-6.25565e-08 4.55748e-09 2.2932e-10)
(-3.71451e-08 5.597e-09 -2.03489e-10)
(-9.99059e-09 6.51895e-09 -1.93377e-09)
(-1.44045e-07 -9.76584e-10 -1.40864e-08)
(-1.58841e-07 7.53258e-09 -2.8578e-09)
(-4.13754e-08 2.10781e-09 4.58453e-09)
(-4.10068e-08 -3.74055e-09 2.91631e-10)
(-4.64508e-08 1.30642e-09 -2.72146e-09)
(-7.11758e-08 -1.68073e-08 2.84582e-08)
(-5.58857e-08 -1.91899e-09 -3.92721e-09)
(-3.27443e-08 6.0348e-09 8.03649e-10)
(-2.2625e-08 1.47875e-09 -1.85681e-09)
(-2.01162e-08 2.07078e-09 -3.96764e-09)
(-2.21755e-09 3.16723e-09 -1.36941e-08)
(-7.321e-08 4.54656e-09 4.45432e-10)
(-7.4982e-08 6.46986e-10 1.38173e-09)
(-7.92563e-08 1.21692e-09 -8.00613e-09)
(-2.01944e-07 -3.53829e-08 -1.66799e-09)
(-8.1943e-08 1.4404e-10 -6.74577e-09)
(-6.15926e-08 -5.35164e-11 -2.04606e-09)
(-3.98062e-08 6.28076e-09 -3.57899e-09)
(-2.78926e-08 5.98706e-09 -3.28137e-09)
(-9.1179e-09 5.35662e-09 -3.41557e-09)
(-1.17797e-07 -5.89931e-09 -1.23878e-08)
(-1.23888e-07 -3.26535e-09 1.51282e-09)
(-1.18608e-07 -1.5474e-09 -8.95083e-10)
(-1.28152e-07 3.77933e-09 -4.4469e-09)
(-9.60568e-08 2.40429e-09 -2.66825e-09)
(-7.14183e-08 6.11159e-11 -5.78941e-09)
(-4.81596e-08 1.00085e-09 -1.32198e-09)
(-2.81695e-08 3.36948e-09 -2.04776e-09)
(-1.54562e-08 4.2309e-09 -4.12933e-09)
(-1.17182e-07 -9.24257e-09 -1.76444e-08)
(-1.34598e-07 1.78531e-10 -8.6049e-09)
(-1.39405e-07 1.84513e-09 -3.79242e-09)
(-1.30137e-07 6.79505e-10 -7.57043e-09)
(-1.83912e-08 -2.80129e-09 3.29705e-09)
(-2.5045e-08 8.59758e-10 -1.25042e-09)
(-2.00549e-08 1.84289e-09 4.30788e-09)
(-5.29149e-08 -5.74469e-09 1.87372e-08)
(-4.53576e-08 3.35413e-09 -3.29608e-09)
(-2.52777e-08 2.32125e-09 1.70867e-09)
(-1.88823e-08 1.12e-09 6.5937e-10)
(-1.25127e-08 5.6879e-09 -5.99423e-09)
(-6.79614e-10 1.25355e-08 -1.31687e-08)
(-4.35529e-08 -1.32148e-09 5.16212e-09)
(-4.60543e-08 -3.61564e-10 -3.75353e-09)
(-1.11665e-07 2.53787e-08 7.84399e-09)
(-3.07744e-07 -5.92637e-08 1.23473e-08)
(-6.5189e-08 3.37939e-09 4.01812e-09)
(-3.609e-08 8.15749e-10 -3.49032e-09)
(-3.14214e-08 1.46307e-09 -1.44529e-09)
(-1.50546e-08 7.19335e-09 -2.46763e-09)
(-3.89485e-09 1.4397e-08 -3.42217e-09)
(-6.25093e-08 -3.68038e-09 -4.68759e-10)
(-7.1217e-08 1.86842e-09 -3.59353e-09)
(-8.28295e-08 1.05164e-08 2.95168e-09)
(-1.24596e-07 4.42384e-09 4.93341e-09)
(-6.13427e-08 -6.70191e-09 -2.18501e-09)
(-5.19612e-08 -2.36715e-09 -6.52149e-09)
(-3.3709e-08 -1.58221e-09 -3.54183e-09)
(-2.00475e-08 7.27012e-10 -1.18294e-09)
(-9.03016e-09 1.46229e-09 -3.59136e-09)
(-7.7185e-08 -1.49722e-08 -2.25596e-09)
(-7.30338e-08 -6.13623e-09 -1.33895e-09)
(-5.75517e-08 7.77976e-08 -5.1101e-10)
(-7.86401e-08 4.36945e-09 -2.90912e-09)
(-7.27118e-08 -4.54985e-09 -6.35417e-09)
(-5.93246e-08 -2.27898e-09 -3.80065e-09)
)
;

boundaryField
{
    inlet
    {
        type            calculated;
        value           nonuniform 0();
    }
    outlet
    {
        type            calculated;
        value           uniform (0 0 0);
    }
    wall
    {
        type            calculated;
        value           uniform (0 0 0);
    }
    procBoundary5to1
    {
        type            processor;
        value           uniform (0 0 0);
    }
    procBoundary5to4
    {
        type            processor;
        value           uniform (0 0 0);
    }
    procBoundary5to7
    {
        type            processor;
        value           uniform (0 0 0);
    }
}


// ************************************************************************* //
