/*--------------------------------*- C++ -*----------------------------------*\
| =========                 |                                                 |
| \\      /  F ield         | OpenFOAM: The Open Source CFD Toolbox           |
|  \\    /   O peration     | Version:  4.x                                   |
|   \\  /    A nd           | Web:      www.OpenFOAM.org                      |
|    \\/     M anipulation  |                                                 |
\*---------------------------------------------------------------------------*/
FoamFile
{
    version     2.0;
    format      ascii;
    class       volScalarField;
    location    "41.5";
    object      Ksl;
}
// * * * * * * * * * * * * * * * * * * * * * * * * * * * * * * * * * * * * * //

dimensions      [1 -3 -1 0 0 0 0];

internalField   nonuniform List<scalar> 
108
(
4906.69
2751.08
4759.84
2584.88
4887.37
2390.1
5666.1
2107.09
6472.62
6373.01
3104.79
7033.98
3084.9
9077.03
3283.97
21046.5
4127.93
8.88115e+09
4929.25
2787.66
4859.96
2636.27
5058.86
2431.65
5687.75
2032.27
5585.81
3798.54
2502.37
3780.73
2424.75
3891.84
2257.09
4256.85
1894.23
5423.91
17178.1
3444.15
20861.1
3303.59
25111.9
3122.83
24092.7
2870.13
9280.94
39953.8
3705.81
150420
3695.07
1e+10
3851.61
212474
4329.04
18697.9
11590.8
3329.48
11472.6
3116.95
10524.9
2775.3
8359.18
2271.8
4179.46
5413.23
2900.94
5491.87
2809.25
5925.68
2597.45
6819.44
2073.43
4997.01
36574.8
3651.54
50321.8
3621.08
44770.4
3617.35
26902.4
3778.9
8830.24
1e+10
3929.79
1e+10
3916.27
1e+10
3950.91
1e+10
4398.23
31424.3
48622.9
3668.77
106021
3545.01
45459.1
3435.66
15071.6
3392.76
5481.44
7174.27
3151.52
7578.81
3068.22
8590.26
2915.21
9622.05
2406.11
9558.76
)
;

boundaryField
{
    inlet
    {
        type            zeroGradient;
    }
    outlet
    {
        type            zeroGradient;
    }
    wall
    {
        type            zeroGradient;
    }
    procBoundary3to1
    {
        type            processor;
        value           nonuniform List<scalar> 
27
(
5382.92
2952.25
5490.81
2846.58
5750.74
2620.22
6094.12
2183.09
6332.83
41436.2
3714.19
297264
3702.55
1e+10
3811.59
58590.9
4084.99
7754.74
34324.7
3692.08
41576.2
3651.7
37027.3
3606.29
20119.4
3684.32
8053.17
)
;
    }
    procBoundary3to2
    {
        type            processor;
        value           nonuniform List<scalar> 
12
(
2875.77
3119.88
2909.86
2628.05
3552.35
3696.34
3431.38
2969.74
3653.06
3867
3717.1
3221.71
)
;
    }
    procBoundary3to7
    {
        type            processor;
        value           nonuniform List<scalar> 
36
(
3.11934e+07
3766.92
5.04148e+06
3746.02
1e+10
3792.61
1e+10
4221.31
25218.9
1e+10
3830.46
1e+10
3875.22
133053
3970.16
19793.7
4215.3
6935.37
14007
3408.32
14072.9
3238.72
13121.7
3062.12
11393
2746.72
9057.43
6741.63
3059.78
6967.06
2955.11
7553.16
2857.62
8852.04
2644.24
10106.8
)
;
    }
}


// ************************************************************************* //
