/*--------------------------------*- C++ -*----------------------------------*\
| =========                 |                                                 |
| \\      /  F ield         | OpenFOAM: The Open Source CFD Toolbox           |
|  \\    /   O peration     | Version:  4.x                                   |
|   \\  /    A nd           | Web:      www.OpenFOAM.org                      |
|    \\/     M anipulation  |                                                 |
\*---------------------------------------------------------------------------*/
FoamFile
{
    version     2.0;
    format      ascii;
    class       volScalarField;
    location    "41.5";
    object      p;
}
// * * * * * * * * * * * * * * * * * * * * * * * * * * * * * * * * * * * * * //

dimensions      [1 -1 -2 0 0 0 0];

internalField   nonuniform List<scalar> 
108
(
5651.8
5708.42
5631.73
5702.62
5610.76
5698.56
5587.81
5697.44
5561.62
5652.97
5708.81
5633.55
5703.04
5614.2
5698.07
5595.46
5693.12
5580.24
5652.18
5708.4
5632.14
5702.62
5611.04
5698.43
5587.64
5697.65
5559.46
5652.69
5708.52
5633.07
5702.83
5612.16
5698.51
5589.33
5697.52
5561.24
3773.85
3830.76
3754.01
3824.54
3733.45
3819.38
3712.33
3816.11
3692.08
3775.06
3831.13
3755.95
3824.51
3736.92
3818.41
3718.74
3812.5
3703.87
3774.1
3830.55
3753.8
3824.41
3732.28
3819.55
3708.93
3818.22
3682.71
3774.65
3830.68
3754.89
3824.73
3733.86
3819.91
3710.8
3818.04
3682.19
1896.81
1952.7
1877.49
1946.27
1858.15
1940.93
1839.22
1936.76
1822.61
1898.72
1952.79
1880.47
1946.65
1862.51
1941.15
1844.52
1935.59
1828.43
1897.51
1952.83
1878.28
1946.17
1858.95
1940.44
1839.21
1936.27
1821.59
1897.61
1952.9
1878.55
1946.82
1858.73
1941.43
1837.51
1937.7
1813.22
)
;

boundaryField
{
    inlet
    {
        type            calculated;
        value           nonuniform 0();
    }
    outlet
    {
        type            calculated;
        value           nonuniform List<scalar> 
12
(
5633.74
5633.74
5633.74
5633.74
3755.83
3755.83
3755.83
3755.83
1877.91
1877.91
1877.91
1877.91
)
;
    }
    wall
    {
        type            calculated;
        value           nonuniform List<scalar> 
63
(
6590.75
6591.93
6591.14
6591.65
6647.38
6647.77
6647.35
6647.48
6570.69
6572.5
6571.1
6572.03
6641.58
6641.99
6641.58
6641.79
6549.72
6553.15
6549.99
6551.12
6637.52
6637.03
6637.39
6637.47
6526.77
6534.41
6526.59
6528.28
6636.39
6632.08
6636.61
6636.48
6500.41
6522.15
6498.42
6516.86
5652.69
3774.65
1897.61
5708.52
3830.68
1952.9
5633.07
3754.89
1878.55
5702.83
3824.73
1946.82
5612.16
3733.86
1858.73
5698.51
3819.91
1941.43
5589.33
3710.8
1837.51
5697.52
3818.04
1937.7
5561.24
3682.19
1813.22
)
;
    }
    procBoundary3to1
    {
        type            processor;
        value           nonuniform List<scalar> 
27
(
5652.76
5708.73
5633.43
5702.78
5612.89
5697.91
5591.07
5695.31
5564.71
3775.23
3831.18
3756.29
3824.51
3737.27
3818.26
3719.48
3812.02
3703.59
1897.56
1952.76
1878.68
1946.47
1859.4
1940.96
1840.44
1936.6
1822.97
)
;
    }
    procBoundary3to2
    {
        type            processor;
        value           nonuniform List<scalar> 
12
(
5714.98
5715.38
5715.05
5715.01
3837.49
3837.94
3837.42
3837.34
1959.53
1959.75
1959.8
1959.64
)
;
    }
    procBoundary3to7
    {
        type            processor;
        value           nonuniform List<scalar> 
36
(
20.9959
74.8223
2.3484
68.3221
-16.3092
62.5399
-34.8461
57.4565
-50.7958
20.8481
74.9484
2.20857
68.2119
-15.944
61.199
-33.5652
54.7256
-49.0606
19.1511
74.766
-0.47535
68.3079
-20.6322
62.8331
-41.7953
59.7948
-63.4872
19.6672
74.8762
0.253477
68.5662
-19.6882
63.0317
-40.7062
59.4727
-62.3809
)
;
    }
}


// ************************************************************************* //
