/*--------------------------------*- C++ -*----------------------------------*\
| =========                 |                                                 |
| \\      /  F ield         | OpenFOAM: The Open Source CFD Toolbox           |
|  \\    /   O peration     | Version:  4.x                                   |
|   \\  /    A nd           | Web:      www.OpenFOAM.org                      |
|    \\/     M anipulation  |                                                 |
\*---------------------------------------------------------------------------*/
FoamFile
{
    version     2.0;
    format      ascii;
    class       volScalarField;
    location    "41.5";
    object      pSmooth;
}
// * * * * * * * * * * * * * * * * * * * * * * * * * * * * * * * * * * * * * //

dimensions      [1 -1 -2 0 0 0 0];

internalField   nonuniform List<scalar> 
108
(
18.0177
74.6563
0.1
68.9088
0.1
64.838
0.1
63.6997
0.1
19.2073
75.0856
0.1
69.3032
0.1
64.3965
0.1
59.603
0.1
18.3848
74.6637
0.1
68.8999
0.1
64.74
0.1
63.9542
0.1
18.8911
74.7658
0.1
69.1034
0.1
64.8329
0.1
63.8796
0.1
17.9594
74.9428
0.1
68.744
0.1
63.5689
0.1
60.3893
0.1
19.2086
75.2416
0.126228
68.7242
0.1
62.658
0.1
56.8317
0.1
18.2172
74.7232
0.1
68.6005
0.1
63.7499
0.1
62.377
0.1
18.7924
74.8426
0.1
68.9219
0.1
64.1155
0.1
62.2299
0.1
18.871
74.7747
0.1
68.3679
0.1
63.1042
0.1
58.9896
0.1
20.6813
74.8374
2.42138
68.7374
0.1
63.3404
0.1
57.9295
0.1
19.4925
74.8933
0.260106
68.2701
0.1
62.6014
0.1
58.5001
0.1
19.597
74.9483
0.521235
68.9073
0.1
63.5969
0.1
60.022
0.1
)
;

boundaryField
{
    inlet
    {
        type            zeroGradient;
    }
    outlet
    {
        type            fixedValue;
        value           uniform 0;
    }
    wall
    {
        type            zeroGradient;
    }
    procBoundary3to1
    {
        type            processor;
        value           nonuniform List<scalar> 
27
(
19.0137
75.0149
0.1
69.0157
0.1
64.1592
0.1
61.594
0.1
19.3858
75.35
0.431467
68.7052
0.1
62.5027
0.1
56.1927
0.1
19.5655
74.8287
0.666886
68.568
0.1
63.0911
0.1
58.8012
0.1
)
;
    }
    procBoundary3to2
    {
        type            processor;
        value           nonuniform List<scalar> 
12
(
81.2597
81.6141
81.2713
81.2079
81.6829
82.0643
81.5686
81.4721
81.6183
81.8307
81.8471
81.6668
)
;
    }
    procBoundary3to7
    {
        type            processor;
        value           nonuniform List<scalar> 
36
(
20.8726
74.8758
2.28101
68.3466
0.1
62.5615
0.1
57.4242
0.1
20.8547
74.9271
2.25527
68.2123
0.1
61.228
0.1
54.7526
0.1
19.1481
74.7719
0.1
68.3176
0.1
62.83
0.1
59.7373
0.1
19.6445
74.8665
0.272715
68.5775
0.1
63.0488
0.1
59.4434
0.1
)
;
    }
}


// ************************************************************************* //
