/*--------------------------------*- C++ -*----------------------------------*\
| =========                 |                                                 |
| \\      /  F ield         | OpenFOAM: The Open Source CFD Toolbox           |
|  \\    /   O peration     | Version:  4.x                                   |
|   \\  /    A nd           | Web:      www.OpenFOAM.org                      |
|    \\/     M anipulation  |                                                 |
\*---------------------------------------------------------------------------*/
FoamFile
{
    version     2.0;
    format      ascii;
    class       volScalarField;
    location    "44.5";
    object      KslPrev;
}
// * * * * * * * * * * * * * * * * * * * * * * * * * * * * * * * * * * * * * //

dimensions      [1 -3 -1 0 0 0 0];

internalField   nonuniform List<scalar> 
132
(
156477
3734.43
168531
3707.4
1.568e+07
3765.04
1e+10
4203.57
25294.4
1.9524e+09
3807.35
1e+10
3845.69
132831
3957.6
21229
4233.09
7044.85
12657.6
3372.78
12692.6
3198.08
12102.7
3016.83
11037.9
2700.59
8435.75
6575.79
3031.45
6717.94
2911.03
7190.6
2797.35
8280.36
2563.22
9246.55
1e+10
3810.95
1e+10
3813.64
1e+10
4108.14
15228.2
1e+10
3936.31
1e+10
3843.37
1e+10
3745.05
1e+10
3690.01
28694.9
1e+10
3851.2
1e+10
3938.09
1e+10
4268.14
1e+10
5195.91
24637.5
10471.2
3461.04
15800.3
3590.99
39131.8
3900.01
201336
4672.83
25180.1
48472.7
3438.41
22097.4
3529.21
6954.91
291349
3727.23
1e+10
3718.94
957055
3767.52
37201.6
3958.29
7775.67
15820.7
3440.61
16814.4
3231.6
15295.6
2908.81
12164.3
2414.74
7497.04
6413.84
3057.4
6581.58
2981.31
7083.45
2811.57
8325.11
2395.43
9864.46
8698.41
2472.22
8798.2
8629.82
3264.59
9311.4
3220.9
10108.3
3140.54
11718.1
2996.89
17332.8
6670.63
3083.63
6954.3
3057.73
7711.13
2930.39
9089.67
2760.21
14691.6
5131.68
2887.07
5285.4
2915.11
5670.34
2911.32
5912.39
3112.2
5579.29
)
;

boundaryField
{
    inlet
    {
        type            zeroGradient;
    }
    outlet
    {
        type            zeroGradient;
    }
    wall
    {
        type            zeroGradient;
    }
    procBoundary7to0
    {
        type            processor;
        value           uniform 0;
    }
    procBoundary7to1
    {
        type            processor;
        value           uniform 0;
    }
    procBoundary7to3
    {
        type            processor;
        value           uniform 0;
    }
    procBoundary7to5
    {
        type            processor;
        value           uniform 0;
    }
    procBoundary7to6
    {
        type            processor;
        value           uniform 0;
    }
}


// ************************************************************************* //
