/*--------------------------------*- C++ -*----------------------------------*\
| =========                 |                                                 |
| \\      /  F ield         | OpenFOAM: The Open Source CFD Toolbox           |
|  \\    /   O peration     | Version:  4.x                                   |
|   \\  /    A nd           | Web:      www.OpenFOAM.org                      |
|    \\/     M anipulation  |                                                 |
\*---------------------------------------------------------------------------*/
FoamFile
{
    version     2.0;
    format      ascii;
    class       volScalarField;
    location    "44.5";
    object      p_rgh;
}
// * * * * * * * * * * * * * * * * * * * * * * * * * * * * * * * * * * * * * //

dimensions      [1 -1 -2 0 0 0 0];

internalField   nonuniform List<scalar> 
132
(
20.6351
74.5279
1.97432
68.0923
-16.6322
62.2493
-35.2466
57.6196
-50.4639
20.5799
74.6453
1.88794
67.8711
-16.3395
60.949
-33.9647
54.6736
-49.3524
18.8954
74.4456
-0.774937
68.0552
-21.0083
62.6784
-42.341
59.8985
-64.2835
19.4405
74.5349
-0.0484976
68.2381
-20.1494
62.817
-41.3961
59.635
-63.5121
3.65301
68.069
-14.5159
62.2903
-32.4666
56.3233
-49.2547
22.5219
74.667
4.54584
68.2814
-13.5097
62.2581
-31.7049
55.8918
-49.6997
20.8842
74.6095
2.65478
68.1018
-15.0273
61.9974
-32.2806
55.6578
-46.5154
20.9629
75.1022
2.64189
68.7101
-15.4917
62.2636
-32.6183
55.4394
-47.1268
-17.4368
61.7086
-36.4531
56.7106
-54.2663
21.081
74.6424
2.63678
67.9234
-15.5426
60.9649
-33.4946
54.4565
-49.7015
20.4391
74.5548
1.33272
67.9668
-18.3797
62.1393
-40.2909
58.5448
-64.9933
20.5665
74.6119
1.75256
68.1278
-17.8597
62.3644
-38.1254
58.3417
-73.3234
-39.0806
58.5712
-65.6767
20.9867
74.69
2.38347
68.1711
-16.5604
62.1593
-35.3423
56.869
-58.0023
20.6838
74.6419
2.05484
68.2945
-17.0378
62.6525
-36.2053
58.257
-63.48
20.9629
74.73
2.42398
68.3519
-16.2817
62.3364
-34.497
56.8642
-54.9071
)
;

boundaryField
{
    inlet
    {
        type            fixedFluxPressure;
        gradient        nonuniform 0();
        value           nonuniform 0();
    }
    outlet
    {
        type            fixedValue;
        value           uniform 0;
    }
    wall
    {
        type            fixedFluxPressure;
        gradient        nonuniform List<scalar> 
66
(
2.64914e-06
4.67289e-07
-5.59729e-07
6.94385e-08
6.41703e-07
1.7099e-07
-3.20455e-06
-3.7156e-06
-8.21468e-07
-7.81205e-07
-5.70843e-08
1.05313e-06
-1.94152e-06
2.69637e-06
-2.05705e-07
-3.95324e-06
-1.01316e-06
3.35187e-06
-8.86418e-06
-1.31764e-05
-8.93443e-06
-1.52587e-06
-3.28781e-06
-2.62096e-06
-1.19318e-06
-4.26327e-07
-1.14635e-05
-2.24473e-05
-3.35206e-05
-9.681e-06
-7.95338e-06
-1.58359e-05
-4.94138e-06
-4.2833e-06
-4.6938e-06
-6.12993e-06
-1.86787e-06
-1.2457e-06
-1.47527e-06
-1.09685e-05
-2.11457e-06
-1.54881e-06
-7.24017e-07
-2.23016e-06
-2.04644e-07
-1.20964e-07
-5.06724e-06
4.7778e-06
2.93219e-06
-0.000146817
-9.37915e-07
2.51062e-06
2.51561e-06
2.56012e-06
1.41615e-08
0.000248942
6.86853e-06
5.18497e-06
1.62573e-06
7.64279e-06
3.28283e-06
4.35095e-06
-1.32339e-05
-4.05725e-05
2.29843e-05
5.84726e-05
)
;
        value           nonuniform List<scalar> 
66
(
20.9867
20.6838
20.9629
74.69
74.6419
74.73
2.38347
2.05484
2.42398
68.1711
68.2945
68.3519
-16.5604
-17.0378
-16.2817
62.1593
62.6525
62.3364
-39.0806
-35.3423
-36.2053
-34.497
58.5712
56.869
58.257
56.8642
-65.6767
-58.0023
-63.48
-54.9071
19.4405
20.9629
20.5665
20.9629
74.5349
75.1022
74.6119
74.73
-0.0484976
2.64189
1.75256
2.42398
68.2381
68.7101
68.1278
68.3519
-20.1494
-15.4917
-17.8597
-16.2817
62.817
62.2636
62.3644
62.3364
-41.3961
-32.6183
-38.1254
-34.497
59.635
55.4394
58.3417
56.8642
-63.5121
-47.1268
-73.3234
-54.9071
)
;
    }
    procBoundary7to0
    {
        type            processor;
        value           uniform 81.684;
    }
    procBoundary7to1
    {
        type            processor;
        value           uniform 22.1897;
    }
    procBoundary7to3
    {
        type            processor;
        value           nonuniform List<scalar> 
36
(
18.9016
74.4976
-0.405208
68.0805
-19.8189
62.753
-38.7913
58.7272
-55.3014
20.9668
74.6069
2.86596
68.4515
-14.9382
62.8588
-32.7196
57.0835
-48.4779
19.6685
74.6381
0.549433
67.9649
-18.6311
62.1804
-38.1428
57.8634
-55.1837
19.779
74.7442
0.878962
68.6251
-18.6971
63.0956
-39.4355
59.0161
-61.877
)
;
    }
    procBoundary7to5
    {
        type            processor;
        value           nonuniform List<scalar> 
44
(
74.855
4.657
68.2039
-12.6515
61.4841
-29.4874
53.6982
-44.566
21.5454
74.5314
2.6081
67.9853
-16.1196
62.0815
-35.0104
57.3591
-52.8528
21.5454
74.5314
74.5314
1.62969
67.8178
-16.4352
61.0427
-34.334
54.4095
-50.3286
20.5076
74.6321
1.62969
67.8178
67.8178
-18.3251
62.4844
-39.9311
58.7355
-68.1969
20.3582
74.5785
1.36969
68.2012
-18.3251
62.4844
62.4844
)
;
    }
    procBoundary7to6
    {
        type            processor;
        value           nonuniform List<scalar> 
12
(
81.8465
81.3372
81.3505
81.5241
81.7373
81.7729
81.917
81.6005
81.478
81.5667
81.4695
81.4688
)
;
    }
}


// ************************************************************************* //
