/*--------------------------------*- C++ -*----------------------------------*\
| =========                 |                                                 |
| \\      /  F ield         | OpenFOAM: The Open Source CFD Toolbox           |
|  \\    /   O peration     | Version:  4.x                                   |
|   \\  /    A nd           | Web:      www.OpenFOAM.org                      |
|    \\/     M anipulation  |                                                 |
\*---------------------------------------------------------------------------*/
FoamFile
{
    version     2.0;
    format      ascii;
    class       volScalarField;
    location    "44.5";
    object      QPartFluid;
}
// * * * * * * * * * * * * * * * * * * * * * * * * * * * * * * * * * * * * * //

dimensions      [1 -1 -3 0 0 0 0];

internalField   nonuniform List<scalar> 
132
(
1.00662e+10
9.15522e+09
6.45598e+09
7.98285e+09
1.11053e+10
1.2531e+10
8.00101e+09
6.52922e+09
6.13249e+09
7.47417e+09
1.14369e+10
7.43899e+09
8.17244e+09
8.38337e+09
6.95707e+09
7.88406e+09
7.67524e+09
6.83498e+09
5.32339e+09
9.46113e+09
6.9717e+09
9.02421e+09
8.42025e+09
1.05718e+10
8.69014e+09
9.18674e+09
6.94759e+09
7.07919e+09
7.54013e+09
8.98859e+09
5.99217e+09
7.95565e+09
8.07693e+09
8.06259e+09
7.06883e+09
3.66057e+09
6.55029e+09
8.64544e+09
6.99801e+09
8.21982e+09
8.82884e+09
9.90356e+09
6.10737e+09
3.84889e+09
1.01031e+10
7.32849e+09
8.87784e+09
8.65365e+09
8.31953e+09
5.69785e+09
9.06601e+09
4.59584e+09
6.00984e+09
1.01344e+10
7.52279e+09
7.3031e+09
8.19276e+09
1.04915e+10
9.48766e+09
8.34194e+09
6.19573e+09
6.67897e+09
8.62279e+09
5.94792e+09
7.98766e+09
6.78857e+09
6.58464e+09
5.68009e+09
8.39622e+09
4.08521e+09
5.02438e+09
7.29325e+09
8.27503e+09
7.67869e+09
4.67252e+09
8.57126e+09
9.15866e+09
7.08998e+09
6.53443e+09
9.16595e+09
8.8729e+09
7.87188e+09
1.08161e+10
6.94661e+09
8.18841e+09
9.50545e+09
8.63251e+09
9.03062e+09
9.29874e+09
9.96218e+09
8.92071e+09
9.40387e+09
6.89608e+09
6.03478e+09
7.33076e+09
7.19911e+09
8.11684e+09
6.46053e+09
6.85243e+09
8.15612e+09
8.31868e+09
5.16026e+09
5.8908e+09
8.11985e+09
4.87581e+09
7.33603e+09
7.02949e+09
7.57988e+09
8.69506e+09
5.25504e+09
4.97303e+09
7.03496e+09
7.86499e+09
4.37364e+09
6.3401e+09
6.80247e+09
6.35864e+09
7.80905e+09
7.36237e+09
7.19904e+09
7.61309e+09
7.73777e+09
5.97338e+09
6.09281e+09
8.29005e+09
5.90384e+09
7.15952e+09
7.32064e+09
7.00406e+09
6.51056e+09
7.06833e+09
3.61926e+09
)
;

boundaryField
{
    inlet
    {
        type            calculated;
        value           nonuniform 0();
    }
    outlet
    {
        type            calculated;
        value           uniform 0;
    }
    wall
    {
        type            calculated;
        value           uniform 0;
    }
    procBoundary7to0
    {
        type            processor;
        value           uniform 2.61625e+09;
    }
    procBoundary7to1
    {
        type            processor;
        value           uniform 5.89519e+09;
    }
    procBoundary7to3
    {
        type            processor;
        value           nonuniform List<scalar> 
36
(
8.24518e+09
1.10269e+10
9.25816e+09
1.03762e+10
6.61851e+09
7.8467e+09
9.15982e+09
8.45088e+09
6.97957e+09
9.55151e+09
6.14138e+09
8.15402e+09
5.01649e+09
4.37836e+09
9.42599e+09
7.61863e+09
1.05786e+10
5.11018e+09
6.03941e+09
1.03192e+10
9.20484e+09
7.28535e+09
7.42282e+09
1.00084e+10
8.1317e+09
9.33598e+09
5.05523e+09
8.76872e+09
4.87342e+09
5.7886e+09
6.98157e+09
6.44732e+09
8.59821e+09
6.36138e+09
9.58391e+09
7.54863e+09
)
;
    }
    procBoundary7to5
    {
        type            processor;
        value           nonuniform List<scalar> 
44
(
9.95566e+09
6.14673e+09
8.71602e+09
5.88639e+09
5.31968e+09
7.46369e+09
6.25275e+09
6.64602e+09
1.02701e+10
5.06939e+09
7.28529e+09
9.12585e+09
6.20796e+09
8.45367e+09
7.34497e+09
8.15076e+09
4.5247e+09
1.02701e+10
5.06939e+09
5.06939e+09
9.54969e+09
9.97964e+09
1.13697e+10
9.28213e+09
9.08238e+09
1.10227e+10
8.30249e+09
5.30201e+09
1.17351e+10
9.54969e+09
9.97964e+09
9.97964e+09
1.0422e+10
8.55826e+09
7.05352e+09
8.25299e+09
6.48284e+09
7.19607e+09
6.48553e+09
7.33692e+09
6.74635e+09
1.0422e+10
8.55826e+09
8.55826e+09
)
;
    }
    procBoundary7to6
    {
        type            processor;
        value           nonuniform List<scalar> 
12
(
8.11153e+09
8.96763e+09
5.62493e+09
9.96035e+09
9.389e+09
8.76202e+09
9.57155e+09
9.98025e+09
6.87824e+09
4.54724e+09
8.48261e+09
7.18991e+09
)
;
    }
}


// ************************************************************************* //
