/*--------------------------------*- C++ -*----------------------------------*\
| =========                 |                                                 |
| \\      /  F ield         | OpenFOAM: The Open Source CFD Toolbox           |
|  \\    /   O peration     | Version:  4.x                                   |
|   \\  /    A nd           | Web:      www.OpenFOAM.org                      |
|    \\/     M anipulation  |                                                 |
\*---------------------------------------------------------------------------*/
FoamFile
{
    version     2.0;
    format      ascii;
    class       volScalarField;
    location    "34";
    object      p;
}
// * * * * * * * * * * * * * * * * * * * * * * * * * * * * * * * * * * * * * //

dimensions      [1 -1 -2 0 0 0 0];

internalField   nonuniform List<scalar> 
114
(
69.1767
-16.5133
63.0549
-33.6728
56.1196
-47.261
1.74846
68.5732
-16.4084
62.6413
-33.878
56.1013
-48.7458
75.0795
4.38686
68.5097
-13.1577
61.9071
-29.9913
54.1213
-45.3026
-1858.69
-1803
-1877.81
-1809.12
-1898.12
-1814.21
-1919.64
-1817.26
-1943.38
-1858.45
-1802.91
-1877.44
-1809.48
-1896.74
-1815.38
-1915.93
-1819.81
-1933.5
-1857.29
-1803.09
-1875.67
-1809.38
-1894.45
-1815.1
-1913.24
-1819.88
-1930.76
-1856.15
-1803.06
-3735.65
-3680.66
-3754.53
-3687.02
-3773.85
-3692.92
-3793.39
-3698.03
-3811.91
-3735.78
-3680.71
-3754.94
-3687.25
-3774.43
-3693.32
-3794.3
-3698.41
-3814.15
-3735.09
-3680.68
-3753.6
-3687.43
-3772.02
-3694.23
-3789.87
-3701.05
-3805.56
-3735.15
-3680.92
-3754.04
-3687.75
-5613.92
-5558.93
-5633.19
-5565.02
-5653.83
-5569.95
-5677.16
-5571.48
-5709.11
-5613.87
-5558.89
-5633.15
-5565.09
-5653.35
-5570.41
-5675.15
-5573.33
-5699.33
-5613.27
-5558.75
-5632.28
-5565.22
-5652.15
-5570.97
-5673.42
-5574.79
-5697.49
-5613.25
-5558.83
-5632.26
-5565.23
-5652.04
-5571
)
;

boundaryField
{
    inlet
    {
        type            calculated;
        value           nonuniform 0();
    }
    outlet
    {
        type            calculated;
        value           nonuniform List<scalar> 
12
(
0
0
0
-1877.91
-1877.91
-1877.91
-3755.83
-3755.83
-3755.83
-5633.74
-5633.74
-5633.74
)
;
    }
    wall
    {
        type            calculated;
        value           nonuniform List<scalar> 
66
(
-6552.87
-6552.83
-6552.23
-6552.21
-6497.88
-6497.85
-6497.71
-6497.79
-6572.15
-6572.11
-6571.24
-6571.22
-6503.97
-6504.05
-6504.18
-6504.19
-6592.78
-6592.3
-6591.1
-6590.99
-6508.91
-6509.37
-6509.92
-6509.95
-6616.12
-6614.1
-6612.37
-6510.44
-6512.28
-6513.74
-6651.01
-6638.03
-6636.1
-1858.69
-3735.65
-5613.92
-1803
-3680.66
-5558.93
-1877.81
-3754.53
-5633.19
69.1767
-1809.12
-3687.02
-5565.02
-16.5133
-1898.12
-3773.85
-5653.83
63.0549
-1814.21
-3692.92
-5569.95
-33.6728
-1919.64
-3793.39
-5677.16
56.1196
-1817.26
-3698.03
-5571.48
-47.261
-1943.38
-3811.91
-5709.11
)
;
    }
    procBoundary5to1
    {
        type            processor;
        value           nonuniform List<scalar> 
32
(
1946.8
1856.1
1942.17
1833.8
1940.21
1810.34
1876.74
1946.55
1856.38
1941.39
1835.32
1938.55
1814.07
1952.67
1877.98
1946.38
1858.5
1941.03
1839.22
1937.19
1821.67
20.2746
75.3977
1.72697
1.72697
1.72697
20.3509
75.3025
75.3025
75.3025
22.0342
22.0342
)
;
    }
    procBoundary5to4
    {
        type            processor;
        value           nonuniform List<scalar> 
12
(
-1796.38
-1796.06
-1796.08
-1796.16
-3673.98
-3673.86
-3673.66
-3673.9
-5552.37
-5552.18
-5551.99
-5552.06
)
;
    }
    procBoundary5to7
    {
        type            processor;
        value           nonuniform List<scalar> 
44
(
74.9725
4.0853
68.393
-14.1755
62.5409
-32.5322
56.468
-48.8958
22.2637
74.9725
-1874.17
-1809.51
-1892.49
-1815.23
-1910.59
-1821.5
-1927.18
-1856.03
-1874.17
-1802.94
-1874.17
-1809.51
-3773.11
-3693.89
-3792.05
-3699.08
-3809.58
-3734.61
-3680.89
-3752.93
-3773.11
-3687.51
-3773.11
-3693.89
-5673
-5574.93
-5696.68
-5612.68
-5558.56
-5631.31
-5565.08
-5650.37
-5673
-5571.25
)
;
    }
}


// ************************************************************************* //
