/*--------------------------------*- C++ -*----------------------------------*\
| =========                 |                                                 |
| \\      /  F ield         | OpenFOAM: The Open Source CFD Toolbox           |
|  \\    /   O peration     | Version:  4.x                                   |
|   \\  /    A nd           | Web:      www.OpenFOAM.org                      |
|    \\/     M anipulation  |                                                 |
\*---------------------------------------------------------------------------*/
FoamFile
{
    version     2.0;
    format      ascii;
    class       surfaceScalarField;
    location    "34";
    object      phi;
}
// * * * * * * * * * * * * * * * * * * * * * * * * * * * * * * * * * * * * * //

dimensions      [0 3 -1 0 0 0 0];

internalField   nonuniform List<scalar> 
259
(
6.88773e-06
3.40241e-07
1.6758e-07
6.00817e-06
6.4058e-09
1.3293e-07
5.36063e-06
4.17313e-07
2.72937e-07
3.77476e-06
-2.3322e-10
4.48982e-07
4.10745e-06
5.2902e-07
2.00536e-07
-5.63457e-08
1.3567e-06
5.27624e-06
-6.49067e-09
1.1825e-08
5.35229e-06
2.46494e-07
1.12379e-07
4.96236e-06
-1.8198e-12
3.8002e-08
5.11595e-06
3.45558e-07
3.66757e-07
4.11969e-06
-2.57126e-08
2.92259e-07
5.15734e-06
4.78346e-07
5.05536e-07
-8.70008e-08
1.17096e-06
4.96642e-06
-2.4144e-08
4.82e-06
4.0468e-12
4.89287e-06
6.69212e-08
4.63733e-06
1.95344e-12
4.93043e-06
2.843e-07
4.27083e-06
5.1678e-08
5.80491e-06
3.57754e-07
2.34644e-07
9.14764e-06
-1.18898e-07
-5.93074e-08
9.16827e-06
-5.84802e-08
7.77253e-08
9.2628e-06
-1.19688e-07
3.24555e-08
9.18537e-06
1.00186e-07
1.44832e-07
9.33024e-06
-2.31303e-07
2.19357e-07
9.04194e-06
4.3336e-07
1.27882e-07
9.60338e-06
-7.64014e-07
6.51551e-07
9.29071e-06
1.0408e-06
-5.27589e-07
-3.17577e-06
1.96849e-06
6.08128e-06
-5.59028e-08
-9.37554e-09
5.89253e-06
4.53885e-08
1.07035e-07
5.80628e-06
-3.42221e-08
1.2611e-08
5.96784e-06
6.3865e-08
-1.28592e-08
5.74877e-06
-5.80212e-08
8.37814e-08
6.4656e-06
1.81603e-07
-9.83131e-08
5.96211e-06
-4.74684e-07
5.06423e-07
7.22829e-06
9.85943e-07
-7.05796e-07
-2.39859e-06
2.71042e-06
5.34088e-06
-6.25596e-12
3.82714e-09
5.40483e-06
9.99304e-09
-5.27022e-08
5.37061e-06
2.13882e-12
5.44564e-06
6.54831e-08
5.38762e-06
-1.11473e-13
5.74263e-06
1.65674e-07
5.16805e-06
2.53753e-07
6.1729e-06
-2.39025e-07
2.00281e-06
5.14609e-06
4.124e-08
2.92006e-08
8.72339e-06
-5.06707e-08
4.82892e-08
8.68233e-06
-1.85123e-08
1.37297e-07
8.62215e-06
-2.16218e-08
1.14255e-07
8.51959e-06
1.4553e-07
1.01858e-07
8.37354e-06
-2.19902e-08
3.87402e-07
8.05429e-06
4.42032e-07
5.09337e-09
7.66605e-06
-8.9473e-08
1.12927e-06
6.99545e-06
8.7152e-07
-7.28511e-07
-5.14549e-07
2.85765e-06
7.02803e-06
-7.31427e-08
4.67144e-08
6.96186e-06
1.97407e-08
1.34956e-07
6.95059e-06
-7.69229e-08
7.91749e-08
6.91262e-06
1.99838e-07
-2.91957e-08
6.87747e-06
-1.11579e-07
2.08522e-07
7.05646e-06
4.58424e-07
-2.937e-07
7.16597e-06
-2.85283e-07
5.92725e-07
7.48063e-06
9.05309e-07
-1.05424e-06
-1.2813e-06
1.90468e-06
5.59462e-06
-2.66636e-08
7.42745e-08
5.41864e-06
1.06462e-07
3.65576e-08
5.23604e-06
-1.49226e-08
1.20605e-07
5.31071e-06
1.51185e-07
3.94665e-08
4.94843e-06
2.94796e-07
5.58365e-06
-1.21619e-07
4.8951e-06
8.52062e-07
6.25633e-06
-8.79394e-07
3.26385e-06
5.81349e-06
8.61498e-08
5.87173e-06
2.08349e-08
5.82647e-06
1.06218e-07
-7.97859e-08
1.10477e-05
-1.8045e-07
1.13317e-05
-1.46778e-07
1.16567e-05
-2.10741e-07
1.18053e-05
-4.66623e-08
1.25512e-05
-3.58528e-07
1.2397e-05
1.59277e-07
1.43193e-05
-7.93051e-07
1.27992e-05
7.91662e-07
-2.45018e-06
9.7196e-06
-2.47267e-07
9.88648e-06
-1.78704e-07
1.00784e-05
-3.23495e-07
1.00799e-05
-7.7369e-08
1.03796e-05
-4.49734e-07
1.00732e-05
1.71987e-07
1.06168e-05
-7.43934e-07
9.48745e-06
8.66816e-07
-1.45308e-06
8.65224e-06
-1.9943e-07
8.66353e-06
-1.53439e-07
8.74459e-06
-2.8395e-07
8.84075e-06
-1.34054e-07
9.10594e-06
-4.20129e-07
9.14038e-06
1.59256e-08
1.00275e-05
9.45935e-06
8.67653e-06
8.67276e-06
8.71492e-06
8.67958e-06
8.89926e-06
)
;

boundaryField
{
    inlet
    {
        type            calculated;
        value           nonuniform 0();
    }
    outlet
    {
        type            calculated;
        value           nonuniform List<scalar> 
12
(
8.96013e-07
2.28198e-06
4.12676e-06
1.18547e-05
4.91165e-06
2.70556e-06
6.62083e-06
9.05312e-06
4.59603e-06
1.8107e-05
1.0395e-05
1.26202e-05
)
;
    }
    wall
    {
        type            calculated;
        value           nonuniform List<scalar> 
66
(
0
0
0
0
0
0
0
0
0
0
9.86076e-32
0
0
0
0
0
0
0
0
0
0
0
0
0
-2.46519e-32
0
0
0
0
0
0
0
4.93038e-32
0
0
0
0
0
0
0
0
0
0
0
0
0
0
0
0
0
0
0
0
0
0
0
0
0
0
0
0
0
0
0
0
0
)
;
    }
    procBoundary5to1
    {
        type            processor;
        value           nonuniform List<scalar> 
32
(
2.19439e-07
7.40227e-07
-4.27115e-08
1.13712e-06
-1.06225e-06
1.91108e-06
2.17587e-07
-9.46847e-08
3.58332e-07
-4.48591e-07
7.29485e-07
-1.49251e-06
1.73506e-06
-2.97447e-08
1.39922e-07
-8.76761e-08
2.55532e-07
-3.68043e-07
5.97418e-07
-1.09107e-06
1.05342e-06
7.61928e-08
-3.98727e-08
-7.61499e-06
-9.79979e-09
-7.30458e-09
2.00127e-08
-5.48936e-06
-1.68239e-07
-2.21525e-08
-4.90437e-06
-9.17132e-12
)
;
    }
    procBoundary5to4
    {
        type            processor;
        value           nonuniform List<scalar> 
12
(
-9.04563e-06
-6.15491e-06
-5.40059e-06
-5.18733e-06
-8.78031e-06
-7.06165e-06
-5.71155e-06
-5.86982e-06
-1.08189e-05
-9.60607e-06
-8.6258e-06
-8.65297e-06
)
;
    }
    procBoundary5to7
    {
        type            processor;
        value           nonuniform List<scalar> 
44
(
1.60083e-07
-1.11999e-13
1.94383e-07
5.1289e-13
1.36199e-07
-1.52009e-08
-3.22426e-07
3.03081e-07
-2.42505e-12
-3.77947e-08
-1.67193e-12
-9.72478e-09
-1.05272e-12
-5.47745e-08
-1.02186e-07
5.77879e-07
-6.9942e-07
-1.09312e-12
5.20826e-06
-4.35857e-08
-6.02425e-08
-1.21013e-07
-4.40959e-08
1.10501e-07
-1.9504e-07
1.84442e-07
-8.82038e-07
-1.52429e-08
5.65843e-08
-1.56374e-08
6.22052e-06
-4.20599e-08
-2.79666e-07
6.46573e-08
-7.78949e-07
5.55531e-07
-1.3501e-06
-1.36847e-07
-1.2883e-07
-2.19896e-07
-1.78492e-07
-3.60143e-07
9.00119e-06
-1.50668e-07
)
;
    }
}


// ************************************************************************* //
