/*--------------------------------*- C++ -*----------------------------------*\
| =========                 |                                                 |
| \\      /  F ield         | OpenFOAM: The Open Source CFD Toolbox           |
|  \\    /   O peration     | Version:  4.x                                   |
|   \\  /    A nd           | Web:      www.OpenFOAM.org                      |
|    \\/     M anipulation  |                                                 |
\*---------------------------------------------------------------------------*/
FoamFile
{
    version     2.0;
    format      ascii;
    class       volScalarField;
    location    "34";
    object      QWallFluid;
}
// * * * * * * * * * * * * * * * * * * * * * * * * * * * * * * * * * * * * * //

dimensions      [1 -1 -3 0 0 0 0];

internalField   nonuniform List<scalar> 
114
(
8.14846e+08
2.10654e+08
7.32919e+08
6.31606e+07
5.67209e+08
9.18466e+07
0
0
0
0
0
0
0
0
0
0
0
0
0
0
0
4.48531e+08
8.963e+08
4.34258e+08
9.22781e+08
4.04836e+08
9.57812e+08
3.50964e+08
1.0418e+09
3.96176e+08
0
0
0
0
0
0
0
0
0
0
0
0
0
0
0
0
0
0
0
0
4.33066e+08
8.61981e+08
4.10412e+08
8.71095e+08
3.75572e+08
8.73518e+08
3.06892e+08
8.52981e+08
2.07277e+08
0
0
0
0
0
0
0
0
0
0
0
0
0
0
0
0
0
0
0
0
0
0
1.21848e+09
1.93043e+09
1.25623e+09
2.03142e+09
1.25819e+09
2.22601e+09
1.20206e+09
2.66526e+09
1.05641e+09
5.06822e+08
9.10133e+08
5.11829e+08
9.46681e+08
4.93386e+08
9.97764e+08
4.36966e+08
1.08161e+09
3.31646e+08
4.21031e+08
8.64343e+08
4.0593e+08
8.88816e+08
4.00924e+08
9.36517e+08
3.94068e+08
1.05738e+09
3.81867e+08
4.21996e+08
8.66168e+08
4.04793e+08
8.86447e+08
3.80951e+08
9.28899e+08
)
;

boundaryField
{
    inlet
    {
        type            calculated;
        value           nonuniform 0();
    }
    outlet
    {
        type            calculated;
        value           uniform 0;
    }
    wall
    {
        type            calculated;
        value           uniform 0;
    }
    procBoundary5to1
    {
        type            processor;
        value           nonuniform List<scalar> 
32
(
9.65148e+08
4.53338e+08
1.00622e+09
4.1042e+08
1.0674e+09
3.9706e+08
0
0
0
0
0
0
0
0
0
0
0
0
0
0
0
4.16021e+08
8.55767e+08
3.4124e+08
3.4124e+08
3.4124e+08
0
0
0
0
0
0
)
;
    }
    procBoundary5to4
    {
        type            processor;
        value           nonuniform List<scalar> 
12
(
8.71752e+08
0
0
0
8.55263e+08
0
0
0
1.85482e+09
8.84709e+08
8.4849e+08
8.50621e+08
)
;
    }
    procBoundary5to7
    {
        type            processor;
        value           nonuniform List<scalar> 
44
(
0
0
0
0
0
0
0
0
0
0
0
0
0
0
0
0
0
0
0
0
0
0
0
0
0
0
0
0
0
0
0
0
0
0
3.81286e+08
1.04596e+09
3.76507e+08
3.38545e+08
8.23461e+08
2.81429e+08
8.20504e+08
2.29886e+08
3.81286e+08
8.2402e+08
)
;
    }
}


// ************************************************************************* //
