/*--------------------------------*- C++ -*----------------------------------*\
| =========                 |                                                 |
| \\      /  F ield         | OpenFOAM: The Open Source CFD Toolbox           |
|  \\    /   O peration     | Version:  4.x                                   |
|   \\  /    A nd           | Web:      www.OpenFOAM.org                      |
|    \\/     M anipulation  |                                                 |
\*---------------------------------------------------------------------------*/
FoamFile
{
    version     2.0;
    format      ascii;
    class       volScalarField;
    location    "7";
    object      Deff;
}
// * * * * * * * * * * * * * * * * * * * * * * * * * * * * * * * * * * * * * //

dimensions      [0 2 -1 0 0 0 0];

internalField   nonuniform List<scalar> 
132
(
9.7868e-08
9.7838e-08
9.78652e-08
9.77914e-08
9.76062e-08
9.75718e-08
9.76269e-08
9.77438e-08
9.76452e-08
9.79552e-08
9.77886e-08
9.78318e-08
9.78346e-08
9.76987e-08
9.77342e-08
9.76703e-08
9.77098e-08
9.76609e-08
9.81425e-08
9.79379e-08
9.79235e-08
9.78864e-08
9.77704e-08
9.76845e-08
9.76742e-08
9.77157e-08
9.76958e-08
9.82745e-08
9.80446e-08
9.79145e-08
9.79869e-08
9.78538e-08
9.77946e-08
9.7734e-08
9.78422e-08
9.79753e-08
9.77616e-08
9.76661e-08
9.76231e-08
9.75824e-08
9.75057e-08
9.7531e-08
9.76011e-08
9.79781e-08
9.77345e-08
9.77143e-08
9.76783e-08
9.75732e-08
9.75923e-08
9.76097e-08
9.7558e-08
9.76525e-08
9.80041e-08
9.77712e-08
9.7784e-08
9.77848e-08
9.76337e-08
9.75412e-08
9.75115e-08
9.75926e-08
9.76146e-08
9.80912e-08
9.78423e-08
9.78646e-08
9.77905e-08
9.77118e-08
9.77126e-08
9.76534e-08
9.76583e-08
9.78472e-08
9.76384e-08
9.76189e-08
9.75497e-08
9.75965e-08
9.76553e-08
9.78335e-08
9.77392e-08
9.76956e-08
9.77185e-08
9.75665e-08
9.76031e-08
9.75601e-08
9.7508e-08
9.75932e-08
9.79113e-08
9.77939e-08
9.7736e-08
9.77159e-08
9.75917e-08
9.75845e-08
9.75442e-08
9.75892e-08
9.7615e-08
9.80645e-08
9.78969e-08
9.78134e-08
9.77716e-08
9.77453e-08
9.77498e-08
9.76224e-08
9.76782e-08
9.78298e-08
9.76744e-08
9.76674e-08
9.77154e-08
9.79088e-08
9.78575e-08
9.76991e-08
9.76816e-08
9.77237e-08
9.77906e-08
9.76528e-08
9.76543e-08
9.77464e-08
9.79702e-08
9.78958e-08
9.78328e-08
9.77801e-08
9.77023e-08
9.77052e-08
9.76343e-08
9.76873e-08
9.77174e-08
9.80229e-08
9.78841e-08
9.79063e-08
9.78565e-08
9.77658e-08
9.77405e-08
9.77062e-08
9.77831e-08
9.7984e-08
)
;

boundaryField
{
    inlet
    {
        type            calculated;
        value           nonuniform 0();
    }
    outlet
    {
        type            calculated;
        value           uniform 0;
    }
    wall
    {
        type            calculated;
        value           uniform 0;
    }
    procBoundary7to0
    {
        type            processor;
        value           uniform 0;
    }
    procBoundary7to1
    {
        type            processor;
        value           uniform 0;
    }
    procBoundary7to3
    {
        type            processor;
        value           uniform 0;
    }
    procBoundary7to5
    {
        type            processor;
        value           uniform 0;
    }
    procBoundary7to6
    {
        type            processor;
        value           uniform 0;
    }
}


// ************************************************************************* //
