/*--------------------------------*- C++ -*----------------------------------*\
| =========                 |                                                 |
| \\      /  F ield         | OpenFOAM: The Open Source CFD Toolbox           |
|  \\    /   O peration     | Version:  4.x                                   |
|   \\  /    A nd           | Web:      www.OpenFOAM.org                      |
|    \\/     M anipulation  |                                                 |
\*---------------------------------------------------------------------------*/
FoamFile
{
    version     2.0;
    format      ascii;
    class       volScalarField;
    location    "7";
    object      particleRelTemp;
}
// * * * * * * * * * * * * * * * * * * * * * * * * * * * * * * * * * * * * * //

dimensions      [0 0 0 0 0 0 0];

internalField   nonuniform List<scalar> 
132
(
4.87719e-08
4.7703e-08
8.87193e-08
1.60942e-07
2.00981e-07
3.00005e-07
4.06517e-07
5.28772e-07
5.9728e-07
-6.67596e-10
1.52022e-08
1.00763e-07
1.70498e-07
2.02757e-07
2.61411e-07
3.35953e-07
4.56267e-07
5.24858e-07
-4.31669e-08
-3.47045e-08
3.8234e-08
1.02659e-07
1.39956e-07
1.79227e-07
2.48875e-07
3.35026e-07
3.86041e-07
-1.01563e-07
-7.88383e-08
-3.54085e-08
1.69746e-08
6.04271e-08
9.61946e-08
1.47357e-07
2.0416e-07
2.32753e-07
6.29589e-08
9.8557e-08
1.52759e-07
2.50312e-07
3.5585e-07
4.83745e-07
5.40744e-07
2.20371e-08
2.26874e-08
5.1432e-08
9.10338e-08
1.44132e-07
2.23189e-07
3.28376e-07
4.28188e-07
4.91551e-07
-2.97062e-08
-3.18661e-08
-5.95011e-09
4.30065e-08
7.63181e-08
1.4764e-07
2.15118e-07
3.20289e-07
3.39143e-07
-8.88697e-08
-8.29001e-08
-5.4209e-08
-1.97623e-08
5.76455e-09
5.03015e-08
1.08543e-07
1.77403e-07
1.97539e-07
1.11414e-07
1.77637e-07
2.85324e-07
3.72404e-07
4.69318e-07
-1.63996e-08
-7.60235e-09
-4.33318e-09
3.48578e-08
8.06968e-08
1.71095e-07
2.68091e-07
3.41868e-07
4.08763e-07
-6.43369e-08
-7.05018e-08
-5.49047e-08
-1.74835e-08
2.0908e-08
9.27606e-08
1.59618e-07
2.20176e-07
2.69944e-07
-1.24283e-07
-1.12291e-07
-1.03641e-07
-7.3027e-08
-5.80651e-08
-6.75852e-09
4.93678e-08
9.28937e-08
1.27871e-07
2.11315e-07
3.014e-07
3.39308e-07
-4.5449e-08
-6.24727e-08
-4.84228e-08
-1.62799e-08
3.89458e-08
1.12938e-07
1.70096e-07
2.5013e-07
3.1597e-07
-1.07858e-07
-1.04386e-07
-9.3469e-08
-6.94406e-08
-2.48228e-08
3.85106e-08
8.17733e-08
1.33482e-07
1.81819e-07
-1.54972e-07
-1.49523e-07
-1.43974e-07
-1.26092e-07
-9.45313e-08
-5.62239e-08
-1.3475e-08
1.78043e-08
1.55007e-08
)
;

boundaryField
{
    inlet
    {
        type            calculated;
        value           nonuniform 0();
    }
    outlet
    {
        type            calculated;
        value           nonuniform List<scalar> 
16
(
5.9728e-07
5.24858e-07
3.86041e-07
2.32753e-07
5.40744e-07
4.91551e-07
3.39143e-07
1.97539e-07
4.69318e-07
4.08763e-07
2.69944e-07
1.27871e-07
3.39308e-07
3.1597e-07
1.81819e-07
1.55007e-08
)
;
    }
    wall
    {
        type            calculated;
        value           nonuniform List<scalar> 
66
(
-4.5449e-08
-1.07858e-07
-1.54972e-07
-6.24727e-08
-1.04386e-07
-1.49523e-07
-4.84228e-08
-9.3469e-08
-1.43974e-07
-1.62799e-08
-6.94406e-08
-1.26092e-07
3.89458e-08
-2.48228e-08
-9.45313e-08
1.12938e-07
3.85106e-08
-5.62239e-08
2.11315e-07
1.70096e-07
8.17733e-08
-1.3475e-08
3.014e-07
2.5013e-07
1.33482e-07
1.78043e-08
3.39308e-07
3.1597e-07
1.81819e-07
1.55007e-08
-1.01563e-07
-8.88697e-08
-1.24283e-07
-1.54972e-07
-7.88383e-08
-8.29001e-08
-1.12291e-07
-1.49523e-07
-3.54085e-08
-5.4209e-08
-1.03641e-07
-1.43974e-07
1.69746e-08
-1.97623e-08
-7.3027e-08
-1.26092e-07
6.04271e-08
5.76455e-09
-5.80651e-08
-9.45313e-08
9.61946e-08
5.03015e-08
-6.75852e-09
-5.62239e-08
1.47357e-07
1.08543e-07
4.93678e-08
-1.3475e-08
2.0416e-07
1.77403e-07
9.28937e-08
1.78043e-08
2.32753e-07
1.97539e-07
1.27871e-07
1.55007e-08
)
;
    }
    procBoundary7to0
    {
        type            processor;
        value           uniform 5.61715e-08;
    }
    procBoundary7to1
    {
        type            processor;
        value           uniform 5.72547e-08;
    }
    procBoundary7to3
    {
        type            processor;
        value           nonuniform List<scalar> 
36
(
-4.80697e-08
-1.9337e-08
1.40611e-07
2.36475e-07
2.40882e-07
3.04989e-07
3.79108e-07
5.21638e-07
5.76891e-07
-1.12302e-07
-1.3243e-07
1.75068e-07
3.10539e-07
2.55581e-07
2.91545e-07
3.60098e-07
4.48541e-07
4.87858e-07
-1.38942e-07
-1.37463e-07
9.8841e-08
2.24325e-07
1.9424e-07
2.21962e-07
2.57939e-07
3.35148e-07
3.55938e-07
-1.58107e-07
-1.44171e-07
-2.15146e-08
4.152e-08
1.02328e-07
1.1006e-07
1.48687e-07
2.07638e-07
2.48595e-07
)
;
    }
    procBoundary7to5
    {
        type            processor;
        value           nonuniform List<scalar> 
44
(
3.47187e-08
5.9277e-08
1.03533e-07
1.46e-07
2.26521e-07
3.43132e-07
4.73919e-07
5.68553e-07
5.07337e-08
3.75509e-08
2.37029e-08
6.74598e-08
1.19484e-07
1.98235e-07
3.11459e-07
4.39502e-07
4.93727e-07
5.07337e-08
3.75509e-08
3.75509e-08
-2.01262e-09
3.59638e-08
6.54869e-08
1.44646e-07
2.31247e-07
3.28626e-07
3.85525e-07
8.28304e-10
-1.08847e-08
-2.01262e-09
3.59638e-08
3.59638e-08
4.67915e-08
1.29625e-07
1.48163e-07
2.2843e-07
2.79734e-07
-4.49789e-08
-5.98899e-08
-4.92384e-08
-1.49746e-08
4.67915e-08
1.29625e-07
1.29625e-07
)
;
    }
    procBoundary7to6
    {
        type            processor;
        value           nonuniform List<scalar> 
12
(
4.59886e-08
-4.32764e-08
-1.04238e-07
4.04824e-08
-2.49435e-08
-7.91263e-08
1.03234e-08
-4.04543e-08
-1.10041e-07
-5.12515e-08
-9.02611e-08
-1.46076e-07
)
;
    }
}


// ************************************************************************* //
