/*--------------------------------*- C++ -*----------------------------------*\
| =========                 |                                                 |
| \\      /  F ield         | OpenFOAM: The Open Source CFD Toolbox           |
|  \\    /   O peration     | Version:  4.x                                   |
|   \\  /    A nd           | Web:      www.OpenFOAM.org                      |
|    \\/     M anipulation  |                                                 |
\*---------------------------------------------------------------------------*/
FoamFile
{
    version     2.0;
    format      ascii;
    class       volScalarField;
    location    "7";
    object      Qsource;
}
// * * * * * * * * * * * * * * * * * * * * * * * * * * * * * * * * * * * * * //

dimensions      [1 -1 -3 0 0 0 0];

internalField   nonuniform List<scalar> 
132
(
1.20332e+10
1.05553e+10
7.91675e+09
8.90963e+09
1.25179e+10
1.29522e+10
8.54273e+09
6.22383e+09
5.94319e+09
9.24613e+09
1.32467e+10
9.18484e+09
9.18202e+09
1.01597e+10
7.63223e+09
8.65115e+09
8.11024e+09
7.05671e+09
7.00935e+09
1.05925e+10
8.26978e+09
1.01427e+10
9.43358e+09
1.13275e+10
9.5681e+09
9.61356e+09
8.41181e+09
7.0153e+09
1.02596e+10
1.14933e+10
7.91923e+09
9.87765e+09
1.02231e+10
9.80447e+09
9.43762e+09
5.46155e+09
7.51347e+09
9.29378e+09
7.61166e+09
8.18753e+09
8.94224e+09
9.11255e+09
5.66074e+09
4.54472e+09
1.12783e+10
8.7933e+09
9.7766e+09
9.65997e+09
8.69856e+09
6.02336e+09
8.86303e+09
4.70307e+09
7.29656e+09
1.18468e+10
8.93873e+09
7.81908e+09
9.31166e+09
1.14441e+10
1.0445e+10
8.77405e+09
6.83714e+09
7.25603e+09
1.14891e+10
8.22724e+09
1.02006e+10
9.3374e+09
8.42917e+09
7.98516e+09
1.0386e+10
5.52242e+09
5.31248e+09
7.19143e+09
7.92366e+09
7.03887e+09
4.1722e+09
9.78979e+09
1.00202e+10
8.07605e+09
7.01032e+09
9.9177e+09
9.06038e+09
7.69651e+09
1.04259e+10
6.39766e+09
9.03584e+09
1.03272e+10
9.63831e+09
9.73144e+09
1.05499e+10
1.03673e+10
9.36188e+09
9.19825e+09
7.3909e+09
7.30396e+09
9.04188e+09
8.97799e+09
1.01184e+10
8.15059e+09
8.62311e+09
9.75126e+09
1.03418e+10
6.54943e+09
6.39513e+09
8.13536e+09
5.28163e+09
8.4467e+09
8.31496e+09
8.36162e+09
9.7836e+09
5.32913e+09
5.63118e+09
6.71807e+09
7.84795e+09
4.57866e+09
7.60633e+09
8.20704e+09
7.50768e+09
9.08515e+09
8.24885e+09
8.16541e+09
7.97584e+09
8.08538e+09
6.56566e+09
8.34403e+09
1.07878e+10
8.13217e+09
9.91705e+09
9.8467e+09
9.69214e+09
8.68589e+09
9.80981e+09
5.77397e+09
)
;

boundaryField
{
    inlet
    {
        type            calculated;
        value           nonuniform 0();
    }
    outlet
    {
        type            calculated;
        value           uniform 0;
    }
    wall
    {
        type            calculated;
        value           uniform 0;
    }
    procBoundary7to0
    {
        type            processor;
        value           uniform 2.919e+09;
    }
    procBoundary7to1
    {
        type            processor;
        value           uniform 6.91249e+09;
    }
    procBoundary7to3
    {
        type            processor;
        value           nonuniform List<scalar> 
36
(
9.57308e+09
1.2431e+10
1.12319e+10
1.15359e+10
7.37941e+09
8.0971e+09
9.66669e+09
8.01874e+09
6.97133e+09
1.12584e+10
7.36629e+09
1.0244e+10
5.80354e+09
5.37826e+09
1.02753e+10
8.47784e+09
1.14895e+10
5.64921e+09
7.73656e+09
1.21625e+10
1.11821e+10
8.28866e+09
8.45379e+09
1.08392e+10
8.66631e+09
1.00507e+10
5.43533e+09
7.74494e+09
6.50319e+09
7.76429e+09
9.10304e+09
8.08129e+09
1.04297e+10
7.65422e+09
1.14941e+10
9.31814e+09
)
;
    }
    procBoundary7to5
    {
        type            processor;
        value           nonuniform List<scalar> 
44
(
1.13918e+10
7.33244e+09
9.77817e+09
6.89907e+09
5.80157e+09
7.83342e+09
6.84085e+09
6.82113e+09
1.17692e+10
5.67586e+09
8.53256e+09
9.87891e+09
6.99102e+09
8.73379e+09
7.70553e+09
7.95916e+09
4.47124e+09
1.17692e+10
5.67586e+09
5.67586e+09
1.06091e+10
1.04003e+10
1.24198e+10
9.72162e+09
9.2717e+09
1.08976e+10
7.95749e+09
4.32191e+09
1.25536e+10
1.06091e+10
1.04003e+10
1.04003e+10
1.17445e+10
9.34997e+09
7.61703e+09
8.68782e+09
6.69708e+09
8.57437e+09
7.7776e+09
9.10039e+09
8.13157e+09
1.17445e+10
9.34997e+09
9.34997e+09
)
;
    }
    procBoundary7to6
    {
        type            processor;
        value           nonuniform List<scalar> 
12
(
8.83694e+09
9.66698e+09
7.02877e+09
1.08684e+10
1.01426e+10
1.04114e+10
1.03081e+10
1.05545e+10
8.32933e+09
5.66125e+09
9.87387e+09
9.50292e+09
)
;
    }
}


// ************************************************************************* //
