/*--------------------------------*- C++ -*----------------------------------*\
| =========                 |                                                 |
| \\      /  F ield         | OpenFOAM: The Open Source CFD Toolbox           |
|  \\    /   O peration     | Version:  4.x                                   |
|   \\  /    A nd           | Web:      www.OpenFOAM.org                      |
|    \\/     M anipulation  |                                                 |
\*---------------------------------------------------------------------------*/
FoamFile
{
    version     2.0;
    format      ascii;
    class       volScalarField;
    location    "7";
    object      rho;
}
// * * * * * * * * * * * * * * * * * * * * * * * * * * * * * * * * * * * * * //

dimensions      [1 -3 0 0 0 0 0];

internalField   nonuniform List<scalar> 
132
(
6699.61
6700.55
6701.34
6702.17
6702.84
6703.03
6702.32
6701.23
6700.38
6700.14
6701
6701.74
6702.47
6703.11
6703.54
6703.39
6703.26
6702.52
6699.85
6700.84
6701.85
6702.54
6703.25
6703.33
6703.5
6703.26
6703.52
6696.58
6696.66
6697.02
6697.46
6698.15
6698.64
6699.56
6699.93
6710.98
6702.14
6703
6703.25
6701.68
6700.55
6700.26
6700.14
6701.1
6701.79
6702.51
6703.04
6703.47
6703.31
6702.59
6701.63
6701.14
6700.33
6701.06
6701.86
6702.5
6703.12
6702.89
6702.7
6702.28
6702.28
6697.69
6697.76
6698.1
6698.46
6699.03
6699.47
6699.97
6700.32
6704.22
6702.9
6703.11
6703.2
6702.66
6702.76
6700.25
6700.76
6701.45
6701.87
6702.55
6702.99
6703.18
6702.72
6703.19
6700.46
6700.96
6701.38
6701.48
6701.73
6701.57
6701.75
6701.53
6703.31
6698.22
6698.22
6698.34
6698.5
6698.78
6699.01
6699.42
6699.64
6709.97
6700.38
6700.79
6720.32
6698.36
6698.71
6699.42
6700.16
6700.78
6701.14
6701.58
6701.8
6706.18
6698.3
6698.34
6698.46
6698.68
6699
6699.27
6699.73
6700.11
6703.43
6698.17
6698.13
6698.15
6698.21
6698.32
6698.45
6698.66
6698.81
6704.81
)
;

boundaryField
{
    inlet
    {
        type            calculated;
        value           nonuniform 0();
    }
    outlet
    {
        type            calculated;
        value           uniform 6700;
    }
    wall
    {
        type            calculated;
        value           nonuniform List<scalar> 
66
(
6698.36
6698.3
6698.17
6698.71
6698.34
6698.13
6699.42
6698.46
6698.15
6700.16
6698.68
6698.21
6700.78
6699
6698.32
6701.14
6699.27
6698.45
6700.38
6701.58
6699.73
6698.66
6700.79
6701.8
6700.11
6698.81
6720.32
6706.18
6703.43
6704.81
6696.58
6697.69
6698.22
6698.17
6696.66
6697.76
6698.22
6698.13
6697.02
6698.1
6698.34
6698.15
6697.46
6698.46
6698.5
6698.21
6698.15
6699.03
6698.78
6698.32
6698.64
6699.47
6699.01
6698.45
6699.56
6699.97
6699.42
6698.66
6699.93
6700.32
6699.64
6698.81
6710.98
6704.22
6709.97
6704.81
)
;
    }
    procBoundary7to0
    {
        type            processor;
        value           uniform 6698.74;
    }
    procBoundary7to1
    {
        type            processor;
        value           uniform 6700.45;
    }
    procBoundary7to3
    {
        type            processor;
        value           nonuniform List<scalar> 
36
(
6699.31
6700.41
6701.35
6702.47
6703.35
6703.95
6703.93
6703.54
6702.66
6699.49
6700.62
6701.68
6702.69
6703.52
6704.16
6704.38
6704.42
6705.71
6699.08
6700.57
6702
6702.75
6703.52
6703.75
6704.18
6703.97
6710.67
6694.68
6695.01
6695.71
6696.48
6697.41
6698.19
6699.25
6699.89
6729.66
)
;
    }
    procBoundary7to5
    {
        type            processor;
        value           nonuniform List<scalar> 
44
(
6701.5
6702.55
6703.37
6703.94
6704.12
6703.81
6703.33
6702.73
6700.48
6701.29
6702.5
6703.07
6703.54
6703.48
6702.88
6702.08
6701.24
6700.48
6701.29
6701.29
6701.85
6702.09
6702.43
6702.67
6703.13
6702.83
6703.6
6700.06
6700.92
6701.85
6702.09
6702.09
6699.39
6699.79
6699.87
6700.28
6707.27
6698.4
6698.58
6698.79
6699.04
6699.39
6699.79
6699.79
)
;
    }
    procBoundary7to6
    {
        type            processor;
        value           nonuniform List<scalar> 
12
(
6699.27
6698.86
6696.65
6700.14
6699.56
6697.7
6699.6
6699.66
6698.27
6698.27
6698.35
6698.27
)
;
    }
}


// ************************************************************************* //
