/*--------------------------------*- C++ -*----------------------------------*\
| =========                 |                                                 |
| \\      /  F ield         | OpenFOAM: The Open Source CFD Toolbox           |
|  \\    /   O peration     | Version:  4.x                                   |
|   \\  /    A nd           | Web:      www.OpenFOAM.org                      |
|    \\/     M anipulation  |                                                 |
\*---------------------------------------------------------------------------*/
FoamFile
{
    version     2.0;
    format      ascii;
    class       volScalarField;
    location    "8.5";
    object      p_rgh;
}
// * * * * * * * * * * * * * * * * * * * * * * * * * * * * * * * * * * * * * //

dimensions      [1 -1 -2 0 0 0 0];

internalField   nonuniform List<scalar> 
114
(
75.7102
94.3872
59.6743
89.9752
45.0165
83.9114
111.201
94.5762
102.775
76.3019
95.0301
60.2333
90.2131
45.3497
84.6182
110.1
93.7046
102.513
76.4062
95.2487
60.2333
90.0975
45.469
85.0356
109.302
93.1535
101.882
76.1113
94.4877
59.4938
88.5218
44.0181
83.6198
59.4126
88.4149
42.5432
80.7029
112.157
94.9838
103.636
76.6595
95.5351
59.7463
88.7077
42.6836
81.1384
111.117
94.2832
103.382
76.6218
95.7644
59.836
89.0436
43.1552
81.8534
110.135
93.6471
102.552
76.2366
94.7953
59.1563
87.8886
42.6315
81.7161
42.0987
79.8988
112.973
95.4798
104.558
77.3323
95.7981
59.6338
87.7813
41.9587
79.9983
112.144
95.0777
104.402
77.3096
96.0994
59.7354
88.2332
42.1698
80.3115
111.149
94.3656
103.448
76.8795
95.2677
59.4719
87.4839
42.1017
80.2726
113.23
95.7629
104.82
77.4741
95.7805
59.2129
87.2489
41.1948
112.636
95.3931
104.696
77.5053
96.0731
59.3987
87.5832
111.638
94.7539
103.812
77.1558
95.3665
59.2072
)
;

boundaryField
{
    inlet
    {
        type            fixedFluxPressure;
        gradient        nonuniform List<scalar> 
12
(
-1.76013
-2.03768
-2.16838
-0.576219
-0.64249
-0.6944
-0.169409
-0.184639
-0.198198
-2.3303e-05
-2.11173e-05
-2.02053e-05
)
;
        value           nonuniform List<scalar> 
12
(
111.176
110.071
109.272
112.149
111.108
110.125
112.971
112.141
111.146
113.23
112.636
111.638
)
;
    }
    outlet
    {
        type            fixedValue;
        value           nonuniform 0();
    }
    wall
    {
        type            fixedFluxPressure;
        gradient        nonuniform List<scalar> 
66
(
-2.48733e-05
-6.79254e-05
-6.88667e-05
-8.99472e-05
-0.000128427
-8.63026e-05
6.22079e-05
-3.42299e-05
-1.31887e-05
0.000285782
0.00022084
0.00011523
-1.04279e-05
0.000233537
0.000180949
0.000214413
2.16786e-05
8.89162e-05
-1.41171e-05
2.56657e-06
-4.10522e-05
-9.0537e-05
-0.000171038
-8.43429e-05
3.41311e-05
-0.000740545
-0.000639613
-0.000417463
-0.000186563
-0.000429643
-0.000439742
-0.000305685
-0.000100405
-7.361e-06
7.64134e-06
4.62485e-07
3.26507e-07
3.611e-05
4.56364e-05
2.82094e-05
3.49736e-05
3.15643e-05
2.96267e-05
4.72378e-05
3.09888e-05
0.000270487
5.53786e-05
0.000124201
0.000107361
0.000146411
7.38825e-05
9.71022e-05
6.91941e-05
5.63912e-05
0.000122011
0.000120885
7.18434e-05
-7.15666e-05
-5.18245e-07
3.84592e-05
3.80627e-05
-6.63459e-05
2.47367e-05
2.94867e-05
-3.06646e-05
-1.59318e-05
)
;
        value           nonuniform List<scalar> 
66
(
111.201
110.1
109.302
94.5762
93.7046
93.1535
102.775
102.513
101.882
75.7102
76.3019
76.4062
76.1113
94.3872
95.0301
95.2487
94.4877
59.6743
60.2333
60.2333
59.4938
89.9752
90.2131
90.0975
88.5218
45.0165
45.3497
45.469
44.0181
83.9114
84.6181
85.0356
83.6198
109.302
110.135
111.149
111.638
93.1535
93.6471
94.3656
94.754
101.882
102.552
103.448
103.812
76.1113
76.2366
76.8795
77.1558
94.4877
94.7953
95.2677
95.3665
59.4938
59.1563
59.4719
59.2072
88.5218
87.8886
87.4839
44.0181
42.6315
42.1017
83.6198
81.7161
80.2726
)
;
    }
    procBoundary2to0
    {
        type            processor;
        value           nonuniform List<scalar> 
44
(
72.7951
91.4853
57.628
88.6104
44.4372
84.1068
114.151
96.3476
103.054
103.054
76.4842
95.3261
57.7741
87.3386
41.7288
80.4113
114.612
96.2898
104.154
76.4842
95.3261
95.3261
59.4148
87.7209
41.3148
79.5955
114.79
96.7627
105.3
77.4403
95.8185
59.4148
87.7209
87.7209
41.3612
79.3968
114.295
96.6838
105.471
77.7509
95.8762
59.2949
87.1828
41.3612
)
;
    }
    procBoundary2to3
    {
        type            processor;
        value           nonuniform List<scalar> 
12
(
26.078
27.0176
28.0607
27.9629
23.6569
23.8743
24.4895
25.7022
24.4234
23.959
23.8757
24.5701
)
;
    }
    procBoundary2to6
    {
        type            processor;
        value           nonuniform List<scalar> 
32
(
79.3791
41.3183
79.5178
87.0574
41.3376
79.2579
113.791
96.0046
105.497
78.3229
96.3591
60.0151
87.5866
79.3791
41.3183
42.3704
113.221
95.8577
105.315
78.2586
96.5799
60.0723
41.3183
87.0574
87.8544
112.254
95.2445
104.431
77.9349
95.9865
87.0574
59.9079
)
;
    }
}


// ************************************************************************* //
