/*--------------------------------*- C++ -*----------------------------------*\
| =========                 |                                                 |
| \\      /  F ield         | OpenFOAM: The Open Source CFD Toolbox           |
|  \\    /   O peration     | Version:  4.x                                   |
|   \\  /    A nd           | Web:      www.OpenFOAM.org                      |
|    \\/     M anipulation  |                                                 |
\*---------------------------------------------------------------------------*/
FoamFile
{
    version     2.0;
    format      ascii;
    class       volScalarField;
    location    "8.5";
    object      QPartFluid;
}
// * * * * * * * * * * * * * * * * * * * * * * * * * * * * * * * * * * * * * //

dimensions      [1 -1 -3 0 0 0 0];

internalField   nonuniform List<scalar> 
114
(
7.25891e+09
5.58901e+09
3.04255e+09
5.79974e+09
2.6718e+09
2.84856e+09
5.78127e+09
7.00182e+09
6.15818e+09
4.55343e+09
7.42428e+09
5.06791e+09
7.37053e+09
6.60254e+09
4.30381e+09
3.8525e+09
6.25742e+09
3.50134e+09
5.91967e+09
5.16235e+09
6.15533e+09
3.452e+09
5.68353e+09
3.75731e+09
3.94226e+09
4.03684e+09
4.47027e+09
4.73133e+09
4.03256e+09
4.34014e+09
3.10689e+09
5.08319e+09
3.99155e+09
9.65178e+09
1.19612e+10
6.37208e+09
1.10732e+10
4.70538e+09
7.98304e+09
9.58456e+09
9.15259e+09
8.95317e+09
7.07254e+09
1.10481e+10
8.66324e+09
6.30316e+09
5.82857e+09
1.00702e+10
1.06445e+10
9.28377e+09
9.33784e+09
8.98412e+09
9.11729e+09
8.41668e+09
8.03636e+09
5.03153e+09
5.44631e+09
8.34827e+09
6.09855e+09
7.60058e+09
6.67166e+09
6.75287e+09
7.20848e+09
4.82544e+09
7.93411e+09
9.1096e+09
6.80998e+09
5.74021e+09
6.67487e+09
6.82054e+09
6.63932e+09
7.66657e+09
9.72941e+09
7.30134e+09
5.76392e+09
4.95272e+09
6.95252e+09
8.97487e+09
1.03792e+10
8.99993e+09
6.89635e+09
9.31145e+09
8.48321e+09
1.02789e+10
4.95819e+09
7.61319e+09
6.90119e+09
7.48809e+09
4.72477e+09
6.7986e+09
9.5825e+09
5.45962e+09
9.87238e+09
4.85498e+09
9.45861e+09
1.01686e+10
7.12931e+09
7.69943e+09
6.70228e+09
7.53291e+09
7.94902e+09
5.83338e+09
7.87879e+09
1.03836e+10
6.49554e+09
8.91812e+09
7.46881e+09
1.01507e+10
4.22371e+09
6.31935e+09
7.41536e+09
7.23292e+09
6.63728e+09
6.48957e+09
)
;

boundaryField
{
    inlet
    {
        type            calculated;
        value           uniform 0;
    }
    outlet
    {
        type            calculated;
        value           nonuniform 0();
    }
    wall
    {
        type            calculated;
        value           uniform 0;
    }
    procBoundary2to0
    {
        type            processor;
        value           nonuniform List<scalar> 
44
(
5.22525e+09
5.6104e+09
4.95759e+09
3.93972e+09
4.56711e+09
8.47625e+09
2.94604e+09
4.56453e+09
3.51504e+09
3.51504e+09
5.28356e+09
1.13275e+10
7.59425e+09
1.02752e+10
6.78658e+09
6.15422e+09
7.91485e+09
7.05782e+09
7.71542e+09
5.28356e+09
1.13275e+10
1.13275e+10
7.86072e+09
8.57777e+09
6.37454e+09
5.35184e+09
6.84578e+09
8.62321e+09
9.39967e+09
8.60775e+09
9.91186e+09
7.86072e+09
8.57777e+09
8.57777e+09
5.73406e+09
2.66774e+09
4.79336e+09
6.71641e+09
9.53359e+09
1.02943e+10
5.34715e+09
9.91534e+09
8.51938e+09
5.73406e+09
)
;
    }
    procBoundary2to3
    {
        type            processor;
        value           nonuniform List<scalar> 
12
(
7.31564e+09
5.55293e+09
6.33782e+09
4.35203e+09
8.1988e+09
7.3705e+09
1.24948e+10
8.50139e+09
8.40483e+09
9.89587e+09
6.86757e+09
6.24643e+09
)
;
    }
    procBoundary2to6
    {
        type            processor;
        value           nonuniform List<scalar> 
32
(
8.16739e+09
6.63914e+09
8.88838e+09
5.62225e+09
6.25787e+09
5.61595e+09
9.88299e+09
8.92033e+09
6.01119e+09
8.00355e+09
1.09548e+10
6.2084e+09
8.65452e+09
8.16739e+09
6.63914e+09
6.72029e+09
6.24747e+09
9.19732e+09
8.05901e+09
9.75526e+09
9.05672e+09
8.65868e+09
6.63914e+09
5.62225e+09
8.62209e+09
4.62677e+09
7.61171e+09
5.88974e+09
6.16144e+09
8.59475e+09
5.62225e+09
9.51395e+09
)
;
    }
}


// ************************************************************************* //
