/*--------------------------------*- C++ -*----------------------------------*\
| =========                 |                                                 |
| \\      /  F ield         | OpenFOAM: The Open Source CFD Toolbox           |
|  \\    /   O peration     | Version:  4.x                                   |
|   \\  /    A nd           | Web:      www.OpenFOAM.org                      |
|    \\/     M anipulation  |                                                 |
\*---------------------------------------------------------------------------*/
FoamFile
{
    version     2.0;
    format      ascii;
    class       volScalarField;
    location    "8.5";
    object      SPartFluid;
}
// * * * * * * * * * * * * * * * * * * * * * * * * * * * * * * * * * * * * * //

dimensions      [1 -3 -1 0 0 0 0];

internalField   nonuniform List<scalar> 
114
(
6.50958e-65
4.88212e-65
2.55717e-65
4.88189e-65
2.24715e-65
2.63459e-65
5.735e-65
6.50988e-65
5.11482e-65
3.79726e-65
6.1995e-65
4.41701e-65
6.19925e-65
6.12166e-65
3.952e-65
4.03003e-65
5.65744e-65
2.78991e-65
5.26974e-65
3.87474e-65
5.19206e-65
2.78973e-65
4.64951e-65
3.09965e-65
4.41753e-65
4.2625e-65
3.87496e-65
4.57238e-65
3.33239e-65
3.79733e-65
2.71235e-65
4.49471e-65
3.09981e-65
8.44629e-65
9.7634e-65
5.73399e-65
9.37578e-65
5.42498e-65
6.81984e-65
7.67208e-65
7.74937e-65
7.05175e-65
6.27665e-65
8.98865e-65
7.59372e-65
5.19167e-65
6.04502e-65
8.60235e-65
8.29218e-65
7.5945e-65
7.36186e-65
7.36176e-65
7.05165e-65
7.12908e-65
6.27665e-65
5.89003e-65
5.19245e-65
6.97481e-65
5.81222e-65
6.89707e-65
5.88954e-65
5.8895e-65
6.50936e-65
4.2621e-65
7.59342e-65
7.98085e-65
7.28496e-65
4.95986e-65
5.50213e-65
6.12191e-65
5.57929e-65
7.12888e-65
8.36857e-65
6.58626e-65
4.88155e-65
5.34749e-65
6.04487e-65
7.12961e-65
9.06678e-65
7.28419e-65
6.43164e-65
7.5164e-65
7.43887e-65
8.36864e-65
5.3475e-65
7.51738e-65
6.0448e-65
6.97455e-65
4.64965e-65
6.50935e-65
8.29163e-65
4.95941e-65
8.91141e-65
4.80495e-65
8.1372e-65
8.36943e-65
6.50936e-65
6.43166e-65
6.27647e-65
6.27634e-65
7.74843e-65
6.8975e-65
6.89732e-65
8.36957e-65
5.81202e-65
7.20666e-65
6.89651e-65
8.36875e-65
5.27001e-65
6.50989e-65
6.27724e-65
7.12953e-65
5.50202e-65
6.35429e-65
)
;

boundaryField
{
    inlet
    {
        type            calculated;
        value           uniform 0;
    }
    outlet
    {
        type            calculated;
        value           nonuniform 0();
    }
    wall
    {
        type            calculated;
        value           uniform 0;
    }
    procBoundary2to0
    {
        type            processor;
        value           nonuniform List<scalar> 
44
(
4.72714e-65
4.26211e-65
4.33952e-65
3.25457e-65
4.18443e-65
7.2065e-65
2.86751e-65
4.4174e-65
3.2549e-65
3.2549e-65
4.57203e-65
9.14391e-65
6.58662e-65
8.29122e-65
6.04399e-65
4.95915e-65
8.05996e-65
6.12233e-65
6.1221e-65
4.57203e-65
9.14391e-65
9.14391e-65
7.12882e-65
7.12859e-65
6.19872e-65
4.5716e-65
7.28495e-65
7.5947e-65
7.67192e-65
7.98167e-65
8.36884e-65
7.12882e-65
7.12859e-65
7.12859e-65
5.42382e-65
2.32445e-65
5.26997e-65
5.88979e-65
7.82694e-65
9.2215e-65
4.41688e-65
9.22087e-65
7.12855e-65
5.42382e-65
)
;
    }
    procBoundary2to3
    {
        type            processor;
        value           nonuniform List<scalar> 
12
(
6.97385e-65
5.03676e-65
5.50188e-65
4.64969e-65
7.51609e-65
6.50887e-65
1.03836e-64
7.74917e-65
7.67088e-65
8.98823e-65
5.65661e-65
5.73429e-65
)
;
    }
    procBoundary2to6
    {
        type            processor;
        value           nonuniform List<scalar> 
32
(
6.7411e-65
6.04406e-65
7.12878e-65
5.11443e-65
5.81177e-65
4.95937e-65
1.03849e-64
7.59477e-65
4.95969e-65
7.43923e-65
9.3762e-65
6.12149e-65
7.3612e-65
6.7411e-65
6.04406e-65
6.50876e-65
5.81246e-65
7.90482e-65
6.43215e-65
8.52425e-65
7.36168e-65
7.82644e-65
6.04406e-65
5.11443e-65
7.05142e-65
4.96001e-65
7.20737e-65
5.42482e-65
6.12209e-65
7.59438e-65
5.11443e-65
8.75654e-65
)
;
    }
}


// ************************************************************************* //
