/*--------------------------------*- C++ -*----------------------------------*\
| =========                 |                                                 |
| \\      /  F ield         | OpenFOAM: The Open Source CFD Toolbox           |
|  \\    /   O peration     | Version:  4.x                                   |
|   \\  /    A nd           | Web:      www.OpenFOAM.org                      |
|    \\/     M anipulation  |                                                 |
\*---------------------------------------------------------------------------*/
FoamFile
{
    version     2.0;
    format      ascii;
    class       volVectorField;
    location    "29.5";
    object      DDtUrel;
}
// * * * * * * * * * * * * * * * * * * * * * * * * * * * * * * * * * * * * * //

dimensions      [0 1 -2 0 0 0 0];

internalField   nonuniform List<vector> 
132
(
(2.10363e-05 4.26172e-06 1.73325e-05)
(-1.39087e-05 3.32314e-06 9.77193e-06)
(-7.93209e-05 2.29269e-06 1.1613e-05)
(-0.000165019 4.74659e-07 5.9677e-06)
(-0.000280933 1.04837e-06 -2.45737e-06)
(-0.000476307 3.23433e-07 -4.32784e-05)
(-0.000790118 -4.26262e-06 -8.9415e-05)
(-0.00114129 3.29491e-05 -0.000215161)
(-0.00167712 6.12799e-05 -0.000311117)
(2.28487e-05 4.70614e-08 1.21611e-05)
(-1.54048e-05 -9.1351e-07 6.4485e-06)
(-7.11953e-05 6.7197e-07 4.24401e-06)
(-0.000152916 1.03308e-05 -5.71268e-06)
(-0.000272805 2.08159e-05 -1.80361e-05)
(-0.000468345 5.70214e-05 -7.03668e-05)
(-0.000775325 8.26946e-05 -0.000119332)
(-0.00119061 0.000252021 -0.000275852)
(-0.00177939 0.000375976 -0.000407585)
(5.15583e-05 -8.20384e-06 7.34393e-06)
(1.92239e-06 -2.66997e-06 -1.36066e-06)
(-3.39368e-05 -2.50204e-06 -5.08818e-06)
(-0.000128058 1.75282e-05 -2.02203e-05)
(-0.000224842 2.37248e-05 -3.56733e-05)
(-0.000453522 8.43923e-05 -9.02154e-05)
(-0.000748543 0.000123281 -0.000139468)
(-0.00133358 0.000343831 -0.000315675)
(-0.00213078 0.000551681 -0.000504439)
(7.66197e-05 -1.52408e-05 -1.96279e-06)
(1.76125e-05 -7.54431e-06 -1.06516e-05)
(-8.65464e-06 -3.75488e-06 -1.19561e-05)
(-0.000116421 1.85924e-05 -3.41743e-05)
(-0.000199585 3.85798e-05 -4.37255e-05)
(-0.000454529 9.51434e-05 -0.000110089)
(-0.000758829 0.00016775 -0.000156096)
(-0.00145368 0.000346686 -0.00035433)
(-0.00238143 0.000539202 -0.000627126)
(-8.15565e-05 -3.4237e-06 8.08779e-06)
(-0.00015266 -4.78281e-06 5.94987e-06)
(-0.000269852 -6.92337e-06 7.50236e-06)
(-0.000448485 -1.25719e-05 -4.7504e-06)
(-0.000754274 -1.46353e-05 -1.86518e-05)
(-0.0010947 -3.83341e-05 -2.0744e-06)
(-0.00161063 -6.2731e-05 1.52243e-05)
(3.35607e-06 -2.50448e-06 4.73437e-06)
(-3.14789e-05 -2.66421e-06 1.02111e-06)
(-7.70195e-05 -2.20956e-06 1.08052e-06)
(-0.000150978 2.84898e-06 -2.77849e-06)
(-0.0002626 1.02287e-05 -5.90294e-06)
(-0.000445049 2.68289e-05 -2.50168e-05)
(-0.000734048 5.43482e-05 -4.14118e-05)
(-0.00111983 0.000135213 -7.2934e-05)
(-0.0016876 0.00019897 -0.000102891)
(1.39104e-05 -8.99377e-06 -5.13769e-07)
(-2.47114e-05 -5.19378e-06 -4.59693e-06)
(-7.11463e-05 -3.0141e-06 -5.20713e-06)
(-0.000144149 8.08906e-06 -1.17729e-05)
(-0.000259196 1.90442e-05 -1.85381e-05)
(-0.000441344 4.9536e-05 -4.08051e-05)
(-0.000754884 9.21197e-05 -6.41441e-05)
(-0.00122803 0.000242772 -8.35714e-05)
(-0.00184893 0.000360914 -0.000119282)
(2.8892e-05 -1.83631e-05 -5.56782e-06)
(-2.20239e-05 -8.57954e-06 -1.11385e-05)
(-5.544e-05 -5.2374e-06 -1.1299e-05)
(-0.000143686 1.17791e-05 -1.91e-05)
(-0.000235392 2.67749e-05 -2.52497e-05)
(-0.000444623 6.03475e-05 -5.12898e-05)
(-0.000736827 9.74445e-05 -6.86473e-05)
(-0.00131884 0.000244156 -9.01086e-05)
(-0.0021392 0.000369662 -0.000169126)
(-0.00024528 -1.21506e-05 1.6958e-05)
(-0.000424402 -2.43527e-05 3.44436e-05)
(-0.000720252 -3.38769e-05 3.70694e-05)
(-0.00114152 -8.11894e-05 0.000164539)
(-0.00176061 -0.000136384 0.000252781)
(-3.75533e-06 -3.73913e-06 -6.99196e-06)
(-3.99324e-05 -4.79209e-06 -6.19317e-06)
(-8.15206e-05 -7.00481e-06 -4.62376e-06)
(-0.000151851 -3.4285e-06 -1.4568e-06)
(-0.000259376 -2.7356e-06 2.41871e-06)
(-0.000432718 1.16651e-05 5.89425e-06)
(-0.000716205 2.01742e-05 1.46964e-05)
(-0.00114019 0.000128698 5.71269e-05)
(-0.0017447 0.000193128 8.93335e-05)
(1.75079e-05 -1.25066e-05 -1.44431e-05)
(-2.86717e-05 -6.80794e-06 -1.27692e-05)
(-5.18314e-05 -7.53135e-06 -1.33767e-05)
(-0.000137839 2.50737e-06 -8.838e-06)
(-0.000202942 -5.28868e-06 -1.07237e-05)
(-0.000411378 2.9194e-05 -8.69194e-06)
(-0.000625686 2.05921e-05 -2.58094e-05)
(-0.00126149 0.000183157 5.82099e-05)
(-0.00214788 0.000326681 0.000117745)
(3.16835e-05 -1.97086e-05 -1.69992e-05)
(-2.11663e-05 -1.56127e-05 -1.9739e-05)
(-5.23126e-05 -1.38198e-05 -1.98441e-05)
(-0.000141779 -7.82322e-06 -2.26993e-05)
(-0.000215645 -3.78679e-07 -2.25972e-05)
(-0.000433464 1.43381e-05 -3.44033e-05)
(-0.000667227 4.48855e-05 -2.19194e-05)
(-0.00132895 0.000119251 1.8755e-05)
(-0.00228849 0.000168642 -2.85176e-06)
(-0.000638529 -3.25557e-05 6.6644e-05)
(-0.00123316 -0.000150851 0.00019222)
(-0.00207167 -0.000275968 0.000295965)
(-8.43525e-06 -5.4014e-06 -1.85838e-05)
(-5.37126e-05 -6.97969e-06 -1.39346e-05)
(-9.47622e-05 -8.17352e-06 -1.25876e-05)
(-0.000168139 -8.00871e-06 -5.71962e-06)
(-0.00027301 -8.51407e-06 -5.36708e-06)
(-0.000440361 -6.94173e-06 1.02439e-05)
(-0.000729607 -4.83301e-06 3.2338e-05)
(-0.0011738 -3.40145e-06 8.38721e-05)
(-0.00182432 -1.14322e-05 0.000134643)
(1.01563e-05 -8.25384e-06 -2.26164e-05)
(-4.27257e-05 -4.63672e-06 -2.44571e-05)
(-7.78963e-05 -6.48689e-06 -2.46517e-05)
(-0.0001637 -1.69433e-06 -2.32589e-05)
(-0.000248092 -3.21189e-06 -1.79854e-05)
(-0.000442613 8.38545e-06 -2.00925e-05)
(-0.000701146 2.22338e-06 9.76696e-06)
(-0.00124261 4.74002e-05 1.90181e-05)
(-0.0020629 0.000110815 7.60483e-07)
(2.43341e-05 -1.75362e-05 -2.44448e-05)
(-3.36726e-05 -1.27326e-05 -2.7537e-05)
(-7.65393e-05 -1.13157e-05 -2.80285e-05)
(-0.000164639 -9.3946e-06 -3.198e-05)
(-0.000265911 -1.61822e-06 -2.33848e-05)
(-0.000462367 -1.11844e-06 -4.02529e-05)
(-0.000780618 1.82852e-05 7.33235e-07)
(-0.00126963 1.76363e-06 -3.26683e-05)
(-0.00203972 2.60032e-06 -0.000100539)
)
;

boundaryField
{
    inlet
    {
        type            calculated;
        value           nonuniform 0();
    }
    outlet
    {
        type            calculated;
        value           nonuniform List<vector> 
16
(
(-0.00242406 0.000598294 -0.00075527)
(-0.0023347 0.00162402 -0.000909489)
(-0.00527859 0.00163764 -0.000861939)
(-0.00529625 0.000548249 -0.00131828)
(-0.00206552 -0.000217044 0.000317388)
(-0.00281228 0.000187192 -0.000167051)
(-0.00168751 0.000733885 0.000321281)
(-0.00448631 0.000899984 0.000315221)
(-0.00285442 -0.000400701 0.0013434)
(-0.0023514 0.00161041 5.63353e-05)
(-0.00700002 0.00224082 0.00185097)
(-0.0070479 -0.000262914 0.000366314)
(-0.00567889 -0.00167501 0.000895854)
(-0.00268754 -0.000227759 0.000353585)
(-0.00526246 0.000360165 -0.000516446)
(-0.00370208 -0.000834636 -0.000929601)
)
;
    }
    wall
    {
        type            calculated;
        value           nonuniform List<vector> 
66
(
(-4.44775e-05 9.32489e-06 -0.000105346)
(0.000126089 1.54787e-05 -6.48663e-05)
(0.000170665 -4.9673e-05 -5.61986e-05)
(-0.000201321 -1.56773e-05 -2.06161e-05)
(-0.000137351 5.17925e-05 -8.83059e-05)
(-9.32471e-05 -1.76943e-05 -6.91346e-05)
(-0.00019076 -1.24883e-05 -3.675e-05)
(5.40636e-05 -4.82236e-06 -9.08491e-05)
(4.29518e-07 -2.01369e-05 -5.20813e-05)
(-0.000211693 -1.12939e-05 1.39291e-05)
(-0.000230922 4.86502e-05 -0.00010686)
(-0.000195419 -5.67405e-05 -0.000127761)
(-0.000376069 -2.41411e-05 -0.000103885)
(0.000100649 -2.79431e-05 -3.84585e-05)
(-0.000165906 2.30317e-05 3.98175e-05)
(-0.000170505 -6.84674e-06 -1.01674e-05)
(-0.000277127 7.80702e-05 -0.000190101)
(-0.000216947 -0.000139065 -0.000307354)
(0.000986366 0.000401971 -8.87693e-05)
(-0.000634772 -1.59428e-05 -4.51901e-05)
(0.00031497 -0.000248018 0.000143813)
(-0.000819264 0.000101967 0.000283606)
(-0.00055685 -0.000599166 0.000493327)
(-0.000215452 -8.11253e-05 3.5045e-05)
(-0.000409908 -0.000131954 -5.23247e-05)
(-0.000259639 -0.000554479 -0.000236777)
(-0.00567889 -0.00167501 0.000895854)
(-0.00268754 -0.000227759 0.000353585)
(-0.00526246 0.000360165 -0.000516446)
(-0.00370208 -0.000834636 -0.000929601)
(0.000337936 -4.9848e-05 -3.83102e-05)
(5.13711e-05 -8.90444e-05 1.58008e-05)
(0.000240359 -6.6621e-05 -3.56143e-05)
(0.000170665 -4.9673e-05 -5.61986e-05)
(-6.23999e-05 -1.81998e-06 -9.13038e-05)
(-0.000194453 2.05358e-05 -2.38501e-05)
(-2.76638e-05 -6.53767e-05 -5.20013e-05)
(-9.32471e-05 -1.76943e-05 -6.91346e-05)
(0.000310706 -5.35726e-05 1.3494e-07)
(1.77049e-05 -3.4547e-05 2.31758e-05)
(0.000219272 -8.05843e-05 -3.16312e-05)
(4.29518e-07 -2.01369e-05 -5.20813e-05)
(-0.000212986 1.07167e-05 -0.000154274)
(-0.000220217 6.85679e-05 1.04374e-05)
(-0.000128653 -9.95917e-05 -5.72693e-05)
(-0.000195419 -5.67405e-05 -0.000127761)
(0.000308895 -5.20552e-05 0.000103295)
(4.78547e-05 3.71218e-05 6.71381e-05)
(0.000425899 -8.78935e-05 -9.84927e-06)
(-0.000165906 2.30317e-05 3.98175e-05)
(-0.000453926 -7.56597e-06 -0.000212499)
(-0.000189603 0.000116562 1.67059e-05)
(-0.00032685 -0.000176354 -0.000122236)
(-0.000216947 -0.000139065 -0.000307354)
(1.74244e-05 -4.15632e-05 0.000464661)
(0.000111608 -0.000295981 5.56493e-05)
(0.0011525 -0.000102437 -2.79615e-05)
(-0.000819264 0.000101967 0.000283606)
(-0.000824768 -0.000154611 0.000193931)
(-0.0003812 0.000385525 0.000551961)
(-0.00078301 -1.78166e-05 0.000590317)
(-0.000259639 -0.000554479 -0.000236777)
(-0.00529625 0.000548249 -0.00131828)
(-0.00448631 0.000899984 0.000315221)
(-0.0070479 -0.000262914 0.000366314)
(-0.00370208 -0.000834636 -0.000929601)
)
;
    }
    procBoundary7to0
    {
        type            processor;
        value           uniform (3.42677e-05 4.48822e-06 1.53869e-05);
    }
    procBoundary7to1
    {
        type            processor;
        value           uniform (1.32315e-05 1.18292e-05 1.4325e-05);
    }
    procBoundary7to3
    {
        type            processor;
        value           nonuniform List<vector> 
36
(
(5.20218e-05 7.04464e-06 2.52413e-05)
(3.85768e-05 4.5187e-06 1.804e-05)
(-6.25515e-05 3.2594e-06 1.70926e-05)
(-0.000184538 4.48977e-06 4.9013e-06)
(-0.000295923 3.54639e-06 -8.87068e-06)
(-0.000519354 6.28857e-06 -7.8335e-05)
(-0.000851259 9.74893e-06 -0.000154487)
(-0.00130916 3.82918e-05 -0.00040497)
(-0.00192039 5.26999e-05 -0.000592679)
(6.02256e-05 2.31239e-06 2.10271e-05)
(1.73716e-05 8.80082e-07 1.67709e-05)
(-4.74866e-05 5.45887e-06 1.69301e-05)
(-0.000147649 1.62646e-05 1.3641e-07)
(-0.000269206 3.40141e-05 -1.5955e-05)
(-0.000502869 6.77338e-05 -9.83453e-05)
(-0.000832436 0.000114345 -0.00019099)
(-0.00135951 0.000273493 -0.000449686)
(-0.00206373 0.000415621 -0.000687338)
(8.73761e-05 -5.63786e-06 1.60684e-05)
(3.54599e-05 -4.5041e-06 1.03035e-05)
(-1.16987e-05 -2.01371e-06 9.41743e-06)
(-0.000108458 2.22736e-05 -1.45379e-05)
(-0.000216561 4.61824e-05 -4.05603e-05)
(-0.000468862 0.000123368 -0.000140393)
(-0.000807592 0.000203931 -0.000262545)
(-0.00150029 0.000528812 -0.000600934)
(-0.00232842 0.000795876 -0.000946786)
(0.000124017 -1.49291e-05 1.07572e-05)
(6.42766e-05 -8.94623e-06 -9.9757e-07)
(4.54027e-05 -6.62846e-06 -1.27299e-06)
(-7.19902e-05 3.16056e-05 -3.73177e-05)
(-0.000122619 5.59963e-05 -5.80885e-05)
(-0.000413534 0.000157082 -0.000176964)
(-0.000631111 0.000238758 -0.000301727)
(-0.00166734 0.000601672 -0.000757249)
(-0.00290441 0.000897145 -0.00127076)
)
;
    }
    procBoundary7to5
    {
        type            processor;
        value           nonuniform List<vector> 
44
(
(-1.94873e-05 7.56481e-06 1.30229e-05)
(-7.7593e-05 4.52451e-06 1.8426e-05)
(-0.000160952 -5.91569e-06 9.95491e-06)
(-0.000285401 -1.87392e-05 2.60199e-06)
(-0.000481658 -4.52839e-05 -2.8975e-05)
(-0.00080209 -7.7219e-05 -6.59442e-05)
(-0.00117805 -0.0001821 -0.000151804)
(-0.00172086 -0.000266361 -0.000215954)
(2.47896e-06 5.37211e-07 7.15287e-06)
(-3.2077e-05 -5.92305e-07 4.60595e-06)
(-7.08592e-05 -2.31555e-06 1.39237e-05)
(-0.000146846 -1.24637e-05 1.45817e-05)
(-0.000257398 -2.53217e-05 1.76945e-05)
(-0.000440857 -5.55039e-05 1.75937e-05)
(-0.000760052 -8.1295e-05 1.16513e-05)
(-0.00115599 -0.00021828 7.07299e-05)
(-0.00171453 -0.000350091 0.000141671)
(2.47896e-06 5.37211e-07 7.15287e-06)
(-3.2077e-05 -5.92305e-07 4.60595e-06)
(-3.2077e-05 -5.92305e-07 4.60595e-06)
(-7.13498e-05 -6.38938e-06 1.28059e-06)
(-0.000145032 -9.18137e-06 1.01216e-05)
(-0.000228068 -2.14622e-05 2.34432e-05)
(-0.000415625 -5.76974e-05 5e-05)
(-0.000715878 -8.95146e-05 7.15305e-05)
(-0.00122573 -0.000251227 0.000233626)
(-0.00191308 -0.000371749 0.0003478)
(3.347e-06 5.66297e-07 -4.58247e-06)
(-3.50706e-05 -3.02809e-06 -1.11639e-06)
(-7.13498e-05 -6.38938e-06 1.28059e-06)
(-0.000145032 -9.18137e-06 1.01216e-05)
(-0.000145032 -9.18137e-06 1.01216e-05)
(-0.000211807 -1.65057e-05 1.54654e-05)
(-0.00040525 -4.11848e-05 4.47385e-05)
(-0.00061442 -6.62011e-05 7.15905e-05)
(-0.00134681 -0.000214331 0.000252972)
(-0.00233983 -0.000355667 0.000414436)
(1.13307e-05 -5.69633e-06 -8.95078e-06)
(-3.48547e-05 -9.03252e-06 -5.406e-06)
(-5.93528e-05 -1.10055e-05 -6.39148e-06)
(-0.00014144 -1.69488e-05 8.1005e-06)
(-0.000211807 -1.65057e-05 1.54654e-05)
(-0.00040525 -4.11848e-05 4.47385e-05)
(-0.00040525 -4.11848e-05 4.47385e-05)
)
;
    }
    procBoundary7to6
    {
        type            processor;
        value           nonuniform List<vector> 
12
(
(3.86369e-05 -1.30313e-06 1.22488e-05)
(5.66068e-05 -8.39943e-06 7.00614e-06)
(7.87678e-05 -1.63313e-05 5.57404e-07)
(1.92102e-05 -4.11474e-06 3.00158e-06)
(2.93577e-05 -1.14078e-05 4.62154e-09)
(3.92131e-05 -1.68657e-05 -3.99822e-06)
(1.12853e-05 -5.62895e-06 -6.73634e-06)
(2.42815e-05 -1.10409e-05 -1.02271e-05)
(4.30659e-05 -1.94332e-05 -1.471e-05)
(7.43426e-06 -7.05138e-06 -1.26245e-05)
(2.44797e-05 -9.10714e-06 -1.75456e-05)
(4.3646e-05 -1.91081e-05 -2.03386e-05)
)
;
    }
}


// ************************************************************************* //
