/*--------------------------------*- C++ -*----------------------------------*\
| =========                 |                                                 |
| \\      /  F ield         | OpenFOAM: The Open Source CFD Toolbox           |
|  \\    /   O peration     | Version:  4.x                                   |
|   \\  /    A nd           | Web:      www.OpenFOAM.org                      |
|    \\/     M anipulation  |                                                 |
\*---------------------------------------------------------------------------*/
FoamFile
{
    version     2.0;
    format      ascii;
    class       volScalarField;
    location    "29.5";
    object      particleRelTemp;
}
// * * * * * * * * * * * * * * * * * * * * * * * * * * * * * * * * * * * * * //

dimensions      [0 0 0 0 0 0 0];

internalField   nonuniform List<scalar> 
132
(
6.60277e-09
7.0274e-09
7.10234e-09
6.63218e-09
5.87638e-09
5.05031e-09
4.25029e-09
3.72624e-09
3.47759e-09
5.64928e-09
6.27283e-09
6.41961e-09
6.12165e-09
5.52463e-09
4.5944e-09
3.71229e-09
2.96991e-09
2.84579e-09
3.88895e-09
4.21139e-09
4.43456e-09
4.2701e-09
3.9474e-09
2.75624e-09
2.16968e-09
1.8347e-09
1.57597e-09
2.09421e-09
2.26336e-09
2.51855e-09
2.4315e-09
2.23319e-09
1.29692e-09
7.60152e-10
1.91481e-10
3.01765e-10
6.19695e-09
5.73842e-09
5.06974e-09
4.5218e-09
3.81239e-09
3.31347e-09
2.98863e-09
4.99291e-09
5.32208e-09
5.51483e-09
4.9753e-09
4.55151e-09
3.76418e-09
3.12381e-09
2.68225e-09
2.49177e-09
3.39693e-09
3.5272e-09
3.61466e-09
3.61184e-09
2.95156e-09
2.39187e-09
1.83611e-09
1.46778e-09
1.14025e-09
1.39764e-09
1.71956e-09
2.1818e-09
1.93677e-09
1.49075e-09
8.17247e-10
5.15673e-10
3.88226e-11
-9.21302e-11
4.22368e-09
3.39003e-09
2.54676e-09
2.10826e-09
2.18854e-09
2.83007e-09
3.91979e-09
3.63229e-09
3.24821e-09
3.05829e-09
2.66648e-09
2.05002e-09
1.65092e-09
1.58436e-09
1.4407e-09
1.63758e-09
1.91767e-09
1.95424e-09
1.64108e-09
1.16571e-09
7.18225e-10
1.95674e-10
2.34695e-10
-4.24457e-10
2.83295e-10
3.62617e-10
4.54303e-10
-9.76029e-11
-7.28638e-10
-6.94867e-10
-1.16784e-09
-1.14569e-09
1.33902e-09
9.81858e-10
7.51052e-10
1.48979e-09
1.74785e-09
2.1208e-09
1.82766e-09
1.69466e-09
1.33203e-09
9.97972e-10
4.00937e-10
4.90498e-10
-2.36272e-10
2.66942e-10
5.50745e-10
4.68646e-10
3.34162e-10
1.40785e-10
-2.96468e-10
-1.01001e-09
-8.9329e-10
-1.76946e-09
-1.17991e-09
-1.06086e-09
-1.17904e-09
-1.0921e-09
-1.34447e-09
-1.68888e-09
-2.19679e-09
-2.7776e-09
)
;

boundaryField
{
    inlet
    {
        type            calculated;
        value           nonuniform 0();
    }
    outlet
    {
        type            calculated;
        value           nonuniform List<scalar> 
16
(
3.47759e-09
2.84579e-09
1.57597e-09
3.01765e-10
2.98863e-09
2.49177e-09
1.14025e-09
-9.21302e-11
2.18854e-09
1.58436e-09
2.34695e-10
-1.14569e-09
7.51052e-10
4.90498e-10
-8.9329e-10
-2.7776e-09
)
;
    }
    wall
    {
        type            calculated;
        value           nonuniform List<scalar> 
66
(
1.48979e-09
-2.36272e-10
-1.76946e-09
1.74785e-09
2.66942e-10
-1.17991e-09
2.1208e-09
5.50745e-10
-1.06086e-09
1.82766e-09
4.68646e-10
-1.17904e-09
1.69466e-09
3.34162e-10
-1.0921e-09
1.33203e-09
1.40785e-10
-1.34447e-09
1.33902e-09
9.97972e-10
-2.96468e-10
-1.68888e-09
9.81858e-10
4.00937e-10
-1.01001e-09
-2.19679e-09
7.51052e-10
4.90498e-10
-8.9329e-10
-2.7776e-09
2.09421e-09
1.39764e-09
-4.24457e-10
-1.76946e-09
2.26336e-09
1.71956e-09
2.83295e-10
-1.17991e-09
2.51855e-09
2.1818e-09
3.62617e-10
-1.06086e-09
2.4315e-09
1.93677e-09
4.54303e-10
-1.17904e-09
2.23319e-09
1.49075e-09
-9.76029e-11
-1.0921e-09
1.29692e-09
8.17247e-10
-7.28638e-10
-1.34447e-09
7.60152e-10
5.15673e-10
-6.94867e-10
-1.68888e-09
1.91481e-10
3.88226e-11
-1.16784e-09
-2.19679e-09
3.01765e-10
-9.21302e-11
-1.14569e-09
-2.7776e-09
)
;
    }
    procBoundary7to0
    {
        type            processor;
        value           uniform 5.94285e-09;
    }
    procBoundary7to1
    {
        type            processor;
        value           uniform 6.35433e-09;
    }
    procBoundary7to3
    {
        type            processor;
        value           nonuniform List<scalar> 
36
(
6.27413e-09
6.67582e-09
6.75652e-09
6.18816e-09
5.41462e-09
4.78071e-09
3.90084e-09
3.36294e-09
3.14493e-09
5.1423e-09
5.71125e-09
5.864e-09
5.40866e-09
5.04807e-09
4.0818e-09
3.26248e-09
2.54438e-09
2.23302e-09
3.25916e-09
3.3597e-09
3.96754e-09
3.89982e-09
3.4801e-09
2.6685e-09
1.74327e-09
1.27553e-09
8.85577e-10
1.46776e-09
1.28116e-09
1.68891e-09
1.72458e-09
1.63758e-09
6.77486e-10
1.22525e-10
-9.20024e-11
7.17659e-11
)
;
    }
    procBoundary7to5
    {
        type            processor;
        value           nonuniform List<scalar> 
44
(
6.69846e-09
6.63313e-09
6.16274e-09
5.67998e-09
4.79685e-09
4.07646e-09
3.45473e-09
3.35099e-09
5.46212e-09
6.04041e-09
5.67027e-09
5.36275e-09
4.65585e-09
4.01131e-09
3.51933e-09
3.05895e-09
2.77147e-09
5.46212e-09
6.04041e-09
6.04041e-09
4.0792e-09
4.06739e-09
3.32442e-09
2.69682e-09
2.18354e-09
1.76792e-09
1.69866e-09
3.32564e-09
3.94135e-09
4.0792e-09
4.06739e-09
4.06739e-09
2.47204e-09
1.71869e-09
8.61949e-10
4.19339e-10
4.16565e-10
1.95966e-09
2.21883e-09
2.56219e-09
2.43713e-09
2.47204e-09
1.71869e-09
1.71869e-09
)
;
    }
    procBoundary7to6
    {
        type            processor;
        value           nonuniform List<scalar> 
12
(
4.89446e-09
3.00409e-09
8.4828e-10
4.03686e-09
2.19246e-09
7.13677e-10
2.46287e-09
1.11497e-09
-8.10348e-10
2.90738e-10
-5.7415e-10
-2.0313e-09
)
;
    }
}


// ************************************************************************* //
