/*--------------------------------*- C++ -*----------------------------------*\
| =========                 |                                                 |
| \\      /  F ield         | OpenFOAM: The Open Source CFD Toolbox           |
|  \\    /   O peration     | Version:  4.x                                   |
|   \\  /    A nd           | Web:      www.OpenFOAM.org                      |
|    \\/     M anipulation  |                                                 |
\*---------------------------------------------------------------------------*/
FoamFile
{
    version     2.0;
    format      ascii;
    class       volScalarField;
    location    "29.5";
    object      QPartFluidCoeff;
}
// * * * * * * * * * * * * * * * * * * * * * * * * * * * * * * * * * * * * * //

dimensions      [1 -1 -3 -1 0 0 0];

internalField   nonuniform List<scalar> 
132
(
-3.32175e+07
-3.01751e+07
-2.12079e+07
-2.63672e+07
-3.67922e+07
-4.17145e+07
-2.67443e+07
-2.22787e+07
-2.18046e+07
-2.52126e+07
-3.78561e+07
-2.46962e+07
-2.70451e+07
-2.79187e+07
-2.31254e+07
-2.63307e+07
-2.59117e+07
-2.33019e+07
-1.74163e+07
-3.1267e+07
-2.28331e+07
-2.97331e+07
-2.73804e+07
-3.4821e+07
-2.84729e+07
-3.03957e+07
-2.27204e+07
-2.35134e+07
-2.50391e+07
-2.98171e+07
-1.9907e+07
-2.63536e+07
-2.66364e+07
-2.67228e+07
-2.31552e+07
-1.18117e+07
-2.17901e+07
-2.87847e+07
-2.33428e+07
-2.73709e+07
-2.95029e+07
-3.31824e+07
-2.07053e+07
-1.28269e+07
-3.37063e+07
-2.43688e+07
-2.95723e+07
-2.87779e+07
-2.77225e+07
-1.8972e+07
-3.03794e+07
-1.55077e+07
-2.0068e+07
-3.39605e+07
-2.52474e+07
-2.45312e+07
-2.75554e+07
-3.54836e+07
-3.20699e+07
-2.83512e+07
-2.16139e+07
-2.26179e+07
-2.90621e+07
-2.06925e+07
-2.71703e+07
-2.43677e+07
-2.29285e+07
-2.14516e+07
-3.01007e+07
-1.42172e+07
-1.66449e+07
-2.40966e+07
-2.72499e+07
-2.53189e+07
-1.5219e+07
-2.84473e+07
-3.04409e+07
-2.3432e+07
-2.15856e+07
-3.01777e+07
-2.91894e+07
-2.58717e+07
-3.56814e+07
-2.30549e+07
-2.74402e+07
-3.17436e+07
-2.89696e+07
-3.01933e+07
-3.1272e+07
-3.33356e+07
-3.00692e+07
-3.14302e+07
-2.29483e+07
-2.02376e+07
-2.46001e+07
-2.42692e+07
-2.7363e+07
-2.19848e+07
-2.30249e+07
-2.78033e+07
-2.77889e+07
-1.67541e+07
-1.90637e+07
-2.65278e+07
-1.58886e+07
-2.39338e+07
-2.30913e+07
-2.43609e+07
-2.83542e+07
-1.61961e+07
-1.59527e+07
-2.17928e+07
-2.48924e+07
-1.40135e+07
-2.10736e+07
-2.26093e+07
-2.1008e+07
-2.58682e+07
-2.42248e+07
-2.37606e+07
-2.4994e+07
-2.56154e+07
-1.96873e+07
-2.03644e+07
-2.77023e+07
-1.97689e+07
-2.39799e+07
-2.46009e+07
-2.34797e+07
-2.18797e+07
-2.37455e+07
-1.20764e+07
)
;

boundaryField
{
    inlet
    {
        type            calculated;
        value           nonuniform 0();
    }
    outlet
    {
        type            calculated;
        value           uniform 0;
    }
    wall
    {
        type            calculated;
        value           uniform 0;
    }
    procBoundary7to0
    {
        type            processor;
        value           uniform 195.49;
    }
    procBoundary7to1
    {
        type            processor;
        value           uniform 440.6;
    }
    procBoundary7to3
    {
        type            processor;
        value           nonuniform List<scalar> 
36
(
611.154
816.661
679.122
766.263
487.302
578.67
676.261
637.157
524.197
732.213
470.821
617.743
380.425
331.327
720.624
582.157
837.709
388.938
457.811
782.99
694.959
551.024
556.13
753.761
614.256
704.998
371.998
665.912
371.369
442.201
533.461
493.43
661.535
498.085
732.029
585.608
)
;
    }
    procBoundary7to5
    {
        type            processor;
        value           nonuniform List<scalar> 
44
(
748.984
462.026
658.84
443.821
403.764
570.048
478.207
522.051
775.433
382.347
552.313
690.805
472.824
641.27
561.166
618.284
342.994
775.433
382.347
382.347
717.056
749.181
863.682
702.581
696.532
836.681
626.421
398.43
882.36
717.056
749.181
749.181
765.851
635.54
522.84
611.694
471.595
535.962
485.72
542.673
502.473
765.851
635.54
635.54
)
;
    }
    procBoundary7to6
    {
        type            processor;
        value           nonuniform List<scalar> 
12
(
611.023
673.441
423.746
754.42
712.077
666.47
721.362
754.974
521.606
340.937
640.31
544.083
)
;
    }
}


// ************************************************************************* //
