/*--------------------------------*- C++ -*----------------------------------*\
| =========                 |                                                 |
| \\      /  F ield         | OpenFOAM: The Open Source CFD Toolbox           |
|  \\    /   O peration     | Version:  4.x                                   |
|   \\  /    A nd           | Web:      www.OpenFOAM.org                      |
|    \\/     M anipulation  |                                                 |
\*---------------------------------------------------------------------------*/
FoamFile
{
    version     2.0;
    format      ascii;
    class       volScalarField;
    location    "29.5";
    object      Qsource;
}
// * * * * * * * * * * * * * * * * * * * * * * * * * * * * * * * * * * * * * //

dimensions      [1 -1 -3 0 0 0 0];

internalField   nonuniform List<scalar> 
132
(
9.96526e+09
9.05254e+09
6.36236e+09
7.91016e+09
1.10377e+10
1.25143e+10
8.02328e+09
6.6836e+09
6.54138e+09
7.56377e+09
1.13568e+10
7.40886e+09
8.11353e+09
8.3756e+09
6.93763e+09
7.8992e+09
7.77352e+09
6.99057e+09
5.22489e+09
9.38009e+09
6.84994e+09
8.91993e+09
8.21413e+09
1.04463e+10
8.54187e+09
9.11872e+09
6.81612e+09
7.53338e+09
8.40877e+09
9.40762e+09
6.88384e+09
8.33073e+09
8.90834e+09
8.36241e+09
7.85568e+09
3.74875e+09
6.53702e+09
8.63541e+09
7.00283e+09
8.21127e+09
8.85087e+09
9.95473e+09
6.2116e+09
3.84808e+09
1.01119e+10
7.31064e+09
8.8717e+09
8.63337e+09
8.31676e+09
5.6916e+09
9.11381e+09
4.65232e+09
6.02039e+09
1.01881e+10
7.57423e+09
7.35936e+09
8.26661e+09
1.06451e+10
9.62096e+09
8.50536e+09
6.48416e+09
7.16329e+09
9.55837e+09
6.53616e+09
8.99475e+09
7.58344e+09
7.73022e+09
6.677e+09
9.90013e+09
4.50741e+09
4.99347e+09
7.22899e+09
8.17496e+09
7.59567e+09
4.56569e+09
8.53419e+09
9.13226e+09
7.0296e+09
6.47567e+09
9.0533e+09
8.75683e+09
7.76151e+09
1.07044e+10
6.91646e+09
8.23206e+09
9.52309e+09
8.69089e+09
9.058e+09
9.38161e+09
1.00007e+10
9.02076e+09
9.42905e+09
6.8845e+09
6.57089e+09
8.26799e+09
7.77433e+09
9.11266e+09
7.07321e+09
7.84112e+09
8.76591e+09
9.33288e+09
5.26782e+09
6.04783e+09
8.94116e+09
5.1022e+09
7.51378e+09
7.73835e+09
7.57689e+09
9.30177e+09
5.04662e+09
5.5575e+09
6.63999e+09
8.18207e+09
4.34072e+09
6.78574e+09
7.65291e+09
6.7406e+09
8.635e+09
7.66186e+09
8.01301e+09
7.83715e+09
8.59789e+09
6.12469e+09
7.28035e+09
1.0156e+10
7.07628e+09
9.04308e+09
8.47016e+09
8.86425e+09
7.59554e+09
8.82835e+09
4.63904e+09
)
;

boundaryField
{
    inlet
    {
        type            calculated;
        value           nonuniform 0();
    }
    outlet
    {
        type            calculated;
        value           uniform 0;
    }
    wall
    {
        type            calculated;
        value           uniform 0;
    }
    procBoundary7to0
    {
        type            processor;
        value           uniform 2.58634e+09;
    }
    procBoundary7to1
    {
        type            processor;
        value           uniform 5.82914e+09;
    }
    procBoundary7to3
    {
        type            processor;
        value           nonuniform List<scalar> 
36
(
8.08557e+09
1.08044e+10
8.98478e+09
1.01377e+10
6.44701e+09
7.65581e+09
8.94694e+09
8.42958e+09
6.93513e+09
9.68718e+09
6.22895e+09
8.17274e+09
5.03302e+09
4.38346e+09
9.53386e+09
7.70193e+09
1.10829e+10
5.14565e+09
6.05684e+09
1.0359e+10
9.1943e+09
7.29004e+09
7.3576e+09
9.97226e+09
8.12661e+09
9.32713e+09
4.92154e+09
9.29299e+09
5.83394e+09
6.33359e+09
8.01042e+09
6.99694e+09
9.76321e+09
7.04168e+09
1.08487e+10
8.23173e+09
)
;
    }
    procBoundary7to5
    {
        type            processor;
        value           nonuniform List<scalar> 
44
(
9.90905e+09
6.1126e+09
8.71645e+09
5.87175e+09
5.34179e+09
7.54173e+09
6.32668e+09
6.90674e+09
1.0259e+10
5.05845e+09
7.3071e+09
9.13935e+09
6.25547e+09
8.484e+09
7.42422e+09
8.1799e+09
4.53781e+09
1.0259e+10
5.05845e+09
5.05845e+09
9.48664e+09
9.91166e+09
1.14265e+10
9.29515e+09
9.21512e+09
1.10693e+10
8.28755e+09
5.27123e+09
1.16736e+10
9.48664e+09
9.91166e+09
9.91166e+09
1.04645e+10
9.30463e+09
7.27018e+09
9.10275e+09
6.55446e+09
7.48707e+09
7.27792e+09
7.54708e+09
7.51359e+09
1.04645e+10
9.30463e+09
9.30463e+09
)
;
    }
    procBoundary7to6
    {
        type            processor;
        value           nonuniform List<scalar> 
12
(
8.08384e+09
8.90963e+09
6.48805e+09
9.98098e+09
9.42077e+09
9.6547e+09
9.54361e+09
9.98831e+09
7.77449e+09
5.32742e+09
9.33082e+09
9.03015e+09
)
;
    }
}


// ************************************************************************* //
