/*--------------------------------*- C++ -*----------------------------------*\
| =========                 |                                                 |
| \\      /  F ield         | OpenFOAM: The Open Source CFD Toolbox           |
|  \\    /   O peration     | Version:  4.x                                   |
|   \\  /    A nd           | Web:      www.OpenFOAM.org                      |
|    \\/     M anipulation  |                                                 |
\*---------------------------------------------------------------------------*/
FoamFile
{
    version     2.0;
    format      ascii;
    class       volScalarField;
    location    "3";
    object      Deff;
}
// * * * * * * * * * * * * * * * * * * * * * * * * * * * * * * * * * * * * * //

dimensions      [0 2 -1 0 0 0 0];

internalField   nonuniform List<scalar> 
108
(
9.89233e-08
9.89885e-08
9.88716e-08
9.89564e-08
9.88971e-08
9.8915e-08
9.87581e-08
9.87486e-08
9.87176e-08
9.8942e-08
9.87816e-08
9.88787e-08
9.88785e-08
9.88177e-08
9.8844e-08
9.86715e-08
9.86533e-08
9.86421e-08
9.89787e-08
9.89002e-08
9.89499e-08
9.89221e-08
9.88394e-08
9.88308e-08
9.86928e-08
9.86613e-08
9.87295e-08
9.91363e-08
9.91129e-08
9.90205e-08
9.88588e-08
9.88735e-08
9.88317e-08
9.88563e-08
9.87209e-08
9.87775e-08
9.84986e-08
9.85031e-08
9.83433e-08
9.83277e-08
9.83648e-08
9.83794e-08
9.82997e-08
9.82652e-08
9.81859e-08
9.85349e-08
9.8482e-08
9.83798e-08
9.83866e-08
9.83912e-08
9.83532e-08
9.81973e-08
9.82174e-08
9.82202e-08
9.84415e-08
9.84643e-08
9.84342e-08
9.83857e-08
9.83945e-08
9.83254e-08
9.82812e-08
9.82373e-08
9.82319e-08
9.86417e-08
9.86831e-08
9.85915e-08
9.85043e-08
9.83826e-08
9.84272e-08
9.83565e-08
9.83168e-08
9.83785e-08
9.81443e-08
9.8055e-08
9.80227e-08
9.79598e-08
9.80243e-08
9.79691e-08
9.78591e-08
9.79239e-08
9.79278e-08
9.8153e-08
9.81779e-08
9.8076e-08
9.81831e-08
9.81359e-08
9.79488e-08
9.78831e-08
9.7842e-08
9.79538e-08
9.83227e-08
9.81429e-08
9.81095e-08
9.81819e-08
9.80893e-08
9.79491e-08
9.79513e-08
9.79245e-08
9.80089e-08
9.8366e-08
9.84349e-08
9.83168e-08
9.82537e-08
9.81754e-08
9.80472e-08
9.80228e-08
9.7945e-08
9.79519e-08
)
;

boundaryField
{
    inlet
    {
        type            calculated;
        value           nonuniform 0();
    }
    outlet
    {
        type            calculated;
        value           uniform 0;
    }
    wall
    {
        type            calculated;
        value           uniform 0;
    }
    procBoundary3to1
    {
        type            processor;
        value           uniform 0;
    }
    procBoundary3to2
    {
        type            processor;
        value           uniform 0;
    }
    procBoundary3to7
    {
        type            processor;
        value           uniform 0;
    }
}


// ************************************************************************* //
