/*--------------------------------*- C++ -*----------------------------------*\
| =========                 |                                                 |
| \\      /  F ield         | OpenFOAM: The Open Source CFD Toolbox           |
|  \\    /   O peration     | Version:  4.x                                   |
|   \\  /    A nd           | Web:      www.OpenFOAM.org                      |
|    \\/     M anipulation  |                                                 |
\*---------------------------------------------------------------------------*/
FoamFile
{
    version     2.0;
    format      ascii;
    class       volVectorField;
    location    "3";
    object      GField;
}
// * * * * * * * * * * * * * * * * * * * * * * * * * * * * * * * * * * * * * //

dimensions      [1 -2 -1 0 0 0 0];

internalField   nonuniform List<vector> 
108
(
(-14.8851 0.324224 3.19371)
(105.999 1.04294 17.6862)
(0.69822 0.353036 -0.00600186)
(93.3994 -1.38025 2.224)
(0.398455 0.600346 -0.105295)
(87.9427 -0.517269 -3.1404)
(7.38635 8.47523 -5.66122)
(72.6953 -1.5373 0.44013)
(25.8126 32.2523 -16.4543)
(16.0395 12.0638 -1.96726)
(99.1934 -6.64389 -2.25146)
(16.4228 11.4322 -3.84019)
(108.154 4.88373 -1.42102)
(11.6204 14.878 -5.55609)
(116.446 8.2216 -3.51491)
(9.82467 26.0609 -13.503)
(138.095 -6.09513 -1.37179)
(23.2098 48.8447 -33.0696)
(15.9294 1.65308 -1.35834)
(107.519 5.9534 -2.17683)
(12.961 2.13233 -1.50449)
(117.894 7.0549 5.76764)
(18.8099 4.79857 -3.88498)
(124.893 8.15204 -9.19651)
(20.4766 14.4925 -15.6316)
(149.522 -13.1506 -8.48907)
(27.7774 70.5344 -52.0518)
(63.1851 9.98848 1.33714)
(132.595 10.0019 4.06729)
(63.3524 11.5268 2.13663)
(142.934 13.1936 4.80783)
(71.1436 16.131 -1.25413)
(169.971 11.2361 -1.07834)
(82.8549 27.0725 -20.9758)
(236.27 2.55183 -4.56861)
(68.8212 64.4091 -84.9066)
(-85.9879 2.7608 -54.5343)
(67.0699 0.316416 -22.7962)
(0.445893 0.162805 -0.357375)
(67.2608 0.0877723 -12.3407)
(-8.01822 1.07357 -6.69532)
(67.2175 -0.27768 -17.5239)
(3.98067 -0.326406 -3.67507)
(62.4111 1.77499 -19.3535)
(35.8446 -3.09731 -12.6999)
(2.50352 0.129094 -0.894919)
(98.0448 -23.5213 -5.77669)
(8.26637 0.235548 -4.0023)
(94.4359 6.58159 -5.51511)
(2.22135 2.74232 -2.60134)
(93.8838 3.76625 -6.83677)
(6.20269 13.2427 -10.6867)
(77.6788 1.31619 -6.88578)
(21.9493 27.0354 -22.6044)
(14.3284 0.375872 -2.17743)
(102.417 0.979535 -14.1191)
(18.4683 2.87194 -6.1906)
(92.8208 1.33436 -23.3415)
(0.173364 0.238354 -0.38603)
(88.6748 0.507268 0.495059)
(-0.488219 5.20102 -7.50704)
(77.0171 -3.67381 -13.4486)
(8.13386 5.30641 -2.64101)
(69.7777 7.58318 7.82308)
(135.258 6.09579 9.05544)
(71.5884 7.40826 4.12657)
(138.33 0.834684 4.15933)
(60.2831 10.1141 -1.43314)
(137.618 3.78591 4.06983)
(48.5885 14.3248 -1.73419)
(115.143 -12.8741 2.27055)
(15.6134 28.0296 -42.1906)
(12.1757 0.712297 -3.73028)
(67.0741 -1.85783 -27.2921)
(-3.84875 -0.0448564 1.39454)
(77.5837 0.308356 1.20243)
(-0.164198 -0.578301 -0.0677381)
(75.4901 4.1293 -25.5328)
(-5.80772 2.17999 -22.3475)
(90.9483 2.73357 -43.6825)
(12.3491 7.55746 -80.7978)
(13.6554 -1.98885 -3.52694)
(96.986 -0.723433 -11.4745)
(-0.013368 1.08633 0.183317)
(101.573 -9.42769 0.380064)
(1.10382 1.22215 0.0273611)
(101.783 23.8597 -11.3569)
(10.0839 35.7899 1.37521)
(111.763 15.2789 -19.2678)
(33.7362 55.2903 -1.13213)
(16.0319 1.16902 -12.2361)
(89.9058 -2.33895 -38.5752)
(0.806406 0.839231 3.9766)
(108.668 -5.13602 27.4455)
(-46.4878 7.19439 -3.26274)
(113.26 3.24396 -12.1662)
(8.56629 9.59566 -1.76056)
(146.041 -11.774 -9.38095)
(25.5707 93.0836 15.6249)
(80.0941 4.16494 3.24828)
(136.766 2.1509 6.72381)
(76.0601 7.61781 12.3918)
(143.398 16.4986 15.4309)
(75.7102 15.2594 13.9074)
(164.53 -2.25648 11.2686)
(71.4835 19.3001 25.4564)
(209.112 -1.87217 6.56868)
(54.7636 70.2936 42.4851)
)
;

boundaryField
{
    inlet
    {
        type            calculated;
        value           nonuniform 0();
    }
    outlet
    {
        type            calculated;
        value           nonuniform List<vector> 
12
(
(53.9305 67.3851 -34.3782)
(48.67 102.425 -69.3456)
(57.9616 147.18 -108.614)
(142.42 133.289 -175.707)
(77.05 -6.65783 -27.2991)
(47.0962 58.0093 -48.5017)
(17.4376 11.376 -5.66187)
(33.2102 59.6199 -89.7409)
(26.9024 16.4639 -176.017)
(73.4392 120.36 -2.4645)
(55.4851 201.979 33.9039)
(118.747 152.421 92.1229)
)
;
    }
    wall
    {
        type            calculated;
        value           uniform (0 0 0);
    }
    procBoundary3to1
    {
        type            processor;
        value           nonuniform List<vector> 
27
(
(10.9418 -10.5159 -0.452043)
(85.2194 6.95822 -2.64591)
(4.65531 -4.10699 -0.524925)
(82.3517 -1.89893 -0.18308)
(0.209668 -0.628228 -0.0252162)
(82.4088 -3.01867 0.904857)
(1.69176 -2.7819 0.850753)
(75.0547 0.310409 3.09193)
(5.19831 -5.94964 1.04979)
(0.470283 -0.111279 -0.176715)
(86.4545 22.9967 -4.93677)
(0.391871 -0.461731 -0.286188)
(87.54 0.0518421 -4.12932)
(0.404139 -0.550896 -0.259675)
(90.1088 -3.91183 -5.78046)
(4.12901 -12.7351 -1.40811)
(82.4055 -4.99613 -2.65928)
(13.2933 -32.0178 -0.504422)
(2.02649 -0.177765 -0.404743)
(86.8278 0.679112 -8.93483)
(0.244392 -0.67399 -0.0106392)
(86.5249 -8.17197 -5.28891)
(1.42214 -2.73938 0.10149)
(89.6959 -7.43835 -5.24935)
(4.9856 -37.0374 7.47031)
(97.4972 -12.9218 -12.1556)
(36.96 -54.6573 9.68921)
)
;
    }
    procBoundary3to2
    {
        type            processor;
        value           nonuniform List<vector> 
12
(
(76.1471 -0.969717 -13.1145)
(95.2931 17.9029 -5.40246)
(99.7779 1.75037 -2.63477)
(127.762 11.1949 3.69284)
(58.397 0.35758 -7.24754)
(91.9552 24.2401 -8.50527)
(96.9468 3.05798 2.97497)
(127.064 9.11432 11.245)
(106.732 -1.99749 26.4967)
(95.8981 1.48459 -5.29924)
(94.8517 1.69424 0.056225)
(130.448 0.690201 11.6922)
)
;
    }
    procBoundary3to7
    {
        type            processor;
        value           nonuniform List<vector> 
36
(
(23.531 -2.54919 -10.006)
(100.096 -9.50074 -7.24183)
(23.4917 -0.0178034 -10.8229)
(74.7011 3.32614 -18.2592)
(-1.65806 0.396348 -5.86769)
(63.6208 1.54796 -45.8927)
(-69.399 -0.157441 -88.8905)
(-34.2557 4.70724 -69.8877)
(-116.989 -3.9912 -116.361)
(3.65581 -1.12557 -0.361172)
(104.357 -31.1472 6.25922)
(1.76461 28.952 -6.94891)
(102.971 34.5753 -4.36346)
(8.5648 17.2954 -6.61532)
(103.024 23.4994 -18.3547)
(5.8282 44.8769 -24.6644)
(99.0313 21.1941 -23.4857)
(1.26384 86.5344 -52.9727)
(-5.03125 -0.747301 -1.04348)
(20.6622 -0.774124 -3.74768)
(-130.861 4.58132 -29.3057)
(66.9181 -1.71366 -3.70508)
(-20.8733 4.14102 -15.486)
(97.0629 0.463982 -33.898)
(12.1059 13.2371 -21.7397)
(126.435 -14.2828 -19.6476)
(22.3302 130.638 -62.5302)
(85.0817 26.5036 8.9847)
(148.606 32.8227 10.4664)
(106.584 -2.08184 8.69404)
(160.896 -19.3016 12.7331)
(92.65 -10.6442 3.09122)
(173.977 -10.0898 5.34868)
(89.9284 22.6526 -14.96)
(249.415 -4.86277 0.0892698)
(75.5311 99.0141 -107.535)
)
;
    }
}


// ************************************************************************* //
