/*--------------------------------*- C++ -*----------------------------------*\
| =========                 |                                                 |
| \\      /  F ield         | OpenFOAM: The Open Source CFD Toolbox           |
|  \\    /   O peration     | Version:  4.x                                   |
|   \\  /    A nd           | Web:      www.OpenFOAM.org                      |
|    \\/     M anipulation  |                                                 |
\*---------------------------------------------------------------------------*/
FoamFile
{
    version     2.0;
    format      ascii;
    class       volScalarField;
    location    "3";
    object      p_rgh;
}
// * * * * * * * * * * * * * * * * * * * * * * * * * * * * * * * * * * * * * //

dimensions      [1 -1 -2 0 0 0 0];

internalField   nonuniform List<scalar> 
108
(
-13.1355
56.1987
-4.87243
85.0943
-8.29034
124.5
111.268
392.051
-6.04491
-9.37216
60.943
-16.8133
75.1487
-27.1326
107.925
70.5812
238.05
-43.2883
-4.77021
62.9932
-17.917
71.861
-21.0293
125.5
62.3177
188.765
-63.9277
-0.960474
66.1852
-15.8366
76.4959
-13.231
135.859
52.8217
181.339
-112.644
-17.2979
53.0645
-14.3077
73.7355
-6.54972
126.354
119.444
343.427
35.2234
-8.88455
60.0902
-16.8756
72.078
-25.7895
105.943
71.5514
246.184
17.8068
-4.47246
61.8498
-15.2916
70.7342
-18.5448
124.18
65.5353
206.78
-11.465
-1.97365
64.73
-15.7138
75.956
-13.5835
131.451
52.4323
190.602
-9.33254
-12.4897
54.2317
-8.86422
77.8025
-0.783137
117.87
71.7436
222.295
-14.7916
-5.00182
60.4433
-13.4094
75.0921
-20.7221
111.613
51.708
208.579
3.71942
-2.15824
62.2473
-15.7959
73.4072
-14.7622
124.627
50.1606
176.246
-53.5077
-2.1044
64.6339
-14.6894
76.6516
-12.0165
127.098
37.53
164.02
-85.7558
)
;

boundaryField
{
    inlet
    {
        type            fixedFluxPressure;
        gradient        nonuniform 0();
        value           nonuniform 0();
    }
    outlet
    {
        type            fixedValue;
        value           uniform 0;
    }
    wall
    {
        type            fixedFluxPressure;
        gradient        nonuniform List<scalar> 
63
(
0.107183
0.118424
0.115655
-0.0104947
0.01598
0.0208941
0.00886887
-0.00736603
2.48691
0.110964
0.0920643
-0.00402567
0.0118879
0.00690272
0.00494285
0.00526016
-0.67863
-0.0308688
-0.0773739
-0.0174436
-0.0123395
-0.00425305
0.00199233
0.000734025
-0.162612
-0.0464942
-0.0264305
0.00680826
-0.00907559
-0.00716324
-0.011185
-0.00176033
-0.0221424
-0.0045596
-0.00466968
0.000792279
-0.00419306
-0.0107558
0.00679282
0.0106601
0.00350169
0.00290279
0.0663003
-0.00545288
-0.00782735
-0.00425876
-0.00496251
-0.00906879
0.00628719
-0.0204107
-0.021023
-0.00201812
-0.0047791
-0.00146017
0.00261449
-0.021507
-0.00505871
5.39284e-05
-0.00105827
-0.00116377
-0.00582022
-0.00892078
-0.00396524
)
;
        value           nonuniform List<scalar> 
63
(
-13.134
-9.37047
-4.76856
-0.960624
56.1989
60.9433
62.9933
66.1851
-4.83691
-16.8117
-17.9157
-15.8367
85.0945
75.1488
71.8611
76.4959
-8.30004
-27.1331
-21.0304
-13.2312
124.499
107.925
125.5
135.859
111.266
70.5805
62.3174
52.8218
392.051
238.05
188.765
181.339
-6.04522
-43.2883
-63.9278
-112.644
-0.960534
-1.9738
-2.1043
66.1853
64.73
64.6339
-15.8357
-15.7139
-14.6895
76.4958
75.9559
76.6515
-13.2309
-13.5838
-12.0168
135.859
131.451
127.098
52.8218
52.432
37.53
181.339
190.602
164.02
-112.644
-9.33266
-85.7558
)
;
    }
    procBoundary3to1
    {
        type            processor;
        value           nonuniform List<scalar> 
27
(
-35.6368
29.9814
-53.2549
45.458
-42.6719
98.8264
193.909
540.17
22.0808
-35.5762
28.2093
-46.9905
44.2832
-39.0962
103.413
211.081
658.601
43.5066
-28.5027
27.2625
-45.8246
53.2401
-25.2318
117.853
89.261
352.573
27.9762
)
;
    }
    procBoundary3to2
    {
        type            processor;
        value           nonuniform List<scalar> 
12
(
44.4427
55.1593
59.4348
64.6837
44.3492
55.0519
57.1673
62.189
45.9677
55.6815
58.3044
61.036
)
;
    }
    procBoundary3to7
    {
        type            processor;
        value           nonuniform List<scalar> 
36
(
-10.9529
54.2037
-15.2251
67.2007
-12.4877
105.787
32.015
158.517
-19.9828
-6.37296
58.8398
-19.1736
72.7662
-22.7181
105.2
14.5688
146.992
-61.466
3.22295
65.8293
-25.7635
72.8742
-18.2375
115.871
22.8741
139.476
-68.4776
-1.38222
63.5487
-17.429
75.7378
-16.2603
118.848
13.7544
142.173
-98.49
)
;
    }
}


// ************************************************************************* //
