/*--------------------------------*- C++ -*----------------------------------*\
| =========                 |                                                 |
| \\      /  F ield         | OpenFOAM: The Open Source CFD Toolbox           |
|  \\    /   O peration     | Version:  4.x                                   |
|   \\  /    A nd           | Web:      www.OpenFOAM.org                      |
|    \\/     M anipulation  |                                                 |
\*---------------------------------------------------------------------------*/
FoamFile
{
    version     2.0;
    format      ascii;
    class       volScalarField;
    location    "3";
    object      pSmooth;
}
// * * * * * * * * * * * * * * * * * * * * * * * * * * * * * * * * * * * * * //

dimensions      [1 -1 -2 0 0 0 0];

internalField   nonuniform List<scalar> 
108
(
134.464
176.182
71.1023
138.823
8.93133
103.151
0.633936
77.2895
0.1
129.575
179.265
66.0845
139.611
2.54518
107.702
0.640039
84.966
0.147097
127.997
178.005
63.5227
135.503
0.664096
99.1471
0.622425
77.2314
0.145508
130.73
180.684
67.1625
139.695
1.6583
108.268
0.605778
95.9629
0.113586
125.704
172.884
68.6518
137.989
9.90907
102.034
0.61853
76.8855
0.1
129.962
178.959
67.7213
139.483
5.89515
106.814
0.603641
82.3864
0.1
126.745
177.47
63.0632
133.805
1.437
101.09
0.590982
75.9236
0.101235
129.405
179.241
65.0587
139.13
3.51844
107.091
0.578403
83.0246
0.1
121.539
177.981
65.9359
137.52
8.65345
104.993
0.510971
82.8475
0.139267
126.196
178.261
64.9268
138.791
4.06785
107.389
0.533377
87.3248
0.1
122.562
175.836
59.7533
137.682
0.604111
100.388
0.537393
81.1079
0.123996
123.847
176.289
61.6935
138.054
0.635255
108.125
0.532088
91.4861
0.113639
)
;

boundaryField
{
    inlet
    {
        type            zeroGradient;
    }
    outlet
    {
        type            fixedValue;
        value           uniform 0;
    }
    wall
    {
        type            zeroGradient;
    }
    procBoundary3to1
    {
        type            processor;
        value           nonuniform List<scalar> 
27
(
128.782
178.657
69.1514
140.474
8.1153
107.268
0.430303
84.3088
0.13687
128.651
178.375
67.548
139.35
6.65445
106.051
0.501283
84.3381
0.135611
128.646
178.048
68.3281
139.589
5.62021
107.684
0.339586
86.7556
0.1
)
;
    }
    procBoundary3to2
    {
        type            processor;
        value           nonuniform List<scalar> 
12
(
223.732
221.43
222.204
223.485
225.715
220.412
220.905
221.44
218.033
220.116
218.874
219.559
)
;
    }
    procBoundary3to7
    {
        type            processor;
        value           nonuniform List<scalar> 
36
(
123.559
176.702
63.1357
135.046
8.27464
106.583
0.367038
81.2004
0.1
125.137
178.39
62.3734
137.51
3.55837
108.734
0.43388
87.5144
0.112731
126.138
181.933
49.2989
126.062
0.552564
102.622
0.466172
79.3088
0.119062
122.076
174.607
57.2363
136.129
0.584951
108.809
0.471213
97.4513
0.102542
)
;
    }
}


// ************************************************************************* //
