/*--------------------------------*- C++ -*----------------------------------*\
| =========                 |                                                 |
| \\      /  F ield         | OpenFOAM: The Open Source CFD Toolbox           |
|  \\    /   O peration     | Version:  4.x                                   |
|   \\  /    A nd           | Web:      www.OpenFOAM.org                      |
|    \\/     M anipulation  |                                                 |
\*---------------------------------------------------------------------------*/
FoamFile
{
    version     2.0;
    format      ascii;
    class       volScalarField;
    location    "3";
    object      Qsource;
}
// * * * * * * * * * * * * * * * * * * * * * * * * * * * * * * * * * * * * * //

dimensions      [1 -1 -3 0 0 0 0];

internalField   nonuniform List<scalar> 
108
(
5.75141e+09
4.07262e+09
5.18539e+09
3.51838e+09
3.5591e+09
3.96932e+09
4.57627e+09
4.76433e+09
3.90538e+09
5.06332e+09
8.84516e+09
4.69707e+09
5.91206e+09
5.34891e+09
5.7188e+09
5.91177e+09
6.59433e+09
5.07119e+09
5.94879e+09
7.23565e+09
4.3456e+09
5.47568e+09
5.59183e+09
6.30269e+09
6.29735e+09
8.10168e+09
5.25881e+09
5.20364e+09
5.89283e+09
5.65642e+09
8.72099e+09
5.69967e+09
8.61186e+09
5.23956e+09
8.83379e+09
7.58256e+09
6.90858e+09
6.97504e+09
8.68958e+09
9.25131e+09
7.20624e+09
6.93356e+09
6.16541e+09
7.35631e+09
7.80169e+09
6.56486e+09
7.58279e+09
7.76244e+09
8.30097e+09
6.82872e+09
7.61076e+09
8.97274e+09
8.46413e+09
6.38346e+09
1.19762e+10
9.72572e+09
8.65891e+09
1.07213e+10
7.46917e+09
9.63803e+09
7.81474e+09
9.41329e+09
7.76627e+09
8.98427e+09
8.30253e+09
7.64967e+09
9.11987e+09
9.65965e+09
8.68661e+09
7.89584e+09
8.9503e+09
5.71634e+09
8.12699e+09
1.01146e+10
8.21955e+09
1.03109e+10
6.20234e+09
7.40734e+09
9.01147e+09
8.43751e+09
7.93867e+09
9.45144e+09
6.09413e+09
7.42999e+09
5.03463e+09
4.24641e+09
9.64166e+09
8.15502e+09
1.17769e+10
6.12837e+09
6.15449e+09
1.12821e+10
8.89072e+09
7.31121e+09
6.38666e+09
1.03635e+10
8.57601e+09
1.04896e+10
5.95655e+09
9.19065e+09
6.34797e+09
6.88648e+09
8.57712e+09
7.61924e+09
1.06814e+10
8.08887e+09
1.22395e+10
1.04806e+10
)
;

boundaryField
{
    inlet
    {
        type            calculated;
        value           nonuniform 0();
    }
    outlet
    {
        type            calculated;
        value           uniform 0;
    }
    wall
    {
        type            calculated;
        value           uniform 0;
    }
    procBoundary3to1
    {
        type            processor;
        value           nonuniform List<scalar> 
27
(
3.28381e+09
6.47406e+09
3.21221e+09
8.41735e+09
4.84674e+09
5.44139e+09
4.04909e+09
5.63532e+09
3.47233e+09
7.77555e+09
7.65145e+09
5.60916e+09
6.67937e+09
5.04578e+09
8.22732e+09
8.1735e+09
1.22326e+10
4.09737e+09
7.83513e+09
7.64261e+09
5.21594e+09
1.08939e+10
8.42032e+09
1.03611e+10
7.43658e+09
9.98934e+09
3.63585e+09
)
;
    }
    procBoundary3to2
    {
        type            processor;
        value           nonuniform List<scalar> 
12
(
3.10217e+09
4.72751e+09
4.29307e+09
5.87623e+09
9.75512e+09
5.80156e+09
7.70922e+09
5.92051e+09
8.88992e+09
5.6577e+09
1.03927e+10
9.29736e+09
)
;
    }
    procBoundary3to7
    {
        type            processor;
        value           nonuniform List<scalar> 
36
(
1.07102e+10
9.51346e+09
6.81001e+09
7.5371e+09
1.03965e+10
1.1589e+10
9.59878e+09
7.73054e+09
9.56921e+09
7.17545e+09
1.14383e+10
7.37026e+09
7.96605e+09
8.5013e+09
7.16216e+09
8.58224e+09
8.6003e+09
9.10249e+09
5.74967e+09
7.92021e+09
6.84205e+09
8.33861e+09
7.79238e+09
1.11739e+10
9.68521e+09
1.05379e+10
1.03073e+10
6.6574e+09
9.70552e+09
1.06102e+10
7.71033e+09
9.68637e+09
1.04313e+10
1.08331e+10
1.10967e+10
6.84668e+09
)
;
    }
}


// ************************************************************************* //
