/*--------------------------------*- C++ -*----------------------------------*\
| =========                 |                                                 |
| \\      /  F ield         | OpenFOAM: The Open Source CFD Toolbox           |
|  \\    /   O peration     | Version:  4.x                                   |
|   \\  /    A nd           | Web:      www.OpenFOAM.org                      |
|    \\/     M anipulation  |                                                 |
\*---------------------------------------------------------------------------*/
FoamFile
{
    version     2.0;
    format      ascii;
    class       volScalarField;
    location    "3";
    object      QWallFluidCoeff;
}
// * * * * * * * * * * * * * * * * * * * * * * * * * * * * * * * * * * * * * //

dimensions      [1 -1 -3 -1 0 0 0];

internalField   nonuniform List<scalar> 
108
(
-630662
-3.0111e+06
-58674.5
-2.69221e+06
-55398.2
-2.56617e+06
-541552
-2.20286e+06
-1.48635e+06
-789576
-2.82976e+06
-796122
-3.0291e+06
-774280
-3.21823e+06
-1.11237e+06
-3.68293e+06
-1.97381e+06
-658512
-3.01641e+06
-563264
-3.25032e+06
-778002
-3.40881e+06
-1.0721e+06
-3.93873e+06
-2.65806e+06
-3.97725e+06
-7.14328e+06
-3.99932e+06
-7.59461e+06
-4.4177e+06
-8.70548e+06
-5.20934e+06
-1.1312e+07
-6.87691e+06
0
0
0
0
0
0
0
0
0
0
0
0
0
0
0
0
0
0
0
0
0
0
0
0
0
0
0
-2.15206e+06
-3.62874e+06
-2.18772e+06
-3.68633e+06
-1.91766e+06
-3.67214e+06
-1.65047e+06
-3.19824e+06
-1.7106e+06
0
0
0
0
0
0
0
0
0
0
0
0
0
0
0
0
0
0
0
0
0
0
0
0
0
0
0
-2.38414e+06
-3.65547e+06
-2.31666e+06
-3.82992e+06
-2.34143e+06
-4.24169e+06
-2.33719e+06
-5.13082e+06
-2.81329e+06
)
;

boundaryField
{
    inlet
    {
        type            calculated;
        value           nonuniform 0();
    }
    outlet
    {
        type            calculated;
        value           uniform 0;
    }
    wall
    {
        type            calculated;
        value           uniform 0;
    }
    procBoundary3to1
    {
        type            processor;
        value           uniform 0;
    }
    procBoundary3to2
    {
        type            processor;
        value           uniform 0;
    }
    procBoundary3to7
    {
        type            processor;
        value           uniform 0;
    }
}


// ************************************************************************* //
