/*--------------------------------*- C++ -*----------------------------------*\
| =========                 |                                                 |
| \\      /  F ield         | OpenFOAM: The Open Source CFD Toolbox           |
|  \\    /   O peration     | Version:  4.x                                   |
|   \\  /    A nd           | Web:      www.OpenFOAM.org                      |
|    \\/     M anipulation  |                                                 |
\*---------------------------------------------------------------------------*/
FoamFile
{
    version     2.0;
    format      ascii;
    class       volVectorField;
    location    "3";
    object      UsNext;
}
// * * * * * * * * * * * * * * * * * * * * * * * * * * * * * * * * * * * * * //

dimensions      [0 1 -1 0 0 0 0];

internalField   nonuniform List<vector> 
108
(
(-2.56392e-05 -8.82896e-07 -2.15249e-06)
(-2.57454e-05 -6.03339e-08 -2.2948e-06)
(-2.31535e-05 1.45004e-06 -2.87138e-06)
(-2.03064e-05 2.97201e-07 -1.55107e-06)
(-1.74765e-05 -7.33225e-08 7.47672e-07)
(-1.31477e-05 5.1018e-07 1.62189e-06)
(-1.14613e-05 1.28472e-07 3.19884e-06)
(-4.48624e-06 -1.11477e-07 1.06962e-06)
(-9.64828e-06 -1.106e-06 1.66093e-06)
(-2.26751e-05 -1.026e-06 -3.13079e-06)
(-2.29999e-05 -7.1969e-07 -2.71401e-06)
(-2.16301e-05 -5.32801e-07 -3.03873e-06)
(-1.69943e-05 -4.44517e-07 -1.02482e-06)
(-1.55932e-05 -1.42362e-06 8.61585e-07)
(-1.22028e-05 -3.93099e-07 7.18229e-07)
(-1.07064e-05 -1.15826e-06 2.18193e-06)
(-9.98728e-06 8.9211e-08 1.55453e-06)
(-1.30138e-05 -4.39503e-09 4.73696e-07)
(-1.89369e-05 -1.43198e-06 -2.39197e-06)
(-2.37903e-05 2.88126e-06 -1.22798e-06)
(-1.89894e-05 -7.00577e-08 -1.60894e-06)
(-1.40351e-05 -6.82432e-07 -7.80209e-07)
(-1.8834e-05 -4.96216e-09 2.10966e-06)
(-1.36884e-05 -7.16831e-07 -3.4937e-07)
(-1.16901e-05 -1.67362e-06 1.14414e-06)
(-1.25144e-05 -1.65741e-06 2.52267e-06)
(-6.60944e-06 -1.42563e-06 6.71871e-07)
(-9.33477e-06 -3.45185e-07 8.63956e-07)
(-1.33503e-05 1.83208e-06 1.26596e-06)
(-1.11693e-05 5.58833e-06 3.39317e-07)
(-8.71777e-06 -8.06923e-07 -9.96662e-07)
(-2.04342e-05 6.23268e-07 1.72924e-06)
(-1.39352e-05 -4.75277e-07 -1.72867e-07)
(-8.13411e-06 3.38977e-07 -8.82713e-07)
(-4.95117e-06 1.90835e-08 6.22922e-07)
(-6.41684e-06 -1.12037e-06 -1.5251e-07)
(-2.45146e-05 -2.32686e-07 -1.96397e-06)
(-2.37611e-05 3.18877e-07 -2.1796e-06)
(-2.2516e-05 1.35607e-07 -2.84438e-06)
(-2.0469e-05 5.84458e-07 -1.43428e-06)
(-1.6659e-05 5.90457e-07 1.18148e-07)
(-1.27766e-05 9.54647e-07 7.45915e-07)
(-1.01371e-05 -1.72604e-06 9.19494e-07)
(-1.11615e-05 -6.22183e-06 -1.65724e-07)
(-9.48199e-06 -2.78823e-06 1.27646e-06)
(-2.2023e-05 -9.38274e-07 -2.55498e-06)
(-2.20645e-05 -1.79388e-07 -2.72787e-06)
(-2.09615e-05 -4.13809e-07 -2.9311e-06)
(-1.87568e-05 -1.432e-07 -1.68094e-06)
(-1.54964e-05 -1.61569e-06 1.32991e-07)
(-1.2357e-05 -6.27526e-07 -1.219e-07)
(-1.10806e-05 -1.87917e-06 1.37361e-06)
(-9.93366e-06 -8.51284e-07 8.73266e-07)
(-6.90458e-06 -1.39724e-06 5.58146e-07)
(-1.85375e-05 -1.73917e-06 -2.74041e-06)
(-1.78375e-05 -6.16001e-07 -1.42441e-06)
(-1.71722e-05 -3.97134e-07 -2.07955e-06)
(-1.4721e-05 -9.26629e-07 -1.24895e-06)
(-1.34627e-05 -1.42183e-06 -8.16158e-07)
(-1.19625e-05 -7.19952e-07 -3.49155e-07)
(-1.14477e-05 -1.06181e-06 5.69551e-07)
(-1.04398e-05 -1.12813e-06 1.26882e-06)
(-6.77497e-06 -1.20592e-06 3.01456e-07)
(-1.12884e-05 -9.39677e-07 -1.39245e-06)
(-1.21335e-05 5.89804e-07 7.94757e-07)
(-9.49319e-06 -4.98357e-07 -2.88367e-07)
(-9.28525e-06 -8.73999e-07 -1.01391e-06)
(-8.31201e-06 -1.63571e-06 -1.22894e-06)
(-8.40422e-06 -8.73026e-07 -1.50378e-06)
(-7.61833e-06 -1.52224e-06 -1.53939e-06)
(-7.63176e-06 -1.76045e-07 -9.69036e-08)
(-4.97193e-06 -7.10759e-07 -1.49363e-07)
(-2.23909e-05 6.23111e-07 -1.7201e-06)
(-2.26426e-05 8.94785e-07 -1.75262e-06)
(-2.205e-05 1.19139e-06 -2.14986e-06)
(-1.98059e-05 1.21285e-06 -1.88334e-06)
(-1.65725e-05 1.05914e-06 -1.27817e-06)
(-1.2188e-05 1.40211e-06 -1.0332e-06)
(-7.75439e-06 2.74359e-07 -1.48605e-07)
(-9.69601e-06 -1.04463e-06 -1.86946e-06)
(-9.10668e-06 -1.24347e-06 -1.77276e-07)
(-2.10286e-05 1.0522e-07 -1.98478e-06)
(-2.09922e-05 2.70992e-07 -2.05046e-06)
(-2.04006e-05 1.26254e-07 -1.90457e-06)
(-1.78537e-05 6.73847e-07 -1.17088e-06)
(-1.51029e-05 -2.5813e-07 -7.29668e-07)
(-1.20553e-05 -5.00682e-07 -1.13651e-06)
(-1.00448e-05 -3.10668e-07 -6.41324e-07)
(-1.13396e-05 -8.97248e-07 -4.56511e-07)
(-5.78608e-06 9.96651e-08 3.93935e-07)
(-1.83373e-05 3.6265e-07 -1.27671e-06)
(-1.78149e-05 3.18964e-07 -9.97138e-07)
(-1.81768e-05 -2.80492e-07 -2.00718e-06)
(-1.56818e-05 -9.65498e-08 -4.74489e-07)
(-1.35601e-05 -1.20959e-06 -1.10828e-06)
(-1.17311e-05 -8.76014e-07 -1.50423e-06)
(-1.14863e-05 -6.70722e-07 -4.31883e-07)
(-1.14724e-05 -1.58409e-07 3.48169e-09)
(-6.52748e-06 -8.02238e-07 3.89924e-07)
(-1.33407e-05 6.59084e-07 -1.04832e-06)
(-1.27507e-05 4.85093e-07 9.55607e-07)
(-1.1445e-05 -7.57335e-07 -3.32091e-07)
(-1.05358e-05 -1.66278e-06 -4.25392e-07)
(-1.16603e-05 -2.12571e-06 -1.044e-06)
(-9.76657e-06 -3.11131e-07 -1.2077e-06)
(-7.6641e-06 -5.31995e-07 -7.62909e-07)
(-7.98221e-06 -3.29055e-07 -3.79929e-07)
(-5.20746e-06 -5.56778e-07 -5.62167e-08)
)
;

boundaryField
{
    inlet
    {
        type            calculated;
        value           nonuniform 0();
    }
    outlet
    {
        type            calculated;
        value           nonuniform List<vector> 
12
(
(-9.64828e-06 -1.106e-06 1.66093e-06)
(-1.30138e-05 -4.39503e-09 4.73696e-07)
(-6.60944e-06 -1.42563e-06 6.71871e-07)
(-6.41684e-06 -1.12037e-06 -1.5251e-07)
(-9.48199e-06 -2.78823e-06 1.27646e-06)
(-6.90458e-06 -1.39724e-06 5.58146e-07)
(-6.77497e-06 -1.20592e-06 3.01456e-07)
(-4.97193e-06 -7.10759e-07 -1.49363e-07)
(-9.10668e-06 -1.24347e-06 -1.77276e-07)
(-5.78608e-06 9.96651e-08 3.93935e-07)
(-6.52748e-06 -8.02238e-07 3.89924e-07)
(-5.20746e-06 -5.56778e-07 -5.62167e-08)
)
;
    }
    wall
    {
        type            calculated;
        value           nonuniform List<vector> 
63
(
(-2.56392e-05 -8.82896e-07 -2.15249e-06)
(-2.26751e-05 -1.026e-06 -3.13079e-06)
(-1.89369e-05 -1.43198e-06 -2.39197e-06)
(-9.33477e-06 -3.45185e-07 8.63956e-07)
(-2.57454e-05 -6.03339e-08 -2.2948e-06)
(-2.29999e-05 -7.1969e-07 -2.71401e-06)
(-2.37903e-05 2.88126e-06 -1.22798e-06)
(-1.33503e-05 1.83208e-06 1.26596e-06)
(-2.31535e-05 1.45004e-06 -2.87138e-06)
(-2.16301e-05 -5.32801e-07 -3.03873e-06)
(-1.89894e-05 -7.00577e-08 -1.60894e-06)
(-1.11693e-05 5.58833e-06 3.39317e-07)
(-2.03064e-05 2.97201e-07 -1.55107e-06)
(-1.69943e-05 -4.44517e-07 -1.02482e-06)
(-1.40351e-05 -6.82432e-07 -7.80209e-07)
(-8.71777e-06 -8.06923e-07 -9.96662e-07)
(-1.74765e-05 -7.33225e-08 7.47672e-07)
(-1.55932e-05 -1.42362e-06 8.61585e-07)
(-1.8834e-05 -4.96216e-09 2.10966e-06)
(-2.04342e-05 6.23268e-07 1.72924e-06)
(-1.31477e-05 5.1018e-07 1.62189e-06)
(-1.22028e-05 -3.93099e-07 7.18229e-07)
(-1.36884e-05 -7.16831e-07 -3.4937e-07)
(-1.39352e-05 -4.75277e-07 -1.72867e-07)
(-1.14613e-05 1.28472e-07 3.19884e-06)
(-1.07064e-05 -1.15826e-06 2.18193e-06)
(-1.16901e-05 -1.67362e-06 1.14414e-06)
(-8.13411e-06 3.38977e-07 -8.82713e-07)
(-4.48624e-06 -1.11477e-07 1.06962e-06)
(-9.98728e-06 8.9211e-08 1.55453e-06)
(-1.25144e-05 -1.65741e-06 2.52267e-06)
(-4.95117e-06 1.90835e-08 6.22922e-07)
(-9.64828e-06 -1.106e-06 1.66093e-06)
(-1.30138e-05 -4.39503e-09 4.73696e-07)
(-6.60944e-06 -1.42563e-06 6.71871e-07)
(-6.41684e-06 -1.12037e-06 -1.5251e-07)
(-9.33477e-06 -3.45185e-07 8.63956e-07)
(-1.12884e-05 -9.39677e-07 -1.39245e-06)
(-1.33407e-05 6.59084e-07 -1.04832e-06)
(-1.33503e-05 1.83208e-06 1.26596e-06)
(-1.21335e-05 5.89804e-07 7.94757e-07)
(-1.27507e-05 4.85093e-07 9.55607e-07)
(-1.11693e-05 5.58833e-06 3.39317e-07)
(-9.49319e-06 -4.98357e-07 -2.88367e-07)
(-1.1445e-05 -7.57335e-07 -3.32091e-07)
(-8.71777e-06 -8.06923e-07 -9.96662e-07)
(-9.28525e-06 -8.73999e-07 -1.01391e-06)
(-1.05358e-05 -1.66278e-06 -4.25392e-07)
(-2.04342e-05 6.23268e-07 1.72924e-06)
(-8.31201e-06 -1.63571e-06 -1.22894e-06)
(-1.16603e-05 -2.12571e-06 -1.044e-06)
(-1.39352e-05 -4.75277e-07 -1.72867e-07)
(-8.40422e-06 -8.73026e-07 -1.50378e-06)
(-9.76657e-06 -3.11131e-07 -1.2077e-06)
(-8.13411e-06 3.38977e-07 -8.82713e-07)
(-7.61833e-06 -1.52224e-06 -1.53939e-06)
(-7.6641e-06 -5.31995e-07 -7.62909e-07)
(-4.95117e-06 1.90835e-08 6.22922e-07)
(-7.63176e-06 -1.76045e-07 -9.69036e-08)
(-7.98221e-06 -3.29055e-07 -3.79929e-07)
(-6.41684e-06 -1.12037e-06 -1.5251e-07)
(-4.97193e-06 -7.10759e-07 -1.49363e-07)
(-5.20746e-06 -5.56778e-07 -5.62167e-08)
)
;
    }
    procBoundary3to1
    {
        type            processor;
        value           nonuniform List<vector> 
27
(
(-2.75676e-05 2.68038e-07 -1.36716e-06)
(-2.67809e-05 1.19267e-06 -2.45789e-06)
(-2.39668e-05 7.55515e-07 -2.6385e-06)
(-2.04927e-05 1.20808e-06 -1.34926e-06)
(-1.71994e-05 8.48162e-07 5.05961e-07)
(-1.1373e-05 5.3862e-06 3.12464e-06)
(-6.88302e-06 3.60589e-06 5.7406e-06)
(-5.91547e-06 5.32161e-07 5.15573e-06)
(-9.15659e-06 5.28851e-07 3.06535e-06)
(-2.43162e-05 1.36008e-06 -1.24476e-06)
(-2.50455e-05 1.5651e-06 -1.83436e-06)
(-2.38297e-05 6.57915e-07 -2.3063e-06)
(-2.09333e-05 1.93112e-06 -1.65751e-06)
(-1.64825e-05 1.95175e-06 -3.26788e-08)
(-1.03718e-05 3.71563e-06 8.43646e-07)
(-3.06555e-06 3.85943e-06 1.46343e-06)
(-8.47461e-06 -7.341e-06 -3.05299e-06)
(-1.68854e-05 -8.70164e-08 -6.56573e-07)
(-2.32345e-05 1.72817e-06 -1.38812e-06)
(-2.35225e-05 1.68228e-06 -1.42552e-06)
(-2.23428e-05 1.9461e-06 -1.65539e-06)
(-2.07314e-05 2.72932e-06 -1.32729e-06)
(-1.69388e-05 3.28851e-06 -1.0809e-06)
(-1.13165e-05 5.43148e-06 -1.23408e-06)
(-4.18443e-06 2.26167e-06 -4.24358e-06)
(-8.02518e-06 2.68828e-06 -7.98966e-06)
(-1.27982e-05 -8.64161e-07 -5.60112e-06)
)
;
    }
    procBoundary3to2
    {
        type            processor;
        value           nonuniform List<vector> 
12
(
(-2.45873e-05 -2.64456e-08 -2.49592e-06)
(-2.30962e-05 -7.81415e-07 -2.63448e-06)
(-2.06438e-05 -9.57851e-07 -3.30583e-06)
(-1.19294e-05 3.29054e-06 -2.62059e-06)
(-2.32641e-05 5.26806e-07 -2.0656e-06)
(-2.20853e-05 -4.2788e-07 -2.0559e-06)
(-1.84262e-05 -1.15475e-06 -2.51968e-06)
(-8.56057e-06 -3.63469e-07 -1.70028e-06)
(-2.18961e-05 3.8375e-07 -1.51268e-06)
(-2.00135e-05 -4.34313e-07 -1.49356e-06)
(-1.67573e-05 -1.24156e-06 -1.66483e-06)
(-1.06094e-05 -1.15389e-06 -1.46198e-06)
)
;
    }
    procBoundary3to7
    {
        type            processor;
        value           nonuniform List<vector> 
36
(
(-2.10768e-05 6.48394e-07 -1.44025e-06)
(-2.11998e-05 7.93897e-07 -1.61238e-06)
(-2.062e-05 6.85677e-07 -1.87768e-06)
(-1.89314e-05 7.6056e-07 -1.80992e-06)
(-1.62481e-05 1.4253e-06 -1.33308e-06)
(-1.15351e-05 2.44367e-06 -8.31874e-07)
(-9.37103e-06 1.88905e-06 -2.23128e-06)
(-9.11325e-06 1.82104e-06 -2.7121e-06)
(-5.67128e-06 6.17017e-07 -1.30993e-06)
(-1.92595e-05 4.02554e-07 -1.40667e-06)
(-2.00881e-05 4.24015e-07 -1.72985e-06)
(-1.92154e-05 2.4113e-07 -1.70713e-06)
(-1.7976e-05 3.47378e-07 -1.6286e-06)
(-1.45709e-05 3.89744e-07 -1.20336e-06)
(-1.17642e-05 8.55205e-07 -1.47967e-06)
(-9.73248e-06 8.49209e-07 -1.30469e-06)
(-9.41248e-06 -5.79589e-07 -1.36002e-06)
(-5.71652e-06 4.0023e-07 -1.74954e-07)
(-1.72436e-05 -7.08592e-07 -6.05038e-07)
(-1.78381e-05 3.19509e-08 -6.40784e-07)
(-1.76094e-05 -1.43468e-07 -9.24123e-07)
(-1.61312e-05 -4.93415e-07 -7.92733e-07)
(-1.37354e-05 -6.86694e-07 -9.16085e-07)
(-1.15657e-05 -5.41991e-07 -1.79349e-06)
(-1.16874e-05 -3.4214e-07 -1.839e-06)
(-1.16525e-05 -1.36615e-06 -4.90853e-07)
(-7.62201e-06 -9.21198e-07 4.97995e-08)
(-1.57687e-05 9.08388e-07 8.01896e-07)
(-1.44318e-05 -1.69143e-07 7.31724e-07)
(-1.19753e-05 -8.47058e-07 5.05145e-07)
(-1.18447e-05 -2.14092e-06 5.94257e-07)
(-1.07796e-05 -1.24585e-07 1.19044e-07)
(-1.07988e-05 -9.81541e-07 -1.58898e-06)
(-8.61354e-06 -6.25276e-07 -8.67258e-07)
(-8.92989e-06 -9.05237e-07 -8.48912e-07)
(-5.69587e-06 -5.58709e-07 -1.07856e-07)
)
;
    }
}


// ************************************************************************* //
