/*--------------------------------*- C++ -*----------------------------------*\
| =========                 |                                                 |
| \\      /  F ield         | OpenFOAM: The Open Source CFD Toolbox           |
|  \\    /   O peration     | Version:  4.x                                   |
|   \\  /    A nd           | Web:      www.OpenFOAM.org                      |
|    \\/     M anipulation  |                                                 |
\*---------------------------------------------------------------------------*/
FoamFile
{
    version     2.0;
    format      ascii;
    class       volScalarField;
    location    "8";
    object      KslNext;
}
// * * * * * * * * * * * * * * * * * * * * * * * * * * * * * * * * * * * * * //

dimensions      [1 -3 -1 0 0 0 0];

internalField   nonuniform List<scalar> 
87
(
3762.21
19247.7
3833.53
3267.87
5695.53
3098.79
3620.02
10747.4
3923.24
19390
4047.33
35458.3
4062.7
56649.7
4056
3532.35
9801.04
3790.58
14706.1
3949.77
23399.5
4026.89
34469.2
4061.63
3416.39
7296.79
3433.21
6984.81
3454.13
6893.24
3415.93
6421.76
3325.95
3578.7
9440.28
3801.44
12904.5
3853.92
16718.5
3894.56
20197
3877.94
3472.64
8754.28
3667.99
10955.4
3763.28
13893.4
3867.09
18029.3
3926.26
3397.55
6906.22
3343.23
6378.05
3302.22
5947.48
3238.34
5537.27
3134.42
3469.23
7443.8
3530.32
7658.46
3511.5
7678.97
3518.27
7873.99
3480.17
3407.36
7065.88
3415.2
6754.25
3380.35
6327.21
3339.04
5951.29
3267.69
3352.98
6588.54
3271.64
5977.51
3176.85
5547.37
3138.77
5177.13
3065.47
)
;

boundaryField
{
    inlet
    {
        type            zeroGradient;
    }
    outlet
    {
        type            zeroGradient;
    }
    wall
    {
        type            zeroGradient;
    }
    procBoundary6to0
    {
        type            processor;
        value           uniform 0;
    }
    procBoundary6to2
    {
        type            processor;
        value           uniform 0;
    }
    procBoundary6to4
    {
        type            processor;
        value           uniform 0;
    }
    procBoundary6to7
    {
        type            processor;
        value           uniform 0;
    }
}


// ************************************************************************* //
