/*--------------------------------*- C++ -*----------------------------------*\
| =========                 |                                                 |
| \\      /  F ield         | OpenFOAM: The Open Source CFD Toolbox           |
|  \\    /   O peration     | Version:  4.x                                   |
|   \\  /    A nd           | Web:      www.OpenFOAM.org                      |
|    \\/     M anipulation  |                                                 |
\*---------------------------------------------------------------------------*/
FoamFile
{
    version     2.0;
    format      ascii;
    class       volScalarField;
    location    "8";
    object      rho;
}
// * * * * * * * * * * * * * * * * * * * * * * * * * * * * * * * * * * * * * //

dimensions      [1 -3 0 0 0 0 0];

internalField   nonuniform List<scalar> 
87
(
6698.84
6697.94
6698.44
6698.02
6697.46
6696.91
6699.99
6699.93
6699.74
6699.35
6698.88
6698.56
6698.58
6699.01
6699.73
6699.99
6699.94
6699.79
6699.48
6699.06
6698.7
6698.54
6698.75
6699.25
6699.99
6699.96
6699.85
6699.66
6699.35
6698.99
6698.59
6698.22
6697.89
6699.99
6699.95
6699.81
6699.52
6699.13
6698.8
6698.69
6698.88
6699.31
6699.99
6699.95
6699.83
6699.58
6699.23
6698.9
6698.73
6698.88
6699.34
6699.99
6699.96
6699.87
6699.71
6699.47
6699.19
6698.9
6698.64
6698.43
6699.99
6699.96
6699.85
6699.65
6699.37
6699.05
6698.75
6698.51
6698.36
6699.99
6699.96
6699.86
6699.69
6699.43
6699.14
6698.86
6698.64
6698.48
6699.99
6699.96
6699.87
6699.71
6699.48
6699.2
6698.91
6698.66
6698.45
)
;

boundaryField
{
    inlet
    {
        type            calculated;
        value           uniform 6700;
    }
    outlet
    {
        type            calculated;
        value           nonuniform 0();
    }
    wall
    {
        type            calculated;
        value           nonuniform List<scalar> 
57
(
6699.99
6699.99
6699.99
6699.96
6699.96
6699.96
6699.85
6699.86
6699.87
6699.65
6699.69
6699.71
6699.37
6699.43
6699.48
6699.05
6699.14
6699.2
6698.75
6698.86
6698.91
6698.51
6698.64
6698.66
6698.36
6698.48
6698.45
6699.99
6699.99
6699.99
6699.96
6699.96
6699.96
6699.85
6699.87
6699.87
6699.66
6699.71
6699.71
6699.35
6699.47
6699.48
6698.99
6699.19
6699.2
6698.02
6698.59
6698.9
6698.91
6697.46
6698.22
6698.64
6698.66
6696.91
6697.89
6698.43
6698.45
)
;
    }
    procBoundary6to0
    {
        type            processor;
        value           uniform 6698.35;
    }
    procBoundary6to2
    {
        type            processor;
        value           nonuniform List<scalar> 
32
(
6697.67
6696.43
6697.06
6696.61
6695.73
6694.99
6699.99
6699.93
6699.73
6699.32
6698.76
6698.3
6698.06
6698.29
6698.29
6698.29
6699.99
6699.93
6699.75
6699.35
6698.78
6698.23
6697.83
6697.83
6697.83
6699.99
6699.94
6699.81
6699.55
6699.14
6698.64
6698.64
)
;
    }
    procBoundary6to4
    {
        type            processor;
        value           nonuniform List<scalar> 
27
(
6699.99
6699.94
6699.75
6699.35
6698.84
6698.44
6698.33
6698.65
6699.29
6699.99
6699.95
6699.81
6699.54
6699.15
6698.78
6698.57
6698.65
6699.05
6699.99
6699.96
6699.84
6699.64
6699.35
6699.03
6698.74
6698.54
6698.44
)
;
    }
    procBoundary6to7
    {
        type            processor;
        value           nonuniform List<scalar> 
12
(
6699.63
6699.29
6696.62
6700.62
6699.95
6697.73
6699.89
6700.03
6698.31
6698.33
6698.37
6698.3
)
;
    }
}


// ************************************************************************* //
