/*--------------------------------*- C++ -*----------------------------------*\
| =========                 |                                                 |
| \\      /  F ield         | OpenFOAM: The Open Source CFD Toolbox           |
|  \\    /   O peration     | Version:  4.x                                   |
|   \\  /    A nd           | Web:      www.OpenFOAM.org                      |
|    \\/     M anipulation  |                                                 |
\*---------------------------------------------------------------------------*/
FoamFile
{
    version     2.0;
    format      ascii;
    class       volScalarField;
    location    "34";
    object      Deff;
}
// * * * * * * * * * * * * * * * * * * * * * * * * * * * * * * * * * * * * * //

dimensions      [0 2 -1 0 0 0 0];

internalField   nonuniform List<scalar> 
132
(
9.95192e-08
9.95221e-08
9.95629e-08
9.9546e-08
9.94548e-08
9.93625e-08
9.93325e-08
9.94309e-08
9.95472e-08
9.95268e-08
9.94408e-08
9.94109e-08
9.93443e-08
9.93675e-08
9.921e-08
9.92364e-08
9.92251e-08
9.92763e-08
9.96126e-08
9.93767e-08
9.93255e-08
9.9244e-08
9.92252e-08
9.92036e-08
9.92001e-08
9.91377e-08
9.89987e-08
9.95305e-08
9.93657e-08
9.93266e-08
9.9343e-08
9.91044e-08
9.89566e-08
9.89452e-08
9.89112e-08
9.88751e-08
9.89077e-08
9.88986e-08
9.89352e-08
9.92081e-08
9.89849e-08
9.896e-08
9.88711e-08
9.88088e-08
9.87733e-08
9.8738e-08
9.87141e-08
9.87583e-08
9.91045e-08
9.89161e-08
9.88858e-08
9.88187e-08
9.86977e-08
9.87057e-08
9.85945e-08
9.87005e-08
9.87071e-08
9.89608e-08
9.894e-08
9.88701e-08
9.87986e-08
9.85565e-08
9.90205e-08
9.88389e-08
9.8696e-08
9.86624e-08
9.86255e-08
9.86507e-08
9.85558e-08
9.85516e-08
9.86266e-08
9.88904e-08
9.87401e-08
9.86643e-08
9.86004e-08
9.85007e-08
9.85207e-08
9.84016e-08
9.83425e-08
9.83778e-08
9.87564e-08
9.87008e-08
9.85748e-08
9.84185e-08
9.83439e-08
9.83319e-08
9.83032e-08
9.83813e-08
9.84066e-08
9.86944e-08
9.86143e-08
9.84804e-08
9.83509e-08
9.82777e-08
9.82495e-08
9.82184e-08
9.89474e-08
9.87731e-08
9.8602e-08
9.85492e-08
9.84594e-08
9.8376e-08
9.8438e-08
9.84666e-08
9.83759e-08
9.8781e-08
9.85527e-08
9.84376e-08
9.8383e-08
9.83543e-08
9.83009e-08
9.81938e-08
9.82494e-08
9.82275e-08
9.87557e-08
9.85924e-08
9.83594e-08
9.82912e-08
9.8196e-08
9.81101e-08
9.81407e-08
9.82179e-08
9.81151e-08
9.86754e-08
9.85033e-08
9.82524e-08
9.81327e-08
9.82157e-08
9.80167e-08
9.80562e-08
9.818e-08
9.82369e-08
)
;

boundaryField
{
    inlet
    {
        type            calculated;
        value           uniform 0;
    }
    outlet
    {
        type            calculated;
        value           nonuniform 0();
    }
    wall
    {
        type            calculated;
        value           uniform 0;
    }
    procBoundary0to1
    {
        type            processor;
        value           uniform 0;
    }
    procBoundary0to2
    {
        type            processor;
        value           uniform 0;
    }
    procBoundary0to4
    {
        type            processor;
        value           uniform 0;
    }
    procBoundary0to6
    {
        type            processor;
        value           uniform 0;
    }
    procBoundary0to7
    {
        type            processor;
        value           uniform 0;
    }
}


// ************************************************************************* //
