/*--------------------------------*- C++ -*----------------------------------*\
| =========                 |                                                 |
| \\      /  F ield         | OpenFOAM: The Open Source CFD Toolbox           |
|  \\    /   O peration     | Version:  4.x                                   |
|   \\  /    A nd           | Web:      www.OpenFOAM.org                      |
|    \\/     M anipulation  |                                                 |
\*---------------------------------------------------------------------------*/
FoamFile
{
    version     2.0;
    format      ascii;
    class       volVectorField;
    location    "34";
    object      GField;
}
// * * * * * * * * * * * * * * * * * * * * * * * * * * * * * * * * * * * * * //

dimensions      [1 -2 -1 0 0 0 0];

internalField   nonuniform List<vector> 
132
(
(100.327 -1.60953 -4.31171)
(48.8192 -1.06585 -3.04291)
(110.637 -1.96044 -5.03866)
(65.2599 -0.828977 -2.98675)
(120.03 -1.43115 -4.31998)
(77.3846 -0.480019 -2.63731)
(127.715 -1.01906 -3.80199)
(86.515 -0.296673 -2.97894)
(136.066 -0.494308 -3.60678)
(100.697 -2.94756 -4.90901)
(46.0197 -2.09488 -2.92168)
(107.91 -3.66307 -5.28045)
(58.3846 -1.81171 -3.0635)
(115.329 -2.92395 -4.83255)
(67.9248 -1.2009 -2.63099)
(121.297 -2.509 -4.17744)
(75.0444 -1.80573 -2.51852)
(126.835 -2.34141 -3.50315)
(101.362 -2.16205 -5.48166)
(44.4456 -1.30904 -2.85679)
(106.447 -2.53955 -5.65987)
(54.6062 -1.42125 -3.00277)
(111.654 -1.83893 -5.24793)
(62.2314 -0.685829 -2.82394)
(116.465 -1.45962 -4.61118)
(66.8413 -0.44382 -2.00339)
(118.763 -1.17731 -3.53431)
(100.979 -1.45613 -5.58821)
(44.4582 -0.447083 -2.74856)
(106.63 -0.933497 -5.56937)
(99.0845 -2.14539 -6.90284)
(42.1676 -0.958977 -3.91628)
(102.741 -2.19112 -6.84436)
(48.7957 -0.941235 -3.23054)
(106.613 -1.93583 -4.86475)
(53.9487 -0.540271 -2.29361)
(110.222 -1.44612 -3.56178)
(57.2843 -0.0254449 -1.77776)
(113.43 -0.625201 -2.14157)
(98.6737 -3.86925 -7.81539)
(37.3688 -1.7461 -3.75693)
(99.7577 -4.14017 -7.54816)
(38.4744 -1.54545 -3.07947)
(100.27 -3.63197 -5.65397)
(37.5976 -1.02289 -2.00382)
(101.145 -3.09441 -4.20079)
(35.5945 -0.584262 -1.30311)
(102.392 -2.35626 -2.28727)
(97.8941 -2.65944 -8.3515)
(34.2194 -0.930947 -3.52386)
(97.7508 -2.63926 -8.20352)
(31.7684 -0.812 -2.78135)
(96.7297 -2.10978 -5.88167)
(27.1251 -0.281246 -1.49683)
(95.9776 -1.11031 -3.42272)
(20.7272 0.246645 -0.469823)
(96.4873 -0.565771 -1.47202)
(96.8435 -0.719585 -9.01033)
(34.6117 -0.355126 -4.15814)
(97.118 -0.692469 -9.04951)
(31.8051 -0.121914 -3.11774)
(95.8186 -0.0700796 -6.70167)
(97.3698 -2.56124 -5.9608)
(40.6462 -1.19775 -3.61904)
(99.7929 -2.74016 -6.21308)
(45.2099 -1.17571 -3.61089)
(102.927 -2.51383 -5.12813)
(49.2693 -0.856875 -3.51787)
(106.106 -2.03263 -4.1793)
(51.6819 -0.522866 -3.99313)
(109.692 -1.04572 -3.93496)
(96.6978 -4.36704 -6.70524)
(35.0083 -1.93106 -3.57542)
(96.3261 -4.97003 -6.6653)
(32.7575 -1.69492 -2.84292)
(95.8719 -4.01431 -4.84023)
(29.4796 -0.879494 -2.5154)
(96.1357 -2.58992 -3.93861)
(25.3901 -0.54025 -2.38927)
(97.5632 -1.63466 -3.25578)
(95.6733 -3.39634 -6.90259)
(31.203 -1.53355 -3.61092)
(93.5539 -3.84273 -7.28652)
(22.4952 -0.981102 -2.49995)
(91.6056 -2.67613 -5.12497)
(14.9809 -0.477604 -1.76047)
(91.4284 -1.33403 -2.76956)
(10.6109 -0.414068 -1.6593)
(92.3204 -0.969173 -0.226014)
(95.1389 -0.605469 -7.10943)
(29.1388 -0.268055 -3.78097)
(91.9747 -0.507374 -7.38983)
(18.4741 -0.257024 -2.17628)
(89.8273 -0.496069 -4.58644)
(10.2729 -0.374006 -1.46591)
(89.2629 -0.850638 -2.65375)
(97.0263 -2.96772 -4.29916)
(40.4429 -1.43205 -2.77978)
(98.8482 -2.9139 -4.49408)
(43.7156 -1.10345 -2.71239)
(100.428 -2.14903 -3.55957)
(45.0914 -0.928772 -2.56028)
(101.628 -1.94931 -2.86267)
(45.1507 -0.466045 -2.7236)
(102.097 -1.06765 -2.06805)
(95.8845 -4.8578 -4.82162)
(32.9782 -2.35254 -2.53533)
(93.7516 -5.44148 -4.81178)
(27.5649 -1.89471 -1.92769)
(92.3949 -4.36544 -3.17928)
(22.3564 -1.54218 -1.38541)
(91.0416 -2.7261 -2.14117)
(15.609 -1.29868 -1.2086)
(90.1548 -0.243224 -1.95538)
(95.1074 -3.14226 -4.98391)
(29.4371 -1.58188 -2.49509)
(90.5045 -3.55465 -4.39083)
(17.1032 -0.959283 -1.33398)
(87.0862 -2.17815 -2.71846)
(6.21482 -0.401383 -0.550403)
(84.835 -0.257687 -2.10198)
(2.49457e-05 -6.49579e-06 1.2159e-05)
(82.5858 1.6036 -0.710701)
(94.7353 -0.670102 -4.45974)
(28.6473 -0.00896357 -2.50719)
(89.25 0.241913 -4.22879)
(15.1691 0.243752 -1.42535)
(86.3119 0.760348 -3.04716)
(5.40921 0.134718 -0.630254)
(84.6492 0.246604 -1.93524)
(0.11123 0.00430309 -0.0158815)
(84.1322 -0.314271 -0.140062)
)
;

boundaryField
{
    inlet
    {
        type            calculated;
        value           uniform (67 0 0);
    }
    outlet
    {
        type            calculated;
        value           nonuniform 0();
    }
    wall
    {
        type            calculated;
        value           uniform (0 0 0);
    }
    procBoundary0to1
    {
        type            processor;
        value           nonuniform List<vector> 
12
(
(92.9666 0.992287 -2.81184)
(79.456 -0.878141 -2.51778)
(67.7472 -0.0247021 -2.46413)
(58.6432 0.814304 -0.739858)
(33.4431 -0.498928 -0.583515)
(12.5026 0.395344 -0.445787)
(52.4114 0.390314 -4.68821)
(23.1947 -0.820515 -2.98452)
(7.46678 -0.609548 -1.61612)
(40.7371 -0.416326 -1.65482)
(7.22447 -0.94385 -0.610061)
(1.67188e-05 -7.04787e-06 1.96071e-05)
)
;
    }
    procBoundary0to2
    {
        type            processor;
        value           nonuniform List<vector> 
44
(
(54.6153 -0.497606 -2.83998)
(111.306 -0.723162 -5.27797)
(62.7875 -0.533675 -2.56159)
(116.22 -0.713927 -3.9344)
(67.6492 0.00282602 -1.53054)
(120.682 -0.182788 -2.57009)
(99.1519 0.475057 -4.57275)
(42.021 0.286988 -2.67427)
(54.6153 -0.497606 -2.83998)
(103.793 0.944792 -5.33993)
(54.6153 -0.497606 -2.83998)
(111.306 -0.723162 -5.27797)
(26.3678 -0.0505002 -1.9919)
(95.3437 0.149961 -4.12439)
(21.8378 0.214683 -1.5063)
(96.8925 0.884368 -2.10355)
(97.4173 1.26992 -7.54026)
(34.3377 0.323702 -3.51007)
(96.5827 1.36929 -7.77648)
(30.075 0.743879 -2.73394)
(26.3678 -0.0505002 -1.9919)
(95.5083 1.70911 -5.75324)
(26.3678 -0.0505002 -1.9919)
(95.3437 0.149961 -4.12439)
(5.89804 -0.259892 -1.16893)
(89.0797 -0.998043 -0.501468)
(95.5826 1.84671 -6.85875)
(32.359 0.573305 -3.41318)
(93.3359 1.61565 -6.42307)
(24.5995 0.413099 -2.27109)
(91.7432 1.04992 -4.4198)
(17.5077 -0.000206082 -1.61809)
(5.89804 -0.259892 -1.16893)
(90.9624 -0.454479 -2.69545)
(5.89804 -0.259892 -1.16893)
(89.0797 -0.998043 -0.501468)
(94.6642 2.10149 -5.76467)
(29.2213 1.22098 -2.39114)
(90.3527 2.91219 -4.87609)
(19.3834 1.02739 -1.72062)
(88.1537 2.34274 -3.26182)
(11.9648 0.903014 -1.01739)
(86.7628 1.3758 -1.48253)
(6.01527 0.660465 -0.761773)
)
;
    }
    procBoundary0to4
    {
        type            processor;
        value           nonuniform List<vector> 
36
(
(96.3127 -3.1774 -1.90401)
(40.7676 -1.51748 -1.22361)
(97.6269 -3.39647 -1.90386)
(43.4297 -1.42654 -1.38664)
(99.4263 -2.61543 -1.08711)
(45.2375 -0.882865 -1.05567)
(101.009 -1.89076 -1.00692)
(45.6118 -0.849442 -1.10553)
(102.779 -1.73818 0.0781801)
(94.5967 -5.04183 -1.45374)
(33.1046 -2.28326 -0.743581)
(92.3424 -5.15315 -1.13992)
(25.7636 -1.64539 -0.730509)
(91.0103 -3.76087 -0.510823)
(20.5989 -1.11254 -0.423092)
(91.2109 -2.78201 -0.128669)
(15.6324 -1.03124 -0.333014)
(91.522 -1.59205 0.868124)
(94.391 -3.0562 -1.5708)
(29.6277 -1.71627 -0.734088)
(89.9526 -3.36676 -0.972919)
(18.862 -1.24013 -0.275998)
(88.0274 -2.8334 -0.104918)
(11.1957 -0.936278 0.0707767)
(87.7533 -1.52687 -0.362272)
(3.99606 -0.391955 0.125019)
(88.2153 0.499474 -1.03617)
(94.3954 -1.4699 -1.63713)
(29.4305 -0.231512 -0.45231)
(88.8161 -1.06567 -0.673548)
(17.2279 -0.450852 -0.292788)
(85.8091 -0.982494 -0.0977434)
(6.94706 -0.241029 0.124208)
(84.4169 -0.0499611 -0.0939687)
(0.151947 -0.00874173 0.00834892)
(84.7275 0.0984579 -0.387588)
)
;
    }
    procBoundary0to6
    {
        type            processor;
        value           uniform (85.5784 0.458058 0.0855133);
    }
    procBoundary0to7
    {
        type            processor;
        value           uniform (1.45927e-05 -6.12859e-06 1.5616e-05);
    }
}


// ************************************************************************* //
