/*--------------------------------*- C++ -*----------------------------------*\
| =========                 |                                                 |
| \\      /  F ield         | OpenFOAM: The Open Source CFD Toolbox           |
|  \\    /   O peration     | Version:  4.x                                   |
|   \\  /    A nd           | Web:      www.OpenFOAM.org                      |
|    \\/     M anipulation  |                                                 |
\*---------------------------------------------------------------------------*/
FoamFile
{
    version     2.0;
    format      ascii;
    class       volScalarField;
    location    "34";
    object      p;
}
// * * * * * * * * * * * * * * * * * * * * * * * * * * * * * * * * * * * * * //

dimensions      [1 -1 -2 0 0 0 0];

internalField   nonuniform List<scalar> 
132
(
5742.64
5726.47
5737.27
5705.9
5727.35
5689.2
5721.2
5670.91
5714.69
5742.72
5726.09
5736.08
5707.39
5728.13
5689.32
5721.42
5670.88
5714.83
5742.8
5726
5735.97
5707.93
5728.68
5689.56
5721.76
5671.23
5715.11
5742.81
5725.88
5736.03
3865.32
3848.56
3858.6
3829.77
3850.6
3811.67
3843.88
3793.35
3837.23
3865.6
3848.49
3858.69
3830.15
3851.14
3811.75
3844.18
3793.22
3837.4
3865.83
3848.53
3858.91
3830.45
3851.66
3812.01
3844.59
3793.41
3837.8
3865.88
3848.39
3858.97
3830.49
3851.79
1987.74
1970.51
1980.66
1952.36
1973.15
1933.96
1966.03
1915.32
1959.18
1988.18
1970.68
1981.1
1952.56
1973.65
1934.05
1966.43
1915.3
1959.38
1988.53
1970.84
1981.51
1952.79
1974.03
1934.18
1966.61
1915.48
1959.56
1988.77
1970.99
1981.77
1952.94
1974.29
1934.41
1966.78
110.339
93.068
103.323
75.1326
96.0372
56.8668
88.785
38.5836
81.95
110.911
93.3379
103.818
75.2733
96.4257
57.0262
89.1594
38.5754
82.1642
111.337
93.7018
104.344
75.7346
96.908
57.5851
89.3047
39.5893
81.9173
111.526
93.8181
104.481
75.8112
96.8852
57.7989
89.22
39.6856
81.8269
)
;

boundaryField
{
    inlet
    {
        type            calculated;
        value           nonuniform List<scalar> 
16
(
5742.64
5742.72
5742.8
5742.81
3865.32
3865.6
3865.83
3865.88
1987.74
1988.18
1988.53
1988.77
110.339
110.911
111.337
111.526
)
;
    }
    outlet
    {
        type            calculated;
        value           nonuniform 0();
    }
    wall
    {
        type            calculated;
        value           nonuniform List<scalar> 
66
(
6681.59
6681.68
6681.75
6681.76
6665.43
6665.04
6664.96
6664.83
6676.23
6675.04
6674.93
6674.98
6644.86
6646.35
6646.88
6666.3
6667.08
6667.64
6628.16
6628.28
6628.52
6660.16
6660.38
6660.71
6609.87
6609.84
6610.18
6653.65
6653.78
6654.07
5742.64
3865.32
1987.74
110.339
5726.47
3848.56
1970.51
93.068
5737.27
3858.6
1980.66
103.323
5705.9
3829.77
1952.36
75.1326
5727.35
3850.6
1973.15
96.0372
5689.2
3811.67
1933.96
56.8668
5721.2
3843.88
1966.03
88.785
5670.91
3793.35
1915.32
38.5836
5714.69
3837.23
1959.18
81.95
)
;
    }
    procBoundary0to1
    {
        type            processor;
        value           nonuniform List<scalar> 
12
(
5652.31
5652.15
5652.5
3774.76
3774.43
3774.98
1896.58
1896.32
1897.04
20.2746
20.3509
22.0342
)
;
    }
    procBoundary0to2
    {
        type            processor;
        value           nonuniform List<scalar> 
44
(
5708.03
5728.82
5689.6
5721.82
5670.93
5715.11
5742.75
5725.78
5708.03
5736
5708.03
5728.82
3811.91
3844.52
3793.02
3837.61
3865.75
3848.42
3858.94
3830.49
3811.91
3851.79
3811.91
3844.52
1915.8
1959.63
1988.53
1970.81
1981.56
1952.98
1974.2
1934.73
1915.8
1966.86
1915.8
1959.63
111.404
93.5885
104.246
75.5217
96.7756
57.3359
89.3079
39.1513
)
;
    }
    procBoundary0to4
    {
        type            processor;
        value           nonuniform List<scalar> 
36
(
-1767.44
-1784.86
-1774.55
-1802.79
-1781.96
-1821.08
-1789.29
-1839.67
-1796.38
-1766.8
-1784.56
-1773.94
-1802.56
-1781.5
-1821
-1788.93
-1839.53
-1796.06
-1766.33
-1784.25
-1773.57
-1802.24
-1781.22
-1820.56
-1788.72
-1838.92
-1796.08
-1766.14
-1783.95
-1773.31
-1801.85
-1780.92
-1820.01
-1788.62
-1838.29
-1796.16
)
;
    }
    procBoundary0to6
    {
        type            processor;
        value           uniform 82.0149;
    }
    procBoundary0to7
    {
        type            processor;
        value           uniform 22.2637;
    }
}


// ************************************************************************* //
