/*--------------------------------*- C++ -*----------------------------------*\
| =========                 |                                                 |
| \\      /  F ield         | OpenFOAM: The Open Source CFD Toolbox           |
|  \\    /   O peration     | Version:  4.x                                   |
|   \\  /    A nd           | Web:      www.OpenFOAM.org                      |
|    \\/     M anipulation  |                                                 |
\*---------------------------------------------------------------------------*/
FoamFile
{
    version     2.0;
    format      ascii;
    class       volScalarField;
    location    "34";
    object      QPartFluid;
}
// * * * * * * * * * * * * * * * * * * * * * * * * * * * * * * * * * * * * * //

dimensions      [1 -1 -3 0 0 0 0];

internalField   nonuniform List<scalar> 
132
(
5.18507e+09
4.25706e+09
3.70103e+09
2.96489e+09
4.32133e+09
4.48802e+09
5.88275e+09
3.93949e+09
2.01917e+09
4.65106e+09
5.10238e+09
5.52822e+09
5.59841e+09
3.84564e+09
6.72298e+09
5.32316e+09
5.79919e+09
5.25326e+09
3.11756e+09
5.87648e+09
5.75117e+09
5.07189e+09
5.57514e+09
4.90308e+09
3.99124e+09
5.19095e+09
8.5333e+09
2.98054e+09
4.53209e+09
3.50904e+09
4.26834e+09
6.97526e+09
8.63889e+09
7.57616e+09
7.74864e+09
7.60192e+09
7.12679e+09
6.77782e+09
7.26395e+09
4.98348e+09
9.46138e+09
8.0214e+09
8.51139e+09
9.61563e+09
8.6302e+09
9.2127e+09
9.23453e+09
8.99388e+09
5.30185e+09
9.45697e+09
8.4132e+09
7.53937e+09
9.08116e+09
6.78165e+09
1.05376e+10
6.94046e+09
6.36125e+09
7.96729e+09
7.03527e+09
7.79889e+09
5.50824e+09
1.13252e+10
5.58735e+09
6.96742e+09
8.14034e+09
6.96413e+09
7.49215e+09
5.66996e+09
8.05655e+09
7.05577e+09
5.41235e+09
6.24978e+09
8.28025e+09
7.99256e+09
6.91456e+09
9.28214e+09
6.71833e+09
9.44451e+09
1.01388e+10
1.01361e+10
6.7089e+09
7.20112e+09
8.09062e+09
9.28498e+09
9.83442e+09
8.03413e+09
9.20891e+09
6.38585e+09
5.37933e+09
6.90731e+09
8.64759e+09
9.55985e+09
8.92327e+09
9.93538e+09
7.96449e+09
8.70447e+09
4.35375e+09
4.99e+09
6.7701e+09
5.19022e+09
7.08897e+09
7.7861e+09
5.90964e+09
4.34671e+09
6.0507e+09
5.13654e+09
9.60034e+09
9.09723e+09
8.09532e+09
7.20852e+09
6.66462e+09
1.04449e+10
7.23865e+09
6.93044e+09
5.18601e+09
5.5897e+09
9.04039e+09
6.11685e+09
8.68291e+09
8.4161e+09
8.21661e+09
4.90035e+09
9.32308e+09
4.82302e+09
6.70927e+09
9.79089e+09
1.01479e+10
5.45511e+09
9.63668e+09
8.4453e+09
5.37264e+09
2.5852e+09
)
;

boundaryField
{
    inlet
    {
        type            calculated;
        value           uniform 0;
    }
    outlet
    {
        type            calculated;
        value           nonuniform 0();
    }
    wall
    {
        type            calculated;
        value           uniform 0;
    }
    procBoundary0to1
    {
        type            processor;
        value           nonuniform List<scalar> 
12
(
4.3016e+09
4.53956e+09
3.95047e+09
7.42986e+09
9.04314e+09
7.96895e+09
7.10325e+09
6.44604e+09
9.42614e+09
6.51207e+09
7.8721e+09
5.85888e+09
)
;
    }
    procBoundary0to2
    {
        type            processor;
        value           nonuniform List<scalar> 
44
(
7.13268e+09
5.59193e+09
3.0571e+09
5.97255e+09
3.63895e+09
4.60166e+09
5.81621e+09
6.93375e+09
7.13268e+09
6.13702e+09
7.13268e+09
5.59193e+09
9.84076e+09
1.22843e+10
6.59633e+09
1.12275e+10
4.73278e+09
7.94389e+09
9.60318e+09
9.20382e+09
9.84076e+09
8.91034e+09
9.84076e+09
1.22843e+10
7.87922e+09
9.20021e+09
6.86407e+09
5.74891e+09
6.75867e+09
6.9034e+09
6.78871e+09
7.78817e+09
7.87922e+09
9.86881e+09
7.87922e+09
9.20021e+09
4.89796e+09
9.48373e+09
1.02993e+10
7.16828e+09
8.23656e+09
6.27715e+09
7.57173e+09
7.53876e+09
)
;
    }
    procBoundary0to4
    {
        type            processor;
        value           nonuniform List<scalar> 
36
(
4.92618e+09
7.10615e+09
8.42874e+09
5.97776e+09
7.15994e+09
5.98934e+09
8.94777e+09
6.8724e+09
9.65328e+09
7.01977e+09
7.29292e+09
9.39169e+09
1.00369e+10
1.0121e+10
8.5825e+09
8.14456e+09
5.75157e+09
1.11196e+10
6.69003e+09
1.02735e+10
8.31769e+09
9.34738e+09
8.1185e+09
6.28976e+09
7.30162e+09
1.02815e+10
6.74488e+09
3.45641e+09
6.72551e+09
9.38916e+09
5.69134e+09
8.77427e+09
6.63773e+09
1.0991e+10
5.97187e+09
7.04823e+09
)
;
    }
    procBoundary0to6
    {
        type            processor;
        value           uniform 8.07082e+09;
    }
    procBoundary0to7
    {
        type            processor;
        value           uniform 9.95578e+09;
    }
}


// ************************************************************************* //
