/*--------------------------------*- C++ -*----------------------------------*\
| =========                 |                                                 |
| \\      /  F ield         | OpenFOAM: The Open Source CFD Toolbox           |
|  \\    /   O peration     | Version:  4.x                                   |
|   \\  /    A nd           | Web:      www.OpenFOAM.org                      |
|    \\/     M anipulation  |                                                 |
\*---------------------------------------------------------------------------*/
FoamFile
{
    version     2.0;
    format      ascii;
    class       volScalarField;
    location    "34";
    object      QWallFluidCoeff;
}
// * * * * * * * * * * * * * * * * * * * * * * * * * * * * * * * * * * * * * //

dimensions      [1 -1 -3 -1 0 0 0];

internalField   nonuniform List<scalar> 
132
(
-5.70462e+06
-3.2089e+06
-6.16969e+06
-4.04423e+06
-6.58276e+06
-4.63297e+06
-6.9165e+06
-5.06534e+06
-7.2753e+06
-2.86201e+06
-1.53147e+06
-3.02525e+06
-1.85089e+06
-3.18908e+06
-2.08754e+06
-3.31939e+06
-2.26073e+06
-3.43939e+06
0
-1.48877e+06
-2.99221e+06
-1.75442e+06
-3.10762e+06
-1.94663e+06
-3.21331e+06
-2.06014e+06
-3.26297e+06
-2.86845e+06
-1.48847e+06
-2.99561e+06
-2.82764e+06
-1.42975e+06
-2.91032e+06
-1.60408e+06
-2.99478e+06
-1.73625e+06
-3.07413e+06
-1.82093e+06
-3.14447e+06
0
0
0
0
0
0
0
0
0
0
0
0
0
0
0
0
0
0
0
0
0
0
0
-2.78745e+06
-1.38815e+06
-2.84302e+06
-1.51045e+06
-2.91244e+06
-1.61694e+06
-2.98278e+06
-1.68043e+06
-3.06251e+06
0
0
0
0
0
0
0
0
0
0
0
0
0
0
0
0
0
0
0
0
0
0
0
0
0
-2.77787e+06
-1.38104e+06
-2.81956e+06
-1.46887e+06
-2.85417e+06
-1.50524e+06
-2.88079e+06
-1.50688e+06
-2.89067e+06
0
0
0
0
0
0
0
0
0
0
0
0
0
0
0
0
0
0
0
0
0
0
0
0
0
0
0
)
;

boundaryField
{
    inlet
    {
        type            calculated;
        value           uniform 0;
    }
    outlet
    {
        type            calculated;
        value           nonuniform 0();
    }
    wall
    {
        type            calculated;
        value           uniform 0;
    }
    procBoundary0to1
    {
        type            processor;
        value           uniform 0;
    }
    procBoundary0to2
    {
        type            processor;
        value           uniform 0;
    }
    procBoundary0to4
    {
        type            processor;
        value           uniform 0;
    }
    procBoundary0to6
    {
        type            processor;
        value           uniform 0;
    }
    procBoundary0to7
    {
        type            processor;
        value           uniform 0;
    }
}


// ************************************************************************* //
