/*--------------------------------*- C++ -*----------------------------------*\
| =========                 |                                                 |
| \\      /  F ield         | OpenFOAM: The Open Source CFD Toolbox           |
|  \\    /   O peration     | Version:  4.x                                   |
|   \\  /    A nd           | Web:      www.OpenFOAM.org                      |
|    \\/     M anipulation  |                                                 |
\*---------------------------------------------------------------------------*/
FoamFile
{
    version     2.0;
    format      ascii;
    class       volVectorField;
    location    "34";
    object      UsNext;
}
// * * * * * * * * * * * * * * * * * * * * * * * * * * * * * * * * * * * * * //

dimensions      [0 1 -1 0 0 0 0];

internalField   nonuniform List<vector> 
132
(
(-3.5143e-10 1.26828e-10 1.78292e-10)
(-6.34104e-10 5.02338e-10 6.89856e-10)
(4.65418e-09 1.73632e-10 1.68934e-09)
(6.96961e-10 -4.48122e-10 -3.51435e-11)
(-2.44903e-09 1.06217e-11 9.92179e-10)
(-3.25981e-09 -1.55128e-10 1.64275e-09)
(-3.13333e-09 2.40601e-10 2.04357e-09)
(-4.73854e-09 -1.50663e-10 9.825e-10)
(-6.29492e-09 2.79705e-10 1.19029e-09)
(-1.78922e-10 7.32327e-11 8.42992e-11)
(-9.39693e-10 9.0717e-10 8.04146e-10)
(7.57067e-10 5.8972e-10 5.54403e-10)
(-6.93436e-10 -1.32842e-09 9.82056e-10)
(-1.92081e-09 -1.58452e-09 2.03542e-09)
(-4.0281e-09 -1.0698e-09 2.87197e-09)
(-4.43504e-09 -5.80552e-10 4.1602e-09)
(-6.36145e-09 4.56703e-12 4.95651e-09)
(-7.73028e-09 -3.66779e-09 6.93578e-09)
(-3.9416e-10 4.56033e-10 3.9552e-10)
(-6.16608e-10 3.7394e-10 9.50854e-10)
(-2.72074e-10 1.226e-10 1.42664e-09)
(-9.80335e-10 -1.11664e-09 1.86079e-09)
(-1.44343e-09 -2.02095e-09 2.34865e-09)
(-4.25934e-09 -1.15857e-09 4.30593e-09)
(-4.79644e-09 -1.10235e-09 5.31302e-09)
(-7.07343e-09 -2.59523e-09 6.30977e-09)
(-7.6471e-09 -3.13555e-09 5.62397e-09)
(3.68926e-10 1.48766e-10 5.6745e-10)
(-2.73541e-10 -1.80585e-11 9.91294e-10)
(-2.19941e-10 -3.91088e-10 1.26347e-09)
(5.6148e-11 5.57728e-11 6.91386e-10)
(-4.85032e-10 2.05163e-10 1.48732e-09)
(9.41726e-10 6.1484e-11 1.89023e-09)
(5.19794e-10 -3.4142e-10 -2.62421e-10)
(-1.39651e-09 -4.78377e-10 8.5441e-10)
(-2.39156e-09 -9.22108e-10 1.90341e-09)
(-3.13465e-09 -5.20867e-10 2.03071e-09)
(-4.77883e-09 -4.67145e-10 1.09855e-09)
(-7.25149e-09 -3.47498e-09 5.32467e-09)
(9.74122e-11 1.51225e-10 6.58856e-10)
(-9.68567e-11 2.8641e-10 1.37342e-09)
(1.44911e-09 -3.11422e-10 2.12598e-09)
(-2.10193e-10 -6.71111e-10 1.2038e-09)
(-1.8561e-09 -1.36858e-09 2.22517e-09)
(-3.13776e-09 -1.37452e-09 3.00021e-09)
(-4.32967e-09 -1.01117e-09 4.0616e-09)
(-5.88931e-09 -1.037e-09 4.6826e-09)
(-8.71698e-09 -7.75776e-10 8.85417e-09)
(1.43028e-10 8.0613e-11 7.8229e-10)
(-1.63495e-10 1.16035e-10 1.37908e-09)
(1.64399e-10 -4.62522e-10 1.76585e-09)
(-3.00301e-10 -1.15841e-09 2.20417e-09)
(-1.6251e-09 -1.6701e-09 2.94038e-09)
(-3.58207e-09 -1.91274e-09 4.00562e-09)
(-4.63243e-09 -1.64516e-09 5.76162e-09)
(-5.44508e-09 -1.6886e-09 6.78181e-09)
(-6.24366e-09 -1.86244e-09 7.45164e-09)
(1.20532e-10 2.58903e-11 8.28975e-10)
(-1.19657e-10 -1.39637e-10 1.3046e-09)
(2.62171e-10 -4.60021e-10 1.70187e-09)
(-7.2785e-10 -1.42483e-09 2.69517e-09)
(-1.34628e-09 -1.68865e-09 3.27089e-09)
(9.84962e-11 -2.49101e-11 6.91378e-10)
(-2.05843e-10 5.04232e-11 1.14571e-09)
(4.9841e-10 -2.80115e-10 1.20576e-09)
(-3.37518e-10 -2.5264e-10 8.2064e-10)
(-4.98834e-10 -2.90243e-10 8.09238e-10)
(-1.43303e-09 -3.0562e-10 2.10458e-09)
(-1.99616e-09 -6.50911e-10 2.20383e-09)
(-2.52642e-09 -3.14441e-10 2.00542e-09)
(-5.29831e-09 -2.12857e-09 6.67087e-09)
(1.36314e-10 1.29421e-10 7.99204e-10)
(6.41465e-11 5.03269e-11 1.35441e-09)
(5.85046e-10 -3.78595e-10 1.70771e-09)
(-5.80651e-11 -4.41089e-10 1.66967e-09)
(-7.41116e-10 -8.39702e-10 2.1859e-09)
(-1.70118e-09 -1.03841e-09 3.24836e-09)
(-2.39045e-09 -1.25709e-09 3.80419e-09)
(-3.56572e-09 -1.59787e-09 4.28978e-09)
(-7.74548e-09 3.30252e-10 8.64237e-09)
(3.54589e-11 4.83428e-11 6.73793e-10)
(2.05814e-10 -1.45201e-10 1.29488e-09)
(5.88423e-10 -5.63286e-10 1.61334e-09)
(3.66214e-10 -8.00659e-10 1.90458e-09)
(-4.98789e-10 -1.49989e-09 2.65568e-09)
(-1.05281e-09 -1.17107e-09 4.0157e-09)
(-3.07069e-10 -1.39279e-09 4.97878e-09)
(-3.41381e-09 -1.37405e-09 5.95504e-09)
(-5.03562e-09 7.26919e-10 7.88635e-09)
(4.12982e-11 -1.71816e-10 6.03255e-10)
(2.03133e-10 -6.52151e-10 1.19051e-09)
(5.86121e-10 -1.13948e-09 1.39481e-09)
(7.8787e-11 -1.27029e-09 2.04309e-09)
(-9.08159e-10 -1.8524e-09 3.13975e-09)
(-2.25517e-09 -2.02108e-09 4.17989e-09)
(-2.05569e-09 -2.66387e-09 5.13603e-09)
(1.67564e-10 -9.2904e-11 4.70346e-10)
(-5.91676e-11 -1.0057e-10 7.72556e-10)
(4.63741e-10 -3.16036e-10 7.91499e-10)
(-1.72702e-10 -7.82637e-11 7.69778e-10)
(-2.86033e-10 -2.98949e-10 8.79302e-10)
(-1.16996e-09 -2.71173e-10 1.82382e-09)
(-1.50636e-09 -1.86877e-10 2.60148e-09)
(-3.31649e-09 -7.49745e-10 3.63609e-09)
(-3.79524e-09 -1.04395e-09 5.57267e-09)
(1.51688e-10 -7.76138e-11 5.3356e-10)
(6.69744e-12 -9.6958e-11 9.31728e-10)
(6.1158e-10 -3.5364e-10 1.23899e-09)
(-2.29725e-10 -3.73708e-10 1.66107e-09)
(-5.97723e-10 -5.19761e-10 2.02655e-09)
(-1.26117e-09 -3.42265e-10 2.72999e-09)
(-1.9317e-09 -3.26798e-10 3.63616e-09)
(-3.60915e-09 -1.08135e-09 4.21395e-09)
(-5.28435e-09 -3.09652e-10 5.60943e-09)
(1.35382e-10 -8.36953e-11 7.50184e-10)
(1.76936e-10 -2.33124e-10 1.00599e-09)
(9.31201e-10 -4.59821e-10 1.32858e-09)
(1.1458e-10 -4.77425e-10 1.92203e-09)
(-9.30269e-11 -1.23037e-09 2.42118e-09)
(-7.38986e-10 -7.80721e-10 3.2315e-09)
(-6.21197e-10 -1.06272e-09 4.23094e-09)
(-2.33406e-09 -1.30201e-09 5.02006e-09)
(-3.56334e-09 5.63621e-10 6.42142e-09)
(1.01109e-10 -1.44762e-10 4.83009e-10)
(-1.32213e-10 -4.13305e-10 7.97668e-10)
(6.54821e-10 -6.20341e-10 1.17401e-09)
(-7.23747e-10 -1.43976e-09 1.652e-09)
(-5.80598e-10 -1.75727e-09 2.20146e-09)
(-1.99489e-09 -1.66523e-09 3.62993e-09)
(-1.58943e-09 -1.97247e-09 4.62948e-09)
(-2.50854e-09 -1.81956e-09 4.68156e-09)
(-6.27299e-09 -2.01998e-09 6.55033e-09)
)
;

boundaryField
{
    inlet
    {
        type            calculated;
        value           nonuniform List<vector> 
16
(
(-3.5143e-10 1.26828e-10 1.78292e-10)
(-1.78922e-10 7.32327e-11 8.42992e-11)
(-3.9416e-10 4.56033e-10 3.9552e-10)
(3.68926e-10 1.48766e-10 5.6745e-10)
(5.6148e-11 5.57728e-11 6.91386e-10)
(9.74122e-11 1.51225e-10 6.58856e-10)
(1.43028e-10 8.0613e-11 7.8229e-10)
(1.20532e-10 2.58903e-11 8.28975e-10)
(9.84962e-11 -2.49101e-11 6.91378e-10)
(1.36314e-10 1.29421e-10 7.99204e-10)
(3.54589e-11 4.83428e-11 6.73793e-10)
(4.12982e-11 -1.71816e-10 6.03255e-10)
(1.67564e-10 -9.2904e-11 4.70346e-10)
(1.51688e-10 -7.76138e-11 5.3356e-10)
(1.35382e-10 -8.36953e-11 7.50184e-10)
(1.01109e-10 -1.44762e-10 4.83009e-10)
)
;
    }
    outlet
    {
        type            calculated;
        value           nonuniform 0();
    }
    wall
    {
        type            calculated;
        value           nonuniform List<vector> 
66
(
(-3.5143e-10 1.26828e-10 1.78292e-10)
(-1.78922e-10 7.32327e-11 8.42992e-11)
(-3.9416e-10 4.56033e-10 3.9552e-10)
(3.68926e-10 1.48766e-10 5.6745e-10)
(-6.34104e-10 5.02338e-10 6.89856e-10)
(-9.39693e-10 9.0717e-10 8.04146e-10)
(-6.16608e-10 3.7394e-10 9.50854e-10)
(-2.73541e-10 -1.80585e-11 9.91294e-10)
(4.65418e-09 1.73632e-10 1.68934e-09)
(7.57067e-10 5.8972e-10 5.54403e-10)
(-2.72074e-10 1.226e-10 1.42664e-09)
(-2.19941e-10 -3.91088e-10 1.26347e-09)
(6.96961e-10 -4.48122e-10 -3.51435e-11)
(-6.93436e-10 -1.32842e-09 9.82056e-10)
(-9.80335e-10 -1.11664e-09 1.86079e-09)
(-2.44903e-09 1.06217e-11 9.92179e-10)
(-1.92081e-09 -1.58452e-09 2.03542e-09)
(-1.44343e-09 -2.02095e-09 2.34865e-09)
(-3.25981e-09 -1.55128e-10 1.64275e-09)
(-4.0281e-09 -1.0698e-09 2.87197e-09)
(-4.25934e-09 -1.15857e-09 4.30593e-09)
(-3.13333e-09 2.40601e-10 2.04357e-09)
(-4.43504e-09 -5.80552e-10 4.1602e-09)
(-4.79644e-09 -1.10235e-09 5.31302e-09)
(-4.73854e-09 -1.50663e-10 9.825e-10)
(-6.36145e-09 4.56703e-12 4.95651e-09)
(-7.07343e-09 -2.59523e-09 6.30977e-09)
(-6.29492e-09 2.79705e-10 1.19029e-09)
(-7.73028e-09 -3.66779e-09 6.93578e-09)
(-7.6471e-09 -3.13555e-09 5.62397e-09)
(-3.5143e-10 1.26828e-10 1.78292e-10)
(5.6148e-11 5.57728e-11 6.91386e-10)
(9.84962e-11 -2.49101e-11 6.91378e-10)
(1.67564e-10 -9.2904e-11 4.70346e-10)
(-6.34104e-10 5.02338e-10 6.89856e-10)
(-4.85032e-10 2.05163e-10 1.48732e-09)
(-2.05843e-10 5.04232e-11 1.14571e-09)
(-5.91676e-11 -1.0057e-10 7.72556e-10)
(4.65418e-09 1.73632e-10 1.68934e-09)
(9.41726e-10 6.1484e-11 1.89023e-09)
(4.9841e-10 -2.80115e-10 1.20576e-09)
(4.63741e-10 -3.16036e-10 7.91499e-10)
(6.96961e-10 -4.48122e-10 -3.51435e-11)
(5.19794e-10 -3.4142e-10 -2.62421e-10)
(-3.37518e-10 -2.5264e-10 8.2064e-10)
(-1.72702e-10 -7.82637e-11 7.69778e-10)
(-2.44903e-09 1.06217e-11 9.92179e-10)
(-1.39651e-09 -4.78377e-10 8.5441e-10)
(-4.98834e-10 -2.90243e-10 8.09238e-10)
(-2.86033e-10 -2.98949e-10 8.79302e-10)
(-3.25981e-09 -1.55128e-10 1.64275e-09)
(-2.39156e-09 -9.22108e-10 1.90341e-09)
(-1.43303e-09 -3.0562e-10 2.10458e-09)
(-1.16996e-09 -2.71173e-10 1.82382e-09)
(-3.13333e-09 2.40601e-10 2.04357e-09)
(-3.13465e-09 -5.20867e-10 2.03071e-09)
(-1.99616e-09 -6.50911e-10 2.20383e-09)
(-1.50636e-09 -1.86877e-10 2.60148e-09)
(-4.73854e-09 -1.50663e-10 9.825e-10)
(-4.77883e-09 -4.67145e-10 1.09855e-09)
(-2.52642e-09 -3.14441e-10 2.00542e-09)
(-3.31649e-09 -7.49745e-10 3.63609e-09)
(-6.29492e-09 2.79705e-10 1.19029e-09)
(-7.25149e-09 -3.47498e-09 5.32467e-09)
(-5.29831e-09 -2.12857e-09 6.67087e-09)
(-3.79524e-09 -1.04395e-09 5.57267e-09)
)
;
    }
    procBoundary0to1
    {
        type            processor;
        value           nonuniform List<vector> 
12
(
(2.22987e-09 9.24288e-09 3.11807e-08)
(-9.45522e-09 -6.09918e-09 1.62116e-08)
(-1.28658e-08 -6.67124e-09 1.39245e-08)
(-1.47493e-08 6.07221e-09 2.17759e-08)
(-1.51659e-08 1.8638e-10 1.83095e-08)
(-1.11163e-08 -2.20303e-09 1.32997e-08)
(-6.30615e-09 -1.41172e-10 6.22409e-09)
(-7.8991e-09 -3.07462e-10 1.03759e-08)
(-5.52475e-09 -1.65416e-09 9.75152e-09)
(-4.08245e-09 -6.15133e-10 4.48044e-09)
(-6.77803e-09 -4.24103e-10 6.59366e-09)
(-4.20335e-09 -9.47658e-10 7.52914e-09)
)
;
    }
    procBoundary0to2
    {
        type            processor;
        value           nonuniform List<vector> 
44
(
(-1.14713e-09 -1.17049e-09 2.3104e-09)
(-1.41736e-09 -1.66066e-09 2.48673e-09)
(-4.51657e-09 -2.63046e-09 4.86715e-09)
(-5.49018e-09 -3.31121e-09 5.73178e-09)
(-7.5155e-09 -4.18701e-09 6.31851e-09)
(-8.74274e-09 -4.33892e-09 5.93305e-09)
(5.76131e-09 -2.11632e-09 2.2908e-11)
(-4.32287e-10 -2.40296e-10 9.11679e-10)
(-1.14713e-09 -1.17049e-09 2.3104e-09)
(-4.57312e-10 -6.56712e-10 1.5085e-09)
(-1.14713e-09 -1.17049e-09 2.3104e-09)
(-1.41736e-09 -1.66066e-09 2.48673e-09)
(-2.77654e-09 -2.48963e-09 4.96555e-09)
(-4.6379e-09 -3.19087e-09 6.18069e-09)
(-7.12116e-09 -3.42998e-09 6.6771e-09)
(-7.89792e-09 -3.72948e-09 6.79675e-09)
(-2.73676e-11 -8.08117e-11 3.98191e-10)
(-4.85465e-10 -2.19687e-10 1.02331e-09)
(-7.76907e-10 -5.17193e-10 1.57965e-09)
(-1.35279e-09 -1.10036e-09 2.22203e-09)
(-2.77654e-09 -2.48963e-09 4.96555e-09)
(-1.84858e-09 -1.37756e-09 2.89343e-09)
(-2.77654e-09 -2.48963e-09 4.96555e-09)
(-4.6379e-09 -3.19087e-09 6.18069e-09)
(-4.89198e-09 -2.50931e-09 6.32084e-09)
(-6.7893e-09 -3.22979e-09 7.3316e-09)
(-6.00287e-12 -3.39203e-10 3.94532e-10)
(-4.36615e-10 -2.96154e-10 9.181e-10)
(-6.20878e-10 -5.58284e-10 1.33068e-09)
(-1.41207e-09 -1.04557e-09 1.71344e-09)
(-1.82594e-09 -1.45296e-09 2.64049e-09)
(-3.70156e-09 -2.64834e-09 3.90553e-09)
(-4.89198e-09 -2.50931e-09 6.32084e-09)
(-4.5456e-09 -2.74971e-09 4.17015e-09)
(-4.89198e-09 -2.50931e-09 6.32084e-09)
(-6.7893e-09 -3.22979e-09 7.3316e-09)
(-8.47479e-11 -1.71425e-10 2.99641e-10)
(-4.87625e-10 -4.4505e-10 7.54737e-10)
(-5.87765e-10 -4.87681e-10 1.13243e-09)
(-1.38891e-09 -8.73991e-10 1.50233e-09)
(-2.18014e-09 -1.17304e-09 2.23206e-09)
(-3.12262e-09 -1.51101e-09 2.73794e-09)
(-3.91863e-09 -2.17185e-09 3.76047e-09)
(-5.02397e-09 -3.10107e-09 4.27753e-09)
)
;
    }
    procBoundary0to4
    {
        type            processor;
        value           nonuniform List<vector> 
36
(
(6.51204e-11 -3.36392e-11 2.77969e-10)
(-1.01549e-10 -5.8362e-11 3.88361e-10)
(4.93566e-10 -1.20467e-10 5.22847e-10)
(3.33448e-10 -6.80341e-11 7.92911e-10)
(4.62738e-10 -1.16587e-10 1.21164e-09)
(-2.22468e-10 -3.81745e-10 1.44185e-09)
(-3.42951e-10 -5.13317e-10 2.10628e-09)
(-1.10883e-09 -1.69676e-10 2.53907e-09)
(-1.01268e-09 -4.50232e-10 2.55282e-09)
(6.55912e-11 -6.53695e-11 4.34161e-10)
(1.5825e-10 -3.20166e-10 5.40059e-10)
(4.56031e-10 -2.54221e-10 9.4488e-10)
(4.0741e-10 -2.5754e-10 1.40375e-09)
(4.0301e-10 -1.99293e-10 1.93648e-09)
(-1.95626e-10 -5.41089e-10 2.0398e-09)
(-5.60012e-10 -8.52384e-10 3.10351e-09)
(-1.45005e-09 -6.07227e-10 3.64437e-09)
(-2.58664e-09 -9.38192e-10 4.43172e-09)
(8.60042e-11 -1.60598e-10 4.45267e-10)
(1.43645e-10 -2.62864e-10 7.79393e-10)
(4.89404e-10 -3.93074e-10 1.19428e-09)
(3.11863e-10 -5.11912e-10 1.70897e-09)
(4.24418e-10 -5.54799e-10 2.13572e-09)
(-2.67174e-10 -1.0802e-09 2.32485e-09)
(-2.11868e-10 -1.12355e-09 3.12654e-09)
(-1.08774e-09 -1.28496e-09 3.93991e-09)
(-8.82656e-10 -1.89215e-09 4.09037e-09)
(2.51317e-11 -1.76327e-10 3.88127e-10)
(-1.26058e-10 -4.90597e-10 7.59823e-10)
(-2.11137e-10 -6.5106e-10 1.34674e-09)
(-3.93607e-10 -9.3517e-10 1.51697e-09)
(-4.35596e-10 -1.31622e-09 2.15553e-09)
(-1.46209e-09 -1.56329e-09 2.60791e-09)
(-3.0685e-10 -1.64959e-09 3.23789e-09)
(-2.03973e-09 -2.71245e-09 3.99104e-09)
(-2.61736e-09 -2.10501e-09 4.00191e-09)
)
;
    }
    procBoundary0to6
    {
        type            processor;
        value           uniform (-5.30479e-09 -2.00656e-09 4.77645e-09);
    }
    procBoundary0to7
    {
        type            processor;
        value           uniform (-4.89771e-09 -2.79079e-09 6.872e-09);
    }
}


// ************************************************************************* //
