/*--------------------------------*- C++ -*----------------------------------*\
  =========                 |
  \\      /  F ield         | OpenFOAM: The Open Source CFD Toolbox
   \\    /   O peration     | Website:  https://openfoam.org
    \\  /    A nd           | Version:  4.x
     \\/     M anipulation  |
\*---------------------------------------------------------------------------*/
FoamFile
{
    version     2.0;
    format      ascii;
    class       Cloud<passiveParticle>;
    location    0;
    object      positions;
}
// * * * * * * * * * * * * * * * * * * * * * * * * * * * * * * * * * * * * * //

258
(
( 0.0238508 0.0373494 0.015408 ) 6
( 0.248321 0.0516132 -0.00685265 ) 2
( 0.0274343 0.0279916 0.0325168 ) 6
( 0.0325935 0.0721952 0.0175678 ) 25
( 0.24205 0.0712251 0.00036802 ) 2
( 0.196798 0.0712785 0.00282338 ) 1
( 0.22545 0.0399301 -0.0103993 ) 0
( 0.1059 0.0456047 0.0370221 ) 18
( 0.167509 0.0195783 0.0187482 ) 12
( 0.13127 0.034481 0.0152626 ) 10
( 0.0682598 0.067532 0.0308772 ) 17
( 0.218982 0.0674671 0.00879398 ) 1
( 0.0542927 0.034739 0.0266617 ) 7
( 0.139632 0.0400213 0.0351864 ) 11
( 0.0875331 0.0458992 0.0297849 ) 18
( 0.111035 0.0900225 0.0147684 ) 27
( 0.0346534 0.0152377 0.0196362 ) 7
( 0.0645527 0.0900816 0.0200354 ) 26
( 0.178975 0.0835067 0.0156445 ) 30
( 0.163766 0.0745256 0.0244862 ) 29
( 0.0484121 0.0728208 0.0304919 ) 25
( 0.240275 0.0901653 0.0189226 ) 32
( 0.229688 0.0220873 -0.00344999 ) 0
( 0.108621 0.0619739 0.0225064 ) 18
( 0.0962705 0.0291381 0.0242627 ) 9
( 0.189628 0.0509662 0.0147999 ) 21
( 0.132465 0.0148625 0.0178954 ) 10
( 0.214485 0.0717155 -0.00987115 ) 4
( 0.139579 0.0520631 0.0197457 ) 20
( 0.0153525 0.0178916 0.0172209 ) 6
( 0.117317 0.0783624 0.0295234 ) 28
( 0.131605 0.0202925 0.0366398 ) 10
( 0.203294 0.0368219 0.0171574 ) 13
( 0.213599 0.0533581 0.0213573 ) 22
( 0.00975534 0.0744872 0.0216491 ) 24
( 0.205948 0.051806 0.00322413 ) 1
( 0.0985291 0.0899646 0.0300117 ) 27
( 0.110375 0.0153381 0.0251503 ) 9
( 0.200754 0.0268559 0.0339808 ) 13
( 0.239135 0.0359201 0.0164172 ) 14
( 0.145813 0.073082 0.0167126 ) 29
( 0.0913564 0.0633038 0.0383158 ) 18
( 0.190947 0.0902224 0.00137983 ) 3
( 0.159416 0.0557242 0.0209313 ) 20
( 0.0195807 0.0901905 0.0281089 ) 24
( 0.215937 0.0868502 0.0211096 ) 31
( 0.231396 0.0529389 0.00299897 ) 2
( 0.224042 0.0278487 0.0261486 ) 14
( 0.130291 0.0900915 0.0197388 ) 28
( 0.173145 0.0901653 -0.00753912 ) 3
( 0.00980566 0.0193851 0.0360473 ) 6
( 0.231143 0.0491288 0.0302179 ) 23
( 0.196524 0.0901812 0.0218584 ) 31
( 0.0372371 0.0513284 0.0195976 ) 16
( 0.0681924 0.0502402 0.0210445 ) 17
( 0.0796623 0.0838148 0.0312374 ) 26
( 0.24013 0.016623 0.0122525 ) 0
( 0.195016 0.0703226 0.0223754 ) 22
( 0.149154 0.0902472 0.0258458 ) 29
( 0.150589 0.0258151 0.0271535 ) 11
( 0.208089 0.090232 -0.00847763 ) 4
( 0.242975 0.0903811 -0.00373903 ) 5
( 0.0919145 0.0724151 0.0206883 ) 27
( 0.0387268 0.0897059 0.0242753 ) 25
( 0.0185939 0.0568279 0.0224865 ) 15
( 0.227511 0.074873 0.0316745 ) 32
( 0.00988589 0.0380815 0.0292094 ) 6
( 0.224506 0.0900813 0.00351558 ) 5
( 0.23603 0.0640999 0.0181946 ) 23
( 0.127092 0.0670032 0.0175015 ) 19
( 0.197612 0.0504692 0.0327074 ) 22
( 0.184981 0.0289174 0.0172571 ) 12
( 0.0761561 0.0319775 0.0213949 ) 8
( 0.247796 0.0753706 0.0296624 ) 32
( 0.0515231 0.0535094 0.0329469 ) 16
( 0.166603 0.0381048 0.0255433 ) 11
( 0.0535404 0.0151315 0.0536951 ) 34
( 0.0882285 0.0318558 0.0573604 ) 36
( 0.167055 0.0675979 0.0423088 ) 21
( 0.11306 0.0418042 0.019077 ) 10
( 0.0489516 0.0320238 0.0627467 ) 34
( 0.208044 0.0547561 0.052094 ) 49
( 0.0289229 0.0595354 0.0546106 ) 43
( 0.124505 0.0558212 0.055229 ) 46
( 0.181353 0.0274283 0.0571738 ) 39
( 0.175518 0.0900132 0.0532087 ) 57
( 0.0313966 0.0403549 0.059182 ) 34
( 0.0712779 0.0596204 0.0589076 ) 44
( 0.1047 0.0219063 0.0623822 ) 36
( 0.107946 0.0804493 0.0593259 ) 54
( 0.105673 0.0594437 0.0601581 ) 45
( 0.0552554 0.0890406 0.0561002 ) 52
( 0.150224 0.0695957 0.0569389 ) 47
( 0.13194 0.039892 0.0639876 ) 37
( 0.0208387 0.0793697 0.0569341 ) 51
( 0.179576 0.0552337 0.0554261 ) 48
( 0.139518 0.0214731 0.0647845 ) 38
( 0.0701257 0.0399031 0.0587089 ) 35
( 0.134369 0.0900937 0.0589243 ) 55
( 0.238074 0.0470105 0.0496585 ) 50
( 0.00988114 0.0170461 0.0644282 ) 33
( 0.228677 0.0874585 0.0565029 ) 59
( 0.207362 0.0760526 0.0524543 ) 58
( 0.0839734 0.0891494 0.0658817 ) 54
( 0.14879 0.0490452 0.0575388 ) 47
( 0.158841 0.0901082 0.0674376 ) 56
( 0.00971852 0.063574 0.0595439 ) 42
( 0.0954411 0.0378812 0.0744061 ) 63
( 0.249217 0.0175623 0.0549437 ) 41
( 0.192237 0.065322 0.0445927 ) 48
( 0.0446585 0.0527119 0.0697223 ) 43
( 0.0842948 0.0736449 0.0535602 ) 54
( 0.225158 0.0609943 0.0449172 ) 50
( 0.112948 0.0906118 0.0436173 ) 55
( 0.196901 0.0514001 0.0680009 ) 49
( 0.129598 0.0724594 0.0458589 ) 55
( 0.166221 0.0903874 0.0357011 ) 29
( 0.0615004 0.0167534 0.0732791 ) 62
( 0.0381172 0.0831493 0.0468735 ) 52
( 0.229281 0.0180705 0.0603665 ) 41
( 0.199215 0.0202586 0.0523534 ) 40
( 0.211803 0.0351847 0.0549336 ) 40
( 0.164632 0.0372181 0.061272 ) 38
( 0.1059 0.026011 0.0412812 ) 9
( 0.0215606 0.0251597 0.0509777 ) 33
( 0.0135979 0.0394944 0.0679114 ) 33
( 0.166432 0.0246379 0.044512 ) 38
( 0.043884 0.0708461 0.0614494 ) 43
( 0.249478 0.0572959 0.0374534 ) 23
( 0.0569183 0.0665147 0.0471943 ) 44
( 0.110877 0.0641867 0.0419118 ) 18
( 0.00975468 0.0903028 0.0449863 ) 51
( 0.216726 0.0898075 0.0407492 ) 31
( 0.0940879 0.0902476 0.0491176 ) 54
( 0.248989 0.0459411 0.0689998 ) 50
( 0.170985 0.0719426 0.0607768 ) 57
( 0.0310878 0.0651429 0.0358816 ) 16
( 0.178737 0.0560354 0.0314238 ) 21
( 0.15195 0.0549237 0.0391027 ) 20
( 0.0737237 0.0901344 0.0489914 ) 53
( 0.0637286 0.0297117 0.043131 ) 35
( 0.0260303 0.0464187 0.0391766 ) 15
( 0.0431321 0.0320725 0.0438933 ) 34
( 0.12284 0.0336749 0.0479441 ) 37
( 0.14832 0.0306288 0.049973 ) 38
( 0.15157 0.0902389 0.0490091 ) 56
( 0.18251 0.0333031 0.0363291 ) 12
( 0.125827 0.0728911 0.0652871 ) 55
( 0.20932 0.0666625 0.0352482 ) 22
( 0.0886228 0.0514969 0.0540713 ) 45
( 0.196947 0.0900754 0.0417158 ) 31
( 0.106129 0.0403646 0.0559313 ) 36
( 0.116717 0.0472326 0.0742374 ) 73
( 0.24695 0.0787211 0.0562911 ) 59
( 0.0859572 0.0707546 0.0730912 ) 72
( 0.246224 0.0372633 0.0346576 ) 14
( 0.0123059 0.0605735 0.0405533 ) 15
( 0.215167 0.0641844 0.0725929 ) 76
( 0.228538 0.0304517 0.0452694 ) 41
( 0.121475 0.0251784 0.0721705 ) 64
( 0.0831323 0.0277151 0.039052 ) 8
( 0.193467 0.0707893 0.0657164 ) 48
( 0.134386 0.0903011 0.039022 ) 28
( 0.182014 0.0788598 0.0347036 ) 30
( 0.236426 0.0905707 0.0384544 ) 32
( 0.0275053 0.0631453 0.0738436 ) 69
( 0.180184 0.0153101 0.0734058 ) 66
( 0.0534011 0.0474504 0.0514688 ) 43
( 0.0537148 0.0904725 0.0367205 ) 25
( 0.063807 0.0502675 0.0743223 ) 71
( 0.0725153 0.0512229 0.0412579 ) 17
( 0.0490562 0.0166316 0.0330582 ) 7
( 0.241186 0.0174706 0.0370458 ) 14
( 0.034813 0.0902463 0.0651806 ) 52
( 0.214326 0.0411728 0.036732 ) 13
( 0.158092 0.0589883 0.0717677 ) 74
( 0.127477 0.0556401 0.0353527 ) 19
( 0.148872 0.0743234 0.0376707 ) 29
( 0.210084 0.0837933 0.0703509 ) 58
( 0.134814 0.0572027 0.0734394 ) 73
( 0.0105356 0.0900332 0.0702569 ) 51
( 0.00967494 0.0408284 0.0487142 ) 33
( 0.027442 0.0229684 0.0734093 ) 60
( 0.193725 0.0900701 0.0611757 ) 57
( 0.238264 0.07441 0.0760831 ) 86
( 0.143179 0.079093 0.0728619 ) 83
( 0.100876 0.0205619 0.0816355 ) 63
( 0.168269 0.0444605 0.0436786 ) 48
( 0.148944 0.0366396 0.0726941 ) 65
( 0.0660081 0.0744959 0.0704608 ) 53
( 0.101869 0.0900201 0.075942 ) 81
( 0.2117 0.0360667 0.0741719 ) 67
( 0.0864822 0.0310608 0.0905546 ) 63
( 0.193339 0.0417215 0.0506409 ) 39
( 0.17507 0.0488581 0.0730564 ) 75
( 0.0727425 0.0192027 0.0572143 ) 35
( 0.00953122 0.0562631 0.0774656 ) 69
( 0.165815 0.0755668 0.0789768 ) 83
( 0.18866 0.034507 0.0740667 ) 66
( 0.0930427 0.0551968 0.0830189 ) 72
( 0.244378 0.0429156 0.090315 ) 77
( 0.12161 0.0901497 0.0740376 ) 82
( 0.0771654 0.0291478 0.0735891 ) 62
( 0.0426778 0.0732157 0.0810322 ) 79
( 0.0510344 0.0371125 0.081449 ) 61
( 0.109136 0.0703029 0.0756867 ) 72
( 0.22911 0.0402658 0.0658481 ) 41
( 0.0226407 0.0734086 0.090144 ) 78
( 0.169658 0.0309542 0.0794993 ) 66
( 0.0296855 0.0433656 0.0787564 ) 70
( 0.1104 0.0369887 0.0901087 ) 63
( 0.201933 0.057833 0.0861004 ) 76
( 0.235816 0.0628036 0.0608968 ) 50
( 0.0765107 0.0738877 0.0901965 ) 80
( 0.164982 0.0149703 0.0903528 ) 65
( 0.198314 0.0771682 0.0846252 ) 85
( 0.00973959 0.0260359 0.0818207 ) 60
( 0.227583 0.0905301 0.0760217 ) 86
( 0.183194 0.0647912 0.0815364 ) 75
( 0.147835 0.0528412 0.087758 ) 74
( 0.233922 0.0546756 0.0785545 ) 77
( 0.051684 0.0903161 0.0751632 ) 79
( 0.130595 0.0671953 0.0901278 ) 73
( 0.0602747 0.0611945 0.0902423 ) 71
( 0.233266 0.0280013 0.0808303 ) 68
( 0.0711423 0.0904651 0.0804992 ) 80
( 0.140576 0.0900595 0.0901032 ) 83
( 0.0100375 0.0900248 0.0901331 ) 78
( 0.135388 0.0289849 0.0858643 ) 64
( 0.201311 0.0204012 0.0799026 ) 67
( 0.180623 0.0438399 0.0906855 ) 75
( 0.177897 0.0902342 0.0728874 ) 84
( 0.201313 0.0386401 0.0904714 ) 67
( 0.0746166 0.047033 0.0903459 ) 71
( 0.14983 0.0724684 0.090266 ) 83
( 0.0399135 0.0558611 0.0902352 ) 70
( 0.115042 0.0813847 0.0905282 ) 82
( 0.223874 0.0667759 0.0903219 ) 77
( 0.111398 0.0573577 0.0903321 ) 73
( 0.0373813 0.0900367 0.0901445 ) 79
( 0.0359573 0.0284891 0.0904085 ) 61
( 0.185327 0.0242109 0.0904856 ) 66
( 0.211951 0.0901916 0.0902824 ) 85
( 0.153909 0.0342636 0.0908862 ) 65
( 0.118148 0.0186477 0.0905959 ) 64
( 0.249891 0.0705503 0.0908208 ) 77
( 0.160616 0.0901322 0.0905241 ) 83
( 0.128817 0.0472893 0.0901178 ) 73
( 0.0662305 0.0283219 0.0903275 ) 62
( 0.243148 0.0900366 0.0901487 ) 86
( 0.221408 0.0406323 0.0904469 ) 67
( 0.217825 0.0208398 0.0908018 ) 67
( 0.166679 0.0585894 0.0902446 ) 75
( 0.0138263 0.0429232 0.090736 ) 69
( 0.0578014 0.0808348 0.0908213 ) 80
( 0.0882008 0.0902198 0.0902851 ) 81
( 0.180197 0.0821836 0.0905617 ) 84
( 0.0971549 0.0726899 0.090668 ) 81
)
