/*--------------------------------*- C++ -*----------------------------------*\
| =========                 |                                                 |
| \\      /  F ield         | OpenFOAM: The Open Source CFD Toolbox           |
|  \\    /   O peration     | Version:  4.x                                   |
|   \\  /    A nd           | Web:      www.OpenFOAM.org                      |
|    \\/     M anipulation  |                                                 |
\*---------------------------------------------------------------------------*/
FoamFile
{
    version     2.0;
    format      ascii;
    class       volScalarField;
    location    "22.5";
    object      KslPrev;
}
// * * * * * * * * * * * * * * * * * * * * * * * * * * * * * * * * * * * * * //

dimensions      [1 -3 -1 0 0 0 0];

internalField   nonuniform List<scalar> 
87
(
3668.57
2568.66
3591.32
2453.38
3619.25
2234.69
4051.82
1926.42
6611.89
4153.17
2713.07
4013.65
2574.51
4069.39
2332.49
4627.01
1981.16
5706.9
5015.48
3016.65
5289.95
3031.15
6331.83
3193.89
9672.78
3895.12
17662.7
5356.27
2971.02
5322
2838.27
5560.24
2560.76
6531.37
2117.52
5868.64
8240.97
3333.2
8249.13
3155.15
8695.23
2827.62
8579.2
2406.13
4891.37
18064.4
3723.2
36338.9
3662.05
151811
3602.57
85888.1
3753.99
11972.7
6840.48
3271.79
7653.15
3250.3
8883.91
3100.84
10559.8
2793.34
17453.2
16667.3
3734.41
21031.9
3659.59
21827.3
3552.38
12387.9
3532.88
5112.99
9.9784e+09
4110.71
1e+10
4158.3
1e+10
4213.33
1.19509e+06
4568.05
13588.5
6223.87
3079.61
6452.41
15252.7
3624.24
43081.5
)
;

boundaryField
{
    inlet
    {
        type            zeroGradient;
    }
    outlet
    {
        type            zeroGradient;
    }
    wall
    {
        type            zeroGradient;
    }
    procBoundary1to0
    {
        type            processor;
        value           uniform 0;
    }
    procBoundary1to3
    {
        type            processor;
        value           uniform 0;
    }
    procBoundary1to5
    {
        type            processor;
        value           uniform 0;
    }
    procBoundary1to7
    {
        type            processor;
        value           uniform 0;
    }
}


// ************************************************************************* //
