/*--------------------------------*- C++ -*----------------------------------*\
| =========                 |                                                 |
| \\      /  F ield         | OpenFOAM: The Open Source CFD Toolbox           |
|  \\    /   O peration     | Version:  4.x                                   |
|   \\  /    A nd           | Web:      www.OpenFOAM.org                      |
|    \\/     M anipulation  |                                                 |
\*---------------------------------------------------------------------------*/
FoamFile
{
    version     2.0;
    format      ascii;
    class       volScalarField;
    location    "22.5";
    object      QWallFluid;
}
// * * * * * * * * * * * * * * * * * * * * * * * * * * * * * * * * * * * * * //

dimensions      [1 -1 -3 0 0 0 0];

internalField   nonuniform List<scalar> 
87
(
1.66866e+09
2.23388e+09
1.70115e+09
2.32161e+09
1.67488e+09
2.44973e+09
1.50565e+09
2.70709e+09
9.83092e+08
7.60645e+08
1.07531e+09
7.83215e+08
1.12225e+09
7.67653e+08
1.19045e+09
6.76095e+08
1.33336e+09
5.47241e+08
6.48636e+08
9.79821e+08
6.1875e+08
9.70051e+08
5.30658e+08
9.14216e+08
3.68302e+08
7.54411e+08
2.18293e+08
6.07329e+08
9.77268e+08
6.12095e+08
1.01586e+09
5.8508e+08
1.08363e+09
5.05486e+08
1.24108e+09
5.27006e+08
0
0
0
0
0
0
0
0
0
0
0
0
0
0
0
0
0
0
4.84553e+08
8.80968e+08
4.43236e+08
8.83666e+08
3.9002e+08
9.01417e+08
3.33755e+08
9.65517e+08
2.15615e+08
0
0
0
0
0
0
0
0
0
0
0
0
0
0
0
0
0
0
5.11675e+08
8.99077e+08
4.93576e+08
0
0
0
)
;

boundaryField
{
    inlet
    {
        type            calculated;
        value           nonuniform 0();
    }
    outlet
    {
        type            calculated;
        value           uniform 0;
    }
    wall
    {
        type            calculated;
        value           uniform 0;
    }
    procBoundary1to0
    {
        type            processor;
        value           nonuniform List<scalar> 
12
(
2.16359e+09
1.02735e+09
9.61767e+08
9.43906e+08
0
0
8.73397e+08
0
0
8.80774e+08
0
0
)
;
    }
    procBoundary1to3
    {
        type            processor;
        value           nonuniform List<scalar> 
27
(
6.92854e+08
1.02253e+09
7.11025e+08
1.06003e+09
6.93301e+08
1.09646e+09
6.01796e+08
1.18295e+09
5.17286e+08
0
0
0
0
0
0
0
0
0
0
0
0
0
0
0
0
0
0
)
;
    }
    procBoundary1to5
    {
        type            processor;
        value           nonuniform List<scalar> 
32
(
9.13562e+08
4.46167e+08
9.37466e+08
3.58722e+08
9.75694e+08
2.0871e+08
0
0
0
0
0
0
0
0
0
0
0
0
0
0
0
4.29217e+08
8.38085e+08
9.13562e+08
0
3.86776e+08
0
0
0
0
0
0
)
;
    }
    procBoundary1to7
    {
        type            processor;
        value           uniform 0;
    }
}


// ************************************************************************* //
