/*--------------------------------*- C++ -*----------------------------------*\
| =========                 |                                                 |
| \\      /  F ield         | OpenFOAM: The Open Source CFD Toolbox           |
|  \\    /   O peration     | Version:  4.x                                   |
|   \\  /    A nd           | Web:      www.OpenFOAM.org                      |
|    \\/     M anipulation  |                                                 |
\*---------------------------------------------------------------------------*/
FoamFile
{
    version     2.0;
    format      ascii;
    class       volScalarField;
    location    "22.5";
    object      SPartFluid;
}
// * * * * * * * * * * * * * * * * * * * * * * * * * * * * * * * * * * * * * //

dimensions      [1 -3 -1 0 0 0 0];

internalField   nonuniform List<scalar> 
87
(
3.72001e-65
5.89001e-65
3.79751e-65
5.11501e-65
3.95251e-65
4.185e-65
4.4175e-65
5.0375e-65
4.80499e-65
3.64249e-65
3.255e-65
4.64999e-65
4.18498e-65
3.40998e-65
5.03748e-65
6.58747e-65
4.57247e-65
3.95247e-65
3.48748e-65
5.50247e-65
5.81246e-65
7.12994e-65
5.50245e-65
4.33997e-65
4.95995e-65
4.57245e-65
4.49495e-65
6.66499e-65
5.65748e-65
5.34748e-65
6.19997e-65
5.81247e-65
6.58746e-65
8.36995e-65
7.28495e-65
6.35494e-65
7.20746e-65
5.11496e-65
6.35495e-65
6.97493e-65
7.28493e-65
5.65744e-65
7.51742e-65
7.5949e-65
5.50241e-65
8.13741e-65
6.58743e-65
6.19993e-65
5.26993e-65
5.26992e-65
7.36239e-65
8.05988e-65
1.03073e-64
4.88241e-65
7.05246e-65
5.73496e-65
7.67243e-65
7.98243e-65
5.73494e-65
8.4474e-65
7.05242e-65
5.73494e-65
4.18494e-65
5.57993e-65
7.05242e-65
5.65743e-65
6.12241e-65
6.97489e-65
6.97489e-65
6.58739e-65
7.20737e-65
4.41741e-65
7.90488e-65
6.35489e-65
5.11491e-65
9.06732e-65
8.29233e-65
8.75732e-65
6.81986e-65
7.90483e-65
3.48742e-65
6.58745e-65
5.26996e-65
8.05992e-65
7.05241e-65
9.99735e-65
5.7349e-65
)
;

boundaryField
{
    inlet
    {
        type            calculated;
        value           nonuniform 0();
    }
    outlet
    {
        type            calculated;
        value           uniform 0;
    }
    wall
    {
        type            calculated;
        value           uniform 0;
    }
    procBoundary1to0
    {
        type            processor;
        value           nonuniform List<scalar> 
12
(
1.70501e-65
3.95249e-65
6.89748e-65
6.2e-65
6.97496e-65
4.95996e-65
4.72748e-65
8.29243e-65
4.57245e-65
4.95998e-65
5.50244e-65
8.05989e-65
)
;
    }
    procBoundary1to3
    {
        type            processor;
        value           nonuniform List<scalar> 
27
(
6.97495e-65
3.25498e-65
5.73495e-65
2.55748e-65
4.10747e-65
3.02248e-65
4.72745e-65
4.26246e-65
4.18495e-65
7.51741e-65
6.2774e-65
9.06737e-65
8.52487e-65
7.59487e-65
6.2774e-65
6.04489e-65
6.58738e-65
8.91233e-65
7.67237e-65
9.06734e-65
8.75733e-65
8.52483e-65
6.12237e-65
6.27737e-65
8.52481e-65
7.12984e-65
7.43983e-65
)
;
    }
    procBoundary1to5
    {
        type            processor;
        value           nonuniform List<scalar> 
32
(
6.81993e-65
8.0599e-65
6.35493e-65
6.74241e-65
7.59491e-65
8.44737e-65
6.81989e-65
5.65741e-65
5.8124e-65
6.66488e-65
8.21484e-65
8.52484e-65
7.90484e-65
8.44734e-65
6.04488e-65
7.51734e-65
5.73487e-65
4.5724e-65
7.28483e-65
5.42488e-65
8.67979e-65
6.35495e-65
4.80497e-65
6.81993e-65
6.81989e-65
6.97492e-65
7.05242e-65
6.81989e-65
8.44734e-65
6.81991e-65
8.44734e-65
8.21487e-65
)
;
    }
    procBoundary1to7
    {
        type            processor;
        value           uniform 9.91981e-65;
    }
}


// ************************************************************************* //
