/*--------------------------------*- C++ -*----------------------------------*\
| =========                 |                                                 |
| \\      /  F ield         | OpenFOAM: The Open Source CFD Toolbox           |
|  \\    /   O peration     | Version:  4.x                                   |
|   \\  /    A nd           | Web:      www.OpenFOAM.org                      |
|    \\/     M anipulation  |                                                 |
\*---------------------------------------------------------------------------*/
FoamFile
{
    version     2.0;
    format      ascii;
    class       volVectorField;
    location    "22.5";
    object      UsNext;
}
// * * * * * * * * * * * * * * * * * * * * * * * * * * * * * * * * * * * * * //

dimensions      [0 1 -1 0 0 0 0];

internalField   nonuniform List<vector> 
87
(
(4.08355e-09 1.21352e-08 2.79332e-08)
(-1.28029e-07 1.0568e-06 8.80286e-08)
(-1.10143e-08 6.1674e-09 1.09054e-08)
(-3.99097e-09 2.09018e-09 4.75046e-11)
(1.37057e-09 2.4894e-09 -8.52062e-10)
(1.0971e-08 1.84072e-09 -6.83485e-09)
(3.82915e-08 -7.01066e-09 -1.27456e-08)
(1.35083e-06 8.37113e-09 -9.15548e-08)
(6.9351e-07 -4.25121e-08 -1.30675e-07)
(-6.1852e-09 4.01547e-09 1.19863e-08)
(-2.57108e-09 -1.60724e-10 2.00613e-08)
(-3.78032e-09 4.68603e-09 3.85084e-09)
(1.02067e-08 8.64883e-10 -8.8921e-10)
(1.99109e-08 -1.07896e-08 5.35681e-09)
(3.29213e-08 6.52605e-09 -6.07626e-09)
(4.5964e-08 -9.6429e-09 -1.53947e-08)
(4.86553e-08 -3.30308e-08 -2.62502e-08)
(-3.90466e-09 -6.96064e-08 -6.38252e-08)
(4.40361e-09 3.28883e-09 1.50503e-09)
(7.03549e-09 -2.23602e-10 3.65311e-09)
(1.42307e-08 6.7353e-09 4.75235e-10)
(2.47629e-08 9.44626e-10 -1.3302e-09)
(2.99543e-08 -3.06999e-09 3.10324e-09)
(4.47178e-08 5.64594e-10 1.52385e-08)
(5.18906e-08 -9.60762e-09 7.48637e-09)
(4.53251e-08 -2.6196e-08 -2.79397e-08)
(3.44009e-08 -7.11864e-09 -2.77004e-08)
(-1.04834e-08 8.88558e-09 1.72668e-08)
(-8.87976e-10 8.25129e-09 3.09325e-08)
(1.98021e-09 6.77108e-09 9.52141e-09)
(1.7805e-09 1.06917e-09 -3.62643e-10)
(6.35115e-09 9.56663e-10 -5.16908e-10)
(7.85909e-09 2.62833e-09 -6.171e-09)
(1.93782e-08 -1.44001e-09 -1.01248e-08)
(2.57966e-08 -9.44639e-09 -2.16613e-08)
(7.6614e-09 -1.7107e-08 -4.26579e-08)
(-9.487e-09 8.52365e-09 1.14518e-08)
(-5.67105e-09 4.71442e-09 1.5168e-08)
(7.07e-09 9.27708e-09 4.78334e-09)
(7.80235e-09 3.39577e-09 -8.84472e-10)
(1.98254e-08 -3.58286e-09 -3.56305e-10)
(2.32701e-08 -9.18449e-10 -6.9462e-09)
(3.12337e-08 -5.39386e-09 -1.11529e-08)
(3.49885e-08 -1.25195e-08 -1.66891e-08)
(3.02717e-08 -2.13372e-08 -4.91746e-08)
(9.3569e-10 7.06465e-09 -4.16859e-10)
(4.61536e-09 7.03837e-09 1.47172e-09)
(1.25408e-08 8.93773e-09 -2.4009e-09)
(1.51774e-08 2.61467e-09 -1.19123e-09)
(2.38643e-08 -5.32235e-09 2.39988e-09)
(3.03339e-08 -6.99863e-09 2.61242e-09)
(3.82316e-08 -5.16345e-09 -4.9896e-09)
(4.17626e-08 -1.14352e-08 -6.71822e-09)
(8.55478e-09 -1.1426e-08 -2.80367e-08)
(-3.31609e-09 2.35986e-09 1.29591e-09)
(-2.30878e-09 4.40993e-09 3.04671e-09)
(-4.90889e-10 3.42747e-09 2.23658e-09)
(8.20626e-10 1.75373e-09 -9.38595e-10)
(-1.91118e-09 1.4609e-09 -1.4876e-09)
(-4.08332e-09 1.0946e-09 -4.29519e-09)
(-3.21587e-09 2.9367e-09 -4.85442e-09)
(-8.33942e-09 2.78667e-09 -6.81197e-09)
(-2.60365e-09 2.51065e-09 -1.80488e-08)
(-5.44454e-09 6.18849e-09 2.23468e-09)
(-1.87527e-09 6.03337e-09 1.91627e-09)
(6.44253e-10 4.92604e-09 1.81236e-09)
(1.33341e-09 3.6385e-09 -1.28365e-09)
(4.12658e-10 2.2206e-09 -2.36099e-09)
(1.47689e-09 4.72618e-09 -9.36555e-09)
(4.25977e-09 2.90225e-09 -9.13748e-09)
(4.81867e-09 -1.13709e-09 -9.96939e-09)
(-6.87004e-09 6.44248e-09 -1.17427e-08)
(-2.88601e-09 7.21126e-09 -4.19777e-10)
(7.06835e-12 6.0021e-09 3.9516e-10)
(2.12054e-09 6.4326e-09 -5.95896e-10)
(2.82832e-09 4.7103e-09 -1.33749e-09)
(6.21805e-09 3.98188e-09 -2.04869e-09)
(1.06244e-08 -6.2256e-10 -1.76052e-09)
(1.37134e-08 -1.28763e-09 -8.41899e-09)
(5.0725e-09 -2.33257e-09 -3.16903e-09)
(-3.23094e-09 3.26721e-09 -1.1347e-08)
(-1.38091e-09 1.81794e-09 5.60003e-10)
(-3.20498e-09 1.03325e-09 1.57867e-09)
(-1.72208e-09 1.88969e-09 1.30589e-09)
(-3.67975e-09 3.11253e-09 2.87133e-10)
(-3.569e-09 4.54689e-09 6.65351e-10)
(-6.09604e-09 4.01838e-09 7.82229e-10)
)
;

boundaryField
{
    inlet
    {
        type            calculated;
        value           nonuniform 0();
    }
    outlet
    {
        type            calculated;
        value           nonuniform List<vector> 9((6.9351e-07 -4.25121e-08 -1.30675e-07) (-3.90466e-09 -6.96064e-08 -6.38252e-08) (3.44009e-08 -7.11864e-09 -2.77004e-08) (7.6614e-09 -1.7107e-08 -4.26579e-08) (3.02717e-08 -2.13372e-08 -4.91746e-08) (8.55478e-09 -1.1426e-08 -2.80367e-08) (-2.60365e-09 2.51065e-09 -1.80488e-08) (-6.87004e-09 6.44248e-09 -1.17427e-08) (-3.23094e-09 3.26721e-09 -1.1347e-08));
    }
    wall
    {
        type            calculated;
        value           nonuniform List<vector> 
57
(
(4.08355e-09 1.21352e-08 2.79332e-08)
(-6.1852e-09 4.01547e-09 1.19863e-08)
(4.40361e-09 3.28883e-09 1.50503e-09)
(-1.28029e-07 1.0568e-06 8.80286e-08)
(-2.57108e-09 -1.60724e-10 2.00613e-08)
(7.03549e-09 -2.23602e-10 3.65311e-09)
(-1.10143e-08 6.1674e-09 1.09054e-08)
(-3.78032e-09 4.68603e-09 3.85084e-09)
(1.42307e-08 6.7353e-09 4.75235e-10)
(-3.99097e-09 2.09018e-09 4.75046e-11)
(1.02067e-08 8.64883e-10 -8.8921e-10)
(2.47629e-08 9.44626e-10 -1.3302e-09)
(1.37057e-09 2.4894e-09 -8.52062e-10)
(1.99109e-08 -1.07896e-08 5.35681e-09)
(2.99543e-08 -3.06999e-09 3.10324e-09)
(1.0971e-08 1.84072e-09 -6.83485e-09)
(3.29213e-08 6.52605e-09 -6.07626e-09)
(4.47178e-08 5.64594e-10 1.52385e-08)
(3.82915e-08 -7.01066e-09 -1.27456e-08)
(4.5964e-08 -9.6429e-09 -1.53947e-08)
(5.18906e-08 -9.60762e-09 7.48637e-09)
(1.35083e-06 8.37113e-09 -9.15548e-08)
(4.86553e-08 -3.30308e-08 -2.62502e-08)
(4.53251e-08 -2.6196e-08 -2.79397e-08)
(6.9351e-07 -4.25121e-08 -1.30675e-07)
(-3.90466e-09 -6.96064e-08 -6.38252e-08)
(3.44009e-08 -7.11864e-09 -2.77004e-08)
(4.08355e-09 1.21352e-08 2.79332e-08)
(-1.04834e-08 8.88558e-09 1.72668e-08)
(-3.31609e-09 2.35986e-09 1.29591e-09)
(-1.38091e-09 1.81794e-09 5.60003e-10)
(-1.28029e-07 1.0568e-06 8.80286e-08)
(-8.87976e-10 8.25129e-09 3.09325e-08)
(-2.30878e-09 4.40993e-09 3.04671e-09)
(-3.20498e-09 1.03325e-09 1.57867e-09)
(-1.10143e-08 6.1674e-09 1.09054e-08)
(1.98021e-09 6.77108e-09 9.52141e-09)
(-4.90889e-10 3.42747e-09 2.23658e-09)
(-1.72208e-09 1.88969e-09 1.30589e-09)
(-3.99097e-09 2.09018e-09 4.75046e-11)
(1.7805e-09 1.06917e-09 -3.62643e-10)
(8.20626e-10 1.75373e-09 -9.38595e-10)
(1.37057e-09 2.4894e-09 -8.52062e-10)
(6.35115e-09 9.56663e-10 -5.16908e-10)
(-1.91118e-09 1.4609e-09 -1.4876e-09)
(1.0971e-08 1.84072e-09 -6.83485e-09)
(7.85909e-09 2.62833e-09 -6.171e-09)
(-4.08332e-09 1.0946e-09 -4.29519e-09)
(3.82915e-08 -7.01066e-09 -1.27456e-08)
(1.93782e-08 -1.44001e-09 -1.01248e-08)
(-3.21587e-09 2.9367e-09 -4.85442e-09)
(1.35083e-06 8.37113e-09 -9.15548e-08)
(2.57966e-08 -9.44639e-09 -2.16613e-08)
(-8.33942e-09 2.78667e-09 -6.81197e-09)
(6.9351e-07 -4.25121e-08 -1.30675e-07)
(7.6614e-09 -1.7107e-08 -4.26579e-08)
(-2.60365e-09 2.51065e-09 -1.80488e-08)
)
;
    }
    procBoundary1to0
    {
        type            processor;
        value           nonuniform List<vector> 
12
(
(-7.94454e-09 5.77939e-09 2.43336e-09)
(-7.7936e-09 4.27363e-09 7.5809e-09)
(-8.03118e-09 4.60934e-09 7.09162e-09)
(-6.40433e-09 -2.84264e-11 4.76755e-09)
(-7.69875e-09 6.8628e-09 7.03881e-09)
(-6.57377e-09 5.95283e-09 4.68173e-09)
(-4.51446e-09 1.26968e-09 5.00506e-09)
(-6.41124e-09 7.49712e-09 5.80258e-09)
(-7.57186e-09 6.80349e-09 5.7622e-09)
(-2.27408e-09 1.05464e-09 3.28248e-09)
(-4.64676e-09 2.95967e-09 2.62937e-09)
(-7.17522e-09 3.15092e-09 4.2014e-09)
)
;
    }
    procBoundary1to3
    {
        type            processor;
        value           nonuniform List<vector> 
27
(
(-5.5295e-10 3.28349e-09 2.7442e-09)
(7.77278e-09 2.22945e-09 -1.78937e-09)
(1.59261e-08 5.16388e-09 -4.96002e-09)
(2.08398e-08 5.43409e-10 -5.50159e-09)
(3.51005e-08 -6.97187e-09 -1.84679e-09)
(5.1081e-08 -1.0309e-08 1.01145e-08)
(7.29521e-08 -9.18956e-09 -2.33551e-09)
(3.3011e-07 6.20378e-08 -3.41263e-08)
(4.80786e-08 -5.17627e-09 -5.11047e-08)
(3.72867e-09 3.4708e-09 -3.25472e-10)
(6.82591e-09 3.25255e-09 -3.41783e-09)
(1.17054e-08 5.01696e-09 -4.40685e-09)
(1.41954e-08 -3.29471e-10 -4.60353e-09)
(2.55963e-08 -4.38369e-09 -1.35248e-09)
(3.75255e-08 -7.55769e-09 4.99809e-09)
(3.79166e-08 -5.48626e-09 -6.64977e-10)
(5.47011e-08 -6.32122e-09 -2.46224e-08)
(1.00506e-09 -4.51152e-09 -4.27317e-08)
(7.83872e-11 4.10911e-09 -1.67835e-09)
(2.67811e-09 3.6319e-09 -3.53408e-09)
(4.6421e-09 4.05654e-09 -3.28772e-09)
(6.19217e-09 2.03714e-09 -2.7777e-09)
(9.90476e-09 -2.83953e-09 7.23986e-10)
(-3.11301e-09 -4.08008e-09 1.28425e-09)
(1.23991e-08 -4.6454e-09 1.90197e-09)
(8.72341e-09 -3.97193e-09 -3.4982e-09)
(1.93211e-09 3.31388e-09 -5.02337e-09)
)
;
    }
    procBoundary1to5
    {
        type            processor;
        value           nonuniform List<vector> 
32
(
(-2.30708e-09 1.93073e-09 7.33209e-10)
(-4.46336e-09 1.2674e-09 8.5021e-10)
(-7.31264e-09 2.72264e-09 -2.04687e-10)
(-6.61741e-09 1.90243e-09 -2.2537e-09)
(-7.28337e-09 1.77004e-09 -2.27451e-09)
(-9.87847e-08 2.42631e-08 -6.0561e-10)
(-2.41336e-09 4.09731e-09 1.4088e-09)
(-2.38231e-09 4.07363e-09 2.87581e-10)
(-3.23592e-09 2.64996e-09 6.8396e-10)
(-6.51992e-09 2.43819e-09 -2.35339e-09)
(-7.3666e-09 3.14135e-09 -4.78798e-09)
(-7.68917e-09 2.22374e-09 -3.92882e-09)
(-9.74252e-09 1.5858e-08 -6.1599e-09)
(-4.59105e-09 4.47015e-09 -3.27432e-11)
(-1.83842e-09 4.33582e-09 7.03994e-12)
(-3.77222e-10 4.05499e-09 -9.34227e-10)
(-8.29953e-10 2.96363e-09 -1.01447e-09)
(-1.88469e-09 1.90795e-09 -9.8046e-10)
(-2.95971e-09 9.60574e-10 -2.70282e-10)
(-3.31603e-09 4.53608e-10 -3.38324e-09)
(-8.81329e-10 5.65035e-09 -4.79312e-09)
(-3.23182e-10 1.00771e-09 1.14039e-09)
(-7.52526e-10 1.04868e-09 1.15103e-09)
(-2.30708e-09 1.93073e-09 7.33209e-10)
(-2.41336e-09 4.09731e-09 1.4088e-09)
(-4.03869e-10 1.40414e-09 1.14728e-09)
(-1.31075e-09 1.46527e-09 6.25181e-10)
(-2.41336e-09 4.09731e-09 1.4088e-09)
(-4.59105e-09 4.47015e-09 -3.27432e-11)
(-1.8595e-09 6.78743e-10 1.12033e-09)
(-4.59105e-09 4.47015e-09 -3.27432e-11)
(-2.73821e-09 2.9011e-09 9.03773e-10)
)
;
    }
    procBoundary1to7
    {
        type            processor;
        value           uniform (-3.21262e-09 4.23932e-09 -6.4736e-10);
    }
}


// ************************************************************************* //
