/*--------------------------------*- C++ -*----------------------------------*\
| =========                 |                                                 |
| \\      /  F ield         | OpenFOAM: The Open Source CFD Toolbox           |
|  \\    /   O peration     | Version:  4.x                                   |
|   \\  /    A nd           | Web:      www.OpenFOAM.org                      |
|    \\/     M anipulation  |                                                 |
\*---------------------------------------------------------------------------*/
FoamFile
{
    version     2.0;
    format      ascii;
    class       volVectorField;
    location    "32";
    object      impParticleForces;
}
// * * * * * * * * * * * * * * * * * * * * * * * * * * * * * * * * * * * * * //

dimensions      [1 1 -2 0 0 0 0];

internalField   nonuniform List<vector> 
114
(
(0.00240345 -2.17378e-07 -8.75675e-05)
(0.00244048 1.64938e-06 -8.18685e-05)
(0.00243871 4.34546e-06 -7.31965e-05)
(0.00247354 7.73504e-06 -6.53647e-05)
(0.00245041 1.24074e-05 -5.52139e-05)
(0.0024628 1.79355e-05 -4.62783e-05)
(0.0023114 6.6291e-06 -9.1617e-05)
(0.0023387 7.52079e-06 -9.2673e-05)
(0.00238304 8.67019e-06 -9.16848e-05)
(0.00240065 9.51084e-06 -8.68371e-05)
(0.00244577 1.05744e-05 -8.16105e-05)
(0.00243981 1.12741e-05 -7.29466e-05)
(0.00247572 1.27469e-05 -6.5314e-05)
(0.00245872 1.45579e-05 -5.56243e-05)
(0.00245992 1.70864e-05 -4.66308e-05)
(0.00228557 1.43267e-05 -8.90479e-05)
(0.00231805 1.5363e-05 -9.04054e-05)
(0.00236183 1.64502e-05 -8.95361e-05)
(0.0023821 1.67158e-05 -8.49157e-05)
(0.00242814 1.73383e-05 -7.98562e-05)
(0.00242596 1.67385e-05 -7.17838e-05)
(0.0024636 1.71047e-05 -6.44447e-05)
(0.00245542 1.69265e-05 -5.54345e-05)
(0.00247214 1.76685e-05 -4.73417e-05)
(0.00224819 1.71656e-05 -8.60754e-05)
(0.00226955 1.79554e-05 -8.65632e-05)
(0.00232306 1.91406e-05 -8.61688e-05)
(0.00233553 1.90203e-05 -8.16435e-05)
(0.0023692 1.91026e-05 -7.65194e-05)
(0.00237648 1.8367e-05 -6.92945e-05)
(0.00239397 1.79785e-05 -6.1966e-05)
(0.00241232 1.75207e-05 -5.42624e-05)
(0.00242908 1.74325e-05 -4.65355e-05)
(0.002501 3.59366e-06 -7.42861e-05)
(0.00253678 6.77115e-06 -6.63272e-05)
(0.00248127 1.10561e-05 -5.47633e-05)
(0.00250239 1.58697e-05 -4.58821e-05)
(0.00233831 7.43152e-06 -9.10768e-05)
(0.00238601 8.47193e-06 -9.36116e-05)
(0.00245124 9.92841e-06 -9.44604e-05)
(0.00246154 1.06818e-05 -8.8594e-05)
(0.00249743 1.16323e-05 -8.27055e-05)
(0.00248052 1.17555e-05 -7.31216e-05)
(0.00252532 1.29916e-05 -6.5865e-05)
(0.0024874 1.4242e-05 -5.54387e-05)
(0.00248587 1.62522e-05 -4.62429e-05)
(0.00232291 1.59212e-05 -8.94091e-05)
(0.00237609 1.76012e-05 -9.22365e-05)
(0.00244794 1.96157e-05 -9.34635e-05)
(0.00245009 1.90522e-05 -8.71699e-05)
(0.00247922 1.91674e-05 -8.11227e-05)
(0.00247519 1.81959e-05 -7.26103e-05)
(0.00250654 1.81612e-05 -6.51876e-05)
(0.00248633 1.73931e-05 -5.58845e-05)
(0.002498 1.76216e-05 -4.75301e-05)
(0.00227415 1.85615e-05 -8.54904e-05)
(0.00231258 1.98795e-05 -8.70407e-05)
(0.0023851 2.1786e-05 -8.82824e-05)
(0.00238122 2.09947e-05 -8.24511e-05)
(0.00240524 2.06575e-05 -7.6771e-05)
(0.00241603 1.97254e-05 -6.97039e-05)
(0.00243752 1.91811e-05 -6.24406e-05)
(0.00243398 1.80608e-05 -5.43804e-05)
(0.00243713 1.7499e-05 -4.64202e-05)
(0.00244345 8.98434e-06 -4.94677e-05)
(0.00244908 1.26848e-05 -4.09553e-05)
(0.00236327 8.42628e-06 -8.5245e-05)
(0.00239388 9.33493e-06 -8.63228e-05)
(0.00244998 1.0738e-05 -8.64955e-05)
(0.00245383 1.1162e-05 -8.10691e-05)
(0.00247622 1.1671e-05 -7.50881e-05)
(0.00246264 1.17132e-05 -6.67651e-05)
(0.00248935 1.25227e-05 -5.95616e-05)
(0.00245134 1.3231e-05 -5.03509e-05)
(0.0024506 1.45656e-05 -4.20242e-05)
(0.00233294 1.69135e-05 -8.26412e-05)
(0.00237777 1.85695e-05 -8.46929e-05)
(0.00245159 2.08818e-05 -8.60224e-05)
(0.00245673 2.03487e-05 -8.10446e-05)
(0.00247533 2.00719e-05 -7.47685e-05)
(0.00245403 1.84194e-05 -6.64342e-05)
(0.00249192 1.83767e-05 -5.99151e-05)
(0.00246123 1.71509e-05 -5.15327e-05)
(0.00247889 1.69981e-05 -4.42059e-05)
(0.00229283 1.99187e-05 -7.98478e-05)
(0.00233205 2.15291e-05 -8.1445e-05)
(0.00238994 2.31628e-05 -8.17174e-05)
(0.00239733 2.25451e-05 -7.74284e-05)
(0.00239917 2.14163e-05 -7.0905e-05)
(0.00241283 2.04704e-05 -6.47335e-05)
(0.00244868 2.01015e-05 -5.86947e-05)
(0.00241917 1.81712e-05 -5.08824e-05)
(0.00243617 1.73912e-05 -4.40929e-05)
(0.00236624 9.1094e-06 -7.27797e-05)
(0.00241426 1.03211e-05 -7.40037e-05)
(0.00246519 1.18222e-05 -7.3808e-05)
(0.00244487 1.15117e-05 -6.83162e-05)
(0.00246283 1.18889e-05 -6.3286e-05)
(0.00243254 1.14862e-05 -5.60725e-05)
(0.00244975 1.19177e-05 -4.99583e-05)
(0.00240937 1.20515e-05 -4.24893e-05)
(0.00233923 1.7906e-05 -7.10502e-05)
(0.00238518 1.9745e-05 -7.25551e-05)
(0.00245303 2.20161e-05 -7.3003e-05)
(0.00243473 2.03781e-05 -6.80708e-05)
(0.00246503 2.04722e-05 -6.36856e-05)
(0.00243605 1.85135e-05 -5.68315e-05)
(0.00246097 1.80439e-05 -5.1192e-05)
(0.00228697 2.04989e-05 -6.8621e-05)
(0.00232757 2.21398e-05 -6.99549e-05)
(0.00239196 2.40187e-05 -7.04666e-05)
(0.00239064 2.29135e-05 -6.66057e-05)
(0.00241626 2.23976e-05 -6.22148e-05)
(0.00239892 2.05178e-05 -5.6006e-05)
)
;

boundaryField
{
    inlet
    {
        type            zeroGradient;
    }
    outlet
    {
        type            zeroGradient;
    }
    wall
    {
        type            zeroGradient;
    }
    procBoundary2to0
    {
        type            processor;
        value           nonuniform List<vector> 
44
(
(0.00239503 -9.39942e-06 -8.68152e-05)
(0.00244531 -6.69246e-06 -8.18569e-05)
(0.00244046 -1.9793e-06 -7.30298e-05)
(0.0024585 3.70496e-06 -6.4642e-05)
(0.0024561 1.1708e-05 -5.51768e-05)
(0.00249018 2.17919e-05 -4.68558e-05)
(0.00230413 -3.27966e-06 -9.20336e-05)
(0.00232538 -2.80303e-06 -9.24542e-05)
(0.00236326 -1.7943e-06 -9.11378e-05)
(0.00236326 -1.7943e-06 -9.11378e-05)
(0.00244888 -6.51081e-07 -8.8254e-05)
(0.00251334 1.27545e-06 -8.42079e-05)
(0.00248686 -3.77246e-06 -7.31986e-05)
(0.0025265 1.36159e-06 -6.5492e-05)
(0.0024802 8.98028e-06 -5.45051e-05)
(0.00249204 1.75311e-05 -4.53706e-05)
(0.0023607 -3.54123e-06 -9.376e-05)
(0.00238539 -3.15988e-06 -9.44461e-05)
(0.0024408 -2.36988e-06 -9.4734e-05)
(0.00244888 -6.51081e-07 -8.8254e-05)
(0.00251334 1.27545e-06 -8.42079e-05)
(0.00251334 1.27545e-06 -8.42079e-05)
(0.0024758 2.96361e-06 -6.735e-05)
(0.00249323 5.53307e-06 -5.93301e-05)
(0.0024441 5.61878e-06 -4.949e-05)
(0.00244688 1.21827e-05 -4.09063e-05)
(0.00237449 -3.52024e-06 -8.67049e-05)
(0.00240823 -3.29009e-06 -8.8292e-05)
(0.00246743 -2.53574e-06 -8.84986e-05)
(0.00246473 -9.74032e-07 -8.21813e-05)
(0.00249793 6.9703e-07 -7.64907e-05)
(0.0024758 2.96361e-06 -6.735e-05)
(0.00249323 5.53307e-06 -5.93301e-05)
(0.00249323 5.53307e-06 -5.93301e-05)
(0.00239714 7.05386e-06 -4.13953e-05)
(0.00239075 9.72259e-06 -3.42244e-05)
(0.00235954 -3.62201e-06 -7.28014e-05)
(0.00240401 -3.36628e-06 -7.41133e-05)
(0.00246877 -2.74076e-06 -7.39948e-05)
(0.00245759 -1.20312e-06 -6.88611e-05)
(0.00245884 3.41889e-07 -6.2827e-05)
(0.00244489 2.27698e-06 -5.60798e-05)
(0.00245396 4.50888e-06 -4.94092e-05)
(0.00239714 7.05386e-06 -4.13953e-05)
)
;
    }
    procBoundary2to3
    {
        type            processor;
        value           nonuniform List<vector> 
12
(
(0.002493 2.39599e-05 -3.78552e-05)
(0.00248934 1.98365e-05 -3.84273e-05)
(0.0024855 1.8353e-05 -3.9282e-05)
(0.0024218 1.71175e-05 -3.86437e-05)
(0.00249298 2.09114e-05 -3.67288e-05)
(0.00249921 1.85237e-05 -3.78778e-05)
(0.00252862 1.80634e-05 -4.01323e-05)
(0.00246241 1.70095e-05 -3.96043e-05)
(0.00244625 1.63684e-05 -3.25709e-05)
(0.0024549 1.6047e-05 -3.43356e-05)
(0.00246448 1.65554e-05 -3.66591e-05)
(0.00243697 1.64626e-05 -3.77507e-05)
)
;
    }
    procBoundary2to6
    {
        type            processor;
        value           nonuniform List<vector> 
32
(
(0.00242291 1.27664e-05 -3.57508e-05)
(0.00242232 1.63959e-05 -4.41655e-05)
(0.00244296 1.5806e-05 -3.80908e-05)
(0.00240728 1.92576e-05 -5.01926e-05)
(0.00239207 1.75266e-05 -4.43218e-05)
(0.00240199 1.623e-05 -3.86506e-05)
(0.00238709 9.74121e-06 -5.80046e-05)
(0.00241228 1.02023e-05 -5.75388e-05)
(0.002436 1.09541e-05 -5.58683e-05)
(0.00243177 1.07998e-05 -5.26231e-05)
(0.0024574 1.11211e-05 -4.90776e-05)
(0.0024171 1.05376e-05 -4.39686e-05)
(0.0024349 1.06547e-05 -3.93764e-05)
(0.00242291 1.27664e-05 -3.57508e-05)
(0.00242232 1.63959e-05 -4.41655e-05)
(0.00239001 1.04537e-05 -3.41928e-05)
(0.00235294 1.90167e-05 -5.70507e-05)
(0.00238884 2.02522e-05 -5.71211e-05)
(0.00242878 2.13703e-05 -5.59248e-05)
(0.00243138 2.02672e-05 -5.31721e-05)
(0.00245363 1.97993e-05 -4.97638e-05)
(0.00242744 1.79724e-05 -4.52476e-05)
(0.00242232 1.63959e-05 -4.41655e-05)
(0.00240728 1.92576e-05 -5.01926e-05)
(0.00244325 1.71061e-05 -4.06548e-05)
(0.00229738 2.13145e-05 -5.60784e-05)
(0.00233026 2.26627e-05 -5.64174e-05)
(0.00236097 2.31172e-05 -5.53815e-05)
(0.00237312 2.23449e-05 -5.30548e-05)
(0.00241372 2.21641e-05 -4.98709e-05)
(0.00240728 1.92576e-05 -5.01926e-05)
(0.00240614 2.05575e-05 -4.58925e-05)
)
;
    }
}


// ************************************************************************* //
