/*--------------------------------*- C++ -*----------------------------------*\
| =========                 |                                                 |
| \\      /  F ield         | OpenFOAM: The Open Source CFD Toolbox           |
|  \\    /   O peration     | Version:  4.x                                   |
|   \\  /    A nd           | Web:      www.OpenFOAM.org                      |
|    \\/     M anipulation  |                                                 |
\*---------------------------------------------------------------------------*/
FoamFile
{
    version     2.0;
    format      ascii;
    class       volScalarField;
    location    "32";
    object      particleRelTemp;
}
// * * * * * * * * * * * * * * * * * * * * * * * * * * * * * * * * * * * * * //

dimensions      [0 0 0 0 0 0 0];

internalField   nonuniform List<scalar> 
114
(
-1.94269e-09
-1.59598e-09
-9.72748e-10
-5.94699e-10
-1.01939e-10
-3.32705e-11
-2.78765e-09
-2.56183e-09
-2.30577e-09
-1.95842e-09
-1.55765e-09
-1.109e-09
-7.75846e-10
-4.01818e-10
-2.20487e-10
-2.85438e-09
-2.66389e-09
-2.3925e-09
-2.12442e-09
-1.75278e-09
-1.45958e-09
-1.12138e-09
-7.06373e-10
-6.41456e-10
-2.85099e-09
-2.73661e-09
-2.54342e-09
-2.31104e-09
-2.00588e-09
-1.86007e-09
-1.46831e-09
-1.26832e-09
-1.1746e-09
-7.29468e-10
-1.61096e-10
2.69292e-10
6.19755e-10
-2.80109e-09
-2.53914e-09
-2.17216e-09
-1.76994e-09
-1.37885e-09
-8.03191e-10
-3.9949e-10
9.25882e-11
3.81006e-10
-2.81188e-09
-2.58214e-09
-2.29432e-09
-1.93514e-09
-1.57273e-09
-1.22428e-09
-8.23429e-10
-4.15672e-10
-1.69719e-10
-2.8206e-09
-2.64779e-09
-2.41438e-09
-2.13889e-09
-1.86746e-09
-1.56939e-09
-1.27758e-09
-8.91421e-10
-7.7954e-10
8.95968e-10
1.23942e-09
-2.72675e-09
-2.46853e-09
-2.05044e-09
-1.59108e-09
-1.07259e-09
-4.5707e-10
4.48399e-11
5.56493e-10
8.54014e-10
-2.79824e-09
-2.52204e-09
-2.11507e-09
-1.77193e-09
-1.24855e-09
-8.27742e-10
-4.23036e-10
1.14824e-13
4.39852e-10
-2.80289e-09
-2.58073e-09
-2.30542e-09
-1.91192e-09
-1.62022e-09
-1.23577e-09
-8.64615e-10
-5.44812e-10
-1.77774e-10
-2.71188e-09
-2.33584e-09
-1.94043e-09
-1.51915e-09
-9.74974e-10
-3.3339e-10
2.63359e-10
9.94854e-10
-2.78106e-09
-2.4541e-09
-2.15452e-09
-1.66644e-09
-1.19216e-09
-6.76485e-10
-3.90268e-10
-2.81574e-09
-2.56163e-09
-2.22887e-09
-1.89779e-09
-1.50504e-09
-1.04694e-09
)
;

boundaryField
{
    inlet
    {
        type            calculated;
        value           nonuniform List<scalar> 
12
(
-2.78765e-09
-2.85438e-09
-2.85099e-09
-2.80109e-09
-2.81188e-09
-2.8206e-09
-2.72675e-09
-2.79824e-09
-2.80289e-09
-2.71188e-09
-2.78106e-09
-2.81574e-09
)
;
    }
    outlet
    {
        type            calculated;
        value           nonuniform 0();
    }
    wall
    {
        type            calculated;
        value           nonuniform List<scalar> 
66
(
-2.78765e-09
-2.85438e-09
-2.85099e-09
-2.56183e-09
-2.66389e-09
-2.73661e-09
-2.30577e-09
-2.3925e-09
-2.54342e-09
-1.94269e-09
-1.95842e-09
-2.12442e-09
-2.31104e-09
-1.59598e-09
-1.55765e-09
-1.75278e-09
-2.00588e-09
-9.72748e-10
-1.109e-09
-1.45958e-09
-1.86007e-09
-5.94699e-10
-7.75846e-10
-1.12138e-09
-1.46831e-09
-1.01939e-10
-4.01818e-10
-7.06373e-10
-1.26832e-09
-3.32705e-11
-2.20487e-10
-6.41456e-10
-1.1746e-09
-2.85099e-09
-2.8206e-09
-2.80289e-09
-2.81574e-09
-2.73661e-09
-2.64779e-09
-2.58073e-09
-2.56163e-09
-2.54342e-09
-2.41438e-09
-2.30542e-09
-2.22887e-09
-2.31104e-09
-2.13889e-09
-1.91192e-09
-1.89779e-09
-2.00588e-09
-1.86746e-09
-1.62022e-09
-1.50504e-09
-1.86007e-09
-1.56939e-09
-1.23577e-09
-1.04694e-09
-1.46831e-09
-1.27758e-09
-8.64615e-10
-1.26832e-09
-8.91421e-10
-5.44812e-10
-1.1746e-09
-7.7954e-10
-1.77774e-10
)
;
    }
    procBoundary2to0
    {
        type            processor;
        value           nonuniform List<scalar> 
44
(
-1.89128e-09
-1.5499e-09
-1.14442e-09
-6.82277e-10
-2.86656e-10
-5.52925e-11
-2.8423e-09
-2.52531e-09
-2.39445e-09
-2.39445e-09
-1.5678e-09
-1.2064e-09
-9.13475e-10
-3.07527e-10
1.75103e-10
5.71359e-10
-2.73474e-09
-2.428e-09
-2.0415e-09
-1.5678e-09
-1.2064e-09
-1.2064e-09
-4.36513e-10
4.40006e-10
8.48158e-10
1.0346e-09
-2.71161e-09
-2.33493e-09
-1.91959e-09
-1.50309e-09
-9.23405e-10
-4.36513e-10
4.40006e-10
4.40006e-10
1.07009e-09
1.50289e-09
-2.7073e-09
-2.40012e-09
-1.94733e-09
-1.3613e-09
-8.456e-10
-1.62935e-10
6.55248e-10
1.07009e-09
)
;
    }
    procBoundary2to3
    {
        type            processor;
        value           nonuniform List<scalar> 
12
(
3.87205e-10
9.27e-11
-4.55546e-10
-1.04171e-09
9.524e-10
6.68033e-10
1.40477e-11
-4.28016e-10
1.69452e-09
1.33701e-09
8.09238e-10
2.12293e-10
)
;
    }
    procBoundary2to6
    {
        type            processor;
        value           nonuniform List<scalar> 
32
(
1.289e-09
7.49992e-11
7.30235e-10
-7.76629e-10
-2.99984e-10
2.80234e-12
-2.69666e-09
-2.38599e-09
-1.94368e-09
-1.40702e-09
-8.4863e-10
-3.29447e-10
1.03736e-10
1.289e-09
7.49992e-11
5.91399e-10
-2.71682e-09
-2.50454e-09
-2.13616e-09
-1.65855e-09
-1.24057e-09
-7.53905e-10
7.49992e-11
-7.76629e-10
-2.29152e-10
-2.79664e-09
-2.55676e-09
-2.29539e-09
-1.84296e-09
-1.52725e-09
-7.76629e-10
-1.05415e-09
)
;
    }
}


// ************************************************************************* //
