/*--------------------------------*- C++ -*----------------------------------*\
| =========                 |                                                 |
| \\      /  F ield         | OpenFOAM: The Open Source CFD Toolbox           |
|  \\    /   O peration     | Version:  4.x                                   |
|   \\  /    A nd           | Web:      www.OpenFOAM.org                      |
|    \\/     M anipulation  |                                                 |
\*---------------------------------------------------------------------------*/
FoamFile
{
    version     2.0;
    format      ascii;
    class       volScalarField;
    location    "32";
    object      QWallFluid;
}
// * * * * * * * * * * * * * * * * * * * * * * * * * * * * * * * * * * * * * //

dimensions      [1 -1 -3 0 0 0 0];

internalField   nonuniform List<scalar> 
114
(
5.27628e+08
9.28836e+08
5.89956e+08
9.61015e+08
6.2596e+08
9.8956e+08
8.46512e+08
4.28288e+08
8.78566e+08
4.9365e+08
9.04241e+08
5.35383e+08
9.2791e+08
5.57918e+08
9.52266e+08
8.52825e+08
4.46988e+08
8.94194e+08
5.33516e+08
9.32371e+08
5.91489e+08
9.6354e+08
6.27166e+08
9.91828e+08
1.70898e+09
9.67415e+08
1.83336e+09
1.20191e+09
1.9611e+09
1.3874e+09
2.07652e+09
1.51863e+09
2.16121e+09
0
0
0
0
0
0
0
0
0
0
0
0
0
0
0
0
0
0
0
0
0
0
8.42337e+08
4.41879e+08
8.73983e+08
5.03648e+08
9.0628e+08
5.52307e+08
9.35897e+08
5.83166e+08
9.63797e+08
0
0
0
0
0
0
0
0
0
0
0
0
0
0
0
0
0
0
0
0
8.34711e+08
4.15528e+08
8.49921e+08
4.48476e+08
8.68984e+08
4.77525e+08
8.79324e+08
4.89499e+08
8.98327e+08
0
0
0
0
0
0
0
0
0
0
0
0
0
0
0
8.27829e+08
4.17509e+08
8.39729e+08
4.40923e+08
8.52452e+08
4.60209e+08
)
;

boundaryField
{
    inlet
    {
        type            calculated;
        value           uniform 0;
    }
    outlet
    {
        type            calculated;
        value           nonuniform 0();
    }
    wall
    {
        type            calculated;
        value           uniform 0;
    }
    procBoundary2to0
    {
        type            processor;
        value           nonuniform List<scalar> 
44
(
5.27062e+08
9.31343e+08
5.84718e+08
9.63113e+08
6.1867e+08
9.77903e+08
8.59234e+08
4.47745e+08
8.97497e+08
8.97497e+08
0
0
0
0
0
0
0
0
0
0
0
0
0
0
0
0
0
0
0
0
0
0
0
0
0
0
0
0
0
0
0
0
0
0
)
;
    }
    procBoundary2to3
    {
        type            processor;
        value           nonuniform List<scalar> 
12
(
6.36475e+08
5.66969e+08
6.4643e+08
1.60348e+09
0
0
0
5.97228e+08
0
0
0
4.90433e+08
)
;
    }
    procBoundary2to6
    {
        type            processor;
        value           nonuniform List<scalar> 
32
(
0
0
0
8.66606e+08
4.74623e+08
8.80183e+08
0
0
0
0
0
0
0
0
0
0
0
0
0
0
0
0
0
8.66606e+08
0
8.269e+08
4.11349e+08
8.32329e+08
4.23805e+08
8.31384e+08
8.66606e+08
4.16644e+08
)
;
    }
}


// ************************************************************************* //
