/*--------------------------------*- C++ -*----------------------------------*\
| =========                 |                                                 |
| \\      /  F ield         | OpenFOAM: The Open Source CFD Toolbox           |
|  \\    /   O peration     | Version:  4.x                                   |
|   \\  /    A nd           | Web:      www.OpenFOAM.org                      |
|    \\/     M anipulation  |                                                 |
\*---------------------------------------------------------------------------*/
FoamFile
{
    version     2.0;
    format      ascii;
    class       volVectorField;
    location    "32";
    object      U;
}
// * * * * * * * * * * * * * * * * * * * * * * * * * * * * * * * * * * * * * //

dimensions      [0 1 -1 0 0 0 0];

internalField   nonuniform List<vector> 
114
(
(0.0167496 -0.000139476 -0.000828036)
(0.0340019 -0.000192472 -0.00154439)
(0.0191998 -0.000146032 -0.000733313)
(0.035593 -0.000183903 -0.00115316)
(0.0207665 2.50584e-05 -0.000419971)
(0.0370523 -1.04943e-05 -0.000773836)
(0.0299442 0.000148663 -0.00135667)
(0.0128514 9.33272e-05 -0.000800257)
(0.0315636 0.000293008 -0.00158843)
(0.0153721 0.000197656 -0.000749692)
(0.0329965 0.000205315 -0.00132631)
(0.017102 5.06643e-05 -0.000643998)
(0.0342751 3.50626e-05 -0.00106748)
(0.0181586 -5.21932e-05 -0.000390779)
(0.0353346 1.97866e-05 -0.000689576)
(0.0300682 0.00093088 -0.00137298)
(0.013518 0.000449296 -0.000772854)
(0.0322267 0.000942227 -0.00147481)
(0.0169362 0.000528679 -0.000676822)
(0.0340488 0.000889866 -0.00116978)
(0.0193051 0.00040412 -0.000512419)
(0.0356948 0.000682965 -0.000886068)
(0.0208942 0.00019585 -0.000319922)
(0.0371818 0.000488915 -0.000660743)
(0.0300755 0.000600035 -0.00116177)
(0.0148191 0.000330347 -0.000710986)
(0.033126 0.000637657 -0.00123435)
(0.0195581 0.000350147 -0.000672856)
(0.0359602 0.000607581 -0.00101348)
(0.0233585 0.00025408 -0.000554087)
(0.038677 0.000475138 -0.000776548)
(0.0263581 5.31268e-05 -0.000380471)
(0.0409478 0.000303151 -0.000603251)
(0.00856163 -2.51323e-05 -0.0006939)
(0.0301882 5.85428e-05 -0.00137201)
(0.0071644 5.40622e-05 -0.000544407)
(0.0305639 0.000290058 -0.000676477)
(0.029834 0.000373237 -0.00233387)
(0.0107046 9.17844e-05 -0.00110704)
(0.0300157 0.000398271 -0.00245701)
(0.00952162 0.000224837 -0.000878393)
(0.0298931 0.000501246 -0.00184007)
(0.00810448 0.000114199 -0.000656548)
(0.0300827 0.000220023 -0.00123958)
(0.00661915 -4.26222e-06 -0.000442472)
(0.0303415 0.000119048 -0.000790934)
(0.0299093 0.00111642 -0.00239131)
(0.0113434 0.000536238 -0.00124641)
(0.0304716 0.00125988 -0.00260748)
(0.0110792 0.000505024 -0.0010345)
(0.0307203 0.00115666 -0.00203078)
(0.0105844 0.000367731 -0.000807932)
(0.0311263 0.000930162 -0.0015776)
(0.00963187 0.000136392 -0.000641453)
(0.0316531 0.000568173 -0.0010651)
(0.0299649 0.000802855 -0.00213358)
(0.0134203 0.000419155 -0.00123789)
(0.0318137 0.000879343 -0.00222828)
(0.015976 0.00037404 -0.00121713)
(0.0333958 0.000783779 -0.00181915)
(0.0179662 0.000244991 -0.00118451)
(0.0348559 0.00061997 -0.00144303)
(0.0193365 4.36782e-05 -0.000933748)
(0.0361982 0.00041541 -0.0011191)
(0.00138981 -4.87972e-05 -0.000289236)
(0.028304 -0.000237315 -0.000255107)
(0.029756 0.000604465 -0.00213287)
(0.0101362 0.000201065 -0.00106894)
(0.0293015 0.000557746 -0.00200522)
(0.00781938 0.000160448 -0.000724896)
(0.0290373 0.000385325 -0.00139045)
(0.00566447 3.71762e-05 -0.00052875)
(0.0291585 -0.000123055 -0.000875884)
(0.0037119 1.74859e-05 -0.000496982)
(0.0291445 -0.000300234 -0.00048638)
(0.0298661 0.00114283 -0.00197999)
(0.0104816 0.000458059 -0.00101552)
(0.0297362 0.00124219 -0.00187437)
(0.00857788 0.000401033 -0.000769326)
(0.0294385 0.00104199 -0.00132206)
(0.00659927 0.000215732 -0.000552295)
(0.0294171 0.000692492 -0.000764212)
(0.00426498 0.00010395 -0.000375573)
(0.029558 0.000404943 -0.000260288)
(0.0299795 0.000878085 -0.0018428)
(0.0126498 0.000499267 -0.00110593)
(0.031135 0.00113154 -0.00186512)
(0.0140591 0.00049201 -0.00111783)
(0.0320763 0.00101331 -0.00148493)
(0.015262 0.000305894 -0.00101881)
(0.0329935 0.00084841 -0.0010605)
(0.0157375 0.000267469 -0.00106452)
(0.0338757 0.000552247 -0.000842823)
(0.0296246 0.000632975 -0.00179348)
(0.00937626 0.000381023 -0.000759834)
(0.0288369 0.000875301 -0.00154129)
(0.00633461 0.00033166 -0.000556968)
(0.0282637 0.000692682 -0.00105541)
(0.00400296 0.000307452 -0.000337593)
(0.0279741 0.000429622 -0.0005663)
(0.00215482 0.000249129 -0.000272897)
(0.0296747 0.00142206 -0.00149292)
(0.0105563 0.000669996 -0.000727241)
(0.029452 0.00149301 -0.00132021)
(0.00883288 0.000496407 -0.000631245)
(0.0292433 0.00126314 -0.00102702)
(0.00738121 0.000424975 -0.000467399)
(0.0294 0.00101091 -0.000614753)
(0.0299511 0.000954129 -0.00137699)
(0.0128497 0.000497966 -0.000863333)
(0.0310021 0.000992489 -0.00143538)
(0.0139242 0.000433809 -0.00102344)
(0.0317808 0.000830749 -0.00134122)
(0.0147652 0.000372581 -0.000826633)
)
;

boundaryField
{
    inlet
    {
        type            fixedValue;
        value           uniform (0.01 0 0);
    }
    outlet
    {
        type            zeroGradient;
    }
    wall
    {
        type            fixedValue;
        value           uniform (0 0 0);
    }
    procBoundary2to0
    {
        type            processor;
        value           nonuniform List<vector> 
44
(
(0.016607 -0.000433641 -0.000875337)
(0.0338842 -0.000561165 -0.00153049)
(0.01896 -0.000213469 -0.000811357)
(0.0353919 -0.000446323 -0.00134591)
(0.0204259 -0.000152159 -0.000542585)
(0.0364558 -0.000369513 -0.00103556)
(0.0301664 -0.000423118 -0.00162593)
(0.0134612 -0.000126026 -0.000798912)
(0.0321845 -0.000260024 -0.00161502)
(0.0321845 -0.000260024 -0.00161502)
(0.0100659 -4.26161e-05 -0.00102786)
(0.0301297 -1.76201e-05 -0.00220691)
(0.00859028 -9.39689e-05 -0.00052571)
(0.0301565 -0.000378037 -0.00116153)
(0.0066194 5.49028e-05 -0.000208405)
(0.0301655 -0.000245664 -0.000516348)
(0.02976 -0.000223114 -0.00281864)
(0.0107919 -0.000112005 -0.00132586)
(0.0300169 -0.000214058 -0.00288806)
(0.0100659 -4.26161e-05 -0.00102786)
(0.0301297 -1.76201e-05 -0.00220691)
(0.0301297 -1.76201e-05 -0.00220691)
(0.00280494 -8.71937e-05 -0.000412913)
(0.0283811 -0.000184805 -0.000850889)
(0.00263428 -0.000113601 -0.00045057)
(0.0289608 -0.000222919 -5.47561e-05)
(0.0296599 -0.000151919 -0.00221014)
(0.00907006 -6.12218e-05 -0.00117753)
(0.0289309 -9.25871e-05 -0.00229704)
(0.00559649 -5.72663e-05 -0.00066624)
(0.0285035 -7.33471e-05 -0.00142572)
(0.00280494 -8.71937e-05 -0.000412913)
(0.0283811 -0.000184805 -0.000850889)
(0.0283811 -0.000184805 -0.000850889)
(0.000577656 2.66697e-05 -8.21079e-05)
(0.0269431 -9.641e-05 -0.000169951)
(0.0295156 -0.00021764 -0.00136319)
(0.00922657 -1.74272e-06 -0.000790973)
(0.0284758 5.01019e-05 -0.00129995)
(0.0052884 9.26259e-05 -0.000484824)
(0.0276052 0.000219167 -0.000939507)
(0.00236138 6.90005e-05 -0.000269775)
(0.027302 9.46442e-05 -0.000668265)
(0.000577656 2.66697e-05 -8.21079e-05)
)
;
    }
    procBoundary2to3
    {
        type            processor;
        value           nonuniform List<vector> 
12
(
(0.0215596 -4.23586e-05 -0.00023064)
(0.0186605 1.61719e-05 -0.000247884)
(0.0219685 0.000336885 -0.000203727)
(0.0285041 -9.44394e-05 -0.00040432)
(0.00577124 0.000113881 -0.000604686)
(0.00558044 1.10586e-05 -0.000417024)
(0.00848064 0.000121203 -0.000572539)
(0.0201962 -0.000201348 -0.000892009)
(0.000415188 -1.36938e-05 -0.00013342)
(0.00179891 7.07776e-05 -0.000335909)
(0.00213531 0.000101376 -0.000233689)
(0.0160034 0.00021685 -0.00123356)
)
;
    }
    procBoundary2to6
    {
        type            processor;
        value           nonuniform List<vector> 
32
(
(0.0276108 0.000252268 -3.75e-05)
(0.00626642 0.000430134 -0.000469442)
(0.0296727 0.000627238 -0.000331465)
(0.0325664 0.000616 -0.000894398)
(0.0153175 0.000186849 -0.000998988)
(0.0332585 0.000268434 -0.000806495)
(0.0294972 0.000466242 -0.000616208)
(0.00880238 0.000307915 -0.000206883)
(0.0281175 0.000558764 -0.000489557)
(0.00471741 0.000183758 -0.000159754)
(0.0276607 0.000351963 -0.000372168)
(0.00163795 8.92304e-05 -6.19974e-05)
(0.0273182 6.84599e-06 -0.000334767)
(0.0276108 0.000252268 -3.75e-05)
(0.00626642 0.000430134 -0.000469442)
(2.97016e-09 -2.30865e-09 3.70905e-09)
(0.0297514 0.00156834 -0.000434171)
(0.00986195 0.000549959 -0.000238874)
(0.0291245 0.0014665 -0.000361938)
(0.007096 0.000403088 -0.000252798)
(0.0287649 0.000973641 -0.00026998)
(0.00456994 0.000264125 -0.000189595)
(0.00626642 0.000430134 -0.000469442)
(0.0325664 0.000616 -0.000894398)
(0.0284839 0.000613768 -0.000263824)
(0.0300541 0.00102654 -0.000531119)
(0.0127136 0.0005154 -0.000359262)
(0.0307688 0.00111837 -0.000559066)
(0.0133575 0.000411023 -0.000552928)
(0.0312893 0.000840759 -0.000565426)
(0.0325664 0.000616 -0.000894398)
(0.0132543 0.000317687 -0.000558153)
)
;
    }
}


// ************************************************************************* //
