/*--------------------------------*- C++ -*----------------------------------*\
  =========                 |
  \\      /  F ield         | OpenFOAM: The Open Source CFD Toolbox
   \\    /   O peration     | Website:  https://openfoam.org
    \\  /    A nd           | Version:  4.x
     \\/     M anipulation  |
\*---------------------------------------------------------------------------*/
FoamFile
{
    version     2.0;
    format      ascii;
    class       Cloud<passiveParticle>;
    location    0;
    object      positions;
}
// * * * * * * * * * * * * * * * * * * * * * * * * * * * * * * * * * * * * * //

349
(
( 0.256724 -0.0172309 0.0199636 ) 39
( 0.253876 -0.00316721 0.0336923 ) 48
( 0.257577 0.0116417 0.0209082 ) 48
( 0.421525 -0.0531827 -0.00948725 ) 10
( 0.32892 -0.0515727 0.0355679 ) 32
( 0.439877 -0.0867169 -0.00618862 ) 3
( 0.479934 -0.0721279 0.0133742 ) 5
( 0.429545 -0.0905501 0.0309618 ) 27
( 0.347153 -0.0575588 0.0230554 ) 33
( 0.469203 -0.0594056 0.0236894 ) 37
( 0.438844 -0.021044 0.0178056 ) 45
( 0.477735 -0.0231346 -0.00029384 ) 20
( 0.344741 -0.0902196 0.00351999 ) 0
( 0.432091 -0.040934 0.0119059 ) 18
( 0.456858 -0.0434113 0.000600381 ) 11
( 0.288363 -0.0166839 -0.00545304 ) 13
( 0.374004 -0.0738029 0.00164862 ) 1
( 0.403157 -0.057819 -0.00420585 ) 9
( 0.281355 -0.0346833 -0.00980864 ) 13
( 0.345527 -0.0182519 0.00422132 ) 15
( 0.393508 -0.0731509 0.0035874 ) 2
( 0.283771 -0.0296902 0.00901226 ) 13
( 0.322427 -0.0257177 -0.0089212 ) 14
( 0.334341 -0.0747785 -0.00354595 ) 0
( 0.364304 -0.08432 0.0306627 ) 25
( 0.363429 -0.0224477 -0.00301229 ) 16
( 0.489688 -0.044812 0.0248255 ) 38
( 0.436129 -0.0902883 0.0126578 ) 3
( 0.481902 -0.0719177 -0.00619097 ) 5
( 0.371036 -0.0543898 0.00545312 ) 8
( 0.433103 -0.0550383 0.0260978 ) 36
( 0.449015 -0.0717805 0.00270775 ) 4
( 0.3132 -0.0762504 0.0169129 ) 23
( 0.391831 -0.0907309 0.024327 ) 26
( 0.349133 -0.0717739 0.00932885 ) 0
( 0.419191 -0.0312275 0.0283517 ) 45
( 0.398537 -0.0880828 -0.0088817 ) 2
( 0.42198 -0.0773428 0.0178732 ) 27
( 0.31138 -0.0569955 0.0226453 ) 32
( 0.425528 -0.0298259 -0.00905049 ) 18
( 0.452573 -0.0666798 0.0314195 ) 37
( 0.466101 -0.0316927 -0.0133758 ) 19
( 0.401962 -0.026227 0.0156718 ) 44
( 0.340716 -0.0563011 -0.00506869 ) 7
( 0.325906 -0.0242153 0.0105662 ) 14
( 0.361046 -0.0862823 -0.00685166 ) 0
( 0.322645 -0.0622953 0.00670212 ) 6
( 0.38465 -0.0385373 0.0238728 ) 43
( 0.38396 -0.0577453 0.0193634 ) 34
( 0.278686 -0.0598747 0.018979 ) 31
( 0.32299 -0.0593641 -0.0131065 ) 6
( 0.404088 -0.0435016 0.0245147 ) 35
( 0.347348 -0.0902417 0.0230242 ) 24
( 0.455224 -0.0175885 0.0285367 ) 46
( 0.391574 -0.0281798 -0.00112572 ) 17
( 0.261133 -0.0718713 0.0226258 ) 21
( 0.454678 -0.0905034 0.006317 ) 4
( 0.385003 -0.0904891 0.00590694 ) 1
( 0.359945 -0.0416372 -0.00413229 ) 15
( 0.490517 -0.0171351 0.0130908 ) 20
( 0.465656 -0.0617981 0.0045224 ) 11
( 0.489218 -0.0557138 0.00818327 ) 12
( 0.474747 -0.0904969 0.0200154 ) 29
( 0.49039 -0.0361674 0.00702466 ) 20
( 0.420755 -0.0902042 -0.00420472 ) 3
( 0.453697 -0.034136 0.0176421 ) 46
( 0.421426 -0.0245158 0.00973946 ) 18
( 0.417346 -0.0534485 0.0141226 ) 10
( 0.356662 -0.0318981 0.0130618 ) 15
( 0.331242 -0.0475402 0.0164692 ) 32
( 0.376885 -0.0211441 0.0283481 ) 43
( 0.272872 -0.0274601 0.0251468 ) 39
( 0.449859 -0.0556051 0.0147514 ) 37
( 0.357491 -0.0204935 0.0287999 ) 42
( 0.265898 -0.0459606 0.0249089 ) 30
( 0.382316 -0.0449669 -0.00797601 ) 8
( 0.447169 -0.0263473 0.000517554 ) 19
( 0.403877 -0.0667922 0.0187122 ) 35
( 0.303188 -0.0290645 0.00269075 ) 13
( 0.313721 -0.0385752 0.0162262 ) 41
( 0.45835 -0.0850358 -0.0125378 ) 4
( 0.366722 -0.0470805 0.0242037 ) 34
( 0.365058 -0.0664158 0.019834 ) 34
( 0.322296 -0.0438263 -0.000884829 ) 6
( 0.473322 -0.0488925 -0.00761798 ) 12
( 0.471821 -0.0294156 0.0248313 ) 46
( 0.479668 -0.0884959 0.039454 ) 29
( 0.311475 -0.0419628 0.0354155 ) 41
( 0.358817 -0.0640523 -0.00611842 ) 7
( 0.459135 -0.0651106 -0.0136981 ) 11
( 0.365948 -0.0900832 0.0119094 ) 1
( 0.333135 -0.0747674 0.0206413 ) 23
( 0.453961 -0.0473228 0.0322079 ) 37
( 0.291583 -0.0718696 0.0280155 ) 22
( 0.341744 -0.0384966 0.00278653 ) 15
( 0.473007 -0.0900848 -0.000537316 ) 5
( 0.490961 -0.0542923 -0.0114599 ) 12
( 0.316621 -0.0223929 0.0279956 ) 41
( 0.410664 -0.0901613 0.0278871 ) 26
( 0.411526 -0.0393491 0.0013849 ) 17
( 0.433256 -0.0603165 0.00491307 ) 10
( 0.489628 -0.0631295 0.0313644 ) 38
( 0.393967 -0.0454893 0.00791258 ) 9
( 0.381118 -0.0749193 0.0277057 ) 25
( 0.473219 -0.0443218 0.0119098 ) 12
( 0.33991 -0.0294675 0.0232211 ) 42
( 0.461421 -0.0762023 0.0172468 ) 28
( 0.375095 -0.0346295 0.00733106 ) 16
( 0.269336 -0.0900812 0.0190306 ) 21
( 0.490003 -0.0900061 -0.0119888 ) 5
( 0.438658 -0.0440458 -0.00613263 ) 10
( 0.316586 -0.0901332 0.0302971 ) 23
( 0.379382 -0.0901177 -0.0131431 ) 1
( 0.293575 -0.0442359 0.0270183 ) 31
( 0.406639 -0.087054 0.00904117 ) 2
( 0.417587 -0.0710193 -0.000331201 ) 10
( 0.373788 -0.0405574 0.0416079 ) 43
( 0.453009 -0.0904443 0.0274673 ) 28
( 0.472796 -0.045242 0.0363132 ) 38
( 0.274345 0.00491506 0.0287991 ) 48
( 0.491079 -0.0817026 0.0257212 ) 29
( 0.437997 -0.0363939 0.029965 ) 45
( 0.490487 -0.090133 0.00790981 ) 5
( 0.342112 -0.0439907 0.0523525 ) 62
( 0.323077 -0.0609162 0.0518837 ) 61
( 0.282734 -0.0108411 0.0551687 ) 78
( 0.267483 -0.0900568 0.0394139 ) 21
( 0.383266 -0.0241204 0.0467841 ) 72
( 0.398375 -0.0905328 0.0519936 ) 55
( 0.423492 -0.0351852 0.057165 ) 74
( 0.348313 -0.0706679 0.0551795 ) 62
( 0.340795 -0.0903865 0.056968 ) 53
( 0.489931 -0.033916 -0.012537 ) 20
( 0.296957 0.00147525 0.0483398 ) 78
( 0.290039 -0.0247127 0.0432393 ) 69
( 0.328178 -0.00943297 0.0488925 ) 79
( 0.485178 -0.0234445 0.0484676 ) 76
( 0.272251 -0.0730432 0.0575496 ) 50
( 0.38753 -0.0553636 0.0522675 ) 63
( 0.439511 -0.0685638 0.0540231 ) 65
( 0.265912 -0.0536288 0.0519673 ) 59
( 0.461672 -0.090468 0.0454369 ) 57
( 0.45438 -0.0170903 0.0576877 ) 75
( 0.490398 -0.0902839 0.0771994 ) 89
( 0.312806 -0.0416574 0.0677949 ) 70
( 0.299462 -0.0581131 0.0590563 ) 60
( 0.362652 -0.0342111 0.0567196 ) 72
( 0.374949 -0.090302 0.0582926 ) 54
( 0.420834 -0.0739511 0.0571584 ) 56
( 0.371212 -0.0561775 0.0634338 ) 63
( 0.456414 -0.0597001 0.0490749 ) 66
( 0.285383 -0.0901601 0.058124 ) 51
( 0.489796 -0.0551814 0.0589937 ) 67
( 0.326811 -0.0777044 0.0613603 ) 52
( 0.348871 0.0105359 0.0618124 ) 80
( 0.438739 -0.0481419 0.0575797 ) 65
( 0.471393 -0.0734315 0.0600529 ) 57
( 0.431599 -0.0901416 0.0611601 ) 56
( 0.335893 -0.0240979 0.059869 ) 71
( 0.462399 -0.0356482 0.0684246 ) 75
( 0.284552 -0.029714 0.061612 ) 69
( 0.401447 -0.0431556 0.0581118 ) 64
( 0.368773 -0.0152842 0.0572329 ) 72
( 0.324386 0.00757602 0.0590546 ) 79
( 0.284276 0.00673454 0.0638679 ) 78
( 0.387043 -0.0747611 0.0528543 ) 54
( 0.434825 -0.0199451 0.0631252 ) 74
( 0.310974 -0.0258318 0.0467205 ) 70
( 0.335862 -0.056887 0.0662101 ) 62
( 0.381011 -0.0388179 0.0600759 ) 72
( 0.256333 -0.0205638 0.0424965 ) 39
( 0.255124 -0.0416646 0.0408691 ) 39
( 0.266339 -0.0221095 0.059377 ) 68
( 0.40302 -0.0237121 0.0549637 ) 73
( 0.45512 -0.0398912 0.0505327 ) 75
( 0.417607 -0.0902939 0.0467063 ) 56
( 0.310816 -0.0094625 0.0576022 ) 79
( 0.367615 -0.0727036 0.0532164 ) 54
( 0.425655 -0.0572548 0.0466184 ) 65
( 0.33703 -0.0704054 0.0393509 ) 33
( 0.359423 -0.0519634 0.0486657 ) 62
( 0.472317 -0.0688268 0.0408432 ) 38
( 0.25586 -0.0756178 0.0468759 ) 50
( 0.374406 -0.0599625 0.0384196 ) 34
( 0.297259 -0.0418133 0.0488809 ) 69
( 0.35588 -0.0875715 0.0703566 ) 53
( 0.421068 -0.0529757 0.0654596 ) 65
( 0.261167 0.0139146 0.039962 ) 48
( 0.298285 -0.0256745 0.0214721 ) 40
( 0.299847 -0.0901862 0.044071 ) 51
( 0.465981 -0.0249106 0.0434636 ) 75
( 0.35416 -0.00772259 0.0729666 ) 111
( 0.406795 -0.0618912 0.0505173 ) 64
( 0.412555 -0.0438182 0.0419945 ) 35
( 0.434567 -0.0723421 0.0352919 ) 27
( 0.272656 -0.0696263 0.0381743 ) 30
( 0.318064 -0.070557 0.0351476 ) 32
( 0.473516 -0.0158517 0.0617405 ) 76
( 0.308407 -0.074075 0.0518355 ) 52
( 0.490173 -0.0740045 0.0479577 ) 58
( 0.380673 -0.0901671 0.0399871 ) 25
( 0.490587 -0.0261558 0.0302268 ) 47
( 0.338414 0.00716655 0.045381 ) 80
( 0.490682 -0.0418555 0.0443862 ) 76
( 0.349429 -0.0254907 0.0459136 ) 71
( 0.322933 -0.0411789 0.0513822 ) 70
( 0.289322 -0.0736908 0.0476161 ) 51
( 0.262193 -0.0901494 0.0585284 ) 50
( 0.272565 -0.0334345 0.0439864 ) 68
( 0.412225 -0.0894764 0.0658966 ) 55
( 0.40311 -0.0603535 0.0695195 ) 64
( 0.350577 -0.0416345 0.0344388 ) 42
( 0.39842 -0.0775531 0.0370842 ) 26
( 0.393384 -0.0400893 0.0409792 ) 44
( 0.334742 -0.0900895 0.0381227 ) 24
( 0.484351 -0.090188 0.0585324 ) 58
( 0.280953 -0.0551305 0.0641265 ) 60
( 0.285345 -0.0902936 0.0307601 ) 22
( 0.301027 -0.0113854 0.0344546 ) 49
( 0.414597 -0.0164224 0.069068 ) 73
( 0.358168 -0.0902292 0.0482406 ) 53
( 0.392569 -0.0896805 0.0709767 ) 55
( 0.442406 -0.0879046 0.0446863 ) 56
( 0.490855 -0.0351185 0.063807 ) 76
( 0.35615 -0.0467264 0.0723775 ) 93
( 0.415532 -0.0685717 0.0343452 ) 35
( 0.452417 -0.0818028 0.0599638 ) 57
( 0.407376 0.00554506 0.0731126 ) 113
( 0.302767 0.00741168 0.0289981 ) 49
( 0.316502 -0.0229695 0.0730468 ) 101
( 0.25016 -0.0738209 0.0658633 ) 50
( 0.282589 -0.052721 0.0412307 ) 31
( 0.395979 -0.0582621 0.0346556 ) 35
( 0.251922 -0.0601203 0.0356179 ) 30
( 0.304739 -0.090055 0.063629 ) 51
( 0.295228 -0.0462972 0.0741359 ) 91
( 0.386923 -0.0193673 0.0653644 ) 72
( 0.402479 -0.0236012 0.035346 ) 44
( 0.47451 -0.0392535 0.0543609 ) 76
( 0.441374 -0.0253119 0.0454584 ) 74
( 0.356364 -0.0676695 0.0374722 ) 33
( 0.304658 0.0125569 0.0622286 ) 78
( 0.301906 -0.0597195 0.0396607 ) 31
( 0.273559 -0.0124619 0.0378384 ) 48
( 0.266146 -0.0016259 0.0647075 ) 77
( 0.33621 0.00866111 0.0763515 ) 111
( 0.444743 -0.0610317 0.0713564 ) 66
( 0.289014 -0.0129575 0.0903584 ) 109
( 0.490051 -0.0730057 0.0677221 ) 58
( 0.463168 -0.0567526 0.0669547 ) 66
( 0.380452 -0.0729872 0.0714933 ) 85
( 0.329635 -0.00852861 0.0698879 ) 79
( 0.443694 -0.0353749 0.0713268 ) 74
( 0.341708 -0.0744192 0.0729776 ) 84
( 0.419573 -0.020104 0.0449108 ) 74
( 0.467089 -0.0905528 0.0689978 ) 57
( 0.348318 -0.00758099 0.0541768 ) 80
( 0.427344 -0.0692113 0.0751189 ) 96
( 0.318679 -0.0906808 0.0497677 ) 52
( 0.40902 -0.0349647 0.0732983 ) 104
( 0.385714 -0.0546418 0.076107 ) 94
( 0.371155 -0.0279386 0.0734431 ) 103
( 0.252439 -0.0144904 0.0713409 ) 68
( 0.335822 -0.0386546 0.0731696 ) 102
( 0.294866 -0.0271926 0.0782687 ) 100
( 0.478164 -0.0466071 0.0725305 ) 98
( 0.390103 -0.0350549 0.0766412 ) 104
( 0.37382 -0.00834326 0.0751026 ) 112
( 0.289396 -0.0730401 0.0672424 ) 51
( 0.425678 -0.0902279 0.080217 ) 87
( 0.330821 -0.0270839 0.0405589 ) 41
( 0.267716 -0.0398741 0.0681778 ) 68
( 0.426722 -0.0298794 0.0780751 ) 105
( 0.31261 -0.000353969 0.0747787 ) 110
( 0.477479 -0.0272958 0.0770479 ) 107
( 0.313128 -0.0670224 0.069459 ) 61
( 0.359055 -0.0896792 0.0902274 ) 84
( 0.351555 -0.0272036 0.0727391 ) 102
( 0.398685 -0.0692833 0.0888871 ) 95
( 0.383289 0.00879736 0.0784558 ) 112
( 0.362397 -0.0642458 0.079627 ) 94
( 0.27759 -0.0148906 0.0738985 ) 99
( 0.399 -0.0178541 0.0808022 ) 104
( 0.295788 -0.00941152 0.0699036 ) 78
( 0.364277 0.00908605 0.0737505 ) 112
( 0.264637 -0.0623434 0.0720821 ) 90
( 0.32815 -0.0733272 0.0900825 ) 83
( 0.32222 -0.089457 0.0798674 ) 83
( 0.432085 -0.0501812 0.081614 ) 96
( 0.406581 -0.0905325 0.0849869 ) 86
( 0.271087 -0.0903544 0.0759648 ) 81
( 0.373852 -0.0904787 0.0773425 ) 85
( 0.281782 -0.0627058 0.0823212 ) 91
( 0.37558 -0.0453632 0.0902479 ) 94
( 0.34505 -0.00707623 0.090338 ) 111
( 0.459386 -0.0735772 0.075906 ) 88
( 0.415913 0.000558594 0.0900818 ) 113
( 0.454906 -0.0473557 0.0821341 ) 97
( 0.2878 0.00574486 0.0843565 ) 109
( 0.386357 -0.00668139 0.0904644 ) 112
( 0.474176 -0.0823061 0.0847977 ) 89
( 0.290717 -0.0901046 0.0774071 ) 82
( 0.380351 -0.0257986 0.0906065 ) 103
( 0.41416 -0.057183 0.0854359 ) 95
( 0.333012 -0.0215975 0.0841303 ) 101
( 0.352686 -0.0385484 0.0901354 ) 102
( 0.251484 -0.0205272 0.0901938 ) 99
( 0.379018 -0.0665964 0.090288 ) 94
( 0.447679 -0.0194187 0.0823913 ) 106
( 0.438115 -0.0788247 0.0904245 ) 87
( 0.270516 0.0128221 0.0903878 ) 108
( 0.256363 0.00169592 0.0823176 ) 108
( 0.490468 -0.0396337 0.085924 ) 107
( 0.47281 -0.0630693 0.0900762 ) 98
( 0.339236 -0.090111 0.0901939 ) 84
( 0.308215 -0.0354377 0.0902728 ) 101
( 0.340435 -0.0541698 0.0900609 ) 93
( 0.269089 -0.0295339 0.0903114 ) 99
( 0.490397 -0.0588683 0.08156 ) 98
( 0.395918 -0.0472095 0.0906874 ) 95
( 0.36393 -0.0011558 0.0904315 ) 112
( 0.414552 -0.0385906 0.0910117 ) 104
( 0.300742 -0.0731648 0.0830531 ) 82
( 0.269284 -0.00993973 0.0906475 ) 108
( 0.320926 -0.0555584 0.0829178 ) 92
( 0.279552 -0.0804489 0.0904461 ) 82
( 0.398956 0.0103555 0.0903252 ) 113
( 0.444803 -0.0903022 0.0758671 ) 88
( 0.325642 -0.00257419 0.0900957 ) 110
( 0.30541 -0.0903223 0.0905384 ) 82
( 0.348074 -0.0723919 0.090783 ) 84
( 0.451162 -0.0643142 0.0905967 ) 97
( 0.471626 -0.0411629 0.0904298 ) 106
( 0.441881 -0.0358746 0.0908452 ) 105
( 0.2682 -0.0487046 0.0859396 ) 90
( 0.31013 -0.0151716 0.0901539 ) 101
( 0.416262 -0.0190454 0.0906435 ) 104
( 0.386336 -0.0850772 0.0907223 ) 85
( 0.490375 -0.0205096 0.0902957 ) 107
( 0.465392 -0.0224165 0.0909437 ) 106
( 0.285612 -0.0401298 0.0901785 ) 100
( 0.306364 0.00885678 0.0905518 ) 110
( 0.417504 -0.0755571 0.0906611 ) 87
( 0.490844 -0.0761904 0.0908217 ) 89
( 0.32752 -0.0391649 0.0907241 ) 101
( 0.457753 -0.0903262 0.0904758 ) 88
( 0.29793 -0.0555254 0.0907707 ) 91
( 0.264756 -0.0674842 0.0908015 ) 90
( 0.361213 -0.0207063 0.0901586 ) 103
)
