/*--------------------------------*- C++ -*----------------------------------*\
| =========                 |                                                 |
| \\      /  F ield         | OpenFOAM: The Open Source CFD Toolbox           |
|  \\    /   O peration     | Version:  4.x                                   |
|   \\  /    A nd           | Web:      www.OpenFOAM.org                      |
|    \\/     M anipulation  |                                                 |
\*---------------------------------------------------------------------------*/
FoamFile
{
    version     2.0;
    format      ascii;
    class       volVectorField;
    location    "15";
    object      DDtUrel;
}
// * * * * * * * * * * * * * * * * * * * * * * * * * * * * * * * * * * * * * //

dimensions      [0 1 -2 0 0 0 0];

internalField   nonuniform List<vector> 
114
(
(0.000955415 2.2941e-05 1.87487e-06)
(0.000769874 7.95427e-05 1.04839e-06)
(0.000530878 6.1549e-05 3.07833e-05)
(0.000434512 -3.60916e-06 8.54658e-05)
(0.000361606 -3.70137e-05 0.000123938)
(0.000157465 -8.30867e-05 0.000146878)
(0.002031 8.82439e-06 -0.000140823)
(0.00145789 -7.71401e-06 -6.41523e-05)
(0.00117667 -1.80133e-05 -1.04763e-05)
(0.00107696 -2.05408e-05 1.41616e-05)
(0.000922026 5.66059e-05 -6.54025e-06)
(0.000360981 2.59709e-05 3.04943e-05)
(0.000247478 -6.52367e-05 0.000109438)
(0.000246035 -6.41461e-05 0.000139173)
(0.000118467 -7.40964e-05 0.000150877)
(0.00206349 2.41349e-05 -0.00013091)
(0.00150754 -1.02926e-05 -4.93358e-05)
(0.0012591 -2.97332e-05 1.12118e-05)
(0.00125628 -3.62253e-05 4.1789e-05)
(0.00133836 -9.24152e-06 9.37318e-06)
(9.09082e-06 -2.07114e-05 6.68726e-05)
(0.000110186 -6.82706e-05 0.000154986)
(0.00022246 -6.00261e-05 0.000156643)
(0.000140898 -4.5489e-05 0.00015817)
(0.00210037 2.88251e-05 -0.000117881)
(0.00155432 6.19388e-08 -3.97691e-05)
(0.00130499 -1.62485e-05 1.49194e-05)
(0.00126316 -1.35644e-05 3.12778e-05)
(0.0011181 -3.23535e-05 -2.13016e-05)
(0.000309512 -2.43603e-05 2.68702e-05)
(0.000199765 -2.17876e-05 0.000134535)
(0.000260155 -3.89348e-05 0.000152036)
(0.000213518 -2.13869e-05 0.000149343)
(0.000441719 5.06492e-05 1.96713e-05)
(0.000358458 6.93596e-06 7.29398e-05)
(0.000303288 -2.50448e-05 0.00011854)
(0.000141031 -8.3659e-05 0.000118147)
(0.00194731 1.87114e-05 -0.000180272)
(0.00133852 2.07046e-06 -7.36834e-05)
(0.00102565 -2.30498e-06 -1.43673e-05)
(0.000873867 2.33948e-06 1.08647e-05)
(0.000690888 4.6294e-05 -2.13992e-05)
(0.000350368 2.94211e-05 1.63642e-05)
(0.000223757 -3.12094e-05 9.59678e-05)
(0.000193952 -5.27532e-05 0.000125542)
(8.39189e-05 -7.5481e-05 0.000122781)
(0.0019833 3.87758e-05 -0.000166886)
(0.00138872 4.38411e-06 -5.97087e-05)
(0.00109905 -1.24315e-05 3.46444e-06)
(0.000995852 -1.43817e-05 3.00611e-05)
(0.000846552 6.50228e-06 -3.56908e-05)
(0.00024079 1.56257e-06 1.37629e-05)
(0.000139606 -3.63359e-05 0.000126668)
(0.000168474 -4.86657e-05 0.000139757)
(9.52077e-05 -5.49643e-05 0.000136225)
(0.00202791 4.45068e-05 -0.000154493)
(0.0014461 1.15832e-05 -5.06917e-05)
(0.00115984 -8.56652e-06 6.10137e-06)
(0.00104175 -1.12153e-05 2.00785e-05)
(0.000840507 -1.72048e-05 -5.17127e-05)
(0.000345566 -1.32142e-05 -2.60289e-06)
(0.00019356 -1.76531e-05 0.000116116)
(0.000215304 -3.46871e-05 0.000140053)
(0.000166491 -3.4968e-05 0.000138398)
(0.000273246 -2.77467e-05 6.9e-05)
(0.000138968 -8.01354e-05 5.82772e-05)
(0.00185556 3.29472e-05 -0.000173264)
(0.00121271 1.2924e-05 -7.2745e-05)
(0.000873342 8.1751e-06 -2.28962e-05)
(0.000689016 1.13321e-05 3.03859e-07)
(0.000522866 3.13727e-05 -1.91052e-05)
(0.000343476 2.37885e-05 1.15797e-05)
(0.000240486 -1.30949e-05 7.04531e-05)
(0.000163461 -5.13659e-05 9.44045e-05)
(5.88089e-05 -7.08434e-05 7.96122e-05)
(0.00189545 5.73369e-05 -0.000164787)
(0.00126233 1.9732e-05 -6.63393e-05)
(0.000931001 3.36375e-06 -1.85038e-05)
(0.000753586 -5.98922e-07 -1.79879e-07)
(0.000567218 8.51798e-06 -4.07959e-05)
(0.000297014 5.03409e-06 -2.43149e-06)
(0.000183078 -2.03973e-05 7.26967e-05)
(0.000142605 -4.09939e-05 9.6581e-05)
(7.26296e-05 -5.42078e-05 8.71779e-05)
(0.00194494 5.9829e-05 -0.000156573)
(0.00132293 2.53999e-05 -6.27588e-05)
(0.000992841 3.66825e-06 -1.82165e-05)
(0.000812601 -2.98784e-06 -6.05686e-06)
(0.00061357 -6.17484e-06 -4.75229e-05)
(0.000333853 -1.21625e-06 -7.0064e-06)
(0.000207373 -1.14623e-05 6.92333e-05)
(0.000181821 -3.11008e-05 9.71801e-05)
(0.000143869 -4.40312e-05 9.78653e-05)
(0.00179106 3.8088e-05 -0.000154392)
(0.00112879 1.97891e-05 -6.9754e-05)
(0.000775246 1.16242e-05 -3.45802e-05)
(0.000578698 9.00516e-06 -1.58811e-05)
(0.000442363 1.64217e-05 -1.58135e-05)
(0.000333522 5.43423e-06 1.47743e-05)
(0.000279053 -7.77053e-06 5.77922e-05)
(0.000175778 -2.8953e-05 7.595e-05)
(0.00183182 6.78491e-05 -0.000145805)
(0.00117461 2.63361e-05 -6.70215e-05)
(0.00081909 8.48901e-06 -3.40356e-05)
(0.000613865 6.17126e-07 -1.56253e-05)
(0.000452151 5.11589e-06 -2.58286e-05)
(0.00030756 3.93004e-06 4.47938e-06)
(0.000220757 -1.71162e-05 4.18211e-05)
(0.00188423 7.22863e-05 -0.000144765)
(0.00123496 3.17267e-05 -6.97013e-05)
(0.000873875 9.01042e-06 -3.8711e-05)
(0.000666748 -9.16052e-07 -2.34718e-05)
(0.00048808 -2.92117e-08 -3.07195e-05)
(0.000327258 1.91438e-06 2.64359e-06)
)
;

boundaryField
{
    inlet
    {
        type            calculated;
        value           nonuniform List<vector> 
12
(
(0.00404623 -4.88619e-06 -0.000277183)
(0.00409663 0.000123276 -0.000294421)
(0.00420624 8.8542e-05 -0.000219274)
(0.00386426 3.61413e-05 -0.000682661)
(0.00390762 0.000181721 -0.000627894)
(0.00408354 0.000168919 -0.000558932)
(0.00378657 0.000138726 -0.00054723)
(0.00384346 0.00027074 -0.000535137)
(0.00404201 0.000187301 -0.000477942)
(0.0037989 0.000134246 -0.000593103)
(0.00385614 0.000278229 -0.000468188)
(0.00408844 0.000247401 -0.000483683)
)
;
    }
    outlet
    {
        type            calculated;
        value           nonuniform 0();
    }
    wall
    {
        type            calculated;
        value           nonuniform List<vector> 
66
(
(0.00404623 -4.88619e-06 -0.000277183)
(0.00409663 0.000123276 -0.000294421)
(0.00420624 8.8542e-05 -0.000219274)
(0.000767522 -0.00010021 9.11547e-06)
(0.000885237 -0.000143716 6.61524e-05)
(0.00106862 -4.41321e-05 9.89246e-05)
(0.000948905 -0.000140011 6.2588e-05)
(0.00106543 -0.000202085 0.000187104)
(0.0012188 -6.01593e-05 0.000177491)
(0.00120875 -4.67451e-05 3.54513e-05)
(0.00170072 -0.000434221 0.000124266)
(0.00230831 -0.000329147 0.000399791)
(0.00229621 0.000118898 0.000256894)
(0.000938941 0.000467253 -9.73075e-05)
(0.00213918 0.000568868 -0.000218809)
(0.00936862 -6.42336e-05 -1.00716e-06)
(0.00344404 -0.000236378 -0.00034918)
(0.000504003 0.000362105 -3.13294e-05)
(-0.00049977 0.000246191 -0.00017532)
(-0.00732983 -0.000103557 0.00036436)
(-0.00114486 -5.18884e-05 -0.00019666)
(0.000681083 -1.57733e-05 0.000143238)
(-0.000189535 -0.000647825 0.000244362)
(-0.000713158 -0.000498198 0.00072463)
(-6.22265e-05 0.000171845 0.000420198)
(0.000851621 6.85384e-06 0.000211806)
(0.000534655 -0.000159319 0.000232708)
(0.000830431 -0.000167514 0.000276451)
(0.000859223 -9.94791e-05 0.000239784)
(0.000220991 -0.00030951 0.000267535)
(0.000171095 -0.0002264 0.000265903)
(0.000252616 3.22487e-07 0.000287042)
(0.00063196 0.000120428 0.000135672)
(0.00420624 8.8542e-05 -0.000219274)
(0.00408354 0.000168919 -0.000558932)
(0.00404201 0.000187301 -0.000477942)
(0.00408844 0.000247401 -0.000483683)
(0.00106862 -4.41321e-05 9.89246e-05)
(0.000711128 -1.51179e-05 0.000132702)
(0.000453969 2.44242e-05 9.34514e-05)
(0.000404962 4.4975e-06 9.5637e-06)
(0.0012188 -6.01593e-05 0.000177491)
(0.000870948 -6.74581e-05 0.000200747)
(0.000552136 -2.40171e-05 7.63277e-05)
(0.000411894 -1.6689e-05 -5.80454e-05)
(0.00229621 0.000118898 0.000256894)
(0.00147251 -7.74049e-06 0.000313827)
(0.00079928 -2.67327e-06 0.00012202)
(0.000548872 -2.98675e-05 -2.00399e-05)
(0.00344404 -0.000236378 -0.00034918)
(0.00161838 -0.00010858 -0.000598406)
(0.000706606 -6.21421e-05 -0.000372107)
(0.000345138 -5.50171e-06 -0.000147132)
(-0.00114486 -5.18884e-05 -0.00019666)
(-0.000297164 -3.51212e-05 -0.000355383)
(-6.63037e-05 5.58447e-05 -0.000179808)
(0.000180656 2.93539e-05 4.27877e-05)
(-6.22265e-05 0.000171845 0.000420198)
(-0.000262249 7.52859e-05 0.000478263)
(-7.20978e-05 7.15118e-05 0.000166812)
(0.000859223 -9.94791e-05 0.000239784)
(0.000551234 -4.28452e-05 0.000318834)
(0.000271723 9.81663e-07 0.000182284)
(0.00063196 0.000120428 0.000135672)
(0.000429243 1.43163e-05 0.000219389)
(0.000728754 -1.77769e-05 0.000183916)
)
;
    }
    procBoundary2to0
    {
        type            processor;
        value           nonuniform List<vector> 
44
(
(0.000927765 3.79585e-05 1.50013e-06)
(0.000767112 7.26916e-05 1.29676e-05)
(0.000647003 5.93459e-05 3.57269e-05)
(0.000590908 1.79612e-05 7.18161e-05)
(0.000514823 -2.26262e-05 0.000101968)
(0.000261646 -8.63892e-05 0.000149126)
(0.00203034 5.85442e-06 -0.000148022)
(0.00144375 8.28717e-06 -6.90754e-05)
(0.00112663 9.51678e-06 -2.11925e-05)
(0.00112663 9.51678e-06 -2.11925e-05)
(0.000794117 2.80691e-05 4.65443e-06)
(0.00062269 6.13743e-05 -3.31505e-06)
(0.000532504 4.65468e-05 3.23538e-05)
(0.000507547 2.82032e-05 6.29291e-05)
(0.000480464 5.96311e-07 0.000103217)
(0.000291664 -7.46753e-05 0.000128475)
(0.0019377 6.04027e-06 -0.000188671)
(0.0013206 9.14347e-06 -7.96086e-05)
(0.000983562 1.45391e-05 -2.25209e-05)
(0.000794117 2.80691e-05 4.65443e-06)
(0.00062269 6.13743e-05 -3.31505e-06)
(0.00062269 6.13743e-05 -3.31505e-06)
(0.000385418 4.4195e-05 2.72812e-05)
(0.000332154 9.97526e-06 5.52564e-05)
(0.000478413 2.64178e-05 7.05764e-05)
(0.000369495 -5.8678e-05 5.74196e-05)
(0.00183838 4.46131e-06 -0.000177713)
(0.001191 1.0036e-05 -7.82819e-05)
(0.000841179 1.60101e-05 -2.50918e-05)
(0.000645635 2.68631e-05 4.89377e-06)
(0.000501754 4.46743e-05 8.02453e-07)
(0.000385418 4.4195e-05 2.72812e-05)
(0.000332154 9.97526e-06 5.52564e-05)
(0.000332154 9.97526e-06 5.52564e-05)
(0.000236509 -1.17074e-05 2.32973e-05)
(9.27625e-05 -6.4727e-05 6.20073e-06)
(0.00177728 -1.73158e-07 -0.000146913)
(0.00111208 1.02393e-05 -6.951e-05)
(0.000752797 1.5013e-05 -2.87908e-05)
(0.000558588 2.12649e-05 -1.04662e-06)
(0.000437459 3.12544e-05 3.58059e-06)
(0.000358947 3.28331e-05 3.26818e-05)
(0.000309331 1.34948e-05 3.97782e-05)
(0.000236509 -1.17074e-05 2.32973e-05)
)
;
    }
    procBoundary2to3
    {
        type            processor;
        value           nonuniform List<vector> 
12
(
(-0.000109205 -6.43022e-05 0.000153674)
(-5.12378e-05 -5.36865e-05 0.00015008)
(2.1728e-05 -3.16299e-05 0.000156182)
(0.000151611 -1.19158e-05 0.000152686)
(-0.000107592 -7.99505e-05 0.000114012)
(-5.07463e-05 -6.74492e-05 0.000121636)
(1.41345e-06 -5.16378e-05 0.000137363)
(8.08961e-05 -3.57107e-05 0.000141459)
(-0.000122711 -7.46119e-05 4.51844e-05)
(-7.10925e-05 -6.37803e-05 5.03079e-05)
(-2.45985e-05 -6.10144e-05 6.98536e-05)
(1.63689e-05 -6.22656e-05 9.28059e-05)
)
;
    }
    procBoundary2to6
    {
        type            processor;
        value           nonuniform List<vector> 
32
(
(3.0799e-05 -5.46676e-05 2.76149e-05)
(0.000148863 -3.97081e-05 5.73312e-05)
(5.69751e-05 -5.06637e-05 3.71528e-05)
(0.000232105 -1.39145e-05 3.81251e-05)
(0.000172783 -3.53726e-05 5.60557e-05)
(9.91139e-05 -4.60249e-05 4.61115e-05)
(0.00174505 3.92493e-05 -9.77825e-05)
(0.00106203 2.07293e-05 -5.30771e-05)
(0.000706547 1.02721e-05 -3.05968e-05)
(0.000498611 5.53777e-06 -1.2232e-05)
(0.00040239 8.00214e-06 -6.91911e-06)
(0.000331323 3.33427e-06 9.73234e-06)
(0.000429972 -1.26076e-05 2.2572e-05)
(3.0799e-05 -5.46676e-05 2.76149e-05)
(0.000148863 -3.97081e-05 5.73312e-05)
(0.00013851 -2.55816e-05 7.89834e-06)
(0.00179065 7.86609e-05 -9.70784e-05)
(0.00111698 3.07166e-05 -5.50466e-05)
(0.000750484 1.24948e-05 -3.51396e-05)
(0.000542601 4.77132e-06 -1.9341e-05)
(0.000402919 6.08623e-06 -1.80199e-05)
(0.000307406 5.32286e-06 -7.16712e-08)
(0.000148863 -3.97081e-05 5.73312e-05)
(0.000232105 -1.39145e-05 3.81251e-05)
(0.000260038 -2.92774e-05 1.49072e-05)
(0.00184345 7.45019e-05 -0.000100459)
(0.00117393 3.31172e-05 -5.83383e-05)
(0.000797644 9.66811e-06 -4.076e-05)
(0.000581709 -2.3625e-06 -2.60641e-05)
(0.000426401 1.29332e-06 -2.39843e-05)
(0.000232105 -1.39145e-05 3.81251e-05)
(0.000321558 1.17993e-05 -4.62398e-06)
)
;
    }
}


// ************************************************************************* //
