/*--------------------------------*- C++ -*----------------------------------*\
| =========                 |                                                 |
| \\      /  F ield         | OpenFOAM: The Open Source CFD Toolbox           |
|  \\    /   O peration     | Version:  4.x                                   |
|   \\  /    A nd           | Web:      www.OpenFOAM.org                      |
|    \\/     M anipulation  |                                                 |
\*---------------------------------------------------------------------------*/
FoamFile
{
    version     2.0;
    format      ascii;
    class       volScalarField;
    location    "15";
    object      Deff;
}
// * * * * * * * * * * * * * * * * * * * * * * * * * * * * * * * * * * * * * //

dimensions      [0 2 -1 0 0 0 0];

internalField   nonuniform List<scalar> 
114
(
9.91401e-08
9.91293e-08
9.92225e-08
9.91043e-08
9.92263e-08
9.91243e-08
9.9331e-08
9.91995e-08
9.92097e-08
9.91976e-08
9.90751e-08
9.91227e-08
9.89968e-08
9.89959e-08
9.90425e-08
9.94263e-08
9.92532e-08
9.92339e-08
9.92093e-08
9.9245e-08
9.92006e-08
9.92631e-08
9.91174e-08
9.90281e-08
9.9483e-08
9.94059e-08
9.9316e-08
9.93129e-08
9.93944e-08
9.9386e-08
9.94228e-08
9.92622e-08
9.92412e-08
9.85575e-08
9.8466e-08
9.86563e-08
9.85087e-08
9.90467e-08
9.89014e-08
9.87797e-08
9.87135e-08
9.86663e-08
9.86455e-08
9.84819e-08
9.85631e-08
9.86373e-08
9.90756e-08
9.8854e-08
9.87479e-08
9.87224e-08
9.87276e-08
9.87113e-08
9.86772e-08
9.86372e-08
9.86343e-08
9.9157e-08
9.90608e-08
9.88966e-08
9.88947e-08
9.88741e-08
9.88881e-08
9.88579e-08
9.88052e-08
9.88203e-08
9.82946e-08
9.82563e-08
9.87384e-08
9.87176e-08
9.85794e-08
9.84678e-08
9.84327e-08
9.83277e-08
9.82152e-08
9.82957e-08
9.83346e-08
9.88606e-08
9.87022e-08
9.85258e-08
9.83824e-08
9.84277e-08
9.84097e-08
9.83069e-08
9.83141e-08
9.82473e-08
9.89343e-08
9.87189e-08
9.86453e-08
9.85493e-08
9.86329e-08
9.8515e-08
9.84009e-08
9.85023e-08
9.83255e-08
9.86159e-08
9.83971e-08
9.8258e-08
9.82309e-08
9.81894e-08
9.8168e-08
9.81089e-08
9.80849e-08
9.86117e-08
9.84593e-08
9.8293e-08
9.82827e-08
9.8214e-08
9.81743e-08
9.80952e-08
9.8766e-08
9.85628e-08
9.84559e-08
9.83402e-08
9.83571e-08
9.82754e-08
)
;

boundaryField
{
    inlet
    {
        type            calculated;
        value           uniform 0;
    }
    outlet
    {
        type            calculated;
        value           nonuniform 0();
    }
    wall
    {
        type            calculated;
        value           uniform 0;
    }
    procBoundary2to0
    {
        type            processor;
        value           uniform 0;
    }
    procBoundary2to3
    {
        type            processor;
        value           uniform 0;
    }
    procBoundary2to6
    {
        type            processor;
        value           uniform 0;
    }
}


// ************************************************************************* //
