/*--------------------------------*- C++ -*----------------------------------*\
| =========                 |                                                 |
| \\      /  F ield         | OpenFOAM: The Open Source CFD Toolbox           |
|  \\    /   O peration     | Version:  4.x                                   |
|   \\  /    A nd           | Web:      www.OpenFOAM.org                      |
|    \\/     M anipulation  |                                                 |
\*---------------------------------------------------------------------------*/
FoamFile
{
    version     2.0;
    format      ascii;
    class       volScalarField;
    location    "15";
    object      KslPrev;
}
// * * * * * * * * * * * * * * * * * * * * * * * * * * * * * * * * * * * * * //

dimensions      [1 -3 -1 0 0 0 0];

internalField   nonuniform List<scalar> 
114
(
6697.79
2981.9
4943.27
3331.21
4906.76
3047.94
3515.38
8160.55
3543.64
7469.94
2787.34
3823.23
3556.77
5274.65
3157.21
3465.65
8623.5
3665.96
9651.63
2434.1
2859.38
4102.63
5009.36
3202.49
3379.4
7830.33
3418.01
7465.07
2536.09
3277.74
3376.74
4356.09
2916.4
8060.49
3973.44
11533.5
3982.33
3597.09
9092.6
3806.57
9799.72
3483.84
6450.05
4074.03
11224
3874.97
3544.01
9304.02
3804.99
10209.1
3016
4683.1
4243.18
9179.12
3903.39
3452.7
7986.68
3541.33
7324.38
2935.99
4307.86
3504.8
5533.76
3208.96
150365
4304.49
3658.22
9624.08
3920.03
11270.2
3832.38
9587.91
4108.21
14784.2
4128.69
3586.15
9420.89
3884.1
10818.6
3543.73
8115.08
4288.43
15358
4244.06
3487.43
8165.85
3584.19
7663.26
3231.88
5741.67
3654.22
6935.29
3525.35
3682.95
9752.53
3925.88
10586.2
3821.51
10170.9
3914.32
13791.9
3622.48
9396.24
3880.09
10049.4
3751.29
9303.76
3955.23
3492.9
7986.07
3566.93
7562.28
3375.53
6922.51
)
;

boundaryField
{
    inlet
    {
        type            zeroGradient;
    }
    outlet
    {
        type            zeroGradient;
    }
    wall
    {
        type            zeroGradient;
    }
    procBoundary2to0
    {
        type            processor;
        value           uniform 0;
    }
    procBoundary2to3
    {
        type            processor;
        value           uniform 0;
    }
    procBoundary2to6
    {
        type            processor;
        value           uniform 0;
    }
}


// ************************************************************************* //
