/*--------------------------------*- C++ -*----------------------------------*\
| =========                 |                                                 |
| \\      /  F ield         | OpenFOAM: The Open Source CFD Toolbox           |
|  \\    /   O peration     | Version:  4.x                                   |
|   \\  /    A nd           | Web:      www.OpenFOAM.org                      |
|    \\/     M anipulation  |                                                 |
\*---------------------------------------------------------------------------*/
FoamFile
{
    version     2.0;
    format      ascii;
    class       volScalarField;
    location    "15";
    object      QPartFluid;
}
// * * * * * * * * * * * * * * * * * * * * * * * * * * * * * * * * * * * * * //

dimensions      [1 -1 -3 0 0 0 0];

internalField   nonuniform List<scalar> 
114
(
7.13218e+09
5.6442e+09
3.11817e+09
5.95518e+09
2.84557e+09
3.04274e+09
5.81185e+09
6.98919e+09
6.19333e+09
4.38833e+09
7.50971e+09
5.19137e+09
7.41676e+09
7.00112e+09
4.53972e+09
3.86903e+09
6.16315e+09
5.06612e+09
5.18609e+09
5.20304e+09
6.31799e+09
3.41764e+09
6.00597e+09
6.50831e+09
3.97913e+09
3.99661e+09
5.18056e+09
4.3252e+09
3.97481e+09
4.18036e+09
3.00918e+09
4.99125e+09
3.91929e+09
1.01195e+10
1.21895e+10
6.69536e+09
1.13194e+10
4.72828e+09
8.03356e+09
9.67636e+09
9.23092e+09
9.17869e+09
7.49199e+09
1.12781e+10
9.01951e+09
6.47928e+09
5.85537e+09
1.00852e+10
1.0721e+10
9.194e+09
9.53415e+09
9.3215e+09
9.06237e+09
9.08035e+09
7.72517e+09
5.05592e+09
5.39782e+09
8.36496e+09
5.95875e+09
7.58481e+09
6.70988e+09
6.61199e+09
7.12778e+09
4.7462e+09
7.71313e+09
8.94809e+09
6.87203e+09
5.81971e+09
6.81288e+09
6.97644e+09
6.92063e+09
8.18115e+09
9.99999e+09
7.46059e+09
5.78511e+09
4.98728e+09
7.03573e+09
9.12167e+09
1.06276e+10
9.36065e+09
7.4104e+09
9.39315e+09
8.64338e+09
1.01963e+10
5.00143e+09
7.64707e+09
6.9741e+09
7.49022e+09
4.80319e+09
6.92572e+09
9.49867e+09
5.38687e+09
9.71263e+09
4.89586e+09
9.60253e+09
1.03932e+10
7.52566e+09
8.43749e+09
6.62506e+09
7.6985e+09
8.2081e+09
5.86984e+09
7.98449e+09
1.05212e+10
6.70967e+09
9.1839e+09
7.91248e+09
1.02577e+10
4.24634e+09
6.33143e+09
7.48397e+09
7.23407e+09
6.74484e+09
6.46197e+09
)
;

boundaryField
{
    inlet
    {
        type            calculated;
        value           uniform 0;
    }
    outlet
    {
        type            calculated;
        value           nonuniform 0();
    }
    wall
    {
        type            calculated;
        value           uniform 0;
    }
    procBoundary2to0
    {
        type            processor;
        value           nonuniform List<scalar> 
44
(
5.06468e+09
5.59908e+09
4.92746e+09
4.00116e+09
5.26292e+09
8.53822e+09
2.96881e+09
4.55427e+09
3.51759e+09
3.51759e+09
5.57984e+09
1.14654e+10
7.79243e+09
1.04946e+10
6.96046e+09
6.27863e+09
7.9579e+09
7.11741e+09
7.81137e+09
5.57984e+09
1.14654e+10
1.14654e+10
8.25968e+09
8.63473e+09
6.09942e+09
5.2987e+09
6.89965e+09
8.7684e+09
9.59962e+09
9.18841e+09
1.00847e+10
8.25968e+09
8.63473e+09
8.63473e+09
5.81827e+09
2.6373e+09
4.83236e+09
6.82053e+09
9.71889e+09
1.06819e+10
5.57932e+09
1.02862e+10
8.61072e+09
5.81827e+09
)
;
    }
    procBoundary2to3
    {
        type            processor;
        value           nonuniform List<scalar> 
12
(
8.59838e+09
6.50974e+09
6.70073e+09
4.32827e+09
8.54969e+09
7.83213e+09
1.28142e+10
8.42092e+09
8.11573e+09
9.75269e+09
6.71004e+09
6.03874e+09
)
;
    }
    procBoundary2to6
    {
        type            processor;
        value           nonuniform List<scalar> 
32
(
8.20836e+09
6.79185e+09
8.86652e+09
5.58301e+09
6.15149e+09
5.52626e+09
9.9409e+09
9.00129e+09
6.08015e+09
8.16096e+09
1.11637e+10
6.04465e+09
8.64631e+09
8.20836e+09
6.79185e+09
6.67104e+09
6.28166e+09
9.27852e+09
8.14343e+09
1.03087e+10
8.85522e+09
8.93633e+09
6.79185e+09
5.58301e+09
8.68718e+09
4.65569e+09
7.59261e+09
5.91966e+09
6.08929e+09
8.62926e+09
5.58301e+09
9.34099e+09
)
;
    }
}


// ************************************************************************* //
