/*--------------------------------*- C++ -*----------------------------------*\
| =========                 |                                                 |
| \\      /  F ield         | OpenFOAM: The Open Source CFD Toolbox           |
|  \\    /   O peration     | Version:  4.x                                   |
|   \\  /    A nd           | Web:      www.OpenFOAM.org                      |
|    \\/     M anipulation  |                                                 |
\*---------------------------------------------------------------------------*/
FoamFile
{
    version     2.0;
    format      ascii;
    class       volScalarField;
    location    "15";
    object      rho;
}
// * * * * * * * * * * * * * * * * * * * * * * * * * * * * * * * * * * * * * //

dimensions      [1 -3 0 0 0 0 0];

internalField   nonuniform List<scalar> 
114
(
6699.15
6699.31
6700.44
6700.25
6699.67
6698.99
6699.34
6699.17
6698.78
6698.06
6697.65
6702.83
6701.4
6700.17
6699.22
6699.19
6698.89
6698.04
6695.54
6686.66
6711.07
6702.57
6700.55
6699.59
6699.13
6698.86
6698.25
6697.22
6697.03
6703.39
6702
6700.86
6700.09
6699.91
6699.51
6698.6
6697.6
6699.42
6699.3
6699.08
6698.77
6698.81
6700.9
6700.27
6699.16
6698.01
6699.3
6699.12
6698.71
6697.85
6696.59
6703.71
6701.2
6699.72
6698.51
6699.25
6699.09
6698.73
6698.39
6698.6
6701.42
6701.14
6700.41
6699.7
6698.46
6697.94
6699.53
6699.48
6699.4
6699.34
6699.47
6700.05
6699.82
6699.19
6698.46
6699.46
6699.38
6699.24
6699.07
6699.16
6700.54
6700.14
6699.37
6698.57
6699.43
6699.36
6699.2
6699.16
6699.43
6700.41
6700.46
6700.05
6699.45
6699.65
6699.63
6699.61
6699.63
6699.73
6699.84
6699.76
6699.47
6699.6
6699.57
6699.52
6699.53
6699.66
6699.99
6699.91
6699.58
6699.55
6699.52
6699.55
6699.73
6700.09
)
;

boundaryField
{
    inlet
    {
        type            calculated;
        value           uniform 6700;
    }
    outlet
    {
        type            calculated;
        value           nonuniform 0();
    }
    wall
    {
        type            calculated;
        value           nonuniform List<scalar> 
66
(
6699.34
6699.19
6699.13
6699.17
6698.89
6698.86
6698.78
6698.04
6698.25
6699.15
6698.06
6695.54
6697.22
6699.31
6697.65
6686.66
6697.03
6700.44
6702.83
6711.07
6703.39
6700.25
6701.4
6702.57
6702
6699.67
6700.17
6700.55
6700.86
6698.99
6699.22
6699.59
6700.09
6699.13
6699.25
6699.43
6699.58
6698.86
6699.09
6699.36
6699.55
6698.25
6698.73
6699.2
6699.52
6697.22
6698.39
6699.16
6699.55
6697.03
6698.6
6699.43
6699.73
6703.39
6701.42
6700.41
6700.09
6702
6701.14
6700.46
6700.86
6700.41
6700.05
6700.09
6699.7
6699.45
)
;
    }
    procBoundary2to0
    {
        type            processor;
        value           nonuniform List<scalar> 
44
(
6699.59
6699.7
6699.94
6699.82
6699.45
6698.94
6699.51
6699.44
6699.3
6699.3
6699.36
6699.45
6699.67
6699.24
6698.47
6697.86
6699.55
6699.5
6699.42
6699.36
6699.45
6699.45
6699.63
6699.21
6698.36
6698.79
6699.63
6699.6
6699.57
6699.57
6699.59
6699.63
6699.21
6699.21
6699.2
6698.86
6699.71
6699.7
6699.7
6699.72
6699.76
6699.7
6699.53
6699.2
)
;
    }
    procBoundary2to3
    {
        type            processor;
        value           nonuniform List<scalar> 
12
(
6698.21
6698.29
6698.73
6699.46
6696.75
6696.95
6697.38
6699.01
6697.7
6697.85
6697.86
6698.86
)
;
    }
    procBoundary2to6
    {
        type            processor;
        value           nonuniform List<scalar> 
32
(
6699.05
6699.61
6699.18
6700.17
6700.03
6699.79
6699.73
6699.73
6699.73
6699.75
6699.76
6699.69
6699.38
6699.05
6699.61
6699.18
6699.7
6699.69
6699.7
6699.69
6699.78
6699.85
6699.61
6700.17
6699.75
6699.69
6699.69
6699.68
6699.73
6699.84
6700.17
6699.98
)
;
    }
}


// ************************************************************************* //
