/*--------------------------------*- C++ -*----------------------------------*\
| =========                 |                                                 |
| \\      /  F ield         | OpenFOAM: The Open Source CFD Toolbox           |
|  \\    /   O peration     | Version:  4.x                                   |
|   \\  /    A nd           | Web:      www.OpenFOAM.org                      |
|    \\/     M anipulation  |                                                 |
\*---------------------------------------------------------------------------*/
FoamFile
{
    version     2.0;
    format      ascii;
    class       volScalarField;
    location    "48.5";
    object      KslNext;
}
// * * * * * * * * * * * * * * * * * * * * * * * * * * * * * * * * * * * * * //

dimensions      [1 -3 -1 0 0 0 0];

internalField   nonuniform List<scalar> 
132
(
76567.9
3723.99
92049.1
3706.23
340445
3745.3
1.06202e+06
4133.13
24564.5
2.0095e+06
3794.09
1e+10
3835.57
137798
3952.47
21806.8
4224.46
7042.81
11851.2
3354.29
11864.5
3177.3
11566.1
2991.78
10939.3
2668.05
8399.7
6473.77
3015.43
6577.92
2894.45
7041.08
2790.8
8292.67
2562.73
9360
1e+10
3823.55
1e+10
3835.33
1e+10
4131.7
16054
1e+10
3963.42
1e+10
3870.94
1e+10
3775.22
1e+10
3714.59
28109.8
1e+10
3850.94
1e+10
3947.36
1e+10
4293.3
1e+10
5256.98
25590.3
11676.1
3503.48
20593
3652.06
113315
3992.17
1e+10
4927.71
32570.9
49407.3
3418.56
22424.1
3503.71
6870.04
244489
3733.67
1e+10
3724.23
531408
3762.78
34966.8
3943.13
7849.35
15119.9
3423.78
15507
3202.35
13792
2864.97
11055.5
2358.66
7087.47
6361.85
3051.16
6481.04
2962.69
6895.25
2767.07
7870.38
2326.62
9283.49
8499.16
2447.33
8257.89
8712.36
3286.42
9504.26
3267.15
10689.7
3239.39
13367.2
3211.38
20404
6657.44
3083.98
6933.48
3061.17
7723.01
2940.32
9268.36
2776.78
14669.4
5156
2895.38
5296.9
2922.42
5637.67
2908.34
5835.28
3072.05
5356.86
)
;

boundaryField
{
    inlet
    {
        type            zeroGradient;
    }
    outlet
    {
        type            zeroGradient;
    }
    wall
    {
        type            zeroGradient;
    }
    procBoundary7to0
    {
        type            processor;
        value           uniform 0;
    }
    procBoundary7to1
    {
        type            processor;
        value           uniform 0;
    }
    procBoundary7to3
    {
        type            processor;
        value           uniform 0;
    }
    procBoundary7to5
    {
        type            processor;
        value           uniform 0;
    }
    procBoundary7to6
    {
        type            processor;
        value           uniform 0;
    }
}


// ************************************************************************* //
