/*--------------------------------*- C++ -*----------------------------------*\
| =========                 |                                                 |
| \\      /  F ield         | OpenFOAM: The Open Source CFD Toolbox           |
|  \\    /   O peration     | Version:  4.x                                   |
|   \\  /    A nd           | Web:      www.OpenFOAM.org                      |
|    \\/     M anipulation  |                                                 |
\*---------------------------------------------------------------------------*/
FoamFile
{
    version     2.0;
    format      ascii;
    class       surfaceScalarField;
    location    "48.5";
    object      phi;
}
// * * * * * * * * * * * * * * * * * * * * * * * * * * * * * * * * * * * * * //

dimensions      [0 3 -1 0 0 0 0];

internalField   nonuniform List<scalar> 
308
(
5.57459e-06
2.887e-08
5.64903e-06
9.6076e-08
5.50007e-06
4.27454e-08
-5.88963e-08
5.49739e-06
9.94635e-08
7.60208e-08
5.20231e-06
5.56598e-08
-2.08789e-08
5.33151e-06
1.18402e-08
2.87141e-07
4.44889e-06
4.11899e-07
-7.90205e-09
5.24118e-06
-7.63254e-07
7.68008e-07
2.09394e-06
-5.62705e-08
5.25864e-06
1.5937e-07
-1.43998e-09
5.33366e-06
1.13808e-07
-1.9782e-08
5.15694e-06
2.19462e-07
-1.25559e-12
5.40545e-06
-1.27807e-08
5.43009e-08
5.0333e-06
4.29904e-07
-1.44497e-08
5.83845e-06
-4.57652e-07
1.88868e-07
5.13077e-06
1.12144e-06
-4.57866e-08
6.30649e-06
-1.51866e-06
3.35006e-07
3.48903e-06
2.05448e-07
7.67634e-06
6.45119e-08
-1.33622e-07
7.77574e-06
2.08505e-08
-6.27316e-08
7.9084e-06
8.9191e-08
-2.16099e-07
8.03518e-06
-1.23774e-07
-6.33862e-08
8.19459e-06
2.27609e-07
-3.66554e-07
8.24932e-06
-4.45174e-07
5.7445e-08
8.50702e-06
5.5311e-07
-6.11403e-07
8.28749e-06
-9.87294e-07
5.67783e-07
1.56384e-06
-8.71649e-07
9.66816e-06
-3.61924e-07
9.70353e-06
-2.69584e-07
9.77558e-06
-4.44754e-07
9.69403e-06
-1.95222e-07
9.73567e-06
-5.39613e-07
9.3165e-06
1.20091e-07
9.5023e-06
-8.4797e-07
8.69792e-06
7.41046e-07
-1.50638e-06
5.07279e-06
-7.23308e-13
5.1457e-06
-8.33405e-08
4.97828e-06
-7.18867e-13
1.05754e-07
5.06293e-06
5.86412e-08
1.40699e-07
4.4426e-06
-4.72795e-13
3.88604e-07
5.64918e-06
5.3025e-07
-2.62876e-07
-3.45153e-07
2.27233e-06
4.95223e-06
1.04846e-12
9.61561e-09
5.01284e-06
-1.59788e-07
1.65591e-10
5.01284e-06
1.21606e-12
1.35135e-12
5.0847e-06
-1.37108e-07
3.62015e-08
5.06192e-06
1.19671e-12
8.33105e-09
5.14522e-06
1.12955e-07
5.12561e-08
4.96604e-06
5.90598e-13
1.33393e-07
5.7422e-06
2.07726e-07
-1.18632e-07
-2.23213e-07
7.09891e-07
5.12491e-06
-1.63122e-08
2.85253e-08
5.18755e-06
-2.7923e-07
-5.92961e-09
4.93644e-06
-1.66773e-08
5.16889e-08
5.01044e-06
-3.02777e-07
2.82846e-08
4.46562e-06
8.03036e-10
1.77466e-07
4.5497e-06
1.61425e-09
8.47106e-08
3.49072e-06
2.42108e-13
4.47576e-07
4.32207e-06
7.99223e-08
-1.35766e-07
-9.9897e-08
1.53622e-06
7.20463e-06
-9.75345e-08
6.59066e-06
6.51505e-08
6.17517e-06
-4.59371e-08
5.5561e-06
1.21067e-07
4.8783e-06
1.38996e-07
4.83692e-06
1.6308e-07
3.68385e-06
3.05102e-07
4.37066e-06
1.34158e-07
1.39901e-06
5.91442e-06
-1.84962e-08
6.45495e-06
-8.89864e-08
5.96711e-06
9.09694e-08
6.86219e-07
7.04625e-06
-4.95803e-07
-7.61121e-07
1.20531e-06
3.09038e-06
5.29181e-06
6.29628e-08
4.0289e-08
5.3022e-06
6.33973e-08
-2.08992e-09
5.19672e-06
7.80136e-08
1.92208e-08
5.3415e-06
-7.94011e-08
-3.21981e-08
5.06906e-06
1.8231e-07
7.99587e-08
5.69908e-06
-4.40325e-07
-2.27425e-07
5.10789e-06
5.88833e-07
2.26723e-07
6.49106e-06
-1.29169e-06
-7.05915e-07
2.85194e-06
9.1352e-07
7.00904e-06
4.58714e-08
-3.87945e-09
7.08721e-06
1.09103e-08
-3.16138e-08
7.30347e-06
-1.03931e-08
-7.61627e-08
7.57899e-06
-1.55871e-07
-1.70758e-07
8.03514e-06
-1.16559e-08
-8.47207e-08
8.41731e-06
-4.65761e-07
-2.72025e-07
9.36692e-06
1.43043e-07
-5.62452e-08
9.31389e-06
-9.01753e-07
-4.72675e-07
1.22065e-06
9.16235e-07
9.40198e-06
-4.7567e-08
9.42573e-06
5.23083e-08
9.44217e-06
-7.27687e-08
9.39251e-06
1.48582e-08
9.63758e-06
-1.17738e-07
9.38142e-06
-4.65185e-08
1.01686e-05
-3.39013e-07
9.41899e-06
-1.80037e-08
8.5869e-08
9.63528e-06
-8.61226e-07
9.12871e-06
2.46967e-07
-1.57218e-06
8.09013e-06
-3.63547e-08
8.0004e-06
-3.98254e-08
7.84129e-06
-9.0478e-08
7.75168e-06
-1.1112e-07
7.57627e-06
-1.88468e-07
7.34403e-06
-1.43909e-07
7.00284e-06
-2.93309e-07
6.60892e-06
-6.50323e-08
-4.25753e-07
9.15166e-06
-3.9023e-08
9.1334e-06
-5.31725e-08
9.05482e-06
-8.80679e-08
8.88865e-06
-1.157e-07
8.82068e-06
-2.05224e-07
8.48034e-06
-7.5589e-08
8.50016e-06
-3.69383e-07
7.84137e-06
1.2109e-07
-9.70539e-07
1.03475e-05
1.03466e-05
1.01858e-05
1.00849e-05
9.76195e-06
9.63985e-06
8.93145e-06
9.03454e-06
)
;

boundaryField
{
    inlet
    {
        type            calculated;
        value           nonuniform 0();
    }
    outlet
    {
        type            calculated;
        value           nonuniform List<scalar> 
16
(
1.56137e-06
4.79538e-06
8.90483e-06
9.2571e-06
2.83386e-06
5.11582e-06
1.79088e-06
1.36538e-06
4.37607e-06
4.6408e-06
1.15652e-05
1.19528e-05
1.21686e-05
6.37601e-06
9.30239e-06
8.14987e-06
)
;
    }
    wall
    {
        type            calculated;
        value           nonuniform List<scalar> 
66
(
0
0
0
0
0
0
0
0
0
0
0
0
0
0
0
0
0
0
0
0
0
0
0
0
0
0
0
4.93038e-32
0
0
0
0
0
0
0
0
0
0
0
0
0
0
0
6.16298e-33
0
0
0
0
0
0
0
0
0
0
0
0
0
0
0
0
0
0
0
0
0
0
)
;
    }
    procBoundary7to0
    {
        type            processor;
        value           uniform -5.70902e-06;
    }
    procBoundary7to1
    {
        type            processor;
        value           uniform -2.88141e-08;
    }
    procBoundary7to3
    {
        type            processor;
        value           nonuniform List<scalar> 
36
(
1.79313e-07
4.52899e-08
2.09271e-07
-3.63648e-08
2.76797e-07
-3.61582e-07
4.85974e-07
-1.29865e-06
1.93591e-06
7.03745e-10
-7.29678e-08
-1.01883e-12
-1.90563e-07
1.23512e-08
-5.24521e-07
4.39299e-08
-7.55329e-07
-8.94298e-08
1.43676e-07
5.62848e-08
2.13709e-07
4.75973e-08
4.09438e-07
-1.24645e-07
9.22023e-07
-8.79612e-07
2.1795e-06
3.55202e-07
2.55072e-07
4.61895e-07
1.52999e-07
7.25576e-07
-1.46098e-07
1.21528e-06
-9.23956e-07
2.51104e-06
)
;
    }
    procBoundary7to5
    {
        type            processor;
        value           nonuniform List<scalar> 
44
(
-1.76733e-07
-4.41663e-08
-1.36434e-07
-1.64995e-08
-6.65954e-08
-7.35356e-09
5.01604e-07
-2.93769e-07
-4.49345e-08
-3.90745e-08
3.7392e-13
2.21716e-08
4.07865e-08
3.14612e-09
2.23829e-07
-7.05948e-07
8.3187e-07
6.32944e-13
-5.16567e-06
7.92301e-08
3.39861e-08
6.42817e-08
1.86712e-08
-1.56231e-07
9.9262e-08
-8.50945e-08
6.46817e-07
1.38995e-08
-7.15255e-08
8.24372e-09
-6.0037e-06
3.02496e-09
1.94858e-07
-1.54617e-07
8.75866e-07
-5.01514e-07
1.62266e-06
1.72252e-07
1.2747e-07
2.6881e-07
1.68528e-07
4.43834e-07
-8.9637e-06
1.48725e-07
)
;
    }
    procBoundary7to6
    {
        type            processor;
        value           nonuniform List<scalar> 
12
(
-5.3884e-06
-7.59153e-06
-9.59693e-06
-4.96329e-06
-5.27075e-06
-7.48533e-06
-5.39935e-06
-6.95955e-06
-9.40607e-06
-8.18574e-06
-9.15287e-06
-1.0434e-05
)
;
    }
}


// ************************************************************************* //
