/*--------------------------------*- C++ -*----------------------------------*\
| =========                 |                                                 |
| \\      /  F ield         | OpenFOAM: The Open Source CFD Toolbox           |
|  \\    /   O peration     | Version:  4.x                                   |
|   \\  /    A nd           | Web:      www.OpenFOAM.org                      |
|    \\/     M anipulation  |                                                 |
\*---------------------------------------------------------------------------*/
FoamFile
{
    version     2.0;
    format      ascii;
    class       volVectorField;
    location    "50.5";
    object      UsPrev;
}
// * * * * * * * * * * * * * * * * * * * * * * * * * * * * * * * * * * * * * //

dimensions      [0 1 -1 0 0 0 0];

internalField   nonuniform List<vector> 
114
(
(1.82542e-10 -2.09953e-11 1.27776e-10)
(4.69627e-10 9.48213e-11 3.30079e-10)
(8.31266e-10 -5.56861e-11 3.42927e-10)
(1.21371e-09 -1.22648e-10 5.53266e-10)
(1.84918e-09 -1.19664e-09 1.15712e-09)
(2.10305e-09 -1.92665e-09 1.33694e-09)
(9.70828e-12 -2.37618e-10 3.42614e-11)
(1.14225e-10 -2.38317e-10 1.6334e-11)
(1.41688e-10 -2.15163e-10 6.75207e-11)
(1.93453e-10 -1.51866e-10 9.64154e-11)
(3.73918e-10 -2.07395e-10 1.63032e-10)
(7.83416e-10 -2.51837e-10 1.57548e-10)
(1.11229e-09 -4.62157e-10 3.29586e-10)
(1.41801e-09 -8.11301e-10 5.57818e-10)
(1.48205e-09 -1.19653e-09 8.5035e-10)
(4.02217e-11 -5.66007e-11 2.11988e-11)
(9.15893e-11 -1.02628e-10 7.2814e-12)
(1.75922e-10 -6.69979e-11 1.15914e-10)
(3.19999e-10 -1.0745e-10 1.48717e-10)
(3.95684e-10 -2.05747e-10 1.92771e-10)
(6.62375e-10 -2.88061e-10 9.80092e-11)
(9.74721e-10 -1.59783e-10 2.62928e-10)
(1.1311e-09 -4.90993e-10 3.44293e-10)
(9.5071e-10 -7.03665e-10 6.29136e-10)
(-4.44368e-11 -3.42284e-11 2.78013e-11)
(2.48731e-11 -4.49875e-11 3.43204e-11)
(5.67966e-11 -3.63235e-11 2.11195e-10)
(2.07663e-10 -4.59106e-10 2.74017e-11)
(2.77874e-10 -2.54229e-10 -4.06606e-11)
(3.89395e-10 -1.33852e-10 -9.5478e-11)
(5.79629e-10 -2.1734e-10 1.84756e-10)
(7.47581e-10 -6.29242e-10 1.69809e-10)
(7.10445e-10 -4.6231e-10 2.52533e-10)
(5.34693e-10 9.67499e-11 3.89107e-10)
(7.82892e-10 1.34091e-10 6.27469e-10)
(1.31318e-09 -5.30679e-10 1.00737e-09)
(1.55802e-09 -8.40755e-10 1.3284e-09)
(1.39908e-11 -1.58844e-10 -1.67809e-11)
(3.23242e-11 -2.32744e-10 -2.51193e-11)
(-1.17117e-11 -1.62483e-10 1.74117e-11)
(7.62977e-11 -1.02513e-10 9.98039e-11)
(1.38504e-10 -1.23831e-10 1.48195e-10)
(5.19004e-10 -6.74871e-11 1.08031e-10)
(8.29381e-10 -8.94388e-11 3.13947e-10)
(1.10584e-09 -3.60678e-10 5.39633e-10)
(1.44608e-09 -6.71458e-10 7.17134e-10)
(2.01894e-11 -8.73571e-11 -3.18215e-11)
(4.28273e-11 -1.23615e-10 -3.52046e-11)
(4.59535e-11 -1.24803e-10 -3.33621e-12)
(1.07201e-10 -7.76075e-11 6.96903e-11)
(1.86564e-10 -1.38541e-10 -5.64833e-12)
(3.93781e-10 -1.73249e-10 8.03263e-11)
(6.06718e-10 -1.84924e-10 1.44835e-10)
(7.76888e-10 -2.50714e-10 2.64828e-10)
(9.90189e-10 -4.39918e-10 3.98372e-10)
(3.59071e-12 -4.50841e-11 -1.7315e-11)
(1.94234e-11 -6.49642e-11 -1.42717e-11)
(1.64041e-11 -7.83625e-11 -3.20909e-11)
(1.13744e-10 -3.91245e-11 -1.65358e-11)
(1.97331e-10 -8.66163e-11 -1.75699e-10)
(2.12479e-10 -1.23095e-10 1.97735e-12)
(3.3588e-10 -1.45152e-10 9.36671e-11)
(4.28431e-10 -1.80033e-10 5.19537e-11)
(2.68836e-10 -1.6271e-10 7.7774e-11)
(8.92436e-10 2.82201e-10 1.03364e-09)
(1.11885e-09 1.51568e-10 1.40045e-09)
(9.96091e-12 -1.4154e-10 -5.83941e-12)
(-2.28958e-11 -1.96113e-10 2.8487e-11)
(-3.93744e-11 -1.51618e-10 6.62132e-11)
(-1.15842e-11 -1.00768e-10 1.65962e-10)
(5.81529e-11 -1.02059e-10 2.39336e-10)
(3.15864e-10 4.91812e-11 2.30971e-10)
(4.79259e-10 5.76091e-11 3.89891e-10)
(8.2741e-10 8.21395e-11 5.10274e-10)
(1.06554e-09 -8.12415e-11 5.0341e-10)
(4.34695e-12 -5.08046e-11 3.81899e-12)
(-3.15289e-11 -1.14502e-10 6.01505e-11)
(-8.48796e-11 -7.83446e-11 6.57046e-11)
(-6.74254e-11 -3.17492e-11 1.26769e-10)
(-2.34319e-12 -6.38512e-11 1.40188e-10)
(1.96202e-10 -6.92689e-11 1.38772e-10)
(3.09502e-10 -1.34664e-10 2.40884e-10)
(5.94277e-10 -7.70045e-12 3.04661e-10)
(8.98364e-10 -1.59283e-10 2.26458e-10)
(1.83778e-12 -5.48044e-11 -5.28438e-12)
(-3.73498e-13 -6.1072e-11 6.77729e-12)
(-4.85019e-11 -6.87574e-11 6.17391e-12)
(-4.81593e-12 -6.18488e-11 1.33786e-11)
(1.06705e-10 -7.23416e-11 -4.17694e-12)
(9.3203e-11 -8.0779e-11 5.3604e-11)
(1.70909e-10 -9.55936e-11 8.5851e-11)
(2.9625e-10 -1.42283e-10 1.50056e-10)
(4.66764e-10 -8.83958e-11 1.49365e-10)
(1.02437e-11 -9.83146e-11 -1.23351e-12)
(5.82502e-11 -1.75485e-10 5.98447e-11)
(5.89406e-11 -1.85364e-10 1.09469e-10)
(1.19853e-10 -1.23114e-10 1.43303e-10)
(1.90837e-10 -1.69497e-11 2.33446e-10)
(4.64725e-10 2.47946e-11 2.51169e-10)
(6.64835e-10 2.01972e-10 3.76366e-10)
(1.20226e-09 2.44141e-10 3.90879e-10)
(-1.48963e-11 -2.5664e-11 -1.63499e-12)
(4.96785e-11 -1.06917e-10 6.00751e-11)
(-2.72099e-12 -8.15126e-11 1.00306e-10)
(4.45886e-11 -6.80219e-11 1.20734e-10)
(7.09146e-11 -1.00245e-10 1.54227e-10)
(2.48942e-10 -7.39155e-12 1.83788e-10)
(3.59953e-10 -4.66857e-11 2.67781e-10)
(-6.51996e-12 -5.28486e-11 1.33757e-12)
(2.23944e-12 -6.28295e-11 9.98458e-12)
(-4.11435e-11 -5.95606e-11 4.63031e-11)
(-1.89924e-11 -6.96313e-11 4.07784e-11)
(1.61217e-11 -7.70018e-11 6.6716e-11)
(6.99485e-11 -5.97275e-11 6.31235e-11)
)
;

boundaryField
{
    inlet
    {
        type            calculated;
        value           uniform (0 0 0);
    }
    outlet
    {
        type            calculated;
        value           nonuniform 0();
    }
    wall
    {
        type            calculated;
        value           uniform (0 0 0);
    }
    procBoundary2to0
    {
        type            processor;
        value           uniform (0 0 0);
    }
    procBoundary2to3
    {
        type            processor;
        value           uniform (0 0 0);
    }
    procBoundary2to6
    {
        type            processor;
        value           uniform (0 0 0);
    }
}


// ************************************************************************* //
