/*--------------------------------*- C++ -*----------------------------------*\
| =========                 |                                                 |
| \\      /  F ield         | OpenFOAM: The Open Source CFD Toolbox           |
|  \\    /   O peration     | Version:  4.x                                   |
|   \\  /    A nd           | Web:      www.OpenFOAM.org                      |
|    \\/     M anipulation  |                                                 |
\*---------------------------------------------------------------------------*/
FoamFile
{
    version     2.0;
    format      ascii;
    class       volScalarField;
    location    "16";
    object      KslNext;
}
// * * * * * * * * * * * * * * * * * * * * * * * * * * * * * * * * * * * * * //

dimensions      [1 -3 -1 0 0 0 0];

internalField   nonuniform List<scalar> 
87
(
3692.98
2511.07
3574.9
2393.11
3676.14
2208.26
4246.34
2006.2
5154.42
4157.35
2683.83
4212.82
2630.99
4693.96
2526.14
6032.3
2349.59
6296.42
5104.38
2959.71
5813.45
3029.24
9249.73
3173.66
22948.1
3243.17
8010.99
5554.3
2941.99
5472.61
2792.24
5773.38
2450.56
6597.58
1875.34
3687.66
9605
3397.86
10553.7
3284.05
12103.2
3083.88
9312.25
2943.43
2893.35
25864.5
3792.54
82918.8
3798.44
419990
4279.75
21010.5
14020.2
2647.46
7555.89
3212.95
7758.17
3065.96
7616.44
2689.96
7284.46
2067.55
6403.1
17679.1
3710.41
22350.1
3584.51
23800.1
3425.69
12776.6
3306.8
4942.72
2.98202e+06
3929.94
1.6837e+09
3880.29
146461
3755.59
54462
3850.54
12596.2
6661.01
3018.21
6729.36
25127
3564.2
25113.3
)
;

boundaryField
{
    inlet
    {
        type            zeroGradient;
    }
    outlet
    {
        type            zeroGradient;
    }
    wall
    {
        type            zeroGradient;
    }
    procBoundary1to0
    {
        type            processor;
        value           uniform 0;
    }
    procBoundary1to3
    {
        type            processor;
        value           uniform 0;
    }
    procBoundary1to5
    {
        type            processor;
        value           uniform 0;
    }
    procBoundary1to7
    {
        type            processor;
        value           uniform 0;
    }
}


// ************************************************************************* //
