/*--------------------------------*- C++ -*----------------------------------*\
| =========                 |                                                 |
| \\      /  F ield         | OpenFOAM: The Open Source CFD Toolbox           |
|  \\    /   O peration     | Version:  4.x                                   |
|   \\  /    A nd           | Web:      www.OpenFOAM.org                      |
|    \\/     M anipulation  |                                                 |
\*---------------------------------------------------------------------------*/
FoamFile
{
    version     2.0;
    format      ascii;
    class       volScalarField;
    location    "16";
    object      particleRelTemp;
}
// * * * * * * * * * * * * * * * * * * * * * * * * * * * * * * * * * * * * * //

dimensions      [0 0 0 0 0 0 0];

internalField   nonuniform List<scalar> 
87
(
3.4668e-07
2.92102e-07
1.98809e-07
1.07365e-07
2.95833e-08
-7.38571e-08
-1.66416e-07
-1.80696e-07
-1.76994e-07
3.3766e-07
3.05908e-07
2.25322e-07
1.36257e-07
6.85516e-08
-4.07242e-08
-1.28759e-07
-1.62075e-07
-1.66004e-07
2.96764e-07
2.72109e-07
2.01586e-07
1.15938e-07
4.24786e-08
-3.53319e-08
-1.02068e-07
-1.43397e-07
-1.52324e-07
3.84678e-07
3.35106e-07
2.66211e-07
1.73627e-07
7.66334e-08
-4.38882e-08
-1.19769e-07
-1.52467e-07
-1.62396e-07
3.92814e-07
3.86474e-07
3.20272e-07
1.88695e-07
7.98633e-08
-1.4746e-08
-9.41315e-08
-1.29315e-07
-1.41697e-07
3.88984e-07
3.69775e-07
2.86074e-07
1.87756e-07
6.34184e-08
-1.09709e-08
-7.30432e-08
-1.08529e-07
-1.30709e-07
3.70066e-07
3.44239e-07
2.9907e-07
2.07691e-07
9.90701e-08
-1.92472e-08
-8.45599e-08
-1.34036e-07
-1.45436e-07
4.24315e-07
4.00246e-07
3.64689e-07
2.47743e-07
1.1407e-07
1.00151e-08
-7.35028e-08
-1.08498e-07
-1.27888e-07
4.31168e-07
4.20593e-07
3.77524e-07
2.63971e-07
1.21493e-07
1.38398e-08
-6.49498e-08
-9.0609e-08
-1.15443e-07
3.28199e-07
2.6689e-07
2.58669e-07
3.52765e-07
3.37316e-07
3.48591e-07
)
;

boundaryField
{
    inlet
    {
        type            calculated;
        value           nonuniform 0();
    }
    outlet
    {
        type            calculated;
        value           nonuniform List<scalar> 9(-1.76994e-07 -1.66004e-07 -1.52324e-07 -1.62396e-07 -1.41697e-07 -1.30709e-07 -1.45436e-07 -1.27888e-07 -1.15443e-07);
    }
    wall
    {
        type            calculated;
        value           nonuniform List<scalar> 
57
(
3.4668e-07
3.3766e-07
2.96764e-07
2.92102e-07
3.05908e-07
2.72109e-07
1.98809e-07
2.25322e-07
2.01586e-07
1.07365e-07
1.36257e-07
1.15938e-07
2.95833e-08
6.85516e-08
4.24786e-08
-7.38571e-08
-4.07242e-08
-3.53319e-08
-1.66416e-07
-1.28759e-07
-1.02068e-07
-1.80696e-07
-1.62075e-07
-1.43397e-07
-1.76994e-07
-1.66004e-07
-1.52324e-07
3.4668e-07
3.84678e-07
3.70066e-07
3.28199e-07
2.92102e-07
3.35106e-07
3.44239e-07
2.6689e-07
1.98809e-07
2.66211e-07
2.9907e-07
2.58669e-07
1.07365e-07
1.73627e-07
2.07691e-07
2.95833e-08
7.66334e-08
9.90701e-08
-7.38571e-08
-4.38882e-08
-1.92472e-08
-1.66416e-07
-1.19769e-07
-8.45599e-08
-1.80696e-07
-1.52467e-07
-1.34036e-07
-1.76994e-07
-1.62396e-07
-1.45436e-07
)
;
    }
    procBoundary1to0
    {
        type            processor;
        value           nonuniform List<scalar> 
12
(
2.10261e-07
3.06674e-07
2.80483e-07
3.20641e-07
3.66271e-07
3.59887e-07
3.42399e-07
3.9392e-07
3.88984e-07
2.75593e-07
3.5747e-07
3.20198e-07
)
;
    }
    procBoundary1to3
    {
        type            processor;
        value           nonuniform List<scalar> 
27
(
2.27375e-07
2.0497e-07
1.11336e-07
5.77092e-08
-1.29465e-08
-7.2426e-08
-1.02162e-07
-1.36256e-07
-1.40205e-07
2.60839e-07
2.60634e-07
1.9863e-07
1.15259e-07
2.49445e-08
-3.76617e-08
-8.80056e-08
-1.16523e-07
-1.31691e-07
2.83355e-07
3.20099e-07
2.65439e-07
1.7982e-07
6.52358e-08
-1.26281e-08
-6.91061e-08
-1.06622e-07
-1.18252e-07
)
;
    }
    procBoundary1to5
    {
        type            processor;
        value           nonuniform List<scalar> 
32
(
1.85465e-07
7.68649e-08
-1.22594e-08
-8.92515e-08
-1.3008e-07
-1.48565e-07
2.9756e-07
2.21508e-07
1.20217e-07
7.17587e-09
-5.24729e-08
-1.12299e-07
-1.26985e-07
3.43192e-07
2.92474e-07
1.93184e-07
1.1511e-07
1.66106e-08
-5.41339e-08
-9.71156e-08
-1.19192e-07
1.94276e-07
1.65182e-07
1.85465e-07
2.9756e-07
1.7744e-07
2.09257e-07
2.9756e-07
3.43192e-07
2.10423e-07
3.43192e-07
1.90901e-07
)
;
    }
    procBoundary1to7
    {
        type            processor;
        value           uniform 2.37483e-07;
    }
}


// ************************************************************************* //
