/*--------------------------------*- C++ -*----------------------------------*\
| =========                 |                                                 |
| \\      /  F ield         | OpenFOAM: The Open Source CFD Toolbox           |
|  \\    /   O peration     | Version:  4.x                                   |
|   \\  /    A nd           | Web:      www.OpenFOAM.org                      |
|    \\/     M anipulation  |                                                 |
\*---------------------------------------------------------------------------*/
FoamFile
{
    version     2.0;
    format      ascii;
    class       volScalarField;
    location    "16";
    object      QPartFluid;
}
// * * * * * * * * * * * * * * * * * * * * * * * * * * * * * * * * * * * * * //

dimensions      [1 -1 -3 0 0 0 0];

internalField   nonuniform List<scalar> 
87
(
4.35811e+09
7.11838e+09
4.2521e+09
6.58261e+09
4.38871e+09
4.86707e+09
5.16814e+09
6.34808e+09
4.2422e+09
4.62102e+09
4.46431e+09
5.90751e+09
5.70332e+09
4.31956e+09
6.35609e+09
7.04737e+09
6.09331e+09
3.92455e+09
3.96403e+09
7.01413e+09
6.22039e+09
8.70913e+09
5.89004e+09
5.36515e+09
4.64267e+09
5.21867e+09
3.78759e+09
7.47125e+09
6.61917e+09
6.24263e+09
7.67324e+09
6.45668e+09
8.04643e+09
9.26708e+09
9.65215e+09
6.44206e+09
9.10525e+09
6.7214e+09
7.6269e+09
9.38432e+09
9.10057e+09
7.58671e+09
9.13525e+09
9.99577e+09
5.5603e+09
9.04746e+09
8.43462e+09
7.09251e+09
6.6823e+09
5.59303e+09
8.77168e+09
8.33e+09
1.04754e+10
4.21875e+09
6.97347e+09
6.92864e+09
8.16261e+09
9.6632e+09
6.26412e+09
1.00572e+10
8.13011e+09
8.24824e+09
3.69294e+09
6.39489e+09
8.76627e+09
6.30988e+09
7.95524e+09
8.14155e+09
9.09271e+09
7.7519e+09
9.21797e+09
4.06478e+09
8.08623e+09
7.77001e+09
5.36485e+09
1.1044e+10
8.72272e+09
1.05607e+10
7.19343e+09
9.24527e+09
2.9587e+09
6.63048e+09
5.70103e+09
8.14074e+09
7.97413e+09
1.23845e+10
6.08701e+09
)
;

boundaryField
{
    inlet
    {
        type            calculated;
        value           nonuniform 0();
    }
    outlet
    {
        type            calculated;
        value           uniform 0;
    }
    wall
    {
        type            calculated;
        value           uniform 0;
    }
    procBoundary1to0
    {
        type            processor;
        value           nonuniform List<scalar> 
12
(
2.03602e+09
5.66903e+09
8.56259e+09
7.27429e+09
8.99e+09
6.33491e+09
5.34271e+09
1.00442e+10
5.36025e+09
6.0579e+09
6.98282e+09
9.55553e+09
)
;
    }
    procBoundary1to3
    {
        type            processor;
        value           nonuniform List<scalar> 
27
(
8.56599e+09
3.8488e+09
6.68267e+09
3.21734e+09
4.82561e+09
3.72362e+09
5.34647e+09
5.0365e+09
3.36854e+09
8.54709e+09
7.94768e+09
1.01463e+10
1.04681e+10
8.44973e+09
7.85622e+09
6.85151e+09
8.48714e+09
8.16782e+09
8.18478e+09
1.08027e+10
9.05113e+09
1.01818e+10
6.53451e+09
7.8092e+09
8.99842e+09
8.3494e+09
6.35846e+09
)
;
    }
    procBoundary1to5
    {
        type            processor;
        value           nonuniform List<scalar> 
32
(
8.33721e+09
8.05486e+09
8.02183e+09
6.70814e+09
9.62831e+09
7.16706e+09
7.5837e+09
7.30737e+09
6.40263e+09
8.74175e+09
9.27938e+09
1.09014e+10
7.19137e+09
1.02389e+10
6.32786e+09
9.01237e+09
6.08895e+09
5.50182e+09
7.6213e+09
6.42379e+09
6.49002e+09
6.60069e+09
5.65377e+09
8.33721e+09
7.5837e+09
7.53283e+09
8.0127e+09
7.5837e+09
1.02389e+10
8.20019e+09
1.02389e+10
8.55562e+09
)
;
    }
    procBoundary1to7
    {
        type            processor;
        value           uniform 1.04149e+10;
    }
}


// ************************************************************************* //
