/*--------------------------------*- C++ -*----------------------------------*\
| =========                 |                                                 |
| \\      /  F ield         | OpenFOAM: The Open Source CFD Toolbox           |
|  \\    /   O peration     | Version:  4.x                                   |
|   \\  /    A nd           | Web:      www.OpenFOAM.org                      |
|    \\/     M anipulation  |                                                 |
\*---------------------------------------------------------------------------*/
FoamFile
{
    version     2.0;
    format      ascii;
    class       volScalarField;
    location    "16";
    object      Qsource;
}
// * * * * * * * * * * * * * * * * * * * * * * * * * * * * * * * * * * * * * //

dimensions      [1 -1 -3 0 0 0 0];

internalField   nonuniform List<scalar> 
87
(
6.02696e+09
9.39972e+09
5.96022e+09
8.94518e+09
6.03254e+09
7.31436e+09
6.59753e+09
8.92994e+09
5.44017e+09
5.38529e+09
5.55198e+09
6.65983e+09
6.8002e+09
4.99706e+09
7.45464e+09
7.58156e+09
7.22396e+09
4.42124e+09
4.60766e+09
8.01205e+09
6.79321e+09
9.67386e+09
6.27758e+09
6.27007e+09
4.82325e+09
6.07206e+09
4.19009e+09
8.06452e+09
7.60876e+09
6.84304e+09
8.70458e+09
7.02445e+09
9.16765e+09
9.76714e+09
1.10204e+10
7.20859e+09
9.10525e+09
6.7214e+09
7.6269e+09
9.38432e+09
9.10057e+09
7.58671e+09
9.13525e+09
9.99577e+09
5.5603e+09
9.04746e+09
8.43462e+09
7.09251e+09
6.6823e+09
5.59303e+09
8.77168e+09
8.33e+09
1.04754e+10
4.21875e+09
7.42421e+09
7.82979e+09
8.60477e+09
1.05991e+10
6.71038e+09
1.10822e+10
8.58713e+09
9.50626e+09
4.18218e+09
6.39489e+09
8.76627e+09
6.30988e+09
7.95524e+09
8.14155e+09
9.09271e+09
7.7519e+09
9.21797e+09
4.06478e+09
8.08623e+09
7.77001e+09
5.36485e+09
1.1044e+10
8.72272e+09
1.05607e+10
7.19343e+09
9.24527e+09
2.9587e+09
7.11946e+09
6.62463e+09
8.62389e+09
7.97413e+09
1.23845e+10
6.08701e+09
)
;

boundaryField
{
    inlet
    {
        type            calculated;
        value           nonuniform 0();
    }
    outlet
    {
        type            calculated;
        value           uniform 0;
    }
    wall
    {
        type            calculated;
        value           uniform 0;
    }
    procBoundary1to0
    {
        type            processor;
        value           nonuniform List<scalar> 
12
(
4.23019e+09
6.7248e+09
9.54548e+09
8.22876e+09
8.99e+09
6.33491e+09
6.22287e+09
1.00442e+10
5.36025e+09
6.9512e+09
6.98282e+09
9.55553e+09
)
;
    }
    procBoundary1to3
    {
        type            processor;
        value           nonuniform List<scalar> 
27
(
9.23705e+09
4.86661e+09
7.32524e+09
4.2392e+09
5.38756e+09
4.74894e+09
5.8138e+09
6.16386e+09
3.97667e+09
8.54709e+09
7.94768e+09
1.01463e+10
1.04681e+10
8.44973e+09
7.85622e+09
6.85151e+09
8.48714e+09
8.16782e+09
8.18478e+09
1.08027e+10
9.05113e+09
1.01818e+10
6.53451e+09
7.8092e+09
8.99842e+09
8.3494e+09
6.35846e+09
)
;
    }
    procBoundary1to5
    {
        type            processor;
        value           nonuniform List<scalar> 
32
(
9.29926e+09
8.50947e+09
9.06833e+09
7.13646e+09
1.08733e+10
7.74067e+09
7.5837e+09
7.30737e+09
6.40263e+09
8.74175e+09
9.27938e+09
1.09014e+10
7.19137e+09
1.02389e+10
6.32786e+09
9.01237e+09
6.08895e+09
5.50182e+09
7.6213e+09
6.42379e+09
6.49002e+09
7.03647e+09
6.52111e+09
9.29926e+09
7.5837e+09
7.92432e+09
8.0127e+09
7.5837e+09
1.02389e+10
8.20019e+09
1.02389e+10
8.55562e+09
)
;
    }
    procBoundary1to7
    {
        type            processor;
        value           uniform 1.04149e+10;
    }
}


// ************************************************************************* //
