/*--------------------------------*- C++ -*----------------------------------*\
| =========                 |                                                 |
| \\      /  F ield         | OpenFOAM: The Open Source CFD Toolbox           |
|  \\    /   O peration     | Version:  4.x                                   |
|   \\  /    A nd           | Web:      www.OpenFOAM.org                      |
|    \\/     M anipulation  |                                                 |
\*---------------------------------------------------------------------------*/
FoamFile
{
    version     2.0;
    format      ascii;
    class       volVectorField;
    location    "16";
    object      Urel;
}
// * * * * * * * * * * * * * * * * * * * * * * * * * * * * * * * * * * * * * //

dimensions      [0 1 -1 0 0 0 0];

internalField   nonuniform List<vector> 
87
(
(-0.0261649 0.000309382 0.000115466)
(-0.0273366 0.000329865 -0.000176864)
(-0.0263952 0.000427383 -0.000475982)
(-0.0273952 0.000576649 -0.000714558)
(-0.0259633 0.000851062 -0.000875134)
(-0.0268844 0.00108376 -0.000862882)
(-0.0245705 0.00168904 -0.000550413)
(-0.0252927 0.00215793 0.000437003)
(-0.0209402 0.00375008 0.0026263)
(-0.0250412 0.000396135 6.41944e-05)
(-0.0261136 0.000421588 -0.000234375)
(-0.0249018 0.000492665 -0.000489484)
(-0.0257998 0.000636529 -0.000673046)
(-0.0240114 0.000860172 -0.000691073)
(-0.0248366 0.00105859 -0.000595584)
(-0.0222847 0.00159372 -7.7621e-05)
(-0.0229355 0.00187116 0.000643846)
(-0.0191223 0.00345386 0.00196207)
(-0.0237328 0.000291741 5.70048e-05)
(-0.0247582 0.000255568 -0.000245965)
(-0.0231958 0.000260094 -0.000437525)
(-0.0240989 0.000264765 -0.000562661)
(-0.0219217 0.000360418 -0.00046742)
(-0.0227847 0.000365298 -0.00024117)
(-0.0200289 0.000557255 0.000351153)
(-0.0206251 0.000593347 0.00128496)
(-0.0174171 0.00102584 0.0023074)
(-0.024051 0.000343321 0.000165561)
(-0.0253901 0.000345362 -0.000158224)
(-0.0242863 0.000413818 -0.000434787)
(-0.0256335 0.000522281 -0.000761882)
(-0.0241747 0.000782516 -0.000845976)
(-0.0256303 0.000959957 -0.00101644)
(-0.023414 0.00171872 -0.000592166)
(-0.024992 0.00223375 -1.4711e-06)
(-0.0204476 0.00471569 0.00239865)
(-0.022556 0.000412664 3.79372e-05)
(-0.0239407 0.000413465 -0.000262948)
(-0.0224649 0.00043964 -0.000455264)
(-0.0238822 0.000537969 -0.000696933)
(-0.0220106 0.000722067 -0.000610147)
(-0.0234075 0.000900507 -0.000656705)
(-0.0209856 0.00155899 -8.63036e-05)
(-0.0219191 0.00202539 0.000324376)
(-0.0184578 0.00445311 0.00194516)
(-0.020981 0.000271452 2.65071e-05)
(-0.0225163 0.000231972 -0.000289349)
(-0.0205983 0.000210544 -0.000386688)
(-0.0221886 0.000195554 -0.000598154)
(-0.0198976 0.00027146 -0.000396785)
(-0.0213898 0.000278994 -0.00030678)
(-0.0185873 0.000512284 0.000228344)
(-0.0192744 0.000598611 0.000718685)
(-0.0156869 0.00122344 0.00181387)
(-0.022176 0.000367315 0.000112745)
(-0.0235984 0.000372835 -0.000192026)
(-0.0224297 0.000380949 -0.000437213)
(-0.0239575 0.000433276 -0.000735908)
(-0.0225457 0.000652891 -0.000806546)
(-0.0242495 0.000788987 -0.000975458)
(-0.0222801 0.0015198 -0.000625084)
(-0.0240667 0.00194444 -0.000332466)
(-0.0198385 0.00418518 0.00105818)
(-0.0206475 0.000404263 9.19211e-06)
(-0.0221396 0.000378135 -0.000299326)
(-0.0206149 0.000371444 -0.00041493)
(-0.0222837 0.000380056 -0.000615633)
(-0.0205505 0.000570831 -0.000512114)
(-0.0222123 0.000694687 -0.000521264)
(-0.0201553 0.0013247 -0.000119648)
(-0.0212669 0.00161101 0.000166483)
(-0.0184169 0.00388168 0.00126371)
(-0.0190437 0.000259406 -4.39763e-05)
(-0.0208242 0.000201181 -0.000290821)
(-0.0188165 0.000198469 -0.000330595)
(-0.0207816 0.000159842 -0.000444564)
(-0.0187705 0.000259529 -0.000290509)
(-0.0204812 0.000292645 -0.000163895)
(-0.0181175 0.000521449 0.000119278)
(-0.0191707 0.000620136 0.000382225)
(-0.0164817 0.00136229 0.000934049)
(-0.021334 0.00043652 6.7422e-05)
(-0.0228039 0.000363935 -0.000192631)
(-0.0215789 0.000354241 -0.000337401)
(-0.0196283 0.000374978 -3.65647e-06)
(-0.0213511 0.000341345 -0.000283351)
(-0.0185458 0.000264362 -6.23479e-05)
)
;

boundaryField
{
    inlet
    {
        type            calculated;
        value           nonuniform 0();
    }
    outlet
    {
        type            calculated;
        value           nonuniform List<vector> 9((-0.0139253 0.00685656 0.0124529) (-0.00844523 0.0120528 0.0031929) (-0.00448878 0.000399414 0.00517871) (-0.0121635 0.0181442 0.0149723) (-0.00772005 0.026216 0.00824403) (0.0171094 0.00175983 0.00150957) (-0.0105103 0.0120177 0.000275733) (-0.0119456 0.0179579 0.00445539) (-0.00409592 0.00170649 -0.00386862));
    }
    wall
    {
        type            calculated;
        value           nonuniform List<vector> 
57
(
(-9.64686e-06 1.12441e-06 1.9369e-06)
(-7.86329e-06 2.29668e-06 3.71719e-06)
(-1.06789e-05 3.82401e-06 3.64604e-06)
(-3.36216e-06 -1.74755e-05 1.38681e-05)
(-7.65964e-06 -8.99334e-06 8.05671e-06)
(-1.22099e-05 4.67013e-06 5.58837e-06)
(-2.29137e-06 -1.34617e-05 1.02243e-05)
(-1.11673e-05 -3.16515e-06 6.5309e-06)
(-1.659e-05 8.53893e-06 2.77345e-06)
(-5.13304e-06 2.24862e-06 5.42441e-06)
(-1.0494e-05 3.38752e-06 1.87773e-06)
(-1.06979e-05 2.24316e-06 2.06232e-06)
(-7.48591e-06 1.98438e-06 1.22367e-05)
(-8.0956e-06 4.58996e-06 3.47259e-06)
(-1.0694e-05 1.54604e-06 3.29585e-06)
(-9.56189e-06 5.37534e-07 5.50292e-06)
(-7.38602e-06 1.21064e-06 4.92308e-06)
(-9.52466e-06 5.53362e-07 4.1529e-06)
(-6.25037e-06 3.42114e-07 9.44978e-07)
(-5.12971e-06 1.98205e-06 2.75352e-06)
(-8.48211e-06 5.7258e-07 4.04531e-06)
(-2.09267e-06 1.43701e-06 2.6248e-06)
(-3.48361e-06 2.27674e-06 2.25684e-06)
(-9.82075e-07 5.83414e-06 3.86246e-06)
(-7.79019e-08 1.25468e-06 1.20647e-06)
(-2.45928e-06 1.34876e-06 1.80962e-06)
(-3.61026e-07 3.69762e-06 3.45496e-06)
(-9.64686e-06 1.12441e-06 1.9369e-06)
(-8.6676e-06 8.63975e-07 1.38899e-06)
(-8.04217e-06 4.42887e-07 8.72914e-07)
(-5.77092e-06 4.062e-07 1.7386e-07)
(-3.36216e-06 -1.74755e-05 1.38681e-05)
(-9.77256e-06 -9.37407e-07 3.80271e-06)
(-8.26125e-06 1.06527e-06 2.18054e-06)
(-6.15116e-06 1.63348e-07 1.76045e-06)
(-2.29137e-06 -1.34617e-05 1.02243e-05)
(-8.05307e-06 -7.50988e-07 3.19235e-06)
(-8.11809e-06 1.51589e-06 8.67827e-07)
(-6.92218e-06 1.03904e-06 1.40474e-06)
(-5.13304e-06 2.24862e-06 5.42441e-06)
(-7.67689e-06 5.26956e-07 2.20738e-06)
(-9.8888e-06 2.90242e-07 1.93631e-06)
(-7.48591e-06 1.98438e-06 1.22367e-05)
(-4.68068e-06 2.03257e-07 7.15724e-06)
(-8.76456e-06 1.10368e-06 3.41234e-06)
(-9.56189e-06 5.37534e-07 5.50292e-06)
(-6.53736e-06 2.90772e-07 4.77306e-06)
(-6.30633e-06 5.65138e-07 1.24769e-06)
(-6.25037e-06 3.42114e-07 9.44978e-07)
(-5.47705e-06 5.43807e-07 7.31158e-07)
(-3.73985e-06 1.92108e-08 6.29345e-07)
(-2.09267e-06 1.43701e-06 2.6248e-06)
(-3.01168e-06 -4.97808e-08 9.65639e-07)
(-2.6725e-06 5.86258e-07 8.82682e-08)
(-7.79019e-08 1.25468e-06 1.20647e-06)
(-9.56697e-07 6.61699e-08 6.03396e-07)
(-9.11393e-07 -7.49713e-08 4.04576e-07)
)
;
    }
    procBoundary1to0
    {
        type            processor;
        value           nonuniform List<vector> 
12
(
(-0.0267038 0.000348996 0.000406031)
(-0.0258251 0.000432282 0.00036745)
(-0.024791 0.000337954 0.000372751)
(-0.0248819 0.00040473 0.000440578)
(-0.0237451 0.000497445 0.000341441)
(-0.0226524 0.000360268 0.000287221)
(-0.0232203 0.000479763 0.000333076)
(-0.0219647 0.000485785 0.000223601)
(-0.0209225 0.000351136 0.000111817)
(-0.0224589 0.000536043 0.000240723)
(-0.0212495 0.000473367 0.000176115)
(-0.020372 0.000301534 8.05349e-05)
)
;
    }
    procBoundary1to3
    {
        type            processor;
        value           nonuniform List<vector> 
27
(
(-0.0234447 8.84352e-05 3.55585e-05)
(-0.0244369 2.11655e-05 -0.00025641)
(-0.0229581 -3.92582e-05 -0.000428874)
(-0.0238829 -0.000100942 -0.000562624)
(-0.0219445 -0.000142837 -0.000444069)
(-0.0229434 -0.00024866 -0.000234554)
(-0.0205882 -0.00035463 0.000448245)
(-0.0216946 -0.000500636 0.00135162)
(-0.0182715 -0.000938128 0.0032906)
(-0.0207425 7.99094e-05 3.0584e-05)
(-0.0222118 3.3731e-05 -0.000262606)
(-0.0204494 -1.79373e-05 -0.000341032)
(-0.02201 -7.57703e-05 -0.000527096)
(-0.0200344 -0.000130842 -0.000294813)
(-0.0215132 -0.000226489 -0.000168391)
(-0.0192251 -0.000442726 0.000526833)
(-0.0202524 -0.000654207 0.00114791)
(-0.0172985 -0.00146073 0.00332725)
(-0.0186293 9.13005e-05 -4.49507e-05)
(-0.0204487 4.79231e-05 -0.000256052)
(-0.0184654 3.79432e-05 -0.000271993)
(-0.02041 4.88007e-05 -0.000341147)
(-0.0184401 -1.33005e-05 -0.000181632)
(-0.0201624 -9.60894e-05 -3.83238e-05)
(-0.0178997 -0.000126855 0.000387415)
(-0.0191182 -0.000230036 0.000826607)
(-0.0164951 -0.000353313 0.00185661)
)
;
    }
    procBoundary1to5
    {
        type            processor;
        value           nonuniform List<vector> 
32
(
(-0.0231993 0.000337366 -0.000580827)
(-0.0217471 0.000566967 -0.00057791)
(-0.0235345 0.000631914 -0.000742517)
(-0.0214742 0.00136494 -0.000343075)
(-0.0232763 0.00163131 -0.000271269)
(-0.019224 0.00377162 0.00123863)
(-0.019753 0.00032147 -0.000300739)
(-0.0215939 0.000329643 -0.000448728)
(-0.0199166 0.000492048 -0.00031455)
(-0.0216295 0.000583057 -0.000325444)
(-0.0195776 0.00115779 3.892e-05)
(-0.0207236 0.00138898 0.000166215)
(-0.0179845 0.00333264 0.0012358)
(-0.0202934 0.000247913 -0.000303425)
(-0.018457 0.000238834 -0.00023276)
(-0.020351 0.000229757 -0.00024741)
(-0.0184308 0.000306759 -0.000131786)
(-0.0201389 0.00028981 -5.17273e-05)
(-0.0178428 0.000541772 0.000187506)
(-0.0191093 0.00058378 0.000373195)
(-0.0165156 0.00137016 0.000954554)
(-0.0208751 0.000475125 -3.89702e-05)
(-0.0223043 0.000376388 -0.000227021)
(-0.0231993 0.000337366 -0.000580827)
(-0.019753 0.00032147 -0.000300739)
(-0.0210216 0.000378168 -0.000319314)
(-0.018982 0.000355814 -0.000122338)
(-0.019753 0.00032147 -0.000300739)
(-0.0202934 0.000247913 -0.000303425)
(-0.0208292 0.000269464 -0.000261916)
(-0.0202934 0.000247913 -0.000303425)
(-0.0180142 0.000245303 -0.000168377)
)
;
    }
    procBoundary1to7
    {
        type            processor;
        value           uniform (-0.0181582 7.76958e-05 -6.77005e-05);
    }
}


// ************************************************************************* //
