/*--------------------------------*- C++ -*----------------------------------*\
| =========                 |                                                 |
| \\      /  F ield         | OpenFOAM: The Open Source CFD Toolbox           |
|  \\    /   O peration     | Version:  4.x                                   |
|   \\  /    A nd           | Web:      www.OpenFOAM.org                      |
|    \\/     M anipulation  |                                                 |
\*---------------------------------------------------------------------------*/
FoamFile
{
    version     2.0;
    format      ascii;
    class       volVectorField;
    location    "16";
    object      UsPrev;
}
// * * * * * * * * * * * * * * * * * * * * * * * * * * * * * * * * * * * * * //

dimensions      [0 1 -1 0 0 0 0];

internalField   nonuniform List<vector> 
87
(
(-8.16124e-07 1.39718e-07 2.35088e-07)
(-4.33956e-06 8.54388e-07 3.91007e-07)
(-1.0284e-06 1.19688e-07 9.67914e-09)
(-8.87657e-07 1.07195e-07 4.79156e-08)
(-6.94803e-07 1.02709e-07 2.16851e-07)
(-1.13345e-06 2.27285e-08 1.80838e-07)
(-6.47568e-07 7.98562e-08 -9.10958e-09)
(1.06137e-06 1.82954e-07 -1.22331e-07)
(6.12411e-07 4.21938e-08 -1.85772e-07)
(-1.4233e-06 1.55136e-07 2.41504e-07)
(-1.64076e-06 2.98618e-07 2.79176e-07)
(-1.39521e-06 1.80914e-07 2.56619e-07)
(-1.47618e-06 1.86889e-07 1.72941e-07)
(-1.54317e-06 4.26914e-07 -4.83731e-08)
(-1.88388e-06 1.40181e-08 4.93015e-07)
(-9.87629e-07 2.38142e-07 1.48697e-08)
(-4.03706e-07 1.53795e-07 -7.02557e-08)
(-2.6314e-07 4.55651e-08 -1.74661e-07)
(-1.76754e-06 1.32763e-07 4.59879e-07)
(-2.03866e-06 2.68022e-07 4.85341e-07)
(-2.4058e-06 6.5886e-07 3.59476e-07)
(-1.925e-06 2.43771e-07 2.73767e-07)
(-1.91718e-06 2.22206e-07 2.04093e-07)
(-1.85012e-06 1.12208e-07 2.3885e-07)
(-1.3394e-06 7.15468e-08 2.68004e-07)
(-4.56174e-07 2.85879e-07 5.27384e-08)
(-1.39053e-07 1.1796e-07 4.86701e-09)
(-9.2719e-07 1.55826e-07 1.7619e-07)
(-8.35747e-07 8.57436e-08 2.29798e-07)
(-7.37705e-07 5.64914e-08 6.74585e-08)
(-6.00935e-07 9.12089e-08 1.10256e-08)
(-6.55937e-07 1.27286e-08 5.95585e-08)
(-6.39372e-07 -8.47436e-08 5.96211e-08)
(-4.94994e-07 1.02071e-07 5.62298e-09)
(-2.41315e-07 6.89284e-08 -7.44405e-08)
(-1.55723e-07 1.38481e-07 -7.1645e-08)
(-1.34338e-06 9.5028e-08 2.65155e-07)
(-1.3849e-06 1.80557e-07 3.20533e-07)
(-1.3069e-06 1.58318e-07 2.55308e-07)
(-1.32393e-06 1.86737e-07 1.24487e-07)
(-1.4679e-06 2.4733e-07 3.5652e-08)
(-1.56587e-06 1.11253e-07 2.30618e-07)
(-1.0528e-06 1.83258e-07 6.72127e-08)
(-4.41348e-07 8.98845e-08 -1.19647e-07)
(-1.9696e-07 8.66855e-08 -1.72054e-07)
(-1.58184e-06 9.80938e-08 3.96739e-07)
(-1.75154e-06 1.58633e-07 4.23146e-07)
(-1.78011e-06 1.45845e-07 3.24348e-07)
(-1.70873e-06 1.69745e-07 2.14937e-07)
(-1.81857e-06 2.19085e-07 1.7753e-07)
(-1.61217e-06 1.69416e-07 7.91228e-08)
(-1.08539e-06 8.08373e-08 9.78976e-08)
(-6.21779e-07 6.62683e-08 -9.82936e-08)
(-1.40689e-07 1.08308e-08 1.15768e-08)
(-7.00845e-07 1.16538e-08 1.23809e-07)
(-7.51203e-07 2.25917e-08 1.33239e-07)
(-6.35398e-07 -8.55681e-09 1.38457e-07)
(-6.11588e-07 6.35036e-08 6.19039e-08)
(-7.42294e-07 9.74156e-08 1.27774e-07)
(-9.1823e-07 1.35722e-07 1.0033e-07)
(-5.30197e-07 6.97546e-08 1.56921e-08)
(-3.08206e-07 5.6643e-08 -7.38731e-08)
(-1.86114e-07 1.73154e-07 -6.14927e-08)
(-1.23667e-06 -1.28108e-08 2.96485e-07)
(-1.20019e-06 6.51079e-08 2.50128e-07)
(-1.16448e-06 1.00772e-07 1.94288e-07)
(-1.12021e-06 1.13849e-07 1.3596e-07)
(-1.18976e-06 2.21216e-07 1.38982e-07)
(-1.47328e-06 3.7868e-08 2.33619e-07)
(-8.08968e-07 1.13749e-07 -1.36543e-08)
(-4.76543e-07 6.09493e-08 -1.14122e-07)
(-2.32253e-07 -6.97795e-08 -4.05529e-08)
(-1.3971e-06 6.85714e-08 3.21875e-07)
(-1.48466e-06 1.05278e-07 3.27755e-07)
(-1.43901e-06 1.92578e-07 2.49958e-07)
(-1.42918e-06 1.09884e-07 2.15971e-07)
(-1.55262e-06 1.40171e-07 1.79611e-07)
(-1.49318e-06 1.08924e-07 7.96309e-08)
(-8.09363e-07 4.57161e-08 -8.74373e-08)
(-5.34234e-07 2.71301e-08 -1.18444e-07)
(-2.41358e-07 -2.01337e-08 -2.77952e-08)
(-5.92858e-07 -3.78571e-08 9.94303e-08)
(-4.87226e-07 -1.02589e-07 1.38757e-07)
(-4.78063e-07 -1.02054e-08 1.18248e-07)
(-1.03909e-06 1.29814e-08 2.01779e-07)
(-1.0497e-06 1.03748e-08 2.33999e-07)
(-1.16592e-06 2.06977e-08 2.09047e-07)
)
;

boundaryField
{
    inlet
    {
        type            calculated;
        value           nonuniform 0();
    }
    outlet
    {
        type            calculated;
        value           uniform (0 0 0);
    }
    wall
    {
        type            calculated;
        value           uniform (0 0 0);
    }
    procBoundary1to0
    {
        type            processor;
        value           uniform (0 0 0);
    }
    procBoundary1to3
    {
        type            processor;
        value           uniform (0 0 0);
    }
    procBoundary1to5
    {
        type            processor;
        value           uniform (0 0 0);
    }
    procBoundary1to7
    {
        type            processor;
        value           uniform (0 0 0);
    }
}


// ************************************************************************* //
