/*--------------------------------*- C++ -*----------------------------------*\
| =========                 |                                                 |
| \\      /  F ield         | OpenFOAM: The Open Source CFD Toolbox           |
|  \\    /   O peration     | Version:  4.x                                   |
|   \\  /    A nd           | Web:      www.OpenFOAM.org                      |
|    \\/     M anipulation  |                                                 |
\*---------------------------------------------------------------------------*/
FoamFile
{
    version     2.0;
    format      ascii;
    class       volScalarField;
    location    "36";
    object      QPartFluidCoeff;
}
// * * * * * * * * * * * * * * * * * * * * * * * * * * * * * * * * * * * * * //

dimensions      [1 -1 -3 -1 0 0 0];

internalField   nonuniform List<scalar> 
114
(
-2.37771e+07
-1.86332e+07
-1.01828e+07
-1.98992e+07
-1.21238e+07
-1.53327e+07
-1.93768e+07
-2.31118e+07
-2.0438e+07
-1.46145e+07
-2.44705e+07
-1.66756e+07
-2.33685e+07
-2.24855e+07
-1.49456e+07
-1.29275e+07
-2.05541e+07
-1.69782e+07
-1.79676e+07
-1.93624e+07
-1.74734e+07
-2.26605e+07
-1.7993e+07
-2.17076e+07
-1.32826e+07
-1.33534e+07
-1.71946e+07
-1.51477e+07
-1.31846e+07
-1.36647e+07
-1.019e+07
-1.78024e+07
-1.32633e+07
-3.28035e+07
-4.09628e+07
-2.19915e+07
-3.74142e+07
-1.57689e+07
-2.64793e+07
-3.19912e+07
-3.06618e+07
-2.96604e+07
-2.34919e+07
-3.73229e+07
-2.9274e+07
-2.14426e+07
-1.95335e+07
-3.33741e+07
-3.554e+07
-3.06252e+07
-3.14332e+07
-2.95758e+07
-3.05989e+07
-2.96653e+07
-2.56978e+07
-1.68766e+07
-1.79377e+07
-2.78488e+07
-2.00904e+07
-2.53185e+07
-2.17795e+07
-2.23881e+07
-2.36818e+07
-1.60712e+07
-2.64025e+07
-3.07268e+07
-2.28706e+07
-1.9165e+07
-2.25176e+07
-2.30051e+07
-2.26039e+07
-2.59222e+07
-3.28426e+07
-2.42689e+07
-1.92028e+07
-1.66396e+07
-2.31956e+07
-3.03314e+07
-3.49972e+07
-3.06689e+07
-2.35026e+07
-3.16721e+07
-2.84156e+07
-3.41978e+07
-1.66933e+07
-2.53554e+07
-2.32802e+07
-2.5017e+07
-1.59477e+07
-2.28339e+07
-3.23818e+07
-1.79729e+07
-2.58663e+07
-1.63215e+07
-3.16143e+07
-3.4316e+07
-2.38867e+07
-2.74382e+07
-2.09082e+07
-2.52144e+07
-2.50382e+07
-1.95724e+07
-2.63442e+07
-3.50679e+07
-2.19913e+07
-3.03641e+07
-2.55191e+07
-3.43319e+07
-1.41919e+07
-2.10109e+07
-2.50249e+07
-2.41441e+07
-2.24772e+07
-2.16004e+07
)
;

boundaryField
{
    inlet
    {
        type            calculated;
        value           uniform 0;
    }
    outlet
    {
        type            calculated;
        value           nonuniform 0();
    }
    wall
    {
        type            calculated;
        value           uniform 0;
    }
    procBoundary2to0
    {
        type            processor;
        value           nonuniform List<scalar> 
44
(
383.388
420.955
370.443
301.342
392.045
643.952
225.148
342.592
265.154
265.154
416.408
855.732
512.185
795.821
524.193
480.211
602.036
531.835
589.312
416.408
855.732
855.732
603.231
659.057
486.39
407.203
521.962
654.308
722.806
676.286
751.607
603.231
659.057
659.057
406.496
195.537
364.591
507.274
740.353
767.2
412.837
728.604
639.663
406.496
)
;
    }
    procBoundary2to3
    {
        type            processor;
        value           nonuniform List<scalar> 
12
(
639.367
472.958
501.12
328.271
642.551
583.006
962.263
637.218
614.345
724.765
457.543
667.065
)
;
    }
    procBoundary2to6
    {
        type            processor;
        value           nonuniform List<scalar> 
32
(
609.386
507.517
673.769
429.848
469.291
423.717
752.327
677.132
460.382
606.902
836.649
463.705
657.507
609.386
507.517
502.897
476.45
697.283
618.544
774.067
669.851
662.477
507.517
429.848
662.293
353.537
573.759
450.667
465.32
658.91
429.848
718.138
)
;
    }
}


// ************************************************************************* //
