/*--------------------------------*- C++ -*----------------------------------*\
| =========                 |                                                 |
| \\      /  F ield         | OpenFOAM: The Open Source CFD Toolbox           |
|  \\    /   O peration     | Version:  4.x                                   |
|   \\  /    A nd           | Web:      www.OpenFOAM.org                      |
|    \\/     M anipulation  |                                                 |
\*---------------------------------------------------------------------------*/
FoamFile
{
    version     2.0;
    format      ascii;
    class       volVectorField;
    location    "36";
    object      Us;
}
// * * * * * * * * * * * * * * * * * * * * * * * * * * * * * * * * * * * * * //

dimensions      [0 1 -1 0 0 0 0];

internalField   nonuniform List<vector> 
114
(
(-7.18714e-10 -1.3765e-09 2.17187e-09)
(-7.42469e-10 -1.75326e-09 2.51551e-09)
(-2.38815e-09 -2.69832e-09 3.75848e-09)
(-1.98742e-09 -3.18177e-09 4.0835e-09)
(-1.47972e-09 -4.1726e-09 3.73896e-09)
(-1.38899e-09 -4.69806e-09 3.26522e-09)
(6.80101e-10 -3.97604e-10 4.20607e-10)
(-2.94647e-10 -4.80574e-10 1.29896e-09)
(-1.16849e-09 -8.1182e-10 1.88272e-09)
(-2.02941e-09 -1.55742e-09 2.33964e-09)
(-3.38005e-09 -1.92663e-09 2.42316e-09)
(-3.90712e-09 -2.84748e-09 3.02956e-09)
(-5.06115e-09 -4.67337e-09 3.15094e-09)
(-5.86866e-09 -7.15407e-09 2.36023e-09)
(-4.85475e-09 -3.356e-09 2.45683e-09)
(-7.80295e-11 -1.41566e-10 5.26856e-10)
(-2.19193e-10 -3.90558e-10 1.02608e-09)
(-1.04654e-09 -4.95074e-10 1.65553e-09)
(-1.87845e-09 -4.14329e-10 1.68111e-09)
(-2.5618e-09 -9.7388e-10 1.9752e-09)
(-3.17455e-09 -1.32037e-09 2.0011e-09)
(-4.16583e-09 -2.40545e-09 2.28498e-09)
(-4.43866e-09 -8.36464e-10 2.23033e-09)
(-3.14427e-09 -1.72229e-09 2.07307e-09)
(3.52391e-10 -2.87168e-10 4.02746e-10)
(-2.32175e-11 -3.87321e-10 6.91849e-10)
(-3.57494e-10 -4.59432e-10 7.44932e-10)
(1.01161e-09 -4.70542e-09 8.13032e-10)
(-1.52505e-09 -1.51709e-09 1.66787e-09)
(-1.34295e-09 -7.25024e-10 1.17237e-09)
(-1.99358e-09 -1.97164e-09 9.92647e-10)
(-1.92868e-09 -4.25433e-09 2.01504e-09)
(-1.94956e-09 -1.4273e-09 1.7678e-09)
(-8.47325e-10 -2.39423e-09 3.82293e-09)
(-1.37666e-09 -2.86809e-09 4.37333e-09)
(-1.68297e-09 -3.22348e-09 3.9918e-09)
(-1.05232e-09 -3.68713e-09 3.40889e-09)
(-1.139e-10 -1.60612e-10 4.38268e-10)
(-4.99386e-10 -4.26728e-10 1.27436e-09)
(-1.05748e-09 -7.13947e-10 1.96507e-09)
(-1.65697e-09 -1.24296e-09 2.2713e-09)
(-2.48243e-09 -1.59485e-09 2.51836e-09)
(-3.7943e-09 -2.93596e-09 3.10836e-09)
(-4.11459e-09 -2.9803e-09 2.96868e-09)
(-4.40834e-09 -3.72907e-09 2.18032e-09)
(-3.73537e-09 -2.96524e-09 2.53215e-09)
(-2.05814e-10 -1.29069e-10 5.77023e-10)
(-4.60308e-10 -2.18323e-10 9.3007e-10)
(-1.07657e-09 -5.17563e-10 1.70565e-09)
(-1.58278e-09 -8.77705e-10 1.84692e-09)
(-2.03835e-09 -7.78228e-10 2.35512e-09)
(-2.58789e-09 -8.55811e-10 1.81154e-09)
(-3.26517e-09 -1.35319e-09 2.0265e-09)
(-3.40475e-09 -1.45552e-09 1.98304e-09)
(-3.32938e-09 -1.49742e-09 2.0019e-09)
(-9.01502e-11 -1.25112e-10 3.31915e-10)
(-2.35278e-10 -2.27667e-10 6.48863e-10)
(-4.96433e-10 -4.05605e-10 8.73073e-10)
(-8.00642e-10 -5.98063e-10 9.83545e-10)
(-1.06286e-09 -7.05335e-10 1.58756e-09)
(-1.13439e-09 -7.18218e-10 1.06248e-09)
(-1.47394e-09 -9.66145e-10 8.22015e-10)
(-1.62038e-09 -8.07905e-10 1.04738e-09)
(-1.31944e-09 -8.20937e-10 7.75269e-10)
(1.04222e-10 -2.43505e-09 3.55068e-09)
(1.31704e-10 -2.72632e-09 3.29436e-09)
(-5.48158e-11 -4.72275e-10 5.82832e-10)
(-4.3805e-10 -4.85039e-10 1.215e-09)
(-8.94166e-10 -6.20746e-10 1.80376e-09)
(-1.30914e-09 -1.11804e-09 2.19358e-09)
(-1.97679e-09 -1.66238e-09 2.60895e-09)
(-2.54034e-09 -2.41424e-09 2.88525e-09)
(-2.95124e-09 -2.40521e-09 2.6479e-09)
(-3.1731e-09 -2.56889e-09 2.55575e-09)
(-3.40132e-09 -2.62945e-09 2.41666e-09)
(-1.49319e-10 -1.3599e-10 3.9554e-10)
(-4.7573e-10 -1.18394e-10 1.1984e-09)
(-1.07091e-09 -3.94294e-10 1.68811e-09)
(-1.17184e-09 -6.45733e-10 1.86773e-09)
(-1.78299e-09 -1.04414e-09 2.12577e-09)
(-2.03119e-09 -8.45734e-10 1.70304e-09)
(-2.55338e-09 -1.16118e-09 1.69509e-09)
(-2.11014e-09 -1.16138e-09 2.1594e-09)
(-2.19704e-09 -1.90175e-09 1.78551e-09)
(-4.02159e-11 -1.88641e-10 3.51978e-10)
(-3.21101e-10 -1.33732e-10 7.24062e-10)
(-5.32628e-10 -3.28364e-10 7.49631e-10)
(-1.1241e-09 -5.98482e-10 1.10367e-09)
(-8.76427e-10 -2.76001e-10 1.14622e-09)
(-6.85501e-10 -2.91749e-10 9.9872e-10)
(-9.1713e-10 -2.24406e-10 1.10648e-09)
(-1.04051e-09 -3.47569e-10 1.15981e-09)
(-9.48752e-10 -9.86064e-10 1.20495e-09)
(-1.21669e-11 -2.96966e-10 3.82952e-10)
(-1.14169e-10 -6.83294e-10 1.0396e-09)
(-3.90395e-10 -7.48484e-10 1.57642e-09)
(-7.04183e-10 -1.03862e-09 1.80744e-09)
(-1.12832e-09 -1.0975e-09 2.24493e-09)
(-9.76428e-10 -1.31632e-09 2.0673e-09)
(-1.32031e-09 -1.91798e-09 2.49496e-09)
(-7.71831e-10 -2.24126e-09 2.44491e-09)
(-3.48256e-11 -5.36682e-11 2.18398e-10)
(-2.69688e-10 -2.36551e-10 9.9594e-10)
(-4.10456e-10 -1.94385e-10 1.15781e-09)
(-6.15112e-10 -4.85421e-10 1.41175e-09)
(-8.93875e-10 -7.26288e-10 1.67095e-09)
(-9.41696e-10 -8.07312e-10 1.59562e-09)
(-6.68411e-10 -6.85527e-10 1.3722e-09)
(-1.63078e-11 -1.85923e-10 2.68771e-10)
(-2.02865e-10 -6.36949e-11 6.71927e-10)
(-4.32413e-10 -1.33241e-10 8.68304e-10)
(-3.44352e-10 -2.67159e-10 7.02432e-10)
(-2.50287e-10 -2.83021e-10 8.77263e-10)
(-2.81296e-10 -3.70838e-10 7.20488e-10)
)
;

boundaryField
{
    inlet
    {
        type            zeroGradient;
    }
    outlet
    {
        type            zeroGradient;
    }
    wall
    {
        type            zeroGradient;
    }
    procBoundary2to0
    {
        type            processor;
        value           nonuniform List<vector> 
44
(
(-5.22723e-10 -1.10033e-09 2.05197e-09)
(-8.83126e-10 -1.83387e-09 2.26098e-09)
(-1.99989e-09 -1.28705e-09 3.02296e-09)
(-1.90846e-09 -1.51709e-09 3.49901e-09)
(-2.82733e-09 -2.51672e-09 3.57636e-09)
(-2.46532e-09 -2.93316e-09 2.72503e-09)
(2.47025e-10 8.20467e-11 6.42786e-10)
(1.70437e-12 -2.93e-10 1.2875e-09)
(-6.91992e-10 -5.27749e-10 1.69413e-09)
(-6.91992e-10 -5.27749e-10 1.69413e-09)
(-4.17788e-10 -1.50376e-09 2.60456e-09)
(-1.02572e-09 -1.72663e-09 2.87022e-09)
(-1.53661e-09 -1.86544e-09 2.89044e-09)
(-1.44514e-09 -1.63561e-09 3.71773e-09)
(-1.4115e-09 -2.08897e-09 3.8583e-09)
(-1.1156e-09 -1.59745e-09 3.74819e-09)
(6.18768e-11 -1.81664e-11 8.78031e-10)
(-7.12611e-11 -2.70707e-10 1.54852e-09)
(1.3268e-10 -5.06314e-10 2.09142e-09)
(-4.17788e-10 -1.50376e-09 2.60456e-09)
(-1.02572e-09 -1.72663e-09 2.87022e-09)
(-1.02572e-09 -1.72663e-09 2.87022e-09)
(-4.24806e-10 -1.9111e-09 3.19152e-09)
(7.58347e-10 -2.53782e-09 3.02301e-09)
(3.23263e-10 -1.20417e-09 3.57622e-09)
(-7.50494e-10 9.30811e-10 4.72302e-09)
(-5.44069e-11 -2.51643e-10 8.51361e-10)
(3.19326e-10 -8.33216e-10 1.5885e-09)
(5.7661e-10 -1.15817e-09 1.82169e-09)
(5.87044e-10 -1.42723e-09 2.34325e-09)
(1.11932e-10 -2.07359e-09 2.87236e-09)
(-4.24806e-10 -1.9111e-09 3.19152e-09)
(7.58347e-10 -2.53782e-09 3.02301e-09)
(7.58347e-10 -2.53782e-09 3.02301e-09)
(9.96064e-10 -1.31815e-09 2.43498e-09)
(3.78478e-10 -2.13747e-09 3.09794e-09)
(9.29779e-11 -1.98726e-10 8.09424e-10)
(3.14414e-10 -5.85564e-10 1.15247e-09)
(9.49391e-10 -7.30091e-10 1.27961e-09)
(9.47756e-10 -1.10446e-09 1.59765e-09)
(1.44588e-09 -1.26248e-09 1.81824e-09)
(6.59786e-10 -1.27197e-09 2.62029e-09)
(1.20098e-09 -1.56572e-09 2.65558e-09)
(9.96064e-10 -1.31815e-09 2.43498e-09)
)
;
    }
    procBoundary2to3
    {
        type            processor;
        value           nonuniform List<vector> 
12
(
(-1.20884e-09 -7.64838e-09 4.63248e-09)
(-5.28389e-09 -5.85839e-09 2.80466e-09)
(-1.80351e-09 1.14342e-08 8.66863e-10)
(-1.6794e-09 -1.51009e-09 1.29032e-09)
(-7.41081e-10 -6.17787e-09 4.67716e-09)
(-4.56974e-09 -4.44276e-09 3.10788e-09)
(-3.16807e-09 -2.12491e-09 2.37275e-09)
(-1.32962e-09 -1.31934e-09 1.3974e-09)
(1.49233e-09 -4.92365e-09 3.47825e-09)
(-2.47621e-09 -5.06369e-09 4.00896e-09)
(-1.88624e-09 -1.98368e-09 2.79904e-09)
(-6.52276e-10 -1.48075e-09 1.44673e-09)
)
;
    }
    procBoundary2to6
    {
        type            processor;
        value           nonuniform List<vector> 
32
(
(-5.10278e-10 -1.55842e-09 1.87322e-09)
(-4.86148e-10 -1.13486e-09 1.46937e-09)
(-1.89882e-10 -2.14176e-09 1.44555e-09)
(-2.73299e-10 -1.54668e-10 6.26109e-10)
(-2.33828e-10 -4.01708e-10 9.33216e-10)
(1.64239e-10 -7.04749e-10 7.31461e-10)
(5.72218e-11 -4.28825e-10 4.73812e-10)
(-2.15239e-11 -7.46735e-10 8.81217e-10)
(-3.59329e-10 -7.40982e-10 1.21364e-09)
(-4.81086e-10 -7.33574e-10 1.46275e-09)
(-7.94253e-10 -9.73679e-10 1.64334e-09)
(-6.23582e-10 -1.06181e-09 1.66234e-09)
(-8.33883e-10 -1.5241e-09 1.82629e-09)
(-5.10278e-10 -1.55842e-09 1.87322e-09)
(-4.86148e-10 -1.13486e-09 1.46937e-09)
(-4.68034e-10 -1.90348e-09 1.64083e-09)
(-1.43908e-10 -4.77037e-11 2.62579e-10)
(-2.3163e-10 -1.7538e-10 7.11349e-10)
(-5.13483e-10 -2.02917e-10 9.00758e-10)
(-5.70305e-10 -3.14217e-10 9.37362e-10)
(-6.37352e-10 -5.71072e-10 1.12998e-09)
(-5.62128e-10 -6.50877e-10 1.10668e-09)
(-4.86148e-10 -1.13486e-09 1.46937e-09)
(-2.73299e-10 -1.54668e-10 6.26109e-10)
(-5.65461e-10 -1.11679e-09 7.6299e-10)
(-1.4311e-11 -4.58687e-11 1.97956e-10)
(-1.47362e-10 -7.99365e-11 5.63297e-10)
(-1.61294e-10 -1.51033e-10 3.93719e-10)
(-1.71884e-10 -1.06861e-10 5.09363e-10)
(-2.08053e-10 -1.03169e-10 4.80114e-10)
(-2.73299e-10 -1.54668e-10 6.26109e-10)
(-2.69044e-10 -3.17873e-10 5.49483e-10)
)
;
    }
}


// ************************************************************************* //
