/*--------------------------------*- C++ -*----------------------------------*\
| =========                 |                                                 |
| \\      /  F ield         | OpenFOAM: The Open Source CFD Toolbox           |
|  \\    /   O peration     | Version:  4.x                                   |
|   \\  /    A nd           | Web:      www.OpenFOAM.org                      |
|    \\/     M anipulation  |                                                 |
\*---------------------------------------------------------------------------*/
FoamFile
{
    version     2.0;
    format      ascii;
    class       volVectorField;
    location    "10.5";
    object      GField;
}
// * * * * * * * * * * * * * * * * * * * * * * * * * * * * * * * * * * * * * //

dimensions      [1 -2 -1 0 0 0 0];

internalField   nonuniform List<vector> 
108
(
(92.9134 -3.74668 -3.66859)
(43.1206 -2.09613 -2.74638)
(93.411 -4.53639 -4.25477)
(44.6775 -2.1372 -3.01939)
(94.119 -3.92438 -2.99589)
(45.5669 -1.56069 -2.25129)
(94.561 -2.81075 -1.49551)
(45.6781 -1.33747 -1.22384)
(95.6849 -1.88769 2.10299)
(91.3299 -4.63395 -3.39053)
(34.1808 -2.1563 -2.13194)
(87.2567 -4.68472 -3.6674)
(22.9819 -1.40137 -1.63219)
(83.9456 -3.24869 -2.02082)
(14.0366 -0.686807 -0.617441)
(82.6799 -2.33241 0.0700621)
(7.78826 -0.453133 -0.221983)
(82.2914 -1.25412 1.31079)
(90.8082 -2.7901 -3.31848)
(32.2519 -1.71747 -2.02473)
(85.1153 -2.79478 -3.12304)
(19.9003 -1.19757 -1.16953)
(81.9574 -2.02833 -0.979414)
(11.4046 -0.878756 -0.330817)
(80.7979 -1.1396 1.05772)
(4.75919 -0.447037 -0.0696279)
(80.1296 -0.00548214 1.58533)
(90.9531 -1.10939 -3.61588)
(31.8368 -0.00113938 -1.88352)
(83.9918 -0.486477 -3.15042)
(18.416 -0.193457 -1.31445)
(79.8489 -0.358351 -1.40729)
(8.23033 -0.0686031 -0.281986)
(77.3235 0.171325 0.584907)
(1.59957 -0.014732 -0.0307286)
(76.4457 0.205972 1.49394)
(92.4392 -3.21504 0.223071)
(44.5283 -1.86218 -0.0996245)
(94.0217 -3.54836 0.351186)
(46.8311 -1.85884 -0.77985)
(95.4524 -3.44715 0.238148)
(49.6192 -1.98417 -0.415782)
(97.8875 -3.17581 1.63716)
(51.4599 -1.6267 0.924367)
(99.9582 -2.18629 3.82902)
(91.5792 -3.94865 1.1342)
(38.314 -2.15724 0.351849)
(89.4485 -3.91991 2.2296)
(32.5364 -1.39276 0.224822)
(87.7557 -2.84128 2.58289)
(26.957 -0.837713 0.435237)
(86.5813 -1.674 3.79194)
(21.2033 -0.323033 0.845887)
(85.7911 -1.29691 3.93785)
(90.9757 -3.25461 1.35178)
(36.3565 -1.64315 0.443728)
(86.9993 -3.0188 2.07232)
(28.4367 -1.27783 0.548731)
(85.0475 -1.8758 2.60612)
(23.3194 -0.798455 0.888459)
(85.0243 -0.862452 4.0791)
(20.452 -0.690889 1.56361)
(85.7302 -0.943279 3.81531)
(89.9607 -1.24614 0.923923)
(34.1426 -0.0549156 0.882183)
(85.2715 -0.54913 2.3093)
(23.9664 -0.10555 0.750845)
(81.978 -0.488148 3.3356)
(16.8085 -0.28202 1.28726)
(80.4613 -0.461209 4.72228)
(11.6477 -0.240939 1.31416)
(79.3235 -0.563572 3.65511)
(93.0769 -2.80853 0.264966)
(47.4432 -1.75247 0.106667)
(97.2457 -2.79583 0.2383)
(53.3608 -1.35272 -0.468735)
(99.2931 -2.02895 -0.49673)
(55.984 -0.99819 -0.836727)
(100.781 -1.37742 0.210368)
(59.0114 -0.90256 0.00838956)
(104.474 -0.927974 1.48937)
(92.3546 -3.59193 0.680262)
(43.4084 -2.07034 0.301334)
(93.1772 -3.31099 1.12067)
(46.1448 -1.23774 0.295627)
(94.514 -1.85121 1.20447)
(48.6008 -0.713567 0.485511)
(96.2666 -1.1309 2.40973)
(52.8003 -0.567849 1.06087)
(99.6415 -1.01896 2.79338)
(91.1791 -3.00075 0.660413)
(41.4967 -1.49184 0.42731)
(90.5688 -2.88031 1.04837)
(41.4289 -1.44284 0.327887)
(91.4175 -1.70137 1.01635)
(43.1668 -0.806788 0.231728)
(93.5443 -0.740636 1.56078)
(47.6706 -1.07682 0.553306)
(97.2041 -1.17435 2.07901)
(89.8954 -0.398702 0.904548)
(40.3093 -0.111289 0.632317)
(89.2602 -0.726485 1.39147)
(38.4258 -0.465122 0.619421)
(89.0226 -0.936228 1.68826)
(39.6137 -0.706915 1.04828)
(91.1748 -1.36374 2.98918)
(45.1701 -0.817465 1.44475)
(93.9904 -1.84094 3.15865)
)
;

boundaryField
{
    inlet
    {
        type            calculated;
        value           uniform (67 0 0);
    }
    outlet
    {
        type            calculated;
        value           nonuniform 0();
    }
    wall
    {
        type            calculated;
        value           uniform (0 0 0);
    }
    procBoundary4to0
    {
        type            processor;
        value           nonuniform List<vector> 
36
(
(93.3883 -3.44573 -5.8799)
(44.1006 -1.95156 -4.2989)
(95.5741 -3.81074 -6.64227)
(47.7219 -1.74477 -4.36189)
(97.5731 -3.21836 -5.06839)
(50.0122 -1.66788 -3.296)
(99.9297 -3.07686 -2.11758)
(53.387 -1.28043 -1.11534)
(103.828 -2.12046 2.97212)
(92.385 -4.20736 -6.43401)
(36.2702 -2.09469 -3.91614)
(89.9456 -4.49682 -6.89228)
(30.5188 -1.49706 -3.01028)
(88.2641 -3.34383 -3.75055)
(25.7798 -0.873702 -1.27526)
(87.6407 -2.35209 0.318298)
(22.4441 -0.38196 -0.0758041)
(89.0796 -1.69369 2.40898)
(91.5371 -3.02541 -6.1773)
(34.681 -1.68807 -3.72497)
(87.7256 -3.36401 -5.80349)
(25.1273 -1.10252 -2.2612)
(85.6534 -1.98838 -2.30347)
(18.6108 -0.655013 -0.763194)
(85.8797 -0.704502 1.00044)
(16.4365 -0.53643 -0.0700328)
(87.4268 -0.647247 2.971)
(91.5052 -0.98381 -5.85122)
(33.2551 -0.213246 -3.75339)
(86.4863 -0.362914 -5.78362)
(22.2756 0.0941739 -2.27395)
(84.6405 0.0371498 -2.57337)
(17.1375 0.0181897 -0.978603)
(84.5396 -0.153138 1.10725)
(16.894 -0.0841702 -0.23839)
(85.2768 0.0977447 3.10859)
)
;
    }
    procBoundary4to5
    {
        type            processor;
        value           nonuniform List<vector> 
12
(
(46.3457 -1.22759 1.7668)
(2.93143 -0.282786 -0.0909763)
(1.02031 -0.177854 -0.0439812)
(-0.000153773 -1.88411e-05 5.44373e-05)
(53.9069 -1.74814 2.84486)
(17.0152 -0.612255 0.550919)
(17.7334 -1.73833 1.62205)
(6.94494 -0.274375 0.994056)
(64.5376 -1.02305 0.195332)
(58.0598 -1.37151 0.67382)
(52.6755 -2.81582 0.259541)
(49.3926 -2.04081 2.10529)
)
;
    }
    procBoundary4to6
    {
        type            processor;
        value           nonuniform List<vector> 
27
(
(88.7681 1.76081 -3.4655)
(30.6424 1.25145 -1.75808)
(83.7491 2.27264 -3.26131)
(17.3048 0.787006 -1.17416)
(80.301 1.58923 -1.42699)
(7.99327 0.486083 -0.386192)
(79.3203 0.835166 0.643525)
(2.93526 0.219483 -0.106734)
(79.0605 -0.00653364 0.589836)
(89.0653 2.20702 1.98285)
(34.4567 1.12407 0.320347)
(85.5269 2.28008 1.84886)
(25.4639 0.93222 0.446878)
(83.8478 1.4656 2.19089)
(19.3399 0.496004 0.556026)
(83.2143 0.801256 2.68691)
(15.5189 0.396409 1.02084)
(83.3039 0.668401 1.70848)
(91.2498 2.53345 1.52696)
(42.3747 1.13439 0.408969)
(90.7064 2.13495 0.896542)
(40.6116 0.926467 0.0237639)
(90.0174 1.18046 0.592525)
(39.184 0.376865 0.103606)
(89.8336 0.0238411 0.772465)
(38.0157 0.163125 0.424925)
(91.4997 -0.250658 0.948415)
)
;
    }
}


// ************************************************************************* //
