/*--------------------------------*- C++ -*----------------------------------*\
| =========                 |                                                 |
| \\      /  F ield         | OpenFOAM: The Open Source CFD Toolbox           |
|  \\    /   O peration     | Version:  4.x                                   |
|   \\  /    A nd           | Web:      www.OpenFOAM.org                      |
|    \\/     M anipulation  |                                                 |
\*---------------------------------------------------------------------------*/
FoamFile
{
    version     2.0;
    format      ascii;
    class       volScalarField;
    location    "10.5";
    object      Ksl;
}
// * * * * * * * * * * * * * * * * * * * * * * * * * * * * * * * * * * * * * //

dimensions      [1 -3 -1 0 0 0 0];

internalField   nonuniform List<scalar> 
108
(
3420.54
7356.98
3447.28
7210.25
3459.22
7083.42
3439.44
7032
3365.46
3512.29
9450.89
3764.32
14147
3903.26
23068.8
3954.88
41339.2
3952.43
3560.68
10089.2
3872.32
16313
3989.22
28206.2
4010.96
66827.8
4024.09
3543.46
10236.5
3918.82
17618.6
4077.22
39021.6
4168.33
198961
4193.47
3409.98
7096.51
3391.41
6800.2
3376.57
6431.28
3290.89
6192.01
3206.72
3493.29
8360.2
3631.26
9908.65
3700.54
11906.8
3730.3
15089
3767.07
3521.22
8856.09
3747.7
11328.3
3810.85
13706.7
3774.09
15490
3744.22
3551.61
9442.65
3815.97
13397.5
3934.24
18905.3
3968.91
26935.4
4009.62
3353.05
6536.58
3221.24
5843.27
3183.3
5593.24
3144.91
5332.64
3035.95
3405.89
7220.64
3420.31
6859.87
3377.44
6500.94
3300.52
5991.89
3186.52
3463.84
7584.4
3515.12
7618.33
3492.31
7307.45
3387.06
6600.96
3254.34
3509.32
7823.39
3576.85
8214.23
3571.21
7906.74
3457.58
6944.78
3349.08
)
;

boundaryField
{
    inlet
    {
        type            zeroGradient;
    }
    outlet
    {
        type            zeroGradient;
    }
    wall
    {
        type            zeroGradient;
    }
    procBoundary4to0
    {
        type            processor;
        value           nonuniform List<scalar> 
36
(
3445.18
7305.85
3426.35
6822.74
3377.14
6554.03
3322.15
6167.32
3190.47
3516.28
9009.67
3693.27
10818.3
3771.68
12798.4
3801.06
14662.3
3725.51
3576.75
9461.38
3801.14
13106.1
3874.3
17595.4
3850.49
19819.7
3745.03
3563.62
9862.19
3851.47
14735.8
3911.89
18999.3
3883.34
19192.6
3816.78
)
;
    }
    procBoundary4to5
    {
        type            processor;
        value           nonuniform List<scalar> 
12
(
6968.27
110047
308287
1e+10
5952.28
18929
17820.6
45139.1
4933.72
5492.27
5981.93
6324.98
)
;
    }
    procBoundary4to6
    {
        type            processor;
        value           nonuniform List<scalar> 
27
(
3622.55
10597.8
3913.84
18657.1
4039.21
40026.3
4064.27
108121
4060.19
3581.43
9332.34
3792.88
12568.3
3834.74
16453.8
3853.65
20336.8
3828.76
3464.12
7457.84
3518.84
7752.5
3503.84
7999.34
3517.29
8215.01
3461.07
)
;
    }
}


// ************************************************************************* //
