/*--------------------------------*- C++ -*----------------------------------*\
| =========                 |                                                 |
| \\      /  F ield         | OpenFOAM: The Open Source CFD Toolbox           |
|  \\    /   O peration     | Version:  4.x                                   |
|   \\  /    A nd           | Web:      www.OpenFOAM.org                      |
|    \\/     M anipulation  |                                                 |
\*---------------------------------------------------------------------------*/
FoamFile
{
    version     2.0;
    format      ascii;
    class       volScalarField;
    location    "10.5";
    object      KslPrev;
}
// * * * * * * * * * * * * * * * * * * * * * * * * * * * * * * * * * * * * * //

dimensions      [1 -3 -1 0 0 0 0];

internalField   nonuniform List<scalar> 
108
(
3421.11
7357.19
3447.55
7209.96
3459.45
7083.53
3439.65
7032.26
3365.61
3512.86
9450.95
3764.62
14144.5
3903.51
23065.9
3955.13
41338.3
3952.61
3561.21
10089.4
3872.64
16309.9
3989.48
28199.8
4011.2
66809.4
4024.26
3543.95
10236.8
3919.15
17615.8
4077.48
39008.7
4168.54
198762
4193.64
3410.48
7097
3391.73
6800.3
3376.81
6431.42
3291.08
6192.17
3206.85
3493.79
8360.69
3631.6
9908.46
3700.79
11906.7
3730.51
15089.4
3767.24
3521.7
8856.59
3748.04
11327.9
3811.11
13706.1
3774.3
15489.7
3744.38
3552.06
9443.16
3816.31
13396.8
3934.5
18903.4
3969.12
26932.6
4009.79
3353.52
6537.16
3221.56
5843.55
3183.54
5593.46
3145.09
5332.82
3036.08
3406.35
7221.23
3420.65
6860.11
3377.69
6501.1
3300.7
5992.03
3186.65
3464.29
7584.98
3515.45
7618.53
3492.55
7307.55
3387.24
6601.03
3254.46
3509.74
7823.97
3577.18
8214.43
3571.45
7906.81
3457.76
6944.83
3349.21
)
;

boundaryField
{
    inlet
    {
        type            zeroGradient;
    }
    outlet
    {
        type            zeroGradient;
    }
    wall
    {
        type            zeroGradient;
    }
    procBoundary4to0
    {
        type            processor;
        value           uniform 0;
    }
    procBoundary4to5
    {
        type            processor;
        value           uniform 0;
    }
    procBoundary4to6
    {
        type            processor;
        value           uniform 0;
    }
}


// ************************************************************************* //
