/*--------------------------------*- C++ -*----------------------------------*\
| =========                 |                                                 |
| \\      /  F ield         | OpenFOAM: The Open Source CFD Toolbox           |
|  \\    /   O peration     | Version:  4.x                                   |
|   \\  /    A nd           | Web:      www.OpenFOAM.org                      |
|    \\/     M anipulation  |                                                 |
\*---------------------------------------------------------------------------*/
FoamFile
{
    version     2.0;
    format      ascii;
    class       volScalarField;
    location    "10.5";
    object      p_rgh;
}
// * * * * * * * * * * * * * * * * * * * * * * * * * * * * * * * * * * * * * //

dimensions      [1 -1 -2 0 0 0 0];

internalField   nonuniform List<scalar> 
108
(
114.663
97.2764
105.593
78.2274
95.9075
59.61
87.2991
41.7513
79.3533
115.152
97.4722
106.287
78.5542
96.6036
59.7993
87.7762
41.9997
79.8305
114.938
97.2518
106.22
78.7296
96.6932
60.2061
87.9234
42.5491
79.909
114.783
97.3049
106.46
79.2196
97.2407
61.0248
88.2749
43.4214
79.9815
113.54
96.5494
105.243
78.504
96.1195
60.0547
87.4901
42.0007
79.2614
114.07
96.8019
105.773
78.7775
96.6646
60.3181
87.8917
42.1654
79.68
114.049
96.7781
105.764
78.7423
96.6274
60.246
87.7439
42.0603
79.6541
114.298
96.8152
106.109
79.1325
97.055
60.7652
88.1304
42.6526
79.8991
113.064
96.1997
105.04
78.6929
96.329
60.4667
87.5555
42.1799
79.0655
113.555
96.4624
105.426
78.8178
96.6251
60.5534
87.7288
42.2967
79.1843
113.623
96.4483
105.471
78.7545
96.6227
60.5367
87.7546
42.263
79.2865
113.901
96.4899
105.783
79.0392
96.892
60.7519
87.8831
42.6798
79.389
)
;

boundaryField
{
    inlet
    {
        type            fixedFluxPressure;
        gradient        nonuniform List<scalar> 
12
(
0.0203144
0.0209808
0.0221336
0.0227292
0.0369298
0.0371184
0.039027
0.0379247
0.0699382
0.0661165
0.0644381
0.0572423
)
;
        value           nonuniform List<scalar> 
12
(
114.663
115.153
114.938
114.784
113.541
114.071
114.05
114.299
113.065
113.556
113.624
113.902
)
;
    }
    outlet
    {
        type            fixedValue;
        value           nonuniform 0();
    }
    wall
    {
        type            fixedFluxPressure;
        gradient        nonuniform List<scalar> 
63
(
5.33682e-06
3.18924e-06
8.64161e-06
5.83607e-06
1.13796e-05
1.49934e-05
1.08549e-05
9.92409e-06
4.29274e-06
5.06083e-06
6.13127e-06
4.49202e-06
-4.45625e-06
1.29154e-06
-5.39933e-06
-6.71946e-06
-7.98082e-07
-9.31053e-06
-1.87035e-05
2.55023e-06
9.53775e-06
-1.21875e-05
-3.66049e-05
1.49517e-05
1.74093e-06
-4.73797e-06
-9.00531e-06
-1.27065e-05
-1.90622e-06
3.15594e-06
-1.54094e-05
-5.23017e-06
3.19162e-06
2.12213e-05
-1.20468e-05
8.26746e-06
-4.84917e-06
-2.79328e-06
-6.47879e-07
-1.39831e-05
-7.5782e-08
-6.90034e-07
4.16113e-06
-8.32903e-08
2.47439e-06
1.39147e-05
1.16075e-05
6.0803e-06
6.80325e-06
4.27962e-06
5.95216e-06
-1.64397e-05
1.10037e-05
1.40647e-05
2.02129e-05
3.74888e-06
3.48038e-06
4.0594e-05
5.98297e-05
1.20138e-05
-6.99368e-06
1.03923e-05
2.20448e-05
)
;
        value           nonuniform List<scalar> 
63
(
113.064
113.555
113.623
113.901
96.1997
96.4624
96.4483
96.4899
105.04
105.426
105.471
105.783
78.6929
78.8178
78.7545
79.0392
96.329
96.6251
96.6227
96.892
60.4667
60.5534
60.5367
60.7519
87.5555
87.7288
87.7546
87.8831
42.1799
42.2967
42.263
42.6798
79.0655
79.1843
79.2865
79.389
114.663
113.54
113.064
97.2764
96.5494
96.1997
105.593
105.243
105.04
78.2274
78.504
78.6929
95.9075
96.1195
96.329
59.61
60.0547
60.4667
87.2991
87.4901
87.5555
41.7513
42.0007
42.1799
79.3533
79.2614
79.0655
)
;
    }
    procBoundary4to0
    {
        type            processor;
        value           nonuniform List<scalar> 
36
(
116.359
98.2386
105.123
77.0372
94.2989
58.082
86.1351
40.7404
79.0221
116.268
98.066
105.616
77.4023
95.1008
58.5961
86.8398
40.9737
79.4398
115.283
97.4506
105.605
77.7338
95.597
58.9612
87.094
41.1186
79.6182
114.67
97.0566
105.805
78.1466
96.2329
59.7286
87.5852
41.8549
79.9313
)
;
    }
    procBoundary4to5
    {
        type            processor;
        value           nonuniform List<scalar> 
12
(
23.7834
24.4962
25.4768
26.8817
23.4861
24.2411
24.2688
25.5833
23.7128
23.9825
24.1137
24.8831
)
;
    }
    procBoundary4to6
    {
        type            processor;
        value           nonuniform List<scalar> 
27
(
114.238
96.441
105.981
78.838
96.9915
60.6245
88.2163
42.9774
80.1573
113.808
96.27
105.629
78.6825
96.7874
60.5772
88.0023
42.4868
79.9668
113.352
96.155
105.428
78.8027
96.8158
60.8284
88.1083
42.5307
79.6756
)
;
    }
}


// ************************************************************************* //
