/*--------------------------------*- C++ -*----------------------------------*\
| =========                 |                                                 |
| \\      /  F ield         | OpenFOAM: The Open Source CFD Toolbox           |
|  \\    /   O peration     | Version:  4.x                                   |
|   \\  /    A nd           | Web:      www.OpenFOAM.org                      |
|    \\/     M anipulation  |                                                 |
\*---------------------------------------------------------------------------*/
FoamFile
{
    version     2.0;
    format      ascii;
    class       surfaceScalarField;
    location    "10.5";
    object      phi;
}
// * * * * * * * * * * * * * * * * * * * * * * * * * * * * * * * * * * * * * //

dimensions      [0 3 -1 0 0 0 0];

internalField   nonuniform List<scalar> 
249
(
8.29911e-06
-4.96396e-07
-2.02763e-07
8.30268e-06
-2.5181e-07
-1.67662e-07
8.43436e-06
-5.46406e-07
-2.30699e-07
8.43116e-06
-2.09712e-07
-2.25027e-07
8.54096e-06
-4.25272e-07
-1.63453e-07
8.50264e-06
-1.33256e-07
-1.58185e-07
8.58438e-06
-3.04998e-07
8.21069e-09
8.569e-06
-1.06166e-07
-1.78281e-08
-1.86344e-07
3.51308e-07
7.65816e-06
-4.39084e-07
-1.32442e-07
7.38272e-06
-2.2894e-07
-1.04621e-07
6.7379e-06
-4.42588e-07
-8.46041e-08
6.48968e-06
-1.53826e-07
-8.33435e-08
6.00053e-06
-3.12422e-07
3.3237e-08
5.85813e-06
-9.28245e-08
-1.10792e-08
5.55232e-06
-2.05676e-07
2.2857e-07
5.4442e-06
-5.34361e-08
3.69346e-08
-7.46414e-08
3.10829e-07
7.50873e-06
-2.30588e-07
-1.15496e-07
7.13463e-06
-1.01722e-07
-9.30282e-08
6.41931e-06
-1.94422e-07
-6.17532e-08
6.181e-06
-8.26785e-08
-3.66327e-08
5.71862e-06
-1.41792e-07
9.63802e-08
5.58358e-06
-5.66764e-08
3.31e-08
5.25232e-06
-5.76816e-08
3.04315e-07
5.12867e-06
-2.78913e-08
8.89303e-08
1.17588e-08
3.19918e-07
7.49212e-06
-1.58812e-07
7.04075e-06
-5.87621e-08
6.26021e-06
-4.94423e-08
5.96213e-06
-3.3147e-08
5.39633e-06
1.14343e-07
5.17925e-06
5.97956e-08
4.84707e-06
3.14368e-07
4.71295e-06
7.66148e-08
3.04856e-07
8.35557e-06
-4.2443e-07
2.9359e-08
8.42524e-06
-2.38088e-07
7.54599e-10
8.60199e-06
-4.42527e-07
3.50814e-08
8.6437e-06
-1.92719e-07
-7.4016e-08
8.86855e-06
-3.72774e-07
-1.55333e-08
8.95223e-06
-1.67378e-07
-7.44882e-08
9.13881e-06
-2.87609e-07
1.09239e-07
9.18163e-06
-1.15692e-07
5.50497e-08
-2.06547e-07
3.1496e-07
7.92473e-06
-4.26214e-07
1.07881e-07
7.76785e-06
-2.24832e-07
3.89956e-08
7.45277e-06
-4.10648e-07
1.98599e-07
7.30385e-06
-1.57969e-07
3.08273e-08
7.01926e-06
-2.7917e-07
2.2422e-07
6.88315e-06
-9.67416e-08
5.44011e-08
6.60683e-06
-1.50043e-07
3.67323e-07
6.47513e-06
-5.98873e-08
1.12827e-07
-1.32621e-07
3.98808e-07
7.76863e-06
-2.66562e-07
1.19492e-07
7.49942e-06
-1.00526e-07
5.18677e-08
7.05355e-06
-2.11488e-07
1.84964e-07
6.88925e-06
-8.22061e-08
5.19002e-08
6.63234e-06
-1.40336e-07
2.14453e-07
6.56697e-06
-6.4393e-08
6.61274e-08
6.46606e-06
-7.877e-08
3.33952e-07
6.42563e-06
-5.56652e-08
1.25138e-07
-8.94961e-08
3.49196e-07
7.57197e-06
1.08586e-07
7.25903e-06
8.9898e-08
6.67586e-06
2.19335e-07
6.43002e-06
8.11806e-08
6.04837e-06
2.97547e-07
5.89269e-06
1.38243e-07
5.65117e-06
4.56844e-07
5.49947e-06
1.63233e-07
4.03814e-07
8.57186e-06
-3.79233e-07
8.7991e-06
-2.26484e-07
9.19601e-06
-3.61831e-07
9.27548e-06
-1.53492e-07
9.48993e-06
-2.29981e-07
9.51692e-06
-1.01478e-07
9.77487e-06
-1.48713e-07
9.91715e-06
-8.72275e-08
-1.1541e-07
8.28209e-06
-3.90175e-07
8.30538e-06
-2.10785e-07
8.50863e-06
-3.66479e-07
8.54457e-06
-1.58606e-07
8.7491e-06
-2.10291e-07
8.79203e-06
-9.00052e-08
9.12149e-06
-1.10844e-07
9.24441e-06
-9.73289e-08
-1.2998e-07
8.09401e-06
-2.01425e-07
8.03e-06
-9.4914e-08
8.06225e-06
-2.13758e-07
8.06872e-06
-1.13179e-07
8.22927e-06
-1.56389e-07
8.29519e-06
-8.98011e-08
8.64303e-06
-1.24727e-07
8.78337e-06
-1.12529e-07
-1.78633e-07
7.94357e-06
7.87768e-06
7.79955e-06
7.74e-06
7.86661e-06
7.93462e-06
8.34623e-06
8.43553e-06
)
;

boundaryField
{
    inlet
    {
        type            calculated;
        value           nonuniform List<scalar> 
12
(
-8.16327e-06
-8.16327e-06
-8.16327e-06
-8.16327e-06
-8.16327e-06
-8.16327e-06
-8.16327e-06
-8.16327e-06
-8.16327e-06
-8.16327e-06
-8.16327e-06
-8.16327e-06
)
;
    }
    outlet
    {
        type            calculated;
        value           nonuniform 0();
    }
    wall
    {
        type            calculated;
        value           nonuniform List<scalar> 
63
(
0
0
0
0
0
0
0
0
0
0
0
0
0
0
0
0
0
0
0
0
0
0
0
0
0
0
0
0
0
0
4.93038e-32
0
0
0
0
0
0
0
0
0
0
0
0
0
0
0
0
0
0
0
0
0
0
0
0
0
0
0
0
0
0
0
0
)
;
    }
    procBoundary4to0
    {
        type            processor;
        value           nonuniform List<scalar> 
36
(
5.63319e-07
4.15896e-07
6.45422e-07
4.37944e-07
4.78928e-07
3.29751e-07
2.15049e-07
1.39378e-07
-3.00103e-07
5.80233e-07
3.57191e-07
6.25612e-07
2.75676e-07
3.43066e-07
1.13046e-07
-2.20826e-08
1.8451e-08
-2.19902e-07
5.61539e-07
3.39903e-07
5.28907e-07
2.03796e-07
1.95375e-07
6.57922e-08
-1.21049e-07
9.16755e-09
-2.69486e-07
5.60297e-07
3.33655e-07
5.2938e-07
2.13121e-07
2.36577e-07
7.56327e-08
-9.95419e-08
1.72039e-08
-2.72493e-07
)
;
    }
    procBoundary4to5
    {
        type            processor;
        value           nonuniform List<scalar> 
12
(
8.70414e-06
5.24157e-06
4.99184e-06
4.68062e-06
9.42453e-06
6.31323e-06
6.35323e-06
5.30478e-06
1.03475e-05
9.65779e-06
9.18122e-06
8.78481e-06
)
;
    }
    procBoundary4to6
    {
        type            processor;
        value           nonuniform List<scalar> 
27
(
3.90756e-08
7.47543e-08
1.06177e-07
3.54326e-08
7.30877e-08
2.49741e-08
5.9664e-08
1.24152e-08
1.17258e-08
5.73323e-08
6.37538e-08
1.02905e-07
4.93066e-08
5.81081e-08
1.28433e-08
2.02767e-08
9.41569e-09
6.23266e-09
1.26854e-07
6.08755e-08
8.3709e-08
2.75454e-08
1.45485e-08
-1.95679e-08
-7.94925e-08
-3.85906e-08
-1.24099e-07
)
;
    }
}


// ************************************************************************* //
