/*--------------------------------*- C++ -*----------------------------------*\
| =========                 |                                                 |
| \\      /  F ield         | OpenFOAM: The Open Source CFD Toolbox           |
|  \\    /   O peration     | Version:  4.x                                   |
|   \\  /    A nd           | Web:      www.OpenFOAM.org                      |
|    \\/     M anipulation  |                                                 |
\*---------------------------------------------------------------------------*/
FoamFile
{
    version     2.0;
    format      ascii;
    class       volScalarField;
    location    "10.5";
    object      SPartFluid;
}
// * * * * * * * * * * * * * * * * * * * * * * * * * * * * * * * * * * * * * //

dimensions      [1 -3 -1 0 0 0 0];

internalField   nonuniform List<scalar> 
108
(
5.19254e-65
7.36252e-65
7.51746e-65
5.57992e-65
5.96734e-65
5.65731e-65
7.59467e-65
6.74215e-65
8.91202e-65
7.75006e-65
6.355e-65
7.28491e-65
8.52481e-65
8.2147e-65
7.51715e-65
6.35464e-65
5.42463e-65
9.06685e-65
6.97504e-65
8.75748e-65
6.43241e-65
8.52477e-65
6.9747e-65
5.96717e-65
6.12208e-65
9.68676e-65
5.65703e-65
4.34002e-65
5.73498e-65
7.59488e-65
5.19235e-65
7.36216e-65
6.04465e-65
9.53182e-65
5.96702e-65
5.96698e-65
5.34755e-65
5.11502e-65
7.05247e-65
7.67241e-65
6.97487e-65
5.26986e-65
4.41736e-65
7.05219e-65
8.21464e-65
5.65754e-65
6.51001e-65
5.96745e-65
6.58738e-65
5.96733e-65
5.96727e-65
6.66469e-65
7.90458e-65
8.13702e-65
4.41754e-65
6.2775e-65
7.82741e-65
7.20735e-65
7.36224e-65
7.28464e-65
6.66461e-65
6.66456e-65
6.81951e-65
6.66505e-65
7.20749e-65
5.96741e-65
8.5248e-65
8.75716e-65
6.43218e-65
9.60941e-65
7.90445e-65
6.8195e-65
4.96005e-65
6.66503e-65
4.4175e-65
6.74245e-65
5.73493e-65
8.05984e-65
6.58735e-65
6.89729e-65
7.20729e-65
5.34755e-65
8.75753e-65
5.81247e-65
5.50243e-65
6.19988e-65
7.2073e-65
6.35479e-65
5.65726e-65
7.59465e-65
5.03755e-65
7.44001e-65
7.43994e-65
7.12988e-65
5.50237e-65
6.66473e-65
6.43223e-65
7.51711e-65
6.27717e-65
7.75007e-65
7.05252e-65
5.81247e-65
7.82734e-65
7.1298e-65
9.22213e-65
4.4948e-65
4.88224e-65
6.35463e-65
)
;

boundaryField
{
    inlet
    {
        type            calculated;
        value           uniform 0;
    }
    outlet
    {
        type            calculated;
        value           nonuniform 0();
    }
    wall
    {
        type            calculated;
        value           uniform 0;
    }
    procBoundary4to0
    {
        type            processor;
        value           nonuniform List<scalar> 
36
(
4.57255e-65
4.8825e-65
5.73496e-65
5.3474e-65
6.12233e-65
7.7497e-65
4.80479e-65
4.10728e-65
4.95974e-65
5.50254e-65
8.13749e-65
7.28492e-65
6.74233e-65
5.81228e-65
5.65719e-65
8.36949e-65
6.58704e-65
5.50208e-65
4.57252e-65
4.95997e-65
7.28489e-65
5.73482e-65
7.28468e-65
8.0595e-65
6.74201e-65
5.11457e-65
8.0593e-65
5.27004e-65
5.88998e-65
7.82737e-65
9.22222e-65
4.41731e-65
9.22194e-65
7.12946e-65
5.42455e-65
2.32477e-65
)
;
    }
    procBoundary4to5
    {
        type            processor;
        value           nonuniform List<scalar> 
12
(
6.27713e-65
7.12948e-65
8.21429e-65
9.99659e-65
6.66467e-65
5.34717e-65
8.05938e-65
3.5647e-65
2.63493e-65
6.04471e-65
6.27712e-65
7.20705e-65
)
;
    }
    procBoundary4to6
    {
        type            processor;
        value           nonuniform List<scalar> 
27
(
1.03851e-64
7.59499e-65
4.95993e-65
7.43978e-65
9.37709e-65
6.12215e-65
7.36203e-65
6.50951e-65
8.52431e-65
7.98256e-65
7.67249e-65
7.90492e-65
7.28483e-65
5.42481e-65
7.05218e-65
6.27717e-65
5.88962e-65
7.90444e-65
4.72754e-65
5.27002e-65
5.96747e-65
6.89738e-65
6.50985e-65
6.43226e-65
8.67963e-65
8.75705e-65
3.79732e-65
)
;
    }
}


// ************************************************************************* //
