/*--------------------------------*- C++ -*----------------------------------*\
| =========                 |                                                 |
| \\      /  F ield         | OpenFOAM: The Open Source CFD Toolbox           |
|  \\    /   O peration     | Version:  4.x                                   |
|   \\  /    A nd           | Web:      www.OpenFOAM.org                      |
|    \\/     M anipulation  |                                                 |
\*---------------------------------------------------------------------------*/
FoamFile
{
    version     2.0;
    format      ascii;
    class       volScalarField;
    location    "17";
    object      KslPrev;
}
// * * * * * * * * * * * * * * * * * * * * * * * * * * * * * * * * * * * * * //

dimensions      [1 -3 -1 0 0 0 0];

internalField   nonuniform List<scalar> 
87
(
3608.93
2531.74
3505.95
2411.84
3528.16
2227.71
4012.56
2032.63
5308.76
4063.73
2695.74
4059.21
2623.66
4396.08
2495.88
5529.83
2323.08
5897.11
5029.28
2992.45
5517.56
3028.62
7796.53
3205.85
16645.2
3814.67
21694.1
5430.3
2964.24
5341.24
2812.17
5551.44
2500.56
6394.51
2010.76
4750.21
9159.57
3417.15
9843.99
3297.09
11115.9
3062.17
10575.3
2885.26
4079.32
20231
3802.45
61653.7
3802.14
5.27245e+07
3986.75
684586
5149.36
16055.2
7416.02
3246.9
7679.25
3120.7
7667.5
2766.94
7572.77
2153.54
6893.77
17660.8
3715.22
22582.2
3612.29
23214.8
3483.09
12908.1
3391.36
4687.59
7.11618e+08
3970.91
851665
3914.07
5.28729e+09
3912.2
199588
4214.13
37943
6432.98
3039.82
6460.92
20799.7
3597.03
22882.9
)
;

boundaryField
{
    inlet
    {
        type            zeroGradient;
    }
    outlet
    {
        type            zeroGradient;
    }
    wall
    {
        type            zeroGradient;
    }
    procBoundary1to0
    {
        type            processor;
        value           uniform 0;
    }
    procBoundary1to3
    {
        type            processor;
        value           uniform 0;
    }
    procBoundary1to5
    {
        type            processor;
        value           uniform 0;
    }
    procBoundary1to7
    {
        type            processor;
        value           uniform 0;
    }
}


// ************************************************************************* //
