/*--------------------------------*- C++ -*----------------------------------*\
| =========                 |                                                 |
| \\      /  F ield         | OpenFOAM: The Open Source CFD Toolbox           |
|  \\    /   O peration     | Version:  4.x                                   |
|   \\  /    A nd           | Web:      www.OpenFOAM.org                      |
|    \\/     M anipulation  |                                                 |
\*---------------------------------------------------------------------------*/
FoamFile
{
    version     2.0;
    format      ascii;
    class       volScalarField;
    location    "17";
    object      nu;
}
// * * * * * * * * * * * * * * * * * * * * * * * * * * * * * * * * * * * * * //

dimensions      [0 2 -1 0 0 0 0];

internalField   nonuniform List<scalar> 
87
(
1.00007e-06
1.0001e-06
1.00013e-06
1.00018e-06
1.00026e-06
1.00036e-06
1.00048e-06
1.00059e-06
9.77942e-07
1.00009e-06
1.00013e-06
1.00019e-06
1.00028e-06
1.00041e-06
1.00053e-06
1.00061e-06
1.00066e-06
1.00084e-06
1.00014e-06
1.00021e-06
1.00031e-06
1.00044e-06
1.00056e-06
1.00062e-06
1.00054e-06
1.00031e-06
9.99885e-07
1.00011e-06
1.00014e-06
1.00021e-06
1.0003e-06
1.00041e-06
1.00051e-06
1.00058e-06
1.00064e-06
1.00162e-06
1.00021e-06
1.00027e-06
1.00037e-06
1.00048e-06
1.00055e-06
1.00057e-06
1.00045e-06
1.00039e-06
1.00003e-06
1.00031e-06
1.00041e-06
1.00049e-06
1.0005e-06
1.00037e-06
1.00019e-06
9.99941e-07
9.99822e-07
9.99912e-07
1.00011e-06
1.00012e-06
1.00019e-06
1.0003e-06
1.00042e-06
1.00053e-06
1.00058e-06
1.00064e-06
1.0013e-06
1.00056e-06
1.00069e-06
1.00072e-06
1.00065e-06
1.00052e-06
1.00041e-06
1.00023e-06
1.00022e-06
9.99653e-07
1.00019e-06
1.00024e-06
1.00026e-06
1.00024e-06
1.00013e-06
9.99993e-07
9.99844e-07
9.99773e-07
9.99453e-07
1.00006e-06
1.00007e-06
1.00011e-06
1.00006e-06
1.0001e-06
1.00014e-06
)
;

boundaryField
{
    inlet
    {
        type            calculated;
        value           nonuniform 0();
    }
    outlet
    {
        type            calculated;
        value           uniform 1e-06;
    }
    wall
    {
        type            calculated;
        value           nonuniform List<scalar> 
57
(
1.00007e-06
1.00009e-06
1.00014e-06
1.0001e-06
1.00013e-06
1.00021e-06
1.00013e-06
1.00019e-06
1.00031e-06
1.00018e-06
1.00028e-06
1.00044e-06
1.00026e-06
1.00041e-06
1.00056e-06
1.00036e-06
1.00053e-06
1.00062e-06
1.00048e-06
1.00061e-06
1.00054e-06
1.00059e-06
1.00066e-06
1.00031e-06
9.77942e-07
1.00084e-06
9.99885e-07
1.00007e-06
1.00011e-06
1.00011e-06
1.00006e-06
1.0001e-06
1.00014e-06
1.00012e-06
1.00007e-06
1.00013e-06
1.00021e-06
1.00019e-06
1.00011e-06
1.00018e-06
1.0003e-06
1.0003e-06
1.00026e-06
1.00041e-06
1.00042e-06
1.00036e-06
1.00051e-06
1.00053e-06
1.00048e-06
1.00058e-06
1.00058e-06
1.00059e-06
1.00064e-06
1.00064e-06
9.77942e-07
1.00162e-06
1.0013e-06
)
;
    }
    procBoundary1to0
    {
        type            processor;
        value           nonuniform List<scalar> 
12
(
1.00005e-06
1.00007e-06
1.00008e-06
1.00008e-06
1.00017e-06
1.00022e-06
1.00011e-06
1.00036e-06
1.00021e-06
1.00005e-06
1.00009e-06
1.00012e-06
)
;
    }
    procBoundary1to3
    {
        type            processor;
        value           nonuniform List<scalar> 
27
(
1.00014e-06
1.00022e-06
1.00032e-06
1.00043e-06
1.00055e-06
1.00062e-06
1.0006e-06
1.00051e-06
9.93127e-07
1.00036e-06
1.00047e-06
1.00055e-06
1.00057e-06
1.00053e-06
1.00043e-06
1.00025e-06
1.0001e-06
9.99743e-07
1.00032e-06
1.00037e-06
1.00037e-06
1.00033e-06
1.00024e-06
1.00014e-06
1.00001e-06
9.9988e-07
9.99576e-07
)
;
    }
    procBoundary1to5
    {
        type            processor;
        value           nonuniform List<scalar> 
32
(
1.00019e-06
1.00027e-06
1.00037e-06
1.00041e-06
1.00049e-06
1.00123e-06
1.00015e-06
1.00021e-06
1.00019e-06
1.00017e-06
1.00008e-06
1.00009e-06
9.99592e-07
1.00017e-06
1.00018e-06
1.00017e-06
1.00011e-06
1.00003e-06
9.9992e-07
9.99835e-07
9.99196e-07
1.00005e-06
1.00007e-06
1.00019e-06
1.00015e-06
1.0001e-06
1.0001e-06
1.00015e-06
1.00017e-06
1.0001e-06
1.00017e-06
1.00012e-06
)
;
    }
    procBoundary1to7
    {
        type            processor;
        value           uniform 1.00018e-06;
    }
}


// ************************************************************************* //
