/*--------------------------------*- C++ -*----------------------------------*\
| =========                 |                                                 |
| \\      /  F ield         | OpenFOAM: The Open Source CFD Toolbox           |
|  \\    /   O peration     | Version:  4.x                                   |
|   \\  /    A nd           | Web:      www.OpenFOAM.org                      |
|    \\/     M anipulation  |                                                 |
\*---------------------------------------------------------------------------*/
FoamFile
{
    version     2.0;
    format      ascii;
    class       volScalarField;
    location    "17";
    object      p_rgh;
}
// * * * * * * * * * * * * * * * * * * * * * * * * * * * * * * * * * * * * * //

dimensions      [1 -1 -2 0 0 0 0];

internalField   nonuniform List<scalar> 
87
(
21.417
71.8865
2.74326
65.621
-16.4991
61.4081
-36.7306
60.5979
-191.482
21.191
71.9071
2.91076
65.9713
-15.8114
62.0847
-36.011
60.1831
-58.9131
21.8692
72.8563
4.50911
67.3966
-12.7361
62.6679
-30.0735
55.3552
-48.8964
21.2569
72.3244
2.60989
66.2002
-17.0079
61.7118
-39.0584
60.0676
-63.8777
21.4686
72.5914
3.159
66.4885
-16.078
61.0442
-37.4117
57.0688
-61.0395
22.5349
74.0305
4.81837
67.3363
-14.4389
60.1215
-34.685
52.9042
-55.786
22.0079
72.5096
3.59744
65.7986
-15.5596
60.1174
-36.4353
56.6417
-61.1906
22.8146
73.655
4.57417
66.3561
-14.4357
59.159
-34.0355
53.5198
-52.1314
23.0283
72.9002
5.35467
65.7713
-12.3965
58.5786
-30.2439
51.285
-45.4861
21.6515
72.5104
2.70997
22.0245
72.6111
22.1099
)
;

boundaryField
{
    inlet
    {
        type            fixedFluxPressure;
        gradient        nonuniform 0();
        value           nonuniform 0();
    }
    outlet
    {
        type            fixedValue;
        value           uniform 0;
    }
    wall
    {
        type            fixedFluxPressure;
        gradient        nonuniform List<scalar> 
57
(
0.000234774
0.00155496
0.00156406
-0.000437412
0.00102474
0.0010851
0.000992413
0.00106018
0.00220302
0.000896342
0.00083282
0.00132241
-0.000628816
0.000342082
0.00207076
-6.69414e-05
-0.000130569
0.000267342
-0.00016669
-0.000717412
-0.00370281
0.000214675
-0.000245981
-0.000278968
0.000997434
-9.80312e-05
-0.000476395
0.000231847
-0.000471284
4.35651e-05
0.00013891
-0.00628088
4.6185e-06
5.12228e-05
0.000404008
0.000671344
0.000535745
0.000676983
0.000234809
1.90754e-05
-0.000215982
-0.00037273
-0.000488008
-0.000403996
-0.000888098
0.000624617
1.68352e-05
-0.000104631
0.00039832
-0.00017278
-0.00024333
-0.000515664
-0.000156551
-0.00012737
-0.000561436
-0.000459046
-0.000758655
)
;
        value           nonuniform List<scalar> 
57
(
21.417
21.191
21.8692
71.8865
71.9071
72.8563
2.74327
2.91077
4.50914
65.621
65.9713
67.3966
-16.4992
-15.8114
-12.736
61.4081
62.0847
62.6679
-36.7306
-36.011
-30.0735
60.5979
60.1831
55.3552
-191.482
-58.9131
-48.8964
21.417
21.2569
22.0079
21.6515
71.8865
72.3244
72.5096
72.5104
2.74327
2.6099
3.59745
2.70997
65.621
66.2002
65.7986
-16.4992
-17.0079
-15.5596
61.4081
61.7118
60.1174
-36.7305
-39.0584
-36.4353
60.5979
60.0676
56.6417
-191.482
-63.8777
-61.1906
)
;
    }
    procBoundary1to0
    {
        type            processor;
        value           nonuniform List<scalar> 
12
(
78.9129
78.8921
79.4065
79.3809
79.7214
80.6217
79.7781
80.516
80.5919
79.7394
80.1103
80.1627
)
;
    }
    procBoundary1to3
    {
        type            processor;
        value           nonuniform List<scalar> 
27
(
21.6892
72.3409
4.01949
66.6541
-14.0416
62.1309
-33.3294
57.7807
-98.713
22.6066
73.6385
4.9413
66.7075
-13.6733
59.6696
-33.5667
53.6152
-53.5831
23.2553
72.9887
5.21224
65.9353
-13.1133
58.6804
-31.7756
52.0198
-49.4396
)
;
    }
    procBoundary1to5
    {
        type            processor;
        value           nonuniform List<scalar> 
32
(
65.7341
-17.6131
59.9963
-39.9615
57.3879
-66.0047
3.22588
65.3455
-16.1938
58.686
-35.9864
53.2772
-52.4674
72.8451
3.51224
65.8519
-15.2732
59.3879
-34.1335
53.7643
-50.432
22.4074
72.8208
65.7341
3.22588
4.19581
22.8103
3.22588
72.8451
72.97
72.8451
23.593
)
;
    }
    procBoundary1to7
    {
        type            processor;
        value           uniform 23.6014;
    }
}


// ************************************************************************* //
