/*--------------------------------*- C++ -*----------------------------------*\
| =========                 |                                                 |
| \\      /  F ield         | OpenFOAM: The Open Source CFD Toolbox           |
|  \\    /   O peration     | Version:  4.x                                   |
|   \\  /    A nd           | Web:      www.OpenFOAM.org                      |
|    \\/     M anipulation  |                                                 |
\*---------------------------------------------------------------------------*/
FoamFile
{
    version     2.0;
    format      ascii;
    class       volScalarField;
    location    "17";
    object      QPartFluid;
}
// * * * * * * * * * * * * * * * * * * * * * * * * * * * * * * * * * * * * * //

dimensions      [1 -1 -3 0 0 0 0];

internalField   nonuniform List<scalar> 
87
(
4.36689e+09
7.10888e+09
4.26778e+09
6.59228e+09
4.44138e+09
4.89718e+09
5.2409e+09
6.3202e+09
4.13107e+09
4.63799e+09
4.46731e+09
5.96223e+09
5.73476e+09
4.39421e+09
6.4441e+09
7.26931e+09
6.21254e+09
3.94695e+09
3.97178e+09
7.01052e+09
6.26801e+09
8.75325e+09
6.00138e+09
5.43296e+09
4.90387e+09
5.26758e+09
3.56586e+09
7.49012e+09
6.61608e+09
6.26575e+09
7.66882e+09
6.49548e+09
8.0325e+09
9.29307e+09
9.47654e+09
6.09871e+09
9.13104e+09
6.72501e+09
7.67389e+09
9.41151e+09
9.17101e+09
7.64788e+09
9.29896e+09
1.02598e+10
5.20741e+09
9.10827e+09
8.44038e+09
7.12446e+09
6.70094e+09
5.61018e+09
8.9308e+09
8.81617e+09
1.20509e+10
3.77454e+09
6.98581e+09
6.90913e+09
8.16109e+09
9.61919e+09
6.24592e+09
9.98698e+09
8.05268e+09
8.10479e+09
3.58064e+09
6.39611e+09
8.76072e+09
6.30581e+09
7.9312e+09
8.11702e+09
9.05099e+09
7.7407e+09
9.23233e+09
4.07319e+09
8.08515e+09
7.7476e+09
5.36513e+09
1.10006e+10
8.63115e+09
1.04742e+10
7.20691e+09
9.29895e+09
3.01798e+09
6.65565e+09
5.69303e+09
8.16547e+09
8.01428e+09
1.23708e+10
6.08959e+09
)
;

boundaryField
{
    inlet
    {
        type            calculated;
        value           nonuniform 0();
    }
    outlet
    {
        type            calculated;
        value           uniform 0;
    }
    wall
    {
        type            calculated;
        value           uniform 0;
    }
    procBoundary1to0
    {
        type            processor;
        value           nonuniform List<scalar> 
12
(
2.03965e+09
5.30373e+09
8.53592e+09
7.27031e+09
9.00401e+09
6.33452e+09
5.33833e+09
1.00661e+10
5.37464e+09
6.05553e+09
6.96795e+09
9.53224e+09
)
;
    }
    procBoundary1to3
    {
        type            processor;
        value           nonuniform List<scalar> 
27
(
8.59728e+09
3.85404e+09
6.73872e+09
3.23202e+09
4.91295e+09
3.75253e+09
5.44279e+09
5.01354e+09
3.35393e+09
8.55194e+09
7.93116e+09
1.01566e+10
1.04518e+10
8.4504e+09
7.85798e+09
6.9013e+09
8.56227e+09
8.18536e+09
8.13574e+09
1.07683e+10
9.01906e+09
1.01284e+10
6.48008e+09
7.76553e+09
9.05362e+09
8.44336e+09
6.72612e+09
)
;
    }
    procBoundary1to5
    {
        type            processor;
        value           nonuniform List<scalar> 
32
(
8.29917e+09
8.05426e+09
7.94709e+09
6.68582e+09
9.44534e+09
6.98613e+09
7.59374e+09
7.27149e+09
6.37678e+09
8.66022e+09
9.1889e+09
1.07349e+10
7.05234e+09
1.02028e+10
6.34519e+09
8.96612e+09
6.07206e+09
5.45308e+09
7.59614e+09
6.31486e+09
6.30764e+09
6.61159e+09
5.63839e+09
8.29917e+09
7.59374e+09
7.53077e+09
8.06481e+09
7.59374e+09
1.02028e+10
8.20427e+09
1.02028e+10
8.55399e+09
)
;
    }
    procBoundary1to7
    {
        type            processor;
        value           uniform 1.0344e+10;
    }
}


// ************************************************************************* //
