/*--------------------------------*- C++ -*----------------------------------*\
| =========                 |                                                 |
| \\      /  F ield         | OpenFOAM: The Open Source CFD Toolbox           |
|  \\    /   O peration     | Version:  4.x                                   |
|   \\  /    A nd           | Web:      www.OpenFOAM.org                      |
|    \\/     M anipulation  |                                                 |
\*---------------------------------------------------------------------------*/
FoamFile
{
    version     2.0;
    format      ascii;
    class       volVectorField;
    location    "54";
    object      ddtUrel;
}
// * * * * * * * * * * * * * * * * * * * * * * * * * * * * * * * * * * * * * //

dimensions      [0 1 -2 0 0 0 0];

internalField   nonuniform List<vector> 
87
(
(-1.06408e-09 -2.94913e-12 -1.4839e-11)
(-5.43543e-10 -3.90836e-12 -2.66673e-11)
(-6.91934e-10 -4.18716e-12 -2.0953e-11)
(-3.05545e-10 -3.74755e-12 -2.10768e-11)
(-4.1769e-10 -4.40758e-12 -2.29081e-11)
(-5.23663e-10 -6.32562e-12 -2.03757e-11)
(4.76914e-12 3.72061e-11 2.70024e-11)
(6.88384e-12 3.41289e-11 2.2633e-11)
(-3.77041e-12 2.45122e-11 1.35293e-11)
(-4.4625e-11 1.24907e-11 9.81424e-13)
(-1.19209e-10 4.08694e-12 -1.21033e-11)
(-2.39998e-10 1.2738e-12 -2.03951e-11)
(-3.86138e-10 2.50418e-12 -2.55562e-11)
(-5.59616e-10 4.90638e-12 -2.53707e-11)
(-7.25853e-10 2.09038e-12 -1.95107e-11)
(-6.23258e-13 2.90688e-11 1.63129e-11)
(-3.3133e-13 2.64398e-11 1.26577e-11)
(-9.10075e-12 2.01214e-11 7.13415e-12)
(-3.7633e-11 1.25876e-11 -1.50974e-12)
(-9.25082e-11 7.22638e-12 -1.17521e-11)
(-1.77883e-10 4.83322e-12 -1.96401e-11)
(-2.80754e-10 4.62176e-12 -2.62613e-11)
(-3.96685e-10 4.55722e-12 -2.79416e-11)
(-4.98444e-10 5.47458e-13 -2.43936e-11)
(-7.33311e-12 2.3114e-11 1.0833e-11)
(-9.12477e-12 2.04782e-11 8.69602e-12)
(-1.84507e-11 1.62432e-11 4.26143e-12)
(-4.03092e-11 1.13946e-11 -2.26157e-12)
(-8.58131e-11 7.40868e-12 -1.00836e-11)
(-1.4972e-10 5.73984e-12 -1.73052e-11)
(-2.29093e-10 4.55594e-12 -2.25604e-11)
(-3.12324e-10 3.83935e-12 -2.40668e-11)
(-3.85923e-10 -2.10263e-12 -2.37335e-11)
(5.50835e-12 2.68059e-11 1.99768e-11)
(6.87575e-12 2.44651e-11 1.62039e-11)
(-7.97806e-13 1.97492e-11 9.75424e-12)
(-3.16599e-11 1.31153e-11 5.22748e-13)
(-8.82322e-11 8.69921e-12 -9.06782e-12)
(-1.75063e-10 9.0778e-12 -1.63597e-11)
(-2.78041e-10 8.99484e-12 -2.11314e-11)
(-4.01268e-10 9.65539e-12 -2.18304e-11)
(-5.13122e-10 5.66409e-13 -1.9243e-11)
(-3.67567e-13 2.30417e-11 1.17517e-11)
(1.14622e-12 2.12561e-11 8.50639e-12)
(-4.3791e-12 1.76813e-11 3.91287e-12)
(-2.72876e-11 1.29484e-11 -2.33437e-12)
(-7.00898e-11 1.01157e-11 -1.03929e-11)
(-1.35752e-10 1.0008e-11 -1.6827e-11)
(-2.10458e-10 9.62373e-12 -2.14392e-11)
(-3.01871e-10 9.41314e-12 -2.21868e-11)
(-3.79071e-10 -1.79721e-12 -2.17764e-11)
(-6.19245e-12 1.98313e-11 7.36704e-12)
(-9.25594e-12 1.76839e-11 5.13926e-12)
(-1.9456e-11 1.53709e-11 8.09757e-13)
(-3.22809e-11 1.17033e-11 -3.65458e-12)
(-6.78772e-11 9.40219e-12 -1.01749e-11)
(-1.18596e-10 8.40023e-12 -1.56458e-11)
(-1.79149e-10 6.98533e-12 -2.09928e-11)
(-2.41365e-10 3.87499e-12 -2.38176e-11)
(-2.98704e-10 -4.47485e-12 -2.21221e-11)
(3.85468e-12 2.18733e-11 1.60187e-11)
(4.77987e-12 1.9835e-11 1.3278e-11)
(-3.94396e-12 1.67547e-11 7.97157e-12)
(-2.95421e-11 1.27606e-11 6.93861e-13)
(-7.80322e-11 1.02956e-11 -6.80569e-12)
(-1.44945e-10 1.03323e-11 -1.34669e-11)
(-2.26118e-10 1.06683e-11 -1.75927e-11)
(-3.21364e-10 1.03071e-11 -1.84939e-11)
(-4.05137e-10 -2.56388e-12 -1.67327e-11)
(1.74513e-12 2.07148e-11 1.01713e-11)
(1.06491e-12 1.84252e-11 7.96827e-12)
(-5.24019e-12 1.55687e-11 3.57096e-12)
(-2.48928e-11 1.25635e-11 -2.00337e-12)
(-6.34308e-11 1.08243e-11 -8.2946e-12)
(-1.14939e-10 1.12875e-11 -1.46138e-11)
(-1.7224e-10 1.33648e-11 -1.83265e-11)
(-2.42379e-10 1.40451e-11 -2.15864e-11)
(-3.15714e-10 -5.31489e-12 -1.82453e-11)
(-1.20288e-12 2.00476e-11 6.87176e-12)
(-3.62883e-12 1.69571e-11 4.94765e-12)
(-1.106e-11 1.44777e-11 1.00368e-12)
(-2.78447e-11 1.16424e-11 -3.28013e-12)
(-5.90003e-11 9.94812e-12 -8.81205e-12)
(-1.01831e-10 9.48969e-12 -1.39398e-11)
(-1.49399e-10 8.6299e-12 -1.82621e-11)
(-1.97382e-10 6.27776e-12 -2.18851e-11)
(-2.548e-10 -8.51754e-12 -1.89632e-11)
)
;

boundaryField
{
    inlet
    {
        type            calculated;
        value           nonuniform List<vector> 9((-7.77183e-11 4.28783e-11 2.10107e-11) (-4.15972e-11 1.96692e-11 9.32981e-12) (-1.34807e-11 5.40927e-12 -1.93853e-12) (-2.37383e-11 2.17523e-11 7.60975e-12) (-3.69748e-11 1.38698e-11 -7.79165e-13) (-4.41677e-11 5.64727e-12 -9.19624e-12) (-4.71576e-11 1.39007e-11 3.1251e-12) (3.68114e-11 2.09881e-11 4.03923e-12) (8.71842e-11 3.08117e-11 1.85217e-12));
    }
    outlet
    {
        type            calculated;
        value           nonuniform 0();
    }
    wall
    {
        type            calculated;
        value           nonuniform List<vector> 
57
(
(-2.0369e-11 1.48331e-11 4.09791e-12)
(-4.06404e-12 1.91714e-11 3.41819e-12)
(1.65074e-11 2.88522e-11 8.42849e-13)
(1.9857e-11 1.17963e-11 4.78383e-12)
(1.59826e-11 1.20758e-11 4.92979e-12)
(1.02289e-11 8.38486e-12 9.75158e-13)
(-8.91042e-12 1.55362e-11 2.79395e-12)
(3.31615e-11 9.22923e-12 -2.69521e-13)
(7.93268e-11 1.03431e-11 -5.2942e-12)
(2.42277e-11 1.14003e-11 -1.76563e-12)
(5.15238e-11 9.16714e-12 -3.33317e-12)
(9.03018e-12 4.57493e-12 -1.64743e-12)
(-2.17249e-11 1.13268e-11 -4.69507e-12)
(1.67316e-12 9.15028e-12 -4.15898e-12)
(2.3268e-11 4.63831e-12 -6.83399e-12)
(-9.26147e-12 1.95901e-11 -1.405e-11)
(4.82269e-12 1.73288e-11 -2.09278e-11)
(7.88655e-12 8.25497e-12 -8.57993e-12)
(-2.47054e-12 2.02102e-11 -2.28637e-11)
(1.40751e-10 5.23197e-11 -1.17793e-11)
(2.8741e-11 3.82418e-12 -1.16935e-11)
(-2.74961e-11 3.53346e-11 -1.95852e-11)
(1.19377e-10 1.28649e-10 -4.91939e-11)
(1.61329e-10 2.99689e-11 -3.88161e-11)
(3.91066e-11 9.32779e-12 -2.62968e-11)
(-1.54969e-10 -8.41393e-12 1.15929e-12)
(-1.02173e-10 -8.19881e-12 7.55844e-12)
(-1.66461e-11 5.57827e-12 -1.91472e-12)
(-5.31916e-11 6.04073e-12 -9.06087e-12)
(-7.59431e-11 2.79448e-11 2.12642e-13)
(-2.43902e-11 1.37299e-13 -8.97931e-13)
(-7.37997e-11 7.21098e-13 -1.03278e-11)
(2.9388e-13 8.32418e-12 9.7212e-13)
(-3.38934e-11 1.71941e-12 -4.27509e-13)
(-2.39089e-10 1.17004e-11 -2.21452e-11)
(-5.84602e-11 8.9474e-12 -5.64146e-12)
(-3.5908e-12 8.20538e-12 -3.02539e-12)
(5.11354e-12 4.23348e-12 -6.47916e-12)
(-1.1217e-12 4.57653e-12 -1.6951e-12)
(-3.95189e-11 6.99806e-12 -9.26551e-12)
(-4.47374e-11 6.76391e-12 -1.70624e-11)
(-9.52637e-12 4.49452e-12 -6.84267e-12)
(1.36667e-11 1.94044e-11 -2.05425e-11)
(-2.23232e-11 8.82125e-12 -1.14578e-11)
(-1.71594e-11 8.42716e-12 -8.35411e-12)
(7.08447e-12 2.75593e-12 -2.90447e-11)
(-8.70565e-12 1.965e-11 -3.01914e-11)
(-6.49692e-11 6.21365e-12 -3.12672e-11)
(-6.72595e-12 3.82316e-12 -1.16055e-11)
(6.6842e-11 2.23399e-12 -4.54114e-11)
(-1.67922e-11 4.38612e-11 -1.86038e-11)
(2.0968e-11 -3.20957e-12 -4.81033e-11)
(1.54035e-10 2.9992e-11 -3.85428e-11)
(-8.11412e-11 1.31962e-11 -2.58559e-11)
(-1.92971e-11 3.75655e-11 -3.70647e-11)
(1.35006e-10 3.09226e-11 -1.71662e-11)
(1.7166e-10 -1.02796e-11 3.95162e-12)
)
;
    }
    procBoundary6to0
    {
        type            processor;
        value           uniform (-1.67915e-09 -2.49536e-12 -2.88331e-12);
    }
    procBoundary6to2
    {
        type            processor;
        value           nonuniform List<vector> 
32
(
(-1.53252e-09 -1.38659e-11 -6.72835e-12)
(-7.16943e-10 -1.86343e-11 -1.83159e-11)
(-9.37587e-10 -1.50889e-11 -1.43597e-11)
(-4.01066e-10 -1.45368e-11 -1.40586e-11)
(-5.48101e-10 -1.45744e-11 -1.48982e-11)
(-6.91928e-10 -1.42552e-11 -1.45282e-11)
(9.85746e-12 5.16671e-11 3.50802e-11)
(1.04569e-11 4.5669e-11 3.01001e-11)
(-5.64412e-12 2.989e-11 1.81966e-11)
(-6.20555e-11 1.00916e-11 2.0743e-12)
(-1.63142e-10 -4.86226e-12 -1.28119e-11)
(-3.26257e-10 -1.05991e-11 -2.22916e-11)
(-5.35371e-10 -1.04715e-11 -2.69568e-11)
(-7.94768e-10 -4.90675e-12 -2.40649e-11)
(-7.94768e-10 -4.90675e-12 -2.40649e-11)
(-7.94768e-10 -4.90675e-12 -2.40649e-11)
(1.73717e-13 3.76635e-11 2.13967e-11)
(-4.96605e-13 3.36939e-11 1.86111e-11)
(-1.32257e-11 2.32576e-11 1.10656e-11)
(-5.34589e-11 1.05201e-11 6.03729e-13)
(-1.2613e-10 7.03393e-13 -1.03098e-11)
(-2.38727e-10 -4.79061e-12 -1.91125e-11)
(-3.78143e-10 -5.77939e-12 -2.52361e-11)
(-3.78143e-10 -5.77939e-12 -2.52361e-11)
(-3.78143e-10 -5.77939e-12 -2.52361e-11)
(-9.56493e-12 2.88034e-11 1.51832e-11)
(-1.06254e-11 2.5489e-11 1.31108e-11)
(-2.24484e-11 1.84908e-11 7.96011e-12)
(-5.4776e-11 9.93249e-12 3.50503e-13)
(-1.14538e-10 2.82438e-12 -8.1722e-12)
(-2.00053e-10 -1.48893e-12 -1.60946e-11)
(-2.00053e-10 -1.48893e-12 -1.60946e-11)
)
;
    }
    procBoundary6to4
    {
        type            processor;
        value           nonuniform List<vector> 
27
(
(1.52844e-11 4.21624e-11 4.28788e-11)
(1.62421e-11 3.81196e-11 3.76037e-11)
(2.19191e-13 2.58554e-11 2.33518e-11)
(-5.66922e-11 1.02751e-11 3.9091e-12)
(-1.57532e-10 -1.43948e-12 -1.32818e-11)
(-3.21264e-10 -5.16704e-12 -2.1996e-11)
(-5.2878e-10 -2.39934e-12 -2.47068e-11)
(-7.87206e-10 1.4482e-12 -1.91882e-11)
(-1.05147e-09 1.05762e-12 -1.068e-11)
(1.19583e-11 2.91878e-11 3.10009e-11)
(1.22334e-11 2.66581e-11 2.68013e-11)
(-1.71448e-13 2.00711e-11 1.7142e-11)
(-4.14514e-11 1.16809e-11 3.89943e-12)
(-1.14164e-10 5.51403e-12 -8.0622e-12)
(-2.2789e-10 4.21007e-12 -1.57367e-11)
(-3.67005e-10 4.6563e-12 -1.971e-11)
(-5.36954e-10 6.62851e-12 -1.77691e-11)
(-6.93168e-10 1.35606e-12 -1.46566e-11)
(7.03446e-12 2.28501e-11 2.35012e-11)
(6.62185e-12 2.0785e-11 2.00426e-11)
(-5.95616e-12 1.65608e-11 1.29767e-11)
(-3.78466e-11 1.15061e-11 3.48543e-12)
(-9.71537e-11 8.13747e-12 -5.34872e-12)
(-1.83034e-10 6.89079e-12 -1.21415e-11)
(-2.89556e-10 6.76812e-12 -1.52237e-11)
(-4.23749e-10 1.18026e-11 -1.48036e-11)
(-5.18871e-10 -6.91349e-13 -1.19286e-11)
)
;
    }
    procBoundary6to7
    {
        type            processor;
        value           nonuniform List<vector> 
12
(
(-1.28163e-09 -4.45541e-12 -5.1519e-12)
(-8.11001e-10 -9.63033e-12 -1.59718e-11)
(-5.92283e-10 -1.30342e-11 -1.89688e-11)
(-8.43984e-10 -8.84814e-12 -1.1351e-11)
(-5.72355e-10 -1.2539e-11 -2.02367e-11)
(-4.31301e-10 -1.6416e-11 -2.34382e-11)
(-5.8976e-10 -1.55172e-11 -1.4017e-11)
(-4.30514e-10 -1.93007e-11 -2.01817e-11)
(-3.36304e-10 -2.46489e-11 -2.31724e-11)
(-4.6033e-10 -2.24284e-11 -1.33618e-11)
(-3.53585e-10 -2.66023e-11 -1.85681e-11)
(-2.89255e-10 -2.98426e-11 -2.14111e-11)
)
;
    }
}


// ************************************************************************* //
