/*--------------------------------*- C++ -*----------------------------------*\
| =========                 |                                                 |
| \\      /  F ield         | OpenFOAM: The Open Source CFD Toolbox           |
|  \\    /   O peration     | Version:  4.x                                   |
|   \\  /    A nd           | Web:      www.OpenFOAM.org                      |
|    \\/     M anipulation  |                                                 |
\*---------------------------------------------------------------------------*/
FoamFile
{
    version     2.0;
    format      ascii;
    class       surfaceScalarField;
    location    "21.5";
    object      phi;
}
// * * * * * * * * * * * * * * * * * * * * * * * * * * * * * * * * * * * * * //

dimensions      [0 3 -1 0 0 0 0];

internalField   nonuniform List<scalar> 
259
(
9.56768e-06
5.23636e-08
2.84248e-08
9.72271e-06
-3.8518e-07
-1.97043e-07
9.30211e-06
3.51733e-07
3.47749e-07
9.70547e-06
-9.55809e-07
-6.36768e-08
8.86268e-06
1.1857e-06
8.78042e-07
-2.66096e-06
1.44904e-06
6.81569e-06
-2.11866e-07
-9.42736e-08
7.01249e-06
-3.01292e-08
2.76716e-07
6.85562e-06
-3.17927e-07
-1.62482e-07
7.18222e-06
2.12006e-07
4.76843e-07
6.51612e-06
-7.07269e-07
-3.82048e-07
7.10327e-06
1.08611e-06
8.09631e-07
-2.3766e-06
-9.58305e-07
5.51334e-06
1.56499e-07
5.3619e-06
-2.00794e-08
5.30408e-06
3.16553e-07
5.01165e-06
-6.44533e-09
5.21527e-06
4.25475e-07
4.56151e-06
-1.32237e-08
5.84687e-06
1.66515e-07
-2.15656e-07
8.48375e-06
-1.15298e-07
-9.82177e-08
8.27772e-06
6.6228e-09
7.58859e-08
8.1429e-06
-9.74818e-08
1.67612e-08
7.84679e-06
1.22001e-07
2.02539e-07
7.50179e-06
-1.75633e-07
3.23588e-07
7.23502e-06
2.404e-07
3.74115e-07
6.22029e-06
-3.03539e-07
1.25459e-06
6.49212e-06
6.06987e-07
-7.70705e-10
-8.12042e-07
4.8186e-06
5.34947e-06
-3.49009e-08
-1.49088e-08
5.10843e-06
1.07459e-07
1.64805e-07
4.87637e-06
3.02705e-13
4.03011e-08
4.94478e-06
8.65385e-08
2.43769e-07
4.4757e-06
-7.6009e-13
1.30967e-07
4.55377e-06
2.29746e-07
4.09425e-07
3.42415e-06
-9.40289e-13
4.4404e-07
3.74638e-06
6.87743e-07
4.06644e-07
6.8501e-08
1.48714e-06
4.87207e-06
-8.41303e-13
5.55322e-08
4.92931e-06
5.52899e-08
1.51423e-07
4.80051e-06
1.08717e-07
4.86713e-06
2.84799e-07
4.66358e-06
1.97103e-07
4.74033e-06
2.47751e-07
4.39408e-06
3.64079e-07
5.08529e-06
-4.82782e-07
4.30588e-07
4.89746e-06
1.1876e-08
1.1962e-07
9.4847e-06
-1.763e-07
-4.34944e-08
9.62722e-06
-1.37278e-07
7.06413e-08
9.94496e-06
-2.6057e-07
-4.04067e-08
1.00998e-05
-8.81999e-09
5.6503e-08
1.08129e-05
-5.45257e-07
1.55784e-07
1.08671e-05
2.69438e-07
5.04701e-08
1.26653e-05
-1.52105e-06
9.77439e-07
1.19225e-05
1.08451e-06
-3.42514e-07
-6.07356e-06
3.56681e-06
6.57693e-06
-1.4987e-07
-4.47009e-09
6.61829e-06
-1.52307e-07
1.38478e-07
6.64886e-06
-2.3629e-07
-1.45572e-08
6.89923e-06
-6.58427e-08
5.04244e-08
6.90248e-06
-4.57807e-07
4.02645e-08
7.4567e-06
7.80179e-08
4.66249e-08
7.21853e-06
-1.20019e-06
3.61348e-07
7.77753e-06
9.84347e-07
-5.21921e-08
-4.05408e-06
1.70277e-06
6.32055e-06
-1.0546e-07
2.06387e-08
6.40729e-06
-1.14871e-07
2.72513e-08
6.37104e-06
-1.40057e-07
4.87361e-08
6.53329e-06
-3.3593e-08
9.02961e-08
6.37457e-06
1.37033e-07
6.62082e-06
4.56077e-08
5.93611e-06
3.37787e-07
6.157e-06
-3.74872e-07
5.25392e-07
5.09567e-06
5.18551e-08
4.94282e-06
1.24637e-07
4.74052e-06
3.77709e-08
1.25531e-07
1.09503e-05
-2.62849e-07
1.1218e-05
-1.96994e-07
1.15719e-05
-3.94325e-07
1.17723e-05
-1.4393e-07
1.27442e-05
-8.16081e-07
1.28005e-05
-5.85292e-09
1.59058e-05
-2.12785e-06
1.49315e-05
6.31813e-07
-8.70412e-06
9.44679e-06
-3.08909e-07
9.62127e-06
-2.33002e-07
9.68185e-06
-4.6946e-07
9.78949e-06
-2.01145e-07
9.8297e-06
-8.1603e-07
9.95189e-06
-8.1411e-08
9.93574e-06
-1.75035e-06
9.91768e-06
5.97674e-07
-5.49772e-06
8.54893e-06
-2.61158e-07
8.50992e-06
-1.66744e-07
8.46456e-06
-3.75362e-07
8.48313e-06
-1.29418e-07
8.3952e-06
-5.91071e-07
8.32965e-06
2.97515e-08
8.00607e-06
7.61907e-06
7.70871e-06
7.70161e-06
7.48387e-06
7.52007e-06
7.18425e-06
)
;

boundaryField
{
    inlet
    {
        type            calculated;
        value           nonuniform 0();
    }
    outlet
    {
        type            calculated;
        value           nonuniform List<scalar> 
12
(
9.7823e-06
4.80577e-06
3.28815e-06
3.9346e-06
4.20388e-07
4.48544e-06
1.92479e-05
5.54243e-06
2.9873e-06
2.72024e-05
8.41405e-06
4.39019e-06
)
;
    }
    wall
    {
        type            calculated;
        value           nonuniform List<scalar> 
66
(
0
0
0
0
0
0
0
0
0
0
0
0
0
0
0
0
0
0
0
0
0
0
0
0
0
0
0
0
0
0
0
0
0
4.93038e-32
0
0
0
0
0
0
0
0
0
0
0
0
0
0
0
0
0
0
0
0
0
4.93038e-32
0
6.16298e-33
0
0
0
0
0
0
0
0
)
;
    }
    procBoundary5to1
    {
        type            processor;
        value           nonuniform List<scalar> 
32
(
8.88592e-08
4.27194e-07
-2.78881e-07
6.16123e-07
-1.22095e-06
2.92301e-07
1.35863e-07
-3.91026e-07
2.52101e-07
-6.6372e-07
7.99615e-07
-1.2972e-06
2.97144e-06
-1.57344e-07
1.91636e-08
-3.54574e-07
5.21167e-09
-5.17277e-07
1.17459e-08
-6.00905e-07
7.19498e-07
2.42362e-07
1.23521e-07
-9.73733e-06
1.60368e-07
2.15537e-07
1.11678e-07
-6.80578e-06
1.57264e-07
-2.46019e-08
-5.67888e-06
3.45345e-08
)
;
    }
    procBoundary5to4
    {
        type            processor;
        value           nonuniform List<scalar> 
12
(
-8.51259e-06
-5.52663e-06
-4.99703e-06
-4.92755e-06
-9.36312e-06
-6.6138e-06
-6.33007e-06
-5.25117e-06
-1.0731e-05
-9.4052e-06
-8.57604e-06
-7.83347e-06
)
;
    }
    procBoundary5to7
    {
        type            processor;
        value           nonuniform List<scalar> 
44
(
9.12918e-09
-5.9515e-08
6.57142e-08
-2.42669e-08
1.0019e-07
-5.20277e-08
2.3514e-07
-3.21722e-07
1.82166e-08
-9.17488e-08
1.0077e-12
5.16812e-08
5.39264e-14
3.30717e-07
-3.10534e-08
6.45831e-07
2.21035e-08
6.67993e-13
4.954e-06
-2.91275e-08
-1.93764e-13
-2.60211e-07
-2.39019e-07
3.3915e-08
-4.89192e-07
6.55547e-07
-9.79181e-07
1.00598e-08
3.29583e-08
2.44772e-08
4.80643e-06
3.51721e-08
-5.90699e-08
-1.9132e-07
-1.08899e-06
6.09803e-07
-1.74344e-06
-8.454e-08
-3.50051e-08
-1.19859e-07
-4.0078e-08
-1.96186e-07
7.40467e-06
6.53949e-10
)
;
    }
}


// ************************************************************************* //
