/*--------------------------------*- C++ -*----------------------------------*\
| =========                 |                                                 |
| \\      /  F ield         | OpenFOAM: The Open Source CFD Toolbox           |
|  \\    /   O peration     | Version:  4.x                                   |
|   \\  /    A nd           | Web:      www.OpenFOAM.org                      |
|    \\/     M anipulation  |                                                 |
\*---------------------------------------------------------------------------*/
FoamFile
{
    version     2.0;
    format      ascii;
    class       volScalarField;
    location    "21.5";
    object      Qsource;
}
// * * * * * * * * * * * * * * * * * * * * * * * * * * * * * * * * * * * * * //

dimensions      [1 -1 -3 0 0 0 0];

internalField   nonuniform List<scalar> 
114
(
9.12979e+09
8.39668e+09
8.68762e+09
6.85607e+09
9.9824e+09
6.61195e+09
7.568e+09
7.17735e+09
6.29572e+09
8.47653e+09
9.00666e+09
1.04009e+10
6.84006e+09
9.97997e+09
6.16744e+09
8.74261e+09
5.88102e+09
5.3097e+09
7.40927e+09
6.1894e+09
6.57387e+09
7.03297e+09
6.45483e+09
7.87041e+09
7.07624e+09
6.8719e+09
8.83775e+09
7.41959e+09
7.04575e+09
5.37307e+09
8.04489e+09
8.17591e+09
9.16555e+09
8.82925e+09
8.83993e+09
9.91888e+09
5.11265e+09
1.01044e+10
5.80758e+09
8.46387e+09
5.43052e+09
7.28281e+09
8.98897e+09
6.13421e+09
8.21029e+09
7.11635e+09
7.84908e+09
4.0643e+09
1.02019e+10
5.00894e+09
7.90976e+09
1.04554e+10
8.09274e+09
9.63318e+09
8.41463e+09
9.4858e+09
7.83159e+09
1.09155e+10
7.19457e+09
6.15031e+09
1.07801e+10
7.02262e+09
9.07221e+09
8.41695e+09
9.16531e+09
1.1125e+10
8.75176e+09
5.5262e+09
7.52164e+09
7.71938e+09
7.8484e+09
7.33159e+09
1.1428e+10
9.23588e+09
9.0371e+09
1.06808e+10
7.76261e+09
5.20176e+09
1.14204e+10
9.27607e+09
9.61624e+09
3.73345e+09
8.71441e+09
5.81766e+09
9.69383e+09
7.41228e+09
8.11234e+09
8.69648e+09
1.12984e+10
7.37881e+09
7.48626e+09
8.98974e+09
5.58248e+09
7.76396e+09
8.79961e+09
8.53825e+09
6.20262e+09
9.80391e+09
7.15588e+09
6.50784e+09
8.05617e+09
9.0789e+09
8.60284e+09
6.60417e+09
1.00968e+10
7.23858e+09
8.49512e+09
6.68406e+09
7.39956e+09
7.08209e+09
7.47923e+09
7.24407e+09
1.04176e+10
8.8494e+09
)
;

boundaryField
{
    inlet
    {
        type            calculated;
        value           nonuniform 0();
    }
    outlet
    {
        type            calculated;
        value           uniform 0;
    }
    wall
    {
        type            calculated;
        value           uniform 0;
    }
    procBoundary5to1
    {
        type            processor;
        value           nonuniform List<scalar> 
32
(
1.03977e+10
6.51809e+09
1.06573e+10
8.01755e+09
8.59641e+09
3.65218e+09
6.30639e+09
7.88647e+09
8.04029e+09
8.94255e+09
7.64012e+09
9.1714e+09
3.99986e+09
7.66982e+09
5.33747e+09
1.07996e+10
8.53274e+09
1.02783e+10
7.13654e+09
9.21283e+09
3.20712e+09
7.19372e+09
6.57351e+09
8.64231e+09
8.64231e+09
8.64231e+09
8.03368e+09
1.22918e+10
1.22918e+10
1.22918e+10
5.94142e+09
5.94142e+09
)
;
    }
    procBoundary5to4
    {
        type            processor;
        value           nonuniform List<scalar> 
12
(
1.03611e+10
1.10397e+10
6.6648e+09
7.00813e+09
1.04116e+10
1.03858e+10
8.54541e+09
7.99947e+09
9.95002e+09
9.36762e+09
7.80887e+09
7.74271e+09
)
;
    }
    procBoundary5to7
    {
        type            processor;
        value           nonuniform List<scalar> 
44
(
9.00567e+09
6.34238e+09
7.81069e+09
1.09128e+10
1.22336e+10
7.93059e+09
6.55196e+09
6.02505e+09
1.00073e+10
9.00567e+09
6.48011e+09
8.5422e+09
6.8871e+09
8.11579e+09
8.81495e+09
1.00158e+10
5.92803e+09
3.83692e+09
6.48011e+09
9.94915e+09
6.48011e+09
8.5422e+09
4.75412e+09
6.91776e+09
7.76835e+09
7.07682e+09
4.23536e+09
8.62514e+09
9.04558e+09
7.07422e+09
4.75412e+09
6.45139e+09
4.75412e+09
6.91776e+09
6.035e+09
7.97752e+09
5.23954e+09
7.54624e+09
7.65793e+09
7.70679e+09
9.20773e+09
5.37608e+09
6.035e+09
5.4891e+09
)
;
    }
}


// ************************************************************************* //
