/*--------------------------------*- C++ -*----------------------------------*\
| =========                 |                                                 |
| \\      /  F ield         | OpenFOAM: The Open Source CFD Toolbox           |
|  \\    /   O peration     | Version:  4.x                                   |
|   \\  /    A nd           | Web:      www.OpenFOAM.org                      |
|    \\/     M anipulation  |                                                 |
\*---------------------------------------------------------------------------*/
FoamFile
{
    version     2.0;
    format      ascii;
    class       volVectorField;
    location    "21.5";
    object      Us;
}
// * * * * * * * * * * * * * * * * * * * * * * * * * * * * * * * * * * * * * //

dimensions      [0 1 -1 0 0 0 0];

internalField   nonuniform List<vector> 
114
(
(-5.78285e-09 2.27986e-09 9.55233e-10)
(-7.07449e-09 1.49411e-09 1.40375e-09)
(-9.93632e-09 2.81499e-09 8.1965e-10)
(-8.07444e-09 1.97532e-09 -1.53132e-09)
(-8.69982e-09 2.19907e-09 -1.69584e-09)
(-1.23151e-07 3.04624e-08 -4.41998e-10)
(-9.15472e-09 4.16672e-09 1.10775e-09)
(-8.5207e-09 4.45256e-09 7.03042e-10)
(-9.7706e-09 3.76619e-09 1.82266e-09)
(-1.16352e-08 3.11482e-09 -5.65226e-10)
(-1.09166e-08 2.57111e-09 -2.72535e-09)
(-9.92905e-09 2.77675e-09 -2.48022e-09)
(-1.23161e-08 1.94665e-08 -5.51485e-09)
(-1.32222e-08 4.67929e-09 -1.11424e-09)
(-1.06972e-08 4.61146e-09 6.81158e-11)
(-9.60399e-09 4.60684e-09 -1.04666e-10)
(-9.43644e-09 3.84568e-09 7.55156e-10)
(-9.21706e-09 2.0386e-09 1.24394e-09)
(-7.49235e-09 -6.15823e-11 1.94906e-09)
(-5.79866e-09 7.11966e-10 -1.43333e-09)
(-2.49342e-09 6.48998e-09 -4.02052e-09)
(-2.24583e-09 9.48359e-10 1.36042e-09)
(-3.21531e-09 7.8449e-10 1.33436e-09)
(-3.34267e-09 1.41435e-09 1.23571e-09)
(-2.19948e-09 3.77474e-10 8.97253e-10)
(-2.30717e-09 -2.35144e-10 4.17341e-11)
(-2.40108e-09 -2.16161e-10 4.59355e-11)
(-3.34642e-09 -5.55139e-10 -1.14623e-09)
(-3.4302e-09 -1.9694e-10 -1.92523e-09)
(-3.01952e-09 3.32756e-09 -6.09084e-09)
(-6.1896e-09 6.7092e-10 2.56409e-10)
(-8.37682e-09 -9.27348e-10 1.48338e-09)
(-6.16872e-09 3.20576e-09 7.78569e-10)
(-5.77669e-09 8.8469e-10 7.82861e-10)
(-6.23842e-09 2.56342e-10 3.75613e-10)
(-7.14556e-09 3.25034e-10 3.86414e-10)
(-6.32598e-09 -3.49928e-10 -1.28975e-09)
(-5.97757e-09 2.96853e-10 -1.62903e-09)
(-4.35736e-09 2.6185e-09 -5.85975e-09)
(-9.19781e-09 2.3753e-09 1.40695e-11)
(-1.01091e-08 3.10642e-09 -1.1298e-10)
(-9.09095e-09 3.48994e-09 1.14475e-09)
(-9.01828e-09 2.4329e-09 2.36873e-10)
(-8.31986e-09 1.07151e-09 1.1749e-09)
(-7.72162e-09 4.53681e-10 8.62665e-10)
(-6.7106e-09 -2.94718e-10 6.13291e-10)
(-5.39369e-09 -3.63699e-10 -4.98552e-10)
(-3.23604e-09 1.70112e-09 -1.97497e-09)
(-9.8365e-09 2.37181e-09 -4.93856e-10)
(-1.0176e-08 3.0107e-09 -9.05294e-10)
(-1.65612e-09 5.39827e-10 7.30694e-10)
(-1.58391e-09 1.80984e-10 3.87431e-10)
(-1.03213e-09 4.54839e-10 3.53528e-10)
(-4.02129e-10 -4.56744e-10 2.66971e-10)
(-9.27378e-10 -5.97814e-10 2.29619e-10)
(-1.21568e-09 -6.5341e-10 -4.5293e-10)
(-2.46826e-09 -9.74931e-10 -9.36946e-10)
(-4.9207e-09 4.82321e-10 -2.8341e-09)
(5.56906e-09 2.74906e-09 -1.21996e-08)
(-2.85093e-09 1.22315e-09 2.88424e-10)
(-3.10368e-09 9.0604e-10 7.22359e-10)
(-1.78203e-09 7.49042e-10 5.04298e-10)
(1.28162e-09 1.00528e-09 -2.60969e-10)
(-3.97521e-09 -6.68253e-10 5.10377e-10)
(-4.35839e-09 -9.08211e-10 3.74022e-10)
(-4.20511e-09 -1.6952e-10 -7.7769e-10)
(-4.28426e-09 1.6754e-09 -2.31923e-09)
(-6.17214e-10 5.80413e-09 -4.11876e-09)
(-6.05311e-09 1.94779e-09 -2.11807e-10)
(-6.80484e-09 1.90037e-09 5.34663e-10)
(-5.42451e-09 1.56309e-09 9.53603e-10)
(-6.33078e-09 1.10561e-09 -1.08786e-10)
(-6.29727e-09 1.24419e-10 1.24254e-09)
(-5.89968e-09 -4.41721e-10 8.27214e-10)
(-5.10751e-09 -7.41858e-10 1.15128e-09)
(-4.67919e-09 -2.04861e-11 -4.9603e-10)
(-3.17379e-09 1.58046e-09 -1.7869e-09)
(-5.10328e-09 1.34558e-09 -9.08535e-10)
(-7.16763e-09 2.29896e-09 -1.09933e-09)
(-7.33795e-09 2.10777e-09 -7.954e-10)
(-6.58397e-09 1.74281e-09 -7.03104e-10)
(-7.0178e-10 -3.47036e-11 4.18284e-10)
(-8.47648e-10 3.55357e-11 9.42705e-11)
(9.89137e-10 -2.65167e-11 5.79429e-11)
(7.7905e-10 -3.61476e-10 1.40247e-10)
(6.20573e-10 -4.57489e-10 3.58599e-10)
(-1.08454e-09 -6.50003e-10 3.35098e-10)
(-3.3042e-09 -2.10109e-10 2.34007e-10)
(-3.86432e-09 4.10966e-09 -4.87033e-09)
(2.4621e-09 1.29073e-08 -1.23419e-08)
(-1.43007e-09 2.74721e-10 4.27887e-10)
(-1.66426e-09 1.50504e-10 1.66151e-10)
(1.49327e-09 -5.80572e-10 -2.39957e-10)
(7.71286e-09 1.9867e-09 1.88724e-12)
(1.9336e-10 -6.809e-11 5.75463e-10)
(-1.99356e-09 -6.75411e-10 3.37833e-10)
(-3.04603e-09 -4.86449e-10 -3.21649e-11)
(-3.46046e-09 6.25207e-09 -1.09118e-09)
(1.09545e-09 1.67176e-08 -1.00808e-09)
(-2.02597e-09 6.30102e-10 -9.33667e-11)
(-2.91028e-09 4.84912e-10 -3.62892e-10)
(-3.46602e-09 5.68224e-10 4.43075e-11)
(-4.53352e-10 3.62447e-10 -9.57195e-11)
(-2.5301e-09 -7.47254e-13 8.23671e-10)
(-4.31877e-09 -7.91099e-10 5.00445e-10)
(-3.69408e-09 -4.94644e-10 4.81658e-10)
(-3.432e-09 4.11899e-10 4.55646e-11)
(-1.8803e-09 1.48354e-09 -5.28108e-10)
(-2.98998e-09 2.79922e-10 -3.46698e-10)
(-3.29779e-09 8.91999e-10 -4.85538e-10)
(1.29629e-09 2.3679e-08 -3.67892e-10)
(-3.64779e-09 9.50214e-10 -1.6365e-10)
(-4.4014e-09 5.90502e-10 4.81288e-10)
(-4.9022e-09 -5.12325e-10 6.52722e-10)
)
;

boundaryField
{
    inlet
    {
        type            zeroGradient;
    }
    outlet
    {
        type            zeroGradient;
    }
    wall
    {
        type            zeroGradient;
    }
    procBoundary5to1
    {
        type            processor;
        value           nonuniform List<vector> 
32
(
(-2.74381e-09 2.19893e-09 -5.74928e-10)
(-4.96644e-09 2.19978e-09 -5.03611e-10)
(-6.84028e-09 1.94134e-09 -2.90181e-09)
(-5.14568e-09 3.46164e-09 -3.80472e-09)
(-1.00644e-08 3.80331e-09 -6.38892e-09)
(-4.49088e-09 3.21224e-09 -1.81477e-08)
(-5.34474e-09 5.03244e-09 8.98881e-10)
(-5.17456e-09 4.44618e-09 -8.92009e-10)
(-5.73608e-09 3.86759e-09 -3.07661e-10)
(-4.43783e-09 4.72724e-09 -6.06724e-09)
(8.88243e-10 3.26842e-09 -6.55924e-09)
(2.142e-09 -5.63304e-11 -8.01614e-09)
(-9.30709e-09 8.1536e-09 -1.13036e-08)
(-8.55465e-09 6.65483e-09 -1.15083e-09)
(-6.24279e-09 7.31551e-09 -1.97514e-09)
(-6.5634e-09 5.6334e-09 -1.02967e-09)
(-2.91915e-09 5.28449e-09 8.94776e-10)
(4.21374e-09 -3.75102e-10 4.58863e-09)
(1.0099e-08 -1.93162e-09 -4.34742e-09)
(1.30142e-09 -1.83568e-09 1.39038e-10)
(-6.38513e-09 4.59642e-09 -1.08835e-08)
(-3.93668e-09 1.66033e-09 9.35576e-12)
(-5.67273e-09 3.96756e-10 1.82841e-09)
(-4.31437e-09 1.60598e-09 1.39832e-09)
(-4.31437e-09 1.60598e-09 1.39832e-09)
(-4.31437e-09 1.60598e-09 1.39832e-09)
(-8.6857e-09 2.84075e-09 -6.09447e-10)
(-9.50247e-09 4.4272e-09 -2.7797e-11)
(-9.50247e-09 4.4272e-09 -2.7797e-11)
(-9.50247e-09 4.4272e-09 -2.7797e-11)
(-1.345e-08 3.65637e-09 -2.66439e-10)
(-1.345e-08 3.65637e-09 -2.66439e-10)
)
;
    }
    procBoundary5to4
    {
        type            processor;
        value           nonuniform List<vector> 
12
(
(-2.97127e-09 1.04076e-09 9.76242e-10)
(-7.16752e-09 1.81884e-09 1.74583e-09)
(-8.8751e-09 1.43028e-09 5.8528e-10)
(-1.03672e-08 1.61833e-09 -2.18767e-10)
(-1.50857e-09 2.23326e-10 4.55696e-10)
(-2.64078e-09 7.38107e-10 4.43265e-10)
(-5.05172e-09 4.95536e-10 1.64338e-10)
(-5.56438e-09 1.59199e-09 -1.72688e-09)
(-7.65562e-10 1.02508e-11 2.34347e-10)
(-9.98676e-10 -7.59443e-11 2.80209e-10)
(-1.71382e-09 -7.20732e-11 -7.09035e-11)
(-2.07663e-09 5.39176e-10 -3.18867e-10)
)
;
    }
    procBoundary5to7
    {
        type            processor;
        value           nonuniform List<vector> 
44
(
(-1.12517e-08 3.68264e-09 -2.74378e-09)
(-1.04565e-08 4.55406e-09 -1.81259e-09)
(-9.01332e-09 3.55011e-09 -5.72217e-10)
(-8.54999e-09 2.70827e-09 1.46514e-09)
(-5.45055e-09 2.19501e-09 1.74696e-09)
(-4.66836e-09 -9.52422e-10 3.31142e-09)
(-3.23762e-09 1.1858e-10 2.13794e-09)
(-2.62041e-09 8.6748e-10 -2.98047e-09)
(-1.13819e-08 4.4345e-09 -1.85537e-09)
(-1.12517e-08 3.68264e-09 -2.74378e-09)
(-1.00271e-08 3.17144e-09 -4.5675e-10)
(-9.96351e-09 1.49647e-09 -2.91773e-10)
(-1.02957e-08 -7.79603e-10 7.68151e-10)
(-7.61959e-09 6.07715e-10 1.99004e-09)
(-6.17671e-09 1.42703e-10 1.90549e-09)
(-4.01759e-09 -9.48661e-11 1.37493e-09)
(-4.37547e-09 1.83533e-10 -2.62064e-09)
(-7.24431e-09 1.64883e-09 -1.576e-09)
(-1.00271e-08 3.17144e-09 -4.5675e-10)
(-8.3652e-09 2.83141e-09 -1.72316e-09)
(-1.00271e-08 3.17144e-09 -4.5675e-10)
(-9.96351e-09 1.49647e-09 -2.91773e-10)
(-7.53774e-09 2.8499e-10 3.72623e-10)
(-5.85167e-09 2.4347e-10 1.36328e-09)
(-5.2595e-09 1.28458e-10 1.38566e-09)
(-4.23099e-09 -4.96094e-10 4.19872e-10)
(-1.71513e-09 -3.69309e-10 -1.0821e-09)
(-4.74489e-09 1.24632e-09 -8.78424e-10)
(-6.24507e-09 1.80373e-09 -7.80288e-10)
(-5.20757e-09 1.8335e-09 -4.02865e-10)
(-7.53774e-09 2.8499e-10 3.72623e-10)
(-4.97e-09 1.89265e-09 -3.149e-10)
(-7.53774e-09 2.8499e-10 3.72623e-10)
(-5.85167e-09 2.4347e-10 1.36328e-09)
(-5.17835e-09 -5.3144e-10 8.23945e-10)
(-5.83048e-09 7.93054e-10 2.57682e-10)
(-1.25281e-09 -3.00347e-10 -1.25762e-09)
(-1.52211e-09 1.08308e-09 -3.13866e-10)
(-2.65354e-09 1.1092e-09 -3.05747e-10)
(-2.75697e-09 8.37122e-10 -3.43491e-10)
(-2.69946e-09 8.65471e-10 -3.38229e-11)
(-2.95821e-09 7.36529e-10 6.85183e-10)
(-5.17835e-09 -5.3144e-10 8.23945e-10)
(-3.96404e-09 1.63903e-09 1.55981e-09)
)
;
    }
}


// ************************************************************************* //
