/*--------------------------------*- C++ -*----------------------------------*\
| =========                 |                                                 |
| \\      /  F ield         | OpenFOAM: The Open Source CFD Toolbox           |
|  \\    /   O peration     | Version:  4.x                                   |
|   \\  /    A nd           | Web:      www.OpenFOAM.org                      |
|    \\/     M anipulation  |                                                 |
\*---------------------------------------------------------------------------*/
FoamFile
{
    version     2.0;
    format      ascii;
    class       volScalarField;
    location    "6";
    object      p_rgh;
}
// * * * * * * * * * * * * * * * * * * * * * * * * * * * * * * * * * * * * * //

dimensions      [1 -1 -2 0 0 0 0];

internalField   nonuniform List<scalar> 
87
(
77.9874
41.3302
78.0116
86.1588
41.3028
77.9978
113.809
95.9769
105.104
78.1021
95.4214
59.7832
86.6877
42.1829
78.4278
113.246
95.8632
104.986
78.1568
95.7715
59.9615
86.697
42.1908
78.3836
112.174
95.1726
103.99
77.7823
95.0991
59.6283
86.0674
41.6024
77.6881
113.463
95.8665
104.825
77.8809
95.3154
59.5995
86.2753
41.8875
78.3558
113.072
95.7995
104.811
77.9681
95.6006
59.6602
86.5569
41.901
78.3208
112.146
95.2133
103.93
77.7419
94.8942
59.4883
85.8473
41.3069
77.2507
112.964
95.7053
104.475
77.9398
95.1095
59.5339
85.9268
41.1092
77.4281
112.694
95.6434
104.368
78.0202
95.1054
59.5821
85.8299
41.4035
77.0128
112.052
95.2752
103.85
77.7878
94.7957
59.5736
85.6286
41.4288
77.0492
)
;

boundaryField
{
    inlet
    {
        type            fixedFluxPressure;
        gradient        nonuniform List<scalar> 9(0.729778 0.672872 0.670105 1.26945 1.14302 1.15011 1.94181 1.79944 1.80306);
        value           nonuniform List<scalar> 9(113.82 113.256 112.183 113.481 113.088 112.162 112.991 112.719 112.077);
    }
    outlet
    {
        type            fixedValue;
        value           nonuniform 0();
    }
    wall
    {
        type            fixedFluxPressure;
        gradient        nonuniform List<scalar> 
57
(
3.01386e-05
0.000293658
0.000296181
0.000611559
0.000369606
6.96215e-05
0.000628634
0.000339013
0.000351515
0.00143748
0.000710976
0.000485106
0.0008157
0.000331107
9.81988e-05
0.00189319
0.000874982
0.000460685
0.000192955
-0.000224971
9.06174e-05
0.000730416
0.00101152
-0.000476477
-0.00122199
0.00115284
0.00140201
0.000196103
-0.000110392
0.00473345
0.0011376
0.00143424
0.000193796
0.000517478
0.000295373
0.000235648
0.00165129
0.000949921
0.000547114
0.00079472
0.000603402
0.000259546
0.000794309
0.00109988
0.000599115
5.76691e-05
-6.64943e-05
-0.000169205
0.000155795
-0.00134249
-0.000509221
-0.000510541
-0.00042146
-0.000260262
-8.36437e-05
-0.00102692
-0.00108306
)
;
        value           nonuniform List<scalar> 
57
(
112.964
112.694
112.052
95.7053
95.6434
95.2752
104.475
104.368
103.85
77.9398
78.0202
77.7878
95.1095
95.1054
94.7957
59.534
59.5821
59.5736
85.9268
85.8299
85.6286
41.1092
41.4035
41.4288
77.4281
77.0128
77.0492
112.174
112.146
112.052
95.1726
95.2133
95.2752
103.99
103.93
103.85
77.7823
77.7419
77.7878
95.0991
94.8942
94.7957
59.6283
59.4883
59.5736
86.1588
86.0674
85.8473
85.6286
41.3028
41.6024
41.3069
41.4288
77.9978
77.6881
77.2507
77.0491
)
;
    }
    procBoundary6to0
    {
        type            processor;
        value           uniform 77.808;
    }
    procBoundary6to2
    {
        type            processor;
        value           nonuniform List<scalar> 
32
(
78.1106
41.7262
78.8183
87.1849
42.3086
79.4043
113.25
95.8355
104.626
77.595
95.2092
59.3388
86.2982
41.1601
41.1601
41.1601
112.679
95.4675
104.586
77.6133
95.6645
59.501
86.7376
86.7376
86.7376
111.561
94.7389
103.515
77.2048
94.7858
59.2661
59.2661
)
;
    }
    procBoundary6to4
    {
        type            processor;
        value           nonuniform List<scalar> 
27
(
114.527
97.0015
105.713
78.6481
95.7943
60.2863
86.6173
42.6375
78.2628
114.004
96.4661
105.326
78.3931
95.6256
59.7823
86.4485
42.064
77.7732
113.593
96.1029
104.856
78.2043
95.1261
59.453
85.5296
41.3066
76.6447
)
;
    }
    procBoundary6to7
    {
        type            processor;
        value           nonuniform List<scalar> 
12
(
22.9446
23.052
23.0952
24.8596
24.701
23.6615
24.4908
24.7581
23.1279
23.5228
23.5
23.2977
)
;
    }
}


// ************************************************************************* //
