/*--------------------------------*- C++ -*----------------------------------*\
| =========                 |                                                 |
| \\      /  F ield         | OpenFOAM: The Open Source CFD Toolbox           |
|  \\    /   O peration     | Version:  4.x                                   |
|   \\  /    A nd           | Web:      www.OpenFOAM.org                      |
|    \\/     M anipulation  |                                                 |
\*---------------------------------------------------------------------------*/
FoamFile
{
    version     2.0;
    format      ascii;
    class       volScalarField;
    location    "13";
    object      Deff;
}
// * * * * * * * * * * * * * * * * * * * * * * * * * * * * * * * * * * * * * //

dimensions      [0 2 -1 0 0 0 0];

internalField   nonuniform List<scalar> 
108
(
9.88125e-08
9.8583e-08
9.84189e-08
9.84019e-08
9.83417e-08
9.83079e-08
9.81973e-08
9.81362e-08
9.79553e-08
9.85958e-08
9.84911e-08
9.833e-08
9.81835e-08
9.81478e-08
9.81507e-08
9.81377e-08
9.80995e-08
9.79116e-08
9.8554e-08
9.83544e-08
9.82652e-08
9.8095e-08
9.80819e-08
9.80928e-08
9.80401e-08
9.79178e-08
9.79896e-08
9.85744e-08
9.84052e-08
9.82173e-08
9.81487e-08
9.80218e-08
9.80127e-08
9.78555e-08
9.79951e-08
9.7995e-08
9.87828e-08
9.86271e-08
9.84071e-08
9.82555e-08
9.82316e-08
9.82565e-08
9.82282e-08
9.80093e-08
9.78742e-08
9.86598e-08
9.84743e-08
9.83533e-08
9.82185e-08
9.81801e-08
9.81398e-08
9.80698e-08
9.79363e-08
9.78507e-08
9.86169e-08
9.83791e-08
9.81849e-08
9.80694e-08
9.80167e-08
9.79887e-08
9.79634e-08
9.79174e-08
9.78989e-08
9.84192e-08
9.82911e-08
9.81943e-08
9.79736e-08
9.78911e-08
9.79177e-08
9.77978e-08
9.78764e-08
9.79172e-08
9.87838e-08
9.85623e-08
9.85431e-08
9.83182e-08
9.82474e-08
9.8064e-08
9.808e-08
9.79958e-08
9.79662e-08
9.86557e-08
9.83587e-08
9.83785e-08
9.82905e-08
9.8188e-08
9.80533e-08
9.80509e-08
9.80096e-08
9.79076e-08
9.85713e-08
9.83083e-08
9.81894e-08
9.80982e-08
9.80965e-08
9.79879e-08
9.79923e-08
9.79289e-08
9.79414e-08
9.83687e-08
9.82925e-08
9.82201e-08
9.79967e-08
9.79329e-08
9.78266e-08
9.79999e-08
9.80171e-08
9.79727e-08
)
;

boundaryField
{
    inlet
    {
        type            calculated;
        value           uniform 0;
    }
    outlet
    {
        type            calculated;
        value           nonuniform 0();
    }
    wall
    {
        type            calculated;
        value           uniform 0;
    }
    procBoundary4to0
    {
        type            processor;
        value           uniform 0;
    }
    procBoundary4to5
    {
        type            processor;
        value           uniform 0;
    }
    procBoundary4to6
    {
        type            processor;
        value           uniform 0;
    }
}


// ************************************************************************* //
