/*--------------------------------*- C++ -*----------------------------------*\
| =========                 |                                                 |
| \\      /  F ield         | OpenFOAM: The Open Source CFD Toolbox           |
|  \\    /   O peration     | Version:  4.x                                   |
|   \\  /    A nd           | Web:      www.OpenFOAM.org                      |
|    \\/     M anipulation  |                                                 |
\*---------------------------------------------------------------------------*/
FoamFile
{
    version     2.0;
    format      ascii;
    class       volScalarField;
    location    "13";
    object      magGField;
}
// * * * * * * * * * * * * * * * * * * * * * * * * * * * * * * * * * * * * * //

dimensions      [1 -2 -1 0 0 0 0];

internalField   nonuniform List<scalar> 
108
(
91.7055
43.8933
91.74
45.926
91.4194
48.3078
93.6631
55.1475
93.6193
90.3766
36.7777
87.423
27.8631
86.2159
20.8645
84.6699
16.3431
81.0669
90.0342
33.8474
84.7548
20.4352
83.0322
13.3159
89.0742
38.3332
78.7726
90.2742
34.321
84.8092
22.8264
84.4083
22.0162
100.455
18.1534
89.0444
91.0943
46.0028
92.7766
49.109
94.7241
53.0966
96.2208
55.6744
97.2879
90.4246
40.9033
89.3905
37.3365
89.6057
33.4044
87.4369
28.5302
86.8297
90.0485
38.9246
87.4824
32.6045
87.8134
28.355
87.3941
26.8844
85.911
88.9316
36.6363
85.5523
27.9582
83.8323
21.5191
81.7924
14.5472
80.1148
91.703
48.3923
95.0621
54.583
92.9724
58.8412
97.834
64.7515
101.338
91.2495
44.8143
92.2314
48.5205
92.8296
52.1999
95.0191
58.0153
97.4733
90.3308
42.4577
89.8948
42.7049
90.6796
46.1125
94.7363
61.0521
95.2333
88.9707
41.7919
89.0531
41.3252
89.4293
43.9657
91.7604
52.5837
92.5883
)
;

boundaryField
{
    inlet
    {
        type            calculated;
        value           uniform 67;
    }
    outlet
    {
        type            calculated;
        value           nonuniform 0();
    }
    wall
    {
        type            calculated;
        value           uniform 0;
    }
    procBoundary4to0
    {
        type            processor;
        value           nonuniform List<scalar> 
36
(
91.6021
45.7378
92.3366
49.6598
87.7188
51.9563
96.0724
56.3875
99.7636
90.9527
39.3112
88.9955
35.3605
88.4539
31.946
86.789
28.6671
87.4602
90.1735
38.1443
87.2357
30.2887
87.1397
24.5028
85.0279
20.3779
85.9458
90.2917
36.9546
86.7403
27.6017
86.49
23.1965
87.2189
21.2699
84.4083
)
;
    }
    procBoundary4to5
    {
        type            processor;
        value           nonuniform List<scalar> 
12
(
52.0887
7.53823
7.96483
3.85817
57.9602
24.0097
23.7686
13.3837
69.4578
64.9694
58.0942
55.031
)
;
    }
    procBoundary4to6
    {
        type            processor;
        value           nonuniform List<scalar> 
27
(
87.2378
31.6211
78.5706
15.7168
60.9917
31.3913
8.81965
259.275
41.9218
88.2832
36.5638
86.0009
30.2449
88.1259
33.483
108.6
26.5319
91.1551
90.4669
42.3573
89.8057
38.9338
89.5991
37.1124
98.9332
71.3077
91.2452
)
;
    }
}


// ************************************************************************* //
