/*--------------------------------*- C++ -*----------------------------------*\
| =========                 |                                                 |
| \\      /  F ield         | OpenFOAM: The Open Source CFD Toolbox           |
|  \\    /   O peration     | Version:  4.x                                   |
|   \\  /    A nd           | Web:      www.OpenFOAM.org                      |
|    \\/     M anipulation  |                                                 |
\*---------------------------------------------------------------------------*/
FoamFile
{
    version     2.0;
    format      ascii;
    class       volVectorField;
    location    "13";
    object      UsPrev;
}
// * * * * * * * * * * * * * * * * * * * * * * * * * * * * * * * * * * * * * //

dimensions      [0 1 -1 0 0 0 0];

internalField   nonuniform List<vector> 
108
(
(6.56606e-06 4.88076e-06 -8.37326e-07)
(2.02018e-05 7.49473e-06 -5.45065e-06)
(4.80914e-05 3.79576e-06 -4.50909e-06)
(7.56579e-05 1.46525e-05 4.0368e-06)
(9.56345e-05 1.05892e-05 8.16802e-07)
(0.00012057 4.25655e-05 -1.34764e-05)
(0.000190812 -3.82954e-06 -2.80616e-06)
(0.000179775 4.72666e-05 1.24187e-05)
(0.000232768 -7.57415e-05 1.20603e-09)
(1.48664e-05 7.06523e-06 -1.13742e-06)
(5.37066e-05 4.02732e-06 -1.33618e-05)
(8.01789e-05 1.96799e-05 5.01919e-06)
(0.000111533 9.4242e-06 1.80488e-05)
(0.000137952 -5.92032e-06 1.41061e-05)
(0.000198131 4.70047e-05 -1.2165e-05)
(0.000290951 8.83564e-06 5.59782e-06)
(0.000291498 -4.14235e-05 3.00633e-05)
(0.000410958 -4.05543e-05 3.08778e-05)
(2.59871e-05 3.92523e-06 -3.85129e-06)
(6.26761e-05 9.74282e-06 -9.00884e-06)
(0.000102883 2.36585e-05 7.04333e-06)
(0.000134515 9.3332e-06 2.51028e-05)
(0.00015792 -8.82404e-07 1.62807e-05)
(0.000203487 3.64905e-05 2.85761e-05)
(0.000230229 2.17858e-05 5.75822e-05)
(0.000258566 8.29914e-06 4.17592e-05)
(0.000412152 -4.87657e-06 3.45578e-05)
(2.46017e-05 1.65513e-08 1.48786e-07)
(7.09626e-05 1.01164e-05 -5.56578e-06)
(0.000113782 2.51885e-05 -4.94331e-06)
(0.000147087 2.85252e-05 4.34767e-06)
(0.000152907 1.86955e-05 7.8042e-06)
(0.000214703 4.33823e-05 3.06978e-05)
(0.000234792 5.75903e-05 5.80057e-05)
(0.000318834 6.53756e-05 5.7577e-05)
(0.000398918 2.73447e-05 9.13761e-05)
(9.73937e-06 8.01866e-06 -2.35837e-06)
(1.99551e-05 4.82044e-06 -6.40194e-06)
(4.82368e-05 7.26601e-06 -9.45303e-06)
(6.41733e-05 1.38858e-05 -1.04721e-05)
(7.53994e-05 9.14386e-06 3.57251e-06)
(6.10974e-05 1.58173e-05 -3.46837e-05)
(0.000141992 -6.55616e-06 -5.72478e-06)
(0.000141468 5.00628e-05 2.29026e-05)
(0.000156183 -7.94382e-06 2.72184e-05)
(1.64677e-05 9.75701e-06 -6.53036e-06)
(4.65242e-05 -1.13671e-06 -1.8063e-05)
(6.51208e-05 7.14597e-06 -7.01208e-06)
(0.000112956 3.27919e-06 1.27803e-05)
(0.000130555 2.59937e-05 1.36858e-05)
(0.000135593 1.81602e-05 -4.47235e-05)
(0.000207109 9.00731e-06 -2.39447e-05)
(0.000194511 6.15592e-05 4.37176e-05)
(0.000270588 8.12374e-05 -7.0548e-06)
(1.54507e-05 -1.18679e-06 -3.06546e-06)
(6.12732e-05 1.8137e-06 -3.24179e-05)
(8.99492e-05 1.61487e-05 -8.0276e-06)
(0.000122452 1.32879e-05 2.1361e-05)
(0.000155323 3.08653e-05 1.98487e-05)
(0.00019527 1.68137e-05 -2.02991e-05)
(0.000235334 1.8738e-05 -8.19422e-06)
(0.000276152 5.30597e-05 -8.47261e-06)
(0.00032543 5.29469e-06 2.80739e-05)
(2.06096e-05 -5.22146e-06 -7.54064e-06)
(5.03499e-05 -8.82482e-07 -1.47617e-05)
(9.75427e-05 2.11346e-05 -2.40479e-05)
(0.000111093 3.09007e-05 -2.41498e-05)
(0.000106273 4.4585e-05 -1.1115e-05)
(0.000194522 5.12895e-05 -1.99745e-05)
(0.000224751 5.25996e-05 2.22328e-05)
(0.000231276 5.89804e-05 5.59752e-05)
(0.000247757 5.85809e-05 2.89899e-05)
(6.27093e-06 3.8473e-06 -4.4072e-07)
(1.94692e-05 2.55878e-06 -4.81492e-06)
(2.80533e-05 -2.11589e-06 -1.06989e-05)
(3.23845e-05 1.99102e-06 -7.44314e-06)
(1.99269e-05 5.33175e-06 -3.8528e-06)
(2.80264e-05 1.37356e-05 -3.05047e-05)
(6.91995e-05 2.7285e-06 -3.52792e-05)
(6.17054e-05 6.32293e-06 -2.09276e-06)
(6.51427e-05 -3.06486e-05 -2.02824e-05)
(5.90838e-06 7.08204e-06 -5.88043e-06)
(2.85819e-05 3.61362e-06 -1.26452e-05)
(3.92341e-05 2.73984e-06 -7.25121e-06)
(4.27452e-05 1.87641e-06 -4.47782e-06)
(8.12213e-05 9.8096e-06 -2.19843e-06)
(0.000121088 6.68694e-06 -2.37959e-05)
(0.00010004 -1.09853e-05 -1.09338e-05)
(0.00012816 2.94457e-06 2.32925e-05)
(0.000176697 1.45025e-05 -2.72688e-05)
(2.05911e-06 -3.63228e-06 6.03579e-07)
(3.65117e-05 -4.44174e-06 -1.78891e-05)
(3.77399e-05 1.2655e-05 -8.70178e-06)
(4.82694e-05 8.13951e-06 -1.26439e-06)
(0.000121105 2.68933e-05 1.83293e-05)
(0.000135135 -1.60374e-05 -3.5292e-05)
(0.000151312 -1.70803e-05 -2.99177e-05)
(0.000143384 2.87259e-06 5.35662e-06)
(0.000215121 -1.36537e-05 1.8868e-05)
(2.08772e-05 -1.11384e-05 -1.098e-05)
(3.42937e-05 -7.10854e-06 -1.82884e-05)
(7.36549e-05 3.46697e-05 -2.24974e-05)
(5.0905e-05 2.78779e-05 -1.62196e-05)
(5.39225e-05 4.1051e-05 -2.53633e-05)
(7.09758e-05 -5.00826e-06 -3.59767e-05)
(9.33414e-05 2.71263e-05 4.27761e-06)
(1.22444e-05 0.000116552 2.29904e-05)
(0.000137677 6.96445e-05 2.97045e-05)
)
;

boundaryField
{
    inlet
    {
        type            calculated;
        value           uniform (0 0 0);
    }
    outlet
    {
        type            calculated;
        value           nonuniform 0();
    }
    wall
    {
        type            calculated;
        value           uniform (0 0 0);
    }
    procBoundary4to0
    {
        type            processor;
        value           uniform (0 0 0);
    }
    procBoundary4to5
    {
        type            processor;
        value           uniform (0 0 0);
    }
    procBoundary4to6
    {
        type            processor;
        value           uniform (0 0 0);
    }
}


// ************************************************************************* //
