/*--------------------------------*- C++ -*----------------------------------*\
| =========                 |                                                 |
| \\      /  F ield         | OpenFOAM: The Open Source CFD Toolbox           |
|  \\    /   O peration     | Version:  4.x                                   |
|   \\  /    A nd           | Web:      www.OpenFOAM.org                      |
|    \\/     M anipulation  |                                                 |
\*---------------------------------------------------------------------------*/
FoamFile
{
    version     2.0;
    format      ascii;
    class       volVectorField;
    location    "48";
    object      DDtUrel;
}
// * * * * * * * * * * * * * * * * * * * * * * * * * * * * * * * * * * * * * //

dimensions      [0 1 -2 0 0 0 0];

internalField   nonuniform List<vector> 
114
(
(-0.000150549 -2.07495e-05 -3.18561e-06)
(-0.000286255 -5.07873e-05 -1.17621e-05)
(-0.000479082 -9.73063e-05 -3.82813e-05)
(-0.000847083 -0.000165308 -7.44789e-05)
(-0.00135955 -0.000279572 -0.000147045)
(-0.00196827 -0.000390666 -0.000229143)
(-5.51354e-05 2.47196e-06 7.004e-06)
(-0.000138782 -2.01573e-05 -6.89172e-06)
(-0.000265763 -4.28772e-05 -1.29849e-05)
(-0.00047687 -8.91418e-05 -5.16971e-05)
(-0.000827333 -0.000144299 -8.46121e-05)
(-0.00129127 -0.000287993 -0.000207722)
(-0.00189846 -0.000433519 -0.000315064)
(-1.68113e-05 1.80817e-06 5.38513e-06)
(-6.39355e-05 -6.63288e-06 1.74415e-06)
(-0.000140637 -1.80031e-05 -9.70872e-06)
(-0.000270563 -3.56331e-05 -2.19819e-05)
(-0.000467755 -6.26571e-05 -5.79711e-05)
(-0.000801338 -0.000105262 -0.000104315)
(-0.00117777 -0.000182625 -0.000199814)
(-0.00168889 -0.000250981 -0.000281099)
(4.64709e-05 1.65042e-05 2.39321e-05)
(-1.91493e-06 8.17111e-06 2.3552e-05)
(-1.69211e-05 4.05036e-06 2.27992e-05)
(-0.00011646 -2.45987e-05 2.88021e-05)
(-0.000192566 -4.05741e-05 2.16401e-05)
(-0.000435679 -0.000109599 5.69059e-05)
(-0.00069796 -0.000166278 6.63474e-05)
(-0.00137649 -0.000368493 0.000228026)
(-0.00232994 -0.000529118 0.000377313)
(2.53996e-05 1.47246e-05 1.23231e-05)
(-1.17816e-05 6.86904e-06 1.15645e-05)
(-4.07721e-05 2.00309e-06 1.0674e-05)
(-0.000124907 -1.87034e-05 1.37636e-05)
(-0.00023167 -3.5414e-05 1.68657e-05)
(-0.00044435 -9.86066e-05 3.7758e-05)
(-0.000763162 -0.00015466 6.11133e-05)
(-0.00126721 -0.000378082 0.000189909)
(-0.00198594 -0.000536792 0.000291179)
(9.10849e-06 5.05114e-06 7.62383e-06)
(-1.93842e-05 -3.05602e-07 6.24913e-06)
(-5.58431e-05 -6.66852e-06 8.08283e-06)
(-0.000132 -1.94361e-05 8.74086e-06)
(-0.000241568 -3.52149e-05 1.25414e-05)
(-0.000439933 -7.12637e-05 2.4434e-05)
(-0.000753133 -0.000103119 3.48685e-05)
(-0.00115537 -0.000230836 0.000129481)
(-0.00174721 -0.000347296 0.000221256)
(5.16459e-06 -4.05414e-06 2.13852e-06)
(-2.56942e-05 -5.49703e-06 2.0396e-06)
(5.96502e-05 1.22667e-05 1.2754e-05)
(2.50597e-05 7.1465e-06 1.78714e-05)
(1.6989e-05 -1.29678e-07 2.22135e-05)
(-6.95934e-05 -2.17783e-05 4.06013e-05)
(-0.000140339 -4.56583e-05 5.41356e-05)
(-0.000388439 -0.000107888 0.000118902)
(-0.000684033 -0.000188298 0.000180966)
(-0.00148732 -0.000365949 0.000457589)
(-0.00250081 -0.000529004 0.00072389)
(4.48294e-05 9.12547e-06 6.77789e-06)
(9.87075e-06 1.69361e-06 1.11119e-05)
(-5.0363e-06 -4.86436e-07 1.17912e-05)
(-8.95898e-05 -2.11078e-05 2.81259e-05)
(-0.00017394 -3.34808e-05 3.91644e-05)
(-0.000406246 -9.45802e-05 9.72411e-05)
(-0.00071115 -0.000151935 0.000160135)
(-0.00138787 -0.000352603 0.000416025)
(-0.00227538 -0.000521698 0.000613042)
(2.32565e-05 1.34664e-06 2.14169e-07)
(-7.34291e-06 -3.40466e-06 4.78462e-06)
(-3.99571e-05 -6.80308e-06 8.64575e-06)
(-0.000109504 -2.08536e-05 2.01935e-05)
(-0.000214983 -3.66676e-05 3.38241e-05)
(-0.000412469 -7.48452e-05 8.43293e-05)
(-0.000719622 -0.000123189 0.000148373)
(-0.00125284 -0.00025293 0.00040395)
(-0.00194384 -0.000353707 0.000581031)
(1.5915e-05 -4.60716e-06 -3.55317e-06)
(-2.12196e-05 -8.95919e-06 -5.74305e-07)
(-5.09761e-05 -1.34841e-05 2.13654e-06)
(-0.000126603 -1.93633e-05 1.31301e-05)
(0.000120793 7.76097e-06 1.12487e-05)
(8.67008e-05 2.24937e-06 2.09812e-05)
(0.00011009 -5.59427e-06 2.35306e-05)
(1.15226e-05 -3.31909e-05 6.18599e-05)
(2.33233e-05 -5.41665e-05 6.95877e-05)
(-0.000287121 -0.000137736 0.000185992)
(-0.000390194 -0.000210141 0.000239063)
(-0.00172543 -0.000521948 0.000717331)
(-0.00330782 -0.000803365 0.00121221)
(8.88484e-05 2.30898e-06 3.69268e-06)
(5.19717e-05 -4.7133e-06 1.07453e-05)
(6.25938e-05 -4.35648e-06 1.16589e-05)
(-3.39259e-05 -3.025e-05 4.03192e-05)
(-6.76046e-05 -3.76564e-05 4.91336e-05)
(-0.000353953 -0.000109094 0.000137688)
(-0.000592417 -0.000150764 0.00019936)
(-0.00157208 -0.000401142 0.000530006)
(-0.00280127 -0.000664032 0.00086307)
(5.89698e-05 -5.99785e-06 -3.2507e-06)
(1.90988e-05 -1.07488e-05 6.41269e-06)
(1.62307e-05 -1.13468e-05 7.41212e-06)
(-7.03871e-05 -2.78031e-05 3.52198e-05)
(-0.000114092 -3.55461e-05 3.76097e-05)
(-0.000361277 -8.27049e-05 0.000124125)
(-0.000568598 -0.000114208 0.000168016)
(-0.00142568 -0.000273865 0.000504538)
(-0.00253094 -0.00043533 0.000800921)
(3.76388e-05 -1.13502e-05 -9.7955e-06)
(-8.81921e-06 -1.68405e-05 -4.03213e-06)
(-2.3588e-05 -1.91313e-05 -4.63175e-06)
(-0.000109666 -3.06622e-05 1.69866e-05)
(-0.000166342 -3.35903e-05 2.77554e-05)
(-0.000383849 -6.98723e-05 8.81738e-05)
)
;

boundaryField
{
    inlet
    {
        type            calculated;
        value           nonuniform 0();
    }
    outlet
    {
        type            calculated;
        value           nonuniform List<vector> 
12
(
(-0.000979557 -0.000166029 -0.000292854)
(-0.00230748 -0.000906664 -0.00135124)
(-0.00163826 -1.51554e-05 -0.0003042)
(-0.00705603 -0.00145047 0.00192025)
(-0.00337458 -0.00201651 0.00144048)
(-0.00287054 -0.00114373 0.00110371)
(-0.0045279 -0.000239114 0.00149227)
(-0.00475079 -0.00107964 0.00122962)
(-0.00229111 -0.00050869 0.0018277)
(-0.0124578 -0.00298234 0.00538071)
(-0.00767053 -0.00222536 0.00182924)
(-0.00785297 -0.000736692 0.0029657)
)
;
    }
    wall
    {
        type            calculated;
        value           nonuniform List<vector> 
66
(
(0.000559298 3.76127e-05 -1.38905e-05)
(0.00035518 2.76857e-05 -3.98744e-05)
(0.00026854 -1.52552e-05 -6.04484e-05)
(0.000248702 -1.16591e-05 -5.91931e-05)
(0.000195756 1.60585e-05 8.51601e-05)
(2.12768e-05 -5.12003e-05 1.15493e-05)
(-3.50796e-05 -4.66362e-05 5.82862e-05)
(-8.48992e-05 -6.11005e-05 -1.86355e-07)
(0.000935909 3.77841e-05 -5.18997e-05)
(0.000613521 9.39097e-05 -0.000101927)
(0.000439418 2.8492e-05 -5.92231e-05)
(0.000297029 -2.20956e-05 -0.00011307)
(4.14332e-05 -9.87058e-05 0.000292124)
(-9.5313e-05 -0.000116645 9.1699e-05)
(-8.14049e-05 -6.10026e-05 0.000203677)
(-0.000168144 -0.000117536 5.87261e-05)
(0.00184666 7.19641e-05 -0.000172621)
(0.000940983 0.000200935 -0.000206593)
(0.000872323 9.60333e-05 -0.000228718)
(0.000575045 3.5836e-05 -6.8298e-05)
(-0.000443357 -0.000353328 0.000744261)
(-0.000532228 -0.000242693 0.00024251)
(-0.000286969 -0.000115747 0.000452419)
(-0.000231213 -0.000334276 0.000228138)
(0.00512079 0.000316836 -0.00083896)
(0.00148007 0.00059901 -0.000578031)
(0.00217369 0.000311742 -0.000738179)
(-0.00212452 -0.00146781 0.00203307)
(-0.00130589 -0.000529438 0.000375211)
(-0.00105478 -0.000155307 0.00125542)
(-0.0124578 -0.00298234 0.00538071)
(-0.00767053 -0.00222536 0.00182924)
(-0.00785297 -0.000736692 0.0029657)
(0.000266318 3.74587e-05 0.000110141)
(6.06423e-05 4.29243e-05 -1.84323e-05)
(0.000559298 3.76127e-05 -1.38905e-05)
(-9.19953e-05 -2.52317e-05 0.00012222)
(-0.00012032 4.26475e-05 1.42221e-05)
(0.000195756 1.60585e-05 8.51601e-05)
(0.000405436 9.07676e-05 8.84279e-05)
(0.000157869 5.13095e-05 2.79949e-06)
(0.000935909 3.77841e-05 -5.18997e-05)
(-0.000264404 -1.60939e-05 3.07462e-05)
(-0.000205625 -0.000104343 0.000179326)
(-0.000164914 2.69281e-05 6.56648e-05)
(4.14332e-05 -9.87058e-05 0.000292124)
(-0.000806991 -9.18198e-05 4.23613e-05)
(0.00059476 0.000162369 -9.84671e-05)
(0.000195884 5.16542e-05 -1.40298e-05)
(0.00184666 7.19641e-05 -0.000172621)
(-6.06484e-05 -1.816e-05 4.92704e-05)
(-0.000358855 -0.000226226 0.00030064)
(-0.00034651 6.87226e-06 0.000178462)
(-0.000443357 -0.000353328 0.000744261)
(-0.00102043 -0.000112455 -2.63764e-05)
(0.00126442 0.000334031 -0.00033059)
(0.000187825 1.4528e-05 -0.000277864)
(0.00512079 0.000316836 -0.00083896)
(-0.000405523 4.32816e-05 -4.9947e-05)
(-0.000533018 -0.000753854 0.000830508)
(-0.000721332 3.14296e-05 0.000525964)
(-0.00212452 -0.00146781 0.00203307)
(-0.000979557 -0.000166029 -0.000292854)
(-0.00705603 -0.00145047 0.00192025)
(-0.0045279 -0.000239114 0.00149227)
(-0.0124578 -0.00298234 0.00538071)
)
;
    }
    procBoundary5to1
    {
        type            processor;
        value           nonuniform List<vector> 
32
(
(-9.51444e-05 -1.76911e-05 -4.42261e-05)
(-0.000169745 -3.8204e-05 -4.26118e-05)
(-0.000476352 -9.62247e-05 -0.000138583)
(-0.00080628 -0.000153695 -0.000182291)
(-0.00162011 -0.000290956 -0.000482996)
(-0.00264299 -0.000400469 -0.000815745)
(1.7729e-05 4.49338e-06 -1.5399e-06)
(-9.75602e-05 -2.44461e-05 -3.63975e-05)
(-0.000187321 -3.2369e-05 -4.76069e-05)
(-0.000469959 -9.94991e-05 -0.000140606)
(-0.000796186 -0.000129978 -0.000205924)
(-0.00153095 -0.000350175 -0.000510851)
(-0.00245989 -0.000555122 -0.00081634)
(1.1742e-05 2.9072e-06 3.42323e-06)
(-2.65972e-05 -1.62503e-06 -5.79921e-06)
(-0.000120245 -1.92245e-05 -3.03713e-05)
(-0.000243849 -3.20927e-05 -5.55233e-05)
(-0.000477447 -7.33923e-05 -0.000142555)
(-0.000830311 -0.000105483 -0.000235283)
(-0.00135429 -0.000265347 -0.000509334)
(-0.00203457 -0.00037915 -0.000761038)
(2.74852e-05 2.7164e-05 1.89058e-05)
(-2.49741e-05 1.69085e-05 9.40427e-06)
(-7.53915e-05 7.77356e-06 6.94615e-06)
(-7.53915e-05 7.77356e-06 6.94615e-06)
(-7.53915e-05 7.77356e-06 6.94615e-06)
(2.81764e-05 1.92311e-05 1.49314e-05)
(-1.25295e-05 1.01785e-05 8.6773e-06)
(-1.25295e-05 1.01785e-05 8.6773e-06)
(-1.25295e-05 1.01785e-05 8.6773e-06)
(1.37758e-05 8.67802e-06 1.10507e-05)
(1.37758e-05 8.67802e-06 1.10507e-05)
)
;
    }
    procBoundary5to4
    {
        type            processor;
        value           nonuniform List<vector> 
12
(
(5.23558e-05 1.40991e-05 2.40055e-05)
(3.65896e-05 1.18962e-05 1.47083e-05)
(2.66575e-05 6.2219e-06 7.95434e-06)
(2.16103e-05 -2.24428e-06 5.04511e-06)
(6.256e-05 1.11646e-05 1.37563e-05)
(4.86232e-05 5.89287e-06 8.74816e-06)
(3.48669e-05 3.84761e-07 2.99894e-06)
(2.57986e-05 -5.77307e-06 -1.33653e-06)
(0.000107522 4.95174e-06 1.49863e-05)
(8.32245e-05 -2.25505e-06 6.58661e-06)
(5.99078e-05 -8.14643e-06 1.10645e-06)
(4.28882e-05 -1.29788e-05 -4.69021e-06)
)
;
    }
    procBoundary5to7
    {
        type            processor;
        value           nonuniform List<vector> 
44
(
(-2.03169e-05 -2.71126e-06 2.53194e-06)
(-6.71273e-05 -6.2e-06 -1.51848e-06)
(-0.000145819 -1.10482e-05 -1.24266e-05)
(-0.000273913 -1.3496e-05 -2.65413e-05)
(-0.000467875 -1.81069e-05 -6.86237e-05)
(-0.000798579 -2.9446e-05 -0.000116326)
(-0.00114513 -9.60203e-06 -0.000238681)
(-0.00163261 6.41247e-06 -0.000348151)
(1.55024e-05 1.32827e-06 8.59291e-06)
(-2.03169e-05 -2.71126e-06 2.53194e-06)
(-6.58338e-05 -9.26613e-06 4.61513e-06)
(-0.000139481 -1.28722e-05 1.26495e-06)
(-0.000255221 -1.66143e-05 1.9922e-06)
(-0.000439283 -2.67492e-05 8.30674e-07)
(-0.000746423 -3.1753e-05 9.14348e-06)
(-0.00110073 -7.34997e-05 5.55662e-05)
(-0.00162976 -0.000111132 0.00010278)
(7.06432e-06 -8.99322e-06 6.701e-07)
(-6.58338e-05 -9.26613e-06 4.61513e-06)
(-2.78694e-05 -9.34973e-06 -2.01034e-06)
(-6.58338e-05 -9.26613e-06 4.61513e-06)
(-0.000139481 -1.28722e-05 1.26495e-06)
(-0.000222762 -2.66671e-05 2.39447e-05)
(-0.000413135 -4.3651e-05 6.40168e-05)
(-0.00070955 -6.58961e-05 0.000104695)
(-0.0011715 -0.000110131 0.000327657)
(-0.00183972 -0.000166762 0.00046928)
(5.02983e-06 -1.25969e-05 -6.81067e-06)
(-3.06823e-05 -1.38289e-05 -5.78717e-06)
(-6.79341e-05 -1.67286e-05 -3.5062e-06)
(-0.000222762 -2.66671e-05 2.39447e-05)
(-0.000139457 -1.49745e-05 5.24748e-07)
(-0.000222762 -2.66671e-05 2.39447e-05)
(-0.000413135 -4.3651e-05 6.40168e-05)
(-0.000601681 -7.2037e-05 0.000142622)
(-0.00131046 -0.000204351 0.000376854)
(-0.0022793 -0.000360793 0.000565288)
(1.26186e-05 -1.56869e-05 -1.77854e-05)
(-3.30155e-05 -1.96868e-05 -1.23685e-05)
(-6.53712e-05 -2.1704e-05 -1.15201e-05)
(-0.000143793 -2.5557e-05 3.58926e-07)
(-0.000233653 -2.58826e-05 2.27458e-07)
(-0.000601681 -7.2037e-05 0.000142622)
(-0.000426058 -3.30087e-05 3.68022e-05)
)
;
    }
}


// ************************************************************************* //
