/*--------------------------------*- C++ -*----------------------------------*\
| =========                 |                                                 |
| \\      /  F ield         | OpenFOAM: The Open Source CFD Toolbox           |
|  \\    /   O peration     | Version:  4.x                                   |
|   \\  /    A nd           | Web:      www.OpenFOAM.org                      |
|    \\/     M anipulation  |                                                 |
\*---------------------------------------------------------------------------*/
FoamFile
{
    version     2.0;
    format      ascii;
    class       volVectorField;
    location    "48";
    object      ddtUrel;
}
// * * * * * * * * * * * * * * * * * * * * * * * * * * * * * * * * * * * * * //

dimensions      [0 1 -2 0 0 0 0];

internalField   nonuniform List<vector> 
114
(
(1.62873e-09 -1.78067e-08 -2.35826e-09)
(5.95941e-09 -2.51353e-08 -3.40997e-09)
(1.0373e-08 -3.39068e-08 -4.63319e-09)
(1.46259e-08 -4.32111e-08 -5.9114e-09)
(1.82221e-08 -5.13675e-08 -7.01964e-09)
(2.04059e-08 -5.62599e-08 -7.67141e-09)
(-2.86864e-10 -1.4145e-08 -1.85659e-09)
(3.62139e-09 -2.13241e-08 -2.89062e-09)
(8.36099e-09 -3.10297e-08 -4.28671e-09)
(1.36741e-08 -4.31749e-08 -6.00313e-09)
(1.91993e-08 -5.66808e-08 -7.90149e-09)
(2.40947e-08 -6.90594e-08 -9.6414e-09)
(2.71548e-08 -7.67337e-08 -1.06955e-08)
(-1.30028e-10 -1.11719e-08 -1.47487e-09)
(2.67134e-09 -1.80555e-08 -2.46732e-09)
(7.09006e-09 -2.83883e-08 -3.96298e-09)
(1.31099e-08 -4.31807e-08 -6.1028e-09)
(2.06846e-08 -6.28451e-08 -8.92731e-09)
(2.93474e-08 -8.61101e-08 -1.22639e-08)
(3.76149e-08 -1.08751e-07 -1.55217e-08)
(4.30124e-08 -1.23484e-07 -1.76359e-08)
(-1.25998e-09 -5.80571e-09 -7.60027e-10)
(-4.69105e-10 -9.29854e-09 -1.22648e-09)
(1.71965e-09 -1.44289e-08 -1.95228e-09)
(5.02052e-09 -2.1626e-08 -2.98653e-09)
(9.14235e-09 -3.12414e-08 -4.36517e-09)
(1.39293e-08 -4.30853e-08 -6.0558e-09)
(1.89207e-08 -5.60226e-08 -7.89741e-09)
(2.33137e-08 -6.76527e-08 -9.56895e-09)
(2.59921e-08 -7.47431e-08 -1.05684e-08)
(-4.58491e-10 -6.57091e-09 -8.78976e-10)
(7.11099e-10 -1.07518e-08 -1.45011e-09)
(3.17028e-09 -1.71461e-08 -2.35679e-09)
(7.01965e-09 -2.65351e-08 -3.70297e-09)
(1.22137e-08 -3.96898e-08 -5.59302e-09)
(1.86859e-08 -5.67627e-08 -8.04375e-09)
(2.59516e-08 -7.64896e-08 -1.08706e-08)
(3.27522e-08 -9.52459e-08 -1.3583e-08)
(3.70803e-08 -1.07246e-07 -1.52806e-08)
(7.1727e-10 -8.0419e-09 -1.10216e-09)
(2.45972e-09 -1.36141e-08 -1.87833e-09)
(5.70858e-09 -2.25536e-08 -3.16313e-09)
(1.09278e-08 -3.65776e-08 -5.18303e-09)
(1.86072e-08 -5.75462e-08 -8.20505e-09)
(2.90909e-08 -8.6742e-08 -1.24178e-08)
(4.19709e-08 -1.23081e-07 -1.7663e-08)
(5.50837e-08 -1.60409e-07 -2.30769e-08)
(6.4031e-08 -1.85982e-07 -2.67598e-08)
(2.01752e-09 -1.00453e-08 -1.40731e-09)
(4.51585e-09 -1.7598e-08 -2.48582e-09)
(4.77482e-10 -6.47626e-09 -8.87747e-10)
(1.68899e-09 -1.04484e-08 -1.43755e-09)
(3.87165e-09 -1.64068e-08 -2.28172e-09)
(7.1652e-09 -2.50062e-08 -3.51179e-09)
(1.15913e-08 -3.67398e-08 -5.1981e-09)
(1.70305e-08 -5.15134e-08 -7.3215e-09)
(2.29558e-08 -6.80061e-08 -9.70629e-09)
(2.82902e-08 -8.31581e-08 -1.19154e-08)
(3.17866e-08 -9.25299e-08 -1.33216e-08)
(9.8948e-10 -7.39752e-09 -1.02382e-09)
(2.53675e-09 -1.22327e-08 -1.69967e-09)
(5.21881e-09 -1.97974e-08 -2.77305e-09)
(9.42517e-09 -3.12464e-08 -4.41668e-09)
(1.54365e-08 -4.77263e-08 -6.78674e-09)
(2.33372e-08 -6.97586e-08 -9.96405e-09)
(3.26375e-08 -9.60437e-08 -1.37641e-08)
(4.17189e-08 -1.21936e-07 -1.75289e-08)
(4.76999e-08 -1.39045e-07 -2.00297e-08)
(1.89001e-09 -9.18511e-09 -1.28688e-09)
(4.07215e-09 -1.57707e-08 -2.22019e-09)
(7.87254e-09 -2.66527e-08 -3.77879e-09)
(1.41044e-08 -4.42356e-08 -6.30909e-09)
(2.37023e-08 -7.14867e-08 -1.02325e-08)
(3.75148e-08 -1.10993e-07 -1.59375e-08)
(5.54498e-08 -1.62492e-07 -2.33951e-08)
(7.48045e-08 -2.18312e-07 -3.15034e-08)
(8.8752e-08 -2.58763e-07 -3.73608e-08)
(3.03878e-09 -1.16494e-08 -1.65789e-09)
(6.11748e-09 -2.07872e-08 -2.96773e-09)
(1.16365e-08 -3.677e-08 -5.27215e-09)
(2.12135e-08 -6.4388e-08 -9.24828e-09)
(1.19834e-09 -6.84725e-09 -9.55988e-10)
(2.59003e-09 -1.11061e-08 -1.55306e-09)
(4.8228e-09 -1.75716e-08 -2.47269e-09)
(8.24684e-09 -2.70251e-08 -3.8243e-09)
(1.29521e-08 -4.00689e-08 -5.70022e-09)
(1.88399e-08 -5.66899e-08 -8.09661e-09)
(2.53648e-08 -7.54824e-08 -1.08378e-08)
(3.10913e-08 -9.29843e-08 -1.3423e-08)
(3.52381e-08 -1.03839e-07 -1.53317e-08)
(1.64724e-09 -7.86102e-09 -1.1046e-09)
(3.38464e-09 -1.30945e-08 -1.84229e-09)
(6.22991e-09 -2.13845e-08 -3.01886e-09)
(1.07238e-08 -3.41099e-08 -4.84892e-09)
(1.73243e-08 -5.26946e-08 -7.52795e-09)
(2.62119e-08 -7.79881e-08 -1.1184e-08)
(3.69376e-08 -1.08833e-07 -1.56551e-08)
(4.76601e-08 -1.39991e-07 -2.01868e-08)
(5.51112e-08 -1.61129e-07 -2.33353e-08)
(2.48248e-09 -9.84092e-09 -1.39471e-09)
(4.90152e-09 -1.70487e-08 -2.42182e-09)
(9.06491e-09 -2.91359e-08 -4.15463e-09)
(1.5979e-08 -4.89693e-08 -7.01367e-09)
(2.68962e-08 -8.03396e-08 -1.15386e-08)
(4.3093e-08 -1.27066e-07 -1.82943e-08)
(6.48744e-08 -1.90155e-07 -2.74237e-08)
(8.93718e-08 -2.61323e-07 -3.77461e-08)
(1.08e-07 -3.15357e-07 -4.56104e-08)
(3.59311e-09 -1.25908e-08 -1.7993e-09)
(7.02307e-09 -2.27114e-08 -3.25397e-09)
(1.31981e-08 -4.07008e-08 -5.84942e-09)
(2.41356e-08 -7.23887e-08 -1.04212e-08)
(4.2892e-08 -1.26867e-07 -1.82781e-08)
(7.37215e-08 -2.16533e-07 -3.12253e-08)
)
;

boundaryField
{
    inlet
    {
        type            calculated;
        value           nonuniform 0();
    }
    outlet
    {
        type            calculated;
        value           nonuniform List<vector> 
12
(
(1.39265e-09 -8.99234e-11 1.41344e-10)
(8.03781e-11 -5.47674e-11 4.81658e-10)
(-7.12693e-11 1.4767e-10 3.05396e-10)
(1.09752e-10 1.62995e-11 1.77911e-10)
(9.22191e-11 -1.46712e-10 5.38076e-10)
(1.13411e-10 -1.18221e-10 3.44857e-10)
(4.43418e-10 -5.80572e-11 6.31597e-10)
(-9.48809e-11 2.48386e-10 -2.15211e-11)
(3.77237e-11 -5.92109e-11 2.5791e-10)
(-2.7847e-09 1.61784e-09 -2.78526e-09)
(8.12782e-11 -3.3932e-10 2.05242e-10)
(-2.41759e-10 1.14186e-10 -1.80161e-10)
)
;
    }
    wall
    {
        type            calculated;
        value           nonuniform List<vector> 
66
(
(-6.62394e-11 -8.53181e-12 1.07182e-11)
(-7.89441e-11 -6.49459e-12 1.62759e-11)
(-9.8898e-11 -6.11176e-12 2.50832e-11)
(-1.51292e-10 -5.47256e-12 1.69823e-11)
(5.45217e-10 -7.41802e-12 2.80263e-11)
(6.15904e-10 -2.59396e-11 2.89808e-11)
(1.1939e-10 -1.74096e-11 2.04264e-11)
(8.06399e-11 9.80802e-13 1.47335e-11)
(-4.22657e-10 3.7872e-11 4.12908e-12)
(-1.26281e-10 -3.19319e-11 1.41655e-10)
(-4.0567e-11 -4.21153e-11 5.06495e-11)
(-2.8027e-10 6.37742e-11 3.07132e-11)
(-1.98576e-10 -3.76441e-11 4.22799e-11)
(-5.92215e-10 -1.89298e-10 5.18514e-11)
(-9.98435e-12 -3.63683e-11 2.76971e-11)
(-1.23517e-10 -3.13041e-11 3.47342e-11)
(-6.02168e-11 -7.9897e-12 3.2029e-11)
(-2.8803e-10 -1.17138e-10 3.96133e-11)
(-1.70001e-10 -7.63472e-11 4.96714e-11)
(-2.14404e-10 -4.51523e-11 4.69799e-11)
(-5.89271e-10 -3.35716e-11 9.75885e-11)
(-3.31739e-10 -3.82165e-11 6.15618e-11)
(-1.58693e-10 -2.96084e-11 3.93522e-11)
(-1.49747e-10 1.99622e-11 2.62359e-11)
(-3.72103e-10 4.06777e-11 -1.05785e-10)
(-5.43561e-10 7.40095e-11 1.22317e-12)
(-2.13862e-10 7.16429e-12 3.20795e-12)
(-1.04356e-08 -3.98287e-10 6.62944e-10)
(-2.29363e-09 -3.05191e-10 3.9239e-10)
(-1.54707e-09 -5.57849e-11 2.67427e-10)
(-4.21785e-09 3.79565e-09 -6.1918e-09)
(5.07689e-10 2.02424e-10 -1.4001e-10)
(-4.94367e-10 1.65968e-10 -4.56577e-10)
(-4.3737e-10 -1.82453e-12 3.43253e-12)
(-1.37159e-10 3.42538e-12 2.10053e-11)
(-1.07901e-10 -8.62236e-12 9.00021e-12)
(-1.03731e-09 -1.12318e-12 8.93596e-12)
(-2.85886e-10 -2.6921e-11 2.42294e-11)
(2.17099e-10 -5.13201e-12 1.71555e-11)
(-3.22167e-10 -4.66238e-11 8.38476e-12)
(-1.08343e-10 -4.40045e-11 4.48466e-11)
(-7.56451e-10 3.19048e-11 -1.37187e-11)
(4.47489e-10 6.65422e-11 -5.54343e-12)
(2.07445e-10 3.86138e-12 2.47736e-11)
(-1.96116e-10 -7.88366e-11 7.9168e-11)
(-1.17087e-10 -3.79735e-11 4.41175e-11)
(-8.01509e-11 4.56311e-11 4.53296e-11)
(-1.66843e-10 -2.00404e-11 3.41359e-11)
(-9.08961e-11 -1.9561e-11 5.8527e-11)
(-3.51114e-11 -7.81479e-12 3.47732e-11)
(2.16591e-11 -7.27236e-12 1.44379e-10)
(1.16841e-10 3.01388e-11 4.23567e-11)
(1.77556e-10 2.1406e-11 1.0627e-10)
(-2.68615e-10 -3.35106e-11 9.81935e-11)
(4.42103e-11 -2.90876e-11 1.93243e-10)
(6.8007e-11 -5.52909e-12 9.03117e-11)
(1.36665e-10 -1.02279e-11 6.00627e-11)
(-3.76367e-10 2.95312e-11 -1.09013e-10)
(1.43726e-10 -3.29798e-11 6.87409e-11)
(2.2869e-10 1.52372e-11 -5.15795e-11)
(-9.55601e-10 -9.51007e-11 1.47169e-10)
(-9.77042e-09 -3.19965e-10 6.12085e-10)
(8.439e-10 -5.29184e-11 7.94986e-11)
(2.78971e-11 3.31009e-11 1.40707e-10)
(1.48507e-09 -4.0861e-11 3.92301e-10)
(-3.74509e-09 3.06426e-09 -5.82313e-09)
)
;
    }
    procBoundary5to1
    {
        type            processor;
        value           nonuniform List<vector> 
32
(
(-3.64218e-09 -1.42881e-08 -1.7155e-09)
(2.23378e-09 -1.96712e-08 -2.51234e-09)
(7.07101e-09 -2.58956e-08 -3.32905e-09)
(1.11943e-08 -3.22856e-08 -4.09021e-09)
(1.46575e-08 -3.77027e-08 -4.63432e-09)
(1.67739e-08 -4.09192e-08 -4.96083e-09)
(-6.22873e-09 -1.14319e-08 -1.31327e-09)
(-8.79328e-10 -1.67255e-08 -2.11877e-09)
(4.36773e-09 -2.35932e-08 -3.12353e-09)
(9.31173e-09 -3.18488e-08 -4.25077e-09)
(1.38924e-08 -4.06864e-08 -5.4094e-09)
(1.77563e-08 -4.84739e-08 -6.38061e-09)
(2.01645e-08 -5.31914e-08 -6.97882e-09)
(-4.2237e-09 -9.15157e-09 -1.06787e-09)
(-1.39084e-09 -1.42881e-08 -1.80469e-09)
(2.98054e-09 -2.16054e-08 -2.88691e-09)
(8.15709e-09 -3.15596e-08 -4.34645e-09)
(1.39019e-08 -4.41493e-08 -6.13483e-09)
(1.98908e-08 -5.83638e-08 -8.12897e-09)
(2.52437e-08 -7.15282e-08 -9.9524e-09)
(2.86333e-08 -7.9796e-08 -1.11038e-08)
(-4.9571e-09 -5.06969e-09 -5.77573e-10)
(-5.26936e-09 -7.99015e-09 -9.29089e-10)
(-2.44385e-09 -1.21936e-08 -1.5333e-09)
(-2.44385e-09 -1.21936e-08 -1.5333e-09)
(-2.44385e-09 -1.21936e-08 -1.5333e-09)
(-3.2831e-09 -5.68952e-09 -6.8617e-10)
(-2.8821e-09 -9.17593e-09 -1.1281e-09)
(-2.8821e-09 -9.17593e-09 -1.1281e-09)
(-2.8821e-09 -9.17593e-09 -1.1281e-09)
(-1.26029e-09 -6.85486e-09 -8.78281e-10)
(-1.26029e-09 -6.85486e-09 -8.78281e-10)
)
;
    }
    procBoundary5to4
    {
        type            processor;
        value           nonuniform List<vector> 
12
(
(-1.25578e-09 -3.57093e-09 -4.8111e-10)
(-7.81853e-10 -3.97395e-09 -5.40841e-10)
(-4.97218e-11 -4.74201e-09 -6.52652e-10)
(7.45782e-10 -5.76921e-09 -8.06122e-10)
(-5.82628e-11 -3.92572e-09 -5.50855e-10)
(2.40237e-10 -4.39469e-09 -6.19741e-10)
(7.64666e-10 -5.29701e-09 -7.51949e-10)
(1.40896e-09 -6.52757e-09 -9.32276e-10)
(4.6672e-10 -4.13251e-09 -5.85914e-10)
(7.2138e-10 -4.64345e-09 -6.61154e-10)
(1.17945e-09 -5.62721e-09 -8.05708e-10)
(1.76309e-09 -6.97089e-09 -1.00344e-09)
)
;
    }
    procBoundary5to7
    {
        type            processor;
        value           nonuniform List<vector> 
44
(
(2.36586e-09 -1.43871e-08 -1.94936e-09)
(5.87676e-09 -2.39762e-08 -3.33254e-09)
(1.15753e-08 -3.91128e-08 -5.53885e-09)
(2.00648e-08 -6.20559e-08 -8.88304e-09)
(3.17989e-08 -9.45355e-08 -1.35954e-08)
(4.64056e-08 -1.35676e-07 -1.95497e-08)
(6.14872e-08 -1.78575e-07 -2.57634e-08)
(7.19565e-08 -2.08313e-07 -3.00685e-08)
(5.40416e-10 -8.41993e-09 -1.1319e-09)
(2.36586e-09 -1.43871e-08 -1.94936e-09)
(9.01443e-09 -3.05938e-08 -4.34298e-09)
(1.65845e-08 -5.18528e-08 -7.43013e-09)
(2.86117e-08 -8.58766e-08 -1.23653e-08)
(4.65101e-08 -1.37041e-07 -1.97695e-08)
(7.05886e-08 -2.06428e-07 -2.97945e-08)
(9.75222e-08 -2.84367e-07 -4.10867e-08)
(1.17619e-07 -3.42581e-07 -4.95024e-08)
(3.24559e-09 -1.24605e-08 -1.76498e-09)
(9.01443e-09 -3.05938e-08 -4.34298e-09)
(6.60634e-09 -2.2434e-08 -3.19426e-09)
(9.01443e-09 -3.05938e-08 -4.34298e-09)
(1.65845e-08 -5.18528e-08 -7.43013e-09)
(3.71747e-08 -1.10119e-07 -1.59136e-08)
(6.24117e-08 -1.82998e-07 -2.6474e-08)
(9.88233e-08 -2.88831e-07 -4.17448e-08)
(1.43019e-07 -4.17566e-07 -6.03591e-08)
(1.79046e-07 -5.22598e-07 -7.55395e-08)
(4.23873e-09 -1.45162e-08 -2.08089e-09)
(8.39371e-09 -2.67511e-08 -3.84448e-09)
(1.61303e-08 -4.92485e-08 -7.10534e-09)
(3.71747e-08 -1.10119e-07 -1.59136e-08)
(3.0345e-08 -9.04182e-08 -1.30776e-08)
(3.71747e-08 -1.10119e-07 -1.59136e-08)
(6.24117e-08 -1.82998e-07 -2.6474e-08)
(1.20514e-07 -3.52048e-07 -5.094e-08)
(1.81234e-07 -5.29331e-07 -7.65383e-08)
(2.35219e-07 -6.8699e-07 -9.93066e-08)
(4.81448e-09 -1.57518e-08 -2.26659e-09)
(9.46339e-09 -2.94073e-08 -4.2402e-09)
(1.82632e-08 -5.50478e-08 -7.95374e-09)
(3.48695e-08 -1.03261e-07 -1.49466e-08)
(6.59191e-08 -1.9351e-07 -2.80222e-08)
(1.20514e-07 -3.52048e-07 -5.094e-08)
(1.22861e-07 -3.59292e-07 -5.20255e-08)
)
;
    }
}


// ************************************************************************* //
