/*--------------------------------*- C++ -*----------------------------------*\
| =========                 |                                                 |
| \\      /  F ield         | OpenFOAM: The Open Source CFD Toolbox           |
|  \\    /   O peration     | Version:  4.x                                   |
|   \\  /    A nd           | Web:      www.OpenFOAM.org                      |
|    \\/     M anipulation  |                                                 |
\*---------------------------------------------------------------------------*/
FoamFile
{
    version     2.0;
    format      ascii;
    class       volScalarField;
    location    "48";
    object      Ksl;
}
// * * * * * * * * * * * * * * * * * * * * * * * * * * * * * * * * * * * * * //

dimensions      [1 -3 -1 0 0 0 0];

internalField   nonuniform List<scalar> 
114
(
3614.04
36197.1
4121.44
1e+10
5642.77
63022.5
469149
3717.64
233018
3783.78
56095.6
4134.1
11770.5
4165.42
1e+10
4208.92
1e+10
4298.74
1e+10
4831.82
15185.2
7167.5
3071.73
7365.86
2936.44
7955.66
2767.46
9225.3
2440.62
8003.49
32198
3551.45
76107.1
3493.72
121774
3447.49
29239.2
3487.37
6752.77
1e+10
3733.22
1e+10
3681.38
133319
3549.86
31141.2
3596.8
12460
1e+10
3842.08
7718.66
3209.94
8163.54
3119.68
8843.6
3031.75
11115.4
2949.13
14753.5
15158.7
3475.33
18185.2
3350.51
22488.6
3240.36
23287.5
3061.98
11113.8
82031.2
3666.44
1e+10
3704.95
1e+10
3859.24
40590.5
4112.54
7392.13
54049.8
3612.1
91738.1
3510.54
4841.46
2734.03
4605.35
2540.63
4541.78
2265.51
4789.57
1798.62
5278.76
6127.71
2983.16
6004.29
2801.7
6137.06
2590.37
7070.35
2321.39
9791.12
7180.54
3119.59
7271.36
2971.38
7310.18
2749.65
7563.6
2309.19
7616.71
7405.26
3117.34
7663.01
3005.98
8233.03
2805.96
)
;

boundaryField
{
    inlet
    {
        type            zeroGradient;
    }
    outlet
    {
        type            zeroGradient;
    }
    wall
    {
        type            zeroGradient;
    }
    procBoundary5to1
    {
        type            processor;
        value           nonuniform List<scalar> 
32
(
2923.8
7289.29
2727.82
8508.76
2544.1
8887.22
12114
3194.38
12061.6
2981.47
10995.3
2700.36
7626.36
3744.33
60544.1
3705.41
47431.6
3647.63
21384.9
3705.62
8032.57
8816.22
3358.77
12785.3
12785.3
12785.3
59492.8
3728.71
3728.71
3728.71
1e+10
1e+10
)
;
    }
    procBoundary5to4
    {
        type            processor;
        value           nonuniform List<scalar> 
12
(
3186.95
3611.65
3742.74
3858.82
3262.9
3542.49
3693.09
3667.62
2903.93
3083.98
3209.36
3206.6
)
;
    }
    procBoundary5to7
    {
        type            processor;
        value           nonuniform List<scalar> 
44
(
3726.1
95512.1
3707.91
375740
3746.5
1.42904e+06
4138.02
24687.5
80305.5
3726.1
1e+10
3822.57
1e+10
3833.59
1e+10
4128.82
15939.6
1e+10
1e+10
3960.68
1e+10
3822.57
49642.9
3421.15
22460.4
3507.42
6886.67
245065
3732.81
1e+10
49642.9
3723.31
49642.9
3421.15
8526.86
2450.92
8308.6
8692.25
3283.48
9462.25
3261.38
10597
8526.86
3227.7
)
;
    }
}


// ************************************************************************* //
