/*--------------------------------*- C++ -*----------------------------------*\
| =========                 |                                                 |
| \\      /  F ield         | OpenFOAM: The Open Source CFD Toolbox           |
|  \\    /   O peration     | Version:  4.x                                   |
|   \\  /    A nd           | Web:      www.OpenFOAM.org                      |
|    \\/     M anipulation  |                                                 |
\*---------------------------------------------------------------------------*/
FoamFile
{
    version     2.0;
    format      ascii;
    class       volVectorField;
    location    "48";
    object      Urel;
}
// * * * * * * * * * * * * * * * * * * * * * * * * * * * * * * * * * * * * * //

dimensions      [0 1 -1 0 0 0 0];

internalField   nonuniform List<vector> 
114
(
(-0.0216301 -0.000125457 9.3819e-05)
(-0.0194775 -3.93242e-05 7.6184e-05)
(-0.0208011 -9.60203e-06 -6.43809e-05)
(-0.0183535 0.000188263 -1.92775e-05)
(-0.0191144 0.000332964 -0.000172123)
(-0.01653 0.000664476 0.00013397)
(-0.018848 -3.09427e-06 0.000144488)
(-0.0206921 -8.29746e-05 6.3548e-05)
(-0.0185359 1.31711e-05 4.55986e-05)
(-0.020224 -1.59251e-05 -0.000106288)
(-0.0178875 0.000206472 1.83923e-06)
(-0.0189917 0.000179225 -0.000212477)
(-0.0166381 0.000788238 0.00043262)
(-0.0198169 -7.23784e-06 0.000154986)
(-0.017861 1.26909e-05 0.000118013)
(-0.019694 -9.68728e-06 4.41193e-05)
(-0.0176616 4.43422e-05 2.3033e-05)
(-0.0193229 7.99352e-05 -8.46861e-05)
(-0.0171162 0.00018479 -2.36225e-05)
(-0.0182577 0.000299526 -0.00010366)
(-0.0162638 0.000519705 0.00024232)
(-0.0206448 0.000137804 6.50563e-05)
(-0.0220771 8.5865e-05 -2.52491e-05)
(-0.0204754 5.43422e-05 -8.64274e-05)
(-0.0219895 3.29618e-06 -0.000182632)
(-0.0201029 8.27633e-05 -0.000283948)
(-0.0216376 4.71529e-05 -0.000350718)
(-0.0192526 0.0003552 -0.000606304)
(-0.0206014 0.000365999 -0.000614894)
(-0.0171696 0.00127012 -0.00139698)
(-0.0190535 0.000138891 7.22699e-05)
(-0.0208283 7.34897e-05 1.51817e-05)
(-0.0188216 5.80036e-05 -2.32669e-05)
(-0.0207315 -8.53769e-06 -8.60252e-05)
(-0.0185854 5.88003e-05 -0.000156285)
(-0.0204403 -5.40588e-06 -0.00024321)
(-0.0181249 0.000295969 -0.000416999)
(-0.0194631 0.000235725 -0.000514743)
(-0.0169125 0.00137739 -0.00117485)
(-0.0178782 8.15886e-05 8.09693e-05)
(-0.0197931 4.12567e-05 4.40026e-05)
(-0.0177568 4.97968e-05 6.51831e-06)
(-0.0197321 3.06365e-05 -6.3208e-05)
(-0.0176483 8.54807e-05 -0.000122881)
(-0.0195197 9.76779e-05 -0.000237402)
(-0.0173035 0.000256027 -0.000366726)
(-0.0186418 0.000216132 -0.000450553)
(-0.0163383 0.000809232 -0.000943282)
(-0.0174816 5.77274e-05 9.99724e-05)
(-0.0193924 6.50004e-05 8.02589e-05)
(-0.0211106 0.000143177 -4.37627e-05)
(-0.0225504 0.000104175 -0.000109632)
(-0.0211005 6.75201e-05 -0.000145135)
(-0.0226335 4.29078e-05 -0.000228518)
(-0.0209602 7.55997e-05 -0.000339764)
(-0.022472 9.56991e-05 -0.000442809)
(-0.0202364 0.00030034 -0.000756833)
(-0.02143 0.000447211 -0.000860012)
(-0.0177698 0.0010295 -0.00193422)
(-0.0198573 0.000170805 -4.62098e-05)
(-0.0215214 0.000126585 -9.47346e-05)
(-0.0197712 0.000121856 -0.000118255)
(-0.0215648 6.25568e-05 -0.000164557)
(-0.0196344 0.000134621 -0.000264038)
(-0.0214236 5.2634e-05 -0.000317673)
(-0.0191323 0.000327239 -0.000619693)
(-0.020525 0.000262008 -0.000709675)
(-0.0173402 0.00117315 -0.00184205)
(-0.0186472 0.000125669 -3.18526e-05)
(-0.0204884 9.37839e-05 -4.62354e-05)
(-0.0185187 0.000108006 -7.50408e-05)
(-0.020451 7.24304e-05 -0.000114095)
(-0.0184336 0.000140081 -0.000198914)
(-0.0202579 0.000130097 -0.000275551)
(-0.0181444 0.000303046 -0.000557315)
(-0.0194134 0.000346322 -0.000710225)
(-0.0169979 0.00089546 -0.0019927)
(-0.0182418 9.73191e-05 -3.19406e-06)
(-0.0200982 8.85431e-05 -1.54027e-06)
(-0.0181209 0.000120763 -2.6859e-05)
(-0.0200755 0.000129077 -4.92651e-05)
(-0.0223095 0.000186882 -0.00021048)
(-0.0236861 0.000160331 -0.000261545)
(-0.0226029 0.000141108 -0.000309527)
(-0.0240953 0.000132308 -0.000365942)
(-0.0227763 0.000198532 -0.000552457)
(-0.024391 0.000225366 -0.000599844)
(-0.022336 0.000520039 -0.0011325)
(-0.0239963 0.000634184 -0.00114814)
(-0.0192267 0.00163687 -0.002803)
(-0.0213002 0.000238738 -0.000169274)
(-0.0227464 0.000210155 -0.000205646)
(-0.0214605 0.000225914 -0.000226945)
(-0.0230265 0.0001796 -0.000261442)
(-0.0215229 0.000283029 -0.000395051)
(-0.0231516 0.000214712 -0.000421627)
(-0.0209943 0.000532818 -0.000833885)
(-0.0224187 0.000435365 -0.000858709)
(-0.0182859 0.00143684 -0.00211329)
(-0.0202998 0.000204322 -0.0001342)
(-0.0217835 0.000192486 -0.000149752)
(-0.0203416 0.000227787 -0.000175399)
(-0.0219433 0.000203666 -0.00019257)
(-0.0203459 0.000294498 -0.00034027)
(-0.0220102 0.000258144 -0.000325111)
(-0.0199472 0.000484053 -0.000786503)
(-0.0214607 0.000424699 -0.000744978)
(-0.0177464 0.00103934 -0.00223812)
(-0.0198366 0.00017713 -7.20269e-05)
(-0.0213153 0.000186379 -6.13518e-05)
(-0.0197843 0.000241886 -6.685e-05)
(-0.0213614 0.000252793 -5.39922e-05)
(-0.0196539 0.000349266 -0.000163489)
(-0.0212879 0.000336356 -0.00017035)
)
;

boundaryField
{
    inlet
    {
        type            calculated;
        value           nonuniform 0();
    }
    outlet
    {
        type            calculated;
        value           nonuniform List<vector> 
12
(
(-0.00140617 -0.000472976 9.75124e-05)
(-0.00644247 0.000944867 0.00526929)
(-0.00650038 -0.000198562 0.000552117)
(-0.0069567 0.00646149 -0.0076542)
(-0.0091436 0.00957241 -0.00622163)
(-0.00654188 0.00330228 -0.00307477)
(-0.00460278 -0.000120447 -0.00468133)
(-0.00516028 0.00398342 -0.00597901)
(-0.00885646 0.00308695 -0.0097587)
(-0.0111123 0.00735773 -0.0129384)
(-0.00655371 0.00609443 -0.00451604)
(-0.00806011 0.00230479 -0.00996653)
)
;
    }
    wall
    {
        type            calculated;
        value           nonuniform List<vector> 
66
(
(2.46022e-10 3.49156e-11 1.49483e-11)
(5.36966e-10 -1.70836e-11 3.86178e-11)
(6.82094e-10 3.22721e-10 2.23e-11)
(1.53897e-09 2.86226e-10 4.77236e-11)
(2.64735e-10 -3.36739e-12 2.34778e-10)
(5.2917e-10 6.35784e-11 2.97945e-10)
(8.22094e-10 1.79544e-10 1.08361e-10)
(1.57252e-09 2.81414e-10 9.60933e-11)
(2.28545e-10 4.14003e-10 -2.80713e-11)
(2.14393e-09 -5.32684e-10 2.58307e-10)
(7.6478e-10 4.925e-10 1.10409e-10)
(1.60883e-09 -6.08991e-10 -8.52806e-12)
(7.68182e-10 -6.2858e-12 -4.62381e-11)
(7.50602e-10 -2.4901e-10 -5.93932e-12)
(1.12967e-09 -1.93751e-11 6.52781e-11)
(1.27032e-09 1.21207e-10 3.11937e-13)
(7.97644e-10 -3.12109e-11 2.84573e-12)
(9.5557e-10 -8.68281e-11 -9.3087e-11)
(8.98842e-10 2.46577e-10 -7.04536e-11)
(1.13182e-09 3.58982e-10 -7.21867e-11)
(1.43582e-10 6.15036e-12 -1.83043e-10)
(7.21146e-10 1.34779e-10 -1.49337e-10)
(6.44768e-10 3.09523e-10 -7.04672e-11)
(6.05097e-10 2.48522e-10 -5.95906e-11)
(-6.09771e-10 2.55717e-10 -2.26604e-10)
(2.00875e-10 5.81006e-10 -7.02691e-10)
(1.41885e-10 5.04449e-10 -3.18556e-10)
(-8.61122e-10 1.66737e-09 -1.8253e-09)
(-3.60886e-10 2.77777e-09 -9.66015e-10)
(-3.23335e-10 8.78949e-10 -5.34805e-10)
(1.34316e-09 4.44332e-09 -5.08155e-09)
(1.14974e-09 6.28203e-09 -1.3993e-09)
(-5.06636e-11 1.49762e-09 -8.19015e-10)
(2.19326e-10 3.04692e-10 4.89982e-10)
(5.55195e-10 4.29826e-12 2.42103e-10)
(2.46022e-10 3.49156e-11 1.49483e-11)
(9.81572e-10 3.74245e-10 6.74233e-10)
(6.74736e-10 7.43364e-11 4.06618e-10)
(2.64735e-10 -3.36739e-12 2.34778e-10)
(1.24711e-09 6.89913e-11 9.84792e-10)
(8.19433e-10 -8.34916e-11 5.68818e-10)
(2.28545e-10 4.14003e-10 -2.80713e-11)
(1.81045e-09 -2.35106e-10 1.19007e-09)
(1.19105e-09 -1.15721e-10 4.34753e-10)
(1.06925e-09 5.67742e-11 4.48142e-12)
(7.68182e-10 -6.2858e-12 -4.62381e-11)
(1.40806e-09 -1.95141e-10 1.05464e-10)
(1.14899e-09 4.17853e-13 2.92171e-10)
(1.15328e-09 -5.00842e-12 5.82034e-11)
(7.97644e-10 -3.12109e-11 2.84573e-12)
(1.3457e-09 -8.90452e-11 -5.3652e-10)
(7.82069e-10 -1.11399e-11 -3.26906e-10)
(5.71321e-10 -4.5909e-11 -2.76049e-10)
(1.43582e-10 6.15036e-12 -1.83043e-10)
(6.07305e-10 1.45146e-11 -6.79631e-10)
(5.35032e-10 9.90558e-11 -6.72171e-10)
(-2.82899e-11 1.16014e-10 -5.28923e-10)
(-6.09771e-10 2.55717e-10 -2.26604e-10)
(6.36821e-10 -1.2415e-10 -7.9893e-10)
(4.91837e-10 4.89526e-11 -9.15689e-10)
(-4.94881e-10 5.56343e-10 -1.19228e-09)
(-8.61122e-10 1.66737e-09 -1.8253e-09)
(-1.84115e-09 -1.127e-10 -6.2872e-10)
(-7.61771e-11 1.67694e-10 -2.24083e-09)
(1.94306e-09 4.93084e-11 -5.28133e-09)
(1.34316e-09 4.44332e-09 -5.08155e-09)
)
;
    }
    procBoundary5to1
    {
        type            processor;
        value           nonuniform List<vector> 
32
(
(-0.0233762 -0.000126602 0.000413114)
(-0.021519 -8.77788e-05 0.000525154)
(-0.0230162 -7.49159e-05 0.000352825)
(-0.0205194 0.000120118 0.000749347)
(-0.0217046 0.000202455 0.000444681)
(-0.0179859 0.000657565 0.00170213)
(-0.0204685 4.88005e-05 0.000358217)
(-0.022261 -2.586e-05 0.000259722)
(-0.020286 9.45569e-05 0.000366278)
(-0.0220402 -7.06483e-06 0.000196116)
(-0.0196353 0.000335699 0.000578663)
(-0.021018 0.000149516 0.000345751)
(-0.0176885 0.00118387 0.00163284)
(-0.0209825 3.62517e-05 0.000263456)
(-0.0190414 3.44039e-05 0.000257483)
(-0.0209722 -3.23873e-06 0.000173675)
(-0.0189064 7.23671e-05 0.000226349)
(-0.0206949 4.70816e-05 0.000119641)
(-0.0184469 0.000262826 0.000418589)
(-0.0196781 0.00019552 0.000330129)
(-0.0172615 0.000997266 0.00142527)
(-0.0206436 6.56671e-05 0.000294373)
(-0.0220297 -2.15558e-05 0.000221928)
(-0.0202339 -6.11594e-05 0.000185671)
(-0.0202339 -6.11594e-05 0.000185671)
(-0.0202339 -6.11594e-05 0.000185671)
(-0.0190985 9.49069e-05 0.000254279)
(-0.0208799 -1.01313e-06 0.000202527)
(-0.0208799 -1.01313e-06 0.000202527)
(-0.0208799 -1.01313e-06 0.000202527)
(-0.0179801 5.42623e-05 0.00020959)
(-0.0179801 5.42623e-05 0.00020959)
)
;
    }
    procBoundary5to4
    {
        type            processor;
        value           nonuniform List<vector> 
12
(
(-0.0221029 0.000200741 0.000123899)
(-0.0209413 0.000191778 0.000109007)
(-0.0199208 9.93942e-05 0.000118835)
(-0.019492 5.65234e-05 0.000122406)
(-0.0224757 0.000194965 -3.26257e-05)
(-0.0215117 0.000208031 -4.72187e-05)
(-0.0205482 0.000131986 -3.5319e-05)
(-0.0201486 8.70313e-05 -4.08298e-06)
(-0.0233565 0.000221563 -0.000201216)
(-0.0225335 0.000247092 -0.000179847)
(-0.0216704 0.000185482 -0.000158143)
(-0.0212666 0.000145058 -9.98392e-05)
)
;
    }
    procBoundary5to7
    {
        type            processor;
        value           nonuniform List<vector> 
44
(
(-0.019647 7.27955e-06 0.000168738)
(-0.0176305 1.88e-05 0.000140585)
(-0.0195534 1.15345e-05 7.11602e-05)
(-0.0174233 4.15582e-05 4.25811e-05)
(-0.0192136 2.50425e-05 -6.87478e-05)
(-0.0168805 6.31529e-05 -8.36043e-06)
(-0.0181073 0.000112729 -0.000165143)
(-0.0158899 -4.73798e-05 0.00031943)
(-0.0177183 2.71367e-05 0.000218122)
(-0.019647 7.27955e-06 0.000168738)
(-0.0173865 6.60362e-05 4.24246e-05)
(-0.0193272 8.75759e-05 -2.47065e-05)
(-0.0172457 8.98505e-05 -6.48385e-05)
(-0.0190524 9.82461e-05 -0.000181717)
(-0.0167861 0.000112335 -0.000242744)
(-0.0181187 4.17138e-05 -0.000414255)
(-0.0159401 0.000258448 -0.000672954)
(-0.0176492 3.65553e-05 0.000133442)
(-0.0173865 6.60362e-05 4.24246e-05)
(-0.0195331 6.64619e-05 0.000116167)
(-0.0173865 6.60362e-05 4.24246e-05)
(-0.0193272 8.75759e-05 -2.47065e-05)
(-0.0180577 0.000173289 -0.000141699)
(-0.0199097 0.000183143 -0.000208602)
(-0.0177489 0.000260223 -0.000473065)
(-0.0190838 0.000277676 -0.000555894)
(-0.0166652 0.000426252 -0.00176797)
(-0.0183225 5.61181e-05 4.44377e-05)
(-0.020165 7.89388e-05 5.01884e-05)
(-0.0181893 0.000117045 4.16923e-05)
(-0.0180577 0.000173289 -0.000141699)
(-0.0200639 0.000156015 1.79004e-05)
(-0.0180577 0.000173289 -0.000141699)
(-0.0199097 0.000183143 -0.000208602)
(-0.0191891 0.000551519 -0.000503201)
(-0.0206402 0.000418527 -0.000575984)
(-0.0171883 0.00102302 -0.00166464)
(-0.0198044 0.00011136 -7.63821e-06)
(-0.0212538 0.00014232 2.41254e-05)
(-0.0196544 0.000201072 3.33741e-05)
(-0.0211508 0.000236019 5.62763e-05)
(-0.0193781 0.000304752 1.36586e-06)
(-0.0191891 0.000551519 -0.000503201)
(-0.0208245 0.000319715 5.31781e-05)
)
;
    }
}


// ************************************************************************* //
