/*--------------------------------*- C++ -*----------------------------------*\
| =========                 |                                                 |
| \\      /  F ield         | OpenFOAM: The Open Source CFD Toolbox           |
|  \\    /   O peration     | Version:  4.x                                   |
|   \\  /    A nd           | Web:      www.OpenFOAM.org                      |
|    \\/     M anipulation  |                                                 |
\*---------------------------------------------------------------------------*/
FoamFile
{
    version     2.0;
    format      ascii;
    class       volVectorField;
    location    "48";
    object      Us;
}
// * * * * * * * * * * * * * * * * * * * * * * * * * * * * * * * * * * * * * //

dimensions      [0 1 -1 0 0 0 0];

internalField   nonuniform List<vector> 
114
(
(1.5634e-09 -2.05008e-10 1.23647e-09)
(1.18147e-09 -1.71364e-10 1.83116e-10)
(1.15263e-09 -1.03482e-10 -3.96485e-10)
(5.79033e-10 3.10093e-12 -5.78695e-10)
(6.36441e-10 -1.60381e-10 -6.87586e-10)
(-4.71005e-10 -1.35625e-10 -6.6417e-10)
(2.98494e-09 8.8864e-10 4.70388e-09)
(2.66329e-09 -5.63446e-11 1.9233e-09)
(2.18526e-09 -3.03138e-10 2.48942e-10)
(1.63661e-09 -1.8477e-13 -5.50053e-10)
(1.2454e-09 2.15553e-10 -1.23624e-09)
(7.89693e-10 3.91533e-11 -1.37212e-09)
(3.31183e-10 -7.54717e-12 -1.06076e-09)
(2.22206e-09 4.69156e-10 2.95065e-09)
(2.93391e-09 9.28292e-10 2.64031e-09)
(3.1391e-09 4.10235e-10 1.24139e-09)
(2.54547e-09 1.04007e-10 2.3035e-10)
(2.02335e-09 7.34575e-11 -4.79969e-10)
(1.47341e-09 2.3833e-10 -1.02285e-09)
(1.16005e-09 8.84345e-11 -1.51225e-09)
(4.92859e-10 -3.54474e-12 -7.07278e-10)
(1.128e-10 2.97039e-10 5.01424e-10)
(8.54889e-10 3.571e-10 7.15792e-10)
(1.10716e-09 2.87871e-11 1.00983e-09)
(1.11147e-09 -1.29477e-10 4.68222e-10)
(1.06976e-09 -2.55334e-12 3.18053e-10)
(7.80828e-10 4.35237e-14 -2.56828e-10)
(6.0231e-10 8.67622e-11 -5.88359e-10)
(5.64457e-10 1.46321e-11 -8.67882e-10)
(-4.44909e-11 1.50764e-10 -2.20956e-09)
(1.20605e-09 5.09187e-10 9.74745e-10)
(2.54122e-09 7.49803e-10 9.63197e-10)
(2.41509e-09 3.05976e-10 2.11796e-09)
(2.08185e-09 9.2145e-12 8.91574e-10)
(1.88428e-09 4.23643e-11 2.39696e-10)
(1.52347e-09 2.59422e-10 -3.47633e-10)
(1.36295e-09 2.36217e-10 -9.2094e-10)
(8.34586e-10 2.37461e-10 -1.27496e-09)
(8.17413e-10 1.94579e-10 -1.67996e-09)
(1.38802e-09 5.08325e-10 1.49029e-09)
(2.41689e-09 2.55678e-10 1.65518e-09)
(2.59908e-09 5.01563e-10 1.84262e-09)
(2.66528e-09 4.83877e-10 8.4803e-10)
(2.22377e-09 2.20271e-10 -4.06235e-11)
(1.58885e-09 3.16215e-10 -4.0103e-10)
(1.19179e-09 4.51552e-10 -9.25155e-10)
(5.42165e-10 5.63415e-10 -1.1946e-09)
(-2.43102e-11 3.31146e-10 -7.73968e-10)
(2.06805e-09 4.51987e-10 9.2539e-10)
(2.37629e-09 2.40597e-10 1.04833e-09)
(4.53299e-10 1.07021e-11 2.64054e-10)
(5.76879e-10 5.18223e-11 4.33081e-10)
(7.27888e-10 -1.21977e-10 6.17378e-10)
(9.87598e-10 -1.79627e-11 9.09231e-11)
(1.08291e-09 -1.87661e-11 1.14812e-10)
(5.72128e-10 -2.35316e-11 -1.55857e-10)
(8.5201e-11 1.05221e-10 -4.72785e-10)
(-3.95926e-10 5.17355e-10 -1.12301e-09)
(2.01084e-09 7.07827e-11 -5.12896e-09)
(8.50414e-10 -6.96857e-11 5.54126e-10)
(1.07017e-09 -1.18543e-10 7.57497e-10)
(1.2935e-09 4.11847e-11 1.45204e-09)
(1.45152e-09 -3.58165e-10 6.94683e-10)
(1.7101e-09 7.168e-11 1.52797e-10)
(1.23215e-09 2.09019e-10 -3.32455e-10)
(3.92354e-10 5.03595e-10 -8.66804e-10)
(2.66313e-10 1.25315e-09 -1.23809e-09)
(6.66365e-11 1.66202e-09 -2.35562e-09)
(1.27211e-09 7.19985e-10 9.63943e-10)
(1.44274e-09 2.04435e-10 7.53113e-10)
(1.80097e-09 6.5527e-10 1.12732e-09)
(2.14431e-09 1.3032e-10 5.34709e-10)
(1.61656e-09 1.45822e-10 -3.07209e-11)
(1.00299e-09 3.6484e-10 -2.02461e-10)
(3.14537e-10 5.9362e-10 -6.70013e-10)
(-9.69392e-11 9.18685e-10 -9.7145e-10)
(-2.08359e-10 1.0897e-09 -1.21955e-09)
(2.01339e-09 4.74353e-10 3.30114e-10)
(2.12498e-09 4.39644e-10 4.9833e-10)
(2.20077e-09 3.08054e-10 3.58959e-10)
(1.77393e-09 4.27167e-10 1.50595e-10)
(1.89093e-10 2.66257e-11 2.52575e-11)
(1.86281e-10 -7.88121e-12 2.49354e-10)
(1.49511e-10 4.44506e-10 -1.22324e-11)
(6.97966e-10 -4.91127e-11 1.33703e-11)
(7.83003e-10 -3.47285e-11 2.37632e-11)
(1.47712e-10 -2.79543e-11 -7.77674e-11)
(-6.21499e-10 2.3955e-10 -1.97532e-10)
(-8.23407e-10 1.61588e-09 -1.75703e-09)
(1.32959e-09 4.37146e-09 -4.94275e-09)
(4.26018e-10 -2.01447e-11 5.20543e-11)
(4.04551e-10 4.64015e-11 3.14562e-10)
(1.85928e-09 -5.24587e-10 3.77654e-10)
(1.93244e-10 -4.44648e-10 5.34927e-11)
(8.40789e-10 -1.98643e-10 -6.26628e-11)
(7.58065e-10 8.88919e-11 -8.30986e-11)
(2.91083e-10 5.32883e-10 -6.2373e-10)
(-2.53681e-10 2.73156e-09 -8.82611e-10)
(1.18236e-09 6.25166e-09 -1.26367e-09)
(5.5624e-10 3.17481e-10 4.20893e-11)
(6.78576e-10 1.61354e-10 1.27653e-10)
(6.02886e-10 4.58881e-10 1.49828e-10)
(9.5506e-10 -6.09576e-11 1.123e-10)
(8.25203e-10 1.72384e-10 -3.18554e-11)
(6.41825e-10 2.69129e-10 -1.06025e-11)
(2.07184e-10 4.73727e-10 -2.40085e-10)
(-2.31354e-10 8.55236e-10 -4.30321e-10)
(-2.87597e-11 1.52052e-09 -6.79664e-10)
(1.35818e-09 2.82407e-10 5.41665e-11)
(1.40625e-09 2.77048e-10 1.06638e-10)
(1.40798e-09 -5.51036e-10 1.08442e-11)
(1.1159e-09 7.53872e-11 4.06759e-11)
(9.94705e-10 3.11198e-10 -3.81091e-11)
(5.69457e-10 2.45143e-10 -2.6598e-11)
)
;

boundaryField
{
    inlet
    {
        type            zeroGradient;
    }
    outlet
    {
        type            zeroGradient;
    }
    wall
    {
        type            zeroGradient;
    }
    procBoundary5to1
    {
        type            processor;
        value           nonuniform List<vector> 
32
(
(1.71392e-09 -3.22708e-10 1.23321e-09)
(1.15571e-09 -1.23551e-10 3.78344e-10)
(7.57895e-10 -1.78854e-10 -5.61626e-10)
(6.10345e-10 2.31554e-12 -7.69945e-10)
(-4.10169e-10 -2.09248e-10 -1.09456e-09)
(2.89085e-10 -3.4931e-10 -2.88506e-09)
(2.356e-09 4.68452e-10 7.76493e-09)
(1.35515e-09 -6.91784e-10 2.22402e-09)
(1.4996e-09 -4.13112e-10 2.15172e-10)
(1.22721e-09 1.21442e-10 -8.85432e-10)
(1.30133e-09 -7.98528e-11 -1.66603e-09)
(9.58275e-10 -6.8684e-10 -2.27764e-09)
(2.4869e-10 -7.56241e-10 -1.47748e-09)
(2.1467e-09 1.15314e-09 4.51209e-09)
(2.75572e-09 1.27048e-09 5.13909e-09)
(2.54301e-09 4.7016e-12 1.85292e-09)
(2.19428e-09 -4.06331e-10 5.64149e-11)
(2.17654e-09 -2.76258e-10 -8.8969e-10)
(2.12319e-09 -1.41017e-10 -1.76608e-09)
(1.72745e-09 -1.28332e-10 -1.79004e-09)
(1.16744e-09 -1.04765e-09 -1.1342e-09)
(-1.35037e-10 2.43423e-10 2.17963e-09)
(7.67978e-10 9.22912e-10 7.32791e-10)
(9.06271e-10 5.97184e-10 1.66993e-09)
(9.06271e-10 5.97184e-10 1.66993e-09)
(9.06271e-10 5.97184e-10 1.66993e-09)
(-1.24236e-10 6.34685e-10 2.41577e-09)
(1.43891e-09 1.02365e-09 3.85719e-09)
(1.43891e-09 1.02365e-09 3.85719e-09)
(1.43891e-09 1.02365e-09 3.85719e-09)
(1.04188e-09 5.2206e-10 2.06286e-09)
(1.04188e-09 5.2206e-10 2.06286e-09)
)
;
    }
    procBoundary5to4
    {
        type            processor;
        value           nonuniform List<vector> 
12
(
(-1.59625e-10 -7.86202e-12 9.11281e-10)
(2.29156e-10 1.9279e-10 1.27823e-09)
(1.55419e-09 4.58371e-11 9.32301e-10)
(2.09523e-09 2.99831e-10 7.16648e-10)
(3.0641e-10 -4.29055e-11 3.17708e-10)
(5.54221e-10 -1.28798e-10 6.07902e-10)
(7.0193e-10 2.24841e-10 6.40038e-10)
(1.75566e-09 -1.20276e-11 6.38606e-10)
(1.45381e-10 -2.07261e-11 8.23918e-11)
(2.09227e-10 -1.03974e-10 2.08736e-10)
(3.23173e-10 2.35317e-12 2.08112e-10)
(1.04684e-09 6.25709e-11 1.66911e-10)
)
;
    }
    procBoundary5to7
    {
        type            processor;
        value           nonuniform List<vector> 
44
(
(2.65506e-09 1.99572e-10 1.36775e-09)
(2.92938e-09 5.74905e-10 1.70663e-09)
(2.94383e-09 2.88871e-10 4.6053e-10)
(2.66334e-09 1.53232e-10 -7.68955e-11)
(2.18821e-09 1.20112e-10 -1.0286e-09)
(1.52099e-09 2.43149e-10 -1.28548e-09)
(1.21929e-09 3.31102e-10 -1.44258e-09)
(4.71827e-10 3.89304e-11 -4.62813e-10)
(2.34887e-09 1.97449e-10 1.45289e-09)
(2.65506e-09 1.99572e-10 1.36775e-09)
(2.64498e-09 1.64406e-10 8.74187e-10)
(2.5386e-09 3.9136e-10 4.60965e-10)
(2.01749e-09 2.40982e-10 -3.3846e-11)
(1.74326e-09 5.78891e-10 -4.97946e-10)
(1.07699e-09 6.20197e-10 -8.30096e-10)
(7.66877e-10 6.38648e-10 -1.00981e-09)
(1.86671e-10 3.99262e-10 -2.30588e-10)
(2.06529e-09 7.60727e-11 4.73286e-10)
(2.64498e-09 1.64406e-10 8.74187e-10)
(2.31656e-09 1.70327e-10 5.66149e-10)
(2.64498e-09 1.64406e-10 8.74187e-10)
(2.5386e-09 3.9136e-10 4.60965e-10)
(1.54876e-09 4.66879e-10 3.46036e-11)
(1.07782e-09 4.96207e-10 -2.62104e-10)
(4.02593e-10 5.28274e-10 -5.38224e-10)
(2.36898e-10 6.08338e-10 -2.98922e-10)
(1.31838e-10 5.14702e-10 -3.85069e-11)
(1.85092e-09 2.4897e-10 3.69502e-10)
(2.14589e-09 4.31704e-10 2.7205e-10)
(2.07414e-09 2.32094e-10 1.87014e-10)
(1.54876e-09 4.66879e-10 3.46036e-11)
(1.81419e-09 5.6428e-10 3.60273e-11)
(1.54876e-09 4.66879e-10 3.46036e-11)
(1.07782e-09 4.96207e-10 -2.62104e-10)
(2.79519e-10 3.28678e-10 -1.23418e-10)
(6.00034e-11 7.26414e-10 -9.86912e-11)
(4.97864e-12 1.59305e-09 2.86127e-10)
(8.77394e-10 1.86204e-10 1.37394e-10)
(1.04966e-09 3.65247e-10 3.02077e-11)
(1.05502e-09 1.84433e-10 -2.73876e-11)
(9.66188e-10 3.35566e-10 -1.60266e-11)
(8.4001e-10 4.42981e-10 2.70206e-11)
(2.79519e-10 3.28678e-10 -1.23418e-10)
(7.50655e-10 5.00968e-10 -1.86289e-10)
)
;
    }
}


// ************************************************************************* //
