/*--------------------------------*- C++ -*----------------------------------*\
| =========                 |                                                 |
| \\      /  F ield         | OpenFOAM: The Open Source CFD Toolbox           |
|  \\    /   O peration     | Version:  4.x                                   |
|   \\  /    A nd           | Web:      www.OpenFOAM.org                      |
|    \\/     M anipulation  |                                                 |
\*---------------------------------------------------------------------------*/
FoamFile
{
    version     2.0;
    format      ascii;
    class       volScalarField;
    location    "46.5";
    object      KslNext;
}
// * * * * * * * * * * * * * * * * * * * * * * * * * * * * * * * * * * * * * //

dimensions      [1 -3 -1 0 0 0 0];

internalField   nonuniform List<scalar> 
132
(
97346.2
3728.94
111106
3707.48
666638
3741.14
3.90134e+07
4173.61
25082.6
4.65393e+06
3797.23
1e+10
3838.13
136253
3955.48
21749.6
4232.52
7053.41
12152.8
3361.15
12178.4
3184.92
11768.6
3001.3
10966.6
2682.02
8437.83
6510.12
3020.55
6626.6
2899.03
7087.63
2791.91
8265.83
2565.22
9345.42
1e+10
3818.66
1e+10
3826.16
1e+10
4119.4
15623.5
1e+10
3951.31
1e+10
3858.7
1e+10
3762.55
1e+10
3705.87
28399.8
1e+10
3851.43
1e+10
3942.84
1e+10
4281.73
1e+10
5227.89
25017.1
11127.4
3484.52
18331.2
3624.46
68603.8
3951.25
1e+10
4858.67
29883.3
50084
3428.36
22484.5
3517.18
6929.36
255474
3729.89
1e+10
3720.56
579026
3761.03
35245.3
3942.73
7786.29
15485.8
3431.38
16139.5
3215.4
14479.4
2884.06
11538.2
2381.82
7255.19
6385.24
3053.58
6525
2970.49
6980.63
2784.9
8070.36
2352.54
9506.03
8611.32
2461.82
8495.33
8650.83
3274.55
9368.26
3243.6
10350.7
3191.21
12483.1
3108.4
18971.5
6666.89
3083.7
6943.67
3059.47
7712.09
2936.39
9170.77
2772.56
14744
5147.07
2891.47
5295.32
2919.06
5654.83
2909.42
5860.45
3089.78
5379.49
)
;

boundaryField
{
    inlet
    {
        type            zeroGradient;
    }
    outlet
    {
        type            zeroGradient;
    }
    wall
    {
        type            zeroGradient;
    }
    procBoundary7to0
    {
        type            processor;
        value           uniform 0;
    }
    procBoundary7to1
    {
        type            processor;
        value           uniform 0;
    }
    procBoundary7to3
    {
        type            processor;
        value           uniform 0;
    }
    procBoundary7to5
    {
        type            processor;
        value           uniform 0;
    }
    procBoundary7to6
    {
        type            processor;
        value           uniform 0;
    }
}


// ************************************************************************* //
