/*--------------------------------*- C++ -*----------------------------------*\
| =========                 |                                                 |
| \\      /  F ield         | OpenFOAM: The Open Source CFD Toolbox           |
|  \\    /   O peration     | Version:  4.x                                   |
|   \\  /    A nd           | Web:      www.OpenFOAM.org                      |
|    \\/     M anipulation  |                                                 |
\*---------------------------------------------------------------------------*/
FoamFile
{
    version     2.0;
    format      ascii;
    class       volScalarField;
    location    "46.5";
    object      magGField;
}
// * * * * * * * * * * * * * * * * * * * * * * * * * * * * * * * * * * * * * //

dimensions      [1 -2 -1 0 0 0 0];

internalField   nonuniform List<scalar> 
132
(
3.33923
88.181
2.9229
88.0891
0.481301
86.0001
0.00801492
74.2611
11.9034
0.0701394
86.9183
4.23403e-05
85.1634
2.3569
81.7185
14.4513
73.6128
42.5176
27.2229
99.0981
26.9435
103.598
27.6282
109.072
29.0163
117.503
35.6552
50.5068
108.943
49.0307
112.482
45.6955
116.065
38.1623
122.596
32.4122
3.93023e-05
83.9462
3.46169e-05
82.6026
3.13851e-05
74.1779
18.9246
3.76432e-05
81.999
3.84184e-05
83.0863
3.71268e-05
84.0077
3.45502e-05
82.4876
10.4155
3.86386e-05
84.6195
3.72239e-05
81.7127
3.7173e-05
74.1737
3.33922e-05
58.5225
11.7757
28.9337
92.2879
17.371
87.895
4.57636
79.4773
3.21628e-05
62.2714
9.86629
6.27194
92.0555
13.7313
87.387
42.685
1.25416
86.5659
3.92936e-05
85.9394
0.541734
83.9274
8.73775
77.5763
37.8495
20.8421
94.4517
19.7635
100.053
21.8336
110.007
26.762
129.083
40.5347
50.2284
104.782
48.4093
107.107
45.0122
113.317
37.9126
128.719
30.7911
35.7458
124.855
34.6487
36.7767
97.5765
33.4866
97.5692
30.1613
98.2066
24.4821
97.6785
15.4419
47.8054
103.272
45.4603
104.313
40.5612
105.977
33.2204
109.439
19.7826
61.5957
109.439
59.4476
109.022
55.3256
106.162
51.5523
97.161
53.875
)
;

boundaryField
{
    inlet
    {
        type            calculated;
        value           nonuniform 0();
    }
    outlet
    {
        type            calculated;
        value           nonuniform List<scalar> 
16
(
26.3922
94.2102
78.8551
70.551
42.0815
23.0954
26.1661
21.629
94.6339
84.2208
90.0917
67.7846
76.5986
34.0719
43.7498
117.262
)
;
    }
    wall
    {
        type            calculated;
        value           uniform 0;
    }
    procBoundary7to0
    {
        type            processor;
        value           uniform 88.4599;
    }
    procBoundary7to1
    {
        type            processor;
        value           uniform 3.52519e-05;
    }
    procBoundary7to3
    {
        type            processor;
        value           nonuniform List<scalar> 
36
(
11.6527
93.2961
9.40537
94.207
10.5283
93.216
14.8755
85.8779
37.6691
3.90954e-05
84.8965
4.13829e-05
84.3433
3.78136e-05
82.2701
3.57584e-05
70.8547
11.0559
4.46353
92.2643
0.704266
94.5384
4.97422
96.3108
19.1465
93.5202
52.3563
44.3115
105.543
40.9732
106.851
35.1893
110.609
29.6866
126.758
27.574
)
;
    }
    procBoundary7to5
    {
        type            processor;
        value           nonuniform List<scalar> 
44
(
79.4885
3.95287e-05
78.0261
3.75589e-05
75.1917
3.66806e-05
64.5257
19.812
3.86456e-05
84.2089
4.1032e-05
87.8611
2.59983
89.8257
10.2472
85.7963
24.1818
3.86456e-05
84.2089
84.2089
3.43313
90.9222
3.5772e-05
82.3954
7.96694
75.2719
40.8552
5.95912
89.3381
3.43313
90.9222
90.9222
37.5342
110.723
41.2296
134.301
39.5212
42.546
102.399
40.8082
105.266
37.5342
110.723
110.723
)
;
    }
    procBoundary7to6
    {
        type            processor;
        value           nonuniform List<scalar> 
12
(
87.5793
95.8548
105.868
81.2624
86.0792
94.8049
86.5003
91.9154
103.024
97.1226
101.411
108.955
)
;
    }
}


// ************************************************************************* //
