/*--------------------------------*- C++ -*----------------------------------*\
| =========                 |                                                 |
| \\      /  F ield         | OpenFOAM: The Open Source CFD Toolbox           |
|  \\    /   O peration     | Version:  4.x                                   |
|   \\  /    A nd           | Web:      www.OpenFOAM.org                      |
|    \\/     M anipulation  |                                                 |
\*---------------------------------------------------------------------------*/
FoamFile
{
    version     2.0;
    format      ascii;
    class       volVectorField;
    location    "41.5";
    object      U;
}
// * * * * * * * * * * * * * * * * * * * * * * * * * * * * * * * * * * * * * //

dimensions      [0 1 -1 0 0 0 0];

internalField   nonuniform List<vector> 
132
(
(0.0300636 -0.000404159 -0.00132993)
(0.0146001 -0.00025229 -0.000933729)
(0.0330796 -0.000472992 -0.00157751)
(0.0195068 -0.000155194 -0.000924126)
(0.036065 -0.000297086 -0.001394)
(0.0233386 -1.26371e-05 -0.000829602)
(0.0386101 -0.000148842 -0.00125696)
(0.026016 0.000104785 -0.000936306)
(0.0407166 4.61972e-05 -0.00119039)
(0.0301617 -0.000959466 -0.00151139)
(0.0138528 -0.00069453 -0.000904306)
(0.0325328 -0.00121629 -0.00167297)
(0.0176888 -0.000651412 -0.000963946)
(0.0348761 -0.00103256 -0.00157583)
(0.0207419 -0.0005226 -0.000858372)
(0.036974 -0.000956506 -0.00141683)
(0.0229334 -0.000792341 -0.000858941)
(0.0386727 -0.000960496 -0.00123485)
(0.0302355 -0.000596608 -0.00168179)
(0.0133498 -0.000356853 -0.000888228)
(0.032155 -0.00068733 -0.00179944)
(0.0164514 -0.000378018 -0.000946376)
(0.033823 -0.000456456 -0.00170296)
(0.0186962 -0.000132346 -0.000898188)
(0.0352325 -0.000318077 -0.00151514)
(0.0200331 -1.4421e-05 -0.000657292)
(0.0361932 -0.000197099 -0.00117139)
(0.0302339 -0.000467639 -0.00168376)
(0.0134818 -0.000158526 -0.000833158)
(0.0323103 -0.000346491 -0.00171447)
(0.0299744 -0.000575413 -0.00205189)
(0.0128076 -0.000235653 -0.00116651)
(0.0316583 -0.000580672 -0.00202649)
(0.0149096 -0.000222681 -0.000956989)
(0.0328856 -0.000500287 -0.00139102)
(0.0165031 -8.77443e-05 -0.000655251)
(0.033961 -0.000348102 -0.000964114)
(0.0174654 9.26094e-05 -0.000475665)
(0.0348539 -9.3918e-05 -0.00050963)
(0.0300484 -0.00126046 -0.00234279)
(0.0114027 -0.000593352 -0.00112503)
(0.0307386 -0.00139766 -0.00223922)
(0.0117205 -0.000554182 -0.000909109)
(0.0311049 -0.0012711 -0.00163646)
(0.0113723 -0.000419041 -0.000565528)
(0.031456 -0.00112429 -0.00116595)
(0.0105968 -0.000319607 -0.000330419)
(0.0317808 -0.000885271 -0.000555429)
(0.0299603 -0.000739487 -0.00251744)
(0.0103539 -0.000235553 -0.00105534)
(0.0301444 -0.000693303 -0.00242509)
(0.00940609 -0.000191275 -0.000818877)
(0.0299975 -0.000497444 -0.00167605)
(0.00771077 -2.71076e-05 -0.000436019)
(0.0297999 -0.000149354 -0.000903977)
(0.00530321 0.000119109 -0.000148902)
(0.0296764 5.29286e-05 -0.000320177)
(0.0298526 -0.000203534 -0.00273229)
(0.0106512 -9.32021e-05 -0.00125036)
(0.030103 -0.000209124 -0.00268829)
(0.00990654 -1.68719e-05 -0.000922812)
(0.0302529 -4.57617e-05 -0.00198227)
(0.0298875 -0.000709793 -0.00182142)
(0.0126263 -0.000313419 -0.00110999)
(0.0311745 -0.000745897 -0.00193874)
(0.0142095 -0.000292675 -0.00111028)
(0.0323087 -0.000660598 -0.00160848)
(0.0155432 -0.000161654 -0.00106854)
(0.0334818 -0.000490454 -0.00131665)
(0.0164647 2.34466e-07 -0.00121131)
(0.0345467 -0.000151268 -0.00127659)
(0.0298777 -0.00141875 -0.00206539)
(0.0109958 -0.000661305 -0.00110678)
(0.030181 -0.00162852 -0.00210361)
(0.0104989 -0.000617204 -0.000888678)
(0.030393 -0.00134785 -0.00157343)
(0.00969971 -0.000403938 -0.000794438)
(0.0307713 -0.000934013 -0.00131014)
(0.00880145 -0.000361485 -0.000764706)
(0.0314381 -0.000678165 -0.00106189)
(0.02974 -0.00100224 -0.00212519)
(0.0098343 -0.000448677 -0.00111584)
(0.0293658 -0.00110638 -0.00226481)
(0.00744 -0.000284686 -0.000797308)
(0.0290959 -0.000753706 -0.00155404)
(0.00537696 -0.000126013 -0.000595313)
(0.0290671 -0.00039337 -0.000650927)
(0.00419985 -9.21087e-05 -0.000614203)
(0.0291613 -0.000339606 -1.54941e-05)
(0.0297057 -0.000299683 -0.0021499)
(0.00942579 -0.000150932 -0.00114331)
(0.0292316 -0.000372896 -0.0022685)
(0.00674416 -0.000161146 -0.000663569)
(0.0291098 -0.000431983 -0.0014207)
(0.00482367 -0.000242793 -0.000498335)
(0.0293306 -0.000528789 -0.000923261)
(0.0299694 -0.000846109 -0.00132493)
(0.012485 -0.000386572 -0.000855199)
(0.0310569 -0.000841104 -0.00140327)
(0.013624 -0.000283541 -0.000839702)
(0.0317537 -0.000624197 -0.00111346)
(0.014099 -0.000224524 -0.000795171)
(0.0321084 -0.00056671 -0.000885763)
(0.0137737 -3.57727e-05 -0.000835112)
(0.0322268 -0.000199176 -0.000624194)
(0.029883 -0.00157879 -0.00152548)
(0.0102369 -0.000774591 -0.000803373)
(0.0297235 -0.00181193 -0.00155664)
(0.00842552 -0.000624181 -0.000610921)
(0.029374 -0.00142555 -0.00105131)
(0.00648719 -0.000491479 -0.000435905)
(0.0291954 -0.000735056 -0.00073729)
(0.00405038 -0.000378057 -0.000358238)
(0.0289986 2.31986e-05 -0.000686448)
(0.0296801 -0.000842786 -0.00153552)
(0.00901349 -0.000385826 -0.00075008)
(0.0287707 -0.000915191 -0.00136533)
(0.0050012 -0.000169233 -0.000372279)
(0.0278454 -0.000424165 -0.000819267)
(0.00147684 -3.45569e-05 -0.000118774)
(0.02709 0.000134897 -0.000591162)
(1.21282e-08 -1.88034e-11 -1.29502e-10)
(0.0262562 0.000348573 -0.000125581)
(0.0297879 -0.000174223 -0.00146168)
(0.00918349 1.89696e-05 -0.000826122)
(0.0290036 0.000122936 -0.00150185)
(0.00545307 0.000106751 -0.00052101)
(0.0284867 0.000242399 -0.00117113)
(0.00281245 8.99423e-05 -0.000331387)
(0.0284966 -7.77422e-05 -0.00079404)
(0.00124518 6.90569e-05 -0.00019229)
(0.0281343 -9.34129e-05 -0.000150497)
)
;

boundaryField
{
    inlet
    {
        type            fixedValue;
        value           uniform (0.01 0 0);
    }
    outlet
    {
        type            zeroGradient;
    }
    wall
    {
        type            fixedValue;
        value           uniform (0 0 0);
    }
    procBoundary0to1
    {
        type            processor;
        value           nonuniform List<vector> 
12
(
(0.0280667 0.000600069 -0.000905876)
(0.0242895 -0.000627821 -0.000916153)
(0.0202459 0.000184945 -0.00079911)
(0.0179129 0.000392541 -0.000143426)
(0.0096474 -0.000324617 -9.96815e-05)
(0.00264335 0.000127125 -0.000129311)
(0.0168623 0.000384146 -0.00143728)
(0.00850011 -0.000554002 -0.000952246)
(0.00308567 -0.000145296 -0.000653728)
(0.0121127 8.87249e-05 -0.000508185)
(0.00161792 -0.000242584 -0.000167296)
(1.27821e-08 -8.77175e-10 2.85672e-10)
)
;
    }
    procBoundary0to2
    {
        type            processor;
        value           nonuniform List<vector> 
44
(
(0.0168564 -0.000187196 -0.000874646)
(0.0342225 -0.000310923 -0.00165384)
(0.0194238 -0.000214316 -0.000791703)
(0.0359797 -0.000333037 -0.00124796)
(0.0212176 -9.04043e-05 -0.000486052)
(0.0377281 -0.000207357 -0.000825649)
(0.030034 8.06287e-05 -0.00137767)
(0.0126918 3.42331e-05 -0.000795229)
(0.0168564 -0.000187196 -0.000874646)
(0.0315689 0.0001925 -0.00163848)
(0.0168564 -0.000187196 -0.000874646)
(0.0342225 -0.000310923 -0.00165384)
(0.00843732 4.4144e-06 -0.000570232)
(0.0304381 -3.54663e-05 -0.00123265)
(0.00721976 7.46454e-05 -0.00038589)
(0.0310683 9.63964e-05 -0.000661209)
(0.0299543 0.000372107 -0.00236229)
(0.0104456 8.12664e-05 -0.0011123)
(0.030044 0.000405322 -0.00247238)
(0.00898297 0.000201635 -0.000889317)
(0.00843732 4.4144e-06 -0.000570232)
(0.0297885 0.000514003 -0.00184637)
(0.00843732 4.4144e-06 -0.000570232)
(0.0304381 -3.54663e-05 -0.00123265)
(0.00388945 -0.000259636 -0.000515292)
(0.0296412 -0.000279658 -0.00061841)
(0.0297852 0.000448014 -0.00210165)
(0.00985401 8.92212e-05 -0.00101455)
(0.0291581 0.000287728 -0.00194506)
(0.00707737 2.02906e-05 -0.000619497)
(0.0286609 7.53838e-05 -0.00126904)
(0.00423027 -0.000102556 -0.000346571)
(0.00388945 -0.000259636 -0.000515292)
(0.0284341 -0.000352293 -0.00063555)
(0.00388945 -0.000259636 -0.000515292)
(0.0296412 -0.000279658 -0.00061841)
(0.0297816 0.000619538 -0.00177935)
(0.00913083 0.000334468 -0.00072685)
(0.028976 0.000894518 -0.00147927)
(0.00593679 0.00023454 -0.000499095)
(0.028416 0.000717893 -0.000855004)
(0.00338624 0.000160261 -0.000252129)
(0.0282191 0.000484517 -0.00011714)
(0.00117239 7.68458e-05 -0.000120888)
)
;
    }
    procBoundary0to4
    {
        type            processor;
        value           nonuniform List<vector> 
36
(
(0.0299457 -0.000939723 -0.000564506)
(0.0128515 -0.000442299 -0.000366856)
(0.0310053 -0.00101337 -0.000548507)
(0.0138403 -0.000418072 -0.000419231)
(0.0317096 -0.00076913 -0.000275073)
(0.0145013 -0.000251559 -0.000309843)
(0.0324731 -0.000552934 -0.000231256)
(0.0147789 -0.000254514 -0.000314885)
(0.0334895 -0.00053795 0.000173574)
(0.0297381 -0.00163708 -0.000457764)
(0.0105272 -0.000764266 -0.000242778)
(0.0294771 -0.00169518 -0.000331936)
(0.00844478 -0.000576202 -0.000246816)
(0.0293498 -0.0012501 -0.000105594)
(0.00692598 -0.000411466 -0.000152786)
(0.0294408 -0.000930422 3.4464e-05)
(0.00546482 -0.000399954 -0.000140705)
(0.0299303 -0.000547647 0.000318295)
(0.0297259 -0.000949215 -0.000426499)
(0.00950238 -0.000530533 -0.000196479)
(0.0288123 -0.00108598 -0.000193541)
(0.00628298 -0.000381742 -5.5803e-05)
(0.0284597 -0.000948128 7.20927e-05)
(0.00392254 -0.00028976 5.86215e-05)
(0.0284272 -0.000543281 -0.000126602)
(0.00156653 -0.000132202 7.17206e-05)
(0.0285333 0.000127886 -0.000183792)
(0.0297471 -0.000562032 -0.000601313)
(0.00936158 -0.000132016 -0.000220293)
(0.0286071 -0.000503076 -0.000324865)
(0.00555862 -0.000195179 -0.000203238)
(0.0279781 -0.000440651 -0.000176519)
(0.00219284 -0.000103024 -5.11901e-05)
(0.0277312 3.39791e-05 -0.000138421)
(1.30463e-08 -6.43899e-10 -2.16391e-10)
(0.027305 9.08369e-06 7.31181e-05)
)
;
    }
    procBoundary0to6
    {
        type            processor;
        value           uniform (0.0281466 0.000492005 4.61689e-05);
    }
    procBoundary0to7
    {
        type            processor;
        value           uniform (3.33205e-06 3.69606e-07 -7.29195e-07);
    }
}


// ************************************************************************* //
