/*--------------------------------*- C++ -*----------------------------------*\
| =========                 |                                                 |
| \\      /  F ield         | OpenFOAM: The Open Source CFD Toolbox           |
|  \\    /   O peration     | Version:  4.x                                   |
|   \\  /    A nd           | Web:      www.OpenFOAM.org                      |
|    \\/     M anipulation  |                                                 |
\*---------------------------------------------------------------------------*/
FoamFile
{
    version     2.0;
    format      ascii;
    class       volScalarField;
    location    "27";
    object      SPartFluid;
}
// * * * * * * * * * * * * * * * * * * * * * * * * * * * * * * * * * * * * * //

dimensions      [1 -3 -1 0 0 0 0];

internalField   nonuniform List<scalar> 
132
(
9.91979e-65
7.82734e-65
6.43239e-65
6.74243e-65
1.03074e-64
1.0385e-64
7.98249e-65
5.6575e-65
8.36999e-65
7.67238e-65
9.45484e-65
7.28491e-65
6.89744e-65
8.29247e-65
5.65749e-65
7.5175e-65
6.35501e-65
8.06e-65
4.80496e-65
7.43993e-65
6.12246e-65
7.12997e-65
7.43999e-65
8.06001e-65
7.51752e-65
7.20752e-65
8.60252e-65
6.50997e-65
6.58748e-65
8.67997e-65
5.5025e-65
7.28501e-65
6.74253e-65
7.90504e-65
5.89003e-65
4.34002e-65
6.43244e-65
7.36245e-65
6.74248e-65
6.89749e-65
8.6025e-65
8.4475e-65
7.3625e-65
3.95246e-65
8.52492e-65
7.43994e-65
7.51747e-65
8.13749e-65
7.05251e-65
5.73501e-65
7.67251e-65
5.735e-65
5.50248e-65
8.21496e-65
6.97498e-65
6.045e-65
7.36251e-65
8.60253e-65
8.91253e-65
7.05252e-65
7.98252e-65
6.74249e-65
7.905e-65
5.9675e-65
7.20752e-65
7.36253e-65
6.20004e-65
6.58753e-65
7.98254e-65
5.34753e-65
5.0375e-65
5.81251e-65
7.36252e-65
6.04501e-65
5.8125e-65
8.05998e-65
7.36247e-65
6.81999e-65
5.19251e-65
8.52502e-65
7.05252e-65
7.13002e-65
8.75752e-65
7.51751e-65
7.0525e-65
7.36251e-65
7.51751e-65
6.97502e-65
7.98253e-65
7.59504e-65
7.67254e-65
7.05253e-65
7.75003e-65
5.58002e-65
6.35502e-65
7.05253e-65
6.89754e-65
6.12254e-65
5.27004e-65
7.59505e-65
7.05255e-65
5.81253e-65
5.50252e-65
6.43253e-65
6.12252e-65
6.8975e-65
5.81251e-65
7.67251e-65
7.44003e-65
5.19253e-65
3.87502e-65
6.89753e-65
6.66503e-65
5.42502e-65
5.96752e-65
6.04503e-65
6.04503e-65
6.20004e-65
6.89754e-65
6.35505e-65
7.20755e-65
6.43254e-65
7.28504e-65
6.04504e-65
7.44005e-65
5.65754e-65
5.81255e-65
6.58755e-65
6.51006e-65
6.51005e-65
6.35505e-65
4.10754e-65
)
;

boundaryField
{
    inlet
    {
        type            calculated;
        value           nonuniform 0();
    }
    outlet
    {
        type            calculated;
        value           uniform 0;
    }
    wall
    {
        type            calculated;
        value           uniform 0;
    }
    procBoundary7to0
    {
        type            processor;
        value           uniform 2.32494e-65;
    }
    procBoundary7to1
    {
        type            processor;
        value           uniform 5.73485e-65;
    }
    procBoundary7to3
    {
        type            processor;
        value           nonuniform List<scalar> 
36
(
7.6723e-65
9.06725e-65
8.7573e-65
8.52486e-65
6.12245e-65
6.27748e-65
8.52499e-65
7.13e-65
7.43999e-65
9.0673e-65
5.03739e-65
7.74987e-65
4.33995e-65
4.64998e-65
7.90499e-65
7.285e-65
8.83501e-65
6.1225e-65
5.11494e-65
8.1374e-65
8.21492e-65
5.81246e-65
6.81999e-65
7.98251e-65
6.66502e-65
7.20752e-65
5.42502e-65
8.52494e-65
4.02998e-65
5.42498e-65
6.1225e-65
5.58001e-65
7.13003e-65
6.20004e-65
7.90505e-65
8.52504e-65
)
;
    }
    procBoundary7to5
    {
        type            processor;
        value           nonuniform List<scalar> 
44
(
8.4473e-65
6.04489e-65
7.51741e-65
5.73495e-65
4.57249e-65
7.28499e-65
5.425e-65
8.67999e-65
9.99737e-65
4.33995e-65
7.28491e-65
7.59494e-65
6.19998e-65
7.05249e-65
7.13e-65
6.8975e-65
5.58e-65
9.99737e-65
4.33995e-65
4.33995e-65
8.98997e-65
7.98249e-65
1.0075e-64
7.36251e-65
8.21502e-65
8.91252e-65
8.68002e-65
4.80497e-65
9.37746e-65
8.98997e-65
7.98249e-65
7.98249e-65
9.68753e-65
7.75004e-65
6.51003e-65
6.74253e-65
6.82003e-65
7.36249e-65
5.6575e-65
7.13e-65
5.58002e-65
9.68753e-65
7.75004e-65
7.75004e-65
)
;
    }
    procBoundary7to6
    {
        type            processor;
        value           nonuniform List<scalar> 
12
(
6.7424e-65
7.12994e-65
4.95999e-65
8.52493e-65
7.59497e-65
7.5175e-65
7.90497e-65
7.75e-65
5.65752e-65
3.79751e-65
7.82753e-65
6.04504e-65
)
;
    }
}


// ************************************************************************* //
