/*--------------------------------*- C++ -*----------------------------------*\
| =========                 |                                                 |
| \\      /  F ield         | OpenFOAM: The Open Source CFD Toolbox           |
|  \\    /   O peration     | Version:  4.x                                   |
|   \\  /    A nd           | Web:      www.OpenFOAM.org                      |
|    \\/     M anipulation  |                                                 |
\*---------------------------------------------------------------------------*/
FoamFile
{
    version     2.0;
    format      ascii;
    class       volVectorField;
    location    "27";
    object      Us;
}
// * * * * * * * * * * * * * * * * * * * * * * * * * * * * * * * * * * * * * //

dimensions      [0 1 -1 0 0 0 0];

internalField   nonuniform List<vector> 
132
(
(3.44721e-08 -1.49482e-09 -4.30129e-08)
(4.39751e-08 -1.47113e-09 -2.90428e-08)
(3.87562e-08 -1.10839e-10 -1.16627e-08)
(4.25911e-08 -1.63645e-09 -3.74174e-09)
(3.82899e-08 -4.81648e-09 -3.53634e-09)
(3.33564e-08 -3.54167e-09 -8.0473e-09)
(2.63889e-08 -2.17349e-09 -8.53024e-09)
(2.11465e-08 9.22827e-10 -1.05062e-08)
(5.05961e-09 -4.28797e-09 -6.54752e-09)
(4.05196e-08 2.42813e-09 -2.84788e-08)
(4.72979e-08 -4.08706e-09 -2.56527e-08)
(4.27594e-08 1.20289e-08 -1.30342e-08)
(3.40673e-08 1.79538e-09 -8.30008e-09)
(3.81523e-08 -3.55166e-09 -5.06967e-09)
(3.58823e-08 -3.10445e-09 -4.35501e-09)
(3.43093e-08 -2.47529e-09 -5.76377e-09)
(2.31017e-08 -5.4632e-09 -8.11211e-09)
(9.40748e-09 -5.40153e-09 -9.95861e-09)
(4.34251e-08 7.51085e-09 -1.64807e-08)
(4.50278e-08 -2.61758e-09 -1.80694e-08)
(3.58597e-08 4.59498e-09 -7.80503e-09)
(3.00509e-08 2.27767e-09 -7.16436e-09)
(3.34041e-08 -2.85778e-09 -6.7491e-09)
(2.85169e-08 -2.39738e-09 -5.78146e-09)
(2.82183e-08 -1.74803e-09 -2.24254e-09)
(1.72269e-08 1.63658e-10 -7.70549e-09)
(9.22781e-09 4.61919e-10 -7.7466e-09)
(4.33879e-08 5.97759e-09 -6.30912e-09)
(3.67146e-08 -3.01915e-09 -5.38318e-09)
(2.30544e-08 4.41182e-09 -5.97339e-09)
(1.68883e-08 1.75304e-09 -5.13196e-09)
(1.92162e-08 -5.84093e-10 -3.24762e-09)
(1.32358e-08 -2.54445e-09 -5.20945e-09)
(1.07789e-08 -2.6844e-10 -3.75952e-09)
(3.64463e-09 2.57914e-09 -3.02508e-09)
(2.06274e-09 1.83565e-09 -3.3749e-09)
(2.89768e-08 -4.61472e-09 -2.48986e-09)
(3.18104e-08 -5.66522e-10 -2.32394e-09)
(3.2527e-08 8.40407e-10 -3.16249e-09)
(3.16247e-08 -7.25511e-10 -3.63927e-09)
(2.97096e-08 2.19479e-09 -5.33717e-09)
(2.25482e-08 5.39204e-09 -7.32393e-09)
(1.20517e-08 1.93139e-09 -5.02481e-11)
(3.73901e-08 -2.31353e-09 -1.89883e-08)
(3.76742e-08 -9.2705e-09 -1.847e-08)
(3.36235e-08 8.89334e-10 -9.8218e-09)
(2.98582e-08 -9.72258e-11 -6.25433e-09)
(3.09199e-08 -1.36372e-09 -3.65794e-09)
(2.73534e-08 -2.03099e-09 -4.10505e-09)
(2.54447e-08 -2.15713e-09 -3.65294e-09)
(2.124e-08 -2.88402e-09 -4.12041e-09)
(8.33626e-09 -1.35895e-10 -2.71375e-09)
(4.46498e-08 -7.55817e-11 -1.49882e-08)
(4.5001e-08 -8.99231e-09 -1.54241e-08)
(3.43746e-08 -3.26337e-09 -9.72903e-09)
(2.55964e-08 -7.38703e-10 -6.28426e-09)
(2.71411e-08 -1.17603e-09 -5.33304e-09)
(2.56652e-08 9.60626e-10 -4.80531e-09)
(1.97454e-08 -3.49308e-09 -5.1869e-09)
(1.255e-08 -3.27367e-09 -5.93816e-09)
(1.18422e-08 2.09632e-09 -3.44526e-09)
(4.30859e-08 -6.57117e-10 -8.09416e-09)
(4.88648e-08 -3.65129e-09 -4.60484e-09)
(3.58839e-08 1.63961e-09 -7.24917e-09)
(1.46236e-08 2.60576e-12 -5.37417e-09)
(1.55074e-08 -1.37439e-09 -3.68726e-09)
(7.68451e-09 2.85094e-10 -5.90371e-09)
(4.4402e-10 -4.23684e-09 -6.00949e-09)
(7.92126e-11 -1.44871e-09 -2.32671e-09)
(2.82161e-09 6.3264e-10 -2.24092e-09)
(2.71829e-08 8.6531e-11 -3.83946e-10)
(2.56533e-08 2.30693e-09 3.63259e-11)
(2.34614e-08 2.9875e-09 -1.41079e-09)
(1.98652e-08 4.81299e-09 3.9442e-10)
(9.24889e-09 2.66254e-09 2.73849e-09)
(3.44267e-08 2.19043e-09 -1.13136e-08)
(3.7141e-08 -6.26344e-09 -1.45943e-08)
(3.24963e-08 -3.05145e-09 -1.24215e-08)
(2.32554e-08 -7.75162e-10 -6.50396e-09)
(2.4488e-08 -3.37463e-10 -2.11169e-09)
(2.24429e-08 -4.50835e-10 -1.35083e-09)
(2.22154e-08 -1.89586e-09 -7.2996e-10)
(1.58753e-08 -9.41236e-10 5.80857e-10)
(6.97889e-09 2.48829e-10 -6.62144e-10)
(4.28895e-08 1.68273e-09 -1.27251e-08)
(4.36476e-08 -4.9097e-09 -6.78498e-09)
(3.24444e-08 -2.70115e-10 -1.08861e-08)
(2.06532e-08 -2.03568e-09 -3.94732e-09)
(2.05917e-08 -9.78391e-10 -3.11503e-09)
(1.93977e-08 -1.65291e-09 -4.18134e-09)
(1.35528e-08 -3.06322e-09 -4.05362e-09)
(5.7529e-09 -4.54364e-09 -2.26191e-09)
(3.69162e-09 -3.20092e-09 -2.74799e-09)
(3.19793e-08 -2.14502e-09 -9.35936e-09)
(3.68103e-08 6.37331e-10 -2.62446e-09)
(2.97486e-08 7.09979e-10 -3.75812e-09)
(1.40496e-08 -1.15903e-09 -4.34816e-09)
(1.19534e-08 -1.01938e-09 -2.26202e-09)
(-5.54879e-09 -5.43991e-09 -9.11313e-09)
(5.13815e-09 -2.44778e-09 -4.66524e-09)
(-6.09115e-09 -1.49227e-09 -6.05563e-10)
(-3.27367e-09 -3.07215e-09 -9.74454e-10)
(1.64947e-08 5.44044e-09 1.25208e-09)
(1.70857e-08 3.27268e-09 1.91074e-09)
(5.13636e-09 2.68337e-09 2.53252e-09)
(2.32551e-08 8.63701e-09 -4.70454e-09)
(2.66651e-08 5.76827e-09 -3.90748e-09)
(2.04937e-08 1.51121e-09 -1.77107e-09)
(1.29586e-08 -2.39987e-10 -1.69332e-09)
(1.30463e-08 8.6395e-10 -1.7048e-09)
(1.64772e-08 -1.54754e-09 -2.62984e-09)
(1.43354e-08 -1.32699e-09 4.30335e-09)
(1.11691e-08 -3.3559e-10 -1.44153e-09)
(2.3744e-09 -6.62811e-11 -1.14078e-10)
(2.27676e-08 6.29681e-09 -5.80897e-09)
(2.47471e-08 5.32988e-09 -8.20116e-10)
(2.24297e-08 2.49986e-09 -3.19391e-09)
(1.17448e-08 -1.62641e-09 -1.6632e-09)
(1.12271e-08 -8.06986e-10 -2.02577e-09)
(9.43998e-09 -2.2832e-09 -2.70258e-09)
(7.14903e-09 -2.83262e-09 -2.48266e-10)
(2.39396e-09 -2.72039e-09 -1.37058e-09)
(8.48662e-10 -9.83118e-10 -7.49938e-10)
(1.73834e-08 -1.51838e-09 -2.86667e-09)
(2.22818e-08 7.23902e-10 -6.16076e-10)
(1.98841e-08 -1.09684e-10 6.31448e-10)
(6.28272e-09 -2.44535e-09 -2.09976e-09)
(1.12683e-08 -1.36651e-07 -1.50419e-09)
(5.18895e-09 -1.65223e-09 -2.77833e-09)
(2.58712e-09 -2.20592e-09 -4.87326e-10)
(-2.59825e-09 -9.88033e-10 -1.01813e-09)
(-1.32214e-08 1.36696e-09 8.86634e-09)
)
;

boundaryField
{
    inlet
    {
        type            zeroGradient;
    }
    outlet
    {
        type            zeroGradient;
    }
    wall
    {
        type            zeroGradient;
    }
    procBoundary7to0
    {
        type            processor;
        value           uniform (4.98482e-08 -1.87794e-08 -4.17128e-08);
    }
    procBoundary7to1
    {
        type            processor;
        value           uniform (2.72646e-08 -1.039e-08 -3.21938e-08);
    }
    procBoundary7to3
    {
        type            processor;
        value           nonuniform List<vector> 
36
(
(6.30472e-08 -5.89942e-09 -4.97093e-08)
(6.08856e-08 6.95967e-11 -3.60535e-08)
(4.82565e-08 -4.93007e-09 -2.50348e-08)
(6.29463e-08 -1.32561e-08 -1.66217e-08)
(5.11007e-08 -9.22132e-09 -7.55019e-09)
(4.01602e-08 -5.93127e-09 -7.74518e-09)
(3.13726e-08 -7.69195e-09 -1.02259e-08)
(1.75158e-08 -6.84343e-09 -1.2626e-08)
(6.86804e-09 -4.23957e-09 -1.34838e-08)
(6.06449e-08 -1.79573e-08 -4.17311e-08)
(6.63543e-08 -2.48695e-09 -3.10783e-08)
(4.62312e-08 2.51251e-08 -2.16472e-08)
(4.62701e-08 5.79355e-10 -8.24768e-09)
(4.5468e-08 -4.83962e-09 -6.76071e-09)
(4.38885e-08 -1.95587e-09 -4.39222e-09)
(3.37907e-08 -3.56494e-09 -7.18347e-09)
(2.10991e-08 -5.10119e-09 -1.02979e-08)
(2.50304e-09 -5.03257e-10 -2.62492e-08)
(5.71432e-08 -1.17194e-08 -3.36877e-08)
(5.52204e-08 -1.01395e-08 -2.46914e-08)
(3.37968e-08 7.19918e-09 -4.77902e-09)
(3.48782e-08 -2.84333e-10 -4.56235e-09)
(4.54094e-08 -4.36118e-09 -7.18925e-09)
(4.6625e-08 2.37342e-10 -6.54145e-09)
(5.24906e-08 -3.9766e-10 -7.45505e-09)
(3.09816e-08 2.12261e-10 -7.17245e-09)
(1.39047e-08 -1.7369e-09 -1.21369e-08)
(4.30557e-08 -9.12698e-09 -1.50421e-08)
(4.47191e-08 -2.67521e-10 -1.27836e-08)
(3.48045e-08 3.84837e-09 -1.03482e-08)
(1.85759e-08 3.42552e-09 -3.72369e-09)
(2.85575e-08 -2.43124e-09 -5.76649e-09)
(2.52914e-08 -9.45831e-10 -4.5362e-09)
(2.94276e-08 9.29762e-11 -5.98143e-10)
(2.30614e-08 4.3067e-09 -6.21974e-09)
(8.1111e-09 -2.16846e-09 -1.52197e-08)
)
;
    }
    procBoundary7to5
    {
        type            processor;
        value           nonuniform List<vector> 
44
(
(3.59284e-08 5.25824e-10 -2.31828e-08)
(3.15844e-08 -1.29464e-08 -8.73972e-09)
(2.9946e-08 -6.54298e-09 -6.72052e-09)
(3.10423e-08 -5.70129e-09 -5.82773e-09)
(2.82344e-08 -2.44435e-09 -4.66499e-09)
(2.38861e-08 -5.57419e-10 -6.61069e-09)
(1.57805e-08 -2.72834e-09 -9.74279e-09)
(2.13763e-09 -1.44583e-08 -9.68083e-09)
(2.90018e-08 -8.63411e-09 -1.77354e-08)
(3.40007e-08 -6.24848e-09 -1.06606e-08)
(2.92467e-08 -7.17081e-09 -6.36873e-09)
(2.52452e-08 -1.7492e-09 -4.68677e-09)
(2.70381e-08 1.49756e-09 -5.3467e-09)
(2.5465e-08 1.91851e-09 -5.25212e-09)
(2.26315e-08 2.98659e-09 -5.6975e-09)
(1.69224e-08 5.29626e-09 -5.50521e-09)
(3.64395e-09 2.42984e-09 -5.73759e-09)
(2.90018e-08 -8.63411e-09 -1.77354e-08)
(3.40007e-08 -6.24848e-09 -1.06606e-08)
(3.40007e-08 -6.24848e-09 -1.06606e-08)
(3.01535e-08 -3.75876e-09 4.06335e-10)
(2.2215e-08 -1.13178e-09 -1.43102e-09)
(2.37418e-08 4.72518e-09 -5.13466e-09)
(2.02456e-08 6.93989e-09 -3.94952e-09)
(1.81069e-08 7.55922e-09 -3.85525e-09)
(8.29354e-09 6.1451e-09 -1.67189e-09)
(3.47148e-09 7.08786e-09 -3.39355e-09)
(3.10797e-08 5.78167e-10 3.59057e-09)
(3.49064e-08 -1.57294e-10 -9.53397e-09)
(3.01535e-08 -3.75876e-09 4.06335e-10)
(2.2215e-08 -1.13178e-09 -1.43102e-09)
(2.2215e-08 -1.13178e-09 -1.43102e-09)
(1.62908e-08 1.48452e-09 -7.60032e-10)
(1.64706e-08 4.31445e-09 1.68498e-09)
(7.44581e-09 7.71444e-09 -1.61214e-09)
(4.02534e-09 5.91803e-09 -1.72503e-09)
(1.44713e-10 5.53435e-09 -1.74032e-09)
(2.35819e-08 5.8819e-09 -3.12044e-09)
(2.39765e-08 5.89263e-09 -2.3988e-09)
(-1.60733e-08 -1.64493e-07 -2.74819e-10)
(1.42035e-08 -9.7688e-10 -1.50544e-10)
(1.62908e-08 1.48452e-09 -7.60032e-10)
(1.64706e-08 4.31445e-09 1.68498e-09)
(1.64706e-08 4.31445e-09 1.68498e-09)
)
;
    }
    procBoundary7to6
    {
        type            processor;
        value           nonuniform List<vector> 
12
(
(3.58916e-08 -1.20079e-08 -3.06887e-08)
(4.1501e-08 -4.48909e-09 -2.59442e-08)
(1.82013e-08 -3.01509e-10 -9.83081e-09)
(3.17714e-08 -6.10409e-09 -1.89248e-08)
(3.69755e-08 -3.68361e-09 -1.70321e-08)
(2.95916e-08 -2.59348e-09 -7.24827e-09)
(2.59553e-08 -2.29787e-09 -1.12641e-08)
(3.58008e-08 1.0864e-09 -1.47862e-08)
(2.81427e-08 2.13728e-11 -9.91651e-09)
(2.25978e-08 4.91732e-09 -1.44202e-09)
(2.47733e-08 8.30754e-09 -7.49098e-09)
(1.69838e-08 2.08465e-09 -9.14428e-09)
)
;
    }
}


// ************************************************************************* //
