/*--------------------------------*- C++ -*----------------------------------*\
| =========                 |                                                 |
| \\      /  F ield         | OpenFOAM: The Open Source CFD Toolbox           |
|  \\    /   O peration     | Version:  4.x                                   |
|   \\  /    A nd           | Web:      www.OpenFOAM.org                      |
|    \\/     M anipulation  |                                                 |
\*---------------------------------------------------------------------------*/
FoamFile
{
    version     2.0;
    format      ascii;
    class       volVectorField;
    location    "10";
    object      impParticleForces;
}
// * * * * * * * * * * * * * * * * * * * * * * * * * * * * * * * * * * * * * //

dimensions      [1 1 -2 0 0 0 0];

internalField   nonuniform List<vector> 
87
(
(0.00239087 -2.12203e-06 1.34038e-05)
(0.00242619 3.88468e-05 1.73111e-05)
(0.00240626 -9.0178e-06 7.06994e-06)
(0.00243377 -3.30438e-05 -6.046e-06)
(0.00238571 -4.83383e-05 -3.00865e-05)
(0.00238468 -6.67222e-05 -5.67373e-05)
(0.00236468 -9.15265e-05 -8.80297e-05)
(0.00234591 -0.000119547 -0.000127823)
(0.00226377 -0.000150896 -0.000163208)
(0.00240622 -1.19408e-05 1.12356e-05)
(0.00241834 -5.17596e-06 9.94658e-06)
(0.00241007 -1.73662e-05 -1.03991e-06)
(0.00242864 -3.01627e-05 -1.78354e-05)
(0.00238808 -4.11555e-05 -4.19879e-05)
(0.00238461 -5.5413e-05 -6.95313e-05)
(0.00235103 -7.40957e-05 -9.94771e-05)
(0.00233011 -9.50345e-05 -0.000132392)
(0.00224926 -0.000119495 -0.000154128)
(0.00238922 -8.95276e-06 6.57767e-06)
(0.00240873 -8.03093e-06 2.2692e-06)
(0.0023839 -1.14905e-05 -1.23706e-05)
(0.00240628 -1.71443e-05 -3.2685e-05)
(0.00236399 -2.32961e-05 -5.69934e-05)
(0.00236285 -3.06342e-05 -8.56034e-05)
(0.00231823 -3.97385e-05 -0.000114116)
(0.00229936 -5.00895e-05 -0.000144548)
(0.00222842 -5.73305e-05 -0.000161438)
(0.00242411 -1.49554e-05 1.5142e-05)
(0.00244125 -7.7335e-06 1.7129e-05)
(0.00244983 -2.04143e-05 1.0133e-05)
(0.00248073 -3.38264e-05 -2.46576e-06)
(0.00244951 -4.77715e-05 -2.69631e-05)
(0.00246165 -6.63937e-05 -5.30083e-05)
(0.00244518 -9.49375e-05 -8.66834e-05)
(0.00244006 -0.000130893 -0.000129764)
(0.00231691 -0.000175283 -0.000175372)
(0.00245653 -1.76115e-05 1.29258e-05)
(0.00245929 -1.51588e-05 1.04985e-05)
(0.0024531 -2.10125e-05 -9.81301e-07)
(0.00248965 -3.09012e-05 -1.70846e-05)
(0.00245812 -4.10497e-05 -4.20473e-05)
(0.00245876 -5.56588e-05 -6.97201e-05)
(0.00242907 -7.83639e-05 -0.000100443)
(0.0024152 -0.000106199 -0.000135543)
(0.00229416 -0.000142582 -0.000160903)
(0.00242759 -1.09069e-05 6.29879e-06)
(0.00245269 -1.05575e-05 9.25388e-07)
(0.00242777 -1.2925e-05 -1.46054e-05)
(0.00244717 -1.74985e-05 -3.51959e-05)
(0.00241189 -2.3292e-05 -5.99069e-05)
(0.00242452 -3.08802e-05 -8.88247e-05)
(0.0023834 -4.14615e-05 -0.000117514)
(0.00237378 -5.31184e-05 -0.000148921)
(0.00226323 -6.49206e-05 -0.000165127)
(0.00240499 -1.89507e-05 1.19849e-05)
(0.0024459 -1.81645e-05 1.47878e-05)
(0.00246535 -2.29728e-05 8.29302e-06)
(0.00251087 -3.08215e-05 -2.67398e-06)
(0.00248002 -4.3054e-05 -2.77032e-05)
(0.00250838 -6.1334e-05 -5.23598e-05)
(0.00248129 -8.97028e-05 -8.37328e-05)
(0.00248318 -0.000121235 -0.000119441)
(0.00233516 -0.000163246 -0.000153647)
(0.00243716 -1.83053e-05 8.92551e-06)
(0.00246856 -1.80275e-05 6.70783e-06)
(0.00245573 -2.08865e-05 -4.50387e-06)
(0.00249924 -2.72132e-05 -2.08772e-05)
(0.00247758 -3.72911e-05 -4.36156e-05)
(0.00249563 -5.20318e-05 -6.97421e-05)
(0.0024489 -7.56006e-05 -9.92057e-05)
(0.00243214 -0.000105623 -0.000131851)
(0.00231174 -0.000141765 -0.000153875)
(0.00241139 -1.16009e-05 2.14328e-06)
(0.00244979 -1.15314e-05 -4.34392e-06)
(0.00242928 -1.33696e-05 -1.87124e-05)
(0.00247672 -1.68298e-05 -3.97786e-05)
(0.00243836 -2.28687e-05 -6.21376e-05)
(0.00245165 -3.07223e-05 -8.94436e-05)
(0.00239336 -4.23491e-05 -0.000114717)
(0.00236991 -5.58503e-05 -0.00014211)
(0.00227103 -6.97915e-05 -0.000156449)
(0.00238692 -1.97164e-05 7.03131e-06)
(0.00241645 -1.95538e-05 6.77715e-06)
(0.00244425 -2.23918e-05 1.0406e-06)
(0.00241671 -1.78597e-05 3.7587e-06)
(0.00247048 -1.81133e-05 6.86146e-07)
(0.00239187 -1.21357e-05 -2.32757e-06)
)
;

boundaryField
{
    inlet
    {
        type            zeroGradient;
    }
    outlet
    {
        type            zeroGradient;
    }
    wall
    {
        type            zeroGradient;
    }
    procBoundary1to0
    {
        type            processor;
        value           nonuniform List<vector> 
12
(
(0.00237263 -1.59966e-05 3.2926e-06)
(0.00241832 -1.82777e-05 4.69392e-06)
(0.00241651 -1.23177e-05 4.36044e-06)
(0.0024184 -2.07851e-05 5.46703e-06)
(0.00245211 -2.05031e-05 5.88608e-06)
(0.00242751 -1.24947e-05 3.93505e-06)
(0.00239322 -2.14404e-05 3.84638e-06)
(0.00242361 -1.97379e-05 3.42503e-06)
(0.00239878 -1.23121e-05 6.31797e-07)
(0.00238686 -2.13544e-05 2.04619e-06)
(0.00240911 -1.89716e-05 9.58749e-07)
(0.00239232 -1.2543e-05 -1.7119e-06)
)
;
    }
    procBoundary1to3
    {
        type            processor;
        value           nonuniform List<vector> 
27
(
(0.00239234 3.99988e-08 5.3008e-06)
(0.00238747 3.32083e-07 -2.00742e-06)
(0.00237833 -7.04322e-07 -1.75436e-05)
(0.00237594 -2.66458e-06 -3.87389e-05)
(0.00235742 -4.23977e-06 -6.4499e-05)
(0.00235542 -5.48662e-06 -9.44507e-05)
(0.00232656 -5.06144e-06 -0.000127446)
(0.00229713 -4.05818e-06 -0.000162067)
(0.00224144 -8.44394e-07 -0.000186896)
(0.00242257 -1.0765e-06 3.93534e-06)
(0.00244872 -8.06822e-07 -3.53008e-06)
(0.0024343 -1.64199e-06 -2.08256e-05)
(0.00245083 -2.90077e-06 -4.34067e-05)
(0.00241809 -4.3319e-06 -6.96195e-05)
(0.00242298 -5.0445e-06 -9.93794e-05)
(0.00238199 -4.71716e-06 -0.000131841)
(0.00236872 -1.87264e-06 -0.000167531)
(0.00229132 4.34106e-06 -0.000200436)
(0.00241343 -2.48633e-06 -8.50018e-07)
(0.00245776 -2.58245e-06 -8.88795e-06)
(0.00243831 -3.49437e-06 -2.55517e-05)
(0.00246445 -4.57364e-06 -4.76731e-05)
(0.00242934 -6.02852e-06 -7.17579e-05)
(0.00244513 -6.6807e-06 -0.000100591)
(0.00239648 -6.70353e-06 -0.00012966)
(0.0023668 -5.1816e-06 -0.000159042)
(0.00228827 -1.59598e-06 -0.000181393)
)
;
    }
    procBoundary1to5
    {
        type            processor;
        value           nonuniform List<vector> 
32
(
(0.00248913 -2.77448e-05 -9.519e-06)
(0.0024669 -3.93803e-05 -3.10308e-05)
(0.0024972 -5.51214e-05 -5.20918e-05)
(0.00244926 -8.47262e-05 -8.22707e-05)
(0.00246062 -0.000117538 -0.000111999)
(0.00233573 -0.000165779 -0.000145473)
(0.00244852 -2.00942e-05 -1.04322e-05)
(0.00248045 -2.49802e-05 -2.53497e-05)
(0.00245546 -3.47179e-05 -4.61228e-05)
(0.00248596 -4.81016e-05 -6.93517e-05)
(0.00243863 -7.42728e-05 -9.61061e-05)
(0.00243278 -0.000104624 -0.000123428)
(0.00232487 -0.000143879 -0.00014482)
(0.00244099 -1.25067e-05 -9.2636e-06)
(0.00241577 -1.44183e-05 -2.29569e-05)
(0.00244989 -1.77853e-05 -4.18085e-05)
(0.00241944 -2.38798e-05 -6.19e-05)
(0.00242039 -3.2038e-05 -8.48052e-05)
(0.00237468 -4.55083e-05 -0.000107812)
(0.00234389 -6.08791e-05 -0.00012963)
(0.00226902 -7.9098e-05 -0.000145231)
(0.00237524 -2.01308e-05 3.25981e-06)
(0.00240467 -2.03439e-05 1.62419e-06)
(0.00248913 -2.77448e-05 -9.519e-06)
(0.00244852 -2.00942e-05 -1.04322e-05)
(0.00242619 -2.29556e-05 -4.97156e-06)
(0.00239735 -1.81964e-05 3.39296e-07)
(0.00244852 -2.00942e-05 -1.04322e-05)
(0.00244099 -1.25067e-05 -9.2636e-06)
(0.00242799 -1.86184e-05 -4.24379e-06)
(0.00244099 -1.25067e-05 -9.2636e-06)
(0.00237412 -1.32897e-05 -4.7238e-06)
)
;
    }
    procBoundary1to7
    {
        type            processor;
        value           uniform (0.00239237 -4.32433e-06 -5.96257e-06);
    }
}


// ************************************************************************* //
