/*--------------------------------*- C++ -*----------------------------------*\
| =========                 |                                                 |
| \\      /  F ield         | OpenFOAM: The Open Source CFD Toolbox           |
|  \\    /   O peration     | Version:  4.x                                   |
|   \\  /    A nd           | Web:      www.OpenFOAM.org                      |
|    \\/     M anipulation  |                                                 |
\*---------------------------------------------------------------------------*/
FoamFile
{
    version     2.0;
    format      ascii;
    class       volScalarField;
    location    "29";
    object      Sm;
}
// * * * * * * * * * * * * * * * * * * * * * * * * * * * * * * * * * * * * * //

dimensions      [1 -3 -1 0 0 0 0];

internalField   nonuniform List<scalar> 
132
(
9.91999e-65
7.82749e-65
6.43249e-65
6.7425e-65
1.03075e-64
1.0385e-64
7.98252e-65
5.65752e-65
8.37003e-65
7.6725e-65
9.455e-65
7.285e-65
6.8975e-65
8.29251e-65
5.65751e-65
7.51752e-65
6.35503e-65
8.06003e-65
4.80501e-65
7.44001e-65
6.12251e-65
7.13002e-65
7.44002e-65
8.06003e-65
7.51753e-65
7.20754e-65
8.60255e-65
6.51003e-65
6.58753e-65
8.68004e-65
5.50252e-65
7.28503e-65
6.74254e-65
7.90505e-65
5.89004e-65
4.34003e-65
6.4325e-65
7.3625e-65
6.74251e-65
6.89752e-65
8.60253e-65
8.44753e-65
7.36253e-65
3.9525e-65
8.52501e-65
7.44001e-65
7.51751e-65
8.13752e-65
7.05252e-65
5.73502e-65
7.67253e-65
5.73503e-65
5.50252e-65
8.21502e-65
6.97502e-65
6.04502e-65
7.36253e-65
8.60254e-65
8.91255e-65
7.05254e-65
7.98255e-65
6.74253e-65
7.90504e-65
5.96753e-65
7.20754e-65
7.36254e-65
6.20004e-65
6.58754e-65
7.98256e-65
5.34754e-65
5.03751e-65
5.81252e-65
7.36253e-65
6.04503e-65
5.81253e-65
8.06003e-65
7.36252e-65
6.82002e-65
5.19252e-65
8.52503e-65
7.05253e-65
7.13004e-65
8.75755e-65
7.51754e-65
7.05254e-65
7.36254e-65
7.51753e-65
6.97503e-65
7.98254e-65
7.59505e-65
7.67255e-65
7.05255e-65
7.75005e-65
5.58004e-65
6.35504e-65
7.05254e-65
6.89754e-65
6.12254e-65
5.27004e-65
7.59506e-65
7.05256e-65
5.81255e-65
5.50253e-65
6.43254e-65
6.12254e-65
6.89753e-65
5.81253e-65
7.67253e-65
7.44004e-65
5.19253e-65
3.87502e-65
6.89754e-65
6.66505e-65
5.42504e-65
5.96754e-65
6.04504e-65
6.04504e-65
6.20004e-65
6.89754e-65
6.35505e-65
7.20755e-65
6.43255e-65
7.28506e-65
6.04505e-65
7.44006e-65
5.65755e-65
5.81255e-65
6.58755e-65
6.51006e-65
6.51006e-65
6.35506e-65
4.10754e-65
)
;

boundaryField
{
    inlet
    {
        type            calculated;
        value           nonuniform 0();
    }
    outlet
    {
        type            calculated;
        value           uniform 0;
    }
    wall
    {
        type            calculated;
        value           uniform 0;
    }
    procBoundary7to0
    {
        type            processor;
        value           uniform 2.325e-65;
    }
    procBoundary7to1
    {
        type            processor;
        value           uniform 5.73499e-65;
    }
    procBoundary7to3
    {
        type            processor;
        value           nonuniform List<scalar> 
36
(
7.67249e-65
9.06749e-65
8.75749e-65
8.525e-65
6.1225e-65
6.27751e-65
8.52502e-65
7.13003e-65
7.44003e-65
9.0675e-65
5.0375e-65
7.75e-65
4.34e-65
4.65001e-65
7.90502e-65
7.28503e-65
8.83504e-65
6.12253e-65
5.11501e-65
8.13752e-65
8.21502e-65
5.81251e-65
6.82002e-65
7.98253e-65
6.66503e-65
7.20754e-65
5.42503e-65
8.52504e-65
4.03002e-65
5.42503e-65
6.12253e-65
5.58003e-65
7.13005e-65
6.20004e-65
7.90506e-65
8.52506e-65
)
;
    }
    procBoundary7to5
    {
        type            processor;
        value           nonuniform List<scalar> 
44
(
8.44749e-65
6.045e-65
7.5175e-65
5.735e-65
4.57251e-65
7.28502e-65
5.42502e-65
8.68003e-65
9.9975e-65
4.34e-65
7.285e-65
7.59501e-65
6.20001e-65
7.05252e-65
7.13002e-65
6.89753e-65
5.58002e-65
9.9975e-65
4.34e-65
4.34e-65
8.99002e-65
7.98252e-65
1.0075e-64
7.36253e-65
8.21504e-65
8.91255e-65
8.68005e-65
4.80501e-65
9.37752e-65
8.99002e-65
7.98252e-65
7.98252e-65
9.68754e-65
7.75004e-65
6.51004e-65
6.74255e-65
6.82005e-65
7.36253e-65
5.65753e-65
7.13003e-65
5.58003e-65
9.68754e-65
7.75004e-65
7.75004e-65
)
;
    }
    procBoundary7to6
    {
        type            processor;
        value           nonuniform List<scalar> 
12
(
6.74251e-65
7.13002e-65
4.96003e-65
8.52502e-65
7.59503e-65
7.51755e-65
7.90503e-65
7.75004e-65
5.65754e-65
3.79753e-65
7.82756e-65
6.04505e-65
)
;
    }
}


// ************************************************************************* //
