/*--------------------------------*- C++ -*----------------------------------*\
| =========                 |                                                 |
| \\      /  F ield         | OpenFOAM: The Open Source CFD Toolbox           |
|  \\    /   O peration     | Version:  4.x                                   |
|   \\  /    A nd           | Web:      www.OpenFOAM.org                      |
|    \\/     M anipulation  |                                                 |
\*---------------------------------------------------------------------------*/
FoamFile
{
    version     2.0;
    format      ascii;
    class       volVectorField;
    location    "36";
    object      GField;
}
// * * * * * * * * * * * * * * * * * * * * * * * * * * * * * * * * * * * * * //

dimensions      [1 -2 -1 0 0 0 0];

internalField   nonuniform List<vector> 
108
(
(96.0658 -3.13738 -1.84608)
(41.0448 -1.4915 -1.18379)
(97.4218 -3.34819 -1.80943)
(43.7683 -1.39526 -1.33423)
(99.2742 -2.56383 -0.971426)
(45.6626 -0.84806 -0.986372)
(100.917 -1.84471 -0.86441)
(46.1622 -0.817109 -1.0182)
(102.765 -1.70685 0.271201)
(94.3559 -5.06924 -1.39244)
(33.427 -2.33071 -0.717283)
(92.1475 -5.17063 -1.01357)
(26.2714 -1.71176 -0.715118)
(90.8649 -3.77876 -0.346667)
(21.3589 -1.20613 -0.417598)
(91.1167 -2.81805 0.065649)
(16.6605 -1.17718 -0.357521)
(91.5099 -1.63406 1.00998)
(94.1292 -3.05938 -1.49609)
(29.994 -1.72007 -0.690739)
(89.7322 -3.41151 -0.855021)
(19.432 -1.24469 -0.23235)
(87.8305 -2.9024 0.00463474)
(11.9677 -0.955102 0.123515)
(87.5009 -1.60585 -0.343123)
(4.83039 -0.447849 0.18084)
(87.731 0.373399 -0.882225)
(94.2165 -1.58215 -1.59858)
(29.628 -0.311933 -0.475071)
(88.6889 -1.24248 -0.550018)
(17.3765 -0.536283 -0.377022)
(85.7645 -1.14908 0.00392719)
(7.04989 -0.303967 0.0299637)
(84.4251 -0.0964607 -0.0837827)
(0.274959 -0.0192121 0.00841163)
(84.7482 0.0147387 -0.429865)
(95.883 -2.45384 0.528281)
(41.4835 -1.09069 0.155347)
(97.5297 -2.13145 0.585025)
(43.6859 -0.828169 -0.625706)
(98.7067 -1.70039 -0.159589)
(45.4774 -0.712262 -0.929061)
(100.233 -1.22906 -0.0641776)
(44.7302 -0.175579 -0.968878)
(100.095 -0.545316 0.269181)
(94.9586 -4.54752 1.29357)
(36.7253 -2.39984 0.46831)
(94.1549 -4.79784 1.94763)
(33.7705 -1.70791 0.113097)
(93.5067 -3.77227 1.20291)
(30.5105 -1.19444 -0.285978)
(93.0771 -2.38479 1.07437)
(25.8702 -0.688507 -0.326002)
(92.968 -1.54326 1.15162)
(94.6521 -3.26133 1.49181)
(32.4942 -1.44594 0.533991)
(90.8477 -3.07911 1.8679)
(23.8233 -0.989109 0.344451)
(88.6673 -1.83585 1.31085)
(16.6841 -0.40963 0.146971)
(88.1503 -0.350076 1.17662)
(10.4308 -0.0776721 0.163341)
(88.3664 0.210188 0.489403)
(93.5195 -1.03489 1.31261)
(31.5927 0.0446116 1.06999)
(90.0172 -0.264509 2.53318)
(22.4623 -0.0403218 0.747752)
(87.7724 -0.242571 2.59909)
(15.7318 -0.263166 0.833061)
(87.3428 -0.320416 2.3083)
(10.9761 -0.24134 0.62775)
(88.2355 -0.256871 0.53431)
(96.3158 -2.33538 1.49135)
(45.8118 -1.23773 1.09225)
(101.482 -2.02128 2.18438)
(53.8711 -0.738565 0.826313)
(104.806 -1.22619 1.62794)
(58.1945 -0.361472 0.557606)
(107.165 -0.79667 2.11146)
(61.6799 -0.399444 1.5495)
(111.043 -0.983665 2.89072)
(95.518 -4.19597 1.59339)
(41.7743 -2.34248 0.953553)
(97.5218 -4.15212 2.30176)
(46.1698 -1.64517 0.955262)
(99.9112 -2.75916 2.11074)
(48.9298 -1.24503 0.925636)
(101.95 -2.11114 2.55808)
(50.9987 -1.43847 1.22785)
(104.664 -2.13051 2.40062)
(94.4249 -3.03019 1.83469)
(38.9817 -1.39007 1.25609)
(94.5363 -2.9492 2.84945)
(39.6046 -1.28647 1.18081)
(95.723 -1.76232 2.77879)
(40.7459 -0.617699 0.921698)
(97.4536 -0.665887 2.62381)
(42.1486 -0.714552 1.0663)
(99.5788 -0.801271 2.43383)
(93.2703 -0.454291 1.74318)
(38.2947 -0.1819 1.17854)
(93.7684 -0.731946 2.50681)
(37.8952 -0.503876 1.09078)
(94.5786 -0.85396 2.36324)
(39.2302 -0.767908 1.10856)
(97.0958 -1.12784 2.45581)
(42.2589 -0.836357 0.654288)
(99.7233 -1.32565 1.44741)
)
;

boundaryField
{
    inlet
    {
        type            calculated;
        value           uniform (67 0 0);
    }
    outlet
    {
        type            calculated;
        value           nonuniform 0();
    }
    wall
    {
        type            calculated;
        value           uniform (0 0 0);
    }
    procBoundary4to0
    {
        type            processor;
        value           nonuniform List<vector> 
36
(
(96.8802 -2.93141 -4.28818)
(40.5552 -1.39275 -2.76498)
(98.6672 -2.90072 -4.47811)
(43.7688 -1.05203 -2.68194)
(100.205 -2.15995 -3.53512)
(45.0291 -0.862455 -2.5157)
(101.353 -1.97324 -2.82477)
(44.8004 -0.349439 -2.66917)
(101.706 -1.00806 -2.01798)
(95.7776 -4.90175 -4.82163)
(33.0061 -2.38701 -2.52908)
(93.5813 -5.49987 -4.80371)
(27.3799 -1.92501 -1.91019)
(92.138 -4.37721 -3.16245)
(21.7815 -1.55777 -1.3634)
(90.7421 -2.58144 -2.12472)
(14.4589 -1.26705 -1.1613)
(89.9945 -0.0814438 -1.94478)
(94.9845 -3.0743 -4.98017)
(29.4617 -1.50187 -2.47214)
(90.303 -3.47917 -4.4063)
(16.8979 -0.827627 -1.28764)
(86.7929 -2.02245 -2.72953)
(5.87062 -0.291029 -0.500901)
(84.4066 0.00548438 -2.07477)
(3.58829e-05 -4.74125e-06 5.66035e-06)
(81.9625 1.82588 -0.639973)
(94.7768 -0.650665 -4.51621)
(28.668 -0.00626904 -2.52059)
(89.4559 0.287196 -4.34648)
(15.0412 0.235169 -1.41331)
(86.8541 0.772564 -3.15707)
(5.20595 0.124447 -0.605766)
(85.5177 0.113323 -1.94469)
(0.0725487 0.00280258 -0.0106446)
(84.9357 -0.360182 -0.137101)
)
;
    }
    procBoundary4to5
    {
        type            processor;
        value           nonuniform List<vector> 
12
(
(45.4685 -1.02476 0.477192)
(9.90388 -1.16688 0.238578)
(0.488833 -0.0815133 0.0536981)
(3.36966e-05 -8.02038e-06 4.01669e-06)
(42.486 0.224513 -1.19306)
(22.0594 -0.996864 -0.343994)
(4.23838 -0.200983 0.130623)
(7.63294 -0.302017 0.712636)
(66.0651 -0.519994 2.23564)
(52.5639 -2.42656 1.2067)
(42.5068 -1.74224 1.25581)
(42.3776 -1.76591 0.788568)
)
;
    }
    procBoundary4to6
    {
        type            processor;
        value           nonuniform List<vector> 
27
(
(92.0157 1.35409 -1.84054)
(27.3523 0.863573 -0.578856)
(87.5413 1.64417 -1.40469)
(13.9469 0.443181 -0.414332)
(84.2887 0.948781 -0.966641)
(4.18443 0.167362 -0.129981)
(82.9586 -0.190618 -0.738842)
(2.96588e-05 -4.48147e-06 4.49681e-06)
(82.172 -1.19744 -0.733756)
(92.8576 2.33549 2.52043)
(30.9899 0.99513 0.669293)
(89.7243 2.58649 2.382)
(21.6467 0.688021 0.659937)
(87.9482 1.71784 1.72968)
(13.5461 0.149767 0.394328)
(86.7441 0.632738 0.42137)
(6.17742 -0.0649527 0.386921)
(86.1257 0.0258711 -0.492102)
(94.4913 2.33237 2.42998)
(40.0266 0.840677 1.06496)
(94.7194 1.8441 2.40758)
(39.6552 0.553831 0.733028)
(94.7713 0.828244 2.15112)
(38.8259 -0.0714635 0.675984)
(94.7989 -0.379536 1.90815)
(36.3339 -0.569185 0.902924)
(96.1833 -0.684962 1.57996)
)
;
    }
}


// ************************************************************************* //
