/*--------------------------------*- C++ -*----------------------------------*\
| =========                 |                                                 |
| \\      /  F ield         | OpenFOAM: The Open Source CFD Toolbox           |
|  \\    /   O peration     | Version:  4.x                                   |
|   \\  /    A nd           | Web:      www.OpenFOAM.org                      |
|    \\/     M anipulation  |                                                 |
\*---------------------------------------------------------------------------*/
FoamFile
{
    version     2.0;
    format      ascii;
    class       volVectorField;
    location    "36";
    object      UsPrev;
}
// * * * * * * * * * * * * * * * * * * * * * * * * * * * * * * * * * * * * * //

dimensions      [0 1 -1 0 0 0 0];

internalField   nonuniform List<vector> 
108
(
(-2.25867e-11 -7.46503e-12 4.86843e-11)
(2.61232e-12 -5.12369e-12 1.78851e-10)
(6.86952e-11 -4.89938e-11 3.75306e-10)
(1.06951e-10 -4.03054e-12 6.6257e-10)
(9.75132e-11 1.51552e-10 9.36207e-10)
(-1.93499e-11 7.53804e-12 8.80304e-10)
(-4.69366e-11 -1.57762e-10 1.22967e-09)
(-2.42903e-10 -2.64556e-11 1.32174e-09)
(-7.8416e-10 -1.13615e-11 1.54668e-09)
(1.99857e-11 -1.55948e-10 2.14239e-10)
(2.11334e-10 -3.84843e-10 2.60814e-10)
(1.57929e-10 -2.35096e-10 6.86039e-10)
(3.82362e-10 -2.43253e-10 1.1204e-09)
(3.80318e-10 -8.76332e-11 1.43289e-09)
(5.459e-10 -2.42159e-10 1.41038e-09)
(4.11555e-10 -2.49561e-10 1.69774e-09)
(1.93574e-10 -2.80515e-10 1.95785e-09)
(-3.83258e-10 5.92289e-11 2.44094e-09)
(1.04123e-10 -2.38563e-10 3.49462e-10)
(3.64974e-10 -2.79309e-10 6.49149e-10)
(4.45638e-10 -2.96386e-10 1.04382e-09)
(7.0448e-10 -3.77947e-10 1.36598e-09)
(7.33065e-10 -3.03567e-10 1.79344e-09)
(9.60716e-10 -4.46425e-10 1.77787e-09)
(8.72851e-10 -3.08385e-10 1.91049e-09)
(9.76706e-10 -5.7396e-10 2.1782e-09)
(1.49315e-09 -8.1836e-10 2.07063e-09)
(1.52985e-10 -8.57301e-11 4.00886e-10)
(3.4388e-10 -5.2413e-10 6.24553e-10)
(8.29084e-11 -7.09516e-10 1.08996e-09)
(3.15933e-10 -7.60936e-10 9.73353e-10)
(6.15849e-10 -8.92679e-10 1.67517e-09)
(5.19922e-10 -8.39982e-10 1.8256e-09)
(8.46066e-10 -7.17669e-10 1.70864e-09)
(9.45022e-10 -1.58025e-09 1.49345e-09)
(1.26362e-09 -1.72332e-09 1.1793e-09)
(-2.6592e-11 -2.54639e-11 6.5979e-11)
(-5.20809e-11 -1.05466e-10 1.6434e-10)
(7.56872e-11 -5.59257e-11 2.65733e-10)
(8.93475e-11 -2.13089e-11 4.31164e-10)
(1.79834e-10 1.40202e-11 5.20203e-10)
(5.9017e-11 -8.91247e-11 5.66985e-10)
(4.9333e-11 -1.37459e-10 6.45088e-10)
(-9.43095e-11 -7.97924e-11 9.11693e-10)
(6.37069e-11 -1.63193e-10 7.66545e-10)
(-7.81679e-12 -1.57741e-10 1.96669e-10)
(-2.74421e-12 -2.48422e-10 2.77308e-10)
(8.88039e-11 -2.20176e-10 3.82983e-10)
(3.09237e-10 -2.20727e-10 8.14025e-10)
(4.64518e-10 -1.611e-10 9.45307e-10)
(3.67626e-10 -1.93117e-10 1.01807e-09)
(5.21518e-10 -1.26157e-11 1.20068e-09)
(5.12216e-10 -3.27267e-11 1.31836e-09)
(6.11022e-10 -4.26408e-10 1.38486e-09)
(7.03727e-11 -7.54149e-11 3.01975e-10)
(9.44652e-11 -3.20351e-10 4.4541e-10)
(4.38458e-10 -8.81652e-11 4.74436e-10)
(6.33124e-10 -1.64424e-10 8.30448e-10)
(8.26897e-10 -1.0308e-10 1.15248e-09)
(8.37591e-10 -3.34619e-10 1.29872e-09)
(1.01745e-09 -1.9132e-10 1.3561e-09)
(1.32294e-09 -3.14306e-10 1.31487e-09)
(1.33471e-09 -4.41957e-10 1.8068e-09)
(1.0034e-10 -1.94272e-10 3.04286e-10)
(1.41769e-10 -4.94123e-10 4.01245e-10)
(2.44304e-10 -4.64789e-10 6.14532e-10)
(2.36355e-10 -4.51303e-10 7.53578e-10)
(3.05513e-10 -5.01816e-10 1.10965e-09)
(5.03454e-10 -6.61934e-10 1.11099e-09)
(9.31984e-10 -3.92957e-10 1.30085e-09)
(1.31326e-09 -7.55391e-10 1.2039e-09)
(1.9463e-09 -1.253e-09 1.39438e-09)
(1.67808e-11 1.17099e-11 7.81954e-11)
(-2.63634e-11 -3.42533e-11 1.03062e-10)
(-2.42485e-12 -2.25257e-11 1.37004e-10)
(1.05504e-10 -3.81914e-11 2.16688e-10)
(4.75899e-11 -5.05944e-11 2.4296e-10)
(4.186e-11 -1.14191e-10 2.17746e-10)
(-3.45173e-11 -1.59737e-10 4.68143e-10)
(3.69848e-11 -7.67134e-11 4.50381e-10)
(2.08755e-10 -7.49073e-11 3.10533e-10)
(6.21452e-11 -8.98972e-11 1.63075e-10)
(5.46047e-11 -1.33845e-10 1.35209e-10)
(3.57437e-11 -9.89092e-11 2.28577e-10)
(8.71528e-11 -1.06426e-10 2.48545e-10)
(2.50324e-10 -1.09356e-10 4.75187e-10)
(1.73955e-10 3.05347e-11 3.31932e-10)
(3.79583e-10 1.11323e-10 4.68515e-10)
(3.16592e-10 -1.55978e-10 6.33541e-10)
(4.56985e-10 -1.88941e-10 7.01231e-10)
(4.25829e-11 -1.79052e-11 1.78059e-10)
(1.59597e-10 -1.51628e-10 1.63551e-10)
(1.81093e-10 -1.04917e-10 2.58115e-10)
(2.67718e-10 -1.43455e-10 3.02842e-10)
(4.51087e-10 -1.00092e-10 6.23363e-10)
(4.62716e-10 -9.14608e-11 5.75412e-10)
(9.04629e-10 9.25685e-12 5.93854e-10)
(9.54538e-10 -1.65568e-10 6.94476e-10)
(9.50535e-10 -3.61444e-10 8.15313e-10)
(5.52931e-11 -1.61534e-10 9.43463e-11)
(9.49751e-11 -3.69879e-10 1.22573e-10)
(1.27582e-10 -3.14285e-10 3.38237e-10)
(1.85604e-10 -2.52312e-10 4.02083e-10)
(1.43257e-10 -2.25273e-10 4.56008e-10)
(3.05837e-10 -2.88591e-10 4.07494e-10)
(7.34363e-10 -2.70022e-10 5.11357e-10)
(3.51474e-09 -1.77173e-09 6.36519e-10)
(1.61131e-09 -7.50772e-10 9.24608e-10)
)
;

boundaryField
{
    inlet
    {
        type            calculated;
        value           uniform (0 0 0);
    }
    outlet
    {
        type            calculated;
        value           nonuniform 0();
    }
    wall
    {
        type            calculated;
        value           uniform (0 0 0);
    }
    procBoundary4to0
    {
        type            processor;
        value           uniform (0 0 0);
    }
    procBoundary4to5
    {
        type            processor;
        value           uniform (0 0 0);
    }
    procBoundary4to6
    {
        type            processor;
        value           uniform (0 0 0);
    }
}


// ************************************************************************* //
