/*--------------------------------*- C++ -*----------------------------------*\
  =========                 |
  \\      /  F ield         | OpenFOAM: The Open Source CFD Toolbox
   \\    /   O peration     | Website:  https://openfoam.org
    \\  /    A nd           | Version:  4.x
     \\/     M anipulation  |
\*---------------------------------------------------------------------------*/
FoamFile
{
    version     2.0;
    format      ascii;
    class       Cloud<passiveParticle>;
    location    0;
    object      positions;
}
// * * * * * * * * * * * * * * * * * * * * * * * * * * * * * * * * * * * * * //

348
(
( 0.25608 -0.0172352 0.0199764 ) 39
( 0.253246 -0.00317241 0.0337025 ) 48
( 0.256962 0.0116428 0.0209286 ) 48
( 0.421223 -0.0532261 -0.00939339 ) 10
( 0.32843 -0.0516085 0.0355961 ) 32
( 0.439676 -0.0867341 -0.006171 ) 3
( 0.479817 -0.0721241 0.0133746 ) 5
( 0.429412 -0.0905587 0.0309665 ) 27
( 0.346642 -0.0575922 0.0231276 ) 33
( 0.469065 -0.0594013 0.0236777 ) 37
( 0.438582 -0.0210231 0.0177811 ) 45
( 0.477624 -0.0231391 -0.000290573 ) 20
( 0.344234 -0.0902033 0.00357858 ) 0
( 0.431801 -0.0409194 0.0119127 ) 18
( 0.456652 -0.0434039 0.000602514 ) 11
( 0.287714 -0.0166783 -0.00538772 ) 13
( 0.373456 -0.0737797 0.00179888 ) 1
( 0.402792 -0.0578115 -0.00413306 ) 9
( 0.280689 -0.0346719 -0.00974237 ) 13
( 0.345003 -0.0182688 0.0042657 ) 15
( 0.393026 -0.0731035 0.0036187 ) 2
( 0.283141 -0.0296829 0.00907281 ) 13
( 0.321823 -0.0256974 -0.00888205 ) 14
( 0.333704 -0.0747303 -0.00342215 ) 0
( 0.363982 -0.0843416 0.030644 ) 25
( 0.362923 -0.0224687 -0.00298026 ) 16
( 0.48965 -0.0448065 0.0248184 ) 38
( 0.435985 -0.0902635 0.0126725 ) 3
( 0.481813 -0.0718534 -0.00618212 ) 5
( 0.370546 -0.0543979 0.00550288 ) 8
( 0.432825 -0.0550188 0.0260987 ) 36
( 0.448817 -0.0717963 0.00271257 ) 4
( 0.312606 -0.0762259 0.0169583 ) 23
( 0.391677 -0.0907137 0.0243212 ) 26
( 0.348604 -0.0717579 0.00936432 ) 0
( 0.41889 -0.0312226 0.028352 ) 45
( 0.398045 -0.0880423 -0.00879461 ) 2
( 0.421799 -0.0773467 0.0178899 ) 27
( 0.310815 -0.0570008 0.0226782 ) 32
( 0.425174 -0.0298461 -0.00903073 ) 18
( 0.452393 -0.0666553 0.0313999 ) 37
( 0.465891 -0.0316761 -0.0133297 ) 19
( 0.40158 -0.0262151 0.0156786 ) 44
( 0.340146 -0.0562848 -0.00498663 ) 7
( 0.325344 -0.0242214 0.0105982 ) 14
( 0.360496 -0.0862695 -0.00686643 ) 0
( 0.322017 -0.0622529 0.00675102 ) 6
( 0.384228 -0.0385499 0.0238886 ) 43
( 0.383589 -0.0577559 0.0193518 ) 34
( 0.278029 -0.059956 0.0190201 ) 31
( 0.322382 -0.0593549 -0.0130135 ) 6
( 0.403741 -0.0434991 0.0245065 ) 35
( 0.346975 -0.090248 0.0230658 ) 24
( 0.454993 -0.0175925 0.0285348 ) 46
( 0.391138 -0.0281417 -0.00109412 ) 17
( 0.260576 -0.0718677 0.0226339 ) 21
( 0.454566 -0.0905162 0.00630422 ) 4
( 0.384742 -0.0905179 0.00595934 ) 1
( 0.359387 -0.0416579 -0.00407211 ) 15
( 0.490474 -0.0171316 0.013071 ) 20
( 0.465504 -0.0618128 0.00451836 ) 11
( 0.489121 -0.0557039 0.00816973 ) 12
( 0.474673 -0.0904775 0.020009 ) 29
( 0.490357 -0.0361529 0.00702455 ) 20
( 0.420443 -0.0901737 -0.00420981 ) 3
( 0.453468 -0.0341096 0.0176244 ) 46
( 0.421104 -0.0245053 0.00973574 ) 18
( 0.417037 -0.0534582 0.0141048 ) 10
( 0.356168 -0.0319166 0.0130812 ) 15
( 0.330696 -0.0475334 0.016516 ) 32
( 0.376444 -0.0211569 0.0283829 ) 43
( 0.272224 -0.0274535 0.0251766 ) 39
( 0.449652 -0.0556227 0.0147381 ) 37
( 0.357028 -0.0205132 0.0288193 ) 42
( 0.265298 -0.0459799 0.0248947 ) 30
( 0.381871 -0.0450058 -0.00795421 ) 8
( 0.446949 -0.0263404 0.000498917 ) 19
( 0.403557 -0.0668162 0.018711 ) 35
( 0.302573 -0.0290677 0.00274823 ) 13
( 0.313163 -0.0385745 0.0162778 ) 41
( 0.458183 -0.08502 -0.0125423 ) 4
( 0.366308 -0.0471485 0.0242435 ) 34
( 0.364602 -0.0664976 0.0198773 ) 34
( 0.321717 -0.0438074 -0.000828307 ) 6
( 0.473169 -0.0488891 -0.00762931 ) 12
( 0.471772 -0.0294028 0.0248389 ) 46
( 0.479587 -0.0884601 0.0394554 ) 29
( 0.310979 -0.0419948 0.0354744 ) 41
( 0.358266 -0.0640459 -0.0060587 ) 7
( 0.458939 -0.0651258 -0.0136912 ) 11
( 0.365544 -0.0900539 0.0118556 ) 1
( 0.33264 -0.0747215 0.0206835 ) 23
( 0.45379 -0.0472826 0.0321734 ) 37
( 0.291011 -0.0718376 0.0280799 ) 22
( 0.341181 -0.0384635 0.00283447 ) 15
( 0.472907 -0.090062 -0.000563873 ) 5
( 0.490894 -0.0542758 -0.0114798 ) 12
( 0.316085 -0.0224339 0.0280315 ) 41
( 0.4105 -0.0901405 0.0279246 ) 26
( 0.411127 -0.0393402 0.00141535 ) 17
( 0.433009 -0.0603344 0.00494226 ) 10
( 0.489588 -0.0631245 0.0313675 ) 38
( 0.39356 -0.0454602 0.0079261 ) 9
( 0.380798 -0.0749662 0.0276322 ) 25
( 0.473131 -0.0443009 0.0118724 ) 12
( 0.339403 -0.0294966 0.0232472 ) 42
( 0.46127 -0.0761926 0.0172424 ) 28
( 0.374628 -0.0346502 0.00734149 ) 16
( 0.268956 -0.0900628 0.0190184 ) 21
( 0.489933 -0.0900075 -0.0120045 ) 5
( 0.438393 -0.0440342 -0.00613305 ) 10
( 0.316252 -0.0901258 0.0302888 ) 23
( 0.378856 -0.0901179 -0.0130654 ) 1
( 0.293092 -0.0442627 0.0270463 ) 31
( 0.406312 -0.0869656 0.00909162 ) 2
( 0.417281 -0.0710239 -0.000304338 ) 10
( 0.373393 -0.0405881 0.0416347 ) 43
( 0.452908 -0.0904554 0.0274555 ) 28
( 0.472682 -0.0452578 0.0363055 ) 38
( 0.273748 0.00490718 0.0288265 ) 48
( 0.491036 -0.0816988 0.025723 ) 29
( 0.437747 -0.0363774 0.029959 ) 45
( 0.49044 -0.090134 0.00789291 ) 5
( 0.341686 -0.0440537 0.0523761 ) 62
( 0.322652 -0.060992 0.0518866 ) 61
( 0.282134 -0.0108892 0.0551374 ) 78
( 0.267131 -0.0899651 0.0394283 ) 21
( 0.382896 -0.0241404 0.0468052 ) 72
( 0.398193 -0.0905008 0.0520489 ) 55
( 0.423263 -0.0351646 0.0571829 ) 74
( 0.347879 -0.070751 0.0552204 ) 62
( 0.340509 -0.0903487 0.0570191 ) 53
( 0.48978 -0.0339964 -0.0125427 ) 20
( 0.296367 0.00147184 0.0483658 ) 78
( 0.289468 -0.0247749 0.043244 ) 69
( 0.327658 -0.00948463 0.0488992 ) 79
( 0.485104 -0.0234252 0.048457 ) 76
( 0.271751 -0.0729583 0.0575687 ) 50
( 0.387166 -0.055397 0.052245 ) 63
( 0.439341 -0.0685483 0.0540118 ) 65
( 0.265415 -0.0536715 0.0519323 ) 59
( 0.461574 -0.0904523 0.0454269 ) 57
( 0.454249 -0.0170759 0.0576636 ) 75
( 0.490385 -0.0902824 0.0771898 ) 89
( 0.312433 -0.0419102 0.0678885 ) 70
( 0.29901 -0.0581675 0.0590824 ) 60
( 0.362245 -0.0342528 0.056759 ) 72
( 0.374729 -0.0902922 0.0582607 ) 54
( 0.420637 -0.0739078 0.0571566 ) 56
( 0.370889 -0.0561717 0.0634539 ) 63
( 0.456247 -0.0596616 0.0490481 ) 66
( 0.285064 -0.0901749 0.0581348 ) 51
( 0.489746 -0.0551644 0.0589807 ) 67
( 0.326418 -0.0777247 0.0614451 ) 52
( 0.34851 0.0104925 0.0617997 ) 80
( 0.438573 -0.0481326 0.0575654 ) 65
( 0.471337 -0.0734062 0.0600532 ) 57
( 0.431434 -0.0901169 0.0611602 ) 56
( 0.335398 -0.0241914 0.0598227 ) 71
( 0.462298 -0.0356309 0.0684121 ) 75
( 0.283943 -0.0297813 0.0616097 ) 69
( 0.401134 -0.0432065 0.0581022 ) 64
( 0.368372 -0.0153412 0.0572665 ) 72
( 0.323889 0.00747046 0.0590715 ) 79
( 0.283773 0.00667366 0.0638741 ) 78
( 0.38669 -0.0748026 0.0528709 ) 54
( 0.434657 -0.0199476 0.0630977 ) 74
( 0.310462 -0.0258658 0.0467386 ) 70
( 0.335472 -0.0570119 0.0662071 ) 62
( 0.380642 -0.0388671 0.0600842 ) 72
( 0.255705 -0.0205768 0.0425126 ) 39
( 0.254549 -0.0417267 0.0408548 ) 39
( 0.265702 -0.0221166 0.0594009 ) 68
( 0.402729 -0.0237472 0.0549695 ) 73
( 0.454987 -0.0398462 0.0504918 ) 75
( 0.417471 -0.0902892 0.0467432 ) 56
( 0.310257 -0.00948881 0.0575541 ) 79
( 0.367216 -0.0727349 0.0532252 ) 54
( 0.425414 -0.0572385 0.0466156 ) 65
( 0.336553 -0.0703858 0.0393894 ) 33
( 0.359025 -0.0520099 0.0486977 ) 62
( 0.472285 -0.0687857 0.0408416 ) 38
( 0.255372 -0.0756455 0.0469341 ) 50
( 0.374013 -0.0600233 0.0384005 ) 34
( 0.296748 -0.0418534 0.0489286 ) 69
( 0.355535 -0.0877601 0.0704437 ) 53
( 0.420881 -0.052949 0.0654712 ) 65
( 0.260571 0.0139195 0.0399571 ) 48
( 0.297707 -0.025684 0.0215182 ) 40
( 0.29945 -0.090139 0.0441197 ) 51
( 0.465891 -0.0248452 0.0434503 ) 75
( 0.353793 -0.00777542 0.0729063 ) 111
( 0.406546 -0.0618762 0.0505356 ) 64
( 0.41224 -0.0438306 0.0419792 ) 35
( 0.434342 -0.0723247 0.035283 ) 27
( 0.272139 -0.0695947 0.0381806 ) 30
( 0.317557 -0.0705748 0.0351668 ) 32
( 0.473418 -0.0158464 0.0617222 ) 76
( 0.307962 -0.0741164 0.0518739 ) 52
( 0.490152 -0.0739941 0.0479625 ) 58
( 0.380409 -0.090182 0.0399341 ) 25
( 0.490565 -0.0261536 0.0302222 ) 47
( 0.337954 0.00711432 0.0454282 ) 80
( 0.490639 -0.0418362 0.0443645 ) 76
( 0.348986 -0.0255211 0.0459243 ) 71
( 0.322495 -0.0412453 0.0514369 ) 70
( 0.288827 -0.0736723 0.0476587 ) 51
( 0.26191 -0.0901499 0.0585647 ) 50
( 0.272008 -0.033547 0.043972 ) 68
( 0.41206 -0.0894143 0.0659431 ) 55
( 0.402896 -0.0603527 0.069556 ) 64
( 0.350127 -0.04167 0.0344656 ) 42
( 0.398117 -0.0775646 0.0370989 ) 26
( 0.393028 -0.0401139 0.0409738 ) 44
( 0.334414 -0.0900785 0.0381687 ) 24
( 0.484297 -0.090183 0.0585303 ) 58
( 0.280478 -0.0551387 0.064099 ) 60
( 0.285009 -0.0903464 0.0307539 ) 22
( 0.300443 -0.0114089 0.0345034 ) 49
( 0.414382 -0.0164385 0.0690251 ) 73
( 0.357872 -0.0901849 0.0482784 ) 53
( 0.392403 -0.0896376 0.0710546 ) 55
( 0.442271 -0.087879 0.0446876 ) 56
( 0.490816 -0.0350857 0.0637962 ) 76
( 0.355398 -0.046956 0.0723105 ) 93
( 0.415267 -0.0685797 0.0343488 ) 35
( 0.452293 -0.0818063 0.0599529 ) 57
( 0.407113 0.00550832 0.0731068 ) 113
( 0.302199 0.00739347 0.0290359 ) 49
( 0.316059 -0.0231858 0.0731762 ) 101
( 0.282086 -0.0527195 0.0412312 ) 31
( 0.395659 -0.0582868 0.0346639 ) 35
( 0.25133 -0.0601924 0.0356369 ) 30
( 0.304523 -0.0901399 0.063647 ) 51
( 0.294758 -0.0463464 0.0741243 ) 91
( 0.386606 -0.0194198 0.0653836 ) 72
( 0.402138 -0.0236074 0.0353505 ) 44
( 0.474427 -0.0392316 0.0543468 ) 76
( 0.441191 -0.0252825 0.0454318 ) 74
( 0.355913 -0.0677211 0.0375112 ) 33
( 0.304135 0.0125431 0.0622196 ) 78
( 0.301411 -0.0597414 0.0397057 ) 31
( 0.272911 -0.012458 0.0378597 ) 48
( 0.26562 -0.00164077 0.0646587 ) 77
( 0.335731 0.00856675 0.0762414 ) 111
( 0.444601 -0.0610207 0.0713472 ) 66
( 0.288784 -0.0130025 0.0903624 ) 109
( 0.490043 -0.0730006 0.067715 ) 58
( 0.463053 -0.0567363 0.0669273 ) 66
( 0.380109 -0.0729464 0.071491 ) 85
( 0.329041 -0.00861516 0.0697993 ) 79
( 0.443552 -0.0353724 0.0713121 ) 74
( 0.34136 -0.0745347 0.0730549 ) 84
( 0.419309 -0.0201195 0.0449207 ) 74
( 0.467022 -0.0905418 0.0689706 ) 57
( 0.34792 -0.00761567 0.0541485 ) 80
( 0.427174 -0.0691801 0.0750972 ) 96
( 0.318398 -0.0906668 0.0497625 ) 52
( 0.408783 -0.0349872 0.0732654 ) 104
( 0.385461 -0.0546177 0.076092 ) 94
( 0.3708 -0.0280107 0.0734991 ) 103
( 0.251746 -0.0143355 0.071296 ) 68
( 0.335367 -0.0387368 0.0731026 ) 102
( 0.294417 -0.0272454 0.078202 ) 100
( 0.478098 -0.0466003 0.072513 ) 98
( 0.389839 -0.0350962 0.0766204 ) 104
( 0.373488 -0.00840343 0.0751064 ) 112
( 0.288909 -0.0730354 0.0672729 ) 51
( 0.425561 -0.090224 0.0802318 ) 87
( 0.330327 -0.0271392 0.0405875 ) 41
( 0.267214 -0.0398414 0.0682253 ) 68
( 0.426526 -0.0298767 0.0780311 ) 105
( 0.312008 -0.000428537 0.074745 ) 110
( 0.477411 -0.0272909 0.0770317 ) 107
( 0.312693 -0.0670197 0.0695082 ) 61
( 0.358889 -0.0897671 0.0902583 ) 84
( 0.351142 -0.0272554 0.0727308 ) 102
( 0.398547 -0.0692496 0.0891797 ) 95
( 0.382966 0.00872461 0.0784576 ) 112
( 0.362213 -0.0642092 0.0796458 ) 94
( 0.277022 -0.0149337 0.0738432 ) 99
( 0.398793 -0.0179288 0.0807708 ) 104
( 0.295211 -0.0094682 0.0698322 ) 78
( 0.363939 0.00901684 0.0737351 ) 112
( 0.26415 -0.0622572 0.0720964 ) 90
( 0.327963 -0.0732588 0.0900785 ) 83
( 0.322023 -0.0893678 0.0798538 ) 83
( 0.431937 -0.0501709 0.0816132 ) 96
( 0.406466 -0.0905344 0.0850425 ) 86
( 0.270885 -0.0903457 0.0759964 ) 81
( 0.373632 -0.0904689 0.0773353 ) 85
( 0.281439 -0.0626082 0.0823187 ) 91
( 0.375248 -0.0455368 0.0902681 ) 94
( 0.344807 -0.00707327 0.0903418 ) 111
( 0.459293 -0.0735685 0.0758796 ) 88
( 0.415714 0.000581942 0.0900591 ) 113
( 0.454808 -0.0473524 0.0821058 ) 97
( 0.287484 0.00566081 0.0843215 ) 109
( 0.386164 -0.0067433 0.0904549 ) 112
( 0.47413 -0.0822896 0.0847611 ) 89
( 0.290502 -0.0900866 0.0774184 ) 82
( 0.380183 -0.0258336 0.0906077 ) 103
( 0.413997 -0.0571652 0.085449 ) 95
( 0.332686 -0.0215645 0.0840843 ) 101
( 0.352363 -0.0385971 0.0901227 ) 102
( 0.251131 -0.0204617 0.0901731 ) 99
( 0.378855 -0.0665762 0.0902953 ) 94
( 0.447556 -0.0194229 0.0823684 ) 106
( 0.438055 -0.0788253 0.0904228 ) 87
( 0.270253 0.0127802 0.0903922 ) 108
( 0.25597 0.00168881 0.0824408 ) 108
( 0.490433 -0.0396337 0.0859135 ) 107
( 0.47279 -0.0630628 0.0900756 ) 98
( 0.33905 -0.0901106 0.0901799 ) 84
( 0.307883 -0.0353638 0.0902282 ) 101
( 0.340082 -0.0542302 0.0900343 ) 93
( 0.268742 -0.0295225 0.0903486 ) 99
( 0.490376 -0.0588659 0.0815447 ) 98
( 0.395772 -0.047224 0.0906555 ) 95
( 0.363735 -0.00119328 0.0904609 ) 112
( 0.414427 -0.0385727 0.0909958 ) 104
( 0.300307 -0.0732078 0.0830651 ) 82
( 0.268994 -0.00993346 0.0906654 ) 108
( 0.32013 -0.0554266 0.0830873 ) 92
( 0.279407 -0.080401 0.0904466 ) 82
( 0.398701 0.0103391 0.0903063 ) 113
( 0.44469 -0.0902999 0.0758634 ) 88
( 0.325296 -0.00270876 0.0900754 ) 110
( 0.305235 -0.0903142 0.0905317 ) 82
( 0.347913 -0.0723953 0.0907855 ) 84
( 0.451116 -0.0643146 0.0906004 ) 97
( 0.471554 -0.0411528 0.0904118 ) 106
( 0.441802 -0.0358803 0.090844 ) 105
( 0.267818 -0.0486726 0.0859667 ) 90
( 0.309241 -0.0154158 0.0901425 ) 101
( 0.416125 -0.0190262 0.090649 ) 104
( 0.386174 -0.0850452 0.0906939 ) 85
( 0.490351 -0.0204992 0.0902976 ) 107
( 0.465328 -0.0224067 0.0909421 ) 106
( 0.285263 -0.0401116 0.0901852 ) 100
( 0.306065 0.00884507 0.0905742 ) 110
( 0.417383 -0.075538 0.0906629 ) 87
( 0.490826 -0.0761881 0.0908179 ) 89
( 0.327232 -0.0391445 0.0907346 ) 101
( 0.457688 -0.0903198 0.0904649 ) 88
( 0.297629 -0.0555351 0.0907649 ) 91
( 0.264539 -0.0674739 0.0908036 ) 90
( 0.361022 -0.0207734 0.0901521 ) 102
)
