/*--------------------------------*- C++ -*----------------------------------*\
  =========                 |
  \\      /  F ield         | OpenFOAM: The Open Source CFD Toolbox
   \\    /   O peration     | Website:  https://openfoam.org
    \\  /    A nd           | Version:  4.x
     \\/     M anipulation  |
\*---------------------------------------------------------------------------*/
FoamFile
{
    version     2.0;
    format      ascii;
    class       Cloud<passiveParticle>;
    location    0;
    object      positions;
}
// * * * * * * * * * * * * * * * * * * * * * * * * * * * * * * * * * * * * * //

325
(
( 0.0388658 -0.08119 0.0295119 ) 1
( 0.0913146 -0.0733722 0.0222727 ) 3
( 0.244229 -0.0297151 0.029635 ) 26
( 0.104022 -0.0622818 0.0322528 ) 12
( 0.12122 -0.0409893 0.0239594 ) 22
( 0.0693597 -0.0265588 0.0234694 ) 20
( 0.0144283 -0.031387 0.0343346 ) 18
( 0.00979601 -0.0204782 0.0185719 ) 18
( 0.22964 -0.0151936 0.02875 ) 26
( 0.0184334 -0.0623014 0.0160011 ) 9
( 0.241505 -0.00395238 0.0175752 ) 35
( 0.20482 -0.0421206 0.0147004 ) 25
( 0.17969 -0.0292464 0.0209874 ) 24
( 0.247209 -0.0513048 0.0183885 ) 17
( 0.238882 -0.0713577 0.0254684 ) 17
( 0.126426 -0.0523768 0.0392775 ) 13
( 0.118001 -0.074459 0.0484034 ) 40
( 0.0664967 -0.0449695 0.0295644 ) 11
( 0.0817222 -0.0413954 0.0177718 ) 20
( 0.138722 -0.00759649 0.0336363 ) 31
( 0.122582 -0.0694254 0.0297616 ) 13
( 0.169708 -0.0152715 0.030783 ) 24
( 0.210745 -0.00900812 0.0295883 ) 34
( 0.124001 -0.0216634 0.0208775 ) 22
( 0.0608562 -0.0900882 0.0331786 ) 2
( 0.201974 -0.0203124 0.0159658 ) 25
( 0.0345759 -0.0221355 0.0162365 ) 19
( 0.231741 -0.0461989 0.0298127 ) 17
( 0.0976417 -0.0114924 0.0331863 ) 30
( 0.19765 -0.0680074 0.027607 ) 16
( 0.124035 -0.0284756 0.0393432 ) 22
( 0.077033 -0.00611333 0.0280749 ) 29
( 0.193334 -0.0835918 0.016485 ) 6
( 0.0536479 -0.0307131 0.0347696 ) 19
( 0.0763914 -0.0602123 0.0213586 ) 11
( 0.0506354 -0.0900321 0.0160956 ) 1
( 0.0599216 -0.0674054 0.0300228 ) 11
( 0.153247 -0.045278 0.0287132 ) 14
( 0.136524 -0.0531358 0.0221484 ) 13
( 0.180558 -0.0681174 0.0175302 ) 15
( 0.0315704 -0.0621046 0.0306992 ) 10
( 0.0484903 -0.0108697 0.0249297 ) 28
( 0.0293557 -0.0417912 0.0234991 ) 19
( 0.0874885 -0.0203813 0.018831 ) 21
( 0.139462 -0.0768776 0.0224025 ) 5
( 0.184139 -0.054007 0.030876 ) 15
( 0.140869 -0.0319132 0.0211172 ) 23
( 0.113501 -0.08207 0.0173059 ) 4
( 0.157497 -0.083819 0.0271162 ) 5
( 0.0886779 -0.0435653 0.0384339 ) 12
( 0.0678029 -0.079145 0.0163168 ) 2
( 0.106215 -0.0144843 0.0156028 ) 21
( 0.151138 -0.0227393 0.0355234 ) 23
( 0.189288 -0.00721886 0.0361103 ) 33
( 0.212028 -0.0901757 0.016184 ) 7
( 0.0962227 -0.0548957 0.0156146 ) 12
( 0.135714 -0.00507057 0.0145011 ) 31
( 0.0098072 -0.074726 0.0283034 ) 0
( 0.184717 -0.0102434 0.017084 ) 33
( 0.00973917 -0.0568917 0.0369863 ) 9
( 0.0815383 -0.0226496 0.0382736 ) 20
( 0.103547 -0.0901133 0.0325784 ) 3
( 0.0284142 -0.0174491 0.0353731 ) 19
( 0.196425 -0.0316982 0.0310975 ) 25
( 0.0475618 -0.0370014 0.0172347 ) 19
( 0.216499 -0.0774669 0.0307422 ) 7
( 0.216762 -0.0300805 0.0251217 ) 25
( 0.164446 -0.0590772 0.0369506 ) 14
( 0.225381 -0.0573798 0.0148227 ) 17
( 0.0840268 -0.0628228 0.0392911 ) 12
( 0.0477921 -0.0508641 0.0310814 ) 10
( 0.118804 -0.00366358 0.0265749 ) 31
( 0.175935 -0.0902557 0.0230191 ) 6
( 0.108669 -0.04421 0.0386062 ) 12
( 0.0584209 -3.34768e-05 0.0383006 ) 29
( 0.153836 -0.0121873 0.0192957 ) 32
( 0.249221 -0.087231 0.0176428 ) 8
( 0.228215 0.00823163 0.0255676 ) 35
( 0.0659142 0.0126516 0.0236137 ) 29
( 0.188634 0.010163 0.0260895 ) 33
( 0.0920954 0.0090557 0.0296225 ) 30
( 0.203732 0.00197022 0.0458754 ) 70
( 0.149381 0.00637409 0.0243356 ) 32
( 0.208564 0.0102051 0.0272034 ) 34
( 0.170266 0.00453891 0.0314641 ) 33
( 0.03537 0.00424044 0.0405107 ) 28
( 0.211748 -0.0541119 0.0288377 ) 16
( 0.0194525 -0.0902651 0.0354847 ) 0
( 0.0993092 -0.0353907 0.0239016 ) 21
( 0.230505 -0.0903344 0.0232625 ) 8
( 0.0283402 -0.0901146 0.0153245 ) 1
( 0.0799534 -0.0877838 0.0289315 ) 2
( 0.158536 -0.0655645 0.0194285 ) 14
( 0.00962299 -0.000941574 0.0157361 ) 27
( 0.00989543 -0.0452633 0.0212177 ) 9
( 0.11592 -0.0579634 0.014904 ) 13
( 0.0258015 -0.0467487 0.0422949 ) 9
( 0.0289063 -0.00369911 0.0213547 ) 28
( 0.221447 0.010392 0.0440591 ) 70
( 0.131628 -0.0558814 0.057769 ) 49
( 0.140689 -0.0729299 0.0543174 ) 41
( 0.16869 -0.0901434 0.0422497 ) 6
( 0.154706 -0.00719636 0.0545368 ) 68
( 0.033498 -0.0272904 0.0518833 ) 55
( 0.127597 -0.0900666 0.0562943 ) 40
( 0.0426126 -0.0769995 0.0597549 ) 37
( 0.167447 -0.0420506 0.0591446 ) 60
( 0.125845 -0.00927037 0.0692488 ) 67
( 0.230525 -0.0235265 0.0596121 ) 62
( 0.0466514 -0.0574913 0.0615824 ) 46
( 0.11598 -0.0443897 0.0603541 ) 49
( 0.0859022 -0.0775452 0.0621477 ) 39
( 0.242402 -0.0904121 0.0561194 ) 44
( 0.210191 -0.0330877 0.0605661 ) 61
( 0.246243 -0.0570907 0.0544895 ) 53
( 0.0741738 0.000129033 0.0625954 ) 65
( 0.0648636 -0.0381065 0.0655997 ) 56
( 0.20323 -0.0901074 0.0601542 ) 43
( 0.0099005 -0.0828604 0.071517 ) 72
( 0.168237 0.00997745 0.0581882 ) 69
( 0.0718676 -0.0639279 0.0604901 ) 47
( 0.18674 -0.0730241 0.0627564 ) 42
( 0.234096 -0.0727513 0.0540962 ) 44
( 0.148217 -0.0904964 0.0575253 ) 41
( 0.0900771 -0.01892 0.061234 ) 57
( 0.229331 -0.0473546 0.0515138 ) 53
( 0.209117 0.00973837 0.0654875 ) 70
( 0.175531 -0.00696405 0.0676857 ) 69
( 0.00968484 -0.0104389 0.0627 ) 63
( 0.0663399 -0.0174017 0.0680578 ) 56
( 0.0269842 -0.0605289 0.0716252 ) 81
( 0.19476 -0.0145088 0.0547034 ) 61
( 0.149536 -0.0370905 0.0663882 ) 59
( 0.0639246 -0.0902218 0.0565818 ) 38
( 0.166226 -0.0655395 0.0621122 ) 50
( 0.188344 -0.0334019 0.0595247 ) 60
( 0.104871 -0.0726768 0.0653787 ) 39
( 0.22308 -0.0906542 0.0613567 ) 44
( 0.249357 -0.00229891 0.0533537 ) 71
( 0.115331 -0.0248162 0.0588292 ) 58
( 0.0308723 0.00965504 0.0591035 ) 64
( 0.190807 0.00377655 0.0612023 ) 69
( 0.0881249 0.0129199 0.0685919 ) 66
( 0.0877036 -0.0529528 0.0558344 ) 48
( 0.102122 -0.00187316 0.0563614 ) 66
( 0.118635 0.00781966 0.0612608 ) 67
( 0.210862 -0.0567941 0.0505998 ) 52
( 0.0167724 -0.0267741 0.0716481 ) 90
( 0.0296122 -0.0852134 0.0724952 ) 73
( 0.0266679 -0.00868194 0.052943 ) 63
( 0.107635 -0.0899803 0.0555021 ) 39
( 0.150972 -0.056066 0.0552869 ) 50
( 0.204406 -0.0900427 0.0403201 ) 7
( 0.214821 -0.0757068 0.0525815 ) 43
( 0.142072 -0.0876329 0.0389871 ) 5
( 0.0629635 -0.0214227 0.049288 ) 56
( 0.0754559 0.00950398 0.040326 ) 29
( 0.00963249 -0.045484 0.0630876 ) 45
( 0.0993993 -0.0310161 0.0492893 ) 57
( 0.182307 -0.0244211 0.0430022 ) 60
( 0.125247 -0.0733411 0.0668417 ) 40
( 0.0628512 -0.0553871 0.0455655 ) 47
( 0.0466712 -0.0304801 0.0679858 ) 55
( 0.227542 -0.0893173 0.042511 ) 8
( 0.0701663 -0.0756921 0.0447018 ) 38
( 0.193638 -0.0476089 0.0469746 ) 51
( 0.0179577 -0.0611893 0.0543732 ) 45
( 0.2157 -0.00750931 0.05933 ) 70
( 0.158974 -0.0198073 0.0691401 ) 59
( 0.134451 -0.0120757 0.0520696 ) 67
( 0.210857 -0.0395014 0.0419117 ) 25
( 0.085321 -0.00572603 0.0474062 ) 66
( 0.133584 -0.0315279 0.0562694 ) 58
( 0.105986 -0.0589443 0.0514787 ) 48
( 0.150884 -0.0736424 0.0714358 ) 77
( 0.0456275 -0.0902955 0.0457127 ) 37
( 0.228308 -0.0304585 0.0412698 ) 26
( 0.0826516 -0.0905443 0.0479215 ) 38
( 0.177573 -0.0901369 0.0599488 ) 42
( 0.226275 -0.0625408 0.0393227 ) 17
( 0.143464 -0.0623465 0.0380116 ) 14
( 0.163975 -0.0244713 0.0504866 ) 59
( 0.136452 0.00753711 0.0511889 ) 67
( 0.179699 -0.0613809 0.0487171 ) 51
( 0.0803011 -0.0345891 0.0539586 ) 56
( 0.0102536 0.00459293 0.0491802 ) 63
( 0.0556601 -0.00401934 0.057882 ) 65
( 0.181377 -0.0761459 0.0357462 ) 6
( 0.0460248 -0.0656432 0.043798 ) 46
( 0.0443542 -0.0688346 0.0774235 ) 82
( 0.0219565 -0.0904691 0.0552327 ) 36
( 0.00982445 -0.0131042 0.0404223 ) 27
( 0.123396 -0.0900009 0.032732 ) 4
( 0.231367 -0.0078601 0.0471874 ) 71
( 0.23108 -0.00851856 0.0723026 ) 107
( 0.11418 -0.0118664 0.0440324 ) 67
( 0.116832 -0.090126 0.0731153 ) 76
( 0.145124 -0.00488189 0.0715322 ) 104
( 0.211648 -0.0204692 0.0453866 ) 61
( 0.0289141 -0.0750269 0.0454663 ) 37
( 0.04552 -0.0137601 0.0441457 ) 64
( 0.106732 -0.0130458 0.0715653 ) 102
( 0.182867 0.0119244 0.0449248 ) 69
( 0.00983691 -0.0283564 0.0532227 ) 54
( 0.172327 -0.0412215 0.0401398 ) 24
( 0.246491 -0.0901551 0.0368413 ) 8
( 0.0616043 -0.0554807 0.0746581 ) 83
( 0.0805049 -0.0484153 0.0734341 ) 83
( 0.197099 -0.070524 0.0466846 ) 52
( 0.226205 -0.0404474 0.0695226 ) 62
( 0.0490636 -0.0901807 0.0791233 ) 73
( 0.204178 -0.073868 0.0716103 ) 79
( 0.173433 -0.00618041 0.0479913 ) 69
( 0.249666 -0.073792 0.0659195 ) 44
( 0.0291022 -0.0438012 0.0614069 ) 46
( 0.247843 -0.04174 0.0727458 ) 98
( 0.00944816 -0.0774391 0.0476082 ) 36
( 0.0402008 -0.0116479 0.0671573 ) 64
( 0.181825 -0.0238712 0.0757555 ) 96
( 0.0981605 -0.0349206 0.0700423 ) 57
( 0.0868599 -0.0665691 0.0783745 ) 84
( 0.117058 0.00818327 0.0420224 ) 31
( 0.156504 -0.0547895 0.0757513 ) 86
( 0.216895 -0.0590203 0.0692408 ) 52
( 0.0806695 -0.0278877 0.0761001 ) 92
( 0.236287 -0.0591623 0.0713554 ) 53
( 0.0968035 -0.076668 0.0454984 ) 39
( 0.149284 -0.0386185 0.046765 ) 59
( 0.0504967 -0.0408464 0.0514911 ) 55
( 0.155871 0.0141517 0.0729693 ) 104
( 0.13165 -0.0428242 0.0723407 ) 94
( 0.0409002 0.00845256 0.0760505 ) 100
( 0.0925237 0.0137511 0.0492999 ) 66
( 0.141209 -0.0901429 0.0766779 ) 77
( 0.198264 -0.0533972 0.0656344 ) 52
( 0.154693 0.00875306 0.0430939 ) 68
( 0.198491 -0.0347325 0.0762623 ) 97
( 0.0756834 -0.0901021 0.0751094 ) 74
( 0.221826 -0.0803197 0.077626 ) 79
( 0.193152 0.00253248 0.0814152 ) 105
( 0.1207 -0.0259527 0.0777977 ) 94
( 0.0146869 -0.0712101 0.0874149 ) 81
( 0.202277 -0.0128367 0.0729237 ) 106
( 0.174784 -0.0722178 0.0778374 ) 78
( 0.0234183 -0.00799563 0.0766354 ) 99
( 0.0663358 -0.0379683 0.0852774 ) 92
( 0.109676 -0.0723525 0.0843066 ) 75
( 0.18114 -0.0476271 0.0736611 ) 87
( 0.0657165 -0.00218277 0.0805257 ) 101
( 0.194446 -0.0899139 0.0779808 ) 79
( 0.0402454 -0.0468799 0.07691 ) 82
( 0.0097929 0.00610738 0.0806346 ) 99
( 0.00991716 -0.0523772 0.0831441 ) 81
( 0.163102 -0.00316297 0.0825336 ) 104
( 0.224581 0.00928199 0.0771456 ) 107
( 0.131075 0.00824333 0.0762974 ) 103
( 0.136771 -0.0612379 0.0774183 ) 85
( 0.14275 -0.027544 0.0823633 ) 95
( 0.0613325 -0.07689 0.0709281 ) 38
( 0.0775424 0.0129507 0.0852987 ) 101
( 0.16171 -0.0902545 0.0716929 ) 77
( 0.247912 -0.0321693 0.0562214 ) 62
( 0.160062 -0.0681524 0.0902044 ) 86
( 0.0969761 -0.0902287 0.0722755 ) 75
( 0.245092 -0.0902266 0.0755991 ) 80
( 0.0580404 -0.0763713 0.0903048 ) 74
( 0.23137 -0.0176142 0.0901047 ) 98
( 0.10614 -0.0306398 0.0902618 ) 93
( 0.035845 -0.0808455 0.0905009 ) 73
( 0.0733129 -0.0557096 0.0904266 ) 83
( 0.242583 0.00725548 0.0698254 ) 71
( 0.228962 -0.0672273 0.0903386 ) 89
( 0.0858058 -0.0403199 0.0904313 ) 93
( 0.032733 -0.0246339 0.0830431 ) 91
( 0.208702 -0.0703414 0.0903575 ) 88
( 0.111867 0.00431001 0.0790193 ) 103
( 0.225368 -0.048172 0.0874979 ) 89
( 0.165429 -0.0363523 0.0777835 ) 95
( 0.12667 -0.0900285 0.0902421 ) 76
( 0.0880843 -0.00569789 0.0752988 ) 102
( 0.111344 -0.0463694 0.0793654 ) 85
( 0.0268826 0.0100866 0.0901015 ) 99
( 0.184971 -0.0368352 0.0903547 ) 96
( 0.126986 -0.00534314 0.0901499 ) 103
( 0.20612 -0.0516694 0.0840537 ) 88
( 0.0521046 -0.0174283 0.08183 ) 91
( 0.12642 -0.0392905 0.0906635 ) 94
( 0.0542082 0.0103469 0.0904477 ) 100
( 0.00983878 -0.030608 0.0898273 ) 90
( 0.218787 -0.0233056 0.0757275 ) 97
( 0.210196 -0.0901404 0.0901877 ) 79
( 0.0315509 -0.0614115 0.090526 ) 82
( 0.146319 -0.00985927 0.0904601 ) 104
( 0.188094 -0.0564823 0.090102 ) 87
( 0.146448 -0.0455142 0.0901525 ) 86
( 0.248493 -0.0573122 0.0865469 ) 89
( 0.176021 -0.090465 0.0850827 ) 78
( 0.180544 -0.00975709 0.090143 ) 105
( 0.143812 0.0116253 0.0905146 ) 104
( 0.0506056 -0.0559809 0.0907238 ) 82
( 0.141724 -0.0755371 0.0902267 ) 77
( 0.0945969 0.00428659 0.090601 ) 102
( 0.0860719 -0.0824643 0.0901913 ) 75
( 0.122309 -0.0585972 0.0904302 ) 85
( 0.107876 -0.0107426 0.0906837 ) 102
( 0.24719 -0.0768464 0.0901286 ) 80
( 0.232563 -0.090065 0.0906457 ) 80
( 0.0699354 -0.0189556 0.0902541 ) 92
( 0.169318 -0.0505334 0.0904894 ) 87
( 0.0256946 -0.0424537 0.0901316 ) 90
( 0.00982311 -0.010828 0.0904398 ) 99
( 0.0980961 -0.055847 0.0903667 ) 84
( 0.155683 -0.0897814 0.0903393 ) 77
( 0.104504 -0.0901994 0.0904398 ) 75
( 0.0377934 -0.0068629 0.0903068 ) 100
( 0.216806 -0.0035743 0.090144 ) 106
( 0.0898141 -0.0181965 0.0904754 ) 93
( 0.187888 -0.0761532 0.0909517 ) 78
( 0.212024 -0.0340379 0.0905464 ) 97
( 0.0476178 -0.0352031 0.0905958 ) 91
( 0.00984696 -0.09016 0.0900712 ) 72
( 0.242485 -0.0392183 0.0908652 ) 98
( 0.241531 0.0125639 0.0902543 ) 107
( 0.197127 -0.0208546 0.0902891 ) 97
( 0.164639 -0.0214068 0.0903797 ) 95
)
