/*--------------------------------*- C++ -*----------------------------------*\
| =========                 |                                                 |
| \\      /  F ield         | OpenFOAM: The Open Source CFD Toolbox           |
|  \\    /   O peration     | Version:  4.x                                   |
|   \\  /    A nd           | Web:      www.OpenFOAM.org                      |
|    \\/     M anipulation  |                                                 |
\*---------------------------------------------------------------------------*/
FoamFile
{
    version     2.0;
    format      ascii;
    class       volScalarField;
    location    "50.5";
    object      pSmooth;
}
// * * * * * * * * * * * * * * * * * * * * * * * * * * * * * * * * * * * * * //

dimensions      [1 -1 -2 0 0 0 0];

internalField   nonuniform List<scalar> 
114
(
69.1908
0.1
62.4667
0.1
55.7793
0.1
1.49567
68.4926
0.1
62.2028
0.1
56.3344
0.1
75.1171
4.96035
68.4199
0.1
61.6442
0.1
53.7405
0.1
19.552
74.858
0.329493
68.6717
0.1
63.4933
0.1
60.4036
0.1
19.7225
74.9894
0.705786
68.4523
0.1
62.5715
0.1
58.14
0.1
21.1245
74.8051
2.86648
68.2491
0.1
62.2082
0.1
57.2918
0.1
21.6156
74.7929
20.322
75.1128
1.32889
68.624
0.1
62.6211
0.1
57.6636
0.1
20.1291
75.0766
0.892523
68.4759
0.1
62.3499
0.1
57.3532
0.1
20.889
75.0829
2.3382
68.2119
0.1
61.2672
0.1
54.4506
0.1
20.6319
74.8765
1.63328
68.0241
20.0044
74.7244
0.68285
68.5634
0.1
63.5825
0.1
62.051
0.1
19.9865
74.7777
0.640761
68.544
0.1
63.2284
0.1
60.373
0.1
20.6777
74.8516
1.66537
68.2909
0.1
62.4655
0.1
58.6342
0.1
20.5166
74.8224
1.43284
68.3949
0.1
62.6381
)
;

boundaryField
{
    inlet
    {
        type            zeroGradient;
    }
    outlet
    {
        type            fixedValue;
        value           uniform 0;
    }
    wall
    {
        type            zeroGradient;
    }
    procBoundary5to1
    {
        type            processor;
        value           nonuniform List<scalar> 
32
(
68.9248
0.1
64.224
0.1
62.023
0.1
0.1
68.6805
0.1
63.7077
0.1
61.2338
0.1
74.8576
1.3322
68.4463
0.1
62.7281
0.1
58.087
0.1
20.5398
75.5882
2.14177
2.14177
2.14177
20.3284
75.2264
75.2264
75.2264
22.5329
22.5329
)
;
    }
    procBoundary5to4
    {
        type            processor;
        value           nonuniform List<scalar> 
12
(
81.5436
81.8399
81.8693
81.7571
81.891
81.973
82.1819
81.9235
81.3475
81.5284
81.6845
81.6374
)
;
    }
    procBoundary5to7
    {
        type            processor;
        value           nonuniform List<scalar> 
44
(
74.8231
1.99976
68.3562
0.1
62.4821
0.1
57.6248
0.1
20.7896
74.8231
3.6444
68.2766
0.1
62.4461
0.1
56.5875
0.1
22.9283
3.6444
74.9955
3.6444
68.2766
0.1
61.9104
0.1
56.9915
0.1
21.3936
74.9046
2.90484
0.1
68.1015
0.1
61.9104
0.1
58.7853
0.1
21.333
74.9956
2.75403
68.4016
0.1
0.1
62.1952
)
;
    }
}


// ************************************************************************* //
