/*--------------------------------*- C++ -*----------------------------------*\
  =========                 |
  \\      /  F ield         | OpenFOAM: The Open Source CFD Toolbox
   \\    /   O peration     | Website:  https://openfoam.org
    \\  /    A nd           | Version:  4.x
     \\/     M anipulation  |
\*---------------------------------------------------------------------------*/
FoamFile
{
    version     2.0;
    format      ascii;
    class       Cloud<passiveParticle>;
    location    0;
    object      positions;
}
// * * * * * * * * * * * * * * * * * * * * * * * * * * * * * * * * * * * * * //

356
(
( 0.0742892 -0.0554279 -0.0596089 ) 41
( 0.086094 -0.0205632 -0.0290953 ) 83
( 0.249944 -0.0571574 -0.0378132 ) 79
( 0.0502541 -0.0383889 -0.0671895 ) 49
( 0.177239 -0.0798306 -0.0518086 ) 36
( 0.0524142 -0.0752678 -0.0488927 ) 31
( 0.19301 -0.0267532 -0.0537399 ) 54
( 0.145405 -0.0834303 -0.0261735 ) 67
( 0.0553109 -0.0674275 -0.0310023 ) 72
( 0.0535473 -0.0265568 -0.0263231 ) 81
( 0.00981131 -0.0395222 -0.034547 ) 80
( 0.217693 -0.0898212 -0.0610214 ) 37
( 0.203174 -0.0500777 -0.0423852 ) 78
( 0.21204 -0.025552 -0.0483884 ) 55
( 0.0789878 -0.0210719 -0.0557666 ) 50
( 0.176408 -0.0714174 -0.0698401 ) 45
( 0.186323 -0.0423392 -0.0350585 ) 86
( 0.194264 -0.0148339 -0.0696416 ) 54
( 0.109198 -0.027958 -0.0582698 ) 51
( 0.226074 -0.0496264 -0.0706056 ) 47
( 0.241918 -0.0204817 -0.0591282 ) 56
( 0.242131 -0.0704498 -0.0256077 ) 79
( 0.0743355 -0.0366991 -0.0288469 ) 82
( 0.137487 -0.0446844 -0.039355 ) 75
( 0.204455 -0.0530952 -0.0637293 ) 46
( 0.095865 -0.0517319 -0.0335069 ) 74
( 0.0620308 -0.0407742 -0.0437363 ) 50
( 0.215496 -0.0645739 -0.0517745 ) 46
( 0.0272965 -0.0143396 -0.0498425 ) 48
( 0.0791357 -0.0729903 -0.0508546 ) 32
( 0.204788 -0.073143 -0.0374689 ) 69
( 0.11951 -0.0384518 -0.0448933 ) 52
( 0.2328 -0.0560249 -0.0473991 ) 47
( 0.026637 -0.0169541 -0.0301821 ) 80
( 0.138798 -0.057496 -0.0244271 ) 75
( 0.0278799 -0.07659 -0.0366758 ) 63
( 0.141192 -0.0201937 -0.070292 ) 53
( 0.0384781 -0.0747781 -0.0629051 ) 31
( 0.107967 -0.0802278 -0.0393418 ) 65
( 0.0730008 -0.0766503 -0.0323911 ) 64
( 0.110854 -0.0786136 -0.0197713 ) 65
( 0.135452 -0.0456524 -0.0684003 ) 43
( 0.149417 -0.0491859 -0.0546042 ) 44
( 0.240172 -0.0356013 -0.0718259 ) 26
( 0.171187 -0.02748 -0.0687468 ) 54
( 0.127289 -0.0901814 -0.0207482 ) 66
( 0.233597 -0.0753085 -0.0527937 ) 38
( 0.0365975 -0.0626312 -0.047425 ) 40
( 0.172201 -0.0571377 -0.0515109 ) 45
( 0.107374 -0.0761148 -0.0662796 ) 33
( 0.0937417 -0.0217298 -0.0690159 ) 51
( 0.138299 -0.0878241 -0.0550483 ) 34
( 0.187992 -0.0628689 -0.0404634 ) 77
( 0.133259 -0.0181672 -0.0413383 ) 84
( 0.0835504 -0.0383001 -0.0646916 ) 51
( 0.11264 -0.0200337 -0.0404125 ) 84
( 0.0985275 -0.0584652 -0.067238 ) 42
( 0.150515 -0.0110667 -0.0348474 ) 94
( 0.0401994 -0.0265866 -0.0411145 ) 81
( 0.066613 -0.0217668 -0.0404503 ) 82
( 0.0341837 -0.0347964 -0.0243218 ) 81
( 0.148753 -0.0793788 -0.0696042 ) 35
( 0.0114751 -0.0272415 -0.0627591 ) 48
( 0.0976317 -0.0660312 -0.0487524 ) 42
( 0.128891 -0.0732965 -0.0308472 ) 66
( 0.00964785 -0.00690656 -0.0306489 ) 89
( 0.239701 -0.043205 -0.0281823 ) 79
( 0.149997 -0.0624427 -0.0398171 ) 76
( 0.166721 -0.0709241 -0.0333799 ) 77
( 0.200245 -0.0861289 -0.0517095 ) 37
( 0.160765 -0.0281136 -0.0351829 ) 85
( 0.189261 -0.0353037 -0.0713494 ) 54
( 0.12132 -0.00643882 -0.0520011 ) 61
( 0.18743 -0.0824459 -0.0351184 ) 68
( 0.0275489 -0.0474665 -0.0382255 ) 71
( 0.0544923 -0.0580081 -0.0586508 ) 40
( 0.0304361 -0.0900413 -0.0511393 ) 31
( 0.0823637 -0.0437101 -0.045617 ) 41
( 0.157517 -0.0252522 -0.0545324 ) 53
( 0.13889 -0.0319422 -0.0544441 ) 53
( 0.0841512 -0.0901495 -0.0421008 ) 65
( 0.0328298 -0.0308048 -0.059511 ) 49
( 0.0498627 -0.00882569 -0.0361509 ) 90
( 0.0910736 -0.036483 -0.018249 ) 83
( 0.018598 -0.00910873 -0.0668561 ) 57
( 0.0703465 -0.058569 -0.0403345 ) 73
( 0.0534631 -0.0228897 -0.0552378 ) 49
( 0.174917 -0.0326829 -0.0482331 ) 54
( 0.009915 -0.0641513 -0.0350732 ) 71
( 0.00990629 -0.0802136 -0.0232054 ) 62
( 0.200331 -0.0502739 -0.0227574 ) 78
( 0.123695 -0.0552102 -0.0556191 ) 43
( 0.187007 -0.0901164 -0.0658845 ) 36
( 0.237111 -0.090104 -0.0656488 ) 38
( 0.114943 -0.061649 -0.0390374 ) 75
( 0.065436 -0.0145633 -0.0688039 ) 50
( 0.00990382 -0.0628662 -0.0617891 ) 39
( 0.0977537 -0.0328887 -0.0391831 ) 83
( 0.224905 -0.072983 -0.0351326 ) 70
( 0.17727 -0.056642 -0.024966 ) 77
( 0.224325 -0.0261867 -0.0329268 ) 88
( 0.208093 -0.0308343 -0.067061 ) 55
( 0.0435648 -0.0794473 -0.020287 ) 63
( 0.216674 -0.0900798 -0.041172 ) 69
( 0.243087 -0.0902309 -0.0437271 ) 38
( 0.026239 -0.0614383 -0.0240685 ) 71
( 0.0968663 -0.0142071 -0.0508432 ) 60
( 0.209478 -0.0732439 -0.0685487 ) 37
( 0.126463 -0.0683981 -0.0707321 ) 43
( 0.196471 -0.0903057 -0.0194148 ) 69
( 0.169596 -0.0902745 -0.0311153 ) 68
( 0.154351 -0.0877633 -0.0434531 ) 35
( 0.179868 -0.0233521 -0.0295192 ) 86
( 0.192725 -0.0687843 -0.0587806 ) 45
( 0.0797501 -0.0548163 -0.022515 ) 73
( 0.233953 -0.0678972 -0.0712042 ) 47
( 0.12166 -0.0747339 -0.0525141 ) 34
( 0.188241 -0.0460706 -0.0546677 ) 45
( 0.235435 -0.0359152 -0.0462251 ) 56
( 0.163256 -0.0480582 -0.0363454 ) 76
( 0.0584015 -0.0900872 -0.0631117 ) 32
( 0.216272 -0.0900177 -0.021388 ) 69
( 0.121403 -0.090115 -0.0651673 ) 34
( 0.150158 -0.0399995 -0.0233774 ) 85
( 0.0435228 -0.0442503 -0.0494718 ) 40
( 0.00989458 -0.0219038 -0.0436835 ) 48
( 0.161394 -0.0574909 -0.0681348 ) 44
( 0.121645 -0.0168176 -0.0690152 ) 52
( 0.124496 -0.0296245 -0.0278872 ) 84
( 0.103121 -0.0471757 -0.0517116 ) 42
( 0.203422 -0.0329846 -0.0322349 ) 87
( 0.0446487 -0.0900534 -0.0371021 ) 63
( 0.114493 -0.0438206 -0.0690501 ) 43
( 0.0100178 -0.0448253 -0.0535588 ) 39
( 0.0965276 -0.0902402 -0.0267839 ) 65
( 0.0279309 -0.0501178 -0.0603139 ) 40
( 0.0782179 -0.0900518 -0.061072 ) 32
( 0.0623558 -0.00559582 -0.0513178 ) 59
( 0.0644789 -0.0902172 -0.0442061 ) 32
( 0.119633 -0.0594923 -0.0199412 ) 75
( 0.00972243 -0.0236961 -0.0203812 ) 80
( 0.117934 -0.00258705 -0.0328526 ) 93
( 0.0111139 -0.0824099 -0.0584404 ) 30
( 0.220094 -0.049651 -0.0320706 ) 78
( 0.00985469 -0.00304097 -0.0500939 ) 57
( 0.130895 -0.0420903 0.00676854 ) 118
( 0.110706 -0.0513006 -0.00414728 ) 108
( 0.126408 -0.0172206 0.00203546 ) 118
( 0.170465 -0.0737934 0.0015657 ) 102
( 0.0585513 -0.0723168 0.000459712 ) 98
( 0.0397898 -0.00708685 -0.0191429 ) 90
( 0.225974 -0.0427456 -0.0018737 ) 122
( 0.134214 -0.0623977 0.00495133 ) 109
( 0.0216977 -0.0121389 0.00505666 ) 123
( 0.208195 -0.0191045 -0.0169067 ) 87
( 0.124898 0.00574788 0.00182165 ) 127
( 0.190618 -0.0340505 -0.0167402 ) 86
( 0.0607714 -0.010752 -0.00638773 ) 125
( 0.0199482 -0.033731 0.00797563 ) 114
( 0.159945 -0.00403903 -0.0129279 ) 128
( 0.0827763 -0.00871432 0.00347443 ) 125
( 0.122441 -0.0126796 -0.0166393 ) 93
( 0.0561902 -0.0565058 0.0138288 ) 107
( 0.110726 -0.0356931 0.00805099 ) 117
( 0.163283 -0.0374328 0.0137018 ) 119
( 0.239515 -0.0566985 0.000917072 ) 113
( 0.0910657 -0.0432619 0.000378877 ) 108
( 0.206264 -0.061817 0.0114867 ) 112
( 0.205793 -0.0496744 -0.00382189 ) 112
( 0.143215 -0.00865154 -0.00344685 ) 128
( 0.150745 -0.0739149 0.00327837 ) 101
( 0.161991 -0.0901742 0.00874158 ) 101
( 0.18641 -0.0488573 0.0119235 ) 111
( 0.228171 -0.0763504 0.00986823 ) 104
( 0.0353557 -0.0823315 -0.00152257 ) 97
( 0.235033 -0.0353431 0.0137166 ) 122
( 0.176867 -0.0174217 -0.0101331 ) 120
( 0.0382695 -0.0335913 0.000347006 ) 115
( 0.219244 -0.0643875 -0.00281628 ) 112
( 0.0563909 -0.0208841 0.00993906 ) 116
( 0.221721 -0.0902141 -0.00242769 ) 103
( 0.0262119 -0.064619 -0.00189249 ) 105
( 0.214585 -0.0378681 -0.0169527 ) 87
( 0.0961121 -0.0239536 0.00125535 ) 117
( 0.168955 -0.0184292 0.00807628 ) 120
( 0.101329 -0.0713728 0.00560633 ) 108
( 0.15031 -0.0515131 0.00834554 ) 110
( 0.056354 -0.0306791 -0.0071749 ) 116
( 0.238581 -0.0749264 -0.00672435 ) 104
( 0.158401 -0.0398401 -0.00523436 ) 119
( 0.0789697 -0.0902145 -0.0177907 ) 64
( 0.213274 -0.0130835 0.00141343 ) 130
( 0.0714963 -0.0901464 0.000487089 ) 98
( 0.193569 -0.0129933 -0.000535454 ) 129
( 0.118274 -0.0308293 -0.00935457 ) 118
( 0.206104 -0.0784512 -0.00703451 ) 103
( 0.179329 -0.0809791 -0.0150495 ) 68
( 0.0951484 -0.0901105 0.0123839 ) 99
( 0.0742739 -0.0714901 -0.0133862 ) 98
( 0.149167 -0.0902569 -0.00782461 ) 101
( 0.118306 -0.0902138 -0.00308241 ) 100
( 0.169353 -0.0540299 0.00339202 ) 111
( 0.0150818 -0.0902543 -0.00691142 ) 96
( 0.00982972 -0.0843384 0.0111178 ) 96
( 0.190939 -0.068319 0.000707835 ) 111
( 0.183942 -0.031861 0.00183772 ) 120
( 0.247358 -0.0414097 -0.00901845 ) 122
( 0.139183 -0.0237213 -0.0158746 ) 85
( 0.00985826 -0.0509831 0.00242635 ) 105
( 0.109959 -0.00686306 -0.00230263 ) 126
( 0.134732 -0.0900507 0.00826605 ) 100
( 0.065601 -0.00337734 0.011931 ) 125
( 0.0529211 -0.0901724 -0.00638622 ) 97
( 0.0710511 -0.0490841 0.00296524 ) 107
( 0.0423321 -0.0707278 0.0130213 ) 106
( 0.0180919 -0.00457648 -0.0128713 ) 123
( 0.230541 -0.0561967 -0.0165937 ) 79
( 0.0745156 -0.0287311 0.00461036 ) 116
( 0.185639 -0.0511648 -0.00779138 ) 111
( 0.203575 -0.0302252 -0.00115473 ) 121
( 0.160246 -0.0757714 -0.0153315 ) 67
( 0.133686 -0.0425395 -0.0126994 ) 118
( 0.0414694 -0.0134507 -0.000495621 ) 124
( 0.181594 -0.0902523 0.00215869 ) 102
( 0.182061 0.00900872 -0.0387658 ) 95
( 0.0877954 0.0117657 -0.0413274 ) 92
( 0.135556 0.014227 -0.0561544 ) 61
( 0.0586223 0.00902369 -0.0244297 ) 91
( 0.00979402 0.0117271 -0.0204917 ) 89
( 0.0781768 0.00488242 -0.0572369 ) 59
( 0.124092 0.00380837 -0.0687652 ) 61
( 0.148103 0.0133792 -0.0310441 ) 94
( 0.0433056 0.0103489 -0.0368431 ) 90
( 0.113564 0.0111029 -0.0463179 ) 61
( 0.0549294 0.0121106 -0.0563201 ) 58
( 0.105469 -0.000572562 -0.0624164 ) 60
( 0.177064 0.00187005 -0.00491706 ) 129
( 0.0110424 0.0100791 -0.000647236 ) 123
( 0.0869399 0.0111535 -0.00728984 ) 126
( 0.0435389 0.0110337 -0.011699 ) 124
( 0.209497 0.00574277 -0.00260219 ) 130
( 0.0630077 0.00877239 -0.00500626 ) 125
( 0.100221 0.00418673 0.0121179 ) 126
( 0.146058 0.00887913 0.00520075 ) 128
( 0.107695 0.0127073 -0.00532828 ) 126
( 0.153201 0.014271 -0.012047 ) 128
( 0.165951 0.00122121 0.0114761 ) 128
( 0.0330674 0.00394825 0.00353919 ) 124
( 0.139844 -0.0676299 -0.0559912 ) 44
( 0.0665673 -0.00902068 -0.025387 ) 91
( 0.00997864 -0.0901546 -0.0402908 ) 62
( 0.0479231 -0.048698 -0.0281942 ) 72
( 0.0789657 -0.00608356 -0.0406303 ) 91
( 0.0824996 -0.0655048 0.00342455 ) 107
( 0.00987367 0.00866825 -0.0662015 ) 57
( 0.235156 0.00625391 -0.0136875 ) 131
( 0.153819 -0.0372763 -0.0699226 ) 53
( 0.163207 -0.0901977 -0.0611745 ) 35
( 0.0435649 -0.00575032 -0.0574285 ) 58
( 0.12512 -0.0902012 -0.0405153 ) 66
( 0.0244207 0.00535168 -0.0342525 ) 89
( 0.0930024 -0.0710087 -0.0300196 ) 74
( 0.0736137 -0.0235286 -0.0141396 ) 116
( 0.10564 0.011639 -0.0265078 ) 92
( 0.0274784 0.00520413 -0.0537829 ) 57
( 0.0492156 -0.0617836 -0.0131949 ) 106
( 0.248988 -0.0474057 -0.0551098 ) 47
( 0.0973084 -0.00481773 -0.0333447 ) 92
( 0.0996819 -0.0900986 -0.0544728 ) 33
( 0.150168 -0.0251275 0.00490647 ) 119
( 0.173692 -0.00466257 -0.0270063 ) 95
( 0.218483 -0.0436716 -0.0532342 ) 46
( 0.192338 0.00533074 0.00726184 ) 129
( 0.231489 -0.0203967 0.00184145 ) 122
( 0.135622 0.00155861 -0.0408047 ) 93
( 0.0973089 -0.0635751 -0.0121509 ) 108
( 0.0602917 -0.0898434 -0.0247662 ) 64
( 0.212908 -0.0655404 -0.0212903 ) 78
( 0.191727 -0.00846039 -0.0199257 ) 95
( 0.151771 -0.0588243 -0.00979567 ) 110
( 0.0785291 0.00674321 -0.0246034 ) 91
( 0.0270907 -0.0902401 -0.0225944 ) 62
( 0.192943 -0.0685428 -0.0220901 ) 77
( 0.126613 0.0130721 -0.0244656 ) 93
( 0.10945 -0.0427661 -0.0222774 ) 83
( 0.103407 -0.0208546 -0.0177661 ) 83
( 0.158994 -0.0233635 -0.0160775 ) 85
( 0.159302 -0.0718791 -0.0545129 ) 35
( 0.0098417 -0.0632346 -0.0130733 ) 105
( 0.0629155 -0.0475856 -0.0151156 ) 73
( 0.0270526 -0.0221239 -0.0110187 ) 114
( 0.170642 -0.0386352 -0.0205948 ) 86
( 0.139257 -0.00180272 -0.0215015 ) 94
( 0.236311 -0.0901158 -0.0192999 ) 70
( 0.118596 -0.0704778 -0.00362828 ) 109
( 0.0896685 -0.00684962 -0.0150665 ) 92
( 0.232649 -0.0298089 -0.0154269 ) 88
( 0.0343762 -0.049177 -0.0109269 ) 106
( 0.0106224 -0.0427105 -0.0152115 ) 80
( 0.136517 -0.0751181 -0.0104252 ) 100
( 0.193333 0.00992198 -0.012803 ) 129
( 0.0988765 -0.0892482 -0.00708642 ) 99
( 0.0375689 -0.0519226 0.008563 ) 106
( 0.144034 -0.0614886 -0.076926 ) 14
( 0.173231 -0.044984 -0.0780706 ) 15
( 0.0858372 -0.0736464 -0.0694963 ) 33
( 0.00990509 -0.0445513 -0.0734301 ) 9
( 0.0408066 -0.0584746 -0.0739087 ) 10
( 0.056158 -0.0725107 -0.0721301 ) 2
( 0.067345 -0.044123 -0.0755019 ) 11
( 0.0422572 -0.0901609 -0.0747754 ) 1
( 0.205198 -0.0901706 -0.0779685 ) 7
( 0.244494 -0.0533221 -0.0797068 ) 17
( 0.224645 -0.0236426 -0.0754244 ) 26
( 0.0774366 -0.0263789 -0.0794598 ) 20
( 0.223741 -0.083113 -0.0788151 ) 8
( 0.0215746 -0.0742361 -0.0732734 ) 0
( 0.0854163 -0.0509154 -0.0800397 ) 12
( 0.109105 -0.0279992 -0.0799189 ) 21
( 0.209788 -0.0448851 -0.0810949 ) 16
( 0.192276 -0.0612072 -0.0772011 ) 15
( 0.172034 -0.0899119 -0.0789956 ) 6
( 0.128625 -0.0315661 -0.0806673 ) 22
( 0.0432558 -0.0193191 -0.0719753 ) 19
( 0.134224 -0.0879105 -0.0802321 ) 4
( 0.0333966 -0.0403809 -0.0775218 ) 19
( 0.112422 -0.0592805 -0.0814606 ) 13
( 0.0700935 -0.0898482 -0.0792703 ) 2
( 0.0220382 -0.0241678 -0.0793708 ) 18
( 0.0959248 -0.0901391 -0.0743671 ) 3
( 0.18882 -0.0799571 -0.0829467 ) 6
( 0.161229 -0.0710799 -0.08272 ) 14
( 0.206388 -0.0209719 -0.0842823 ) 25
( 0.159248 -0.0247865 -0.0844838 ) 23
( 0.0722416 -0.0657998 -0.0817963 ) 11
( 0.0229281 -0.0565909 -0.0824574 ) 9
( 0.0578287 -0.0279443 -0.0824066 ) 20
( 0.0343425 0.000891911 -0.0737557 ) 28
( 0.0544683 -0.00839284 -0.0842941 ) 28
( 0.218617 -0.063212 -0.083123 ) 16
( 0.113414 -0.0854735 -0.0828284 ) 4
( 0.144289 -0.0437914 -0.0861647 ) 14
( 0.241874 -0.0208084 -0.0850795 ) 26
( 0.00994138 -0.0900534 -0.0767515 ) 0
( 0.0948408 -0.0674464 -0.0861381 ) 12
( 0.228266 -0.03917 -0.0874333 ) 26
( 0.061563 0.00986042 -0.0878124 ) 29
( 0.0372767 -0.0741855 -0.0856079 ) 1
( 0.153305 -0.0900606 -0.0857647 ) 5
( 0.0505636 -0.0461135 -0.0860238 ) 10
( 0.00989591 -0.0018665 -0.0831816 ) 27
( 0.191286 -0.0449237 -0.08867 ) 15
( 0.0350517 -0.0122631 -0.0887201 ) 28
( 0.00991132 -0.070243 -0.0888815 ) 9
( 0.0927645 -0.0347397 -0.0890715 ) 21
( 0.0256973 -0.0900571 -0.0889497 ) 0
)
