/*--------------------------------*- C++ -*----------------------------------*\
| =========                 |                                                 |
| \\      /  F ield         | OpenFOAM: The Open Source CFD Toolbox           |
|  \\    /   O peration     | Version:  4.x                                   |
|   \\  /    A nd           | Web:      www.OpenFOAM.org                      |
|    \\/     M anipulation  |                                                 |
\*---------------------------------------------------------------------------*/
FoamFile
{
    version     2.0;
    format      ascii;
    class       volVectorField;
    location    "11";
    object      DDtUrel;
}
// * * * * * * * * * * * * * * * * * * * * * * * * * * * * * * * * * * * * * //

dimensions      [0 1 -2 0 0 0 0];

internalField   nonuniform List<vector> 
108
(
(0.00169097 -0.000110822 -0.000129597)
(0.00100992 -5.84424e-05 -6.6361e-05)
(0.000612533 -2.25465e-05 -1.96711e-05)
(0.000388841 -1.24671e-06 2.41375e-05)
(0.00026107 7.11442e-06 4.86863e-05)
(0.00019601 1.23039e-05 7.12599e-05)
(0.000158559 9.72979e-06 7.81489e-05)
(0.00015472 1.14415e-05 8.90787e-05)
(0.000138729 7.2284e-06 7.58722e-05)
(0.00163343 -0.000104421 -0.000122622)
(0.000943496 -4.85277e-05 -5.99068e-05)
(0.000551355 -1.65871e-05 -1.39565e-05)
(0.000334834 2.87086e-06 2.6754e-05)
(0.000216422 6.90243e-06 4.65596e-05)
(0.000154882 1.0262e-05 6.33373e-05)
(0.000120998 6.92588e-06 6.0654e-05)
(0.000110051 6.99051e-06 5.55601e-05)
(9.51172e-05 1.84478e-06 3.61148e-05)
(0.00159168 -7.03332e-05 -0.000116938)
(0.00089565 -3.07672e-05 -5.38191e-05)
(0.00051115 -1.02735e-05 -8.98464e-06)
(0.000300906 2.38293e-06 2.9305e-05)
(0.000188217 4.33507e-06 4.46579e-05)
(0.000128718 6.68526e-06 5.64958e-05)
(9.48602e-05 3.22786e-06 4.85729e-05)
(7.74986e-05 1.67204e-06 3.5613e-05)
(6.1437e-05 -3.83145e-06 1.33758e-05)
(0.00157478 -1.42026e-05 -0.000115368)
(0.000874219 -3.27353e-06 -5.17707e-05)
(0.000494329 -2.00128e-06 -9.09182e-06)
(0.000284408 1.12442e-07 2.79401e-05)
(0.000176045 -1.15762e-07 4.31452e-05)
(0.000113803 -1.85405e-07 5.27743e-05)
(8.27603e-05 -2.56711e-06 4.30304e-05)
(6.01523e-05 -4.63544e-06 2.80739e-05)
(4.53783e-05 -7.1294e-06 4.17823e-06)
(0.00170407 -0.000104904 -5.35103e-05)
(0.00102138 -5.4243e-05 -3.26452e-05)
(0.000619444 -2.06592e-05 -1.38537e-05)
(0.000394602 -1.90509e-06 1.17181e-05)
(0.000266115 5.75221e-06 3.23634e-05)
(0.000206105 1.07779e-05 5.20859e-05)
(0.000173354 1.04464e-05 5.73745e-05)
(0.000176116 1.07964e-05 5.907e-05)
(0.000165002 4.22575e-06 4.35121e-05)
(0.00165481 -9.93305e-05 -4.26454e-05)
(0.000963185 -4.57158e-05 -2.42543e-05)
(0.00056502 -1.41311e-05 -7.17009e-06)
(0.00034727 3.66726e-06 1.53983e-05)
(0.00022476 8.02837e-06 3.10813e-05)
(0.000167013 1.16102e-05 4.47505e-05)
(0.000136078 7.37144e-06 4.28485e-05)
(0.000130815 3.76104e-06 3.37555e-05)
(0.000119719 -3.3049e-06 1.51978e-05)
(0.00161529 -6.95079e-05 -3.58808e-05)
(0.000918674 -2.93289e-05 -2.03352e-05)
(0.000526651 -9.5063e-06 -2.81473e-06)
(0.000315335 3.71278e-06 1.78199e-05)
(0.0001999 5.3296e-06 3.04036e-05)
(0.000146673 6.94661e-06 4.00574e-05)
(0.0001149 1.31271e-06 3.36109e-05)
(0.000105177 -3.81003e-06 1.86928e-05)
(8.71465e-05 -1.20503e-05 -3.11007e-07)
(0.0015978 -1.4499e-05 -3.30216e-05)
(0.000896897 -3.86962e-06 -1.79897e-05)
(0.000508585 -2.67841e-06 -2.62803e-06)
(0.000298156 -1.08582e-06 1.8407e-05)
(0.000185859 -1.91445e-06 2.95882e-05)
(0.000128868 -2.4722e-06 3.62286e-05)
(9.85731e-05 -5.02933e-06 2.73568e-05)
(7.89956e-05 -8.35112e-06 1.05368e-05)
(6.35972e-05 -1.22056e-05 -7.15435e-06)
(0.00173322 -9.85559e-05 -2.47723e-05)
(0.00105101 -4.9228e-05 -1.80902e-05)
(0.000646 -1.59904e-05 -9.86506e-06)
(0.00041586 2.9102e-06 4.70986e-06)
(0.00028293 9.05442e-06 2.14827e-05)
(0.000219774 1.24976e-05 3.97481e-05)
(0.000192958 9.21069e-06 4.403e-05)
(0.000201956 7.49526e-06 4.0668e-05)
(0.000196475 1.34383e-06 1.87136e-05)
(0.00169286 -9.38652e-05 -1.64421e-05)
(0.0010015 -4.22335e-05 -1.11817e-05)
(0.00060307 -1.08613e-05 -3.46248e-06)
(0.000383287 7.16371e-06 1.06434e-05)
(0.000260136 1.0113e-05 2.36235e-05)
(0.000202796 1.14247e-05 3.72537e-05)
(0.000177346 5.80307e-06 3.43238e-05)
(0.000178618 8.19046e-08 2.46387e-05)
(0.000167726 -9.60559e-06 1.58165e-06)
(0.00165518 -6.61165e-05 -1.05395e-05)
(0.000960873 -2.88668e-05 -7.47797e-06)
(0.000565168 -9.32713e-06 -5.06309e-07)
(0.000351804 4.95228e-06 1.21384e-05)
(0.000235136 6.66745e-06 2.2137e-05)
(0.000184981 6.58847e-06 3.10198e-05)
(0.00015837 -1.81741e-06 2.57011e-05)
(0.000153752 -9.64373e-06 1.43462e-05)
(0.000135131 -2.1689e-05 -8.20425e-06)
(0.00163913 -1.16423e-05 -6.37265e-06)
(0.00094127 -7.02701e-06 -6.34639e-06)
(0.000546116 -4.64717e-06 -2.58419e-08)
(0.000334413 -2.86488e-06 1.30196e-05)
(0.000218787 -3.528e-06 2.27044e-05)
(0.000166008 -5.82456e-06 2.98569e-05)
(0.000138135 -8.24239e-06 2.12145e-05)
(0.000124871 -1.40944e-05 7.74861e-06)
(0.000103072 -2.11215e-05 -9.81629e-06)
)
;

boundaryField
{
    inlet
    {
        type            calculated;
        value           nonuniform List<vector> 
12
(
(0.00397775 -0.000330103 -0.000381754)
(0.0036919 -0.000393712 -0.000341378)
(0.00364328 -0.000267783 -0.000328062)
(0.00362491 -6.89739e-05 -0.000334165)
(0.00401738 -0.000287407 -9.42894e-06)
(0.00381473 -0.000348454 7.49464e-05)
(0.00375476 -0.000284643 9.62158e-05)
(0.00371676 -8.14013e-05 9.81697e-05)
(0.00415673 -0.000253312 1.60325e-05)
(0.00404128 -0.000315046 5.4114e-05)
(0.00396086 -0.000258284 6.23592e-05)
(0.00392832 -3.05074e-05 8.9256e-05)
)
;
    }
    outlet
    {
        type            calculated;
        value           nonuniform 0();
    }
    wall
    {
        type            calculated;
        value           nonuniform List<vector> 
63
(
(0.00415673 -0.000253312 1.60325e-05)
(0.00404128 -0.000315046 5.4114e-05)
(0.00396086 -0.000258284 6.23592e-05)
(0.00392832 -3.05074e-05 8.9256e-05)
(0.000395425 -3.17031e-06 2.5733e-07)
(0.000142299 1.45897e-05 3.05712e-05)
(5.85299e-05 3.97009e-06 2.69337e-05)
(-8.76542e-06 -1.95071e-05 3.10789e-05)
(0.000292265 2.90323e-05 -3.79432e-05)
(0.000125312 5.34044e-05 -2.3719e-06)
(3.45162e-05 -1.37886e-06 -4.35845e-06)
(-2.17371e-05 -2.21508e-05 8.78713e-07)
(0.000265655 4.59702e-05 -4.21392e-05)
(0.000177269 8.65044e-05 1.32138e-05)
(0.000107196 6.65912e-05 5.09286e-06)
(7.21001e-05 -1.39447e-05 2.44071e-05)
(0.000178355 2.46833e-05 -2.33363e-05)
(0.000162287 3.55707e-05 9.64332e-06)
(0.000101248 3.71986e-05 -6.00636e-06)
(8.38198e-05 -1.61925e-05 2.37364e-05)
(0.000196052 4.28457e-05 5.47811e-05)
(0.000211807 4.48179e-05 7.92292e-05)
(0.000229617 5.55906e-05 3.36525e-05)
(0.000184335 -2.83175e-05 7.75001e-05)
(0.000184789 1.07466e-05 5.74777e-05)
(0.000227452 1.41606e-05 2.65888e-05)
(0.000223979 -1.70252e-05 8.21272e-06)
(0.00022363 -1.01229e-05 1.29803e-05)
(0.000399452 3.4409e-05 9.34834e-05)
(0.000369075 8.63468e-06 2.23069e-05)
(0.000359986 -3.01352e-05 2.58581e-05)
(0.000284334 -3.74135e-05 1.82979e-06)
(0.000262632 -1.68711e-06 -4.80357e-07)
(0.00028133 -5.23987e-05 -4.3837e-05)
(0.000250842 -0.000119422 -3.66363e-05)
(0.000239688 -8.39466e-05 3.36303e-05)
(0.00397775 -0.000330103 -0.000381754)
(0.00401738 -0.000287407 -9.42894e-06)
(0.00415673 -0.000253312 1.60325e-05)
(0.000157785 -5.34349e-05 -4.17008e-05)
(0.000234246 -2.75174e-05 6.9559e-06)
(0.000395425 -3.17031e-06 2.5733e-07)
(0.000102582 -1.68498e-07 -3.02495e-05)
(0.000153032 -1.19704e-06 -5.07925e-05)
(0.000292265 2.90323e-05 -3.79432e-05)
(0.000107386 3.67508e-05 7.96741e-05)
(0.000179687 2.31453e-07 -2.77561e-07)
(0.000265655 4.59702e-05 -4.21392e-05)
(7.73758e-05 3.56976e-05 4.6167e-05)
(0.000134817 -6.94521e-06 2.24882e-05)
(0.000178355 2.46833e-05 -2.33363e-05)
(0.000113987 6.84224e-05 0.000102522)
(0.000226801 1.56697e-05 0.000100214)
(0.000196052 4.28457e-05 5.47811e-05)
(6.21056e-05 1.25837e-05 7.03729e-05)
(0.000157862 2.35986e-05 9.05422e-05)
(0.000184789 1.07466e-05 5.74777e-05)
(0.000218232 5.56435e-05 0.00023132)
(0.000346188 6.28342e-05 0.000156737)
(0.000399452 3.4409e-05 9.34834e-05)
(5.41375e-05 8.19289e-06 0.000187032)
(0.000165554 -6.35845e-06 0.000127102)
(0.000262632 -1.68711e-06 -4.80357e-07)
)
;
    }
    procBoundary4to0
    {
        type            processor;
        value           nonuniform List<vector> 
36
(
(0.00170912 -0.000106955 -0.000197247)
(0.00104299 -5.67498e-05 -9.70575e-05)
(0.000649445 -2.22534e-05 -2.47904e-05)
(0.0004277 -3.4478e-06 3.61124e-05)
(0.000294175 2.72083e-06 6.99719e-05)
(0.000224594 5.78533e-06 0.00010467)
(0.000177296 6.37847e-06 0.000114562)
(0.00017009 8.40325e-06 0.00013159)
(0.000150439 5.42322e-06 0.000119406)
(0.00165404 -0.000101873 -0.000196288)
(0.000977212 -4.93982e-05 -9.19681e-05)
(0.000586226 -1.74253e-05 -1.8635e-05)
(0.000367714 1.03663e-06 4.20856e-05)
(0.000241027 4.96253e-06 6.83194e-05)
(0.000174196 8.05605e-06 9.48281e-05)
(0.000127494 4.82165e-06 8.99566e-05)
(0.000113959 4.29343e-06 8.62228e-05)
(9.17429e-05 1.06217e-06 6.06691e-05)
(0.00160993 -7.0607e-05 -0.000191788)
(0.000927264 -3.20797e-05 -8.56012e-05)
(0.000539634 -1.0261e-05 -1.36746e-05)
(0.000327124 3.53013e-06 4.44921e-05)
(0.000206027 4.15924e-06 6.50283e-05)
(0.00014299 6.81619e-06 8.40081e-05)
(9.70092e-05 2.06974e-06 7.27687e-05)
(7.9512e-05 2.06602e-07 6.05592e-05)
(5.34861e-05 -3.69425e-06 2.85075e-05)
(0.00159292 -1.37986e-05 -0.000190704)
(0.000904638 -3.07437e-06 -8.4745e-05)
(0.000521422 -1.74377e-07 -1.31599e-05)
(0.000311454 1.68367e-06 4.35481e-05)
(0.000194524 1.33363e-07 6.30361e-05)
(0.000131168 -9.17436e-07 8.0878e-05)
(8.63311e-05 -1.85899e-06 6.64346e-05)
(6.24681e-05 -2.04643e-06 5.07763e-05)
(3.94732e-05 -4.15108e-06 1.56547e-05)
)
;
    }
    procBoundary4to5
    {
        type            processor;
        value           nonuniform List<vector> 
12
(
(0.000153974 1.24649e-05 5.52208e-05)
(9.1918e-05 2.26366e-06 4.9028e-06)
(4.7573e-05 -6.78638e-06 -1.97326e-05)
(2.56602e-05 -9.78157e-06 -2.94298e-05)
(0.000191447 7.92216e-06 2.16604e-05)
(0.000121773 -4.60911e-06 -1.51274e-05)
(7.77199e-05 -1.54163e-05 -3.27512e-05)
(3.9707e-05 -1.45225e-05 -3.80408e-05)
(0.000227307 3.7334e-06 -4.63408e-06)
(0.000170674 -1.09761e-05 -2.72997e-05)
(0.000125689 -2.46392e-05 -3.71624e-05)
(7.75075e-05 -2.28202e-05 -3.90485e-05)
)
;
    }
    procBoundary4to6
    {
        type            processor;
        value           nonuniform List<vector> 
27
(
(0.00158839 4.81525e-05 -0.000116745)
(0.000890494 2.31536e-05 -5.46651e-05)
(0.000507288 7.30718e-06 -1.19119e-05)
(0.000297746 -2.39438e-06 2.5307e-05)
(0.000184285 -4.60726e-06 4.10934e-05)
(0.000122615 -8.02991e-06 5.24591e-05)
(8.78498e-05 -8.24214e-06 4.33054e-05)
(6.89041e-05 -1.04451e-05 2.80847e-05)
(5.12735e-05 -9.73736e-06 5.61928e-06)
(0.00161184 4.7951e-05 -3.32944e-05)
(0.000912891 2.08839e-05 -2.42707e-05)
(0.000520536 6.17671e-06 -5.57389e-06)
(0.000308881 -4.16754e-06 1.42313e-05)
(0.000189844 -6.83644e-06 2.58881e-05)
(0.000130662 -1.01623e-05 3.21335e-05)
(9.51995e-05 -1.0456e-05 2.62883e-05)
(7.9055e-05 -1.218e-05 9.53182e-06)
(5.838e-05 -1.14014e-05 -8.38408e-06)
(0.00165555 4.69848e-05 -6.9035e-06)
(0.000956115 1.80628e-05 -1.25521e-05)
(0.000556326 4.40138e-06 -4.41115e-06)
(0.000337563 -6.28633e-06 8.28052e-06)
(0.000213058 -9.5128e-06 1.8637e-05)
(0.000151881 -1.41822e-05 2.33837e-05)
(0.000114045 -1.36918e-05 1.8303e-05)
(9.8859e-05 -1.5483e-05 4.59641e-06)
(7.02564e-05 -1.44354e-05 -1.59024e-05)
)
;
    }
}


// ************************************************************************* //
