/*--------------------------------*- C++ -*----------------------------------*\
| =========                 |                                                 |
| \\      /  F ield         | OpenFOAM: The Open Source CFD Toolbox           |
|  \\    /   O peration     | Version:  4.x                                   |
|   \\  /    A nd           | Web:      www.OpenFOAM.org                      |
|    \\/     M anipulation  |                                                 |
\*---------------------------------------------------------------------------*/
FoamFile
{
    version     2.0;
    format      ascii;
    class       volScalarField;
    location    "11";
    object      KslNext;
}
// * * * * * * * * * * * * * * * * * * * * * * * * * * * * * * * * * * * * * //

dimensions      [1 -3 -1 0 0 0 0];

internalField   nonuniform List<scalar> 
108
(
3421.45
7364.31
3447.46
7218.48
3457.75
7097.75
3437.09
7077.28
3367.96
3514.04
9416.34
3761.94
13909.1
3896.06
22243.9
3945.47
39577.9
3943.66
3560.87
10096.4
3870.99
16326.4
3987.34
28652.8
4007.38
72525.2
4015.51
3545.05
10234.3
3920.49
17648.1
4081.99
40478.8
4175.88
277272
4199.02
3411.33
7101.39
3392.15
6809.34
3377.05
6454.76
3291.86
6244.34
3210.37
3495.33
8336.81
3630.1
9811.32
3696.32
11695.3
3721.53
14637.8
3750.63
3522.21
8853.47
3747.12
11312.9
3809.19
13738.3
3769.35
15555.6
3732.44
3552.93
9449.44
3816.9
13464.1
3935.11
19301.4
3965.18
27899.4
3995.39
3353.85
6531.64
3219.09
5825.76
3178.07
5576.29
3139.06
5334.68
3033.33
3406.97
7215.92
3419.06
6850.43
3375.29
6514.41
3300.75
6038.91
3189.2
3464.01
7590.61
3514.09
7632.68
3491.83
7365.91
3390.42
6706.32
3262.89
3510.13
7829.12
3576.6
8231.34
3571.22
7974.02
3460.9
7057.83
3356.25
)
;

boundaryField
{
    inlet
    {
        type            zeroGradient;
    }
    outlet
    {
        type            zeroGradient;
    }
    wall
    {
        type            zeroGradient;
    }
    procBoundary4to0
    {
        type            processor;
        value           uniform 0;
    }
    procBoundary4to5
    {
        type            processor;
        value           uniform 0;
    }
    procBoundary4to6
    {
        type            processor;
        value           uniform 0;
    }
}


// ************************************************************************* //
