/*--------------------------------*- C++ -*----------------------------------*\
| =========                 |                                                 |
| \\      /  F ield         | OpenFOAM: The Open Source CFD Toolbox           |
|  \\    /   O peration     | Version:  4.x                                   |
|   \\  /    A nd           | Web:      www.OpenFOAM.org                      |
|    \\/     M anipulation  |                                                 |
\*---------------------------------------------------------------------------*/
FoamFile
{
    version     2.0;
    format      ascii;
    class       volScalarField;
    location    "11";
    object      QPartFluidCoeff;
}
// * * * * * * * * * * * * * * * * * * * * * * * * * * * * * * * * * * * * * //

dimensions      [1 -1 -3 -1 0 0 0];

internalField   nonuniform List<scalar> 
108
(
-1.62469e+07
-2.37199e+07
-2.77477e+07
-1.98152e+07
-2.34594e+07
-1.97556e+07
-2.91512e+07
-2.26257e+07
-3.15761e+07
-2.32369e+07
-2.4229e+07
-3.05419e+07
-3.26773e+07
-3.31259e+07
-2.78493e+07
-2.63678e+07
-1.84372e+07
-3.65054e+07
-2.21201e+07
-3.41742e+07
-2.64326e+07
-3.13353e+07
-2.78939e+07
-2.0764e+07
-2.3937e+07
-3.41946e+07
-2.20652e+07
-1.14737e+07
-2.23703e+07
-3.09323e+07
-1.89099e+07
-2.89328e+07
-2.08987e+07
-3.74061e+07
-1.98866e+07
-2.32442e+07
-1.67143e+07
-1.82993e+07
-2.65306e+07
-2.75974e+07
-2.80139e+07
-1.82326e+07
-1.81472e+07
-2.54334e+07
-3.16274e+07
-2.06032e+07
-2.52796e+07
-2.54408e+07
-2.56213e+07
-2.53065e+07
-2.22439e+07
-2.77537e+07
-3.02748e+07
-3.44398e+07
-1.38391e+07
-2.44234e+07
-3.29838e+07
-2.7563e+07
-3.04726e+07
-2.74168e+07
-2.68607e+07
-2.42394e+07
-2.84662e+07
-2.05426e+07
-2.85116e+07
-2.48044e+07
-3.2002e+07
-3.57127e+07
-2.38832e+07
-3.87516e+07
-2.81154e+07
-2.67325e+07
-1.50323e+07
-2.10611e+07
-1.46577e+07
-2.00561e+07
-2.08099e+07
-2.6381e+07
-2.47125e+07
-2.29352e+07
-2.6827e+07
-1.61117e+07
-3.00098e+07
-2.34265e+07
-1.93693e+07
-2.447e+07
-2.54183e+07
-2.41825e+07
-2.06514e+07
-2.82877e+07
-1.62396e+07
-2.52481e+07
-2.78718e+07
-2.31244e+07
-2.15221e+07
-2.32984e+07
-2.42838e+07
-2.66504e+07
-2.3406e+07
-2.46799e+07
-2.34004e+07
-2.2025e+07
-2.69238e+07
-2.81149e+07
-3.1512e+07
-1.63314e+07
-1.72229e+07
-2.33662e+07
)
;

boundaryField
{
    inlet
    {
        type            calculated;
        value           uniform 0;
    }
    outlet
    {
        type            calculated;
        value           nonuniform 0();
    }
    wall
    {
        type            calculated;
        value           uniform 0;
    }
    procBoundary4to0
    {
        type            processor;
        value           nonuniform List<scalar> 
36
(
325.035
379.119
506.362
393.861
529.208
618.099
441.947
330.754
455.661
385.463
724.516
681.397
607.217
538.044
474.935
779.552
551.1
520.952
389.202
425.76
677.98
468.688
651.258
651.545
620.65
388.935
709.314
362.589
509.246
722.762
781.969
405.017
747.187
639.313
427.466
197.882
)
;
    }
    procBoundary4to5
    {
        type            processor;
        value           nonuniform List<scalar> 
12
(
494.942
612.315
641.56
774.072
560.384
455.478
679.818
286.581
186.883
501.811
485.161
536.801
)
;
    }
    procBoundary4to6
    {
        type            processor;
        value           nonuniform List<scalar> 
27
(
747.751
675.634
455.615
607.343
828.83
467.702
652.379
502.803
747.362
570.919
679.81
736.715
617.791
503.479
594.772
591.475
469.229
714.736
347.736
410.268
539.713
527.836
534.082
486.928
766.11
654.431
337.58
)
;
    }
}


// ************************************************************************* //
