/*--------------------------------*- C++ -*----------------------------------*\
| =========                 |                                                 |
| \\      /  F ield         | OpenFOAM: The Open Source CFD Toolbox           |
|  \\    /   O peration     | Version:  4.x                                   |
|   \\  /    A nd           | Web:      www.OpenFOAM.org                      |
|    \\/     M anipulation  |                                                 |
\*---------------------------------------------------------------------------*/
FoamFile
{
    version     2.0;
    format      ascii;
    class       volVectorField;
    location    "11";
    object      UsPrev;
}
// * * * * * * * * * * * * * * * * * * * * * * * * * * * * * * * * * * * * * //

dimensions      [0 1 -1 0 0 0 0];

internalField   nonuniform List<vector> 
108
(
(2.66636e-10 3.43208e-10 -1.25077e-09)
(6.04562e-10 3.86053e-10 7.53364e-10)
(3.04694e-09 -8.91432e-10 1.78337e-09)
(3.54442e-09 -6.21679e-10 1.32643e-09)
(3.55129e-09 -6.45671e-10 -7.33223e-10)
(3.08139e-09 1.47219e-09 -4.51966e-09)
(-9.68925e-09 -1.56075e-09 -8.10543e-09)
(-1.73906e-08 -1.95654e-09 -3.54179e-09)
(-2.12094e-08 9.10344e-10 -2.74581e-09)
(5.13965e-10 -1.14619e-11 7.48007e-10)
(3.15978e-09 -1.07125e-09 1.13882e-09)
(4.16972e-09 -1.55127e-09 2.42982e-09)
(4.74967e-09 -1.21362e-09 6.71858e-10)
(2.33325e-09 -2.33304e-09 -3.87714e-09)
(-8.98265e-10 -3.1527e-09 -1.14399e-08)
(-1.74711e-08 -4.07069e-09 -8.85222e-09)
(-2.23576e-08 -1.64647e-09 -6.97029e-09)
(-3.41697e-08 -2.65004e-09 -1.35382e-09)
(1.30489e-09 -1.4126e-10 2.05746e-09)
(3.83235e-09 -6.54447e-10 3.7632e-09)
(4.78339e-09 -2.20649e-09 2.26431e-09)
(4.2162e-09 -3.18231e-10 -2.50315e-09)
(2.423e-10 -1.84285e-09 -8.75441e-09)
(-8.97938e-09 -4.22819e-09 -1.15066e-08)
(-1.90463e-08 -4.36148e-09 -1.18893e-08)
(-2.81241e-08 -5.69809e-09 -7.38081e-09)
(-4.01095e-08 -4.66088e-09 5.77604e-10)
(1.44353e-09 2.92872e-10 3.58535e-09)
(3.59023e-09 -5.0569e-10 3.73951e-09)
(4.85422e-09 -1.09884e-09 1.70237e-09)
(4.2413e-09 1.51738e-10 -2.97568e-09)
(-2.32003e-09 -1.19988e-09 -9.19116e-09)
(-1.58348e-08 -4.78776e-09 -1.39515e-08)
(-3.06736e-08 -3.89667e-09 -1.252e-08)
(-4.13858e-08 -6.94243e-09 -1.62485e-09)
(-4.29868e-08 -2.52091e-09 6.21712e-09)
(7.33954e-10 8.71635e-11 -9.44677e-11)
(1.60035e-09 -5.35926e-10 6.11527e-10)
(2.98007e-09 -6.84263e-11 9.67465e-10)
(3.52457e-09 -6.32475e-10 2.26381e-10)
(1.18984e-09 -4.36227e-10 -2.69295e-10)
(-9.14407e-10 -2.26092e-10 -4.41051e-10)
(-6.90317e-09 -5.28752e-10 -1.75316e-09)
(-1.63616e-08 -3.35755e-09 -2.544e-09)
(-2.0617e-08 -9.76076e-10 -3.98638e-10)
(3.84571e-10 -1.78932e-10 6.80561e-10)
(2.59617e-09 -1.1992e-09 7.28308e-10)
(3.7116e-09 -9.79542e-10 1.36408e-09)
(4.75403e-09 -2.64663e-10 -7.32504e-10)
(4.52114e-10 -1.73917e-10 -2.74131e-09)
(-2.88149e-09 -2.46338e-09 -2.28893e-09)
(-1.47395e-08 -5.30417e-09 -4.28084e-09)
(-2.16071e-08 -5.85181e-09 -6.38791e-09)
(-2.85143e-08 -3.53261e-09 1.03411e-09)
(5.75132e-10 -2.29413e-11 1.68431e-09)
(2.41973e-09 -9.49405e-10 1.63942e-09)
(3.27234e-09 -6.7783e-10 1.0305e-09)
(2.65536e-09 -1.11215e-09 -5.01997e-10)
(-1.04444e-09 -1.67779e-09 -4.50414e-09)
(-8.42738e-09 -2.09141e-09 -6.17135e-09)
(-1.94705e-08 -4.70595e-09 -6.73242e-09)
(-3.16869e-08 -6.66236e-09 -1.67882e-09)
(-3.93954e-08 -7.04892e-09 -1.15562e-09)
(1.27316e-09 -3.55885e-11 1.29593e-09)
(2.1326e-09 -2.72368e-10 1.76517e-09)
(3.65343e-09 -8.28275e-10 4.82171e-10)
(3.49902e-09 -1.07862e-09 -9.83703e-10)
(-9.89088e-10 3.7389e-10 -3.69422e-09)
(-2.01598e-08 -5.12229e-09 -5.35083e-09)
(-2.93801e-08 -7.9395e-09 -7.57151e-09)
(-3.74053e-08 -7.04835e-09 -1.5873e-09)
(-3.98496e-08 -4.10753e-09 1.83148e-09)
(6.52188e-10 -6.48236e-11 2.71517e-11)
(1.36557e-09 -1.27177e-10 2.50407e-10)
(1.84762e-09 -4.05821e-10 2.31529e-10)
(1.80588e-09 -4.16753e-10 -3.22816e-10)
(-4.14149e-11 -6.44901e-10 6.07636e-11)
(-1.92585e-09 -8.04364e-10 7.00512e-10)
(-3.32623e-09 -4.83342e-10 7.1248e-11)
(-7.17201e-09 -9.3704e-10 -3.57006e-10)
(-1.12697e-08 -2.58722e-09 4.87961e-10)
(1.14446e-09 -4.28242e-10 -2.21437e-10)
(1.86535e-09 -8.08724e-10 1.98803e-10)
(1.97092e-09 -8.44209e-10 2.10531e-10)
(1.9707e-09 -2.20834e-10 4.39649e-11)
(2.43121e-10 -4.78645e-10 -7.28573e-10)
(-7.5915e-09 -3.43147e-09 -4.6362e-10)
(-1.25599e-08 -2.929e-09 -3.76122e-10)
(-1.68406e-08 6.98637e-10 -2.9806e-10)
(-1.98118e-08 -1.97528e-09 2.20027e-09)
(4.08172e-10 -3.71185e-10 7.50855e-10)
(1.9228e-09 -1.16406e-09 -4.94801e-12)
(1.60621e-09 -4.29276e-10 5.10958e-10)
(9.97374e-10 -5.14285e-10 -3.08433e-10)
(1.03016e-09 -5.58653e-10 -1.7187e-09)
(-8.48584e-09 -2.04707e-09 -2.07541e-09)
(-2.05318e-08 -4.25375e-09 -1.701e-09)
(-2.60914e-08 -3.82037e-09 -1.27161e-09)
(-2.64021e-08 -5.99136e-09 -1.31943e-09)
(1.06679e-09 -4.0381e-10 3.58715e-10)
(1.60204e-09 1.04342e-10 1.66241e-10)
(1.85903e-09 4.0367e-10 2.86054e-10)
(6.7309e-10 -9.00784e-10 -3.04332e-10)
(-1.46806e-09 -1.10603e-09 -3.29274e-11)
(-7.62141e-09 -1.99735e-09 4.72479e-10)
(-2.23113e-08 -4.82676e-09 -1.77272e-09)
(-7.41349e-08 2.114e-08 -4.53276e-10)
(-3.2657e-08 -3.95921e-09 7.8172e-10)
)
;

boundaryField
{
    inlet
    {
        type            calculated;
        value           uniform (0 0 0);
    }
    outlet
    {
        type            calculated;
        value           nonuniform 0();
    }
    wall
    {
        type            calculated;
        value           uniform (0 0 0);
    }
    procBoundary4to0
    {
        type            processor;
        value           uniform (0 0 0);
    }
    procBoundary4to5
    {
        type            processor;
        value           uniform (0 0 0);
    }
    procBoundary4to6
    {
        type            processor;
        value           uniform (0 0 0);
    }
}


// ************************************************************************* //
