/*--------------------------------*- C++ -*----------------------------------*\
| =========                 |                                                 |
| \\      /  F ield         | OpenFOAM: The Open Source CFD Toolbox           |
|  \\    /   O peration     | Version:  4.x                                   |
|   \\  /    A nd           | Web:      www.OpenFOAM.org                      |
|    \\/     M anipulation  |                                                 |
\*---------------------------------------------------------------------------*/
FoamFile
{
    version     2.0;
    format      ascii;
    class       volScalarField;
    location    "40";
    object      particleRelTemp;
}
// * * * * * * * * * * * * * * * * * * * * * * * * * * * * * * * * * * * * * //

dimensions      [0 0 0 0 0 0 0];

internalField   nonuniform List<scalar> 
87
(
-6.02624e-11
-5.44897e-11
-3.62297e-11
-2.99916e-11
-2.41571e-11
9.44818e-12
1.74928e-11
3.14881e-11
5.53302e-11
-3.66659e-11
-2.78305e-11
-1.76566e-11
3.87137e-12
1.20939e-11
2.94523e-11
5.19675e-11
6.42886e-11
7.96303e-11
-1.74736e-11
-9.90019e-12
3.89432e-12
2.92894e-11
4.54817e-11
5.8004e-11
8.27201e-11
9.26658e-11
1.16603e-10
-4.22844e-11
-2.68151e-11
-1.4666e-11
1.03063e-12
2.38943e-11
4.68557e-11
6.17132e-11
8.54714e-11
9.84338e-11
-2.96653e-11
-8.33594e-12
1.12667e-11
2.42772e-11
5.50817e-11
8.68533e-11
9.45467e-11
1.27829e-10
1.59773e-10
3.35999e-12
1.05453e-11
3.24912e-11
5.11151e-11
8.44675e-11
1.05749e-10
1.24711e-10
1.60684e-10
1.88891e-10
-2.29216e-11
-1.03198e-11
1.7604e-11
3.91848e-11
6.30656e-11
9.44105e-11
1.17653e-10
1.28698e-10
1.475e-10
8.02882e-13
1.90388e-11
3.93468e-11
6.31625e-11
9.58253e-11
1.20978e-10
1.53302e-10
1.7624e-10
2.03736e-10
1.31331e-11
4.70218e-11
6.19906e-11
9.54839e-11
1.24272e-10
1.56641e-10
1.87663e-10
2.15257e-10
2.2918e-10
-1.40559e-11
5.30947e-12
2.7246e-11
8.53552e-12
3.52376e-11
2.57829e-11
)
;

boundaryField
{
    inlet
    {
        type            calculated;
        value           nonuniform 0();
    }
    outlet
    {
        type            calculated;
        value           nonuniform List<scalar> 9(5.53302e-11 7.96303e-11 1.16603e-10 9.84338e-11 1.59773e-10 1.88891e-10 1.475e-10 2.03736e-10 2.2918e-10);
    }
    wall
    {
        type            calculated;
        value           nonuniform List<scalar> 
57
(
-6.02624e-11
-3.66659e-11
-1.74736e-11
-5.44897e-11
-2.78305e-11
-9.90019e-12
-3.62297e-11
-1.76566e-11
3.89432e-12
-2.99916e-11
3.87137e-12
2.92894e-11
-2.41571e-11
1.20939e-11
4.54817e-11
9.44818e-12
2.94523e-11
5.8004e-11
1.74928e-11
5.19675e-11
8.27201e-11
3.14881e-11
6.42886e-11
9.26658e-11
5.53302e-11
7.96303e-11
1.16603e-10
-6.02624e-11
-4.22844e-11
-2.29216e-11
-1.40559e-11
-5.44897e-11
-2.68151e-11
-1.03198e-11
5.30947e-12
-3.62297e-11
-1.4666e-11
1.7604e-11
2.7246e-11
-2.99916e-11
1.03063e-12
3.91848e-11
-2.41571e-11
2.38943e-11
6.30656e-11
9.44818e-12
4.68557e-11
9.44105e-11
1.74928e-11
6.17132e-11
1.17653e-10
3.14881e-11
8.54714e-11
1.28698e-10
5.53302e-11
9.84338e-11
1.475e-10
)
;
    }
    procBoundary1to0
    {
        type            processor;
        value           nonuniform List<scalar> 
12
(
-7.54376e-11
-5.03037e-11
-4.18667e-11
-5.56876e-11
-3.52385e-11
-2.05267e-11
-3.87646e-11
-2.00763e-11
-7.10736e-12
-3.16015e-11
-1.03627e-11
2.9023e-12
)
;
    }
    procBoundary1to3
    {
        type            processor;
        value           nonuniform List<scalar> 
27
(
-2.20143e-11
-5.99639e-12
1.56594e-11
3.43622e-11
4.86713e-11
7.56624e-11
9.56798e-11
1.22365e-10
1.4791e-10
5.44602e-13
3.05514e-11
4.13004e-11
6.90746e-11
9.20223e-11
1.08252e-10
1.44642e-10
1.72227e-10
1.86552e-10
2.83745e-11
4.83623e-11
7.87546e-11
9.70674e-11
1.25994e-10
1.59779e-10
1.86524e-10
2.261e-10
2.37067e-10
)
;
    }
    procBoundary1to5
    {
        type            processor;
        value           nonuniform List<scalar> 
32
(
5.13845e-11
7.84309e-11
9.96134e-11
1.29383e-10
1.49516e-10
1.71719e-10
6.20188e-11
7.97837e-11
1.13635e-10
1.41237e-10
1.67281e-10
1.90556e-10
2.15622e-10
5.28165e-11
8.52918e-11
1.15033e-10
1.37902e-10
1.66516e-10
2.0028e-10
2.25465e-10
2.52889e-10
-1.19998e-11
-7.06964e-13
5.13845e-11
6.20188e-11
2.82125e-11
3.04361e-12
6.20188e-11
5.28165e-11
2.40256e-11
5.28165e-11
2.62517e-11
)
;
    }
    procBoundary1to7
    {
        type            processor;
        value           uniform 3.8207e-11;
    }
}


// ************************************************************************* //
