/*--------------------------------*- C++ -*----------------------------------*\
  =========                 |
  \\      /  F ield         | OpenFOAM: The Open Source CFD Toolbox
   \\    /   O peration     | Website:  https://openfoam.org
    \\  /    A nd           | Version:  4.x
     \\/     M anipulation  |
\*---------------------------------------------------------------------------*/
FoamFile
{
    version     2.0;
    format      ascii;
    class       vectorField;
    location    0;
    object      v;
}
// * * * * * * * * * * * * * * * * * * * * * * * * * * * * * * * * * * * * * //

312
(
( -3.76616e-09 5.96205e-09 1.51483e-08 )  
( -3.87128e-09 6.57822e-09 1.1966e-08 )  
( -3.88147e-09 4.79554e-09 1.44612e-08 )  
( -3.28268e-09 6.39217e-09 9.79828e-09 )  
( 3.51046e-09 2.75756e-09 1.97817e-08 )  
( 1.53083e-09 3.81107e-09 9.85564e-09 )  
( -5.91129e-09 5.89009e-09 1.34205e-08 )  
( 3.46452e-09 6.31834e-09 8.13408e-09 )  
( -9.19232e-10 6.50878e-09 1.18655e-08 )  
( -4.65636e-09 5.2421e-09 1.07698e-08 )  
( -6.63601e-09 7.8409e-09 1.29523e-08 )  
( 1.91218e-10 3.51801e-09 6.75602e-09 )  
( -2.11025e-09 1.32862e-09 3.63706e-09 )  
( -1.1458e-09 2.3649e-09 6.92256e-09 )  
( -4.66682e-09 3.35549e-09 1.08669e-08 )  
( -4.65594e-09 2.15658e-09 6.60846e-09 )  
( -5.33426e-10 6.30467e-10 2.42235e-09 )  
( -2.14924e-09 1.67713e-09 6.02798e-09 )  
( 8.0683e-10 3.06307e-09 8.28104e-09 )  
( -3.35018e-09 2.11263e-09 5.24195e-09 )  
( -3.33949e-09 2.09555e-09 5.10114e-09 )  
( -1.04132e-09 1.22766e-09 2.22641e-09 )  
( -4.45334e-09 3.93892e-09 1.04366e-08 )  
( -3.88709e-09 1.64066e-09 5.67996e-09 )  
( -1.01445e-09 1.11979e-09 2.0898e-09 )  
( -1.60009e-10 2.12904e-10 1.2081e-09 )  
( -5.19555e-10 4.66485e-10 1.6072e-09 )  
( -2.65516e-09 1.77638e-09 4.59642e-09 )  
( -1.90858e-09 8.35272e-10 3.55979e-09 )  
( -4.65281e-09 2.3343e-09 5.99424e-09 )  
( -4.06741e-09 2.65861e-09 7.0837e-09 )  
( -2.24117e-09 1.37072e-09 4.32655e-09 )  
( -7.56013e-10 4.84302e-09 8.06472e-09 )  
( -3.32725e-09 2.53079e-09 5.30078e-09 )  
( -2.88142e-09 2.47563e-09 4.74404e-09 )  
( -1.25951e-09 1.31171e-09 7.58733e-09 )  
( -4.99883e-09 3.09125e-09 6.00947e-09 )  
( 5.06536e-10 3.91971e-10 4.40012e-09 )  
( 9.67569e-10 1.59951e-09 3.32822e-09 )  
( -3.74361e-09 2.6483e-09 5.88407e-09 )  
( -2.56415e-09 1.71722e-09 4.30998e-09 )  
( -3.80888e-09 2.06393e-09 5.52302e-09 )  
( -3.48114e-09 7.57481e-10 4.02058e-09 )  
( -3.7386e-09 2.97922e-09 5.52985e-09 )  
( -6.82565e-09 3.0622e-09 7.60787e-09 )  
( -2.43309e-09 8.2002e-10 5.91648e-09 )  
( -3.4261e-10 3.06028e-10 1.31381e-09 )  
( -4.48085e-09 2.73659e-09 8.76278e-09 )  
( -5.05572e-10 -1.39319e-10 3.05449e-09 )  
( -6.23419e-10 6.30836e-10 3.15845e-09 )  
( -2.34202e-09 4.01199e-10 8.05438e-09 )  
( -5.57747e-09 2.83348e-09 7.69633e-09 )  
( -1.0845e-09 3.48439e-10 3.39682e-09 )  
( -2.77735e-09 2.14964e-09 4.36318e-09 )  
( -1.09486e-09 1.25009e-09 2.87421e-09 )  
( -6.14617e-09 3.56719e-09 7.89542e-09 )  
( -4.12254e-09 2.56633e-09 7.52819e-09 )  
( -5.65884e-09 4.35403e-09 1.09144e-08 )  
( -1.43885e-09 3.39693e-09 9.04629e-09 )  
( -6.80609e-10 5.3561e-10 1.9741e-09 )  
( -4.38373e-09 2.71997e-09 6.48988e-09 )  
( -3.99155e-09 2.60134e-09 5.61638e-09 )  
( -6.06537e-09 2.70458e-09 6.81943e-09 )  
( -3.09357e-09 1.72485e-09 5.23366e-09 )  
( 4.51806e-11 1.69436e-10 1.11875e-09 )  
( -4.88813e-09 2.60094e-09 5.43496e-09 )  
( -1.58408e-09 1.04351e-09 3.01724e-09 )  
( -4.76233e-09 2.66381e-09 6.28446e-09 )  
( -5.42812e-09 2.81149e-09 8.84847e-09 )  
( 3.34066e-10 3.2674e-10 5.52324e-09 )  
( -4.77682e-09 4.07521e-09 9.44132e-09 )  
( -4.81176e-09 2.75054e-09 8.7713e-09 )  
( -3.00917e-09 3.11546e-09 1.11407e-08 )  
( -3.10864e-09 2.4617e-09 4.66945e-09 )  
( -2.0093e-09 1.54119e-09 2.9584e-09 )  
( -4.20331e-09 2.05004e-09 6.08285e-09 )  
( -2.29873e-09 2.16445e-09 4.03384e-09 )  
( -4.32659e-09 1.61943e-09 6.74981e-09 )  
( 1.43245e-09 1.68084e-09 3.97803e-09 )  
( -1.63809e-09 1.19665e-09 2.35767e-09 )  
( -2.42136e-09 -2.06137e-10 3.88051e-09 )  
( -3.22028e-09 2.08552e-09 4.35735e-09 )  
( -1.11713e-09 6.76796e-10 1.76994e-09 )  
( -4.41374e-09 2.76616e-09 6.0057e-09 )  
( -1.97455e-10 6.36675e-10 7.8279e-10 )  
( -4.07421e-09 3.85e-09 7.36568e-09 )  
( -1.49997e-09 9.79193e-10 3.09279e-09 )  
( -4.38143e-09 2.79143e-09 6.5275e-09 )  
( -4.84584e-10 3.76017e-10 8.5179e-10 )  
( -8.98764e-10 6.55341e-10 1.44967e-09 )  
( -5.23286e-09 2.34451e-09 7.07884e-09 )  
( -3.50338e-10 9.48287e-10 2.82175e-09 )  
( -1.57267e-10 -4.79728e-10 1.82655e-09 )  
( -1.11765e-09 9.93501e-10 2.24835e-09 )  
( -5.84362e-09 2.79766e-09 7.16691e-09 )  
( 3.53177e-09 3.81342e-09 8.31152e-09 )  
( 2.78117e-09 3.46903e-09 3.44352e-09 )  
( 6.48983e-10 1.03021e-09 2.32467e-09 )  
( 3.33353e-09 1.32302e-09 5.41505e-09 )  
( -2.88615e-10 1.42002e-10 1.72962e-09 )  
( -2.30532e-09 1.74111e-09 5.08658e-09 )  
( -3.74616e-10 7.57772e-10 3.24878e-09 )  
( -1.97157e-09 2.27902e-09 9.25099e-09 )  
( 1.22018e-09 3.95701e-09 8.34998e-09 )  
( -3.00373e-09 1.91467e-09 7.39363e-09 )  
( -6.13924e-09 3.14663e-09 1.03062e-08 )  
( -2.28551e-09 1.78446e-09 4.16504e-09 )  
( 5.96624e-09 7.39808e-09 3.67904e-09 )  
( -2.99311e-09 1.20954e-09 6.35381e-09 )  
( -4.10639e-09 2.5221e-09 5.57936e-09 )  
( -1.40083e-09 1.30495e-09 4.74294e-09 )  
( -4.99308e-09 2.72783e-09 8.7443e-09 )  
( -4.97495e-09 1.85797e-09 7.04432e-09 )  
( -1.90039e-09 6.03327e-10 3.18973e-09 )  
( 7.31138e-10 4.24498e-10 2.54759e-09 )  
( -4.78519e-09 3.26052e-09 8.65065e-09 )  
( -4.22864e-10 -1.31851e-10 3.46697e-09 )  
( -3.03363e-09 5.06627e-09 1.15625e-08 )  
( -2.21341e-09 8.77706e-10 5.46225e-09 )  
( -3.09152e-09 1.81806e-09 4.43962e-09 )  
( -1.44752e-09 2.52757e-09 4.1236e-09 )  
( -3.62941e-09 2.57366e-09 5.36979e-09 )  
( -2.33814e-10 5.51252e-10 6.44531e-10 )  
( -8.45722e-10 2.70167e-09 1.15766e-08 )  
( -1.09919e-09 -3.287e-10 2.76494e-09 )  
( -1.49019e-09 1.71471e-09 3.10702e-09 )  
( -7.75149e-10 9.90189e-10 4.3218e-09 )  
( -4.10754e-09 9.67679e-10 5.81743e-09 )  
( -6.38577e-10 2.80748e-10 1.11311e-09 )  
( 4.76331e-10 3.78014e-10 2.49564e-09 )  
( -3.0674e-09 1.46128e-09 6.78723e-09 )  
( -1.06423e-09 1.03583e-09 1.34736e-09 )  
( 1.3656e-09 3.02574e-09 7.64319e-09 )  
( -3.26002e-09 3.25951e-09 1.02943e-08 )  
( -1.77029e-09 7.59872e-10 2.99364e-09 )  
( -1.80649e-10 1.31675e-09 3.20876e-09 )  
( 1.12298e-11 8.15858e-10 2.00993e-09 )  
( 5.65637e-10 9.16384e-10 7.20958e-09 )  
( 1.52253e-10 2.42815e-10 9.27284e-10 )  
( -4.23653e-10 -7.0318e-11 2.17414e-09 )  
( -5.83142e-10 4.42718e-10 1.94901e-09 )  
( -6.17146e-10 1.61623e-10 1.3463e-09 )  
( -5.07048e-09 2.25216e-09 7.46622e-09 )  
( -6.29649e-09 3.28401e-09 8.8346e-09 )  
( -1.22103e-09 1.28725e-09 2.47817e-09 )  
( -4.8175e-09 4.32207e-09 1.23711e-08 )  
( -1.71321e-10 -3.34102e-10 2.72445e-09 )  
( -2.50526e-09 3.93929e-09 1.02022e-08 )  
( -8.29652e-10 6.28303e-10 2.52584e-09 )  
( -1.74537e-09 1.8722e-09 3.74792e-09 )  
( -2.01314e-09 2.35904e-09 4.58333e-09 )  
( -2.01673e-09 2.7374e-09 4.71121e-09 )  
( -1.55616e-09 2.96259e-09 4.61601e-09 )  
( -8.00578e-10 4.61239e-09 4.20154e-09 )  
( -4.0771e-09 3.4451e-09 5.26646e-09 )  
( -1.19224e-09 1.62996e-09 3.20023e-09 )  
( -3.54707e-09 3.04584e-09 5.62711e-09 )  
( -4.08683e-09 2.74212e-09 6.80283e-09 )  
( -2.77088e-09 2.58281e-09 5.78424e-09 )  
( 2.29448e-10 1.49627e-09 4.50907e-09 )  
( -3.00932e-09 3.21664e-09 5.32009e-09 )  
( -3.19337e-09 3.4346e-09 6.2838e-09 )  
( -1.35935e-10 9.19279e-10 1.86952e-09 )  
( -4.63004e-09 3.69066e-09 6.45264e-09 )  
( -5.37945e-10 2.86474e-10 8.825e-10 )  
( -3.84724e-10 2.95033e-10 7.58303e-10 )  
( -9.11755e-11 4.40718e-10 1.68492e-09 )  
( -9.93118e-10 2.89643e-09 5.21794e-09 )  
( -2.71008e-10 2.03911e-09 4.56692e-09 )  
( 2.65794e-10 6.30818e-10 1.77551e-09 )  
( -9.84809e-10 1.38522e-09 2.28622e-09 )  
( 3.08934e-10 9.25892e-10 1.93841e-09 )  
( -3.89583e-09 2.42148e-09 4.81662e-09 )  
( -1.01775e-09 1.89354e-09 3.00676e-09 )  
( -3.41541e-10 4.82872e-09 4.2226e-09 )  
( -3.82856e-09 3.48069e-09 6.4232e-09 )  
( -1.16342e-09 2.02922e-09 2.94025e-09 )  
( -1.98201e-11 3.06425e-10 5.95359e-10 )  
( -2.08621e-09 1.27543e-09 3.97934e-09 )  
( 2.0642e-09 1.47012e-09 3.27845e-09 )  
( 2.48606e-10 2.15522e-09 3.73552e-09 )  
( -4.29038e-09 3.35324e-09 6.78907e-09 )  
( 5.13428e-10 4.30652e-10 1.66453e-09 )  
( -3.24169e-09 3.19738e-09 5.10189e-09 )  
( -1.6724e-09 2.25896e-09 3.4646e-09 )  
( -3.4378e-10 3.98953e-10 1.60585e-09 )  
( -5.57237e-10 1.03529e-09 2.30345e-09 )  
( -3.05817e-09 2.38811e-09 4.69257e-09 )  
( -1.1675e-09 2.50728e-09 3.72652e-09 )  
( -1.78364e-09 2.17709e-09 3.37028e-09 )  
( -2.00977e-09 1.95744e-09 4.01734e-09 )  
( 2.70086e-10 3.02734e-10 1.6357e-09 )  
( -6.44446e-10 1.13675e-09 2.31018e-09 )  
( -4.48966e-09 3.70615e-09 6.71284e-09 )  
( 3.52166e-10 5.27799e-09 4.13348e-09 )  
( -3.0142e-09 3.30593e-09 5.79067e-09 )  
( -2.82972e-09 2.51516e-09 4.98329e-09 )  
( -8.48581e-10 2.38398e-09 3.30533e-09 )  
( -2.8136e-10 -1.06959e-12 6.93891e-10 )  
( -3.17544e-10 1.33808e-09 2.85381e-09 )  
( -2.37752e-09 3.81177e-09 5.4111e-09 )  
( -8.64827e-10 7.8404e-10 1.92597e-09 )  
( 4.33146e-10 3.67173e-09 3.71359e-09 )  
( -4.70712e-09 2.81645e-09 6.35241e-09 )  
( -3.44046e-09 2.71126e-09 5.30823e-09 )  
( -1.69296e-09 3.1253e-09 4.30771e-09 )  
( -4.37861e-09 4.6549e-09 5.70421e-09 )  
( -7.47911e-10 1.58187e-09 2.87149e-09 )  
( -1.89688e-10 1.24572e-09 4.73977e-09 )  
( -2.24045e-10 4.3061e-10 1.01365e-09 )  
( -2.896e-09 1.69841e-09 4.96012e-09 )  
( -1.23799e-11 1.93054e-10 5.35959e-10 )  
( -1.34019e-10 2.91816e-09 4.52854e-09 )  
( -2.96778e-09 2.80953e-09 5.39021e-09 )  
( -1.88276e-09 1.79922e-09 4.07916e-09 )  
( -3.94236e-10 3.24731e-10 1.0789e-09 )  
( 5.9274e-11 1.13698e-10 4.6844e-10 )  
( -3.22457e-09 2.01882e-09 5.04233e-09 )  
( -3.23625e-09 1.19683e-09 7.89288e-09 )  
( -9.9435e-10 5.54721e-10 2.17228e-09 )  
( -5.55745e-09 5.46649e-09 1.332e-08 )  
( -6.22414e-10 4.92004e-10 8.286e-10 )  
( -9.5527e-10 -1.11033e-09 3.04777e-09 )  
( -3.96143e-09 2.47709e-09 5.39459e-09 )  
( 1.67437e-09 4.41293e-09 1.11852e-08 )  
( -3.40921e-10 4.20514e-09 6.97241e-09 )  
( 1.42433e-09 2.9092e-09 3.55627e-09 )  
( -1.37862e-09 1.45623e-10 2.29649e-09 )  
( 3.27742e-09 3.52672e-09 2.58858e-09 )  
( -2.49383e-09 1.89772e-09 4.67265e-09 )  
( -4.81262e-09 4.74071e-09 9.39781e-09 )  
( -1.76693e-10 -1.22082e-09 2.5996e-09 )  
( -4.73389e-09 3.61572e-09 7.12817e-09 )  
( 9.22831e-09 8.96938e-09 6.90796e-10 )  
( -8.57467e-10 5.88656e-10 1.81781e-09 )  
( -3.9367e-09 2.22376e-09 6.00755e-09 )  
( -1.68546e-09 3.26799e-09 5.2265e-09 )  
( -1.52373e-09 2.02491e-09 4.66952e-09 )  
( -4.66884e-09 3.11396e-09 7.2593e-09 )  
( -3.93221e-09 2.30149e-09 6.82881e-09 )  
( -1.35677e-09 2.1856e-09 4.02899e-09 )  
( -1.20173e-09 1.35755e-09 3.03792e-09 )  
( -1.84122e-10 1.20525e-09 2.59156e-09 )  
( -6.71252e-09 3.36296e-09 7.10789e-09 )  
( -6.64259e-10 2.10478e-09 4.48295e-09 )  
( -3.394e-09 2.13938e-09 5.91849e-09 )  
( -3.30805e-09 2.63389e-09 5.04002e-09 )  
( -1.6526e-09 2.03684e-09 3.31322e-09 )  
( -2.69886e-09 3.90153e-09 4.76653e-09 )  
( 8.88646e-11 2.66938e-09 4.74992e-09 )  
( -2.23111e-09 2.27286e-09 4.52076e-09 )  
( -1.40411e-09 1.961e-09 3.43496e-09 )  
( -8.63817e-10 7.8152e-10 1.82264e-09 )  
( -2.17295e-10 3.36754e-10 1.00785e-09 )  
( -5.19781e-10 -2.25653e-11 4.05424e-09 )  
( -8.36039e-09 1.99088e-09 9.22852e-09 )  
( -5.74287e-10 8.38203e-10 2.01695e-09 )  
( 5.2488e-10 -2.23661e-09 6.69557e-09 )  
( -5.44328e-10 -8.71179e-09 7.42906e-09 )  
( -6.06255e-09 4.90598e-09 1.32218e-08 )  
( -1.62136e-09 1.23084e-09 4.24465e-09 )  
( -4.91335e-09 2.27408e-09 6.98025e-09 )  
( -2.70417e-09 1.0417e-09 4.68066e-09 )  
( -2.75936e-09 1.78587e-09 4.27059e-09 )  
( -5.30632e-09 3.22083e-09 6.20434e-09 )  
( 1.37453e-10 -1.09224e-08 7.93963e-09 )  
( -7.19331e-10 1.15624e-09 1.5575e-09 )  
( -5.74746e-09 2.44651e-09 8.01168e-09 )  
( -3.28539e-09 2.36294e-09 4.69628e-09 )  
( -4.77496e-11 6.2534e-10 3.13742e-09 )  
( -6.29869e-09 4.09949e-09 1.11712e-08 )  
( -1.19289e-09 9.11601e-10 3.56533e-09 )  
( 7.13998e-10 7.12644e-10 2.09356e-09 )  
( -2.7978e-09 2.28386e-09 5.10192e-09 )  
( -3.03837e-10 9.02226e-10 8.51771e-10 )  
( -5.67791e-09 2.84937e-09 8.39468e-09 )  
( -4.5037e-09 4.19784e-09 9.71274e-09 )  
( -3.19834e-09 2.036e-09 5.32955e-09 )  
( -5.007e-09 3.94682e-09 1.21063e-08 )  
( 6.85901e-10 1.80848e-10 1.07333e-09 )  
( 1.03288e-09 -2.1421e-09 1.25241e-08 )  
( -1.80591e-09 2.33357e-09 5.50552e-09 )  
( -3.63241e-09 3.44902e-09 1.11264e-08 )  
( -3.12625e-10 5.36308e-10 1.46318e-09 )  
( -5.42608e-09 4.77291e-09 7.71247e-09 )  
( -1.97834e-09 4.84482e-10 7.49943e-10 )  
( -2.93484e-09 -9.67351e-10 3.79984e-09 )  
( -3.95789e-09 2.258e-09 5.87977e-09 )  
( -2.91696e-09 1.88657e-09 4.47528e-09 )  
( -4.62044e-09 1.95775e-09 5.1275e-09 )  
( 5.31026e-10 7.65511e-10 2.70262e-09 )  
( -2.18123e-09 -3.52086e-10 4.53271e-09 )  
( -3.31611e-09 2.07955e-09 3.77288e-09 )  
( -8.8043e-09 -1.20004e-09 1.01582e-08 )  
( -3.86276e-09 3.36031e-09 7.44589e-09 )  
( -2.26049e-10 -2.02797e-10 3.08014e-09 )  
( -2.81521e-10 6.20622e-10 6.61182e-10 )  
( -6.23827e-09 1.04797e-09 8.36951e-09 )  
( -6.97592e-09 5.00026e-09 1.06183e-08 )  
( 8.60866e-09 -1.29279e-08 4.96761e-10 )  
( -4.58676e-10 7.52062e-10 1.12806e-09 )  
( -1.26917e-08 5.64913e-09 1.74577e-09 )  
( 8.92029e-11 1.208e-09 2.85404e-09 )  
( -4.17465e-09 6.51919e-09 1.17442e-08 )  
( 2.31552e-09 4.86193e-10 1.64492e-09 )  
( -2.93588e-09 2.35331e-09 4.51646e-09 )  
( -2.7949e-09 1.79676e-09 5.08613e-09 )  
( -6.13394e-09 2.56397e-09 7.51961e-09 )  
( -3.75135e-09 3.94265e-09 7.88133e-09 )  
( -3.80719e-09 3.27595e-10 8.97818e-09 )  
( -7.83079e-10 4.0259e-10 2.49937e-09 )  
( -7.12758e-09 -9.16698e-10 7.67897e-09 )  
)
