/*--------------------------------*- C++ -*----------------------------------*\
| =========                 |                                                 |
| \\      /  F ield         | OpenFOAM: The Open Source CFD Toolbox           |
|  \\    /   O peration     | Version:  4.x                                   |
|   \\  /    A nd           | Web:      www.OpenFOAM.org                      |
|    \\/     M anipulation  |                                                 |
\*---------------------------------------------------------------------------*/
FoamFile
{
    version     2.0;
    format      ascii;
    class       volVectorField;
    location    "12.5";
    object      UsPrev;
}
// * * * * * * * * * * * * * * * * * * * * * * * * * * * * * * * * * * * * * //

dimensions      [0 1 -1 0 0 0 0];

internalField   nonuniform List<vector> 
108
(
(2.08627e-06 3.28424e-07 -5.95312e-07)
(1.7257e-06 6.63545e-08 -2.32572e-07)
(7.00364e-07 9.56887e-07 9.16892e-08)
(7.11529e-07 2.85163e-07 -1.36905e-07)
(4.21232e-07 1.8332e-07 -4.87982e-07)
(-2.53366e-07 1.62935e-07 -6.93232e-07)
(-1.90696e-07 9.78686e-08 -5.15468e-07)
(-7.39471e-07 -3.00517e-07 -1.04697e-07)
(-1.04133e-07 -1.26754e-07 -5.06228e-08)
(1.71548e-06 4.47755e-07 -3.2625e-07)
(1.54215e-06 2.2807e-07 -7.68068e-08)
(1.14056e-06 1.8658e-07 8.46363e-08)
(3.47021e-07 8.05452e-08 -1.60134e-07)
(1.38084e-08 2.72787e-07 -4.28542e-07)
(-4.52893e-07 2.61387e-07 -5.72741e-07)
(-4.48602e-07 2.53379e-07 -4.42945e-07)
(-5.03787e-07 -6.19265e-08 -2.2187e-07)
(-7.49764e-09 -7.52918e-08 1.96506e-07)
(1.2847e-06 -8.79789e-08 -1.61008e-07)
(1.00061e-06 3.3829e-07 -9.12463e-08)
(7.84849e-07 1.20533e-07 -1.58287e-08)
(3.39061e-07 9.28672e-08 -3.04841e-08)
(-4.43095e-07 2.79217e-07 -9.50064e-08)
(-7.34604e-07 3.11456e-07 -4.16667e-07)
(-5.97118e-07 5.65083e-07 -4.73724e-07)
(-3.09202e-07 1.73751e-07 -2.24269e-07)
(-4.59179e-08 1.38445e-07 -1.24766e-07)
(4.77399e-07 2.6236e-07 -1.14575e-07)
(5.00523e-07 3.55276e-07 -6.97076e-08)
(3.29019e-07 2.81585e-07 -9.19502e-08)
(1.02228e-07 7.94113e-08 2.39656e-08)
(-6.52652e-07 3.37867e-07 2.08735e-07)
(-9.47888e-07 2.02109e-07 -8.17097e-08)
(-3.65377e-07 1.46301e-07 -2.55609e-07)
(-6.19979e-08 6.52668e-08 -2.25762e-08)
(-5.36537e-08 -2.17465e-06 9.2024e-08)
(1.65949e-06 2.35411e-07 -4.83827e-07)
(1.33841e-06 6.89187e-08 -2.10796e-07)
(1.04518e-06 5.73724e-10 -1.19293e-08)
(7.89777e-07 4.87351e-08 -1.8403e-07)
(3.86196e-07 7.37772e-08 -3.75009e-07)
(-1.60079e-08 1.25276e-07 -5.31564e-07)
(-1.3248e-07 1.12475e-07 -3.85411e-07)
(-7.30002e-08 3.23908e-09 -1.85902e-07)
(3.82185e-09 -4.81197e-08 -4.10646e-08)
(1.54982e-06 3.71577e-07 -3.41017e-07)
(1.28898e-06 1.84929e-07 -4.00675e-08)
(9.53729e-07 4.14492e-08 4.38124e-08)
(6.53842e-07 3.90286e-08 -7.00418e-08)
(2.25456e-07 2.07682e-07 -3.33433e-07)
(-2.41858e-07 1.59857e-07 -4.30863e-07)
(-2.70665e-07 1.60248e-07 -4.04971e-07)
(-1.60319e-07 5.15672e-08 -2.10723e-07)
(-2.73982e-08 -1.87487e-08 6.93373e-09)
(1.1647e-06 4.0573e-07 -2.27369e-07)
(9.33564e-07 2.20988e-07 -6.62337e-08)
(7.27878e-07 1.1298e-07 1.69058e-08)
(4.45544e-07 1.02595e-07 -7.46143e-10)
(-6.56064e-09 1.48202e-07 -4.4718e-08)
(-4.81873e-07 2.25141e-07 -1.65547e-07)
(-3.46527e-07 2.39516e-07 -3.04352e-07)
(-2.03334e-07 1.03566e-07 -2.04007e-07)
(-7.48657e-08 1.14944e-09 -7.92121e-08)
(5.29826e-07 1.81683e-07 -4.43859e-08)
(4.69732e-07 1.62298e-07 -3.44604e-08)
(3.38867e-07 1.35906e-07 4.74445e-09)
(2.22748e-07 1.21183e-07 4.63214e-09)
(2.30705e-08 1.03322e-07 5.05633e-09)
(-2.94235e-07 8.32633e-08 -5.19481e-08)
(-1.4908e-07 4.39443e-08 -8.81458e-08)
(-9.62522e-08 4.18216e-08 -4.65815e-08)
(-3.69099e-08 3.87205e-09 3.55561e-08)
(1.15206e-06 1.68262e-07 -3.75319e-07)
(1.02352e-06 3.07574e-08 -1.98495e-07)
(8.45467e-07 -1.30778e-07 -4.29527e-08)
(5.72025e-07 -5.36667e-08 -9.19144e-08)
(2.69163e-07 -3.28426e-08 -1.8546e-07)
(-1.71742e-07 3.62176e-08 -2.99603e-07)
(-9.93242e-08 6.17813e-08 -3.08929e-07)
(-4.30917e-08 3.61988e-08 -2.06419e-07)
(-7.563e-09 1.44683e-08 -1.17979e-07)
(1.17874e-06 2.40713e-07 -3.20974e-07)
(1.00414e-06 1.15599e-07 -7.6878e-08)
(6.9971e-07 4.44687e-08 -4.09259e-09)
(4.16338e-07 -3.47065e-08 -9.38812e-08)
(1.47547e-07 3.38375e-09 -1.14775e-07)
(-1.27059e-07 8.89488e-08 -2.75085e-07)
(-1.16988e-07 7.70915e-08 -2.65387e-07)
(-8.81803e-08 2.89295e-08 -2.04666e-07)
(-5.78776e-08 6.6315e-09 -8.50472e-08)
(8.21861e-07 1.36548e-07 -2.33578e-07)
(7.58165e-07 1.14674e-07 -1.10806e-07)
(5.08499e-07 3.73022e-08 8.80008e-09)
(2.43291e-07 9.95497e-09 -1.58255e-08)
(9.10729e-09 4.61126e-08 -3.14984e-08)
(-2.30037e-07 7.84399e-08 -8.96384e-08)
(-2.231e-07 7.77375e-08 -2.32052e-07)
(-1.14595e-07 2.50911e-08 -1.43348e-07)
(-6.77805e-08 2.94376e-09 -3.53078e-08)
(4.65844e-07 3.46414e-08 -7.01801e-08)
(3.32865e-07 6.11715e-08 -5.33209e-09)
(2.5233e-07 1.58805e-07 3.7478e-08)
(6.56618e-08 9.75416e-08 6.45951e-09)
(-8.08549e-08 5.60807e-08 -9.02007e-10)
(-2.58438e-07 5.68462e-08 -7.71846e-09)
(-1.28651e-07 1.65147e-08 -9.46063e-08)
(-9.02511e-08 -8.19126e-09 -3.8084e-08)
(-4.85228e-08 9.81953e-10 -6.79217e-09)
)
;

boundaryField
{
    inlet
    {
        type            calculated;
        value           nonuniform 0();
    }
    outlet
    {
        type            calculated;
        value           uniform (0 0 0);
    }
    wall
    {
        type            calculated;
        value           uniform (0 0 0);
    }
    procBoundary3to1
    {
        type            processor;
        value           uniform (0 0 0);
    }
    procBoundary3to2
    {
        type            processor;
        value           uniform (0 0 0);
    }
    procBoundary3to7
    {
        type            processor;
        value           uniform (0 0 0);
    }
}


// ************************************************************************* //
