/*--------------------------------*- C++ -*----------------------------------*\
| =========                 |                                                 |
| \\      /  F ield         | OpenFOAM: The Open Source CFD Toolbox           |
|  \\    /   O peration     | Version:  4.x                                   |
|   \\  /    A nd           | Web:      www.OpenFOAM.org                      |
|    \\/     M anipulation  |                                                 |
\*---------------------------------------------------------------------------*/
FoamFile
{
    version     2.0;
    format      ascii;
    class       volScalarField;
    location    "1.5";
    object      Deff;
}
// * * * * * * * * * * * * * * * * * * * * * * * * * * * * * * * * * * * * * //

dimensions      [0 2 -1 0 0 0 0];

internalField   nonuniform List<scalar> 
108
(
9.88683e-08
9.86395e-08
9.84744e-08
9.84613e-08
9.83781e-08
9.83432e-08
9.82362e-08
9.81785e-08
9.79985e-08
9.86521e-08
9.8549e-08
9.83879e-08
9.82428e-08
9.81949e-08
9.81921e-08
9.81768e-08
9.81397e-08
9.79512e-08
9.86145e-08
9.84156e-08
9.83277e-08
9.81579e-08
9.81465e-08
9.81401e-08
9.80801e-08
9.79528e-08
9.80272e-08
9.86387e-08
9.84702e-08
9.82851e-08
9.82214e-08
9.81133e-08
9.80458e-08
9.78956e-08
9.80273e-08
9.80313e-08
9.88408e-08
9.86853e-08
9.84579e-08
9.83022e-08
9.82689e-08
9.82719e-08
9.82632e-08
9.80505e-08
9.79084e-08
9.87164e-08
9.85314e-08
9.84104e-08
9.82739e-08
9.82223e-08
9.81707e-08
9.81052e-08
9.79754e-08
9.78824e-08
9.86749e-08
9.84379e-08
9.82453e-08
9.81246e-08
9.8073e-08
9.80461e-08
9.79914e-08
9.7949e-08
9.79298e-08
9.84783e-08
9.83512e-08
9.82571e-08
9.80366e-08
9.79665e-08
9.79578e-08
9.7843e-08
9.78987e-08
9.79419e-08
9.88454e-08
9.86355e-08
9.85818e-08
9.83593e-08
9.82967e-08
9.81385e-08
9.81274e-08
9.80353e-08
9.80003e-08
9.8714e-08
9.84195e-08
9.84456e-08
9.83241e-08
9.82342e-08
9.81086e-08
9.80932e-08
9.80475e-08
9.79394e-08
9.86301e-08
9.83689e-08
9.82608e-08
9.81346e-08
9.81451e-08
9.80354e-08
9.80319e-08
9.79654e-08
9.79705e-08
9.84238e-08
9.83492e-08
9.82798e-08
9.80514e-08
9.79928e-08
9.78705e-08
9.80449e-08
9.80651e-08
9.79908e-08
)
;

boundaryField
{
    inlet
    {
        type            calculated;
        value           uniform 0;
    }
    outlet
    {
        type            calculated;
        value           nonuniform 0();
    }
    wall
    {
        type            calculated;
        value           uniform 0;
    }
    procBoundary4to0
    {
        type            processor;
        value           uniform 0;
    }
    procBoundary4to5
    {
        type            processor;
        value           uniform 0;
    }
    procBoundary4to6
    {
        type            processor;
        value           uniform 0;
    }
}


// ************************************************************************* //
