/*--------------------------------*- C++ -*----------------------------------*\
| =========                 |                                                 |
| \\      /  F ield         | OpenFOAM: The Open Source CFD Toolbox           |
|  \\    /   O peration     | Version:  4.x                                   |
|   \\  /    A nd           | Web:      www.OpenFOAM.org                      |
|    \\/     M anipulation  |                                                 |
\*---------------------------------------------------------------------------*/
FoamFile
{
    version     2.0;
    format      ascii;
    class       volScalarField;
    location    "1.5";
    object      Ksl;
}
// * * * * * * * * * * * * * * * * * * * * * * * * * * * * * * * * * * * * * //

dimensions      [1 -3 -1 0 0 0 0];

internalField   nonuniform List<scalar> 
108
(
5357.22
10568.9
4883.23
7321.19
4460.15
6423.63
4223.14
6084.5
3886.9
5811.68
16631.9
6562.1
36027.8
7730.31
97366.6
8848.06
439390
9441.31
6337.97
17247.7
8118.32
63566.7
10810.5
282532
12094.1
631320
12031.8
5795.73
18469.4
6710.8
33475.9
7935.98
114606
8640.58
7.62832e+06
8553.26
5372.74
10705.8
4941.66
7498.61
4506.51
6246.97
4166.61
5847.02
3860.43
5688.47
15622.5
6273.2
34454.7
8508.41
147483
11713.6
3.02279e+06
14179.2
5980.21
13007.5
6429.29
21087
8408.27
95386.9
10527.5
1.37777e+06
11622.4
5577.01
14656.8
5888.25
18797.3
6930.99
45860
8774.9
1.40149e+06
11071.3
5368.16
12566.8
5137.32
9084.99
4740.88
6618.06
4142.01
5108.63
3486.31
5352.71
11615.5
5057.86
8389.8
4820.31
7630.39
4655.34
7619.15
4347.88
5677.47
10711.2
5129.08
7640.33
4538.22
6715.95
4345.33
7196.56
4259.05
5410.34
11709.7
5070.19
7988.81
4616.66
6476.71
4227.17
5934.34
3843.26
)
;

boundaryField
{
    inlet
    {
        type            zeroGradient;
    }
    outlet
    {
        type            zeroGradient;
    }
    wall
    {
        type            zeroGradient;
    }
    procBoundary4to0
    {
        type            processor;
        value           nonuniform List<scalar> 
36
(
5447.52
10385.2
4830.99
7187.95
4310.8
6307.74
4077.58
6074.44
3762.9
5721.05
13911.9
6092.6
17601.1
6979.24
48255.7
8039.65
262627
8389.21
6339.26
17913.2
7901.02
61231.1
10199.4
112753
11316.4
1.12485e+07
11032
5980.1
19244.3
6569.73
44704.4
7059.02
85958.4
7121.49
1.26221e+07
6779.61
)
;
    }
    procBoundary4to5
    {
        type            processor;
        value           nonuniform List<scalar> 
12
(
5271.31
515322
589438
675577
5228.53
516400
842388
2.35721e+06
3920.55
7386.89
7456.06
5589.34
)
;
    }
    procBoundary4to6
    {
        type            processor;
        value           nonuniform List<scalar> 
27
(
6632.45
21195.3
9457.22
140051
12136.4
4.06815e+06
13108.3
1.0839e+06
12968.6
6052.93
13507.1
6974.54
33261.9
9531.78
248184
12438.7
2.25475e+06
14762.1
5637.02
10555.9
5090.52
8290.82
4843.55
8349.46
4845.58
9947.08
4699.31
)
;
    }
}


// ************************************************************************* //
