/*--------------------------------*- C++ -*----------------------------------*\
| =========                 |                                                 |
| \\      /  F ield         | OpenFOAM: The Open Source CFD Toolbox           |
|  \\    /   O peration     | Version:  4.x                                   |
|   \\  /    A nd           | Web:      www.OpenFOAM.org                      |
|    \\/     M anipulation  |                                                 |
\*---------------------------------------------------------------------------*/
FoamFile
{
    version     2.0;
    format      ascii;
    class       volScalarField;
    location    "1.5";
    object      QWallFluid;
}
// * * * * * * * * * * * * * * * * * * * * * * * * * * * * * * * * * * * * * //

dimensions      [1 -1 -3 0 0 0 0];

internalField   nonuniform List<scalar> 
108
(
8.56565e+08
5.04268e+08
9.65713e+08
7.19748e+08
1.10832e+09
8.45742e+08
1.21193e+09
9.06356e+08
1.30891e+09
0
0
0
0
0
0
0
0
0
0
0
0
0
0
0
0
0
0
0
0
0
0
0
0
0
0
0
8.55738e+08
5.01053e+08
9.59212e+08
7.08709e+08
1.108e+09
8.72919e+08
1.24132e+09
9.55569e+08
1.34793e+09
0
0
0
0
0
0
0
0
0
0
0
0
0
0
0
0
0
0
0
0
0
0
0
0
0
0
0
1.70891e+09
8.75318e+08
1.84934e+09
1.20811e+09
2.11967e+09
1.66579e+09
2.50372e+09
2.14578e+09
2.95045e+09
8.58842e+08
4.67849e+08
9.43386e+08
6.46449e+08
1.04426e+09
7.38424e+08
1.12461e+09
7.66529e+08
1.20918e+09
8.19887e+08
4.99819e+08
9.30355e+08
6.93127e+08
1.08911e+09
8.09639e+08
1.17309e+09
7.89216e+08
1.20408e+09
8.49859e+08
4.65376e+08
9.39909e+08
6.69179e+08
1.07196e+09
8.29852e+08
1.18946e+09
9.12625e+08
1.29698e+09
)
;

boundaryField
{
    inlet
    {
        type            calculated;
        value           uniform 0;
    }
    outlet
    {
        type            calculated;
        value           nonuniform 0();
    }
    wall
    {
        type            calculated;
        value           uniform 0;
    }
    procBoundary4to0
    {
        type            processor;
        value           nonuniform List<scalar> 
36
(
8.45709e+08
5.12638e+08
9.74045e+08
7.25741e+08
1.12843e+09
8.48967e+08
1.22858e+09
8.931e+08
1.3155e+09
0
0
0
0
0
0
0
0
0
0
0
0
0
0
0
0
0
0
0
0
0
0
0
0
0
0
0
)
;
    }
    procBoundary4to5
    {
        type            processor;
        value           nonuniform List<scalar> 
12
(
1.01693e+09
0
0
0
1.05118e+09
0
0
0
2.65584e+09
7.85959e+08
7.61466e+08
9.50436e+08
)
;
    }
    procBoundary4to6
    {
        type            processor;
        value           nonuniform List<scalar> 
27
(
0
0
0
0
0
0
0
0
0
0
0
0
0
0
0
0
0
0
8.24865e+08
5.06953e+08
9.37289e+08
6.48433e+08
1.02601e+09
6.77568e+08
1.07149e+09
6.03691e+08
1.1092e+09
)
;
    }
}


// ************************************************************************* //
