/*--------------------------------*- C++ -*----------------------------------*\
| =========                 |                                                 |
| \\      /  F ield         | OpenFOAM: The Open Source CFD Toolbox           |
|  \\    /   O peration     | Version:  4.x                                   |
|   \\  /    A nd           | Web:      www.OpenFOAM.org                      |
|    \\/     M anipulation  |                                                 |
\*---------------------------------------------------------------------------*/
FoamFile
{
    version     2.0;
    format      ascii;
    class       volScalarField;
    location    "1.5";
    object      rho;
}
// * * * * * * * * * * * * * * * * * * * * * * * * * * * * * * * * * * * * * //

dimensions      [1 -3 0 0 0 0 0];

internalField   nonuniform List<scalar> 
108
(
6699.2
6698.3
6697.69
6697.52
6697.58
6697.81
6698.14
6698.58
6699.13
6699.07
6698.21
6697.82
6697.95
6698.4
6699.21
6700.19
6700.94
6702.07
6699.05
6698.02
6697.58
6697.83
6698.43
6699.25
6700.39
6701.41
6702.45
6699.04
6697.99
6697.57
6697.78
6698.3
6699.14
6700.06
6701.11
6701.85
6699.28
6698.55
6698.11
6697.95
6697.97
6698.13
6698.36
6698.65
6698.9
6699.24
6698.47
6698.11
6698.15
6698.61
6699.47
6700.24
6700.79
6701.95
6699.19
6698.35
6697.92
6698.02
6698.53
6699.49
6700.48
6701.22
6702.04
6699.16
6698.35
6697.98
6697.95
6698.28
6699.03
6699.78
6700.71
6701.6
6699.05
6698.22
6697.89
6697.84
6697.91
6698.02
6698.19
6698.35
6698.54
6699.01
6698.18
6697.85
6697.85
6698.02
6698.27
6698.55
6698.86
6699.2
6699.07
6698.25
6697.86
6697.81
6697.92
6698.13
6698.41
6698.82
6699.32
6699.07
6698.29
6697.94
6697.84
6697.9
6698.1
6698.4
6698.76
6699.17
)
;

boundaryField
{
    inlet
    {
        type            calculated;
        value           uniform 6700;
    }
    outlet
    {
        type            calculated;
        value           nonuniform 0();
    }
    wall
    {
        type            calculated;
        value           nonuniform List<scalar> 
63
(
6699.05
6699.01
6699.07
6699.07
6698.22
6698.18
6698.25
6698.29
6697.89
6697.85
6697.86
6697.94
6697.84
6697.85
6697.81
6697.84
6697.91
6698.02
6697.92
6697.9
6698.02
6698.27
6698.13
6698.1
6698.19
6698.55
6698.41
6698.4
6698.35
6698.86
6698.82
6698.76
6698.54
6699.2
6699.32
6699.17
6699.2
6699.28
6699.05
6698.3
6698.55
6698.22
6697.69
6698.11
6697.89
6697.52
6697.95
6697.84
6697.58
6697.97
6697.91
6697.81
6698.13
6698.02
6698.14
6698.36
6698.19
6698.58
6698.65
6698.35
6699.13
6698.9
6698.54
)
;
    }
    procBoundary4to0
    {
        type            processor;
        value           nonuniform List<scalar> 
36
(
6698.88
6697.49
6696.55
6696.43
6696.6
6696.97
6697.43
6698.03
6698.78
6698.8
6697.49
6696.89
6697.33
6697.98
6698.86
6700.02
6701.23
6702.38
6698.72
6697.23
6696.71
6697.56
6698.03
6698.99
6700.41
6701.86
6702.89
6698.62
6696.9
6696.47
6697.15
6698.05
6698.27
6699.72
6700.86
6701.88
)
;
    }
    procBoundary4to5
    {
        type            processor;
        value           nonuniform List<scalar> 
12
(
6699.73
6703.35
6703.62
6702.29
6699.43
6703.11
6702.91
6701.84
6698.8
6699.57
6699.86
6699.62
)
;
    }
    procBoundary4to6
    {
        type            processor;
        value           nonuniform List<scalar> 
27
(
6699.05
6698.15
6697.78
6697.87
6698.36
6699.63
6700.6
6701.59
6702.35
6699.13
6698.33
6697.96
6697.98
6698.5
6699.5
6700.5
6701.47
6702.17
6699.06
6698.33
6697.99
6697.87
6697.88
6698.06
6698.31
6698.75
6699.58
)
;
    }
}


// ************************************************************************* //
