/*--------------------------------*- C++ -*----------------------------------*\
| =========                 |                                                 |
| \\      /  F ield         | OpenFOAM: The Open Source CFD Toolbox           |
|  \\    /   O peration     | Version:  4.x                                   |
|   \\  /    A nd           | Web:      www.OpenFOAM.org                      |
|    \\/     M anipulation  |                                                 |
\*---------------------------------------------------------------------------*/
FoamFile
{
    version     2.0;
    format      ascii;
    class       volScalarField;
    location    "14.5";
    object      Deff;
}
// * * * * * * * * * * * * * * * * * * * * * * * * * * * * * * * * * * * * * //

dimensions      [0 2 -1 0 0 0 0];

internalField   nonuniform List<scalar> 
132
(
9.78504e-08
9.7826e-08
9.7855e-08
9.77822e-08
9.76018e-08
9.75663e-08
9.76208e-08
9.77422e-08
9.76517e-08
9.79324e-08
9.77721e-08
9.78178e-08
9.78197e-08
9.76984e-08
9.77292e-08
9.76557e-08
9.77068e-08
9.76631e-08
9.81153e-08
9.79182e-08
9.79063e-08
9.78721e-08
9.77668e-08
9.76844e-08
9.76876e-08
9.7718e-08
9.76985e-08
9.82418e-08
9.80336e-08
9.78989e-08
9.79749e-08
9.78453e-08
9.77963e-08
9.77386e-08
9.78443e-08
9.7977e-08
9.77524e-08
9.76597e-08
9.76191e-08
9.75793e-08
9.75022e-08
9.75298e-08
9.76027e-08
9.7956e-08
9.7718e-08
9.77015e-08
9.76681e-08
9.75704e-08
9.75892e-08
9.76051e-08
9.75563e-08
9.76524e-08
9.79829e-08
9.77556e-08
9.7769e-08
9.77643e-08
9.76408e-08
9.75415e-08
9.75131e-08
9.75931e-08
9.76155e-08
9.8065e-08
9.78346e-08
9.78498e-08
9.77827e-08
9.77095e-08
9.77124e-08
9.76545e-08
9.76593e-08
9.78486e-08
9.76361e-08
9.76162e-08
9.75478e-08
9.75941e-08
9.76533e-08
9.78056e-08
9.77202e-08
9.76834e-08
9.7712e-08
9.75629e-08
9.76004e-08
9.75577e-08
9.7506e-08
9.75916e-08
9.78935e-08
9.77795e-08
9.77244e-08
9.77059e-08
9.7589e-08
9.75828e-08
9.75434e-08
9.75882e-08
9.76145e-08
9.80498e-08
9.78851e-08
9.78021e-08
9.77631e-08
9.77414e-08
9.77482e-08
9.7622e-08
9.76782e-08
9.78303e-08
9.76725e-08
9.7665e-08
9.77131e-08
9.789e-08
9.78423e-08
9.7689e-08
9.76764e-08
9.772e-08
9.77882e-08
9.76513e-08
9.76525e-08
9.77452e-08
9.79565e-08
9.78831e-08
9.78219e-08
9.77722e-08
9.76983e-08
9.77028e-08
9.76326e-08
9.76865e-08
9.77167e-08
9.80116e-08
9.78726e-08
9.78957e-08
9.78489e-08
9.77615e-08
9.77382e-08
9.77052e-08
9.77829e-08
9.79832e-08
)
;

boundaryField
{
    inlet
    {
        type            calculated;
        value           nonuniform 0();
    }
    outlet
    {
        type            calculated;
        value           uniform 0;
    }
    wall
    {
        type            calculated;
        value           uniform 0;
    }
    procBoundary7to0
    {
        type            processor;
        value           uniform 0;
    }
    procBoundary7to1
    {
        type            processor;
        value           uniform 0;
    }
    procBoundary7to3
    {
        type            processor;
        value           uniform 0;
    }
    procBoundary7to5
    {
        type            processor;
        value           uniform 0;
    }
    procBoundary7to6
    {
        type            processor;
        value           uniform 0;
    }
}


// ************************************************************************* //
