/*--------------------------------*- C++ -*----------------------------------*\
| =========                 |                                                 |
| \\      /  F ield         | OpenFOAM: The Open Source CFD Toolbox           |
|  \\    /   O peration     | Version:  4.x                                   |
|   \\  /    A nd           | Web:      www.OpenFOAM.org                      |
|    \\/     M anipulation  |                                                 |
\*---------------------------------------------------------------------------*/
FoamFile
{
    version     2.0;
    format      ascii;
    class       volScalarField;
    location    "14.5";
    object      KslNext;
}
// * * * * * * * * * * * * * * * * * * * * * * * * * * * * * * * * * * * * * //

dimensions      [1 -3 -1 0 0 0 0];

internalField   nonuniform List<scalar> 
132
(
22270.4
3849.28
25083.5
3890.76
27657.8
4055.55
28916.7
4080.19
18833.8
13681.9
3683.68
14689
3530.13
16203.9
3471.18
15535.6
3575.93
11093.4
13620.2
3705.5
13228.7
3541.61
12135.5
3421.86
9787.68
3400.91
4770.1
6409.63
3181.97
6453.35
2922.16
6560.51
2602.31
6964.29
2078.3
6186.22
230407
4356.3
195650
4514.13
37209.8
4790.34
8709.96
184810
4537.16
86190.4
4428.78
84139.8
4501.8
22894
4763.05
9592.86
22659.9
4157.04
46492.7
4243.7
88798.1
4478.73
70330.2
5064.96
22677.4
7211.4
3512.79
8275.68
3542.06
9110.16
3548.28
9576.27
3690.91
8571.2
126238
4433.02
502932
5119.6
24811.3
20390.7
3784.92
32224.2
3713.87
43757.9
3603.77
44711.9
3863.64
19940.8
14662.6
3769.85
15014.2
3700.71
13202.6
3521.62
10064.9
3418.29
4887.34
6268.84
3178.45
5964.69
2946.23
5834.13
2629.95
5806.56
1972.57
5476.1
7561.35
3726.78
7513.39
7802.08
3464.21
9155.22
3537.9
11352.7
3704.15
16082.5
4328.34
13807.4
6438.07
3283.22
6201.15
3288.82
6426.75
3327.47
6951.06
3610.43
7243.89
5695.86
3181.68
5559.63
3049.49
5336.59
2837.45
4709.65
2554.17
3619.46
)
;

boundaryField
{
    inlet
    {
        type            zeroGradient;
    }
    outlet
    {
        type            zeroGradient;
    }
    wall
    {
        type            zeroGradient;
    }
    procBoundary7to0
    {
        type            processor;
        value           uniform 0;
    }
    procBoundary7to1
    {
        type            processor;
        value           uniform 0;
    }
    procBoundary7to3
    {
        type            processor;
        value           uniform 0;
    }
    procBoundary7to5
    {
        type            processor;
        value           uniform 0;
    }
    procBoundary7to6
    {
        type            processor;
        value           uniform 0;
    }
}


// ************************************************************************* //
