/*--------------------------------*- C++ -*----------------------------------*\
| =========                 |                                                 |
| \\      /  F ield         | OpenFOAM: The Open Source CFD Toolbox           |
|  \\    /   O peration     | Version:  4.x                                   |
|   \\  /    A nd           | Web:      www.OpenFOAM.org                      |
|    \\/     M anipulation  |                                                 |
\*---------------------------------------------------------------------------*/
FoamFile
{
    version     2.0;
    format      ascii;
    class       volScalarField;
    location    "14.5";
    object      thCond;
}
// * * * * * * * * * * * * * * * * * * * * * * * * * * * * * * * * * * * * * //

dimensions      [1 1 -3 -1 0 0 0];

internalField   nonuniform List<scalar> 
132
(
189.945
189.898
189.954
189.812
189.462
189.393
189.499
189.735
189.559
190.104
189.793
189.882
189.885
189.65
189.71
189.567
189.666
189.581
190.459
190.076
190.053
189.987
189.783
189.623
189.629
189.688
189.65
190.705
190.301
190.039
190.187
189.935
189.84
189.728
189.933
190.191
189.755
189.575
189.496
189.419
189.269
189.322
189.464
190.15
189.688
189.656
189.591
189.401
189.438
189.469
189.374
189.56
190.202
189.761
189.787
189.778
189.538
189.345
189.29
189.445
189.489
190.362
189.914
189.944
189.814
189.671
189.677
189.565
189.574
189.941
189.529
189.49
189.357
189.447
189.562
189.858
189.692
189.621
189.676
189.387
189.46
189.377
189.276
189.443
190.028
189.807
189.7
189.664
189.437
189.426
189.349
189.436
189.487
190.332
190.012
189.851
189.775
189.733
189.747
189.502
189.611
189.906
189.599
189.585
189.678
190.022
189.929
189.632
189.607
189.692
189.824
189.558
189.561
189.741
190.151
190.008
189.89
189.793
189.65
189.658
189.522
189.627
189.685
190.258
189.988
190.033
189.942
189.772
189.727
189.663
189.814
190.203
)
;

boundaryField
{
    inlet
    {
        type            zeroGradient;
    }
    outlet
    {
        type            zeroGradient;
    }
    wall
    {
        type            zeroGradient;
    }
    procBoundary7to0
    {
        type            processor;
        value           uniform 190.746;
    }
    procBoundary7to1
    {
        type            processor;
        value           uniform 190.339;
    }
    procBoundary7to3
    {
        type            processor;
        value           nonuniform List<scalar> 
36
(
190.422
190.245
190.15
190.138
190.25
190.142
189.941
190.053
190.127
190.414
190.492
190.28
190.538
190.458
190.107
189.987
189.914
190.152
190.732
190.47
190.361
190.512
190.356
190.114
190.137
190.086
190.256
191.012
191.053
190.774
190.648
190.52
190.3
190.275
190.122
190.135
)
;
    }
    procBoundary7to5
    {
        type            processor;
        value           nonuniform List<scalar> 
44
(
190.061
190.146
189.933
189.947
189.933
189.717
189.851
189.716
189.781
189.986
189.818
189.654
189.616
189.52
189.453
189.49
189.65
189.781
189.986
189.986
189.441
189.471
189.25
189.341
189.264
189.261
189.362
190.022
189.603
189.441
189.471
189.471
189.263
189.404
189.518
189.51
189.564
189.969
189.904
189.603
189.617
189.263
189.404
189.404
)
;
    }
    procBoundary7to6
    {
        type            processor;
        value           nonuniform List<scalar> 
12
(
190.412
190.455
190.787
190.013
190.113
190.321
189.966
190.064
190.413
190.324
190.142
190.424
)
;
    }
}


// ************************************************************************* //
