/*--------------------------------*- C++ -*----------------------------------*\
| =========                 |                                                 |
| \\      /  F ield         | OpenFOAM: The Open Source CFD Toolbox           |
|  \\    /   O peration     | Version:  4.x                                   |
|   \\  /    A nd           | Web:      www.OpenFOAM.org                      |
|    \\/     M anipulation  |                                                 |
\*---------------------------------------------------------------------------*/
FoamFile
{
    version     2.0;
    format      ascii;
    class       volScalarField;
    location    "28";
    object      p;
}
// * * * * * * * * * * * * * * * * * * * * * * * * * * * * * * * * * * * * * //

dimensions      [1 -1 -2 0 0 0 0];

internalField   nonuniform List<scalar> 
87
(
82.4189
39.3403
82.2445
89.1492
39.2906
82.0839
-1765.21
-1783.43
-1772.6
-1801.05
-1780.32
-1819.25
-1787.95
-1837.36
-1795.59
-1765.65
-1783.5
-1772.83
-1801.36
-1780.36
-1819.69
-1787.91
-1838.09
-1795.37
-1766.36
-1783.88
-1773.49
-1801.55
-1780.86
-1819.85
-1788.36
-1838.21
-1795.51
-3643.34
-3661.34
-3650.75
-3679.12
-3658.36
-3697.15
-3665.87
-3715.38
-3673.12
-3643.81
-3661.5
-3651.11
-3679.28
-3658.66
-3697.46
-3666.13
-3715.88
-3673.42
-3644.41
-3661.81
-3651.6
-3679.43
-3659.04
-3697.61
-3666.44
-3715.91
-3673.61
-5521.7
-5539.41
-5528.98
-5557.09
-5536.52
-5575.15
-5544
-5593.51
-5551.22
-5522.04
-5539.54
-5529.25
-5557.22
-5536.73
-5575.47
-5544.19
-5593.73
-5551.4
-5522.51
-5539.74
-5529.65
-5557.37
-5537.01
-5575.48
-5544.42
-5593.65
-5551.49
)
;

boundaryField
{
    inlet
    {
        type            calculated;
        value           nonuniform List<scalar> 9(-1765.21 -1765.65 -1766.36 -3643.34 -3643.81 -3644.41 -5521.7 -5522.04 -5522.51);
    }
    outlet
    {
        type            calculated;
        value           nonuniform 0();
    }
    wall
    {
        type            calculated;
        value           nonuniform List<scalar> 
57
(
-6460.65
-6461
-6461.47
-6478.37
-6478.5
-6478.7
-6467.94
-6468.21
-6468.6
-6496.05
-6496.18
-6496.33
-6475.48
-6475.69
-6475.97
-6514.11
-6514.43
-6514.43
-6482.96
-6483.14
-6483.38
-6532.47
-6532.69
-6532.61
-6490.17
-6490.35
-6490.45
-1766.36
-3644.41
-5522.51
-1783.88
-3661.81
-5539.74
-1773.49
-3651.6
-5529.65
-1801.55
-3679.43
-5557.37
-1780.86
-3659.04
-5537.01
-1819.85
-3697.61
-5575.48
89.1492
-1788.36
-3666.44
-5544.42
39.2906
-1838.21
-3715.91
-5593.65
82.0839
-1795.51
-3673.61
-5551.49
)
;
    }
    procBoundary6to0
    {
        type            processor;
        value           uniform 82.427;
    }
    procBoundary6to2
    {
        type            processor;
        value           nonuniform List<scalar> 
32
(
1960.2
1916.84
1960.26
1967.06
1916.81
1960.03
112.068
94.3211
104.778
76.3602
97.2306
58.2651
89.7344
40.1364
40.1364
40.1364
111.688
94.0623
104.465
76.0945
96.9573
57.8551
89.4754
89.4754
89.4754
111.045
93.7132
103.915
75.8684
96.5041
57.6691
57.6691
)
;
    }
    procBoundary6to4
    {
        type            processor;
        value           nonuniform List<scalar> 
27
(
-1765.27
-1783.06
-1772.52
-1800.93
-1780.22
-1819.03
-1787.98
-1837.2
-1795.47
-3643.26
-3661.17
-3650.58
-3678.97
-3658.3
-3697.34
-3665.98
-3715.91
-3673.38
-5521.49
-5539.38
-5528.87
-5557.11
-5536.55
-5575.5
-5544.22
-5593.82
-5551.43
)
;
    }
    procBoundary6to7
    {
        type            processor;
        value           nonuniform List<scalar> 
12
(
22.1932
20.7422
20.7367
-1855.22
-1856.47
-1856.72
-3733.56
-3734.53
-3734.37
-5611.51
-5612.2
-5612.02
)
;
    }
}


// ************************************************************************* //
