/*--------------------------------*- C++ -*----------------------------------*\
| =========                 |                                                 |
| \\      /  F ield         | OpenFOAM: The Open Source CFD Toolbox           |
|  \\    /   O peration     | Version:  4.x                                   |
|   \\  /    A nd           | Web:      www.OpenFOAM.org                      |
|    \\/     M anipulation  |                                                 |
\*---------------------------------------------------------------------------*/
FoamFile
{
    version     2.0;
    format      ascii;
    class       volVectorField;
    location    "28";
    object      U;
}
// * * * * * * * * * * * * * * * * * * * * * * * * * * * * * * * * * * * * * //

dimensions      [0 1 -1 0 0 0 0];

internalField   nonuniform List<vector> 
87
(
(0.0278135 0.000268956 -0.000155445)
(0.00642303 0.000479919 -0.00045634)
(0.0298001 0.000616765 -0.000467247)
(0.0327238 0.000631031 -0.000902983)
(0.0155803 0.000226999 -0.000938428)
(0.0335581 0.000332956 -0.000830089)
(0.0294777 0.00046504 -0.000654635)
(0.00890223 0.000308425 -0.0002257)
(0.0281179 0.000515564 -0.000541753)
(0.00507157 0.000189544 -0.000173341)
(0.0276614 0.000230819 -0.000395891)
(0.00232456 0.000122899 -8.3701e-05)
(0.027318 -9.98381e-05 -0.000333862)
(5.5412e-06 3.74097e-07 -1.62922e-07)
(0.0271325 -2.67738e-05 -0.000432367)
(0.0297807 0.0015442 -0.000518699)
(0.00977517 0.000536044 -0.000279921)
(0.0291187 0.00137059 -0.000497462)
(0.00691338 0.00038497 -0.000273009)
(0.0287293 0.00081739 -0.000425121)
(0.00424993 0.000240468 -0.000181642)
(0.028453 0.000654894 -0.000404233)
(0.00172912 0.000128731 -8.67155e-05)
(0.0283062 -0.000152895 -0.000269688)
(0.0300787 0.00105859 -0.000579623)
(0.0126478 0.000532276 -0.000387454)
(0.0307588 0.00115618 -0.000631631)
(0.0131546 0.000422425 -0.000571208)
(0.0312244 0.000862197 -0.000641835)
(0.0128021 0.000320943 -0.000555054)
(0.0313504 0.000774898 -0.00056992)
(0.0124728 0.000270855 -0.000592844)
(0.0316251 0.000316946 -0.000449041)
(0.0295119 0.000736399 0.000868043)
(0.0101756 0.000330971 0.000244677)
(0.0288988 0.000834535 0.000826638)
(0.00762176 0.000262287 0.000216546)
(0.0286037 0.00058031 0.00057452)
(0.00542372 9.72567e-05 8.87506e-05)
(0.0284461 0.000231938 0.000366378)
(0.00322998 8.23183e-06 0.00010868)
(0.0283801 5.31139e-05 -0.000291919)
(0.0297775 0.00145892 0.000776836)
(0.0113991 0.000622105 0.000302816)
(0.0297693 0.00136401 0.000925611)
(0.0103978 0.000442441 0.000193176)
(0.0298229 0.0010649 0.000811354)
(0.00932163 0.000441513 0.000114097)
(0.0298245 0.000918592 0.000650392)
(0.00790286 0.000401135 7.85959e-06)
(0.0301409 0.000841706 0.000273373)
(0.0299456 0.000902521 0.000467821)
(0.0135012 0.00048714 0.000149466)
(0.0312393 0.000915292 0.000541064)
(0.0149563 0.00037975 0.000157946)
(0.0321917 0.000719929 0.00053963)
(0.0157237 0.000341885 3.3182e-07)
(0.0327988 0.000606901 0.000328811)
(0.0161018 0.000208011 -0.0002057)
(0.0334661 0.0003785 0.000119912)
(0.0298141 0.00076816 0.000614206)
(0.0126796 0.000297089 0.000244576)
(0.0303162 0.000643916 0.000491769)
(0.0127038 0.000226667 0.000143171)
(0.0307148 0.000344564 0.000369649)
(0.0123133 5.4953e-05 0.000132526)
(0.0308618 -8.77419e-06 0.00034815)
(0.0115188 -6.16136e-05 0.000221399)
(0.0308185 -6.19219e-05 0.000381546)
(0.0299502 0.00114521 0.00045644)
(0.0133986 0.000545119 0.000206831)
(0.0310265 0.00112611 0.000374367)
(0.0145823 0.000521929 0.000105538)
(0.0319555 0.000864147 0.000245993)
(0.0151744 0.000504325 0.00013889)
(0.0323242 0.000758468 0.000246504)
(0.0151045 0.00032097 3.54534e-06)
(0.0328265 0.000489541 9.01793e-05)
(0.0300077 0.000729774 0.000281463)
(0.0143711 0.000372275 7.45338e-05)
(0.031913 0.000744145 0.000190127)
(0.0169547 0.000380645 6.93739e-05)
(0.0336287 0.000597682 9.2729e-05)
(0.0188815 0.000218239 -3.05062e-05)
(0.0346275 0.000460465 6.71197e-05)
(0.0198095 0.000100553 -0.000157435)
(0.0353614 0.000196747 -0.000130854)
)
;

boundaryField
{
    inlet
    {
        type            fixedValue;
        value           uniform (0.01 0 0);
    }
    outlet
    {
        type            zeroGradient;
    }
    wall
    {
        type            fixedValue;
        value           uniform (0 0 0);
    }
    procBoundary6to0
    {
        type            processor;
        value           uniform (0.0274243 0.000377682 -0.000733626);
    }
    procBoundary6to2
    {
        type            processor;
        value           nonuniform List<vector> 
32
(
(0.0287987 -0.000312288 -0.000448775)
(0.00333138 0.000120707 -0.000308746)
(0.0293326 0.000195777 -0.000233888)
(0.0328386 0.000896879 -0.000961818)
(0.0151895 0.000281869 -0.000978166)
(0.0335985 0.000434091 -0.000749664)
(0.0295514 0.000550612 -0.00171753)
(0.00957445 0.000342874 -0.000727179)
(0.028836 0.000727249 -0.00142237)
(0.00675274 0.000309483 -0.000542011)
(0.0283343 0.000485123 -0.000968548)
(0.00456481 0.000313516 -0.00033104)
(0.0281247 0.000197885 -0.00081862)
(0.00278999 0.000289404 -0.000302352)
(0.00278999 0.000289404 -0.000302352)
(0.00278999 0.000289404 -0.000302352)
(0.0296604 0.00135316 -0.00145253)
(0.0106157 0.000638153 -0.00070665)
(0.029473 0.00135978 -0.0012562)
(0.00897384 0.000485273 -0.000616019)
(0.0293053 0.00114282 -0.000968996)
(0.00757106 0.000447273 -0.000456934)
(0.0294988 0.000962748 -0.000609952)
(0.0294988 0.000962748 -0.000609952)
(0.0294988 0.000962748 -0.000609952)
(0.0299307 0.000955379 -0.00135186)
(0.012896 0.000498496 -0.000845539)
(0.0310141 0.000987981 -0.00140266)
(0.0139946 0.000432958 -0.00100066)
(0.0318494 0.000824589 -0.00132916)
(0.0148901 0.00038097 -0.000797645)
(0.0148901 0.00038097 -0.000797645)
)
;
    }
    procBoundary6to4
    {
        type            processor;
        value           nonuniform List<vector> 
27
(
(0.0296936 -0.000367562 -0.000713013)
(0.00946809 -2.48672e-05 -0.000244733)
(0.0285193 -0.000165078 -0.000582512)
(0.00603168 -0.000110878 -0.000170542)
(0.0278251 -0.000142529 -0.000491473)
(0.003419 -7.4238e-05 2.97523e-05)
(0.0274391 -0.000197658 -0.000428133)
(0.0016083 -5.53799e-05 8.6065e-05)
(0.0270634 1.35754e-05 -7.24243e-05)
(0.0296792 -0.000346995 0.000479808)
(0.00998388 1.06047e-05 0.000374892)
(0.0288799 -0.000115004 0.000831014)
(0.00692573 -6.54779e-06 0.000253023)
(0.028578 -0.000121241 0.000744379)
(0.00436904 -6.50409e-05 0.000251669)
(0.0286271 -0.000214019 0.000592841)
(0.00254275 -4.86479e-05 0.000172527)
(0.0288753 -0.000379468 0.000332958)
(0.0297301 -0.000116162 0.000424502)
(0.0120488 -3.44025e-05 0.000293468)
(0.0300609 -0.000197467 0.000597605)
(0.0118352 -0.000132527 0.000273617)
(0.0306637 -0.00025526 0.00053863)
(0.0119276 -0.00020708 0.000277338)
(0.0311814 -0.000359678 0.000526266)
(0.0121441 -0.000195593 0.000109015)
(0.0318296 -0.000440742 0.000225017)
)
;
    }
    procBoundary6to7
    {
        type            processor;
        value           nonuniform List<vector> 
12
(
(0.00200066 0.000392184 -0.000266852)
(0.00584059 0.000654221 -0.000553277)
(0.0157824 0.000105282 -0.00118873)
(2.86178e-08 1.08192e-09 -1.08049e-08)
(0.000127256 1.43924e-05 -5.74557e-06)
(0.0112034 0.000238976 -0.000585576)
(0.000710616 1.61128e-05 2.39372e-05)
(0.00673707 0.000462387 4.3414e-06)
(0.016515 -1.88991e-05 -0.000388757)
(0.0101374 -6.6315e-05 9.02448e-05)
(0.0147429 0.00055101 -0.000182903)
(0.0201163 -9.71917e-05 -0.000328554)
)
;
    }
}


// ************************************************************************* //
