/*--------------------------------*- C++ -*----------------------------------*\
| =========                 |                                                 |
| \\      /  F ield         | OpenFOAM: The Open Source CFD Toolbox           |
|  \\    /   O peration     | Version:  4.x                                   |
|   \\  /    A nd           | Web:      www.OpenFOAM.org                      |
|    \\/     M anipulation  |                                                 |
\*---------------------------------------------------------------------------*/
FoamFile
{
    version     2.0;
    format      ascii;
    class       volScalarField;
    location    "9.5";
    object      KslNext;
}
// * * * * * * * * * * * * * * * * * * * * * * * * * * * * * * * * * * * * * //

dimensions      [1 -3 -1 0 0 0 0];

internalField   nonuniform List<scalar> 
108
(
3419.04
7337.23
3447.27
7182.09
3462.88
7029.2
3443.37
6887.44
3354.92
3509.08
9532.46
3770.91
14712.1
3921.59
24942
3978.54
44816.2
3977.37
3560.07
10080.8
3874.35
16290.3
3990.01
27189.4
4011.62
56729.1
4029.83
3541.24
10253
3918.32
17611.3
4072.47
36266.7
4159.73
121829
4186.9
3408.01
7081.6
3390.78
6769.83
3376.32
6359.88
3288.37
6051.14
3196.28
3489.63
8412.29
3634.92
10127.4
3712.09
12389.2
3754.26
16216.2
3808.96
3519.68
8860.55
3749.5
11347.3
3815.5
13601.5
3786.28
15353.6
3770.92
3549.7
9419.87
3814.82
13207.8
3934.48
17976.3
3981.81
25000.5
4046.52
3352.37
6547.07
3227.63
5878.71
3196.29
5617.23
3157.4
5303.68
3038.92
3404.65
7227.74
3424.27
6869.11
3382.95
6450.06
3300.54
5879.99
3183.36
3464.41
7565.39
3517.74
7565.04
3492.32
7142.14
3377.05
6348.66
3233.8
3508.62
7804.14
3578.54
8151.71
3571.64
7718.3
3449.51
6680.1
3333.63
)
;

boundaryField
{
    inlet
    {
        type            zeroGradient;
    }
    outlet
    {
        type            zeroGradient;
    }
    wall
    {
        type            zeroGradient;
    }
    procBoundary4to0
    {
        type            processor;
        value           uniform 0;
    }
    procBoundary4to5
    {
        type            processor;
        value           uniform 0;
    }
    procBoundary4to6
    {
        type            processor;
        value           uniform 0;
    }
}


// ************************************************************************* //
