/*--------------------------------*- C++ -*----------------------------------*\
| =========                 |                                                 |
| \\      /  F ield         | OpenFOAM: The Open Source CFD Toolbox           |
|  \\    /   O peration     | Version:  4.x                                   |
|   \\  /    A nd           | Web:      www.OpenFOAM.org                      |
|    \\/     M anipulation  |                                                 |
\*---------------------------------------------------------------------------*/
FoamFile
{
    version     2.0;
    format      ascii;
    class       volScalarField;
    location    "9.5";
    object      pSmooth;
}
// * * * * * * * * * * * * * * * * * * * * * * * * * * * * * * * * * * * * * //

dimensions      [1 -1 -2 0 0 0 0];

internalField   nonuniform List<scalar> 
108
(
110.555
94.0955
103.295
77.4951
95.59
60.4539
87.6114
42.9648
79.5091
111.381
94.5637
104.172
77.8341
96.2445
60.5527
88.0727
43.2711
80.1597
111.61
94.6741
104.183
77.9602
96.0967
60.7172
87.9779
43.5313
80.0044
112.033
95.1538
104.669
78.4439
96.5601
61.2774
88.2084
44.0848
80.1133
110.594
94.2021
103.293
77.6431
95.4395
60.3905
87.4186
42.8095
79.1865
111.295
94.599
103.951
77.9315
96.0163
60.5692
87.9277
43.0582
79.9559
111.485
94.7478
103.996
77.9045
95.8462
60.4021
87.575
42.8544
79.7465
112.036
95.033
104.498
78.3454
96.269
60.8435
87.9078
43.3433
79.869
110.581
94.2081
103.251
77.8107
95.4451
60.5542
87.164
42.7545
78.7237
111.173
94.5544
103.703
77.9522
95.7511
60.5869
87.3383
42.8212
78.8782
111.36
94.6431
103.776
77.9025
95.6686
60.5053
87.2403
42.6976
78.8601
111.847
94.8631
104.223
78.2366
95.963
60.6673
87.3483
43.0411
78.9533
)
;

boundaryField
{
    inlet
    {
        type            zeroGradient;
    }
    outlet
    {
        type            fixedValue;
        value           nonuniform 0();
    }
    wall
    {
        type            zeroGradient;
    }
    procBoundary4to0
    {
        type            processor;
        value           nonuniform List<scalar> 
36
(
109.723
93.4528
102.547
76.9119
95.0675
59.8982
87.3209
42.5082
79.7112
110.457
93.8696
103.25
77.1739
95.6764
60.154
87.9012
42.5519
80.0786
110.674
94.0221
103.429
77.3238
95.7258
60.1387
87.7682
42.5345
79.9663
111.182
94.4096
103.932
77.5988
96.0487
60.5056
87.9534
42.9129
80.0564
)
;
    }
    procBoundary4to5
    {
        type            processor;
        value           nonuniform List<scalar> 
12
(
24.9435
25.8412
26.5243
27.4817
24.3672
25.5056
25.4505
26.6713
24.4382
24.727
24.7544
25.4777
)
;
    }
    procBoundary4to6
    {
        type            processor;
        value           nonuniform List<scalar> 
27
(
111.893
94.6061
104.322
78.0639
96.164
60.756
87.9484
43.5871
80.0317
111.803
94.6932
104.143
77.92
95.9408
60.5541
87.6369
43.0603
79.8451
111.474
94.6712
103.965
78.0427
95.8779
60.6967
87.5116
42.8022
79.2118
)
;
    }
}


// ************************************************************************* //
