/*--------------------------------*- C++ -*----------------------------------*\
| =========                 |                                                 |
| \\      /  F ield         | OpenFOAM: The Open Source CFD Toolbox           |
|  \\    /   O peration     | Version:  4.x                                   |
|   \\  /    A nd           | Web:      www.OpenFOAM.org                      |
|    \\/     M anipulation  |                                                 |
\*---------------------------------------------------------------------------*/
FoamFile
{
    version     2.0;
    format      ascii;
    class       volScalarField;
    location    "22.5";
    object      pSmooth;
}
// * * * * * * * * * * * * * * * * * * * * * * * * * * * * * * * * * * * * * //

dimensions      [1 -1 -2 0 0 0 0];

internalField   nonuniform List<scalar> 
132
(
24.045
72.3638
6.36897
65.1229
0.1
58.5339
0.1
52.0552
0.1
22.5983
72.4559
4.02358
65.5914
0.1
59.3769
0.1
54.2485
0.1
22.5457
72.2374
4.01098
65.1195
0.1
58.4212
0.1
52.8066
0.1
22.2595
72.1207
3.25553
65.3393
0.1
59.61
0.1
56.9
0.1
7.1664
64.989
0.1
57.9441
0.1
51.0027
0.1
24.6587
72.1651
7.53763
65.2253
0.1
57.9767
0.1
49.9852
0.1
23.9903
72.4548
6.39691
64.9562
0.1
58.0258
0.1
50.6162
0.1
23.7885
72.4544
5.96055
65.3045
0.1
58.1779
0.1
50.8787
0.1
0.1
57.769
0.1
50.3008
0.1
23.8984
72.3957
5.79961
65.1193
0.1
58.4252
0.1
52.6548
0.1
23.811
72.1881
5.68511
64.655
0.1
57.4734
0.1
51.1127
0.1
23.5007
72.1957
5.09101
65.1023
0.1
58.7441
0.1
55.0049
0.1
0.1
49.9306
0.1
24.209
72.4941
6.44078
65.2091
0.1
57.993
0.1
50.6757
0.1
24.1873
72.3497
6.58747
64.9661
0.1
57.5835
0.1
50.3311
0.1
24.08
72.3416
6.21004
65.1887
0.1
58.0891
0.1
51.691
0.1
)
;

boundaryField
{
    inlet
    {
        type            zeroGradient;
    }
    outlet
    {
        type            fixedValue;
        value           uniform 0;
    }
    wall
    {
        type            zeroGradient;
    }
    procBoundary7to0
    {
        type            processor;
        value           uniform 80.0629;
    }
    procBoundary7to1
    {
        type            processor;
        value           uniform 23.2514;
    }
    procBoundary7to3
    {
        type            processor;
        value           nonuniform List<scalar> 
36
(
23.0152
72.5378
5.14416
65.59
0.1
59.2997
0.1
52.8996
0.1
23.1977
72.4738
5.37158
65.8387
0.1
59.2927
0.1
52.6162
0.1
22.7383
72.6987
4.66914
65.6165
0.1
59.3732
0.1
53.2804
0.1
22.5032
72.2275
4.2541
65.5397
0.1
59.6431
0.1
55.5733
0.1
)
;
    }
    procBoundary7to5
    {
        type            processor;
        value           nonuniform List<scalar> 
44
(
72.6736
5.30025
65.7453
0.1
59.3841
0.1
53.2025
0.1
24.5735
72.3026
6.87569
65.3156
0.1
58.7486
0.1
51.4266
0.1
24.5735
72.3026
72.3026
6.53617
64.6653
0.1
58.6153
0.1
53.4088
0.1
24.2695
72.2856
6.53617
64.6653
64.6653
0.1
57.307
0.1
52.9004
0.1
24.2263
72.3595
6.58124
64.8591
0.1
57.307
57.307
)
;
    }
    procBoundary7to6
    {
        type            processor;
        value           nonuniform List<scalar> 
12
(
79.8135
79.677
79.4244
79.7571
80.1649
79.8697
79.9943
79.8999
79.6255
79.9234
79.8606
79.6996
)
;
    }
}


// ************************************************************************* //
