/*--------------------------------*- C++ -*----------------------------------*\
| =========                 |                                                 |
| \\      /  F ield         | OpenFOAM: The Open Source CFD Toolbox           |
|  \\    /   O peration     | Version:  4.x                                   |
|   \\  /    A nd           | Web:      www.OpenFOAM.org                      |
|    \\/     M anipulation  |                                                 |
\*---------------------------------------------------------------------------*/
FoamFile
{
    version     2.0;
    format      ascii;
    class       volScalarField;
    location    "22.5";
    object      QPartFluid;
}
// * * * * * * * * * * * * * * * * * * * * * * * * * * * * * * * * * * * * * //

dimensions      [1 -1 -3 0 0 0 0];

internalField   nonuniform List<scalar> 
132
(
9.97816e+09
8.98596e+09
6.32615e+09
7.79757e+09
1.08843e+10
1.22187e+10
7.9093e+09
6.56362e+09
6.02896e+09
7.79991e+09
1.1428e+10
7.53856e+09
8.13512e+09
8.43115e+09
6.98627e+09
7.69806e+09
7.71998e+09
6.60933e+09
5.28121e+09
9.33025e+09
6.89013e+09
8.87403e+09
8.26648e+09
1.03194e+10
8.63457e+09
8.89867e+09
7.38486e+09
7.09502e+09
7.50639e+09
9.03674e+09
5.99451e+09
8.08064e+09
8.19416e+09
8.2832e+09
7.4303e+09
3.93399e+09
6.47116e+09
8.53432e+09
6.88146e+09
8.11009e+09
8.8048e+09
1.00171e+10
5.92563e+09
3.83336e+09
9.93616e+09
7.25721e+09
8.67704e+09
8.51626e+09
8.13842e+09
5.76482e+09
8.90538e+09
4.86092e+09
6.02543e+09
1.00591e+10
7.52223e+09
7.23994e+09
8.20889e+09
1.04542e+10
9.56267e+09
8.3285e+09
6.41327e+09
6.79719e+09
8.62079e+09
6.26376e+09
8.0435e+09
7.36122e+09
6.74008e+09
6.4865e+09
8.70815e+09
4.47617e+09
4.75231e+09
6.91794e+09
7.76869e+09
7.07776e+09
4.23304e+09
8.62122e+09
9.04003e+09
7.0705e+09
6.44854e+09
9.00136e+09
8.70123e+09
7.56756e+09
1.05293e+10
6.5055e+09
8.20057e+09
9.40387e+09
8.6473e+09
8.90418e+09
9.35108e+09
9.80842e+09
9.07404e+09
9.17418e+09
7.45431e+09
6.0882e+09
7.33357e+09
7.30075e+09
8.19095e+09
6.70077e+09
7.05814e+09
8.6683e+09
8.94262e+09
6.02887e+09
5.65525e+09
7.25098e+09
4.83683e+09
7.20885e+09
6.87038e+09
7.39322e+09
8.42709e+09
5.08385e+09
4.73778e+09
6.73131e+09
7.20514e+09
4.43677e+09
6.32672e+09
6.72024e+09
6.33412e+09
7.63467e+09
7.40556e+09
7.09309e+09
7.68331e+09
7.44409e+09
6.51684e+09
6.15481e+09
8.26699e+09
5.98148e+09
7.17198e+09
7.5289e+09
7.09777e+09
6.83648e+09
7.37075e+09
4.23748e+09
)
;

boundaryField
{
    inlet
    {
        type            calculated;
        value           nonuniform 0();
    }
    outlet
    {
        type            calculated;
        value           uniform 0;
    }
    wall
    {
        type            calculated;
        value           uniform 0;
    }
    procBoundary7to0
    {
        type            processor;
        value           uniform 2.59339e+09;
    }
    procBoundary7to1
    {
        type            processor;
        value           uniform 5.9119e+09;
    }
    procBoundary7to3
    {
        type            processor;
        value           nonuniform List<scalar> 
36
(
8.06425e+09
1.07079e+10
8.92083e+09
1.0032e+10
6.39374e+09
7.6112e+09
8.85475e+09
8.29107e+09
6.75254e+09
9.60712e+09
6.1369e+09
8.11137e+09
4.98364e+09
4.3384e+09
9.39968e+09
7.71511e+09
1.09483e+10
5.43819e+09
6.03599e+09
1.02192e+10
9.12582e+09
7.16853e+09
7.24012e+09
9.80494e+09
7.94075e+09
9.18724e+09
4.56705e+09
8.80855e+09
4.84654e+09
5.82042e+09
6.96628e+09
6.45508e+09
8.5258e+09
6.40786e+09
9.46732e+09
7.38958e+09
)
;
    }
    procBoundary7to5
    {
        type            processor;
        value           nonuniform List<scalar> 
44
(
9.94923e+09
6.12464e+09
8.71e+09
5.84235e+09
5.27768e+09
7.34608e+09
6.16548e+09
6.57447e+09
1.01865e+10
5.0042e+09
7.27075e+09
8.9743e+09
6.12499e+09
8.19695e+09
7.09816e+09
7.83519e+09
4.06194e+09
1.01865e+10
5.0042e+09
5.0042e+09
9.27487e+09
9.61321e+09
1.14274e+10
9.23416e+09
9.04874e+09
1.06804e+10
7.76493e+09
5.19837e+09
1.14167e+10
9.27487e+09
9.61321e+09
9.61321e+09
1.00501e+10
8.08488e+09
6.84342e+09
7.65349e+09
6.34445e+09
7.03344e+09
6.29274e+09
7.11594e+09
6.46041e+09
1.00501e+10
8.08488e+09
8.08488e+09
)
;
    }
    procBoundary7to6
    {
        type            processor;
        value           nonuniform List<scalar> 
12
(
8.11316e+09
8.86653e+09
5.58409e+09
9.88664e+09
9.32e+09
8.72119e+09
9.4589e+09
9.87133e+09
6.83978e+09
4.47065e+09
8.40541e+09
7.14835e+09
)
;
    }
}


// ************************************************************************* //
