/*--------------------------------*- C++ -*----------------------------------*\
| =========                 |                                                 |
| \\      /  F ield         | OpenFOAM: The Open Source CFD Toolbox           |
|  \\    /   O peration     | Version:  4.x                                   |
|   \\  /    A nd           | Web:      www.OpenFOAM.org                      |
|    \\/     M anipulation  |                                                 |
\*---------------------------------------------------------------------------*/
FoamFile
{
    version     2.0;
    format      ascii;
    class       volScalarField;
    location    "22.5";
    object      SPartFluid;
}
// * * * * * * * * * * * * * * * * * * * * * * * * * * * * * * * * * * * * * //

dimensions      [1 -3 -1 0 0 0 0];

internalField   nonuniform List<scalar> 
132
(
9.91981e-65
7.82734e-65
6.43235e-65
6.74234e-65
1.03073e-64
1.03848e-64
7.9823e-65
5.65736e-65
8.36978e-65
7.67236e-65
9.45482e-65
7.28484e-65
6.89735e-65
8.29231e-65
5.65737e-65
7.51733e-65
6.35486e-65
8.05981e-65
4.80493e-65
7.43989e-65
6.1224e-65
7.12987e-65
7.43987e-65
8.05986e-65
7.51737e-65
7.20737e-65
8.60234e-65
6.50995e-65
6.58744e-65
8.67991e-65
5.50244e-65
7.28491e-65
6.74242e-65
7.9049e-65
5.88994e-65
4.33995e-65
6.43235e-65
7.36233e-65
6.74234e-65
6.89734e-65
8.60229e-65
8.4473e-65
7.36232e-65
3.95243e-65
8.52484e-65
7.43985e-65
7.51734e-65
8.13733e-65
7.05235e-65
5.73487e-65
7.67233e-65
5.73487e-65
5.50243e-65
8.21488e-65
6.97489e-65
6.0449e-65
7.36237e-65
8.60236e-65
8.91235e-65
7.05238e-65
7.98236e-65
6.74244e-65
7.90493e-65
5.96743e-65
7.20742e-65
7.36241e-65
6.19993e-65
6.58742e-65
7.98241e-65
5.34744e-65
5.03739e-65
5.81238e-65
7.36235e-65
6.04487e-65
5.81237e-65
8.0599e-65
7.36238e-65
6.81989e-65
5.1924e-65
8.52484e-65
7.05237e-65
7.12987e-65
8.75734e-65
7.51735e-65
7.05244e-65
7.36242e-65
7.51741e-65
6.9749e-65
7.98238e-65
7.5949e-65
7.6724e-65
7.05241e-65
7.74989e-65
5.57998e-65
6.35496e-65
7.05245e-65
6.89745e-65
6.12245e-65
5.26997e-65
7.59494e-65
7.05246e-65
5.81246e-65
5.50241e-65
6.4324e-65
6.12241e-65
6.89744e-65
5.81245e-65
7.6724e-65
7.43991e-65
5.19243e-65
3.87495e-65
6.8974e-65
6.66491e-65
5.42492e-65
5.96747e-65
6.04497e-65
6.04496e-65
6.19995e-65
6.89743e-65
6.35495e-65
7.20742e-65
6.43245e-65
7.28494e-65
6.045e-65
7.44e-65
5.65749e-65
5.81249e-65
6.58747e-65
6.50998e-65
6.50997e-65
6.35499e-65
4.1075e-65
)
;

boundaryField
{
    inlet
    {
        type            calculated;
        value           nonuniform 0();
    }
    outlet
    {
        type            calculated;
        value           uniform 0;
    }
    wall
    {
        type            calculated;
        value           uniform 0;
    }
    procBoundary7to0
    {
        type            processor;
        value           uniform 2.32496e-65;
    }
    procBoundary7to1
    {
        type            processor;
        value           uniform 5.7349e-65;
    }
    procBoundary7to3
    {
        type            processor;
        value           nonuniform List<scalar> 
36
(
7.67237e-65
9.06734e-65
8.75733e-65
8.52483e-65
6.12237e-65
6.27737e-65
8.52481e-65
7.12984e-65
7.43983e-65
9.06737e-65
5.03741e-65
7.74986e-65
4.33992e-65
4.6499e-65
7.90484e-65
7.28485e-65
8.83482e-65
6.12237e-65
5.11495e-65
8.13741e-65
8.21488e-65
5.81241e-65
6.81988e-65
7.98237e-65
6.6649e-65
7.20738e-65
5.42492e-65
8.52494e-65
4.02997e-65
5.42496e-65
6.12245e-65
5.57994e-65
7.12994e-65
6.19994e-65
7.90493e-65
8.5249e-65
)
;
    }
    procBoundary7to5
    {
        type            processor;
        value           nonuniform List<scalar> 
44
(
8.44734e-65
6.04488e-65
7.51734e-65
5.73487e-65
4.5724e-65
7.28483e-65
5.42488e-65
8.67979e-65
9.99733e-65
4.33991e-65
7.28486e-65
7.59484e-65
6.19987e-65
7.05235e-65
7.12985e-65
6.89735e-65
5.57988e-65
9.99733e-65
4.33991e-65
4.33991e-65
8.98985e-65
7.98236e-65
1.00748e-64
7.36237e-65
8.21485e-65
8.91234e-65
8.67983e-65
4.80493e-65
9.37735e-65
8.98985e-65
7.98236e-65
7.98236e-65
9.68735e-65
7.74989e-65
6.50991e-65
6.74241e-65
6.81991e-65
7.36243e-65
5.65744e-65
7.12991e-65
5.57993e-65
9.68735e-65
7.74989e-65
7.74989e-65
)
;
    }
    procBoundary7to6
    {
        type            processor;
        value           nonuniform List<scalar> 
12
(
6.7424e-65
7.12992e-65
4.95997e-65
8.52488e-65
7.59493e-65
7.51746e-65
7.90492e-65
7.74994e-65
5.65749e-65
3.79749e-65
7.82748e-65
6.04501e-65
)
;
    }
}


// ************************************************************************* //
