/*--------------------------------*- C++ -*----------------------------------*\
| =========                 |                                                 |
| \\      /  F ield         | OpenFOAM: The Open Source CFD Toolbox           |
|  \\    /   O peration     | Version:  4.x                                   |
|   \\  /    A nd           | Web:      www.OpenFOAM.org                      |
|    \\/     M anipulation  |                                                 |
\*---------------------------------------------------------------------------*/
FoamFile
{
    version     2.0;
    format      ascii;
    class       volVectorField;
    location    "22.5";
    object      U;
}
// * * * * * * * * * * * * * * * * * * * * * * * * * * * * * * * * * * * * * //

dimensions      [0 1 -1 0 0 0 0];

internalField   nonuniform List<vector> 
132
(
(0.000635538 3.84303e-05 -8.77807e-05)
(0.0266475 0.000335848 0.000198536)
(9.13626e-09 4.98409e-09 -3.28398e-09)
(0.0262202 0.000215731 0.000807112)
(9.28765e-09 3.82067e-09 -2.24914e-09)
(0.0261325 7.58841e-05 0.00200917)
(8.08552e-09 2.40948e-09 -1.27445e-09)
(0.0252337 -0.0015023 0.00296373)
(0.00307099 0.000918341 -0.000739169)
(0.00448951 0.000543174 -0.000505963)
(0.0288984 0.000326528 0.000135843)
(0.00361408 0.000665335 -0.000611683)
(0.0290874 0.000224994 0.000604198)
(0.00282073 0.000823493 -0.00066015)
(0.0289528 0.000441583 0.00179294)
(0.00270534 0.00120816 -0.000942421)
(0.026249 -0.00074874 0.00368838)
(0.00461298 0.00201762 -0.00242605)
(0.00722961 0.00025879 -0.000696323)
(0.0296078 0.000557835 -4.15903e-06)
(0.00677685 0.000452228 -0.000857158)
(0.0302594 0.000501948 0.000490789)
(0.00669564 0.00115861 -0.00119942)
(0.03052 3.85785e-05 0.0014817)
(0.0078685 0.00360789 -0.00234218)
(0.0284991 -0.00268219 0.00305686)
(0.0102426 0.0154022 -0.00735856)
(0.0171067 0.000417953 -0.00145498)
(0.0347944 0.000353529 -0.00102908)
(0.0173981 0.000786824 -0.00189346)
(0.0370759 9.65479e-05 -0.000723848)
(0.0172128 0.00173304 -0.00272805)
(0.0411234 -0.000675393 0.000365853)
(0.0156213 0.00413479 -0.00450043)
(0.0488134 -0.00312771 0.00361712)
(0.00935334 0.0132882 -0.00686127)
(8.67699e-09 2.15426e-09 -9.41894e-10)
(0.0270698 0.000124378 0.000847068)
(5.94458e-09 -1.6069e-09 -6.1989e-11)
(0.0275823 0.00111667 0.00140221)
(0.00149037 -0.000184212 -0.000120154)
(0.0288651 0.00192964 0.00277215)
(0.00457189 -0.000746346 -0.00259277)
(9.27165e-09 2.42667e-09 -1.61786e-09)
(0.0250599 -0.000138552 0.00025479)
(8.99247e-09 2.47496e-09 -2.92699e-09)
(0.0246801 6.93731e-05 0.00082682)
(8.44316e-09 1.98417e-09 -6.04333e-10)
(0.0242697 -0.000185516 0.00144082)
(0.00300017 -0.000314555 -0.000464037)
(0.023613 0.00017232 0.00211977)
(0.0112451 -0.00386547 -0.00237597)
(0.00123828 0.000100973 -0.000123954)
(0.0262894 -0.000151817 0.000137353)
(1.13341e-08 2.03911e-09 -3.56039e-09)
(0.0252952 5.85418e-06 0.000828467)
(9.01129e-09 3.43233e-09 -1.55931e-09)
(0.0236451 -0.00048864 0.001473)
(8.59892e-09 4.75402e-09 -2.22506e-09)
(0.0192577 -0.00178411 0.00229424)
(0.00265032 0.000444527 -0.000271512)
(0.0124556 0.000335066 -0.00106361)
(0.0301501 0.000252905 -0.000499851)
(0.0108642 0.000420958 -0.00132436)
(0.0295568 -0.000195182 -0.000101274)
(0.00905264 0.000742005 -0.00137229)
(0.0281195 -2.41431e-05 0.000892528)
(0.00749676 0.00106185 -0.00124787)
(0.0241463 -0.000595681 0.0025817)
(0.00733885 0.00129845 0.00262436)
(7.00145e-09 -5.21105e-10 9.89559e-10)
(0.024599 0.000305982 0.000641697)
(7.07395e-09 -9.2288e-10 7.32967e-10)
(0.0209507 0.00109149 0.000215043)
(0.00639136 -0.00091266 -0.00233697)
(0.00283729 0.000126627 0.000155065)
(0.0279028 0.000317144 -2.52793e-07)
(0.00166818 0.000131216 0.000179182)
(0.0283722 0.000203939 0.000362474)
(0.00131033 0.00020998 0.000250604)
(0.028599 0.000336867 -0.00029966)
(0.0017772 0.000613685 0.000388892)
(0.0264286 -0.00174829 -0.00198271)
(0.00435831 0.00240425 0.000472235)
(0.00748732 0.000353362 3.53163e-05)
(0.0287814 0.000644172 0.000429966)
(0.00714199 0.000523529 8.13654e-05)
(0.029575 0.000513512 0.000391511)
(0.0078851 0.00123055 0.000458391)
(0.0305302 8.24909e-05 0.000905975)
(0.0101158 0.00388421 0.00112839)
(0.0306989 -0.0022037 0.000424638)
(0.0124779 0.0188274 0.00338518)
(0.0172601 0.000551122 -0.000161897)
(0.0338736 0.000406767 0.000161637)
(0.0178611 0.00081733 -9.73903e-05)
(0.0360486 4.87596e-05 0.00027422)
(0.018295 0.00159067 0.00037071)
(0.0407567 -0.000707512 0.000626066)
(0.0180828 0.00396773 0.00156032)
(0.0539086 -0.00271515 0.000439475)
(0.0129527 0.0149591 0.00689143)
(0.0110812 -0.00254324 0.000714959)
(0.0264671 0.00191266 -0.0003704)
(0.0117382 -0.00464912 0.00118487)
(0.0111883 8.20096e-05 -0.00010002)
(0.0297896 0.000151688 4.20558e-05)
(0.00992512 8.95325e-05 -0.000298542)
(0.029438 6.50782e-05 -3.06795e-05)
(0.00873095 0.000124695 -0.000445077)
(0.0278938 -0.000154229 0.000293692)
(0.00746971 0.000130657 -0.000967677)
(0.0239165 -0.000370243 0.0016974)
(0.00820086 0.000270201 -0.00178979)
(0.0156529 0.000306925 -0.000245833)
(0.0315354 0.000501041 -0.000158858)
(0.0153139 0.000485873 -0.00068988)
(0.0313258 0.000541956 -0.000464062)
(0.0145399 0.00083027 -0.00133094)
(0.0304722 0.000683032 -0.00060303)
(0.0138187 0.00210326 -0.00259039)
(0.0277988 -0.000113312 -0.000187148)
(0.0130355 0.00448682 -0.0036635)
(0.0214293 0.000316863 -0.000666729)
(0.0353426 0.000262334 -0.000483835)
(0.0213913 0.000568201 -0.00128284)
(0.0357199 0.000152195 -0.000693962)
(0.0210821 0.00103747 -0.00249807)
(0.0364727 9.16569e-05 -0.00032377)
(0.0213487 0.00232886 -0.0056767)
(0.0375637 -0.000343309 0.00151363)
(0.0214818 0.00520333 -0.0161298)
)
;

boundaryField
{
    inlet
    {
        type            fixedValue;
        value           nonuniform 0();
    }
    outlet
    {
        type            zeroGradient;
    }
    wall
    {
        type            fixedValue;
        value           uniform (0 0 0);
    }
    procBoundary7to0
    {
        type            processor;
        value           uniform (0.0264213 0.000240184 -0.000379646);
    }
    procBoundary7to1
    {
        type            processor;
        value           uniform (0.00241071 -0.000352082 -0.000174539);
    }
    procBoundary7to3
    {
        type            processor;
        value           nonuniform List<vector> 
36
(
(0.00044746 2.69701e-06 -9.42925e-05)
(0.0273694 -4.99254e-05 0.000488631)
(1.48637e-08 4.5515e-09 -5.87709e-09)
(0.0271909 0.000228093 0.00120868)
(1.92349e-08 -1.89235e-09 -2.96029e-09)
(0.0268721 0.000831805 0.0015803)
(2.14864e-08 -3.22194e-09 -2.76265e-09)
(0.0251357 -0.000165748 0.00331821)
(0.00403974 0.00116882 -0.00270368)
(0.00113733 2.4075e-06 -0.000106047)
(0.0276587 -0.000435081 0.000198053)
(1.40293e-08 -2.3747e-10 -7.40438e-09)
(0.0276396 -0.000142122 0.00103461)
(1.50333e-08 -1.14103e-09 -5.33328e-09)
(0.0279074 -2.69304e-06 0.00217388)
(0.00221662 0.000215809 -0.00071363)
(0.0282052 -0.000171037 0.00395017)
(0.00918324 0.00207832 -0.00772951)
(0.00224873 0.000108726 -0.000175589)
(0.0280646 3.98234e-05 0.000255856)
(1.43206e-08 1.1934e-09 -7.29295e-09)
(0.0282019 -0.000126502 0.00130684)
(1.42752e-08 -1.53759e-09 -5.60938e-09)
(0.0287177 -0.000931763 0.00237542)
(0.00095774 0.000341289 -6.53424e-05)
(0.0294712 -0.00436405 0.00332288)
(0.00486542 0.00420662 -0.000366278)
(0.0162889 0.000305092 -0.00095497)
(0.0333263 0.000501972 -0.000669569)
(0.015795 0.000250504 -0.00103791)
(0.034431 -0.000289802 -0.000146436)
(0.014348 0.000757172 -0.00137839)
(0.0363039 -0.000446637 0.000753435)
(0.0119748 0.00210011 -0.00202327)
(0.04088 -0.00245215 0.00332982)
(0.00433398 0.00274864 -0.00183308)
)
;
    }
    procBoundary7to5
    {
        type            processor;
        value           nonuniform List<vector> 
44
(
(0.0274839 -0.000148684 0.000168154)
(0.000795266 -0.00017952 -6.45386e-05)
(0.0274304 0.000212046 0.000749139)
(8.39737e-09 -1.56368e-10 -1.78454e-09)
(0.0263275 0.000646633 0.0014316)
(4.70079e-05 -1.9597e-05 -3.88304e-06)
(0.0239512 0.00251047 0.00141739)
(0.00691877 -0.00221574 -0.00102009)
(7.5288e-09 2.60502e-09 5.05521e-11)
(0.02641 1.64938e-05 0.00022139)
(8.10436e-09 1.56112e-09 1.32222e-09)
(0.0260739 0.000137482 0.000973391)
(7.73233e-09 -4.0562e-10 1.20105e-09)
(0.0254709 0.000618488 0.00118367)
(6.55093e-09 -2.28256e-10 1.889e-09)
(0.0240387 0.0015476 -0.000535309)
(0.00303335 0.000785527 0.000298455)
(7.5288e-09 2.60502e-09 5.05521e-11)
(0.02641 1.64938e-05 0.00022139)
(0.02641 1.64938e-05 0.00022139)
(9.73152e-09 1.41212e-09 -4.13973e-10)
(0.026007 3.33051e-05 0.000517489)
(0.00548686 -0.00133643 0.00112909)
(0.0298472 -0.000141395 0.000412453)
(0.0060774 -0.00278512 0.00212771)
(0.0271392 0.00241645 -0.00222266)
(0.00610682 -0.00453207 0.00238537)
(0.00111804 -6.42852e-05 5.24144e-05)
(0.0266101 -0.000152597 0.000302969)
(9.73152e-09 1.41212e-09 -4.13973e-10)
(0.026007 3.33051e-05 0.000517489)
(0.026007 3.33051e-05 0.000517489)
(0.0108322 -0.00118804 0.000286206)
(0.0285495 0.000223373 0.000507213)
(0.0117582 -0.00345952 -0.000158894)
(0.0319911 0.00143125 0.000159984)
(0.00865189 -0.00497653 0.00062306)
(0.0121439 -0.000532211 0.000201649)
(0.0298141 -0.000330671 0.000223089)
(0.0114159 -0.000730794 0.000161531)
(0.0294832 -0.000250009 8.19833e-05)
(0.0108322 -0.00118804 0.000286206)
(0.0285495 0.000223373 0.000507213)
(0.0285495 0.000223373 0.000507213)
)
;
    }
    procBoundary7to6
    {
        type            processor;
        value           nonuniform List<vector> 
12
(
(0.0281195 0.00064535 5.83115e-05)
(0.0286464 0.000602749 -0.000408638)
(0.0330076 0.000516501 -0.000914581)
(0.0253037 -2.3001e-05 -0.000153933)
(0.0265455 3.78122e-05 -0.000348741)
(0.0301336 0.000590431 -0.000635337)
(0.0274292 0.000301352 6.25587e-05)
(0.0283116 0.000724631 0.00053003)
(0.0324318 0.000639182 0.000225308)
(0.0296557 0.000101907 0.000226395)
(0.0312958 0.000451098 7.29035e-05)
(0.0345408 0.000424369 -0.000240875)
)
;
    }
}


// ************************************************************************* //
