/*--------------------------------*- C++ -*----------------------------------*\
| =========                 |                                                 |
| \\      /  F ield         | OpenFOAM: The Open Source CFD Toolbox           |
|  \\    /   O peration     | Version:  4.x                                   |
|   \\  /    A nd           | Web:      www.OpenFOAM.org                      |
|    \\/     M anipulation  |                                                 |
\*---------------------------------------------------------------------------*/
FoamFile
{
    version     2.0;
    format      ascii;
    class       volVectorField;
    location    "19.5";
    object      ddtUrel;
}
// * * * * * * * * * * * * * * * * * * * * * * * * * * * * * * * * * * * * * //

dimensions      [0 1 -2 0 0 0 0];

internalField   nonuniform List<vector> 
108
(
(6.20486e-07 -1.38937e-07 -1.95649e-07)
(5.56054e-07 -1.34138e-07 -2.26256e-07)
(4.67869e-07 -1.59768e-07 -2.16372e-07)
(2.73779e-07 -1.15363e-07 -1.83695e-07)
(1.25387e-07 -4.43958e-08 -1.61642e-07)
(-6.82273e-09 -1.97105e-08 -1.34821e-07)
(-2.02109e-07 -1.39152e-08 -1.29128e-07)
(-2.66778e-07 -8.03993e-09 -1.284e-07)
(-2.51175e-07 -1.25054e-08 -1.0537e-07)
(6.99693e-07 -1.85729e-07 -3.06159e-07)
(6.326e-07 -2.0301e-07 -3.34113e-07)
(5.30385e-07 -1.9859e-07 -3.06725e-07)
(3.61879e-07 -1.30402e-07 -2.44149e-07)
(2.14051e-07 -3.70069e-08 -1.91183e-07)
(5.13574e-08 -1.06479e-08 -1.51473e-07)
(-1.74487e-07 -5.79611e-09 -1.46396e-07)
(-2.82452e-07 -9.68833e-09 -1.38536e-07)
(-2.32031e-07 6.46035e-09 -1.14778e-07)
(7.4896e-07 -1.99037e-07 -4.31209e-07)
(6.98298e-07 -2.42624e-07 -4.57473e-07)
(6.1331e-07 -2.14135e-07 -4.07182e-07)
(4.6992e-07 -1.32612e-07 -3.08404e-07)
(3.5558e-07 -6.678e-08 -2.48627e-07)
(1.24111e-07 -1.73794e-08 -1.80567e-07)
(-1.18218e-07 -7.86228e-09 -1.61172e-07)
(-2.52661e-07 2.2645e-08 -1.40108e-07)
(-1.72554e-07 7.1354e-08 -1.38933e-07)
(7.68709e-07 -1.95737e-07 -5.40654e-07)
(7.65904e-07 -2.31725e-07 -5.73214e-07)
(6.64142e-07 -1.7471e-07 -4.85729e-07)
(5.5377e-07 -1.30141e-07 -3.49376e-07)
(5.20388e-07 -1.26569e-07 -3.15979e-07)
(2.09557e-07 -5.02707e-08 -2.08543e-07)
(-5.12745e-08 -2.62384e-08 -1.52412e-07)
(-1.50709e-07 5.19637e-08 -1.55322e-07)
(-2.36312e-08 2.05455e-07 -2.33705e-07)
(5.77144e-07 -1.31782e-07 -2.06909e-07)
(5.60607e-07 -1.31554e-07 -2.41677e-07)
(4.80368e-07 -1.55153e-07 -2.12447e-07)
(3.09641e-07 -1.17078e-07 -1.77991e-07)
(1.59574e-07 -5.36125e-08 -1.52404e-07)
(4.36159e-08 -2.23129e-08 -1.11566e-07)
(-1.90373e-07 -1.22367e-08 -9.51376e-08)
(-2.89219e-07 -2.52903e-09 -9.06763e-08)
(-2.49639e-07 -4.47285e-09 -7.90652e-08)
(7.01373e-07 -1.71078e-07 -3.39089e-07)
(6.7292e-07 -1.96241e-07 -3.70023e-07)
(5.67512e-07 -1.96e-07 -3.16136e-07)
(3.99215e-07 -1.37652e-07 -2.3377e-07)
(2.28464e-07 -4.86677e-08 -1.76908e-07)
(7.10125e-08 -1.84224e-08 -1.29943e-07)
(-1.66781e-07 -1.20797e-08 -1.0677e-07)
(-2.91534e-07 -1.14502e-08 -9.81389e-08)
(-2.62983e-07 -5.41569e-09 -7.64476e-08)
(8.24472e-07 -1.98478e-07 -5.17329e-07)
(8.17616e-07 -2.39146e-07 -5.30201e-07)
(6.94243e-07 -2.19282e-07 -4.28759e-07)
(5.24332e-07 -1.39651e-07 -3.03281e-07)
(3.29895e-07 -6.46366e-08 -2.11856e-07)
(1.30424e-07 -2.83362e-08 -1.4634e-07)
(-1.41972e-07 -1.85691e-08 -1.05713e-07)
(-2.6843e-07 -5.32219e-09 -8.68797e-08)
(-2.27588e-07 1.3432e-08 -7.19543e-08)
(9.3685e-07 -1.85922e-07 -7.47859e-07)
(9.84794e-07 -2.18909e-07 -7.22856e-07)
(7.94184e-07 -2.03595e-07 -5.22033e-07)
(5.99677e-07 -1.35447e-07 -3.47999e-07)
(4.10352e-07 -8.61393e-08 -2.4206e-07)
(1.75795e-07 -4.47454e-08 -1.56664e-07)
(-6.18166e-08 -2.30426e-08 -9.70057e-08)
(-1.97187e-07 8.14494e-09 -8.48001e-08)
(-1.821e-07 4.42626e-08 -8.50515e-08)
(5.43533e-07 -1.2041e-07 -2.37353e-07)
(5.5968e-07 -1.23558e-07 -2.49734e-07)
(4.81552e-07 -1.32205e-07 -2.27258e-07)
(2.99538e-07 -1.00926e-07 -1.78721e-07)
(1.68997e-07 -6.91609e-08 -1.23374e-07)
(6.67065e-08 -4.0012e-08 -8.65457e-08)
(-1.93733e-07 -2.89178e-08 -5.47897e-08)
(-3.28737e-07 -2.6805e-08 -3.75354e-08)
(-2.84423e-07 -2.18675e-08 -2.64304e-08)
(7.3462e-07 -1.65289e-07 -4.21613e-07)
(7.14651e-07 -1.87888e-07 -4.17573e-07)
(6.08187e-07 -1.97595e-07 -3.36794e-07)
(4.06991e-07 -1.43682e-07 -2.3304e-07)
(2.26954e-07 -6.86266e-08 -1.55635e-07)
(7.11973e-08 -4.49352e-08 -9.97895e-08)
(-2.01439e-07 -3.75395e-08 -5.65756e-08)
(-3.46624e-07 -3.62228e-08 -3.02541e-08)
(-3.13859e-07 -3.38465e-08 -1.10622e-08)
(9.82806e-07 -2.44164e-07 -7.49638e-07)
(9.68215e-07 -2.65954e-07 -6.81146e-07)
(7.8068e-07 -2.42295e-07 -4.8048e-07)
(5.51375e-07 -1.60927e-07 -3.13944e-07)
(3.20029e-07 -8.51762e-08 -1.92981e-07)
(1.14716e-07 -5.08493e-08 -1.10658e-07)
(-1.66871e-07 -4.35804e-08 -5.20482e-08)
(-3.28528e-07 -4.06679e-08 -1.12023e-08)
(-3.16224e-07 -3.69813e-08 1.09279e-08)
(1.31083e-06 -2.65307e-07 -1.28865e-06)
(1.2964e-06 -3.04217e-07 -1.03918e-06)
(9.34231e-07 -2.49929e-07 -6.40381e-07)
(6.15235e-07 -1.59946e-07 -3.79622e-07)
(3.70116e-07 -9.11752e-08 -2.21366e-07)
(1.24448e-07 -6.05329e-08 -1.13545e-07)
(-1.35468e-07 -4.82401e-08 -4.27971e-08)
(-2.98404e-07 -3.87217e-08 1.87297e-09)
(-3.09627e-07 -3.74506e-08 2.76681e-08)
)
;

boundaryField
{
    inlet
    {
        type            calculated;
        value           nonuniform 0();
    }
    outlet
    {
        type            calculated;
        value           nonuniform List<vector> 
12
(
(1.4048e-07 -1.13161e-07 -9.5866e-08)
(5.13276e-08 2.53563e-08 -9.41276e-08)
(5.88834e-08 2.20398e-07 -1.32769e-07)
(1.42706e-06 1.58866e-06 -1.23608e-06)
(8.85974e-08 4.62462e-08 -1.30117e-07)
(5.57502e-08 -1.21986e-10 -7.88869e-08)
(6.98473e-08 1.44144e-08 -3.75657e-08)
(6.67634e-08 -1.58206e-08 1.5007e-08)
(7.97694e-08 2.55482e-08 -6.11537e-08)
(7.50167e-08 1.87608e-09 6.72628e-09)
(5.44214e-08 -2.75228e-09 -1.87882e-08)
(4.31946e-08 -1.78047e-08 2.20783e-08)
)
;
    }
    wall
    {
        type            calculated;
        value           nonuniform List<vector> 
63
(
(1.04366e-06 -1.6868e-07 -1.44886e-08)
(1.2667e-06 -4.10414e-07 -2.00466e-07)
(6.75471e-07 -2.45913e-07 -3.25436e-07)
(-1.21978e-07 -1.15761e-07 -3.97855e-07)
(5.54751e-07 2.89801e-08 -1.26638e-07)
(3.47642e-07 -3.79184e-07 -3.41278e-07)
(-1.88903e-07 -5.80329e-07 -5.47939e-07)
(-9.57133e-07 -5.42927e-07 -8.68586e-07)
(7.13621e-07 -4.73898e-07 -1.49757e-07)
(4.18444e-07 -4.31105e-07 -3.92273e-07)
(7.28206e-08 -5.03395e-07 -5.92714e-07)
(-5.17331e-07 5.65346e-08 -7.96235e-07)
(-1.99699e-07 -2.29549e-07 -1.03827e-07)
(-2.28317e-07 -1.4568e-07 -2.15387e-07)
(5.33233e-09 -4.00651e-08 -2.96122e-07)
(1.93304e-07 1.30856e-08 -1.64524e-07)
(-2.83505e-07 1.7172e-07 -1.59253e-07)
(-8.35962e-08 3.65885e-07 -1.3327e-07)
(3.73539e-07 8.67865e-08 -4.15084e-07)
(1.24827e-06 -7.48166e-07 -1.1778e-06)
(-1.86864e-07 4.95841e-08 -1.21338e-07)
(-7.95392e-08 1.4458e-07 -1.00545e-07)
(-8.00882e-08 2.24415e-07 -1.62361e-07)
(-8.06676e-08 -1.64896e-08 -3.2322e-07)
(-7.89512e-07 -2.7421e-08 -1.4738e-07)
(-9.49876e-07 1.17486e-07 -3.2064e-07)
(-6.93924e-07 8.32044e-09 -4.48359e-07)
(-2.66237e-07 -2.86851e-07 -1.51265e-07)
(-6.2053e-07 1.05924e-07 -3.77424e-07)
(-1.46507e-06 -1.83469e-07 -3.13815e-07)
(-1.22243e-06 2.93051e-08 -1.8543e-07)
(-5.8217e-07 4.13985e-08 -1.58954e-07)
(-1.56935e-07 -4.0211e-08 -9.18216e-08)
(-1.81204e-07 3.17922e-08 -1.02866e-07)
(-3.48259e-08 2.26918e-07 -1.37486e-07)
(1.43633e-06 1.67719e-06 -1.32439e-06)
(3.81941e-07 -1.3873e-07 -3.78269e-07)
(8.45881e-07 8.85799e-08 -9.61332e-07)
(1.526e-06 3.0799e-07 -3.21386e-06)
(1.4993e-06 -5.63776e-07 -8.76816e-07)
(2.04706e-06 -5.11134e-08 -1.3827e-06)
(2.91025e-06 -3.56765e-07 -1.8156e-06)
(4.88962e-07 5.64706e-08 -7.48178e-07)
(1.30459e-06 -2.69281e-07 -4.74005e-07)
(1.52282e-06 -4.0508e-07 -4.85099e-07)
(4.75492e-07 1.50964e-08 -1.53701e-07)
(8.5208e-07 -9.41468e-09 -2.17825e-07)
(6.25906e-07 -1.0342e-07 -2.16812e-07)
(3.07953e-06 -6.24474e-07 -9.32551e-07)
(4.15946e-07 1.13359e-09 -1.18343e-07)
(4.2119e-07 6.73856e-08 -1.5369e-07)
(4.64119e-07 3.65789e-09 -2.99162e-07)
(3.2302e-07 5.56981e-08 -3.8794e-08)
(1.77774e-07 3.46051e-09 8.92849e-09)
(-2.04617e-07 -1.84846e-07 -1.05046e-08)
(-1.64883e-07 5.38082e-09 6.68243e-08)
(-2.25859e-07 -1.12222e-08 -8.99572e-09)
(-5.31217e-07 5.55472e-08 -1.5795e-07)
(-3.95871e-07 4.6891e-08 -1.0316e-07)
(-6.79211e-07 6.35305e-08 -1.79312e-08)
(4.3313e-06 4.58177e-06 -4.7462e-06)
(-4.023e-08 1.54247e-08 -2.2123e-08)
(-5.52422e-08 -7.33702e-09 1.6335e-08)
)
;
    }
    procBoundary3to1
    {
        type            processor;
        value           nonuniform List<vector> 
27
(
(5.09899e-07 -1.15308e-07 -1.32215e-07)
(4.76939e-07 -9.02896e-08 -1.6412e-07)
(4.08245e-07 -1.00876e-07 -1.64195e-07)
(2.04581e-07 -6.89434e-08 -1.41671e-07)
(6.45626e-08 -5.83636e-08 -1.41871e-07)
(-4.38224e-08 -4.38281e-08 -1.32268e-07)
(-2.10081e-07 -2.68309e-08 -1.13908e-07)
(-3.08092e-07 -3.4826e-08 -1.03542e-07)
(-2.29669e-07 -3.64479e-08 -8.6119e-08)
(4.80807e-07 -1.15878e-07 -1.28942e-07)
(4.48089e-07 -9.23204e-08 -1.67989e-07)
(4.06122e-07 -9.89826e-08 -1.70175e-07)
(2.3266e-07 -7.37735e-08 -1.439e-07)
(1.03477e-07 -5.57621e-08 -1.24657e-07)
(1.04141e-08 -3.99659e-08 -1.06085e-07)
(-1.85817e-07 -2.4147e-08 -8.98012e-08)
(-2.90767e-07 -2.66928e-08 -6.98837e-08)
(-2.3407e-07 -2.77305e-08 -6.7554e-08)
(4.40353e-07 -1.08878e-07 -1.49701e-07)
(4.34382e-07 -8.52616e-08 -1.65887e-07)
(3.86863e-07 -7.91554e-08 -1.71569e-07)
(2.47437e-07 -6.64689e-08 -1.44311e-07)
(1.37161e-07 -7.03742e-08 -1.00548e-07)
(5.14172e-08 -4.17021e-08 -7.69257e-08)
(-1.64564e-07 -2.57063e-08 -5.00531e-08)
(-3.09635e-07 -2.93115e-08 -2.51048e-08)
(-2.65752e-07 -2.91095e-08 -2.15677e-08)
)
;
    }
    procBoundary3to2
    {
        type            processor;
        value           nonuniform List<vector> 
12
(
(6.63898e-07 -1.28316e-07 -1.7214e-07)
(6.97544e-07 -1.41837e-07 -2.65227e-07)
(7.29458e-07 -1.56871e-07 -3.70672e-07)
(7.67807e-07 -1.78825e-07 -4.57109e-07)
(5.93276e-07 -1.06819e-07 -1.75918e-07)
(6.64628e-07 -1.20679e-07 -2.86824e-07)
(7.45078e-07 -1.34275e-07 -4.3484e-07)
(7.54456e-07 -1.4446e-07 -6.08047e-07)
(5.61381e-07 -9.23972e-08 -1.99381e-07)
(6.73596e-07 -1.10306e-07 -3.39573e-07)
(8.30991e-07 -1.32535e-07 -5.55017e-07)
(9.30705e-07 -1.22176e-07 -8.31544e-07)
)
;
    }
    procBoundary3to7
    {
        type            processor;
        value           nonuniform List<vector> 
36
(
(5.5198e-07 -1.20581e-07 -2.5865e-07)
(5.36775e-07 -1.26956e-07 -2.52991e-07)
(4.53202e-07 -1.24635e-07 -2.25624e-07)
(3.04927e-07 -9.92106e-08 -1.68836e-07)
(1.67042e-07 -7.53389e-08 -9.3992e-08)
(4.86789e-08 -5.4189e-08 -5.98584e-08)
(-2.05306e-07 -4.89104e-08 -2.34582e-08)
(-3.69319e-07 -4.93466e-08 1.13178e-08)
(-3.36952e-07 -4.60927e-08 3.08315e-08)
(7.72684e-07 -1.91533e-07 -5.07502e-07)
(7.44152e-07 -1.99962e-07 -4.51169e-07)
(6.06887e-07 -1.8718e-07 -3.45404e-07)
(4.15373e-07 -1.37823e-07 -2.26349e-07)
(2.17038e-07 -8.56849e-08 -1.30473e-07)
(4.25987e-08 -6.68314e-08 -6.55518e-08)
(-2.36445e-07 -6.6213e-08 -8.01476e-09)
(-4.11647e-07 -6.67463e-08 3.64576e-08)
(-4.13823e-07 -6.80564e-08 6.86984e-08)
(1.19697e-06 -3.66302e-07 -1.18087e-06)
(1.14718e-06 -3.28112e-07 -8.79911e-07)
(8.35085e-07 -2.51103e-07 -5.52824e-07)
(5.44623e-07 -1.73677e-07 -3.19047e-07)
(2.84627e-07 -1.01489e-07 -1.71477e-07)
(5.59751e-08 -7.30537e-08 -7.2963e-08)
(-2.49504e-07 -7.95542e-08 1.1032e-08)
(-4.46516e-07 -8.68711e-08 7.84339e-08)
(-4.82744e-07 -9.79778e-08 1.24659e-07)
(2.47803e-06 -6.66717e-07 -2.5045e-06)
(1.946e-06 -5.07454e-07 -1.61338e-06)
(1.08937e-06 -2.90449e-07 -8.12193e-07)
(6.3649e-07 -1.83636e-07 -4.08596e-07)
(3.2764e-07 -1.1097e-07 -2.02731e-07)
(6.03366e-08 -7.97287e-08 -7.19061e-08)
(-2.51459e-07 -8.74843e-08 2.92903e-08)
(-4.69165e-07 -1.05231e-07 1.15891e-07)
(-5.52339e-07 -1.27055e-07 1.80815e-07)
)
;
    }
}


// ************************************************************************* //
