/*--------------------------------*- C++ -*----------------------------------*\
| =========                 |                                                 |
| \\      /  F ield         | OpenFOAM: The Open Source CFD Toolbox           |
|  \\    /   O peration     | Version:  4.x                                   |
|   \\  /    A nd           | Web:      www.OpenFOAM.org                      |
|    \\/     M anipulation  |                                                 |
\*---------------------------------------------------------------------------*/
FoamFile
{
    version     2.0;
    format      ascii;
    class       volScalarField;
    location    "19.5";
    object      p_rgh;
}
// * * * * * * * * * * * * * * * * * * * * * * * * * * * * * * * * * * * * * //

dimensions      [1 -1 -2 0 0 0 0];

internalField   nonuniform List<scalar> 
108
(
21.0147
71.951
2.67761
65.6908
-15.946
61.2463
-34.9598
58.602
-92.8099
21.123
71.9646
3.09956
66.2241
-15.4654
61.8478
-33.4108
59.1481
-126.555
22.0218
72.7096
3.43177
66.2817
-15.1258
61.4656
-32.5859
58.1154
-48.213
21.1466
71.7096
2.41121
65.4945
-17.2752
60.8993
-38.2044
59.8613
-245.456
21.5741
73.1987
3.73083
66.6494
-14.6252
60.3312
-33.467
54.656
-52.3891
21.3892
73.0458
2.67867
67.0196
-16.1018
61.8765
-36.8149
57.9359
-61.9898
21.4572
72.7806
3.28822
66.6379
-15.0953
60.9191
-33.7945
55.7547
-50.649
21.0965
72.0764
2.11271
65.896
-18.2286
61.1301
-41.6678
60.6612
-71.2939
22.7744
72.7588
4.82377
65.889
-13.1581
59.5038
-31.1611
52.996
-48.5117
22.8503
72.699
4.80905
66.1851
-12.8154
59.6376
-31.1296
53.0519
-49.3654
22.3954
72.9409
4.26683
65.9906
-13.8357
59.6726
-32.5764
53.7214
-52.7092
22.0749
72.4055
3.81812
65.879
-15.1403
60.1532
-35.4897
56.345
-57.0932
)
;

boundaryField
{
    inlet
    {
        type            fixedFluxPressure;
        gradient        nonuniform 0();
        value           nonuniform 0();
    }
    outlet
    {
        type            fixedValue;
        value           uniform 0;
    }
    wall
    {
        type            fixedFluxPressure;
        gradient        nonuniform List<scalar> 
63
(
0.000128775
0.000142858
7.61602e-05
3.12439e-05
6.2992e-05
8.0697e-05
5.12175e-05
1.86537e-05
5.93505e-05
0.00010343
6.74487e-05
-2.19728e-05
-3.13087e-05
-5.82322e-05
-1.46974e-05
1.8527e-06
-0.000330052
-0.000315717
-0.000137201
4.93103e-05
-0.000296965
-0.00023354
-0.000107881
1.4677e-05
-0.000566284
-0.000353625
-0.000653754
-6.53977e-05
5.17803e-05
-7.11991e-05
-8.84941e-05
6.63721e-05
0.00042965
0.0015643
0.000896756
0.00154419
-1.39178e-05
-3.66753e-05
5.76825e-05
1.52486e-05
1.18976e-05
3.21461e-05
-0.000233037
2.65523e-05
4.89812e-05
-2.22446e-05
-2.38755e-05
-2.97222e-05
-0.000129252
-0.000120168
-0.000185301
-8.2902e-05
-5.65489e-05
-2.71419e-05
0.000109013
-1.29387e-05
-5.52836e-05
5.90917e-05
1.21405e-05
-2.63244e-05
0.032421
5.25813e-05
-0.000431088
)
;
        value           nonuniform List<scalar> 
63
(
21.0147
21.123
22.0218
21.1466
71.951
71.9646
72.7096
71.7096
2.67761
3.09956
3.43177
2.41121
65.6908
66.2241
66.2817
65.4945
-15.946
-15.4654
-15.1258
-17.2752
61.2463
61.8478
61.4656
60.8993
-34.9599
-33.4108
-32.5859
-38.2044
58.602
59.1481
58.1154
59.8613
-92.8099
-126.555
-48.213
-245.456
21.1466
21.0965
22.0749
71.7096
72.0764
72.4055
2.4112
2.11271
3.81813
65.4945
65.896
65.879
-17.2752
-18.2286
-15.1403
60.8993
61.1301
60.1532
-38.2044
-41.6678
-35.4897
59.8613
60.6612
56.345
-245.456
-71.2939
-57.0933
)
;
    }
    procBoundary3to1
    {
        type            processor;
        value           nonuniform List<scalar> 
27
(
21.3549
72.4576
3.06307
66.5711
-15.0111
62.2917
-31.8783
57.7056
-47.4021
21.6656
73.6305
3.66344
67.41
-14.9794
61.2881
-34.4622
55.302
-51.9857
22.9928
72.6703
5.43886
66.2039
-12.3597
59.9273
-30.2185
52.7056
-46.4495
)
;
    }
    procBoundary3to2
    {
        type            processor;
        value           nonuniform List<scalar> 
12
(
79.0882
78.953
79.9057
78.8405
79.9541
79.7503
79.613
79.1424
80.23
80.1288
80.1844
79.6555
)
;
    }
    procBoundary3to7
    {
        type            processor;
        value           nonuniform List<scalar> 
36
(
23.5684
72.6347
5.75481
65.2279
-11.7816
58.6618
-29.3186
52.2127
-45.3439
22.0934
72.584
3.35308
65.7882
-15.2168
59.6449
-33.825
54.7111
-50.9303
22.1559
72.4033
3.55228
65.3162
-15.1999
58.6734
-34.2123
53.1097
-50.9479
21.854
72.2563
2.81519
65.5399
-17.1588
59.8904
-39.6317
57.2945
-67.1719
)
;
    }
}


// ************************************************************************* //
