/*--------------------------------*- C++ -*----------------------------------*\
| =========                 |                                                 |
| \\      /  F ield         | OpenFOAM: The Open Source CFD Toolbox           |
|  \\    /   O peration     | Version:  4.x                                   |
|   \\  /    A nd           | Web:      www.OpenFOAM.org                      |
|    \\/     M anipulation  |                                                 |
\*---------------------------------------------------------------------------*/
FoamFile
{
    version     2.0;
    format      ascii;
    class       volScalarField;
    location    "19.5";
    object      Qsource;
}
// * * * * * * * * * * * * * * * * * * * * * * * * * * * * * * * * * * * * * //

dimensions      [1 -1 -3 0 0 0 0];

internalField   nonuniform List<scalar> 
108
(
9.3034e+09
4.88447e+09
7.49854e+09
4.30014e+09
5.68391e+09
4.85926e+09
6.12625e+09
6.15659e+09
3.87482e+09
7.13368e+09
9.98454e+09
5.78014e+09
6.64209e+09
6.96157e+09
6.10991e+09
6.64951e+09
6.63094e+09
4.30246e+09
7.38461e+09
7.81259e+09
7.82868e+09
5.92485e+09
6.46245e+09
6.08725e+09
6.86967e+09
7.15612e+09
3.73003e+09
5.9579e+09
6.15597e+09
6.69771e+09
8.92021e+09
7.13955e+09
7.84673e+09
5.17361e+09
7.68038e+09
6.59421e+09
8.55293e+09
7.93623e+09
1.01589e+10
1.04529e+10
8.36523e+09
7.84472e+09
6.80827e+09
8.50174e+09
8.08786e+09
7.8371e+09
8.11841e+09
8.48443e+09
9.08956e+09
7.79762e+09
8.20843e+09
9.7615e+09
9.38477e+09
6.31368e+09
1.28001e+10
9.82577e+09
8.97043e+09
1.11843e+10
8.29264e+09
9.80946e+09
7.83731e+09
9.35264e+09
7.46536e+09
9.07808e+09
8.125e+09
7.66418e+09
9.36771e+09
9.79727e+09
8.8003e+09
7.93641e+09
1.01487e+10
6.92556e+09
8.06709e+09
1.07144e+10
8.94621e+09
1.00531e+10
6.408e+09
7.66344e+09
8.91133e+09
8.35992e+09
6.76367e+09
9.61567e+09
6.14272e+09
8.11913e+09
4.9962e+09
4.35192e+09
9.49368e+09
7.83544e+09
1.11564e+10
5.58093e+09
6.03262e+09
1.02268e+10
9.12354e+09
7.18642e+09
7.25945e+09
9.88966e+09
8.05436e+09
9.36734e+09
4.70423e+09
9.27256e+09
5.73155e+09
6.27028e+09
7.87228e+09
6.89642e+09
9.53717e+09
6.8568e+09
1.07254e+10
7.78232e+09
)
;

boundaryField
{
    inlet
    {
        type            calculated;
        value           nonuniform 0();
    }
    outlet
    {
        type            calculated;
        value           uniform 0;
    }
    wall
    {
        type            calculated;
        value           uniform 0;
    }
    procBoundary3to1
    {
        type            processor;
        value           nonuniform List<scalar> 
27
(
4.62694e+09
8.00131e+09
6.92924e+09
9.78762e+09
6.63444e+09
6.38842e+09
5.43123e+09
6.02547e+09
3.7842e+09
9.12826e+09
8.48204e+09
7.17282e+09
6.77709e+09
5.66421e+09
9.07847e+09
8.96422e+09
1.2716e+10
3.99557e+09
8.06167e+09
7.69312e+09
5.344e+09
1.08676e+10
8.56765e+09
1.03462e+10
7.1575e+09
9.25336e+09
3.16371e+09
)
;
    }
    procBoundary3to2
    {
        type            processor;
        value           nonuniform List<scalar> 
12
(
4.03029e+09
5.48987e+09
7.50878e+09
6.06359e+09
1.11919e+10
6.46498e+09
7.71179e+09
5.75186e+09
9.16601e+09
5.75757e+09
1.02125e+10
8.56888e+09
)
;
    }
    procBoundary3to7
    {
        type            processor;
        value           nonuniform List<scalar> 
36
(
1.01087e+10
9.05557e+09
6.38654e+09
7.85718e+09
1.09892e+10
1.22841e+10
7.97543e+09
6.54269e+09
6.02731e+09
7.8068e+09
1.14805e+10
7.57178e+09
8.18816e+09
8.51082e+09
7.05371e+09
7.82157e+09
7.84493e+09
6.76145e+09
5.26994e+09
9.33654e+09
6.89112e+09
8.89157e+09
8.28839e+09
1.03725e+10
8.71762e+09
9.00418e+09
7.50474e+09
7.55535e+09
8.38851e+09
9.4934e+09
6.93501e+09
8.55987e+09
9.23676e+09
8.79938e+09
8.68373e+09
4.52985e+09
)
;
    }
}


// ************************************************************************* //
