/*--------------------------------*- C++ -*----------------------------------*\
| =========                 |                                                 |
| \\      /  F ield         | OpenFOAM: The Open Source CFD Toolbox           |
|  \\    /   O peration     | Version:  4.x                                   |
|   \\  /    A nd           | Web:      www.OpenFOAM.org                      |
|    \\/     M anipulation  |                                                 |
\*---------------------------------------------------------------------------*/
FoamFile
{
    version     2.0;
    format      ascii;
    class       volVectorField;
    location    "23.5";
    object      ddtUrel;
}
// * * * * * * * * * * * * * * * * * * * * * * * * * * * * * * * * * * * * * //

dimensions      [0 1 -2 0 0 0 0];

internalField   nonuniform List<vector> 
108
(
(1.2633e-09 3.60391e-10 -3.18799e-10)
(1.61205e-09 4.36614e-10 -3.30506e-10)
(2.25239e-09 6.05622e-10 -2.4977e-10)
(3.09023e-09 8.03342e-10 -1.3611e-10)
(4.03154e-09 1.05984e-09 -1.75583e-10)
(5.14353e-09 1.14971e-09 -3.37228e-10)
(6.1443e-09 1.17604e-09 -5.41988e-10)
(6.711e-09 1.32318e-09 -8.05902e-10)
(6.78028e-09 1.75746e-09 -1.41998e-09)
(1.29273e-09 3.5252e-10 -3.29675e-10)
(1.69062e-09 4.56806e-10 -3.22266e-10)
(2.4021e-09 6.55098e-10 -2.18733e-10)
(3.41709e-09 9.10992e-10 -1.91742e-10)
(4.5677e-09 1.17926e-09 -2.94796e-10)
(5.83283e-09 1.34269e-09 -4.05235e-10)
(6.92171e-09 1.36742e-09 -6.77001e-10)
(7.64056e-09 1.4369e-09 -1.00987e-09)
(7.98458e-09 1.86854e-09 -1.81959e-09)
(1.39831e-09 4.23995e-10 -3.04666e-10)
(1.82906e-09 5.4907e-10 -2.81862e-10)
(2.69793e-09 7.21552e-10 -2.86499e-10)
(3.88724e-09 9.52771e-10 -3.77157e-10)
(5.38959e-09 1.21474e-09 -5.40968e-10)
(6.94762e-09 1.48667e-09 -7.17988e-10)
(8.08409e-09 1.62329e-09 -9.57247e-10)
(8.96887e-09 1.71079e-09 -1.44769e-09)
(9.81866e-09 2.09238e-09 -2.35724e-09)
(1.46949e-09 4.17769e-10 -2.41389e-10)
(2.02645e-09 5.6442e-10 -2.52104e-10)
(3.03702e-09 7.61306e-10 -3.87908e-10)
(4.39313e-09 9.57401e-10 -5.84205e-10)
(6.09373e-09 1.15748e-09 -8.5628e-10)
(8.00775e-09 1.41743e-09 -1.26291e-09)
(9.2488e-09 1.59408e-09 -1.56006e-09)
(1.05765e-08 1.97352e-09 -2.32161e-09)
(1.23719e-08 2.36401e-09 -3.77068e-09)
(1.18895e-09 4.3832e-10 -2.54831e-10)
(1.46726e-09 5.1461e-10 -2.6294e-10)
(2.02707e-09 6.24851e-10 -2.47501e-10)
(2.80226e-09 7.76541e-10 -2.78507e-10)
(3.7452e-09 9.44269e-10 -3.69603e-10)
(4.69565e-09 1.08264e-09 -4.94e-10)
(5.55556e-09 1.19944e-09 -6.53976e-10)
(6.199e-09 1.48807e-09 -9.09083e-10)
(6.53091e-09 2.1434e-09 -1.4131e-09)
(1.18563e-09 4.89395e-10 -2.77301e-10)
(1.50347e-09 5.83522e-10 -2.78568e-10)
(2.14036e-09 7.21803e-10 -2.6315e-10)
(3.04614e-09 9.09378e-10 -3.08889e-10)
(4.16515e-09 1.08153e-09 -4.26613e-10)
(5.20874e-09 1.23852e-09 -5.89991e-10)
(6.17939e-09 1.35733e-09 -7.87012e-10)
(6.82182e-09 1.66703e-09 -1.14067e-09)
(7.60197e-09 2.35164e-09 -1.72124e-09)
(1.23453e-09 5.54935e-10 -3.21705e-10)
(1.56383e-09 6.97242e-10 -3.08036e-10)
(2.30599e-09 8.37693e-10 -3.56971e-10)
(3.30492e-09 9.97208e-10 -4.31463e-10)
(4.64239e-09 1.17169e-09 -5.9675e-10)
(6.01571e-09 1.37231e-09 -8.56973e-10)
(7.07539e-09 1.58164e-09 -1.08314e-09)
(7.93752e-09 1.95296e-09 -1.51273e-09)
(9.06723e-09 2.74871e-09 -2.2882e-09)
(1.18663e-09 5.7613e-10 -2.542e-10)
(1.62982e-09 7.10386e-10 -3.35794e-10)
(2.51857e-09 8.52563e-10 -4.88076e-10)
(3.6567e-09 1.01059e-09 -6.46321e-10)
(5.05065e-09 1.19478e-09 -9.06977e-10)
(6.77694e-09 1.47758e-09 -1.26333e-09)
(8.05716e-09 1.8203e-09 -1.6969e-09)
(9.31694e-09 2.31529e-09 -2.40395e-09)
(1.0961e-08 3.31908e-09 -3.61283e-09)
(1.10143e-09 4.89765e-10 -2.28982e-10)
(1.41738e-09 5.5337e-10 -2.45576e-10)
(1.96143e-09 6.29198e-10 -2.52321e-10)
(2.69604e-09 7.43127e-10 -3.11509e-10)
(3.58997e-09 8.8211e-10 -4.18742e-10)
(4.42953e-09 1.03255e-09 -5.67245e-10)
(5.22344e-09 1.19958e-09 -7.46986e-10)
(5.58982e-09 1.54699e-09 -9.84964e-10)
(5.91693e-09 2.31637e-09 -1.37565e-09)
(1.13235e-09 5.75459e-10 -2.4371e-10)
(1.50385e-09 6.47872e-10 -2.67038e-10)
(2.12566e-09 7.50361e-10 -2.83627e-10)
(2.91825e-09 8.76896e-10 -3.60581e-10)
(3.96824e-09 9.97662e-10 -5.0715e-10)
(4.98512e-09 1.14714e-09 -6.796e-10)
(5.74229e-09 1.34236e-09 -8.65944e-10)
(6.1875e-09 1.71887e-09 -1.18235e-09)
(7.00914e-09 2.58543e-09 -1.65719e-09)
(1.26529e-09 7.30626e-10 -3.45425e-10)
(1.56421e-09 7.86117e-10 -3.27383e-10)
(2.22808e-09 8.84572e-10 -3.70571e-10)
(3.15983e-09 1.01099e-09 -4.85616e-10)
(4.43529e-09 1.13146e-09 -6.54907e-10)
(5.66791e-09 1.29539e-09 -8.93891e-10)
(6.5898e-09 1.6051e-09 -1.16394e-09)
(7.29378e-09 2.0793e-09 -1.5789e-09)
(8.31584e-09 3.09987e-09 -2.20269e-09)
(1.13401e-09 8.11169e-10 -2.61709e-10)
(1.51084e-09 8.34584e-10 -3.51954e-10)
(2.31421e-09 9.55479e-10 -5.0213e-10)
(3.27164e-09 1.05856e-09 -6.67786e-10)
(4.63202e-09 1.14372e-09 -9.21898e-10)
(6.03269e-09 1.41352e-09 -1.23212e-09)
(7.31993e-09 1.89678e-09 -1.70978e-09)
(8.56669e-09 2.52091e-09 -2.48204e-09)
(1.01936e-08 3.93263e-09 -3.46249e-09)
)
;

boundaryField
{
    inlet
    {
        type            calculated;
        value           nonuniform List<vector> 
12
(
(-8.76616e-10 -8.98565e-11 1.16481e-10)
(-7.52514e-10 -4.77902e-10 -3.86664e-11)
(-4.6059e-10 1.95229e-10 -2.50305e-10)
(-6.47292e-10 1.63037e-10 -3.17148e-10)
(-4.99794e-10 5.53254e-11 3.17853e-11)
(-7.30759e-10 3.40391e-10 -6.39177e-11)
(-1.5966e-10 2.29342e-10 -5.444e-10)
(-1.16476e-09 5.00126e-10 1.66605e-10)
(-5.86454e-10 1.8379e-10 2.21312e-12)
(-1.13989e-09 4.88026e-10 1.9384e-10)
(1.24164e-09 1.49459e-09 -1.03122e-09)
(-2.73611e-10 2.02864e-09 5.72102e-10)
)
;
    }
    outlet
    {
        type            calculated;
        value           nonuniform 0();
    }
    wall
    {
        type            calculated;
        value           nonuniform List<vector> 
63
(
(-1.80713e-10 1.7813e-10 -4.20388e-13)
(-7.76344e-10 4.84525e-10 1.90751e-10)
(2.47684e-09 1.53409e-09 -1.07401e-09)
(-3.08476e-10 1.91408e-09 5.46525e-10)
(5.45464e-10 4.05204e-10 -1.29398e-10)
(3.44629e-10 7.80488e-10 -1.0953e-10)
(9.54804e-10 1.23387e-09 -3.66846e-10)
(6.10714e-10 1.33053e-09 -1.24351e-10)
(1.10662e-09 2.35589e-10 -4.33836e-11)
(1.64375e-09 7.04884e-10 -1.3346e-10)
(1.81724e-09 1.13238e-09 -1.72822e-10)
(3.96244e-09 1.71928e-09 -5.51684e-10)
(1.53188e-09 1.82704e-10 -1.55542e-10)
(1.6723e-09 7.68494e-10 -1.64146e-10)
(2.23349e-09 1.26963e-09 -7.57057e-11)
(2.45891e-09 1.76424e-09 -3.13536e-10)
(2.73087e-09 2.59574e-10 -2.31122e-10)
(3.2209e-09 5.78797e-10 -2.11783e-10)
(5.50814e-09 7.94535e-10 1.26213e-10)
(6.74037e-09 1.10331e-09 -6.09686e-10)
(3.35372e-09 4.54749e-10 -2.73948e-10)
(4.82061e-09 6.9343e-10 -3.85432e-10)
(8.0707e-09 1.03757e-09 -4.68524e-10)
(6.36067e-09 1.48303e-09 -2.4293e-10)
(6.03774e-09 1.54779e-10 -3.3795e-10)
(5.06104e-09 2.95868e-10 -1.19239e-10)
(9.29083e-09 1.21758e-09 -2.44073e-10)
(6.2748e-09 2.59641e-09 1.90484e-10)
(2.83559e-09 -1.80845e-10 7.3985e-11)
(3.36073e-09 -5.30637e-10 -5.69758e-11)
(4.17938e-09 6.79463e-10 5.05154e-10)
(5.56203e-09 9.14317e-10 4.15655e-10)
(2.56129e-09 1.35208e-10 -1.43404e-10)
(5.21763e-09 3.64198e-10 -4.17879e-10)
(2.50774e-09 4.37589e-10 4.73553e-10)
(4.49247e-09 1.53636e-09 5.83082e-10)
(-6.55671e-10 -8.6755e-11 7.7359e-11)
(-1.41334e-10 4.96519e-11 7.77794e-12)
(-1.61494e-10 1.82605e-10 -3.25869e-12)
(1.52799e-11 1.37474e-10 -2.70058e-10)
(2.64064e-10 2.47115e-10 -1.19588e-10)
(5.27965e-10 3.91844e-10 -1.16384e-10)
(1.38109e-09 6.35856e-10 -1.9568e-11)
(7.40169e-10 3.54832e-10 5.22264e-11)
(9.34205e-10 2.60061e-10 -4.8968e-11)
(2.04933e-09 6.45767e-10 3.11038e-10)
(1.24833e-09 4.82338e-10 -2.41741e-10)
(1.36648e-09 1.85357e-10 -1.39036e-10)
(2.93067e-09 1.28861e-09 3.26395e-10)
(1.67488e-09 4.80648e-10 -4.74208e-10)
(2.37247e-09 2.54898e-10 -2.11088e-10)
(4.29911e-09 8.97795e-10 3.9059e-11)
(3.15087e-09 5.09842e-10 -2.64794e-10)
(2.91819e-09 4.13698e-10 -2.1561e-10)
(7.07295e-09 5.10255e-10 -4.25823e-11)
(3.32033e-09 8.72812e-12 4.04305e-11)
(4.36035e-09 6.43078e-11 -2.87643e-10)
(7.97055e-09 4.36035e-11 8.4131e-10)
(7.45318e-09 8.54137e-11 1.29528e-09)
(2.44122e-09 -1.86219e-10 1.07058e-10)
(1.26122e-09 -4.85035e-10 -4.46356e-10)
(3.1891e-09 3.86158e-11 -5.62579e-10)
(2.1256e-09 1.72171e-10 -1.59349e-10)
)
;
    }
    procBoundary4to0
    {
        type            processor;
        value           nonuniform List<vector> 
36
(
(1.28182e-09 3.08628e-10 -5.42924e-10)
(1.69667e-09 3.84788e-10 -4.66842e-10)
(2.38479e-09 5.32031e-10 -3.012e-10)
(3.44411e-09 8.13621e-10 -4.38e-11)
(4.59382e-09 1.05844e-09 1.09435e-11)
(5.91872e-09 1.1991e-09 -1.13777e-10)
(6.51824e-09 1.18414e-09 -4.07426e-10)
(6.64427e-09 1.15658e-09 -6.59445e-10)
(5.74369e-09 1.52537e-09 -1.30192e-09)
(1.34397e-09 2.57821e-10 -4.22133e-10)
(1.81705e-09 3.94308e-10 -3.71542e-10)
(2.57694e-09 5.70511e-10 -2.26937e-10)
(3.8859e-09 8.77375e-10 -6.28535e-11)
(5.20369e-09 1.16398e-09 -1.28802e-10)
(6.58013e-09 1.3039e-09 -2.78897e-10)
(7.50064e-09 1.34109e-09 -4.55252e-10)
(8.12291e-09 1.21986e-09 -8.38802e-10)
(7.4881e-09 1.40119e-09 -1.75894e-09)
(1.5859e-09 3.31457e-10 -2.5363e-10)
(2.1079e-09 4.39227e-10 -2.47784e-10)
(3.10249e-09 6.20251e-10 -2.0739e-10)
(4.56629e-09 9.25486e-10 -2.17817e-10)
(6.11101e-09 1.22451e-09 -4.39743e-10)
(7.75704e-09 1.48734e-09 -5.42027e-10)
(8.87183e-09 1.56303e-09 -7.79881e-10)
(9.68401e-09 1.45342e-09 -1.37802e-09)
(9.77324e-09 1.39923e-09 -2.33828e-09)
(1.71598e-09 3.19485e-10 -1.55725e-10)
(2.3995e-09 4.01512e-10 -1.70705e-10)
(3.63981e-09 6.39102e-10 -2.25909e-10)
(5.19638e-09 8.93996e-10 -4.04774e-10)
(6.97021e-09 1.21063e-09 -7.53413e-10)
(8.6655e-09 1.40834e-09 -1.05015e-09)
(9.84209e-09 1.39975e-09 -1.5143e-09)
(1.11151e-08 1.52593e-09 -2.52985e-09)
(1.26447e-08 1.635e-09 -3.81824e-09)
)
;
    }
    procBoundary4to5
    {
        type            processor;
        value           nonuniform List<vector> 
12
(
(6.49435e-09 2.91634e-09 -1.91598e-09)
(8.09271e-09 3.1349e-09 -2.34246e-09)
(1.0748e-08 3.52414e-09 -3.19772e-09)
(1.43241e-08 4.10004e-09 -5.09689e-09)
(6.9523e-09 3.35869e-09 -1.92999e-09)
(8.362e-09 3.69064e-09 -2.28378e-09)
(1.07486e-08 4.40544e-09 -3.12427e-09)
(1.34712e-08 5.4556e-09 -4.94588e-09)
(6.80654e-09 3.6455e-09 -1.86263e-09)
(8.08796e-09 4.05956e-09 -2.20011e-09)
(1.0016e-08 5.00593e-09 -3.05037e-09)
(1.25654e-08 6.45814e-09 -4.73798e-09)
)
;
    }
    procBoundary4to6
    {
        type            processor;
        value           nonuniform List<vector> 
27
(
(1.49207e-09 2.89404e-10 -2.34946e-10)
(2.07975e-09 4.09887e-10 -3.25227e-10)
(3.24097e-09 6.2418e-10 -4.8929e-10)
(4.64472e-09 7.58059e-10 -7.83264e-10)
(6.357e-09 9.58238e-10 -1.25982e-09)
(8.1637e-09 1.22248e-09 -1.83941e-09)
(9.7225e-09 1.52183e-09 -2.60971e-09)
(1.20814e-08 2.06161e-09 -4.28295e-09)
(1.52604e-08 2.54725e-09 -6.75739e-09)
(1.15809e-09 4.33381e-10 -3.12829e-10)
(1.66108e-09 5.21222e-10 -4.20288e-10)
(2.61212e-09 6.87208e-10 -5.85896e-10)
(3.82349e-09 8.23618e-10 -8.18657e-10)
(5.30444e-09 9.55947e-10 -1.18904e-09)
(7.00407e-09 1.27863e-09 -1.73985e-09)
(8.5556e-09 1.76134e-09 -2.56407e-09)
(1.06012e-08 2.53963e-09 -4.11324e-09)
(1.32841e-08 3.79796e-09 -6.21517e-09)
(9.83457e-10 5.76724e-10 -3.31916e-10)
(1.38494e-09 6.18983e-10 -4.06493e-10)
(2.30102e-09 7.72103e-10 -5.77058e-10)
(3.4251e-09 8.56052e-10 -8.15611e-10)
(4.83696e-09 9.62502e-10 -1.18357e-09)
(6.29428e-09 1.33575e-09 -1.70495e-09)
(7.75797e-09 1.94444e-09 -2.50423e-09)
(9.52119e-09 2.82822e-09 -3.87218e-09)
(1.20874e-08 4.81439e-09 -5.67485e-09)
)
;
    }
}


// ************************************************************************* //
