/*--------------------------------*- C++ -*----------------------------------*\
| =========                 |                                                 |
| \\      /  F ield         | OpenFOAM: The Open Source CFD Toolbox           |
|  \\    /   O peration     | Version:  4.x                                   |
|   \\  /    A nd           | Web:      www.OpenFOAM.org                      |
|    \\/     M anipulation  |                                                 |
\*---------------------------------------------------------------------------*/
FoamFile
{
    version     2.0;
    format      ascii;
    class       volScalarField;
    location    "23.5";
    object      KslNext;
}
// * * * * * * * * * * * * * * * * * * * * * * * * * * * * * * * * * * * * * //

dimensions      [1 -3 -1 0 0 0 0];

internalField   nonuniform List<scalar> 
108
(
3462.17
7485.2
3482.23
7302.8
3481.3
7162
3441.17
7188.53
3359.71
3560.65
9254.64
3779.24
12261.6
3875.7
16142
3893.81
23344.3
3880.27
3597.03
10146.7
3891.36
15294.5
3991.23
24365.9
4008.93
59459.3
3998.14
3581.82
10076
3912.91
15427.1
4026.34
28255.8
4061.99
87036.7
4002.48
3452.61
7200.23
3424.5
6843.44
3403.58
6456.36
3304.96
6281.81
3215.15
3536.97
8306.82
3646.51
9262.01
3698.55
10437
3708.81
12503.9
3704.36
3561.71
9004
3782.07
11416.8
3851.48
14181.5
3805.71
16850
3719.35
3589.45
9653.82
3847.06
13910.4
3970.83
22009.7
3987.81
41701.3
3926.94
3396.25
6553.14
3236.1
5687.62
3163.75
5311.7
3087.76
5022.12
2959.45
3451.01
7249.23
3439.36
6735.11
3375.94
6388.38
3292.09
6120.56
3192.4
3507.24
7671.95
3539.44
7592.36
3506.52
7377.48
3405.98
7081.29
3304.89
3548.6
7985.04
3604.48
8415.58
3599.58
8452.71
3507.35
8141.96
3435.42
)
;

boundaryField
{
    inlet
    {
        type            zeroGradient;
    }
    outlet
    {
        type            zeroGradient;
    }
    wall
    {
        type            zeroGradient;
    }
    procBoundary4to0
    {
        type            processor;
        value           uniform 0;
    }
    procBoundary4to5
    {
        type            processor;
        value           uniform 0;
    }
    procBoundary4to6
    {
        type            processor;
        value           uniform 0;
    }
}


// ************************************************************************* //
