/*--------------------------------*- C++ -*----------------------------------*\
| =========                 |                                                 |
| \\      /  F ield         | OpenFOAM: The Open Source CFD Toolbox           |
|  \\    /   O peration     | Version:  4.x                                   |
|   \\  /    A nd           | Web:      www.OpenFOAM.org                      |
|    \\/     M anipulation  |                                                 |
\*---------------------------------------------------------------------------*/
FoamFile
{
    version     2.0;
    format      ascii;
    class       volVectorField;
    location    "52.5";
    object      ddtUrel;
}
// * * * * * * * * * * * * * * * * * * * * * * * * * * * * * * * * * * * * * //

dimensions      [0 1 -2 0 0 0 0];

internalField   nonuniform List<vector> 
114
(
(-1.69055e-10 8.88045e-12 -3.35579e-11)
(-4.85953e-10 -4.39442e-11 -5.9279e-11)
(-9.92053e-10 -5.2466e-11 -6.7078e-11)
(-1.82825e-09 -4.10164e-11 -5.53125e-11)
(-3.09431e-09 -2.35543e-11 -2.77424e-11)
(-4.95399e-09 -7.59653e-12 2.21525e-11)
(1.13457e-11 1.11808e-10 1.81798e-11)
(1.23045e-11 9.70809e-11 9.01821e-12)
(-2.68582e-11 6.51774e-11 -8.85559e-12)
(-1.34342e-10 2.24208e-11 -2.96145e-11)
(-3.36158e-10 -1.0334e-11 -4.55221e-11)
(-6.44179e-10 -2.62642e-11 -5.31976e-11)
(-1.12467e-09 -3.20239e-11 -5.21258e-11)
(-1.77625e-09 -3.37457e-11 -4.34327e-11)
(-2.61823e-09 -2.68251e-11 -2.20095e-11)
(-2.85385e-12 6.99689e-11 2.93773e-12)
(-8.1869e-12 6.34743e-11 -2.97786e-12)
(-4.76101e-11 4.57173e-11 -1.39811e-11)
(-1.23753e-10 2.42819e-11 -2.57792e-11)
(-2.56642e-10 3.12101e-12 -3.56132e-11)
(-4.52933e-10 -1.24628e-11 -4.02673e-11)
(-7.52714e-10 -2.55414e-11 -3.96936e-11)
(-1.09393e-09 -3.87436e-11 -3.47165e-11)
(-1.49678e-09 -4.70514e-11 -3.16329e-11)
(-1.33934e-11 5.00965e-11 -1.6713e-12)
(-2.29465e-11 4.59471e-11 -6.49915e-12)
(-7.05111e-11 3.69065e-11 -1.38904e-11)
(-1.35537e-10 2.90163e-11 -2.08278e-11)
(-2.35372e-10 1.06707e-11 -2.74247e-11)
(-3.81634e-10 -4.28298e-12 -3.06333e-11)
(-6.15464e-10 -1.33175e-11 -3.06686e-11)
(-8.58668e-10 -1.95242e-11 -2.8807e-11)
(-1.10781e-09 -4.06017e-11 -2.4448e-11)
(-8.17198e-10 -4.48963e-11 -7.31452e-11)
(-1.49324e-09 -3.77531e-11 -6.47566e-11)
(-2.47065e-09 -2.50697e-11 -4.17117e-11)
(-3.80901e-09 -1.68464e-11 -3.54346e-12)
(2.05158e-11 9.71695e-11 2.00433e-11)
(2.35437e-11 8.88533e-11 1.0857e-11)
(-8.40301e-12 6.0282e-11 -7.96303e-12)
(-1.01324e-10 2.19245e-11 -3.05635e-11)
(-2.70182e-10 -7.37394e-12 -4.77944e-11)
(-5.44269e-10 -2.25321e-11 -5.63987e-11)
(-9.3811e-10 -2.90555e-11 -5.68648e-11)
(-1.46512e-09 -3.07281e-11 -5.01733e-11)
(-2.10024e-09 -3.14011e-11 -3.27507e-11)
(4.1709e-12 6.49388e-11 4.65274e-12)
(2.84233e-12 5.97652e-11 -1.49034e-12)
(-2.50648e-11 4.43541e-11 -1.27987e-11)
(-9.09197e-11 2.29332e-11 -2.57244e-11)
(-2.0876e-10 3.61147e-12 -3.5756e-11)
(-3.8481e-10 -1.08859e-11 -4.1312e-11)
(-6.27272e-10 -2.2449e-11 -4.10951e-11)
(-9.13959e-10 -3.22922e-11 -3.74508e-11)
(-1.22628e-09 -4.30513e-11 -3.50476e-11)
(-6.62106e-12 4.73629e-11 -4.43687e-13)
(-1.27314e-11 4.39072e-11 -5.25022e-12)
(-4.4088e-11 3.48418e-11 -1.23277e-11)
(-9.91553e-11 2.21294e-11 -2.0654e-11)
(-1.96064e-10 7.98145e-12 -2.66975e-11)
(-3.28834e-10 -4.50583e-12 -3.11343e-11)
(-5.12241e-10 -1.53785e-11 -3.10291e-11)
(-7.05306e-10 -2.53752e-11 -2.91483e-11)
(-8.99742e-10 -4.10303e-11 -2.75943e-11)
(-1.7858e-09 -2.58118e-11 -4.99021e-11)
(-2.60973e-09 -2.70892e-11 -2.40104e-11)
(1.99605e-11 7.74799e-11 1.97968e-11)
(2.2129e-11 7.11571e-11 9.97206e-12)
(-2.61806e-12 5.01875e-11 -8.55152e-12)
(-7.70277e-11 2.20977e-11 -3.06629e-11)
(-2.10525e-10 -7.70376e-13 -4.85475e-11)
(-4.25878e-10 -1.43254e-11 -5.67385e-11)
(-7.26771e-10 -2.16529e-11 -5.7472e-11)
(-1.11083e-09 -2.77086e-11 -5.08669e-11)
(-1.53665e-09 -3.69869e-11 -3.82004e-11)
(5.76717e-12 5.47337e-11 5.12445e-12)
(5.20173e-12 5.08229e-11 -1.94132e-12)
(-1.33666e-11 3.83892e-11 -1.32034e-11)
(-6.68057e-11 2.11099e-11 -2.63915e-11)
(-1.61171e-10 5.62359e-12 -3.73574e-11)
(-3.06081e-10 -6.51653e-12 -4.27972e-11)
(-4.94618e-10 -1.66231e-11 -4.43174e-11)
(-7.18931e-10 -2.78836e-11 -4.20279e-11)
(-9.39992e-10 -4.43141e-11 -3.85788e-11)
(-6.87666e-12 4.13376e-11 -2.75914e-13)
(-9.52865e-12 3.83567e-11 -5.32979e-12)
(-2.97096e-11 3.04111e-11 -1.27727e-11)
(-7.18105e-11 1.92608e-11 -2.16447e-11)
(-1.5256e-10 7.43678e-12 -2.8623e-11)
(-2.6036e-10 -3.25734e-12 -3.32338e-11)
(-4.04323e-10 -1.40167e-11 -3.477e-11)
(-5.53612e-10 -2.69549e-11 -3.46256e-11)
(-6.97967e-10 -4.84906e-11 -3.55742e-11)
(7.61665e-12 5.77508e-11 1.58517e-11)
(8.92701e-12 5.34033e-11 6.94665e-12)
(-5.49596e-12 3.93302e-11 -9.33082e-12)
(-6.0528e-11 2.04513e-11 -2.84156e-11)
(-1.6095e-10 4.054e-12 -4.46433e-11)
(-3.27241e-10 -6.27823e-12 -5.20474e-11)
(-5.40434e-10 -1.51279e-11 -5.32357e-11)
(-8.0157e-10 -2.46176e-11 -4.74502e-11)
(-1.18302e-12 4.31862e-11 3.76247e-12)
(-8.26536e-13 4.0493e-11 -2.83425e-12)
(-1.15363e-11 3.14076e-11 -1.34293e-11)
(-5.015e-11 1.92911e-11 -2.53107e-11)
(-1.2286e-10 8.16299e-12 -3.57418e-11)
(-2.37322e-10 -2.01565e-12 -4.12162e-11)
(-3.8099e-10 -1.20742e-11 -4.32127e-11)
(-1.19185e-11 3.38576e-11 -1.3275e-12)
(-1.17187e-11 3.11923e-11 -6.2375e-12)
(-2.19988e-11 2.53809e-11 -1.36091e-11)
(-5.29504e-11 1.7044e-11 -2.155e-11)
(-1.14563e-10 8.2517e-12 -2.86837e-11)
(-2.01844e-10 -6.76139e-13 -3.30371e-11)
)
;

boundaryField
{
    inlet
    {
        type            calculated;
        value           nonuniform List<vector> 
12
(
(-3.30076e-10 1.64381e-10 3.7196e-12)
(-8.07948e-11 3.27408e-11 -1.18939e-11)
(-5.40605e-11 9.21701e-12 -3.06669e-12)
(-4.34134e-11 1.17841e-10 5.08419e-12)
(-5.42632e-11 5.08549e-11 3.33586e-12)
(-4.75658e-11 1.65044e-11 5.25523e-12)
(-3.55984e-11 9.90131e-11 2.52598e-11)
(-2.36348e-11 4.28183e-11 8.23354e-12)
(-5.60446e-11 1.54144e-11 5.09514e-12)
(-3.40328e-11 6.97332e-11 2.51609e-11)
(5.512e-12 3.10543e-11 9.96232e-12)
(-3.92305e-11 1.14598e-11 2.7398e-12)
)
;
    }
    outlet
    {
        type            calculated;
        value           nonuniform 0();
    }
    wall
    {
        type            calculated;
        value           nonuniform List<vector> 
66
(
(-2.1016e-11 1.65132e-10 -1.34934e-11)
(-1.59223e-11 3.56925e-11 -1.5514e-11)
(-5.30838e-11 9.44227e-12 -3.79476e-12)
(6.47881e-11 1.44997e-10 -9.35624e-12)
(5.0838e-11 6.54854e-11 -1.70633e-11)
(-1.1573e-11 1.73777e-11 -1.24939e-11)
(7.32161e-11 9.38207e-11 -2.45161e-11)
(-9.31006e-11 2.83564e-11 -2.89764e-11)
(-3.99367e-10 9.33669e-12 -1.67162e-11)
(1.36763e-10 -2.68684e-11 -3.92433e-11)
(1.28109e-10 2.51782e-11 -4.10272e-11)
(-3.19368e-11 1.62178e-11 -3.44374e-11)
(-1.80316e-10 9.56258e-11 -7.43841e-12)
(-4.00729e-10 -1.32465e-10 -4.8269e-11)
(-5.23347e-11 -1.20344e-11 -4.98519e-11)
(-1.83839e-10 -2.83509e-13 -4.51564e-11)
(-3.54528e-11 3.10456e-11 -1.66943e-11)
(-1.98974e-10 -1.04671e-10 -1.01449e-10)
(2.02769e-11 -3.1523e-11 -6.76362e-11)
(2.38256e-12 -9.85906e-12 -4.4255e-11)
(6.90316e-11 2.79814e-12 -9.48778e-12)
(-1.02328e-09 -5.90177e-11 -8.8766e-11)
(-4.03192e-10 -4.52507e-11 -8.28152e-11)
(-5.45003e-10 -5.80497e-11 -3.90013e-11)
(-7.06915e-10 2.31432e-11 -8.04058e-12)
(-1.63832e-09 1.61602e-11 -1.1885e-10)
(-4.97589e-10 -8.08487e-11 -1.36262e-10)
(-3.67846e-10 -1.50939e-10 -1.53661e-11)
(-7.1473e-10 1.05678e-10 -2.05716e-11)
(-3.33848e-09 7.50892e-11 -5.97026e-11)
(-1.79901e-09 2.08397e-11 -7.59107e-11)
(-1.19126e-09 -1.1348e-10 -7.69964e-11)
(-1.35456e-09 -1.79043e-11 5.81882e-12)
(-5.6556e-11 9.55589e-12 -3.32559e-12)
(-4.94453e-11 1.69123e-11 4.77502e-12)
(-6.99206e-11 1.55977e-11 5.46864e-12)
(-7.18979e-11 1.121e-11 4.02268e-12)
(-1.89423e-11 1.73916e-11 -1.20685e-11)
(-2.07039e-12 2.43008e-11 -3.46815e-12)
(2.59796e-12 1.95536e-11 -4.19863e-12)
(-1.74379e-11 1.15314e-11 -4.28178e-12)
(-2.04776e-10 1.12377e-11 -1.91454e-11)
(-4.66756e-11 2.13538e-11 3.04187e-12)
(-3.09842e-11 1.64328e-11 -3.10325e-12)
(-1.4516e-11 1.57827e-11 -1.31805e-11)
(-3.58627e-10 9.587e-11 -2.66056e-12)
(2.76245e-11 1.12661e-11 -8.36642e-12)
(4.47513e-11 1.50914e-11 -1.50683e-11)
(4.32278e-12 1.12384e-11 -1.49368e-11)
(-4.0539e-10 3.06669e-11 -1.00877e-11)
(-1.34345e-10 1.00055e-11 8.18386e-12)
(-8.28955e-11 6.05459e-12 -1.22578e-11)
(-5.66848e-11 9.1517e-12 -2.19219e-11)
(-1.40401e-10 3.63114e-12 -8.52691e-12)
(-1.05896e-10 3.96231e-12 -3.9468e-12)
(-1.47756e-11 3.29048e-12 -1.81563e-11)
(-3.65428e-12 7.80906e-12 -2.13003e-11)
(-7.14354e-10 2.50802e-11 -5.00578e-12)
(-3.02103e-10 -4.07404e-12 1.19351e-11)
(-1.46302e-10 -6.52936e-12 -1.74085e-11)
(-1.06405e-09 1.14486e-10 -1.70044e-11)
(-1.86486e-10 2.85977e-12 2.12731e-11)
(-8.4382e-11 1.76579e-12 -1.59393e-11)
(-1.64488e-09 -1.04981e-11 1.22323e-11)
(-2.33115e-10 1.16519e-11 2.69422e-11)
(-1.11718e-10 -3.55614e-13 -3.1039e-11)
)
;
    }
    procBoundary2to0
    {
        type            processor;
        value           nonuniform List<vector> 
44
(
(-1.66883e-10 -3.11248e-11 -4.50292e-11)
(-6.64699e-10 -1.07061e-10 -8.63588e-11)
(-1.4809e-09 -9.06559e-11 -8.19982e-11)
(-2.86638e-09 -5.50774e-11 -4.90887e-11)
(-5.22624e-09 -2.12022e-11 1.32187e-11)
(-9.30508e-09 2.32282e-12 1.15973e-10)
(3.94926e-11 1.6511e-10 5.11695e-11)
(4.65704e-11 1.41622e-10 3.43533e-11)
(-2.1086e-12 9.08535e-11 4.30344e-12)
(-2.1086e-12 9.08535e-11 4.30344e-12)
(-1.24003e-10 1.0949e-11 -3.62047e-11)
(-3.87477e-10 -3.40756e-11 -6.4978e-11)
(-1.21323e-09 -7.29431e-11 -9.31567e-11)
(-2.29918e-09 -4.85004e-11 -6.47298e-11)
(-4.04638e-09 -2.32313e-11 -1.44651e-11)
(-6.77085e-09 -6.13536e-12 5.72096e-11)
(4.49827e-11 1.37983e-10 5.40418e-11)
(5.41636e-11 1.2331e-10 3.78222e-11)
(1.94698e-11 7.82114e-11 5.01294e-12)
(-1.24003e-10 1.0949e-11 -3.62047e-11)
(-3.87477e-10 -3.40756e-11 -6.4978e-11)
(-3.87477e-10 -3.40756e-11 -6.4978e-11)
(-6.3572e-10 -2.76827e-11 -7.29613e-11)
(-1.12603e-09 -2.92429e-11 -6.73143e-11)
(-2.76821e-09 -2.3635e-11 -3.7041e-11)
(-4.31342e-09 -2.03843e-11 8.89109e-12)
(3.683e-11 1.01685e-10 4.83701e-11)
(4.30323e-11 9.15587e-11 3.41353e-11)
(1.45176e-11 6.05402e-11 3.5036e-12)
(-9.58938e-11 1.65912e-11 -3.47011e-11)
(-3.00806e-10 -1.60417e-11 -6.38997e-11)
(-6.3572e-10 -2.76827e-11 -7.29613e-11)
(-1.12603e-09 -2.92429e-11 -6.73143e-11)
(-1.12603e-09 -2.92429e-11 -6.73143e-11)
(-1.22167e-09 -2.40945e-11 -5.11695e-11)
(-1.69207e-09 -3.49028e-11 -3.57232e-11)
(2.03762e-11 7.01193e-11 3.74932e-11)
(2.27776e-11 6.4223e-11 2.59656e-11)
(1.52241e-12 4.41104e-11 1.60122e-12)
(-7.95932e-11 1.69352e-11 -3.03083e-11)
(-2.26155e-10 -5.00676e-12 -5.56179e-11)
(-4.69584e-10 -1.53183e-11 -6.51892e-11)
(-7.99643e-10 -2.08605e-11 -6.29866e-11)
(-1.22167e-09 -2.40945e-11 -5.11695e-11)
)
;
    }
    procBoundary2to3
    {
        type            processor;
        value           nonuniform List<vector> 
12
(
(-7.00101e-09 4.77422e-12 8.44275e-11)
(-3.35088e-09 -2.50528e-11 1.48619e-12)
(-1.77994e-09 -6.74671e-11 -2.76583e-11)
(-1.21918e-09 -6.4765e-11 -2.03384e-11)
(-5.21158e-09 -1.05489e-11 4.36303e-11)
(-2.66701e-09 -3.78755e-11 -1.31867e-11)
(-1.46619e-09 -5.93925e-11 -3.34705e-11)
(-1.02589e-09 -6.27149e-11 -2.91748e-11)
(-3.42758e-09 -3.37864e-11 6.13955e-12)
(-1.91206e-09 -5.45873e-11 -2.51549e-11)
(-1.11652e-09 -7.41073e-11 -3.67176e-11)
(-7.9726e-10 -8.3306e-11 -4.08201e-11)
)
;
    }
    procBoundary2to6
    {
        type            processor;
        value           nonuniform List<vector> 
32
(
(-1.07045e-09 -4.39256e-11 -4.0037e-11)
(-5.50468e-10 -2.63527e-11 -4.19849e-11)
(-6.94397e-10 -5.18836e-11 -3.99805e-11)
(-3.10405e-10 -1.20463e-11 -3.51742e-11)
(-4.22838e-10 -2.92721e-11 -3.60844e-11)
(-5.26827e-10 -5.84783e-11 -3.71255e-11)
(-5.33193e-13 4.17232e-11 9.89899e-12)
(1.58476e-12 3.95085e-11 3.03199e-12)
(-8.8513e-12 3.05841e-11 -9.06642e-12)
(-4.89907e-11 1.8213e-11 -2.3803e-11)
(-1.23355e-10 7.50925e-12 -3.69613e-11)
(-2.47701e-10 -1.30605e-12 -4.25456e-11)
(-3.98176e-10 -1.10449e-11 -4.44518e-11)
(-1.07045e-09 -4.39256e-11 -4.0037e-11)
(-5.50468e-10 -2.63527e-11 -4.19849e-11)
(-5.73515e-10 -2.43411e-11 -4.20118e-11)
(-4.33081e-12 3.2839e-11 5.73979e-13)
(-4.11993e-12 3.08772e-11 -5.8478e-12)
(-1.19113e-11 2.54331e-11 -1.33133e-11)
(-3.89071e-11 1.75345e-11 -2.23676e-11)
(-9.35111e-11 9.98444e-12 -3.08303e-11)
(-1.80713e-10 1.61737e-12 -3.5607e-11)
(-5.50468e-10 -2.63527e-11 -4.19849e-11)
(-3.10405e-10 -1.20463e-11 -3.51742e-11)
(-2.86598e-10 -9.22906e-12 -3.80945e-11)
(-1.20422e-11 2.64882e-11 -3.70839e-12)
(-1.36157e-11 2.39996e-11 -8.26434e-12)
(-2.20571e-11 2.0455e-11 -1.35621e-11)
(-4.21093e-11 1.49714e-11 -1.98155e-11)
(-8.86321e-11 8.41553e-12 -2.55499e-11)
(-3.10405e-10 -1.20463e-11 -3.51742e-11)
(-1.53663e-10 8.42088e-13 -2.98856e-11)
)
;
    }
}


// ************************************************************************* //
