/*--------------------------------*- C++ -*----------------------------------*\
| =========                 |                                                 |
| \\      /  F ield         | OpenFOAM: The Open Source CFD Toolbox           |
|  \\    /   O peration     | Version:  4.x                                   |
|   \\  /    A nd           | Web:      www.OpenFOAM.org                      |
|    \\/     M anipulation  |                                                 |
\*---------------------------------------------------------------------------*/
FoamFile
{
    version     2.0;
    format      ascii;
    class       volVectorField;
    location    "52.5";
    object      DDtUrel;
}
// * * * * * * * * * * * * * * * * * * * * * * * * * * * * * * * * * * * * * //

dimensions      [0 1 -2 0 0 0 0];

internalField   nonuniform List<vector> 
114
(
(0.000531421 1.0058e-07 -9.41799e-07)
(0.000389617 -5.65411e-07 2.00314e-05)
(0.000315268 -6.20278e-07 3.52902e-05)
(0.000245953 1.70345e-06 3.89328e-05)
(0.000220722 2.56084e-06 4.01312e-05)
(0.000171514 -2.14346e-06 3.1047e-05)
(0.00176812 1.65362e-05 -0.000173039)
(0.00112657 1.04691e-05 -9.47835e-05)
(0.000740395 3.98261e-06 -3.33197e-05)
(0.000521135 -3.5567e-06 3.07104e-06)
(0.000378766 -1.01655e-05 2.21181e-05)
(0.000301565 -1.34113e-05 3.45192e-05)
(0.000232249 -1.37002e-05 3.93975e-05)
(0.000198783 -1.10505e-05 4.1351e-05)
(0.000148215 -1.0281e-05 3.41783e-05)
(0.00180296 5.80468e-05 -0.000165753)
(0.00116924 2.64646e-05 -8.95828e-05)
(0.000785296 8.35238e-06 -2.97959e-05)
(0.000568491 -3.94908e-06 6.60286e-06)
(0.000425228 -1.47657e-05 2.54119e-05)
(0.000349613 -2.1161e-05 3.71139e-05)
(0.000278751 -2.45312e-05 4.08556e-05)
(0.000248376 -2.36521e-05 4.13308e-05)
(0.000200027 -1.72673e-05 3.71769e-05)
(0.00184517 5.51945e-05 -0.000158524)
(0.00122148 2.69647e-05 -8.67354e-05)
(0.000841098 6.78811e-06 -2.99449e-05)
(0.000629471 -7.23613e-06 5.89082e-06)
(0.000486489 -1.96316e-05 2.54028e-05)
(0.000412572 -2.75788e-05 3.77095e-05)
(0.000337866 -3.50577e-05 4.23406e-05)
(0.000299066 -3.66597e-05 4.14446e-05)
(0.000247344 -3.9583e-05 3.68935e-05)
(0.000224227 1.91134e-07 3.53392e-05)
(0.00016649 1.52822e-06 3.20959e-05)
(0.000147685 2.93093e-06 3.46964e-05)
(0.000109829 9.27957e-07 2.37457e-05)
(0.00170606 2.44326e-05 -0.00019798)
(0.00104183 1.18358e-05 -9.67323e-05)
(0.000650022 5.53734e-06 -3.27311e-05)
(0.000429609 -8.34449e-07 7.35498e-06)
(0.000294832 -7.09397e-06 2.07722e-05)
(0.000222631 -1.20098e-05 3.51375e-05)
(0.000165367 -1.06927e-05 3.3104e-05)
(0.000137568 -1.00797e-05 3.85288e-05)
(0.000104439 -8.06159e-06 2.7231e-05)
(0.00174361 6.68394e-05 -0.000194096)
(0.00108544 3.02302e-05 -9.59006e-05)
(0.000694068 8.48486e-06 -3.26526e-05)
(0.000476712 -3.84833e-06 6.21888e-06)
(0.000338418 -1.33223e-05 2.03677e-05)
(0.000267389 -1.94085e-05 3.25418e-05)
(0.00020395 -2.21035e-05 3.16972e-05)
(0.000181249 -2.39724e-05 3.51668e-05)
(0.000140854 -1.86274e-05 2.54444e-05)
(0.0017915 6.36679e-05 -0.000188288)
(0.00114434 3.04726e-05 -9.41171e-05)
(0.000754833 6.70906e-06 -3.41677e-05)
(0.000539053 -7.98446e-06 4.1461e-06)
(0.000396814 -1.91811e-05 1.85973e-05)
(0.000322891 -2.61838e-05 3.24303e-05)
(0.000253829 -3.17483e-05 3.28144e-05)
(0.000224869 -3.4682e-05 3.33095e-05)
(0.000178406 -3.67877e-05 2.36796e-05)
(9.02268e-05 4.63361e-06 2.37216e-05)
(6.17785e-05 1.00405e-06 1.583e-05)
(0.00164976 2.81522e-05 -0.000179841)
(0.000965394 1.08935e-05 -8.34605e-05)
(0.00057435 2.96305e-06 -2.88802e-05)
(0.000354807 -4.47437e-06 7.18765e-06)
(0.000228892 -7.32703e-06 1.65578e-05)
(0.00015761 -1.22243e-05 2.789e-05)
(0.000112969 -9.02548e-06 2.40472e-05)
(8.30095e-05 -8.70398e-06 2.54279e-05)
(6.27803e-05 -7.80171e-06 1.756e-05)
(0.00168826 7.21046e-05 -0.00017384)
(0.00100881 3.16636e-05 -8.31845e-05)
(0.000613737 8.41375e-06 -3.11458e-05)
(0.00039243 -6.16107e-06 4.23676e-06)
(0.000259901 -1.32697e-05 1.55459e-05)
(0.00018844 -2.07692e-05 2.66975e-05)
(0.000135368 -2.00447e-05 2.29692e-05)
(0.000111288 -2.59827e-05 2.41548e-05)
(8.13574e-05 -1.94657e-05 1.60774e-05)
(0.00173846 7.09621e-05 -0.000171388)
(0.00106811 3.51289e-05 -8.48744e-05)
(0.000671451 8.50714e-06 -3.42898e-05)
(0.000449127 -7.79715e-06 1.64434e-06)
(0.000309386 -1.80837e-05 1.50224e-05)
(0.000231492 -2.39539e-05 2.68679e-05)
(0.000168541 -2.6839e-05 2.2084e-05)
(0.000141184 -3.27825e-05 2.27586e-05)
(9.95563e-05 -3.09254e-05 1.45615e-05)
(0.00161963 3.81615e-05 -0.000135905)
(0.000926069 1.73559e-05 -6.1338e-05)
(0.000535582 3.79145e-06 -2.37622e-05)
(0.000318283 -4.28595e-06 3.71548e-06)
(0.000195119 -6.53836e-06 1.11507e-05)
(0.00012662 -1.03728e-05 2.00086e-05)
(8.31144e-05 -8.99202e-06 1.48569e-05)
(5.86764e-05 -8.94105e-06 1.22537e-05)
(0.00166496 8.25552e-05 -0.000132016)
(0.000976287 3.39216e-05 -6.35009e-05)
(0.000577891 7.04543e-06 -2.71791e-05)
(0.00035763 -7.42198e-06 -1.07719e-06)
(0.0002252 -1.24715e-05 9.17845e-06)
(0.000158045 -1.89497e-05 1.77017e-05)
(0.000105165 -1.83889e-05 1.23615e-05)
(0.00171717 7.58651e-05 -0.000131453)
(0.0010341 3.45094e-05 -6.72213e-05)
(0.000630546 6.88288e-06 -3.20066e-05)
(0.000404612 -9.38501e-06 -5.08233e-06)
(0.000264272 -1.7295e-05 8.72896e-06)
(0.000190682 -2.40174e-05 1.72538e-05)
)
;

boundaryField
{
    inlet
    {
        type            calculated;
        value           nonuniform List<vector> 
12
(
(0.00392631 9.91048e-06 -0.00034815)
(0.00401502 0.000269325 -0.000325586)
(0.0041598 0.000112001 -0.000277857)
(0.00374239 8.26104e-05 -0.000649279)
(0.00383232 0.000335792 -0.000667021)
(0.00403331 0.000165107 -0.000618568)
(0.00369908 8.3204e-05 -0.000575572)
(0.00375537 0.000325402 -0.000522729)
(0.0039671 0.000190819 -0.000514788)
(0.00368812 0.000174771 -0.000475275)
(0.00382895 0.000424699 -0.000415679)
(0.00404126 0.000195412 -0.00040338)
)
;
    }
    outlet
    {
        type            calculated;
        value           nonuniform 0();
    }
    wall
    {
        type            calculated;
        value           nonuniform List<vector> 
66
(
(0.00392631 9.91048e-06 -0.00034815)
(0.00401502 0.000269325 -0.000325586)
(0.0041598 0.000112001 -0.000277857)
(0.000408977 1.80418e-05 -4.77497e-05)
(0.000587202 1.87877e-05 -9.96028e-06)
(0.000829664 -8.38367e-06 -6.82949e-06)
(0.00031083 1.20689e-05 4.47646e-05)
(0.000490478 7.23128e-06 6.58546e-05)
(0.000729458 -1.76973e-05 5.03878e-05)
(0.000571566 4.65287e-06 1.07926e-05)
(0.000375836 -2.4931e-05 4.76019e-05)
(0.000569453 -2.26703e-07 7.7769e-05)
(0.000870629 -2.02919e-05 6.19313e-05)
(0.000446582 -1.05478e-05 3.50496e-05)
(0.000249031 -4.57846e-05 4.40863e-05)
(0.000426659 -3.27467e-05 7.3977e-05)
(0.000725106 -5.03759e-05 6.95283e-05)
(0.000584669 -6.7757e-06 9.17682e-05)
(0.000328896 -4.27846e-05 4.66754e-05)
(0.000540598 -4.05033e-05 8.29657e-05)
(0.000882627 -5.30834e-05 8.05441e-05)
(0.00036065 2.65395e-05 8.13057e-05)
(0.00013665 -4.652e-05 6.50536e-05)
(0.000337997 -4.67321e-05 7.93474e-05)
(0.000659779 -9.65531e-05 9.39584e-05)
(0.000596041 2.93352e-05 0.000102476)
(0.000222516 -1.10943e-05 8.33897e-05)
(0.000508634 -3.93556e-05 7.47592e-05)
(0.000723227 -7.83913e-05 7.85303e-05)
(0.000265282 -5.74029e-05 5.15501e-05)
(-6.75366e-05 -2.27079e-05 2.5906e-05)
(0.000255126 5.79872e-05 6.26649e-05)
(0.000478052 -0.000115468 5.27075e-05)
(0.0041598 0.000112001 -0.000277857)
(0.00403331 0.000165107 -0.000618568)
(0.0039671 0.000190819 -0.000514788)
(0.00404126 0.000195412 -0.00040338)
(0.000829664 -8.38367e-06 -6.82949e-06)
(0.000486833 -2.90585e-06 -2.86925e-05)
(0.000233885 3.20311e-05 5.55991e-07)
(0.000252642 -1.2037e-05 -1.29697e-05)
(0.000729458 -1.76973e-05 5.03878e-05)
(0.000369139 -3.38407e-05 1.87097e-05)
(0.000153146 -1.41618e-05 -3.8339e-06)
(0.000154764 -3.3205e-05 -3.79768e-05)
(0.000870629 -2.02919e-05 6.19313e-05)
(0.000490245 -3.4889e-05 7.73852e-05)
(0.000216249 -2.69175e-05 7.96712e-05)
(0.000226182 -4.17439e-05 1.55025e-05)
(0.000725106 -5.03759e-05 6.95283e-05)
(0.000347525 -5.27538e-05 5.2283e-06)
(0.000131072 -4.62944e-05 2.66552e-05)
(0.000135433 -3.5281e-05 3.49277e-05)
(0.000882627 -5.30834e-05 8.05441e-05)
(0.000482377 -5.42528e-05 7.64913e-05)
(0.000159949 -3.64343e-05 9.36382e-05)
(0.0002588 -5.20903e-05 8.17226e-05)
(0.000659779 -9.65531e-05 9.39584e-05)
(0.000280336 -7.48049e-05 3.95372e-05)
(1.16227e-05 -1.84681e-05 8.11608e-06)
(0.000723227 -7.83913e-05 7.85303e-05)
(0.000444079 -7.00877e-05 6.77973e-05)
(0.000130124 -7.4248e-05 5.98339e-05)
(0.000478052 -0.000115468 5.27075e-05)
(0.000196825 -9.97951e-05 -2.87782e-05)
(-8.95713e-05 -3.52004e-05 7.64795e-06)
)
;
    }
    procBoundary2to0
    {
        type            processor;
        value           nonuniform List<vector> 
44
(
(0.000548583 5.20077e-06 -2.5525e-06)
(0.000406019 1.04241e-05 1.73826e-05)
(0.00032677 1.08122e-05 2.98392e-05)
(0.000255162 1.0688e-05 3.40132e-05)
(0.000218479 1.29051e-05 3.4815e-05)
(0.000172336 1.52526e-05 2.25581e-05)
(0.00176938 -2.4286e-05 -0.000180996)
(0.00113272 -8.95785e-06 -9.56212e-05)
(0.000749397 -3.48801e-06 -3.64053e-05)
(0.000749397 -3.48801e-06 -3.64053e-05)
(0.000430808 1.6011e-06 8.09633e-06)
(0.000294035 6.00127e-07 2.17053e-05)
(0.000232632 1.24036e-05 3.40107e-05)
(0.000173706 1.10327e-05 3.06186e-05)
(0.000146922 1.25914e-05 3.28984e-05)
(0.000112683 1.11369e-05 2.20467e-05)
(0.00170063 -1.94824e-05 -0.000204739)
(0.00104042 -8.79947e-06 -9.66108e-05)
(0.000649711 -1.98548e-06 -3.17886e-05)
(0.000430808 1.6011e-06 8.09633e-06)
(0.000294035 6.00127e-07 2.17053e-05)
(0.000294035 6.00127e-07 2.17053e-05)
(0.000162258 -1.86047e-07 2.62456e-05)
(0.000112749 9.36469e-07 2.2297e-05)
(9.49671e-05 1.09852e-05 2.56145e-05)
(6.70507e-05 9.15126e-06 1.72096e-05)
(0.00164027 -2.18365e-05 -0.000184436)
(0.000960791 -1.0233e-05 -8.70752e-05)
(0.000570308 -3.91278e-06 -2.86859e-05)
(0.000355519 -6.03722e-07 8.26706e-06)
(0.000227848 -8.60102e-07 1.5946e-05)
(0.000162258 -1.86047e-07 2.62456e-05)
(0.000112749 9.36469e-07 2.2297e-05)
(0.000112749 9.36469e-07 2.2297e-05)
(5.03404e-05 8.6144e-07 1.78143e-05)
(3.10126e-05 2.61308e-07 1.16586e-05)
(0.00160873 -1.55683e-05 -0.000135266)
(0.000916268 -4.90163e-06 -6.4539e-05)
(0.000525493 -1.86336e-06 -2.36339e-05)
(0.000311204 7.61794e-07 2.1744e-06)
(0.000188606 1.49819e-07 1.00298e-05)
(0.000122416 -1.49408e-06 1.7181e-05)
(7.79526e-05 2.80506e-07 1.52493e-05)
(5.03404e-05 8.6144e-07 1.78143e-05)
)
;
    }
    procBoundary2to3
    {
        type            processor;
        value           nonuniform List<vector> 
12
(
(0.000172882 -1.54336e-06 2.74548e-05)
(0.000134667 -8.90832e-06 3.62229e-05)
(0.000194891 -1.83771e-05 3.93025e-05)
(0.000234245 -4.28672e-05 3.96301e-05)
(0.000108292 1.30213e-06 2.22416e-05)
(9.17192e-05 -6.89261e-06 2.56605e-05)
(0.000142263 -2.09628e-05 2.66795e-05)
(0.000171146 -3.95714e-05 2.46673e-05)
(4.98522e-05 -6.95977e-07 1.61524e-05)
(4.31844e-05 -6.62854e-06 1.53706e-05)
(7.20784e-05 -1.93128e-05 1.20477e-05)
(8.93538e-05 -3.36994e-05 1.1564e-05)
)
;
    }
    procBoundary2to6
    {
        type            processor;
        value           nonuniform List<vector> 
32
(
(3.75969e-05 -8.66653e-06 9.42364e-06)
(8.62547e-05 -2.3282e-05 1.25148e-05)
(5.61664e-05 -1.74103e-05 4.82513e-06)
(0.000129916 -2.83043e-05 9.19353e-06)
(0.000106123 -3.25098e-05 8.04484e-06)
(6.76883e-05 -3.04658e-05 5.12009e-07)
(0.00161332 3.48488e-05 -6.45412e-05)
(0.000909226 1.5067e-05 -3.30333e-05)
(0.0005207 2.6967e-06 -1.61775e-05)
(0.000300856 -5.87884e-06 -2.56511e-06)
(0.00018113 -7.30548e-06 3.17453e-06)
(0.000106924 -1.10204e-05 6.13391e-06)
(6.82017e-05 -1.01081e-05 5.62066e-06)
(3.75969e-05 -8.66653e-06 9.42364e-06)
(8.62547e-05 -2.3282e-05 1.25148e-05)
(4.11448e-05 -1.19108e-05 4.13691e-06)
(0.00165686 8.37907e-05 -6.67609e-05)
(0.000958223 3.17014e-05 -3.68916e-05)
(0.000558923 6.01481e-06 -1.97023e-05)
(0.000333453 -1.18355e-05 -5.89921e-06)
(0.00020098 -1.40795e-05 1.08815e-06)
(0.000124974 -2.2266e-05 4.33502e-06)
(8.62547e-05 -2.3282e-05 1.25148e-05)
(0.000129916 -2.83043e-05 9.19353e-06)
(7.68758e-05 -2.00771e-05 4.38814e-06)
(0.001712 7.87884e-05 -7.01282e-05)
(0.00101731 3.51634e-05 -4.03314e-05)
(0.000609995 6.13265e-06 -2.38695e-05)
(0.000374933 -1.12564e-05 -8.69944e-06)
(0.000229705 -1.67524e-05 -1.00565e-06)
(0.000129916 -2.83043e-05 9.19353e-06)
(0.000146592 -2.26575e-05 3.57497e-06)
)
;
    }
}


// ************************************************************************* //
