/*--------------------------------*- C++ -*----------------------------------*\
| =========                 |                                                 |
| \\      /  F ield         | OpenFOAM: The Open Source CFD Toolbox           |
|  \\    /   O peration     | Version:  4.x                                   |
|   \\  /    A nd           | Web:      www.OpenFOAM.org                      |
|    \\/     M anipulation  |                                                 |
\*---------------------------------------------------------------------------*/
FoamFile
{
    version     2.0;
    format      ascii;
    class       volScalarField;
    location    "52.5";
    object      KslNext;
}
// * * * * * * * * * * * * * * * * * * * * * * * * * * * * * * * * * * * * * //

dimensions      [1 -3 -1 0 0 0 0];

internalField   nonuniform List<scalar> 
114
(
6252.93
3144.1
5504.28
3029.34
5061.6
2875.45
3394.74
8097.97
3327.93
6992.8
3279.57
6440.55
3214.84
6221.01
3133.1
3348.91
7538.6
3226.53
6179
3137.37
5507.39
3032.34
5130.01
2914.54
3291.98
6772.91
3092.09
5288.5
2910.06
4513.83
2740.8
4075.64
2637.72
12779.2
3678.44
14602.1
3554.95
3434.96
9956.98
3585.97
11968.5
3689.77
15478.2
3743.89
23742.3
3722.48
3411.88
9063.42
3515.19
9402.46
3523.18
9682.72
3504.41
10204.5
3415.91
3333.55
7565.38
3291.58
6539.51
3164.42
5897.54
3075.15
5521.73
2965.43
23337.6
3658.29
3495.87
10892.4
3721.94
16663.7
3851.38
33436.7
3924.56
285585
3949.6
3439.97
10059.1
3640.45
13144.5
3731.35
18453.7
3779.69
34507.5
3756.26
3365.2
8216.34
3392.1
7717.54
3327.1
7286.84
3330.11
7287.34
3270.34
3506.33
11543.2
3755.59
17778.8
3828.64
30072.9
3834.79
76606.8
3464.32
9644.77
3630.8
11018.4
3642.89
11920.4
3579.54
3359.72
7942.42
3386.91
7444.79
3327.02
6960.04
)
;

boundaryField
{
    inlet
    {
        type            zeroGradient;
    }
    outlet
    {
        type            zeroGradient;
    }
    wall
    {
        type            zeroGradient;
    }
    procBoundary2to0
    {
        type            processor;
        value           uniform 0;
    }
    procBoundary2to3
    {
        type            processor;
        value           uniform 0;
    }
    procBoundary2to6
    {
        type            processor;
        value           uniform 0;
    }
}


// ************************************************************************* //
