/*--------------------------------*- C++ -*----------------------------------*\
| =========                 |                                                 |
| \\      /  F ield         | OpenFOAM: The Open Source CFD Toolbox           |
|  \\    /   O peration     | Version:  4.x                                   |
|   \\  /    A nd           | Web:      www.OpenFOAM.org                      |
|    \\/     M anipulation  |                                                 |
\*---------------------------------------------------------------------------*/
FoamFile
{
    version     2.0;
    format      ascii;
    class       volScalarField;
    location    "52.5";
    object      Qsource;
}
// * * * * * * * * * * * * * * * * * * * * * * * * * * * * * * * * * * * * * //

dimensions      [1 -1 -3 0 0 0 0];

internalField   nonuniform List<scalar> 
114
(
7.66849e+09
6.52638e+09
3.65106e+09
6.94119e+09
4.2772e+09
5.60443e+09
6.66431e+09
7.35633e+09
7.01133e+09
4.86447e+09
8.23938e+09
5.51714e+09
7.91865e+09
7.25283e+09
5.40716e+09
4.73144e+09
6.61461e+09
5.99081e+09
5.92849e+09
6.74572e+09
5.84144e+09
7.76885e+09
6.03539e+09
7.50961e+09
5.69644e+09
4.97024e+09
6.993e+09
5.73931e+09
5.9157e+09
5.47655e+09
5.12907e+09
6.84886e+09
6.12671e+09
9.84816e+09
1.23014e+10
6.61341e+09
1.12267e+10
4.73252e+09
7.93587e+09
9.5915e+09
9.17086e+09
8.87893e+09
6.97778e+09
1.11415e+10
8.68251e+09
6.40151e+09
5.86026e+09
1.00161e+10
1.06621e+10
9.18706e+09
9.42126e+09
8.87423e+09
9.17172e+09
8.90631e+09
7.69078e+09
5.90774e+09
5.82384e+09
9.23424e+09
6.53305e+09
8.50764e+09
7.08778e+09
7.65662e+09
7.68811e+09
5.78419e+09
8.07368e+09
9.30119e+09
6.86058e+09
5.73225e+09
6.74281e+09
6.84544e+09
6.74764e+09
7.64317e+09
9.8047e+09
7.17799e+09
5.72892e+09
4.99165e+09
6.94986e+09
9.08571e+09
1.04561e+10
9.172e+09
6.98145e+09
9.45907e+09
8.45199e+09
1.02218e+10
5.84448e+09
8.01001e+09
7.82864e+09
7.92032e+09
5.64108e+09
7.29201e+09
1.0557e+10
5.79351e+09
8.60843e+09
4.8981e+09
9.48634e+09
1.03007e+10
7.1556e+09
8.23887e+09
6.27719e+09
7.58739e+09
7.51226e+09
5.87122e+09
7.91639e+09
1.05287e+10
6.62534e+09
9.12622e+09
7.73464e+09
1.0314e+10
5.0874e+09
6.72449e+09
8.35615e+09
7.70243e+09
7.61476e+09
6.98007e+09
)
;

boundaryField
{
    inlet
    {
        type            calculated;
        value           uniform 0;
    }
    outlet
    {
        type            calculated;
        value           nonuniform 0();
    }
    wall
    {
        type            calculated;
        value           uniform 0;
    }
    procBoundary2to0
    {
        type            processor;
        value           nonuniform List<scalar> 
44
(
5.58833e+09
6.49434e+09
5.4696e+09
4.93958e+09
5.78285e+09
9.47756e+09
3.83751e+09
4.98339e+09
4.4078e+09
4.4078e+09
5.51101e+09
1.13161e+10
6.7394e+09
1.05154e+10
6.89118e+09
6.34517e+09
7.96333e+09
7.03753e+09
7.79554e+09
5.51101e+09
1.13161e+10
1.13161e+10
8.04128e+09
8.77784e+09
6.42058e+09
5.39129e+09
6.90507e+09
8.67001e+09
9.57394e+09
8.99942e+09
9.97461e+09
8.04128e+09
8.77784e+09
8.77784e+09
5.5994e+09
2.62429e+09
4.82822e+09
6.73698e+09
9.83929e+09
1.02464e+10
5.52145e+09
9.86092e+09
8.58207e+09
5.5994e+09
)
;
    }
    procBoundary2to3
    {
        type            processor;
        value           nonuniform List<scalar> 
12
(
9.15378e+09
6.70939e+09
7.29639e+09
5.91985e+09
8.56627e+09
7.59904e+09
1.27445e+10
9.02812e+09
8.27345e+09
9.55555e+09
6.02652e+09
9.1774e+09
)
;
    }
    procBoundary2to6
    {
        type            processor;
        value           nonuniform List<scalar> 
32
(
8.11791e+09
6.832e+09
8.97656e+09
6.58083e+09
6.73114e+09
6.52382e+09
9.95374e+09
8.95435e+09
6.0829e+09
7.98283e+09
1.10746e+10
6.07323e+09
8.70748e+09
8.11791e+09
6.832e+09
6.67344e+09
6.30352e+09
9.21427e+09
8.17612e+09
1.021e+10
8.85034e+09
8.72196e+09
6.832e+09
6.58083e+09
8.74961e+09
5.50673e+09
7.98794e+09
6.79028e+09
6.55248e+09
9.5274e+09
6.58083e+09
9.83544e+09
)
;
    }
}


// ************************************************************************* //
