/*--------------------------------*- C++ -*----------------------------------*\
| =========                 |                                                 |
| \\      /  F ield         | OpenFOAM: The Open Source CFD Toolbox           |
|  \\    /   O peration     | Version:  4.x                                   |
|   \\  /    A nd           | Web:      www.OpenFOAM.org                      |
|    \\/     M anipulation  |                                                 |
\*---------------------------------------------------------------------------*/
FoamFile
{
    version     2.0;
    format      ascii;
    class       volVectorField;
    location    "52.5";
    object      U;
}
// * * * * * * * * * * * * * * * * * * * * * * * * * * * * * * * * * * * * * //

dimensions      [0 1 -1 0 0 0 0];

internalField   nonuniform List<vector> 
114
(
(0.0169295 -0.000202141 -0.000827355)
(0.0341791 -0.000334577 -0.00155593)
(0.0195109 -0.000232792 -0.0007439)
(0.0359684 -0.000354363 -0.00115381)
(0.0213356 -0.000120172 -0.000436987)
(0.0377665 -0.000235359 -0.000740988)
(0.0300092 5.0517e-05 -0.0013133)
(0.0127168 1.31151e-05 -0.000747604)
(0.0315376 0.000138631 -0.0015612)
(0.015116 7.73836e-05 -0.00067346)
(0.0328295 1.53343e-05 -0.00133128)
(0.0166739 -0.000125395 -0.000544604)
(0.0338861 -0.000179949 -0.00111742)
(0.0173943 -0.000329503 -0.000278397)
(0.0345683 -0.000227614 -0.000745551)
(0.0300599 0.00103021 -0.00127257)
(0.0135344 0.000523433 -0.000689897)
(0.032231 0.00110822 -0.00132558)
(0.0169745 0.000627171 -0.000553978)
(0.0340744 0.00109177 -0.000975989)
(0.0193961 0.000532222 -0.00034067)
(0.0357691 0.000911581 -0.000636005)
(0.0210791 0.000376927 -8.77843e-05)
(0.0373555 0.000747525 -0.000348881)
(0.0301012 0.000464958 -0.0010673)
(0.0147638 0.000218968 -0.00062191)
(0.0331067 0.000419653 -0.00110199)
(0.0194596 0.000195408 -0.00053579)
(0.0358704 0.000333833 -0.000848366)
(0.0231954 3.82422e-05 -0.000348189)
(0.0384784 0.000134104 -0.000562539)
(0.0260736 -0.000278184 -6.70389e-05)
(0.0405701 -0.000139723 -0.000305874)
(0.00860939 6.17787e-06 -0.000619734)
(0.030403 -6.04803e-05 -0.00125783)
(0.00748484 6.46721e-05 -0.000450364)
(0.0310753 5.80641e-05 -0.000705367)
(0.0299311 0.000366323 -0.0024688)
(0.0105032 7.99404e-05 -0.00118881)
(0.0300266 0.000391308 -0.00264196)
(0.00901029 0.000204684 -0.000975959)
(0.0297495 0.000502657 -0.00201172)
(0.00701653 8.66441e-05 -0.000751256)
(0.0296698 0.000235882 -0.001252)
(0.00458492 -3.13687e-05 -0.000499253)
(0.0294199 0.000151753 -0.000232976)
(0.0299066 0.00125615 -0.00246219)
(0.0114719 0.000629125 -0.00131115)
(0.0305517 0.00150321 -0.00271524)
(0.0114127 0.000616021 -0.001147)
(0.0308954 0.0014848 -0.00219279)
(0.0112076 0.000511748 -0.000992183)
(0.0314241 0.001352 -0.00179331)
(0.0106877 0.000340829 -0.000925909)
(0.0321737 0.00105447 -0.00129686)
(0.030002 0.000665864 -0.00223628)
(0.0134139 0.00031659 -0.00132066)
(0.0318597 0.000653482 -0.00237311)
(0.015995 0.000245745 -0.00134187)
(0.0334398 0.000492707 -0.00199661)
(0.0180009 8.19217e-05 -0.00137384)
(0.034886 0.000256379 -0.00165543)
(0.0193824 -0.000180497 -0.00122502)
(0.03619 -2.95279e-05 -0.00137348)
(0.00459554 -0.000331231 -0.000511481)
(0.0296486 -3.95172e-05 -0.00064948)
(0.0297569 0.000375356 -0.00208822)
(0.00964622 4.96784e-05 -0.000988978)
(0.0289766 0.000136992 -0.00188727)
(0.00646943 -8.85832e-06 -0.000561505)
(0.0283239 -0.000125164 -0.00116384)
(0.00323467 -9.15832e-05 -0.000260312)
(0.0279604 -0.000555266 -0.000501166)
(0.000376018 -2.04882e-05 -3.93833e-05)
(0.0273907 -0.000508216 5.81757e-05)
(0.0298373 0.00126549 -0.00187123)
(0.010373 0.000540787 -0.000921118)
(0.0296154 0.00143968 -0.00170411)
(0.00820107 0.000490752 -0.000627578)
(0.029195 0.00124128 -0.00111699)
(0.00584221 0.000309011 -0.00035938)
(0.0290398 0.000749594 -0.000556341)
(0.00313494 0.000177654 -0.000160785)
(0.0291073 -9.24365e-05 -0.000123579)
(0.0299953 0.000719274 -0.00177487)
(0.0124719 0.000381105 -0.00103266)
(0.0310113 0.000893993 -0.00173824)
(0.0136556 0.000359276 -0.00099077)
(0.0317577 0.00075376 -0.00129428)
(0.0145737 0.000161545 -0.00080823)
(0.0323942 0.000574773 -0.00079157)
(0.0146137 8.28038e-05 -0.00071897)
(0.0328439 0.000201335 -0.000477558)
(0.0297287 0.000579275 -0.00175977)
(0.00919763 0.000312944 -0.000721275)
(0.0289273 0.000817569 -0.00142815)
(0.00604625 0.00021555 -0.000496418)
(0.0283907 0.000662353 -0.000767939)
(0.00356092 0.000150306 -0.000257388)
(0.0282399 0.000512352 -2.01963e-05)
(0.00138227 7.76898e-05 -0.00013993)
(0.029717 0.00157904 -0.00149239)
(0.0108605 0.000780745 -0.000733069)
(0.0297328 0.00175071 -0.00134007)
(0.0097091 0.000632418 -0.000658035)
(0.0298124 0.00156596 -0.00104785)
(0.00899147 0.000595712 -0.000506665)
(0.030332 0.00134055 -0.00060755)
(0.0299934 0.000779817 -0.00135488)
(0.0128968 0.000362553 -0.000842054)
(0.0311215 0.000719249 -0.00139653)
(0.0141316 0.00025094 -0.000995799)
(0.0320204 0.000502686 -0.00129486)
(0.0151927 0.000117622 -0.00079313)
)
;

boundaryField
{
    inlet
    {
        type            fixedValue;
        value           uniform (0.01 0 0);
    }
    outlet
    {
        type            zeroGradient;
    }
    wall
    {
        type            fixedValue;
        value           uniform (0 0 0);
    }
    procBoundary2to0
    {
        type            processor;
        value           nonuniform List<vector> 
44
(
(0.0164942 -0.000371121 -0.000915196)
(0.0337859 -0.000425415 -0.00166197)
(0.0187531 -0.000127137 -0.000854734)
(0.0351872 -0.000290426 -0.00146649)
(0.0200985 -1.13872e-05 -0.000586149)
(0.0361287 -0.000178471 -0.00109839)
(0.0301558 -0.00048065 -0.00161993)
(0.0135537 -0.000170434 -0.00079223)
(0.032246 -0.000368404 -0.00162152)
(0.032246 -0.000368404 -0.00162152)
(0.010043 -8.49384e-06 -0.000961283)
(0.0301893 -4.5597e-05 -0.00199541)
(0.00765224 -1.21058e-05 -0.000491173)
(0.0297479 -6.99566e-05 -0.00100563)
(0.0051811 0.000126307 -0.000206251)
(0.0296231 0.000112183 -0.000399053)
(0.0297533 -0.00018774 -0.0027474)
(0.0107693 -8.36941e-05 -0.00127966)
(0.0300205 -0.000195041 -0.00270042)
(0.010043 -8.49384e-06 -0.000961283)
(0.0301893 -4.5597e-05 -0.00199541)
(0.0301893 -4.5597e-05 -0.00199541)
(0.00526043 -0.000291652 -0.000470779)
(0.0292629 -0.000510506 -0.00083467)
(0.003457 -9.90094e-05 -0.000514475)
(0.0287598 -0.000341954 3.51994e-05)
(0.0296041 -0.000356384 -0.00205025)
(0.00952593 -0.000187016 -0.00109267)
(0.0291172 -0.000466038 -0.00209465)
(0.00696155 -0.000199579 -0.000617244)
(0.0290058 -0.000509571 -0.00125101)
(0.00526043 -0.000291652 -0.000470779)
(0.0292629 -0.000510506 -0.00083467)
(0.0292629 -0.000510506 -0.00083467)
(0.00326452 0.00018543 -0.000400619)
(0.0284919 -4.08617e-05 -0.000331727)
(0.0296926 -0.000139932 -0.00140434)
(0.00962005 3.73066e-05 -0.000809643)
(0.0290889 0.000177698 -0.00146225)
(0.00654729 0.000138722 -0.000551787)
(0.0287346 0.00029301 -0.0011801)
(0.00455668 0.000152043 -0.000445192)
(0.0288363 -5.93136e-05 -0.000879219)
(0.00326452 0.00018543 -0.000400619)
)
;
    }
    procBoundary2to3
    {
        type            processor;
        value           nonuniform List<vector> 
12
(
(0.0225666 -0.00033565 -0.000244617)
(0.0169336 -0.000433257 -0.000158206)
(0.0222727 0.000618221 0.000117342)
(0.0279866 -0.00064657 7.54745e-05)
(0.00683332 5.95183e-05 -0.000514614)
(0.00224348 -2.86416e-05 -0.000311797)
(0.0102168 0.000468961 -0.000987415)
(0.0202259 -0.000557325 -0.00134751)
(0.00386393 -0.00035662 -0.000727669)
(1.13149e-08 -8.25869e-10 -7.48749e-10)
(0.000914441 8.71092e-05 -4.86657e-05)
(0.0139066 -9.79921e-05 -0.000657157)
)
;
    }
    procBoundary2to6
    {
        type            processor;
        value           nonuniform List<vector> 
32
(
(0.0282651 0.000600021 -0.000202109)
(0.00877103 0.000653145 -0.000542315)
(0.0310451 0.000957263 -0.000328801)
(0.0329902 0.000248273 -0.000878563)
(0.0160317 -0.000191057 -0.000972668)
(0.0339408 -0.000113561 -0.000935773)
(0.0294754 0.000274188 -0.000575989)
(0.00837399 0.000173803 -0.0001816)
(0.0278214 0.000273207 -0.000391436)
(0.00369995 5.28916e-05 -0.000121047)
(0.0271027 5.43575e-05 -0.000216802)
(0.000496854 6.67339e-06 -1.92331e-05)
(0.0265702 -0.000229157 -0.000107065)
(0.0282651 0.000600021 -0.000202109)
(0.00877103 0.000653145 -0.000542315)
(1.09287e-08 2.04664e-10 -2.61977e-10)
(0.0297556 0.00167386 -0.000552467)
(0.00973235 0.000614991 -0.000314527)
(0.0290407 0.00158374 -0.00055121)
(0.00672421 0.000451709 -0.000332859)
(0.0285663 0.000924399 -0.000506194)
(0.00392693 0.000276873 -0.000255164)
(0.00877103 0.000653145 -0.000542315)
(0.0329902 0.000248273 -0.000878563)
(0.0281946 0.000121734 -0.000518371)
(0.0300706 0.000892454 -0.000571441)
(0.0125637 0.000409461 -0.000387873)
(0.0306623 0.000935762 -0.000610702)
(0.0129814 0.000288888 -0.000593194)
(0.0309831 0.000638212 -0.00062341)
(0.0329902 0.000248273 -0.000878563)
(0.0124152 0.000168955 -0.000616532)
)
;
    }
}


// ************************************************************************* //
