/*--------------------------------*- C++ -*----------------------------------*\
  =========                 |
  \\      /  F ield         | OpenFOAM: The Open Source CFD Toolbox
   \\    /   O peration     | Website:  https://openfoam.org
    \\  /    A nd           | Version:  4.x
     \\/     M anipulation  |
\*---------------------------------------------------------------------------*/
FoamFile
{
    version     2.0;
    format      ascii;
    class       Cloud<passiveParticle>;
    location    0;
    object      positions;
}
// * * * * * * * * * * * * * * * * * * * * * * * * * * * * * * * * * * * * * //

258
(
( 0.0238439 0.037348 0.0154083 ) 6
( 0.24819 0.0516228 -0.00683727 ) 2
( 0.0274295 0.0279924 0.032517 ) 6
( 0.0325858 0.0721984 0.0175704 ) 25
( 0.241818 0.0711515 0.000418288 ) 2
( 0.196736 0.0712755 0.00283497 ) 1
( 0.225361 0.0399261 -0.0103755 ) 0
( 0.105877 0.0456047 0.0370254 ) 18
( 0.167451 0.0195693 0.0187567 ) 12
( 0.131224 0.0344716 0.0152666 ) 10
( 0.068246 0.0675356 0.0308786 ) 17
( 0.218876 0.0674554 0.00882361 ) 1
( 0.0542851 0.0347406 0.0266619 ) 7
( 0.139586 0.0400138 0.0351974 ) 11
( 0.0875115 0.0458986 0.0297862 ) 18
( 0.111019 0.0900285 0.0147685 ) 27
( 0.0346449 0.015238 0.0196374 ) 7
( 0.0645472 0.0900826 0.0200373 ) 26
( 0.178924 0.0834957 0.0156637 ) 30
( 0.163715 0.0745222 0.0244977 ) 29
( 0.0484 0.0728233 0.0304947 ) 25
( 0.240067 0.0901872 0.0189364 ) 32
( 0.229614 0.0220866 -0.00343769 ) 0
( 0.108593 0.0619699 0.0225081 ) 18
( 0.0962488 0.0291359 0.024266 ) 9
( 0.189564 0.050951 0.0148218 ) 21
( 0.132424 0.0148532 0.0179036 ) 10
( 0.214352 0.0716977 -0.00983085 ) 4
( 0.139541 0.0520541 0.0197538 ) 20
( 0.0153468 0.0178926 0.0172221 ) 6
( 0.117292 0.0783598 0.0295232 ) 28
( 0.131582 0.0202908 0.0366436 ) 10
( 0.20322 0.0367985 0.0171767 ) 13
( 0.213529 0.0533378 0.0213766 ) 22
( 0.0097538 0.0744866 0.0216505 ) 24
( 0.205864 0.0517832 0.00325335 ) 1
( 0.098518 0.0899652 0.0300128 ) 27
( 0.110355 0.0153361 0.0251565 ) 9
( 0.200693 0.0268273 0.0339915 ) 13
( 0.239049 0.0359291 0.0164392 ) 14
( 0.145771 0.073082 0.0167174 ) 29
( 0.0913344 0.0633043 0.0383165 ) 18
( 0.19089 0.090224 0.00140837 ) 3
( 0.159367 0.0557185 0.0209476 ) 20
( 0.0195783 0.0901905 0.0281091 ) 24
( 0.215846 0.0868319 0.0211584 ) 31
( 0.231288 0.0529296 0.00302877 ) 2
( 0.223968 0.0278346 0.0261612 ) 14
( 0.130269 0.0900918 0.0197412 ) 28
( 0.173104 0.0901671 -0.00752754 ) 3
( 0.00980353 0.019386 0.0360499 ) 6
( 0.231075 0.0491142 0.0302339 ) 23
( 0.196453 0.0901829 0.0218793 ) 31
( 0.0372286 0.0513257 0.0196018 ) 16
( 0.0681772 0.0502411 0.0210494 ) 17
( 0.0796525 0.0838145 0.0312415 ) 26
( 0.240063 0.0166293 0.0122603 ) 0
( 0.194965 0.0703219 0.0223899 ) 22
( 0.14913 0.0902462 0.0258481 ) 29
( 0.15054 0.0258043 0.0271674 ) 11
( 0.208019 0.0902325 -0.00845276 ) 4
( 0.242797 0.0903363 -0.00351665 ) 5
( 0.091895 0.0724139 0.020688 ) 27
( 0.0387236 0.0897084 0.0242763 ) 25
( 0.0185876 0.0568256 0.0224895 ) 15
( 0.227426 0.0748779 0.0317158 ) 32
( 0.00988342 0.0380813 0.0292106 ) 6
( 0.22426 0.0901008 0.00351245 ) 5
( 0.235928 0.064099 0.018207 ) 23
( 0.127057 0.0669964 0.017505 ) 19
( 0.197554 0.0504661 0.0327275 ) 22
( 0.184919 0.0289019 0.0172714 ) 12
( 0.0761408 0.0319766 0.0213967 ) 8
( 0.247428 0.0754177 0.0297669 ) 32
( 0.0515141 0.0535112 0.0329489 ) 16
( 0.166551 0.0380967 0.025555 ) 11
( 0.0535294 0.015131 0.0537 ) 34
( 0.0882152 0.0318562 0.0573634 ) 36
( 0.167001 0.0675946 0.0423183 ) 21
( 0.113029 0.0418006 0.0190819 ) 10
( 0.0489462 0.0320253 0.0627484 ) 34
( 0.208003 0.0547367 0.0521064 ) 49
( 0.028916 0.0595353 0.0546114 ) 43
( 0.124489 0.0558191 0.0552279 ) 46
( 0.181312 0.0274181 0.0571819 ) 39
( 0.175501 0.090011 0.0532119 ) 57
( 0.0313934 0.0403561 0.0591835 ) 34
( 0.0712674 0.0596228 0.0589076 ) 44
( 0.104686 0.0219053 0.0623836 ) 36
( 0.10794 0.0804492 0.0593256 ) 54
( 0.105659 0.0594437 0.0601597 ) 45
( 0.0552518 0.0890409 0.0561019 ) 52
( 0.150188 0.0695963 0.0569442 ) 47
( 0.131919 0.0398898 0.0639912 ) 37
( 0.0208384 0.0793699 0.0569343 ) 51
( 0.179534 0.0552286 0.0554331 ) 48
( 0.139495 0.0214698 0.0647904 ) 38
( 0.0701157 0.039905 0.0587112 ) 35
( 0.134352 0.0900962 0.0589273 ) 55
( 0.238035 0.0470025 0.0496699 ) 50
( 0.00988118 0.0170455 0.0644288 ) 33
( 0.228734 0.0874356 0.0565234 ) 59
( 0.207342 0.0760574 0.0524635 ) 58
( 0.0839714 0.0891509 0.0658837 ) 54
( 0.148745 0.0490432 0.0575534 ) 47
( 0.15882 0.0901064 0.0674398 ) 56
( 0.00971782 0.0635745 0.0595458 ) 42
( 0.0954309 0.0378809 0.074407 ) 63
( 0.249173 0.0175539 0.0549351 ) 41
( 0.192195 0.0653203 0.044613 ) 48
( 0.044655 0.0527139 0.0697256 ) 43
( 0.084284 0.0736492 0.053561 ) 54
( 0.225117 0.0609803 0.0449332 ) 50
( 0.112942 0.0906119 0.0436155 ) 55
( 0.196864 0.0513923 0.0680188 ) 49
( 0.129569 0.0724605 0.0458565 ) 55
( 0.166193 0.090388 0.0357082 ) 29
( 0.0614916 0.0167507 0.0732808 ) 62
( 0.0381102 0.0831483 0.0468757 ) 52
( 0.229254 0.0180673 0.0603703 ) 41
( 0.199167 0.020235 0.052363 ) 40
( 0.211752 0.035156 0.0549435 ) 40
( 0.164597 0.0372143 0.0612779 ) 38
( 0.105882 0.0260113 0.0412837 ) 9
( 0.0215597 0.0251597 0.0509784 ) 33
( 0.013596 0.0394942 0.0679124 ) 33
( 0.166393 0.0246313 0.0445158 ) 38
( 0.0438756 0.0708461 0.0614516 ) 43
( 0.249387 0.0573711 0.0374744 ) 23
( 0.0569061 0.0665156 0.0471957 ) 44
( 0.110851 0.0641891 0.0419125 ) 18
( 0.00975407 0.0903025 0.0449865 ) 51
( 0.216704 0.0898154 0.040814 ) 31
( 0.094083 0.0902498 0.0491186 ) 54
( 0.248877 0.0458913 0.0690082 ) 50
( 0.170957 0.0719429 0.0607792 ) 57
( 0.0310764 0.0651462 0.0358832 ) 16
( 0.178685 0.0560384 0.0314346 ) 21
( 0.151896 0.0549232 0.0391164 ) 20
( 0.0737193 0.0901354 0.0489947 ) 53
( 0.0637166 0.0297146 0.0431336 ) 35
( 0.0260259 0.0464201 0.0391755 ) 15
( 0.0431238 0.0320757 0.0438957 ) 34
( 0.122823 0.0336751 0.0479459 ) 37
( 0.148285 0.0306261 0.0499787 ) 38
( 0.151546 0.0902384 0.0490149 ) 56
( 0.182457 0.0332915 0.0363427 ) 12
( 0.125814 0.0728883 0.0652856 ) 55
( 0.209274 0.0666526 0.0352638 ) 22
( 0.08861 0.0514969 0.0540731 ) 45
( 0.19691 0.090075 0.0417194 ) 31
( 0.106113 0.0403651 0.0559335 ) 36
( 0.116695 0.047231 0.0742363 ) 73
( 0.246932 0.0788201 0.0569519 ) 59
( 0.0859542 0.0707558 0.0730912 ) 72
( 0.246167 0.03727 0.03467 ) 14
( 0.0122974 0.0605712 0.0405552 ) 15
( 0.215114 0.0642648 0.072607 ) 76
( 0.22849 0.0304448 0.0452726 ) 41
( 0.121458 0.0251754 0.0721723 ) 64
( 0.0831173 0.0277169 0.0390558 ) 8
( 0.193455 0.0707868 0.0657244 ) 48
( 0.134364 0.0903009 0.0390239 ) 28
( 0.181968 0.0788491 0.034728 ) 30
( 0.236398 0.0905706 0.0384514 ) 32
( 0.0275046 0.0631451 0.0738448 ) 69
( 0.180154 0.0152962 0.0734117 ) 66
( 0.0533929 0.0474515 0.05147 ) 43
( 0.0537113 0.0904729 0.0367219 ) 25
( 0.0638029 0.0502696 0.0743243 ) 71
( 0.0724952 0.0512249 0.0412578 ) 17
( 0.0490451 0.0166349 0.03306 ) 7
( 0.241126 0.0174573 0.0370462 ) 14
( 0.034811 0.0902473 0.0651819 ) 52
( 0.214261 0.041157 0.0367492 ) 13
( 0.15806 0.0589907 0.0717757 ) 74
( 0.127444 0.0556382 0.0353542 ) 19
( 0.148822 0.0743259 0.037677 ) 29
( 0.210072 0.0837931 0.0703624 ) 58
( 0.134791 0.0571985 0.0734457 ) 73
( 0.0105353 0.0900329 0.0702572 ) 51
( 0.00967363 0.0408281 0.0487154 ) 33
( 0.0274413 0.0229683 0.0734095 ) 60
( 0.193713 0.0900683 0.0611857 ) 57
( 0.238217 0.07438 0.0761129 ) 86
( 0.143158 0.0790967 0.0728697 ) 83
( 0.100865 0.0205616 0.0816374 ) 63
( 0.168222 0.0444573 0.043686 ) 48
( 0.148917 0.0366342 0.0727026 ) 65
( 0.0660036 0.0744976 0.0704633 ) 53
( 0.101863 0.09002 0.0759432 ) 81
( 0.211665 0.0360327 0.0741763 ) 67
( 0.0864768 0.0310605 0.0905556 ) 63
( 0.193294 0.0417112 0.0506473 ) 39
( 0.175033 0.0488539 0.0730624 ) 75
( 0.0727297 0.0192045 0.0572164 ) 35
( 0.00953085 0.0562625 0.0774667 ) 69
( 0.165797 0.0755668 0.0789786 ) 83
( 0.188619 0.0344964 0.0740746 ) 66
( 0.0930335 0.0551968 0.0830202 ) 72
( 0.244306 0.0428676 0.0903135 ) 77
( 0.121601 0.0901482 0.0740396 ) 82
( 0.0771545 0.0291482 0.0735922 ) 62
( 0.0426765 0.0732161 0.0810334 ) 79
( 0.0510315 0.0371144 0.0814504 ) 61
( 0.109127 0.0703017 0.0756871 ) 72
( 0.229055 0.0402319 0.0658399 ) 41
( 0.0226476 0.0734115 0.0901445 ) 78
( 0.169632 0.0309448 0.0794966 ) 66
( 0.0296829 0.0433657 0.0787571 ) 70
( 0.110387 0.0369854 0.0901098 ) 63
( 0.201919 0.0578313 0.0861103 ) 76
( 0.235748 0.0627765 0.0609303 ) 50
( 0.0765101 0.073889 0.090197 ) 80
( 0.164967 0.0149643 0.0903538 ) 65
( 0.198298 0.0771654 0.0846308 ) 85
( 0.00973901 0.0260355 0.0818212 ) 60
( 0.227571 0.0905276 0.0760375 ) 86
( 0.183173 0.0647872 0.0815353 ) 75
( 0.147808 0.0528377 0.0877681 ) 74
( 0.23382 0.0546173 0.0785629 ) 77
( 0.0516815 0.0903159 0.0751646 ) 79
( 0.130577 0.0671961 0.0901291 ) 73
( 0.0602745 0.0611952 0.0902435 ) 71
( 0.233221 0.0279704 0.0808184 ) 68
( 0.0711411 0.0904658 0.0805005 ) 80
( 0.140567 0.0900595 0.0901039 ) 83
( 0.0100382 0.0900249 0.0901332 ) 78
( 0.135366 0.0289855 0.0858727 ) 64
( 0.201271 0.0203842 0.0799064 ) 67
( 0.180602 0.0438304 0.0906851 ) 75
( 0.177877 0.0902342 0.0728881 ) 84
( 0.201301 0.038638 0.0904766 ) 67
( 0.0746153 0.047033 0.0903463 ) 71
( 0.149816 0.0724667 0.0902678 ) 83
( 0.0399123 0.0558607 0.0902353 ) 70
( 0.115037 0.0813829 0.0905283 ) 82
( 0.223858 0.0667717 0.0903297 ) 77
( 0.111389 0.0573556 0.0903327 ) 73
( 0.0373809 0.0900364 0.0901454 ) 79
( 0.0359564 0.0284887 0.0904088 ) 61
( 0.185297 0.0242017 0.0904911 ) 66
( 0.21194 0.0901901 0.0902817 ) 85
( 0.153894 0.0342601 0.0908885 ) 65
( 0.11814 0.0186468 0.0905956 ) 64
( 0.249875 0.0705157 0.0908255 ) 77
( 0.160607 0.0901323 0.0905259 ) 83
( 0.128794 0.0472924 0.0901194 ) 73
( 0.0662266 0.0283213 0.090328 ) 62
( 0.243213 0.0900458 0.0901249 ) 86
( 0.221394 0.0406198 0.0904403 ) 67
( 0.217796 0.0208329 0.0908046 ) 67
( 0.166652 0.0585928 0.0902431 ) 74
( 0.0138254 0.0429225 0.0907365 ) 69
( 0.0578004 0.0808352 0.090822 ) 80
( 0.0881983 0.0902197 0.0902865 ) 81
( 0.180183 0.0821822 0.0905618 ) 84
( 0.0971496 0.0726894 0.090669 ) 81
)
