/*--------------------------------*- C++ -*----------------------------------*\
| =========                 |                                                 |
| \\      /  F ield         | OpenFOAM: The Open Source CFD Toolbox           |
|  \\    /   O peration     | Version:  4.x                                   |
|   \\  /    A nd           | Web:      www.OpenFOAM.org                      |
|    \\/     M anipulation  |                                                 |
\*---------------------------------------------------------------------------*/
FoamFile
{
    version     2.0;
    format      ascii;
    class       volScalarField;
    location    "53.5";
    object      pSmooth;
}
// * * * * * * * * * * * * * * * * * * * * * * * * * * * * * * * * * * * * * //

dimensions      [1 -1 -2 0 0 0 0];

internalField   nonuniform List<scalar> 
114
(
74.3684
95.0707
56.0983
88.0651
37.4041
81.3034
109.13
92.1345
102.414
74.5834
95.5073
56.4858
88.5538
38.0407
81.7482
108.717
91.9202
102.018
74.3267
95.097
56.2436
88.1601
37.7021
81.3547
108.44
91.828
101.813
74.2912
94.9419
56.3473
88.0846
38.0223
81.3405
56.2764
88.6313
37.3788
81.6784
109.968
92.667
103.239
74.843
96.2242
56.626
89.1773
37.9455
82.1947
109.517
92.3399
102.678
74.4555
95.5742
56.2204
88.477
37.5323
81.5671
109.097
92.167
102.337
74.4044
95.3245
56.3128
88.3376
37.8206
81.5312
37.9833
81.6762
110.845
93.1792
103.976
75.5341
96.6955
57.5648
89.2588
39.2951
81.7876
110.424
93.0052
103.599
75.1681
96.3556
57.051
89.1786
38.5927
82.0179
109.959
92.7319
103.085
74.9986
95.9323
57.0997
88.8094
38.6764
81.8973
111.455
93.6574
104.336
75.6491
96.918
57.4884
89.4715
39.2282
110.825
93.183
103.647
75.1745
96.2049
56.8402
88.7788
110.321
92.9649
103.265
75.0974
95.9394
56.8701
)
;

boundaryField
{
    inlet
    {
        type            zeroGradient;
    }
    outlet
    {
        type            fixedValue;
        value           nonuniform 0();
    }
    wall
    {
        type            zeroGradient;
    }
    procBoundary2to0
    {
        type            processor;
        value           nonuniform List<scalar> 
44
(
74.4897
95.3294
56.3714
88.3751
38.0616
81.6181
108.742
91.9201
102.102
102.102
74.7003
95.8913
56.652
89.1382
38.0945
82.2183
109.769
92.3535
102.94
74.7003
95.8913
95.8913
56.6839
88.8047
38.3867
81.8432
110.683
92.9773
103.666
75.1121
96.2563
56.6839
88.8047
88.8047
38.7654
82.0076
111.245
93.5508
104.167
75.4989
96.6282
57.2832
89.1032
38.7654
)
;
    }
    procBoundary2to3
    {
        type            processor;
        value           nonuniform List<scalar> 
12
(
18.3467
19.6059
18.7572
19.2935
18.2776
19.5157
18.4867
19.0636
19.3006
21.4628
19.9821
20.1675
)
;
    }
    procBoundary2to6
    {
        type            processor;
        value           nonuniform List<scalar> 
32
(
82.1451
38.1188
81.6132
88.6536
38.4285
81.6372
112.121
93.9124
104.833
76.3924
97.1223
58.405
89.2119
82.1451
38.1188
40.6457
111.49
93.6501
104.372
75.8718
96.9401
57.6515
38.1188
88.6536
89.4828
110.904
93.39
103.84
75.7846
96.5673
88.6536
57.6155
)
;
    }
}


// ************************************************************************* //
