/*--------------------------------*- C++ -*----------------------------------*\
| =========                 |                                                 |
| \\      /  F ield         | OpenFOAM: The Open Source CFD Toolbox           |
|  \\    /   O peration     | Version:  4.x                                   |
|   \\  /    A nd           | Web:      www.OpenFOAM.org                      |
|    \\/     M anipulation  |                                                 |
\*---------------------------------------------------------------------------*/
FoamFile
{
    version     2.0;
    format      ascii;
    class       volVectorField;
    location    "53.5";
    object      Us;
}
// * * * * * * * * * * * * * * * * * * * * * * * * * * * * * * * * * * * * * //

dimensions      [0 1 -1 0 0 0 0];

internalField   nonuniform List<vector> 
114
(
(6.69193e-10 -4.07771e-11 4.33892e-12)
(9.09825e-10 -1.4195e-10 1.28746e-10)
(1.11071e-09 -2.08941e-10 7.5167e-11)
(1.37197e-09 -2.0646e-10 2.55295e-10)
(1.73634e-09 -1.08811e-09 8.04152e-10)
(1.93332e-09 -1.73243e-09 1.01367e-09)
(4.37117e-10 1.3996e-11 -3.23713e-11)
(2.6067e-10 7.12931e-11 -2.07822e-11)
(4.62155e-10 -1.3442e-12 -1.95121e-11)
(5.83418e-10 -6.4221e-11 -2.7243e-11)
(7.37949e-10 -1.83957e-10 -5.55268e-12)
(1.04149e-09 -2.56987e-10 -3.38743e-11)
(1.40576e-09 -5.08169e-10 8.03175e-11)
(1.44396e-09 -9.14773e-10 2.26099e-10)
(1.41907e-09 -1.1522e-09 5.61448e-10)
(8.121e-11 1.49671e-11 -2.34075e-11)
(1.58612e-10 4.18695e-11 -4.43649e-11)
(3.64046e-10 1.46223e-11 1.29489e-11)
(5.28054e-10 -4.39135e-11 3.8769e-11)
(6.92127e-10 -1.39009e-10 4.05539e-11)
(7.82065e-10 -2.61741e-10 -2.03433e-11)
(9.99812e-10 -1.83744e-10 1.28403e-10)
(1.18817e-09 -7.09009e-10 2.68394e-10)
(1.25661e-09 -8.09323e-10 3.95125e-10)
(6.32292e-11 -9.89583e-12 9.14264e-12)
(4.4986e-11 -4.70155e-12 -9.71101e-12)
(1.83654e-10 2.33098e-12 1.28559e-10)
(1.71777e-10 -9.19824e-11 -4.335e-12)
(4.35621e-10 -1.46054e-10 -1.02079e-10)
(3.91018e-10 -1.07891e-10 -1.17709e-10)
(5.67163e-10 -1.1188e-10 1.30888e-10)
(6.9983e-10 -3.31582e-10 8.85277e-11)
(6.92373e-10 -4.44877e-10 2.23501e-10)
(8.02354e-10 -8.25256e-11 7.92828e-11)
(9.03513e-10 4.03815e-11 2.51875e-10)
(1.23563e-09 -4.81757e-10 6.49102e-10)
(1.36632e-09 -7.48948e-10 9.82067e-10)
(8.93504e-11 8.33754e-11 -2.6793e-11)
(2.62511e-10 1.12303e-10 -2.60279e-11)
(4.31659e-10 5.0236e-11 -4.13788e-11)
(5.13767e-10 -3.42557e-11 -3.05101e-11)
(6.04532e-10 -1.26028e-10 -2.30827e-11)
(8.16106e-10 -7.54133e-11 -9.91937e-11)
(1.06849e-09 -1.46815e-10 4.55739e-11)
(1.14122e-09 -3.93103e-10 2.08791e-10)
(1.32509e-09 -6.8132e-10 4.47603e-10)
(9.11106e-11 2.90716e-11 -4.65719e-11)
(1.84334e-10 3.31098e-11 -5.45693e-11)
(3.28273e-10 8.42813e-12 -6.54837e-11)
(4.17946e-10 -1.18057e-12 -2.72832e-11)
(5.04196e-10 -1.0413e-10 -1.14997e-10)
(6.11664e-10 -1.65201e-10 -2.59553e-11)
(7.81845e-10 -2.13949e-10 5.57686e-11)
(8.71487e-10 -3.1144e-10 2.17771e-10)
(1.04319e-09 -4.76999e-10 2.61245e-10)
(4.21841e-11 -3.43815e-12 -1.95069e-11)
(1.01356e-10 -7.40468e-12 -4.11452e-11)
(1.90061e-10 -1.95709e-11 -5.37059e-11)
(2.52842e-10 -1.98432e-12 -4.56129e-11)
(3.24787e-10 -4.67386e-11 -1.86146e-10)
(3.13942e-10 -9.05885e-11 -3.81523e-11)
(4.13628e-10 -1.17936e-10 7.17766e-11)
(5.24595e-10 -1.53837e-10 4.80571e-11)
(5.0385e-10 -1.13588e-10 9.76869e-11)
(7.04737e-10 2.83111e-10 7.2504e-10)
(8.4886e-10 1.85113e-10 1.13014e-09)
(8.65974e-11 7.11611e-11 1.82639e-11)
(1.85794e-10 4.7878e-11 2.15689e-11)
(3.28086e-10 1.84817e-11 -4.58157e-12)
(3.50853e-10 -1.29849e-11 1.86004e-11)
(4.54771e-10 -5.64828e-11 2.84384e-11)
(5.599e-10 6.27121e-11 1.07292e-11)
(6.48813e-10 8.24709e-11 1.465e-10)
(8.27386e-10 6.977e-11 2.72311e-10)
(9.97339e-10 -5.61733e-11 3.07786e-10)
(6.12409e-11 4.36286e-11 4.53809e-12)
(1.22467e-10 1.10759e-11 4.67228e-12)
(2.33028e-10 2.62017e-11 -1.23288e-11)
(2.4495e-10 2.7766e-11 9.11192e-12)
(3.59097e-10 -1.12714e-11 -1.76722e-11)
(4.42193e-10 -3.30866e-11 1.19989e-11)
(5.54866e-10 -9.42835e-11 1.01282e-10)
(7.01108e-10 -7.40381e-12 1.72988e-10)
(8.97014e-10 -7.47712e-11 1.33501e-10)
(4.22698e-11 -1.38992e-11 -1.07816e-11)
(8.39754e-11 -1.36546e-11 -2.32739e-11)
(1.14246e-10 -1.78958e-11 -2.76583e-11)
(1.935e-10 -1.41247e-11 -4.1474e-11)
(2.44121e-10 -4.3616e-11 -5.64469e-11)
(2.3216e-10 -5.85919e-11 -4.17801e-12)
(3.18696e-10 -8.28469e-11 2.23934e-11)
(4.00714e-10 -1.14579e-10 8.58738e-11)
(5.37891e-10 -4.48187e-11 7.24451e-11)
(8.29222e-11 5.46775e-11 2.63715e-11)
(2.06822e-10 2.00165e-11 4.3463e-11)
(3.10019e-10 -1.89414e-11 2.21884e-11)
(3.32613e-10 -1.65155e-11 1.05029e-11)
(4.50134e-10 2.63275e-11 3.67361e-11)
(5.25269e-10 7.24451e-11 6.98398e-11)
(6.78321e-10 2.35919e-10 1.69933e-10)
(9.62788e-10 3.19811e-10 2.38628e-10)
(4.26939e-11 4.2294e-11 1.03929e-11)
(1.54867e-10 3.67985e-12 2.61482e-11)
(2.03336e-10 3.50285e-12 2.45427e-11)
(2.51523e-10 -5.35774e-12 1.55296e-11)
(3.37281e-10 -2.66518e-11 6.83118e-12)
(3.99753e-10 2.78901e-11 4.30164e-11)
(4.81373e-10 -5.1927e-12 1.21119e-10)
(2.17204e-11 -1.9893e-11 -3.93213e-12)
(6.31038e-11 -3.33644e-11 -2.14017e-11)
(1.26506e-10 -1.37396e-11 -1.09938e-11)
(1.14624e-10 -3.44719e-11 -1.57534e-11)
(2.04042e-10 -3.71646e-11 -7.14572e-12)
(1.73099e-10 -2.95392e-11 1.60971e-12)
)
;

boundaryField
{
    inlet
    {
        type            zeroGradient;
    }
    outlet
    {
        type            zeroGradient;
    }
    wall
    {
        type            zeroGradient;
    }
    procBoundary2to0
    {
        type            processor;
        value           nonuniform List<vector> 
44
(
(9.54193e-10 -2.57013e-10 1.64912e-11)
(9.55455e-10 -4.44855e-10 3.57245e-11)
(8.55207e-10 -2.16723e-10 1.10041e-10)
(1.11698e-09 -1.02094e-10 3.60768e-10)
(1.70198e-09 -7.59061e-10 1.1603e-09)
(1.92381e-09 -1.6729e-09 1.8228e-09)
(1.65403e-10 3.39169e-10 6.65234e-11)
(4.26976e-10 2.24532e-10 3.80165e-11)
(5.65743e-10 9.44151e-11 1.36616e-11)
(5.65743e-10 9.44151e-11 1.36616e-11)
(6.82969e-10 -2.5804e-11 1.19314e-11)
(7.51966e-10 -1.15848e-10 4.62243e-11)
(7.54733e-10 -1.50502e-10 4.85478e-11)
(7.10028e-10 -4.86295e-11 3.95022e-10)
(5.77703e-10 -2.38459e-11 1.21518e-09)
(8.9369e-10 1.99553e-12 2.44153e-09)
(1.58451e-10 2.36242e-10 8.97626e-11)
(3.83127e-10 2.38269e-10 6.02425e-11)
(5.81273e-10 1.68834e-10 4.80962e-11)
(6.82969e-10 -2.5804e-11 1.19314e-11)
(7.51966e-10 -1.15848e-10 4.62243e-11)
(7.51966e-10 -1.15848e-10 4.62243e-11)
(6.18139e-10 6.92914e-11 1.15665e-10)
(6.17293e-10 3.47538e-10 3.39902e-10)
(-2.61796e-10 7.40352e-10 1.1815e-09)
(-7.88411e-10 2.16654e-09 2.79956e-09)
(9.42322e-11 1.29491e-10 9.5009e-11)
(2.88446e-10 1.08247e-10 1.1078e-10)
(4.38813e-10 8.07499e-11 8.58467e-11)
(4.65504e-10 -5.57957e-12 6.23502e-11)
(6.11825e-10 -2.88375e-11 7.16346e-11)
(6.18139e-10 6.92914e-11 1.15665e-10)
(6.17293e-10 3.47538e-10 3.39902e-10)
(6.17293e-10 3.47538e-10 3.39902e-10)
(5.28168e-10 6.44612e-10 6.83901e-10)
(9.13439e-10 4.51969e-10 8.09053e-10)
(7.63356e-11 7.70768e-11 7.883e-11)
(2.52928e-10 6.85731e-11 9.65269e-11)
(4.36364e-10 7.20263e-11 6.35973e-11)
(6.71374e-10 9.6621e-11 8.021e-11)
(8.07888e-10 1.68612e-10 1.76005e-10)
(7.60275e-10 1.68554e-10 1.89404e-10)
(7.16152e-10 5.03046e-10 3.48924e-10)
(5.28168e-10 6.44612e-10 6.83901e-10)
)
;
    }
    procBoundary2to3
    {
        type            processor;
        value           nonuniform List<vector> 
12
(
(1.85823e-09 -2.9904e-09 1.29783e-09)
(1.34652e-09 -1.20667e-09 5.11982e-10)
(1.1652e-09 -3.72298e-10 1.1736e-10)
(5.83471e-10 -3.09801e-10 1.47783e-10)
(1.68696e-09 -1.73769e-09 1.12095e-09)
(1.35283e-09 -7.6104e-10 4.3963e-10)
(1.11517e-09 -4.0779e-10 2.13075e-10)
(7.02401e-10 -8.47836e-11 1.73703e-10)
(1.36589e-09 8.87983e-12 1.02577e-09)
(1.24848e-09 -1.71317e-10 4.42598e-10)
(1.12812e-09 -1.76306e-10 1.68462e-10)
(6.83951e-10 -1.95563e-10 6.81279e-11)
)
;
    }
    procBoundary2to6
    {
        type            processor;
        value           nonuniform List<vector> 
32
(
(1.11565e-09 3.96586e-10 2.70622e-10)
(7.29963e-10 1.63836e-10 1.34925e-10)
(9.47212e-10 9.4413e-11 8.57389e-11)
(1.89085e-10 -1.39469e-11 1.24549e-11)
(3.7166e-10 3.40836e-11 6.14967e-11)
(2.98967e-10 -4.38305e-11 -6.53426e-12)
(9.47484e-11 -5.52414e-12 1.23742e-11)
(2.00887e-10 -2.35782e-11 2.19257e-11)
(2.67665e-10 -5.00144e-11 -1.63618e-11)
(3.7886e-10 -3.49765e-11 3.85005e-12)
(5.61233e-10 1.96882e-12 8.28503e-11)
(6.72599e-10 7.48671e-11 2.37232e-11)
(7.44378e-10 2.07288e-10 5.46631e-11)
(1.11565e-09 3.96586e-10 2.70622e-10)
(7.29963e-10 1.63836e-10 1.34925e-10)
(8.49584e-10 2.1671e-10 1.22797e-10)
(8.83749e-11 2.60927e-11 -1.97103e-11)
(1.08749e-10 -7.92522e-12 -1.56668e-11)
(1.73729e-10 -4.10801e-12 -1.15603e-11)
(2.06338e-10 -2.21414e-11 -4.11733e-12)
(2.93514e-10 -5.77228e-11 3.96786e-11)
(3.42754e-10 8.53308e-12 2.87591e-11)
(7.29963e-10 1.63836e-10 1.34925e-10)
(1.89085e-10 -1.39469e-11 1.24549e-11)
(6.09036e-10 8.58321e-11 1.07265e-10)
(2.27535e-11 -6.27555e-12 -6.27865e-12)
(4.3235e-11 -5.15307e-11 -2.27757e-11)
(6.78833e-11 -2.78165e-11 -1.79563e-11)
(8.86483e-11 -4.30345e-11 -1.79077e-11)
(1.13589e-10 -4.02669e-11 -9.50401e-12)
(1.89085e-10 -1.39469e-11 1.24549e-11)
(1.48991e-10 -3.44214e-11 7.08733e-12)
)
;
    }
}


// ************************************************************************* //
