/*--------------------------------*- C++ -*----------------------------------*\
  =========                 |
  \\      /  F ield         | OpenFOAM: The Open Source CFD Toolbox
   \\    /   O peration     | Website:  https://openfoam.org
    \\  /    A nd           | Version:  4.x
     \\/     M anipulation  |
\*---------------------------------------------------------------------------*/
FoamFile
{
    version     2.0;
    format      ascii;
    class       Cloud<passiveParticle>;
    location    0;
    object      positions;
}
// * * * * * * * * * * * * * * * * * * * * * * * * * * * * * * * * * * * * * //

236
(
( 0.250073 -0.0571687 -0.0378277 ) 63
( 0.253197 -0.019066 -0.0428891 ) 45
( 0.252597 -0.0641968 -0.0651124 ) 36
( 0.253633 -0.0738439 -0.0477527 ) 27
( 0.255815 -0.0383555 -0.0386804 ) 72
( 0.250538 -0.0262654 0.00332838 ) 86
( 0.256713 -0.0654561 0.00463591 ) 84
( 0.251447 -0.0232707 -0.0165383 ) 72
( 0.257178 -0.0759977 -0.0139199 ) 81
( 0.252603 -0.0902926 -0.00140967 ) 81
( 0.353426 -0.0660791 -0.0605541 ) 39
( 0.379214 -0.0900704 -0.064422 ) 31
( 0.40219 -0.0526057 -0.0631405 ) 41
( 0.312802 -0.0442514 -0.0461446 ) 38
( 0.416386 -0.08999 -0.0798132 ) 5
( 0.362035 -0.0749455 -0.0398205 ) 58
( 0.302827 -0.0282199 -0.0373148 ) 73
( 0.352875 -0.0311875 -0.0498818 ) 48
( 0.412373 -0.0901967 -0.0422765 ) 59
( 0.445925 -0.0468387 -0.0353723 ) 70
( 0.472066 -0.0451852 -0.0595094 ) 43
( 0.288186 -0.0267679 -0.059761 ) 46
( 0.420449 -0.0900895 -0.060318 ) 33
( 0.447546 -0.0150094 -0.0453342 ) 52
( 0.335502 -0.0577809 -0.0578237 ) 39
( 0.43767 -0.0312938 -0.0633243 ) 51
( 0.300464 -0.0423174 -0.0615534 ) 46
( 0.406651 -0.0246544 -0.0794185 ) 23
( 0.490043 -0.044817 -0.0457636 ) 44
( 0.336912 -0.0761538 -0.065325 ) 30
( 0.406346 -0.0148157 -0.0568091 ) 50
( 0.342991 -0.0546557 -0.0245084 ) 66
( 0.274067 -0.0539882 -0.0587196 ) 36
( 0.478733 -0.0300437 -0.0284052 ) 80
( 0.359127 -0.0145043 -0.0795919 ) 21
( 0.431286 -0.0440249 -0.0494706 ) 42
( 0.341636 -0.0338566 -0.0338562 ) 75
( 0.466889 -0.0214585 -0.0520759 ) 52
( 0.35945 -0.0509868 -0.0722317 ) 12
( 0.362234 -0.050275 -0.0525573 ) 40
( 0.417996 -0.0295281 -0.0464257 ) 51
( 0.418407 -0.0725202 -0.0693051 ) 33
( 0.468616 -0.0739206 -0.0515419 ) 34
( 0.320935 -0.0476788 -0.0718443 ) 11
( 0.333327 -0.0393273 -0.0509156 ) 47
( 0.430107 -0.0585537 -0.036069 ) 69
( 0.437495 -0.0728697 -0.0749235 ) 6
( 0.451563 -0.0901621 -0.0491617 ) 34
( 0.287546 -0.0901697 -0.0680939 ) 28
( 0.399961 -0.0732115 -0.0768051 ) 5
( 0.468136 -0.0412949 -0.0405692 ) 79
( 0.474055 -0.0210236 -0.085987 ) 26
( 0.268664 -0.0224573 -0.0728522 ) 18
( 0.408952 -0.0444882 -0.0800472 ) 14
( 0.401556 -0.0900771 -0.0664311 ) 32
( 0.45313 -0.0190497 -0.0662777 ) 52
( 0.327577 -0.0742822 -0.0418612 ) 56
( 0.410567 -0.0722848 -0.0509503 ) 32
( 0.378731 -0.0676785 -0.0324332 ) 67
( 0.324286 -0.0880681 -0.0751895 ) 2
( 0.339901 -0.04209 -0.0694559 ) 48
( 0.436412 -0.0459147 -0.0767673 ) 15
( 0.270029 -0.0254277 -0.0348922 ) 72
( 0.272709 -0.0863677 -0.0204217 ) 54
( 0.440629 -0.058348 -0.0618009 ) 42
( 0.384519 -0.0609562 -0.0663502 ) 40
( 0.380686 -0.0417052 -0.0342437 ) 76
( 0.409046 -0.0145521 -0.0371395 ) 77
( 0.456025 -0.0797149 -0.069658 ) 34
( 0.295286 -0.0697709 -0.0272325 ) 64
( 0.489847 -0.0756266 -0.0426471 ) 62
( 0.30243 -0.0900996 -0.0444063 ) 28
( 0.379196 -0.0429298 -0.0598114 ) 40
( 0.366618 -0.0276923 -0.0359069 ) 76
( 0.328062 -0.090189 -0.0297945 ) 56
( 0.458185 -0.053047 -0.0835842 ) 16
( 0.479904 -0.0739853 -0.0701198 ) 35
( 0.485331 -0.0614295 -0.0556913 ) 44
( 0.271866 -0.0170143 -0.0539955 ) 45
( 0.413693 -0.0531557 -0.0461117 ) 41
( 0.287558 -0.06675 -0.0658949 ) 37
( 0.381299 -0.0262065 -0.0492978 ) 49
( 0.298303 -0.0168947 -0.0737496 ) 19
( 0.35655 -0.0749364 -0.0780094 ) 3
( 0.347231 -0.0870737 -0.0352068 ) 57
( 0.454327 -0.031584 -0.0843413 ) 25
( 0.483029 -0.0552222 -0.0827724 ) 17
( 0.374355 -0.0224563 -0.0676093 ) 49
( 0.307672 -0.0244722 -0.0561695 ) 47
( 0.271199 -0.0738572 -0.0570529 ) 27
( 0.425596 -0.0155655 -0.0617233 ) 51
( 0.315841 -0.0602853 -0.0574206 ) 38
( 0.439757 -0.0901026 -0.0650568 ) 33
( 0.356577 -0.0868771 -0.0547836 ) 30
( 0.43227 -0.0901839 -0.0443677 ) 33
( 0.276122 -0.0669291 -0.0230795 ) 63
( 0.318146 -0.0900159 -0.0564129 ) 29
( 0.372101 -0.0731033 -0.0567717 ) 31
( 0.467863 -0.0611033 -0.0365273 ) 70
( 0.456198 -0.0531468 -0.0510384 ) 43
( 0.2706 -0.09017 -0.0398144 ) 54
( 0.393413 -0.0275175 -0.0649167 ) 50
( 0.302403 -0.079072 -0.061379 ) 28
( 0.322491 -0.0301508 -0.0362268 ) 74
( 0.268972 -0.0854081 -0.0732471 ) 0
( 0.387983 -0.0577103 -0.0468329 ) 40
( 0.391988 -0.0868518 -0.0277269 ) 59
( 0.490306 -0.0457875 -0.0668305 ) 44
( 0.417947 -0.0339105 -0.065736 ) 51
( 0.48177 -0.0495841 -0.0283504 ) 71
( 0.279875 -0.039245 -0.0467253 ) 46
( 0.490032 -0.0249967 -0.043887 ) 53
( 0.436861 -0.0295428 -0.0370373 ) 78
( 0.453991 -0.0421292 -0.0674481 ) 52
( 0.34097 -0.0223403 -0.0774286 ) 21
( 0.470487 -0.0888359 -0.0822638 ) 7
( 0.476094 -0.0900805 -0.0427051 ) 62
( 0.43653 -0.0901281 -0.0846704 ) 6
( 0.37383 -0.0900094 -0.045267 ) 31
( 0.430513 -0.0716165 -0.0510395 ) 33
( 0.269426 -0.0603968 -0.0405166 ) 63
( 0.451736 -0.0339554 -0.0494241 ) 52
( 0.288777 -0.0569034 -0.0441159 ) 37
( 0.302545 -0.0516051 -0.0307871 ) 64
( 0.393471 -0.090098 -0.0482477 ) 32
( 0.27875 -0.0396259 -0.0716559 ) 19
( 0.39591 -0.0397278 -0.0494739 ) 50
( 0.337236 -0.0903909 -0.0515788 ) 30
( 0.421826 -0.0533861 -0.0650421 ) 42
( 0.32473 -0.0552054 -0.0323929 ) 65
( 0.346062 -0.0634703 -0.0420176 ) 66
( 0.471388 -0.0902158 -0.0624338 ) 34
( 0.269907 -0.0649507 -0.0748616 ) 9
( 0.314783 -0.0705126 -0.0744594 ) 11
( 0.45118 -0.07719 -0.0888131 ) 7
( 0.305763 -0.0705289 -0.0439239 ) 38
( 0.290135 -0.0900806 -0.0289445 ) 55
( 0.396036 -0.0290509 -0.0328761 ) 77
( 0.37212 -0.063124 -0.0817375 ) 13
( 0.388902 -0.0890566 -0.0817775 ) 5
( 0.490061 -0.0319186 -0.0811526 ) 26
( 0.460039 -0.0902599 -0.0313531 ) 61
( 0.356725 -0.0314452 -0.0692937 ) 48
( 0.314232 -0.0290869 -0.0743817 ) 20
( 0.460085 -0.024569 -0.0328142 ) 79
( 0.418544 -0.0740998 -0.032734 ) 60
( 0.490284 -0.0899303 -0.056363 ) 35
( 0.339816 -0.0193714 -0.0146514 ) 75
( 0.297595 -0.0651165 0.0107431 ) 85
( 0.382132 -0.0281209 -0.0187595 ) 76
( 0.454573 -0.0159093 -0.0149517 ) 79
( 0.293111 -0.0901535 -0.00936564 ) 82
( 0.441526 -0.0578232 -0.019686 ) 69
( 0.30108 -0.0291423 -0.0168701 ) 73
( 0.461241 -0.0479939 -0.0232293 ) 70
( 0.289592 -0.0840863 0.0124186 ) 82
( 0.399696 -0.0396843 -0.0147462 ) 77
( 0.276807 -0.0520632 -0.00134462 ) 84
( 0.342455 -0.0900504 -0.0161281 ) 57
( 0.447369 -0.0336293 -0.0204353 ) 79
( 0.368166 -0.0533828 -0.0193743 ) 67
( 0.316258 -0.0412814 -0.0209585 ) 74
( 0.429252 -0.0729957 -0.0160205 ) 60
( 0.272957 -0.0903851 -0.000993537 ) 81
( 0.28743 -0.0513967 -0.0180061 ) 64
( 0.260608 -0.0431885 0.00585412 ) 84
( 0.355073 -0.0308728 -0.0199185 ) 75
( 0.273377 -0.0710901 -0.00393855 ) 84
( 0.292381 -0.0677894 -0.00789755 ) 85
( 0.309281 -0.0902026 -0.0230758 ) 56
( 0.409957 -0.0237853 -0.0198846 ) 77
( 0.30692 -0.0903336 0.00470201 ) 83
( 0.387012 -0.0721921 -0.0150881 ) 58
( 0.267545 -0.0205988 -0.00523929 ) 86
( 0.436526 -0.0156792 -0.0228066 ) 78
( 0.429496 -0.0425114 -0.0239279 ) 78
( 0.325745 -0.0901747 0.0107182 ) 83
( 0.367117 -0.0152065 -0.020587 ) 76
( 0.267908 -0.0415475 -0.0232288 ) 72
( 0.388664 -0.0422306 -0.077369 ) 22
( 0.449975 -0.0708449 -0.045064 ) 43
( 0.284419 -0.076255 -0.0424485 ) 55
( 0.421591 -0.0594463 -0.0840108 ) 15
( 0.304854 -0.0515328 -0.00826076 ) 85
( 0.43944 -0.0188662 -0.0807363 ) 24
( 0.490027 -0.0900361 -0.0762586 ) 8
( 0.323208 -0.0903115 -0.00891441 ) 83
( 0.398882 -0.0696034 -0.0350533 ) 68
( 0.406763 -0.0722212 -0.0170042 ) 59
( 0.264198 -0.0349645 -0.0580587 ) 45
( 0.464406 -0.0619406 -0.066858 ) 43
( 0.481932 -0.0282707 -0.063139 ) 53
( 0.342458 -0.060579 -0.0763494 ) 12
( 0.256024 -0.0900927 -0.0589375 ) 27
( 0.328676 -0.0234626 -0.0618613 ) 47
( 0.44731 -0.0754061 -0.0260548 ) 61
( 0.357755 -0.045337 -0.034019 ) 66
( 0.471738 -0.0393058 -0.0784551 ) 25
( 0.490263 -0.0697227 -0.0238405 ) 71
( 0.41311 -0.0902444 -0.0224567 ) 59
( 0.256059 -0.0567205 -0.018293 ) 63
( 0.334455 -0.0726484 -0.0232328 ) 57
( 0.353982 -0.0748114 -0.0216059 ) 57
( 0.254549 -0.0900424 -0.0275684 ) 54
( 0.286333 -0.034705 -0.0286794 ) 73
( 0.31119 -0.0738144 -0.00533374 ) 83
( 0.315034 -0.0715927 -0.0265592 ) 56
( 0.293626 -0.0461794 0.00706525 ) 85
( 0.471652 -0.0761467 -0.0240563 ) 61
( 0.434891 -0.090405 -0.0248465 ) 60
( 0.335112 -0.0386014 -0.015789 ) 75
( 0.411354 -0.0507808 -0.026488 ) 68
( 0.365287 -0.0901975 -0.0274082 ) 58
( 0.391279 -0.0549827 -0.0238888 ) 68
( 0.293435 -0.0517996 -0.0775917 ) 10
( 0.250149 -0.0799977 -0.0769174 ) 0
( 0.343852 -0.0901405 -0.0785018 ) 3
( 0.440686 -0.0602209 -0.0899607 ) 15
( 0.490037 -0.0733774 -0.0872658 ) 8
( 0.386955 -0.022553 -0.0830933 ) 22
( 0.304651 -0.0895001 -0.0782818 ) 1
( 0.469379 -0.0693289 -0.0863797 ) 16
( 0.424643 -0.0317338 -0.0843718 ) 24
( 0.37002 -0.0377115 -0.0827359 ) 22
( 0.395919 -0.0573353 -0.0880624 ) 14
( 0.32974 -0.0365198 -0.0857925 ) 20
( 0.263496 -0.047377 -0.0818485 ) 9
( 0.296719 -0.0717503 -0.0828664 ) 1
( 0.297646 -0.0336197 -0.0845222 ) 19
( 0.333826 -0.0750933 -0.0869405 ) 3
( 0.286853 -0.0896534 -0.0879806 ) 1
( 0.368985 -0.090057 -0.0816514 ) 4
( 0.322658 -0.0586084 -0.0884154 ) 11
( 0.350464 -0.0399088 -0.0862224 ) 21
( 0.276772 -0.0304666 -0.0892385 ) 18
( 0.310662 -0.0163937 -0.0893767 ) 20
)
