/*--------------------------------*- C++ -*----------------------------------*\
| =========                 |                                                 |
| \\      /  F ield         | OpenFOAM: The Open Source CFD Toolbox           |
|  \\    /   O peration     | Version:  4.x                                   |
|   \\  /    A nd           | Web:      www.OpenFOAM.org                      |
|    \\/     M anipulation  |                                                 |
\*---------------------------------------------------------------------------*/
FoamFile
{
    version     2.0;
    format      ascii;
    class       volVectorField;
    location    "35";
    object      ddtUrel;
}
// * * * * * * * * * * * * * * * * * * * * * * * * * * * * * * * * * * * * * //

dimensions      [0 1 -2 0 0 0 0];

internalField   nonuniform List<vector> 
87
(
(-1.49657e-10 -1.35912e-11 -5.15648e-10)
(2.86639e-10 3.82547e-11 -4.01247e-10)
(1.73997e-10 -1.35049e-11 -4.30733e-10)
(2.88562e-10 3.8745e-11 -3.09002e-10)
(2.25503e-10 1.6903e-11 -3.42411e-10)
(7.42881e-11 -2.38662e-11 -3.59953e-10)
(3.30224e-10 2.71206e-11 -5.82071e-11)
(3.65173e-10 3.21399e-11 -8.11448e-11)
(4.20059e-10 4.23753e-11 -1.26149e-10)
(4.54914e-10 5.49379e-11 -1.77124e-10)
(4.69041e-10 7.03637e-11 -2.39334e-10)
(4.37058e-10 9.05417e-11 -3.04351e-10)
(3.46369e-10 1.03003e-10 -3.58986e-10)
(2.34682e-10 1.15774e-10 -4.02353e-10)
(1.06677e-10 7.77084e-11 -4.20819e-10)
(3.28986e-10 3.91652e-11 -6.39557e-11)
(3.38803e-10 2.79451e-11 -8.32035e-11)
(3.84348e-10 2.88824e-11 -1.19903e-10)
(4.24279e-10 4.12496e-11 -1.62155e-10)
(4.44628e-10 5.55432e-11 -2.14423e-10)
(4.43501e-10 7.4387e-11 -2.70215e-10)
(4.06651e-10 9.42853e-11 -3.19265e-10)
(3.76237e-10 9.40134e-11 -3.54845e-10)
(3.10133e-10 6.3136e-11 -3.69731e-10)
(2.93668e-10 3.02077e-11 -6.18749e-11)
(2.88513e-10 1.5372e-11 -8.0442e-11)
(3.29414e-10 2.11129e-11 -1.07933e-10)
(3.71745e-10 2.70176e-11 -1.45028e-10)
(3.85882e-10 4.07819e-11 -1.86792e-10)
(3.72582e-10 5.71448e-11 -2.33232e-10)
(3.20479e-10 6.86077e-11 -2.78919e-10)
(2.82532e-10 6.01881e-11 -3.1038e-10)
(2.0283e-10 3.59204e-11 -3.24071e-10)
(3.23364e-10 3.19618e-11 -4.99762e-11)
(3.44419e-10 3.6254e-11 -7.25308e-11)
(3.9126e-10 4.31271e-11 -1.13231e-10)
(4.11061e-10 5.62509e-11 -1.51535e-10)
(4.29284e-10 7.56295e-11 -1.96807e-10)
(4.03162e-10 1.08091e-10 -2.43195e-10)
(3.61301e-10 1.47632e-10 -2.90182e-10)
(2.62814e-10 1.85541e-10 -3.32913e-10)
(2.0693e-10 1.59259e-10 -3.39529e-10)
(3.42176e-10 3.82057e-11 -5.18122e-11)
(3.34273e-10 2.87262e-11 -6.99408e-11)
(3.70192e-10 2.9931e-11 -1.009e-10)
(3.941e-10 4.33217e-11 -1.38369e-10)
(4.19456e-10 6.05041e-11 -1.72787e-10)
(4.21812e-10 8.82684e-11 -2.20265e-10)
(4.15043e-10 1.26865e-10 -2.59612e-10)
(3.97671e-10 1.75396e-10 -2.90218e-10)
(3.46531e-10 1.38941e-10 -3.08401e-10)
(3.50041e-10 3.66668e-11 -4.79786e-11)
(2.70542e-10 1.00286e-11 -6.60823e-11)
(3.24079e-10 1.85369e-11 -8.89e-11)
(3.51578e-10 3.16775e-11 -1.23679e-10)
(3.68721e-10 4.82003e-11 -1.55718e-10)
(3.62716e-10 6.82535e-11 -1.94487e-10)
(3.23348e-10 9.30595e-11 -2.30296e-10)
(2.9634e-10 1.07738e-10 -2.59065e-10)
(2.23051e-10 9.70245e-11 -2.80673e-10)
(3.49719e-10 4.36097e-11 -5.41372e-11)
(3.55499e-10 4.62339e-11 -7.03745e-11)
(4.17861e-10 5.06467e-11 -1.00401e-10)
(4.24405e-10 5.78171e-11 -1.32027e-10)
(4.70792e-10 7.75607e-11 -1.68897e-10)
(4.46371e-10 1.19303e-10 -2.06997e-10)
(4.41043e-10 1.821e-10 -2.38534e-10)
(2.98199e-10 2.46265e-10 -2.60231e-10)
(3.21193e-10 2.25065e-10 -2.62389e-10)
(4.13709e-10 6.30751e-11 -4.901e-11)
(3.62107e-10 4.13515e-11 -6.45429e-11)
(3.89594e-10 3.66781e-11 -8.90171e-11)
(3.94048e-10 4.58164e-11 -1.19633e-10)
(4.33564e-10 6.41496e-11 -1.51596e-10)
(4.37152e-10 9.88177e-11 -1.87803e-10)
(4.54827e-10 1.56615e-10 -2.18336e-10)
(3.96531e-10 2.3577e-10 -2.40432e-10)
(4.22405e-10 1.94881e-10 -2.51789e-10)
(4.97795e-10 8.65323e-11 -4.12467e-11)
(3.54322e-10 4.06556e-11 -6.00273e-11)
(3.54636e-10 2.90478e-11 -7.97391e-11)
(3.50366e-10 3.79558e-11 -1.09984e-10)
(3.66055e-10 5.40848e-11 -1.3887e-10)
(3.71199e-10 7.76031e-11 -1.70643e-10)
(3.52242e-10 1.12306e-10 -1.98586e-10)
(2.91815e-10 1.44642e-10 -2.19426e-10)
(2.94446e-10 1.3089e-10 -2.3544e-10)
)
;

boundaryField
{
    inlet
    {
        type            calculated;
        value           nonuniform List<vector> 9((7.50423e-10 -1.74062e-10 -4.48744e-12) (9.3258e-10 1.82266e-10 -4.57292e-11) (1.78999e-10 4.83087e-11 -1.90891e-11) (3.25232e-10 -7.32311e-11 1.40503e-10) (4.22245e-10 2.63294e-11 3.85207e-11) (5.15714e-10 -8.32315e-12 5.66915e-11) (4.04631e-10 -1.2248e-11 3.90609e-11) (9.6639e-10 2.09057e-10 1.66548e-11) (2.20569e-09 4.75637e-10 7.66946e-11));
    }
    outlet
    {
        type            calculated;
        value           nonuniform 0();
    }
    wall
    {
        type            calculated;
        value           nonuniform List<vector> 
57
(
(5.12665e-10 -1.11059e-11 4.03582e-11)
(8.69876e-10 2.00655e-10 1.22984e-11)
(1.69831e-09 4.59556e-10 6.72367e-11)
(3.49857e-10 3.59172e-11 1.22317e-11)
(2.75791e-10 9.09908e-12 -5.93451e-12)
(1.86248e-10 2.34177e-11 -2.31006e-11)
(1.27292e-09 5.09729e-11 -4.98882e-11)
(7.93825e-10 -7.4426e-13 -1.82716e-11)
(6.20933e-10 -2.445e-11 1.73821e-11)
(6.17089e-10 1.21912e-11 -4.18535e-11)
(4.45695e-10 7.18376e-12 -3.29692e-11)
(2.04448e-10 3.82941e-12 -3.1198e-11)
(1.53156e-09 3.56836e-11 -4.89114e-11)
(9.69866e-10 8.58072e-12 -4.0712e-11)
(3.17104e-10 6.1991e-13 -3.58691e-11)
(1.07699e-09 1.48111e-10 -8.87753e-11)
(8.1831e-10 4.68479e-11 -8.30737e-11)
(3.73057e-10 6.71282e-12 -5.7047e-11)
(2.54735e-09 2.83952e-10 -8.2104e-11)
(1.66947e-09 2.34951e-10 -7.40013e-11)
(4.32782e-10 3.54301e-11 -4.11369e-11)
(1.28063e-09 3.81656e-10 -9.62371e-11)
(7.75246e-10 1.04821e-09 -9.83382e-11)
(-6.3229e-11 1.33665e-10 -4.18814e-11)
(2.35606e-09 5.01292e-10 -4.03041e-11)
(2.79734e-09 3.9653e-10 -2.14054e-10)
(1.60211e-09 7.74233e-11 -2.0058e-10)
(1.41765e-11 4.191e-11 -1.75971e-11)
(3.07997e-10 -1.59431e-11 5.23116e-11)
(1.45212e-09 4.5578e-10 6.47838e-11)
(-4.96824e-11 -9.01427e-11 -6.65631e-11)
(-9.25494e-10 -2.8104e-10 -1.92223e-12)
(5.77763e-11 2.10902e-11 -2.41585e-11)
(-2.42637e-11 -1.92229e-11 -7.10526e-11)
(1.08927e-11 -7.95916e-11 2.56519e-11)
(2.7115e-10 -3.03646e-11 1.43818e-11)
(3.04647e-10 -5.38244e-11 -1.03838e-10)
(1.7051e-10 -2.77655e-11 -5.90868e-11)
(1.09056e-10 2.10065e-12 -3.17035e-11)
(3.37539e-10 -2.43897e-11 -9.32218e-11)
(1.07779e-10 -1.03126e-11 -3.86485e-11)
(8.01456e-11 -1.92119e-12 -3.65955e-11)
(2.06051e-10 -4.12658e-12 -1.49422e-10)
(1.52505e-10 -1.79366e-11 -6.89295e-11)
(1.45566e-10 5.90873e-12 -5.74561e-11)
(3.3394e-10 6.19177e-12 -2.43585e-10)
(-5.59704e-10 5.09624e-11 -2.36702e-10)
(-6.18428e-10 2.32928e-11 -1.07705e-10)
(-8.91272e-11 3.25436e-11 -4.5177e-11)
(2.91764e-10 1.92098e-11 -2.31535e-10)
(3.57966e-11 -2.68974e-11 -2.81304e-10)
(-8.06222e-11 6.75167e-12 -1.47473e-10)
(-9.2324e-10 1.34143e-10 -3.81759e-11)
(-7.01041e-10 -5.85312e-11 -3.0642e-10)
(-8.86633e-10 -3.77336e-11 -3.03271e-10)
(-1.51067e-09 5.21004e-11 -3.35683e-10)
(-3.49143e-10 6.35071e-11 -1.83594e-10)
)
;
    }
    procBoundary6to0
    {
        type            processor;
        value           uniform (-8.46952e-10 -6.3458e-11 -6.00154e-10);
    }
    procBoundary6to2
    {
        type            processor;
        value           nonuniform List<vector> 
32
(
(-8.15383e-10 -1.338e-10 -6.12674e-10)
(-1.94198e-11 -3.27374e-11 -4.64748e-10)
(-2.1064e-10 -7.23749e-11 -4.81418e-10)
(1.00711e-10 -7.67636e-12 -3.46395e-10)
(1.40113e-11 -3.47815e-11 -3.71805e-10)
(-1.84076e-10 -6.65626e-11 -3.82292e-10)
(3.311e-10 4.77442e-11 -5.4739e-11)
(3.74645e-10 4.37679e-11 -7.31474e-11)
(4.32773e-10 4.46813e-11 -1.20006e-10)
(4.61249e-10 4.39504e-11 -1.87865e-10)
(4.37944e-10 4.62254e-11 -2.76732e-10)
(3.77598e-10 3.63332e-11 -3.63007e-10)
(2.10186e-10 1.44588e-11 -4.3305e-10)
(4.71833e-11 2.23664e-12 -4.74691e-10)
(4.71833e-11 2.23664e-12 -4.74691e-10)
(4.71833e-11 2.23664e-12 -4.74691e-10)
(3.04845e-10 3.75077e-11 -6.49281e-11)
(3.3488e-10 2.9716e-11 -8.33064e-11)
(3.82193e-10 2.77864e-11 -1.19366e-10)
(4.16616e-10 3.05377e-11 -1.70976e-10)
(4.22615e-10 3.61934e-11 -2.46367e-10)
(3.98119e-10 4.17813e-11 -3.14367e-10)
(3.16737e-10 3.99645e-11 -3.67796e-10)
(3.16737e-10 3.99645e-11 -3.67796e-10)
(3.16737e-10 3.99645e-11 -3.67796e-10)
(2.70636e-10 2.36967e-11 -6.3832e-11)
(2.89363e-10 1.76357e-11 -8.35287e-11)
(3.20384e-10 1.92509e-11 -1.13847e-10)
(3.4354e-10 1.95457e-11 -1.555e-10)
(3.5288e-10 2.48775e-11 -2.11419e-10)
(3.3017e-10 3.01974e-11 -2.62324e-10)
(3.3017e-10 3.01974e-11 -2.62324e-10)
)
;
    }
    procBoundary6to4
    {
        type            processor;
        value           nonuniform List<vector> 
27
(
(2.98563e-10 5.08984e-11 -5.12943e-11)
(3.38472e-10 6.081e-11 -7.94303e-11)
(4.07197e-10 6.92714e-11 -1.38152e-10)
(4.24514e-10 7.78971e-11 -2.08684e-10)
(4.07292e-10 8.40703e-11 -2.79797e-10)
(3.09392e-10 8.17164e-11 -3.44845e-10)
(1.2794e-10 7.26494e-11 -4.16564e-10)
(-9.35981e-11 7.90869e-11 -4.60136e-10)
(-2.96663e-10 3.97596e-11 -4.90068e-10)
(2.92067e-10 4.73752e-11 -6.96218e-11)
(3.18388e-10 5.60207e-11 -8.66657e-11)
(3.73138e-10 6.2579e-11 -1.25239e-10)
(3.85542e-10 7.04412e-11 -1.70727e-10)
(3.83201e-10 8.46782e-11 -2.25492e-10)
(3.0148e-10 1.10063e-10 -2.74499e-10)
(1.78151e-10 1.35262e-10 -3.26769e-10)
(-3.22205e-11 1.67945e-10 -3.56972e-10)
(-1.08283e-10 1.25145e-10 -3.7875e-10)
(3.12325e-10 4.96275e-11 -6.9256e-11)
(3.29287e-10 5.73489e-11 -8.24332e-11)
(4.01261e-10 6.43292e-11 -1.10454e-10)
(4.06105e-10 6.60766e-11 -1.45835e-10)
(4.4621e-10 7.8767e-11 -1.86994e-10)
(3.61047e-10 1.14615e-10 -2.26015e-10)
(2.55139e-10 1.8635e-10 -2.55948e-10)
(-1.25165e-10 3.44825e-10 -2.84388e-10)
(6.77719e-11 2.01566e-10 -3.0473e-10)
)
;
    }
    procBoundary6to7
    {
        type            processor;
        value           nonuniform List<vector> 
12
(
(-3.57835e-10 -5.06245e-11 -4.97575e-10)
(1.00951e-10 -5.18155e-11 -4.06272e-10)
(9.0536e-12 -6.66636e-11 -3.3971e-10)
(-2.55255e-12 4.89129e-11 -4.15357e-10)
(2.3517e-10 3.16867e-11 -3.57683e-10)
(1.4897e-10 1.90198e-12 -3.057e-10)
(9.50319e-11 1.14731e-10 -3.32056e-10)
(2.5936e-10 1.0246e-10 -2.83965e-10)
(1.48994e-10 7.16967e-11 -2.50097e-10)
(1.88497e-10 1.6674e-10 -2.70527e-10)
(3.11283e-10 1.55897e-10 -2.32031e-10)
(1.72515e-10 1.09583e-10 -2.08364e-10)
)
;
    }
}


// ************************************************************************* //
