/*--------------------------------*- C++ -*----------------------------------*\
| =========                 |                                                 |
| \\      /  F ield         | OpenFOAM: The Open Source CFD Toolbox           |
|  \\    /   O peration     | Version:  4.x                                   |
|   \\  /    A nd           | Web:      www.OpenFOAM.org                      |
|    \\/     M anipulation  |                                                 |
\*---------------------------------------------------------------------------*/
FoamFile
{
    version     2.0;
    format      ascii;
    class       volVectorField;
    location    "35";
    object      GField;
}
// * * * * * * * * * * * * * * * * * * * * * * * * * * * * * * * * * * * * * //

dimensions      [1 -2 -1 0 0 0 0];

internalField   nonuniform List<vector> 
87
(
(85.6099 0.525794 0.184247)
(19.8982 1.39797 -1.50904)
(92.5477 2.03937 -0.987916)
(102.08 1.80847 -2.69606)
(47.8745 0.333848 -3.0507)
(104.109 0.64532 -2.39496)
(92.2301 1.3986 -1.87327)
(27.2299 0.897106 -0.599216)
(87.8583 1.69791 -1.45446)
(13.961 0.479646 -0.435926)
(84.7437 1.00493 -1.04167)
(4.29054 0.189923 -0.142857)
(83.5716 -0.142425 -0.850645)
(2.34838e-05 -6.37465e-06 7.05808e-06)
(82.8612 -1.20444 -0.838667)
(94.3257 4.97889 -1.30864)
(30.8357 1.72533 -0.72231)
(91.0912 4.61132 -1.01393)
(21.8357 1.25797 -0.788012)
(88.7656 2.98368 -0.757308)
(13.9032 0.831724 -0.627426)
(87.4775 1.65754 -0.839155)
(6.35202 0.491491 -0.415113)
(86.7824 -0.0193005 -0.763064)
(96.2039 3.24093 -1.65503)
(40.0685 1.5859 -1.09887)
(96.9489 3.4679 -1.68591)
(41.5955 1.23693 -1.68578)
(96.7943 2.55901 -1.67596)
(40.7245 0.94223 -1.69155)
(97.3567 2.34041 -1.48945)
(39.987 0.747702 -1.92589)
(97.7349 1.01475 -1.22735)
(92.9959 2.35636 2.48134)
(30.8398 1.0117 0.626072)
(89.8669 2.61308 2.3297)
(21.4955 0.708152 0.593701)
(88.0881 1.74672 1.6677)
(13.3715 0.167213 0.306512)
(86.8851 0.6549 0.370133)
(5.9336 -0.0530628 0.306823)
(86.3012 0.0416865 -0.607566)
(94.5591 4.91107 2.25071)
(35.9047 2.09756 0.826869)
(93.0932 4.82942 2.62699)
(32.6604 1.47971 0.500263)
(92.2814 3.92204 2.33263)
(29.5191 1.37181 0.307957)
(91.4068 3.22625 1.97369)
(25.1887 1.05675 0.0312763)
(91.512 2.30005 1.02669)
(95.9369 2.72164 1.25584)
(42.4867 1.4181 0.306979)
(98.3028 2.59807 1.32048)
(46.3225 1.05286 0.311813)
(99.4726 1.90438 1.25483)
(48.5173 0.974899 -0.138921)
(101.111 1.58099 0.67204)
(49.6562 0.671311 -0.62511)
(102.654 0.954006 0.208536)
(94.658 2.36115 2.42286)
(39.8324 0.863979 1.06075)
(94.8642 1.88281 2.37583)
(39.3932 0.587979 0.73096)
(94.8729 0.870766 2.09906)
(38.4391 -0.0241646 0.672513)
(94.8227 -0.33575 1.83143)
(35.7536 -0.508274 0.877188)
(96.0783 -0.642511 1.43119)
(95.2772 3.7639 1.76248)
(42.6134 1.79899 0.864937)
(97.2052 3.78018 1.67438)
(45.9799 1.67135 0.54441)
(98.5804 2.89373 1.29978)
(47.895 1.47569 0.665868)
(100.151 2.45827 1.30675)
(48.3789 0.652774 0.330512)
(101.349 1.32308 0.764361)
(96.4141 2.1755 1.231)
(45.5909 1.05965 0.469544)
(100.417 2.06145 1.1358)
(53.0221 1.05348 0.480324)
(104.649 1.52362 0.879918)
(58.4099 0.535646 0.170669)
(107.795 1.06721 0.757788)
(61.8831 0.193463 -0.204224)
(109.343 0.293331 0.0733079)
)
;

boundaryField
{
    inlet
    {
        type            calculated;
        value           uniform (67 0 0);
    }
    outlet
    {
        type            calculated;
        value           nonuniform 0();
    }
    wall
    {
        type            calculated;
        value           uniform (0 0 0);
    }
    procBoundary6to0
    {
        type            processor;
        value           uniform (84.2114 -0.318521 -0.102529);
    }
    procBoundary6to2
    {
        type            processor;
        value           nonuniform List<vector> 
32
(
(90.6649 -0.900767 -1.28034)
(13.6304 0.415623 -1.1098)
(92.3041 1.40501 -0.785675)
(103.66 2.53012 -3.28228)
(49.5363 0.689008 -3.18434)
(106.361 1.57881 -2.51307)
(94.6419 2.11866 -5.76847)
(29.2199 1.20383 -2.38427)
(90.313 2.97136 -4.87771)
(19.3406 0.970189 -1.70264)
(88.0986 2.40471 -3.22465)
(11.839 0.803974 -0.983737)
(86.715 1.40752 -1.35166)
(5.70194 0.553718 -0.692366)
(5.70194 0.553718 -0.692366)
(5.70194 0.553718 -0.692366)
(94.7679 4.59374 -4.79037)
(33.1964 2.13801 -2.30061)
(92.4812 4.79068 -4.17719)
(27.5996 1.57899 -1.9825)
(91.4638 4.07251 -3.23377)
(23.1298 1.36248 -1.47683)
(91.4285 3.25737 -1.90563)
(91.4285 3.25737 -1.90563)
(91.4285 3.25737 -1.90563)
(96.3774 3.05607 -4.42958)
(40.6813 1.54875 -2.72818)
(98.0871 3.12668 -4.52297)
(43.5838 1.29186 -3.18168)
(99.9536 2.56284 -4.16287)
(46.069 1.02653 -2.5334)
(46.069 1.02653 -2.5334)
)
;
    }
    procBoundary6to4
    {
        type            processor;
        value           nonuniform List<vector> 
27
(
(94.3645 -1.52742 -1.60236)
(29.4461 -0.269612 -0.45674)
(88.8122 -1.15374 -0.582964)
(17.1929 -0.486638 -0.335134)
(85.8577 -1.06398 -0.0122226)
(6.86832 -0.260995 0.0678047)
(84.5287 -0.0697055 -0.0637608)
(0.123878 -0.00764248 0.00504213)
(84.7977 0.0360832 -0.347656)
(93.6559 -1.03731 1.3206)
(31.399 0.0476806 1.07274)
(90.1381 -0.27111 2.54527)
(22.1718 -0.0343008 0.752637)
(87.8983 -0.256846 2.61741)
(15.3612 -0.250624 0.835298)
(87.4812 -0.344434 2.3323)
(10.5918 -0.221038 0.621652)
(88.3636 -0.252717 0.534197)
(93.4289 -0.439406 1.74691)
(38.1071 -0.166565 1.18194)
(93.9083 -0.712546 2.50051)
(37.6597 -0.481778 1.09736)
(94.6972 -0.841177 2.34784)
(38.9391 -0.738404 1.11393)
(97.1807 -1.13063 2.42182)
(41.9002 -0.800469 0.655822)
(99.7601 -1.35389 1.39998)
)
;
    }
    procBoundary6to7
    {
        type            processor;
        value           nonuniform List<vector> 
12
(
(1.27431 0.240368 -0.193446)
(18.0134 1.8832 -1.84229)
(47.4785 -0.332828 -3.81537)
(2.14372e-05 -5.38317e-06 9.16517e-06)
(0.554522 0.0647029 -0.0460708)
(36.6993 0.644541 -2.16292)
(2.87001e-05 -6.56118e-06 8.84673e-06)
(21.1094 0.967546 0.0458561)
(49.8359 0.102121 -1.03025)
(32.2409 -0.673283 0.593077)
(47.5048 0.729571 -0.103076)
(62.0129 -0.339983 -0.59147)
)
;
    }
}


// ************************************************************************* //
