/*--------------------------------*- C++ -*----------------------------------*\
| =========                 |                                                 |
| \\      /  F ield         | OpenFOAM: The Open Source CFD Toolbox           |
|  \\    /   O peration     | Version:  4.x                                   |
|   \\  /    A nd           | Web:      www.OpenFOAM.org                      |
|    \\/     M anipulation  |                                                 |
\*---------------------------------------------------------------------------*/
FoamFile
{
    version     2.0;
    format      ascii;
    class       volScalarField;
    location    "35";
    object      pSmooth;
}
// * * * * * * * * * * * * * * * * * * * * * * * * * * * * * * * * * * * * * //

dimensions      [1 -1 -2 0 0 0 0];

internalField   nonuniform List<scalar> 
87
(
81.8623
38.3323
81.6208
88.5052
38.3797
81.5141
111.625
93.4134
104.329
75.837
96.7098
57.732
89.0338
39.7763
81.6554
111.164
93.3215
104.033
75.5191
96.5942
57.2645
89.165
38.9638
81.8587
110.487
92.9779
103.405
75.3502
96.1138
57.1166
88.709
38.8762
81.6947
111.568
93.5247
104.282
75.7147
96.7899
57.6677
89.3343
39.427
82.0602
111.021
93.3229
103.786
75.553
96.3309
57.4319
88.9532
39.1171
81.7596
110.46
93.033
103.346
75.4184
95.999
57.2725
88.6898
39.0458
81.6118
111.049
93.319
103.837
75.6294
96.372
57.5729
88.9689
39.1958
81.8245
110.659
93.1574
103.494
75.5145
96.0864
57.3165
88.7214
39.1332
81.6212
110.219
92.9817
103.141
75.3728
95.8522
57.3149
88.5363
39.1999
81.5761
)
;

boundaryField
{
    inlet
    {
        type            zeroGradient;
    }
    outlet
    {
        type            fixedValue;
        value           nonuniform 0();
    }
    wall
    {
        type            zeroGradient;
    }
    procBoundary6to0
    {
        type            processor;
        value           uniform 81.6976;
    }
    procBoundary6to2
    {
        type            processor;
        value           nonuniform List<scalar> 
32
(
81.7379
38.0013
81.7548
88.341
38.0064
81.4592
111.125
93.342
103.992
75.3674
96.5762
57.2724
89.1454
39.1498
39.1498
39.1498
110.727
93.0731
103.614
75.1001
96.2178
56.8636
88.8094
88.8094
88.8094
110.097
92.739
103.064
74.8924
95.7641
56.7193
56.7193
)
;
    }
    procBoundary6to4
    {
        type            processor;
        value           nonuniform List<scalar> 
27
(
111.495
93.7161
104.354
75.905
96.7936
57.8356
89.1232
39.6197
81.5925
111.571
93.6336
104.315
75.8438
96.6807
57.4925
89.0916
38.9675
81.7723
111.193
93.2935
103.849
75.5904
96.2345
57.2303
88.6437
38.9444
81.523
)
;
    }
    procBoundary6to7
    {
        type            processor;
        value           nonuniform List<scalar> 
12
(
21.2243
19.7017
19.8694
21.9416
20.6795
20.4833
21.2373
20.6443
20.7196
21.0867
20.7697
20.9201
)
;
    }
}


// ************************************************************************* //
