/*--------------------------------*- C++ -*----------------------------------*\
| =========                 |                                                 |
| \\      /  F ield         | OpenFOAM: The Open Source CFD Toolbox           |
|  \\    /   O peration     | Version:  4.x                                   |
|   \\  /    A nd           | Web:      www.OpenFOAM.org                      |
|    \\/     M anipulation  |                                                 |
\*---------------------------------------------------------------------------*/
FoamFile
{
    version     2.0;
    format      ascii;
    class       volVectorField;
    location    "35";
    object      UsPrev;
}
// * * * * * * * * * * * * * * * * * * * * * * * * * * * * * * * * * * * * * //

dimensions      [0 1 -1 0 0 0 0];

internalField   nonuniform List<vector> 
87
(
(-3.28454e-09 -1.75875e-09 3.1296e-09)
(-2.80154e-09 -1.46653e-09 2.11489e-09)
(-3.45189e-09 -2.16783e-09 2.36881e-09)
(-9.46981e-10 -1.02913e-10 8.14392e-10)
(-1.57662e-09 -5.13529e-10 1.14655e-09)
(-8.90947e-10 -6.25163e-10 9.76076e-10)
(-2.96257e-10 -1.08305e-10 3.27022e-10)
(-5.8406e-10 -5.73797e-10 6.65246e-10)
(-8.01457e-10 -6.88941e-10 1.06426e-09)
(-1.02987e-09 -7.97157e-10 1.42627e-09)
(-1.62597e-09 -1.00669e-09 1.78061e-09)
(-1.9443e-09 -1.34026e-09 2.03734e-09)
(-2.42016e-09 -1.88664e-09 2.40868e-09)
(-2.53853e-09 -2.5428e-09 2.53093e-09)
(-2.46736e-09 -2.04297e-09 2.65513e-09)
(-4.07978e-10 -3.11313e-10 1.96191e-10)
(-6.83955e-10 -2.34094e-10 5.57948e-10)
(-8.83647e-10 -2.23743e-10 8.06641e-10)
(-1.21039e-09 -3.56328e-10 8.63905e-10)
(-1.4049e-09 -6.11573e-10 1.17481e-09)
(-1.67218e-09 -7.75474e-10 1.3236e-09)
(-2.04198e-09 -1.3933e-09 1.24792e-09)
(-2.23228e-09 -1.35664e-09 1.41149e-09)
(-2.89006e-09 -1.62464e-09 1.58764e-09)
(-8.14102e-11 -9.05514e-11 1.12611e-10)
(-7.11249e-10 -2.11299e-10 4.20739e-10)
(-3.49087e-10 -1.28383e-10 3.66688e-10)
(-4.94224e-10 -6.76606e-11 4.38575e-10)
(-5.70282e-10 -5.32987e-11 4.77273e-10)
(-9.27616e-10 -3.00219e-10 6.70673e-10)
(-1.192e-09 -4.15232e-10 7.1352e-10)
(-1.12438e-09 -4.53491e-10 5.23269e-10)
(-2.4078e-09 -7.38459e-10 4.76139e-10)
(-9.04665e-11 -1.62929e-10 7.51095e-11)
(-3.06297e-10 -4.38293e-10 4.02261e-10)
(-3.01458e-10 -5.13565e-10 7.25354e-10)
(-5.039e-10 -4.53784e-10 8.30845e-10)
(-3.81629e-10 -4.82068e-10 9.80332e-10)
(-5.90655e-10 -8.78222e-10 1.31132e-09)
(-6.35083e-10 -1.23179e-09 1.43454e-09)
(-5.30748e-10 -1.91342e-09 2.04406e-09)
(-3.80823e-10 -1.93747e-09 1.83243e-09)
(-1.56976e-10 -2.31932e-10 1.04876e-10)
(-4.51649e-10 -2.76612e-10 3.36457e-10)
(-5.74933e-10 -2.40892e-10 6.0787e-10)
(-7.4678e-10 -2.90653e-10 6.24021e-10)
(-3.95924e-10 -3.06874e-10 4.3167e-10)
(-1.14358e-09 -6.65203e-10 9.17149e-10)
(-1.32666e-09 -1.01422e-09 7.65871e-10)
(-1.20036e-09 -2.92224e-09 2.6449e-10)
(-2.21249e-09 -1.78363e-09 1.40431e-09)
(1.37603e-12 -6.88314e-11 1.47627e-10)
(-1.9367e-09 -7.31022e-10 3.09873e-10)
(-2.30179e-10 -1.70714e-10 5.67072e-10)
(-3.28935e-10 8.00103e-12 3.2019e-10)
(-3.44597e-10 -8.02593e-11 2.3566e-10)
(-4.93283e-10 -1.15907e-10 3.23682e-10)
(-5.85858e-10 -3.72651e-10 3.58432e-10)
(-9.73107e-10 -2.56388e-10 4.49697e-10)
(-1.76584e-09 -7.70419e-10 7.33178e-10)
(-4.27241e-11 -1.81757e-10 1.06224e-10)
(-8.03947e-11 -3.46833e-10 2.04552e-10)
(-4.33563e-11 -4.44492e-10 3.80439e-10)
(-1.56945e-10 -2.57254e-10 3.60286e-10)
(-1.75047e-10 -3.37211e-10 4.65036e-10)
(-8.28798e-11 -6.64721e-10 5.80708e-10)
(2.15328e-10 -8.8266e-10 8.15854e-10)
(6.04219e-10 -1.46433e-09 7.83868e-10)
(8.84034e-10 -1.83535e-09 8.53229e-10)
(1.78049e-10 -3.4337e-11 8.76033e-11)
(-1.50204e-10 -1.53104e-10 1.15701e-10)
(-1.39172e-10 -1.86805e-10 2.28105e-10)
(-2.75282e-10 -1.37673e-10 2.48145e-10)
(-1.65159e-10 -2.55848e-10 2.52027e-10)
(-3.14833e-10 -3.91118e-10 3.2566e-10)
(-8.84781e-10 -9.41152e-10 4.16167e-10)
(3.82743e-10 -4.94089e-09 2.28915e-11)
(-6.36693e-10 -2.10266e-09 6.01553e-10)
(9.91954e-10 2.59074e-10 8.11619e-11)
(-1.68207e-10 -6.9895e-11 1.07188e-10)
(-8.94165e-11 -9.45849e-11 2.4958e-10)
(-1.75777e-10 -4.16142e-11 6.80983e-11)
(-1.86141e-10 -8.03772e-11 8.29751e-11)
(-3.34524e-10 -1.10233e-10 1.46306e-10)
(-3.62803e-10 -1.78537e-10 1.60664e-10)
(-3.98074e-10 -6.94243e-10 2.64036e-10)
(-6.58296e-10 -5.73655e-10 5.59145e-10)
)
;

boundaryField
{
    inlet
    {
        type            calculated;
        value           uniform (0 0 0);
    }
    outlet
    {
        type            calculated;
        value           nonuniform 0();
    }
    wall
    {
        type            calculated;
        value           uniform (0 0 0);
    }
    procBoundary6to0
    {
        type            processor;
        value           uniform (0 0 0);
    }
    procBoundary6to2
    {
        type            processor;
        value           uniform (0 0 0);
    }
    procBoundary6to4
    {
        type            processor;
        value           uniform (0 0 0);
    }
    procBoundary6to7
    {
        type            processor;
        value           uniform (0 0 0);
    }
}


// ************************************************************************* //
