/*--------------------------------*- C++ -*----------------------------------*\
| =========                 |                                                 |
| \\      /  F ield         | OpenFOAM: The Open Source CFD Toolbox           |
|  \\    /   O peration     | Version:  4.x                                   |
|   \\  /    A nd           | Web:      www.OpenFOAM.org                      |
|    \\/     M anipulation  |                                                 |
\*---------------------------------------------------------------------------*/
FoamFile
{
    version     2.0;
    format      ascii;
    class       volVectorField;
    location    "33";
    object      DDtUrel;
}
// * * * * * * * * * * * * * * * * * * * * * * * * * * * * * * * * * * * * * //

dimensions      [0 1 -2 0 0 0 0];

internalField   nonuniform List<vector> 
87
(
(3.17135e-05 -5.4451e-06 1.19751e-05)
(7.80803e-05 -1.7795e-05 1.26933e-05)
(4.88834e-05 -1.1835e-05 6.36346e-06)
(0.000131683 -1.986e-05 7.28309e-06)
(0.000107238 -2.38276e-05 7.95807e-06)
(6.9973e-05 -1.96575e-05 -4.638e-07)
(0.00161488 4.29129e-05 -6.77068e-05)
(0.000911494 1.97642e-05 -3.58579e-05)
(0.000520129 5.44667e-06 -1.84851e-05)
(0.000301416 -3.69487e-06 -4.94685e-06)
(0.000178008 -5.51333e-06 1.00556e-06)
(0.000105847 -9.44615e-06 3.88516e-06)
(6.52934e-05 -8.35512e-06 4.13238e-06)
(3.714e-05 -1.02153e-05 3.45103e-06)
(1.75401e-05 -6.76241e-06 2.75613e-06)
(0.00165819 8.72089e-05 -6.70714e-05)
(0.000959942 3.56612e-05 -3.82632e-05)
(0.000559848 9.86437e-06 -2.15432e-05)
(0.000335041 -7.04968e-06 -7.73672e-06)
(0.000201258 -9.56222e-06 -1.12621e-06)
(0.000126246 -1.49244e-05 2.07636e-06)
(7.74104e-05 -1.46676e-05 1.88812e-06)
(5.00699e-05 -1.95907e-05 1.14157e-06)
(2.39327e-05 -1.45084e-05 -5.96854e-07)
(0.00171435 8.92583e-05 -7.18264e-05)
(0.0010207 4.21347e-05 -4.24167e-05)
(0.000613403 1.15379e-05 -2.61265e-05)
(0.000380222 -6.18123e-06 -1.10155e-05)
(0.000235653 -1.11966e-05 -3.55232e-06)
(0.000155813 -1.54895e-05 8.83641e-07)
(9.80296e-05 -1.83453e-05 -1.43292e-06)
(7.01977e-05 -2.42265e-05 -1.20073e-06)
(3.2908e-05 -1.97294e-05 -5.39272e-06)
(0.00164592 4.60711e-05 3.20058e-07)
(0.000942214 1.94772e-05 -9.86795e-06)
(0.000540841 4.54584e-06 -9.85497e-06)
(0.000317598 -5.32707e-06 -8.41138e-06)
(0.000184439 -7.47052e-06 -5.0383e-06)
(0.000110448 -1.11287e-05 -5.96451e-06)
(6.22836e-05 -9.63145e-06 -4.00749e-06)
(3.60492e-05 -1.08447e-05 -8.36313e-06)
(1.13186e-05 -8.41192e-06 -6.49039e-06)
(0.00169091 8.59195e-05 -3.47528e-06)
(0.000991562 3.50359e-05 -1.17849e-05)
(0.000585173 8.37671e-06 -1.30518e-05)
(0.000354986 -6.57952e-06 -9.92391e-06)
(0.000212707 -9.63459e-06 -7.10027e-06)
(0.000131826 -1.46161e-05 -6.96049e-06)
(7.63188e-05 -1.54377e-05 -7.56611e-06)
(5.01894e-05 -1.82327e-05 -1.10892e-05)
(1.91044e-05 -1.50434e-05 -1.03686e-05)
(0.001741 8.39448e-05 -1.30258e-05)
(0.00104915 3.91603e-05 -1.58356e-05)
(0.000637484 1.0304e-05 -1.45739e-05)
(0.000400112 -6.14413e-06 -1.09176e-05)
(0.00024963 -1.14121e-05 -1.02811e-05)
(0.000162825 -1.61402e-05 -9.81117e-06)
(0.00010034 -1.92439e-05 -1.13556e-05)
(6.94923e-05 -2.29162e-05 -1.30941e-05)
(3.38651e-05 -2.21915e-05 -1.49234e-05)
(0.00169277 4.3999e-05 2.37295e-05)
(0.000990551 1.61786e-05 2.18102e-06)
(0.000581203 2.83798e-06 -6.30385e-06)
(0.000351441 -7.21149e-06 -7.83119e-06)
(0.000208132 -9.62619e-06 -6.14054e-06)
(0.000128893 -1.3583e-05 -6.66829e-06)
(7.07304e-05 -1.21291e-05 -6.67311e-06)
(4.43845e-05 -1.19963e-05 -1.10528e-05)
(8.35114e-06 -1.04775e-05 -1.24847e-05)
(0.00173368 7.83521e-05 1.63594e-05)
(0.00103762 3.35201e-05 -1.61163e-06)
(0.000626571 8.7698e-06 -8.9831e-06)
(0.000392315 -6.92477e-06 -9.92314e-06)
(0.000241347 -1.08894e-05 -7.81949e-06)
(0.000153144 -1.53647e-05 -8.34836e-06)
(8.96854e-05 -1.83512e-05 -1.14112e-05)
(5.98986e-05 -1.99475e-05 -1.52027e-05)
(2.13403e-05 -1.40453e-05 -1.70936e-05)
(0.00177305 7.67644e-05 7.8255e-06)
(0.00108583 3.71595e-05 -4.79088e-06)
(0.000674041 1.11795e-05 -9.2085e-06)
(0.000438376 -6.03579e-06 -1.07966e-05)
(0.00028102 -1.36866e-05 -1.09583e-05)
(0.000184943 -1.77262e-05 -1.07828e-05)
(0.000114264 -2.06819e-05 -1.42188e-05)
(7.69357e-05 -2.4083e-05 -1.81443e-05)
(3.58177e-05 -2.21951e-05 -1.94833e-05)
)
;

boundaryField
{
    inlet
    {
        type            calculated;
        value           nonuniform List<vector> 9((0.00369014 0.000153225 -0.000165081) (0.00376505 0.000394936 -0.000130533) (0.00404211 0.000269714 -0.000168199) (0.00378267 0.000210934 0.000185653) (0.00391004 0.000398112 0.000175019) (0.00411945 0.000228767 8.30034e-05) (0.00403587 0.000194933 0.000187042) (0.00412457 0.000310541 0.000138856) (0.00421904 0.000178196 8.64039e-05));
    }
    outlet
    {
        type            calculated;
        value           nonuniform 0();
    }
    wall
    {
        type            calculated;
        value           nonuniform List<vector> 
57
(
(0.00403587 0.000194933 0.000187042)
(0.00412457 0.000310541 0.000138856)
(0.00421904 0.000178196 8.64039e-05)
(9.09781e-05 -2.24458e-05 -7.39011e-06)
(0.000252099 5.73432e-06 -6.69658e-06)
(0.000453748 -1.98783e-06 -7.28782e-06)
(2.21428e-05 -8.82104e-06 -2.00475e-05)
(0.00017453 -8.63187e-06 -2.49204e-05)
(0.000360693 -7.18174e-06 -2.68062e-06)
(6.52025e-05 -5.43289e-05 -1.83636e-05)
(0.000221013 -4.78665e-05 -2.35954e-05)
(0.000442921 -3.39761e-05 -1.77548e-05)
(-3.12054e-05 -3.03506e-05 -3.94484e-06)
(0.000105949 -8.4161e-06 2.90004e-06)
(0.000300076 -4.09448e-05 -2.37763e-05)
(1.1115e-05 -6.60947e-05 -1.44986e-05)
(0.000115105 -2.07762e-05 -2.15597e-06)
(0.000267749 -3.33664e-05 -9.55692e-06)
(-0.00010852 -2.27225e-05 1.22896e-05)
(4.23948e-06 -4.3793e-05 -2.67904e-05)
(0.000124063 -3.08245e-05 -3.00298e-05)
(-4.71914e-06 -1.39007e-05 -2.00062e-05)
(0.000113419 -6.13192e-05 -3.77033e-05)
(0.00016414 -5.75453e-05 -5.10105e-05)
(-0.000163705 -4.84247e-06 -1.98837e-05)
(-4.47097e-05 2.41647e-05 -3.28034e-05)
(3.18558e-05 -4.28475e-05 -3.17969e-05)
(0.00404211 0.000269714 -0.000168199)
(0.00411945 0.000228767 8.30034e-05)
(0.00421904 0.000178196 8.64039e-05)
(0.000150295 1.68893e-05 -8.82884e-06)
(0.000292769 -2.82739e-06 6.11435e-06)
(0.000453748 -1.98783e-06 -7.28782e-06)
(8.60221e-05 -2.57758e-05 -4.52543e-05)
(0.000195192 -3.051e-05 -8.09185e-06)
(0.000360693 -7.18174e-06 -2.68062e-06)
(9.53208e-05 -5.21381e-05 -6.37828e-06)
(0.000200619 -4.12815e-05 -4.30971e-06)
(0.000442921 -3.39761e-05 -1.77548e-05)
(-1.32741e-06 -1.82395e-05 -9.66348e-06)
(0.000103055 -1.23445e-05 -3.80887e-05)
(0.000300076 -4.09448e-05 -2.37763e-05)
(4.48193e-05 -1.41694e-05 8.90258e-06)
(0.000132647 -2.32611e-05 -4.18613e-05)
(0.000267749 -3.33664e-05 -9.55692e-06)
(6.69465e-05 -4.03847e-05 -3.9798e-05)
(-4.60591e-05 -1.25403e-05 -1.62068e-05)
(3.57281e-05 -2.75224e-05 -4.40211e-05)
(0.000124063 -3.08245e-05 -3.00298e-05)
(0.000194153 -7.05301e-05 1.3679e-05)
(5.11333e-05 -7.74618e-05 1.43025e-05)
(0.000119041 -4.40508e-05 -3.99568e-05)
(0.00016414 -5.75453e-05 -5.10105e-05)
(-6.62841e-06 -3.45725e-05 -5.82278e-05)
(-0.000129681 -4.72541e-06 -1.27153e-05)
(1.75573e-05 -4.45379e-05 -4.26826e-05)
(3.18558e-05 -4.28475e-05 -3.17969e-05)
)
;
    }
    procBoundary6to0
    {
        type            processor;
        value           uniform (2.8289e-05 2.19418e-06 1.41381e-05);
    }
    procBoundary6to2
    {
        type            processor;
        value           nonuniform List<vector> 
32
(
(6.12662e-05 -3.15495e-06 2.06441e-05)
(0.000116064 -1.66243e-05 2.4146e-05)
(8.488e-05 -1.15561e-05 1.69536e-05)
(0.000180105 -1.90728e-05 1.86276e-05)
(0.0001585 -2.29219e-05 2.01276e-05)
(0.000120107 -1.88166e-05 1.07565e-05)
(0.0016196 4.39101e-05 -0.000139791)
(0.000925784 2.11011e-05 -6.46914e-05)
(0.000535014 6.76032e-06 -2.65977e-05)
(0.000316781 -2.18158e-06 1.22753e-07)
(0.000193564 -4.49118e-06 8.42839e-06)
(0.000123335 -9.13381e-06 1.62923e-05)
(8.01264e-05 -7.47791e-06 1.3993e-05)
(5.13807e-05 -8.42628e-06 1.69861e-05)
(5.13807e-05 -8.42628e-06 1.69861e-05)
(5.13807e-05 -8.42628e-06 1.69861e-05)
(0.00166348 8.47778e-05 -0.00013505)
(0.000973548 3.68989e-05 -6.60119e-05)
(0.000575586 1.05482e-05 -2.96575e-05)
(0.00035399 -4.18079e-06 -3.65819e-06)
(0.000222095 -8.89793e-06 6.67931e-06)
(0.000152723 -1.47021e-05 1.50389e-05)
(0.000100748 -1.39614e-05 1.12562e-05)
(0.000100748 -1.39614e-05 1.12562e-05)
(0.000100748 -1.39614e-05 1.12562e-05)
(0.00171764 8.75522e-05 -0.00013505)
(0.0010343 4.23523e-05 -7.0224e-05)
(0.000630922 1.30075e-05 -3.48034e-05)
(0.000404901 -3.82956e-06 -7.85042e-06)
(0.000264995 -1.11127e-05 5.91672e-06)
(0.000191269 -1.73846e-05 1.48965e-05)
(0.000191269 -1.73846e-05 1.48965e-05)
)
;
    }
    procBoundary6to4
    {
        type            processor;
        value           nonuniform List<vector> 
27
(
(0.00160223 -1.70914e-05 -6.62355e-05)
(0.000897038 -4.84155e-06 -3.35678e-05)
(0.000507435 -2.55788e-06 -1.64381e-05)
(0.000289203 2.22163e-07 -2.65602e-06)
(0.000169746 1.17533e-06 3.13092e-06)
(0.000100884 2.48081e-06 5.41579e-06)
(6.21464e-05 1.26905e-06 5.45087e-06)
(3.7007e-05 9.6969e-07 5.64042e-06)
(1.70763e-05 2.21674e-07 5.50845e-06)
(0.00163204 -1.42728e-05 -1.03784e-06)
(0.000927028 -4.12779e-06 -5.08432e-06)
(0.00052802 -2.78256e-06 -7.95954e-06)
(0.000308266 -8.63232e-07 -5.07438e-06)
(0.000179887 -7.87894e-07 -2.00142e-06)
(0.000112755 -6.06871e-07 -1.9926e-06)
(6.59207e-05 -1.13606e-06 -2.16191e-06)
(4.39027e-05 -2.2703e-06 -6.5999e-06)
(1.67389e-05 -3.07365e-06 -2.13052e-06)
(0.00167663 -1.22873e-05 2.39335e-05)
(0.00097579 -7.22396e-06 7.30629e-06)
(0.000568858 -4.47569e-06 -2.96562e-06)
(0.000346574 -2.10258e-06 -5.16255e-06)
(0.000209063 -2.13317e-06 -4.00878e-06)
(0.000139286 -2.87365e-06 -3.76421e-06)
(8.50509e-05 -3.59188e-06 -6.22638e-06)
(6.34431e-05 -6.09463e-06 -9.82598e-06)
(2.65048e-05 -9.74619e-06 -6.06285e-06)
)
;
    }
    procBoundary6to7
    {
        type            processor;
        value           nonuniform List<vector> 
12
(
(1.39112e-05 -3.6896e-06 9.3236e-06)
(4.0059e-05 -1.35246e-05 5.09593e-06)
(6.40388e-05 -1.91071e-05 -3.49461e-06)
(8.70354e-07 -4.32244e-06 3.25545e-06)
(6.42956e-06 -1.39936e-05 -1.96181e-06)
(1.83232e-05 -2.25441e-05 -7.52302e-06)
(-6.45897e-06 -7.824e-06 -7.46208e-06)
(8.10122e-06 -1.82961e-05 -1.50365e-05)
(1.62425e-05 -2.36555e-05 -1.71981e-05)
(-6.80885e-06 -9.91838e-06 -1.89905e-05)
(3.81011e-06 -1.46534e-05 -2.25809e-05)
(1.13367e-05 -2.16368e-05 -2.35774e-05)
)
;
    }
}


// ************************************************************************* //
