/*--------------------------------*- C++ -*----------------------------------*\
| =========                 |                                                 |
| \\      /  F ield         | OpenFOAM: The Open Source CFD Toolbox           |
|  \\    /   O peration     | Version:  4.x                                   |
|   \\  /    A nd           | Web:      www.OpenFOAM.org                      |
|    \\/     M anipulation  |                                                 |
\*---------------------------------------------------------------------------*/
FoamFile
{
    version     2.0;
    format      ascii;
    class       volVectorField;
    location    "33";
    object      ddtUrel;
}
// * * * * * * * * * * * * * * * * * * * * * * * * * * * * * * * * * * * * * //

dimensions      [0 1 -2 0 0 0 0];

internalField   nonuniform List<vector> 
87
(
(9.27867e-09 -4.02788e-10 -1.38923e-09)
(7.86952e-09 -5.07391e-10 -9.46571e-10)
(9.01591e-09 -2.993e-10 -1.10678e-09)
(6.01179e-09 -6.84922e-10 -9.89635e-10)
(7.04604e-09 -4.76761e-10 -8.53359e-10)
(7.85733e-09 -2.90656e-10 -9.76101e-10)
(1.68211e-09 -7.21702e-10 -1.37618e-09)
(2.23023e-09 -8.52709e-10 -1.53619e-09)
(2.849e-09 -9.82905e-10 -1.63956e-09)
(3.59357e-09 -1.00523e-09 -1.57979e-09)
(4.36402e-09 -9.24245e-10 -1.42746e-09)
(5.41442e-09 -7.45535e-10 -1.2091e-09)
(6.32812e-09 -6.05071e-10 -1.01063e-09)
(7.39311e-09 -3.54319e-10 -9.26509e-10)
(8.42806e-09 -2.11702e-10 -1.01399e-09)
(1.69919e-09 -7.38732e-10 -1.35294e-09)
(2.24345e-09 -8.47212e-10 -1.50117e-09)
(2.7248e-09 -9.62556e-10 -1.58136e-09)
(3.39597e-09 -9.71384e-10 -1.51397e-09)
(4.04424e-09 -9.1624e-10 -1.35022e-09)
(4.94346e-09 -7.70394e-10 -1.16106e-09)
(5.80937e-09 -6.40451e-10 -9.51497e-10)
(6.8793e-09 -5.03112e-10 -8.55699e-10)
(8.00166e-09 -2.3024e-10 -9.04031e-10)
(1.56967e-09 -7.06928e-10 -1.2485e-09)
(2.28627e-09 -7.22283e-10 -1.40714e-09)
(2.61358e-09 -8.26069e-10 -1.45293e-09)
(3.20073e-09 -8.65125e-10 -1.36702e-09)
(3.75238e-09 -8.19277e-10 -1.23114e-09)
(4.48659e-09 -7.01658e-10 -1.05887e-09)
(5.21061e-09 -5.65589e-10 -9.22169e-10)
(6.02492e-09 -4.08909e-10 -8.23534e-10)
(7.0419e-09 -2.41039e-10 -8.60819e-10)
(1.37523e-09 -6.3037e-10 -1.11157e-09)
(1.88622e-09 -6.92612e-10 -1.21067e-09)
(2.4214e-09 -7.52275e-10 -1.27732e-09)
(3.04349e-09 -7.54966e-10 -1.24399e-09)
(3.68113e-09 -7.11554e-10 -1.14433e-09)
(4.5671e-09 -6.30359e-10 -9.89544e-10)
(5.4023e-09 -5.30607e-10 -8.55072e-10)
(6.48054e-09 -3.39771e-10 -8.50164e-10)
(7.41388e-09 -9.90498e-11 -7.88723e-10)
(1.16002e-09 -7.19729e-10 -1.11409e-09)
(1.82607e-09 -7.10387e-10 -1.18384e-09)
(2.29198e-09 -7.68756e-10 -1.24405e-09)
(2.8723e-09 -7.67295e-10 -1.19001e-09)
(3.40672e-09 -7.29403e-10 -1.0708e-09)
(4.2367e-09 -6.66028e-10 -9.58049e-10)
(4.92492e-09 -6.25164e-10 -8.19695e-10)
(5.98439e-09 -5.43847e-10 -7.78532e-10)
(6.816e-09 -1.69106e-10 -8.18457e-10)
(7.53381e-10 -7.23475e-10 -1.03888e-09)
(2.039e-09 -4.77014e-10 -1.10812e-09)
(2.18679e-09 -6.70709e-10 -1.18459e-09)
(2.67649e-09 -7.11585e-10 -1.10786e-09)
(3.19232e-09 -6.72011e-10 -9.94028e-10)
(3.84117e-09 -6.0252e-10 -8.83118e-10)
(4.38601e-09 -5.27832e-10 -7.77072e-10)
(5.15344e-09 -4.06844e-10 -7.20933e-10)
(5.78811e-09 -1.36809e-10 -8.08834e-10)
(1.09335e-09 -6.22282e-10 -9.60731e-10)
(1.58016e-09 -6.01997e-10 -1.00349e-09)
(2.16463e-09 -5.87936e-10 -1.04177e-09)
(2.77601e-09 -5.85383e-10 -1.02767e-09)
(3.40843e-09 -5.77818e-10 -9.53431e-10)
(4.13934e-09 -5.43401e-10 -8.57452e-10)
(4.88863e-09 -6.15728e-10 -7.62096e-10)
(6.04046e-09 -4.39562e-10 -7.05659e-10)
(6.70344e-09 -7.38562e-11 -6.47046e-10)
(2.86113e-10 -9.48833e-10 -9.78451e-10)
(1.30872e-09 -7.12307e-10 -9.91644e-10)
(1.93397e-09 -6.46144e-10 -1.02548e-09)
(2.56957e-09 -6.34072e-10 -1.00642e-09)
(3.10271e-09 -6.17645e-10 -9.12078e-10)
(3.74917e-09 -6.23459e-10 -8.24705e-10)
(4.21848e-09 -8.65682e-10 -7.34715e-10)
(5.48418e-09 -6.28121e-10 -7.73507e-10)
(6.12575e-09 -9.26539e-11 -7.53894e-10)
(-1.02166e-09 -1.26333e-09 -9.62789e-10)
(9.60332e-10 -7.43372e-10 -9.61971e-10)
(1.75928e-09 -6.4468e-10 -9.94923e-10)
(2.35081e-09 -6.0693e-10 -9.46524e-10)
(2.86166e-09 -5.72173e-10 -8.61969e-10)
(3.4742e-09 -5.59423e-10 -7.76931e-10)
(3.97726e-09 -5.51409e-10 -7.03142e-10)
(4.6426e-09 -4.10396e-10 -6.87898e-10)
(5.27331e-09 -1.19373e-10 -7.38522e-10)
)
;

boundaryField
{
    inlet
    {
        type            calculated;
        value           nonuniform List<vector> 9((1.34823e-09 -4.20872e-10 -8.82911e-10) (2.08706e-09 -2.6362e-10 -8.59009e-10) (2.64952e-10 -2.58336e-10 -4.77768e-11) (1.86129e-10 -3.88012e-10 -4.84946e-10) (9.15929e-10 -2.39601e-10 -6.88325e-10) (-2.23917e-09 5.17052e-11 -1.09198e-10) (5.41128e-10 -3.29068e-10 -2.71092e-10) (-4.80741e-09 -2.49162e-09 -5.63606e-10) (-1.98816e-08 -5.65917e-09 -7.08882e-10));
    }
    outlet
    {
        type            calculated;
        value           nonuniform 0();
    }
    wall
    {
        type            calculated;
        value           nonuniform List<vector> 
57
(
(6.34274e-10 -3.33346e-10 -2.74421e-10)
(-4.0719e-09 -2.45994e-09 -5.5248e-10)
(-1.67968e-08 -5.56738e-09 -6.55787e-10)
(7.80481e-10 -6.59007e-10 -4.68131e-10)
(1.01316e-09 -4.47843e-10 -3.25619e-10)
(4.38939e-10 -2.78795e-10 -3.00211e-10)
(2.12035e-09 -3.58772e-10 -6.53296e-10)
(6.36916e-10 -2.82409e-10 -5.23554e-10)
(8.01399e-10 -3.53796e-10 -5.49828e-10)
(2.07959e-09 -3.10723e-10 -7.04986e-10)
(1.90967e-09 -5.14662e-10 -6.85917e-10)
(1.00897e-09 -2.31397e-10 -2.95472e-10)
(3.01687e-09 -4.72455e-10 -4.94231e-10)
(1.55008e-09 -5.14848e-10 -3.0054e-10)
(9.46472e-10 -1.73924e-10 -2.86101e-10)
(3.19456e-09 -8.06586e-11 -4.11499e-10)
(2.41231e-09 -2.72861e-10 -3.59146e-10)
(1.77284e-09 -2.01197e-10 -2.70808e-10)
(3.47331e-09 -1.7372e-09 -2.44809e-10)
(-1.97695e-09 -4.95572e-09 2.21127e-10)
(1.1544e-09 -1.60708e-10 -3.43428e-11)
(5.74137e-09 1.66709e-10 3.91119e-11)
(7.17922e-09 -3.15003e-09 -1.22325e-09)
(5.41012e-10 -2.01297e-10 -6.44321e-11)
(5.64584e-09 6.52481e-11 6.57088e-10)
(7.56907e-09 6.19632e-10 -7.04712e-10)
(3.96022e-09 3.28893e-10 -4.68324e-10)
(1.54214e-10 -2.64889e-10 -5.91379e-11)
(-2.0016e-09 6.07432e-11 -1.08279e-10)
(-1.62268e-08 -5.56049e-09 -6.50091e-10)
(3.41544e-09 -2.25923e-10 -1.31215e-09)
(8.03189e-09 3.18476e-09 -2.86399e-10)
(3.17013e-10 -2.81711e-10 -3.00298e-10)
(6.96365e-10 -5.82614e-10 -1.15858e-09)
(4.92981e-10 -5.07974e-10 -1.17929e-09)
(5.23059e-10 -3.59672e-10 -5.49611e-10)
(1.92075e-09 -7.87527e-10 -8.14553e-10)
(1.18162e-09 -6.92034e-10 -6.28661e-10)
(8.92032e-10 -2.34168e-10 -2.93639e-10)
(1.81026e-09 -6.96743e-10 -7.18409e-10)
(1.12256e-09 -5.21656e-10 -4.18275e-10)
(6.35349e-10 -1.77594e-10 -2.8268e-10)
(2.96918e-09 -6.23724e-10 -6.90052e-10)
(2.07462e-09 -3.3078e-10 -3.43819e-10)
(1.53641e-09 -2.02132e-10 -2.6987e-10)
(3.10427e-09 -2.43354e-10 -8.45077e-10)
(2.01284e-09 -1.77335e-10 -8.48399e-10)
(5.60264e-11 -2.66292e-10 -2.37351e-10)
(6.34675e-10 -1.65006e-10 -4.61316e-11)
(5.01092e-09 3.52219e-10 1.77756e-10)
(2.61779e-09 -6.66065e-11 -5.24367e-10)
(1.36935e-09 -4.94878e-10 1.35987e-10)
(-2.74551e-10 -2.02158e-10 -6.37903e-11)
(2.70217e-09 -5.64615e-11 -4.28034e-11)
(3.89644e-09 -5.71034e-10 2.0417e-10)
(-2.81309e-09 3.0894e-10 -4.53063e-10)
(1.53407e-10 2.12154e-10 -3.58081e-10)
)
;
    }
    procBoundary6to0
    {
        type            processor;
        value           uniform (8.34594e-09 -7.7228e-10 -1.83373e-09);
    }
    procBoundary6to2
    {
        type            processor;
        value           nonuniform List<vector> 
32
(
(8.94843e-09 -9.08071e-10 -1.95638e-09)
(8.22656e-09 -8.87637e-10 -1.16504e-09)
(9.51069e-09 -4.41721e-10 -1.36107e-09)
(6.56696e-09 -1.1016e-09 -1.11495e-09)
(7.78091e-09 -7.96831e-10 -9.3032e-10)
(8.82998e-09 -3.70496e-10 -1.07339e-09)
(1.89099e-09 -8.41937e-10 -1.6528e-09)
(2.51833e-09 -1.03083e-09 -1.87856e-09)
(3.24256e-09 -1.2296e-09 -2.03268e-09)
(4.0947e-09 -1.30825e-09 -1.99415e-09)
(4.92337e-09 -1.2722e-09 -1.79983e-09)
(5.9202e-09 -1.15429e-09 -1.50222e-09)
(6.80644e-09 -1.06094e-09 -1.26943e-09)
(7.97257e-09 -7.45769e-10 -1.127e-09)
(7.97257e-09 -7.45769e-10 -1.127e-09)
(7.97257e-09 -7.45769e-10 -1.127e-09)
(1.89955e-09 -8.33081e-10 -1.62396e-09)
(2.53847e-09 -1.0071e-09 -1.85832e-09)
(3.13486e-09 -1.15702e-09 -1.95962e-09)
(3.90026e-09 -1.21903e-09 -1.89916e-09)
(4.63369e-09 -1.19026e-09 -1.69594e-09)
(5.53161e-09 -1.05038e-09 -1.38534e-09)
(6.42914e-09 -8.7937e-10 -1.11777e-09)
(6.42914e-09 -8.7937e-10 -1.11777e-09)
(6.42914e-09 -8.7937e-10 -1.11777e-09)
(1.88708e-09 -8.04875e-10 -1.53869e-09)
(2.4812e-09 -9.3234e-10 -1.73141e-09)
(3.04732e-09 -1.05075e-09 -1.80408e-09)
(3.71022e-09 -1.06561e-09 -1.68766e-09)
(4.33152e-09 -1.05878e-09 -1.51944e-09)
(5.10132e-09 -9.2697e-10 -1.2234e-09)
(5.10132e-09 -9.2697e-10 -1.2234e-09)
)
;
    }
    procBoundary6to4
    {
        type            processor;
        value           nonuniform List<vector> 
27
(
(1.67295e-09 -6.40726e-10 -1.31849e-09)
(2.19734e-09 -7.55029e-10 -1.4608e-09)
(2.82485e-09 -8.8029e-10 -1.58454e-09)
(3.59592e-09 -9.06256e-10 -1.54332e-09)
(4.35925e-09 -8.35401e-10 -1.40849e-09)
(5.33823e-09 -7.55662e-10 -1.21691e-09)
(6.13033e-09 -7.08298e-10 -1.1145e-09)
(7.21618e-09 -4.86997e-10 -1.11898e-09)
(8.25837e-09 -4.44118e-10 -1.24586e-09)
(1.4541e-09 -4.93839e-10 -1.06698e-09)
(1.89451e-09 -5.55813e-10 -1.16178e-09)
(2.42658e-09 -6.45871e-10 -1.23139e-09)
(3.07404e-09 -6.57903e-10 -1.20086e-09)
(3.76787e-09 -5.96173e-10 -1.12249e-09)
(4.65241e-09 -5.01984e-10 -9.87247e-10)
(5.40035e-09 -4.62205e-10 -9.00029e-10)
(6.43757e-09 -4.08073e-10 -8.90855e-10)
(7.3075e-09 -2.77053e-10 -9.07832e-10)
(1.30853e-09 -4.26135e-10 -9.18015e-10)
(1.69414e-09 -4.19633e-10 -9.60314e-10)
(2.20731e-09 -4.73303e-10 -1.00222e-09)
(2.81784e-09 -5.05643e-10 -9.81547e-10)
(3.51964e-09 -4.87632e-10 -9.28117e-10)
(4.28764e-09 -4.26082e-10 -8.32122e-10)
(5.12363e-09 -4.65941e-10 -7.74841e-10)
(6.67757e-09 -8.55405e-10 -7.85775e-10)
(6.70185e-09 -2.85043e-10 -8.27152e-10)
)
;
    }
    procBoundary6to7
    {
        type            processor;
        value           nonuniform List<vector> 
12
(
(9.94487e-09 -1.8893e-10 -1.93516e-09)
(9.97739e-09 3.16943e-11 -1.45912e-09)
(9.20114e-09 -2.01404e-11 -1.34094e-09)
(9.28683e-09 -8.74768e-11 -1.30819e-09)
(8.82224e-09 4.19821e-12 -1.16007e-09)
(8.08758e-09 -4.63418e-11 -1.13267e-09)
(8.0456e-09 -7.31749e-11 -1.04239e-09)
(7.4257e-09 1.78144e-11 -9.5393e-10)
(6.65333e-09 5.62788e-12 -9.32629e-10)
(7.04531e-09 2.93363e-11 -9.16259e-10)
(6.49838e-09 1.262e-10 -8.47143e-10)
(5.74441e-09 4.74908e-11 -8.13165e-10)
)
;
    }
}


// ************************************************************************* //
