/*--------------------------------*- C++ -*----------------------------------*\
| =========                 |                                                 |
| \\      /  F ield         | OpenFOAM: The Open Source CFD Toolbox           |
|  \\    /   O peration     | Version:  4.x                                   |
|   \\  /    A nd           | Web:      www.OpenFOAM.org                      |
|    \\/     M anipulation  |                                                 |
\*---------------------------------------------------------------------------*/
FoamFile
{
    version     2.0;
    format      ascii;
    class       volScalarField;
    location    "33";
    object      magGField;
}
// * * * * * * * * * * * * * * * * * * * * * * * * * * * * * * * * * * * * * //

dimensions      [1 -2 -1 0 0 0 0];

internalField   nonuniform List<scalar> 
87
(
85.5213
19.5103
92.2163
102.119
47.8946
104.096
92.3204
27.3367
88.042
14.2909
85.0124
4.71318
83.915
3.53279e-05
83.1781
94.5252
30.8636
91.2998
21.887
88.9607
14.0103
87.7244
6.58291
87.0917
96.3424
40.0819
97.1231
41.634
96.9755
40.7866
97.5869
40.1963
98.0657
93.0038
30.9607
89.8938
21.7194
88.0766
13.6649
86.8184
6.15359
86.1959
94.7195
35.9428
93.2596
32.6482
92.4313
29.5713
91.5962
25.4264
91.76
95.9925
42.502
98.3623
46.3255
99.5316
48.5473
101.195
49.7943
102.803
94.7273
39.7979
94.8841
39.2329
94.7948
38.0822
94.589
35.1615
95.5892
95.4103
42.6147
97.3349
45.9609
98.6774
47.8655
100.242
48.3135
101.408
96.4864
45.5689
100.486
52.9993
104.71
58.3875
107.857
61.8962
109.418
)
;

boundaryField
{
    inlet
    {
        type            calculated;
        value           uniform 67;
    }
    outlet
    {
        type            calculated;
        value           nonuniform 0();
    }
    wall
    {
        type            calculated;
        value           uniform 0;
    }
    procBoundary6to0
    {
        type            processor;
        value           uniform 84.1378;
    }
    procBoundary6to2
    {
        type            processor;
        value           nonuniform List<scalar> 
32
(
91.5226
13.4813
92.4722
103.988
49.8457
106.773
94.7999
29.4267
90.4753
19.6052
88.2084
12.2155
86.7682
6.39129
6.39129
6.39129
94.9509
33.3278
92.6067
27.5877
91.4606
22.9166
91.2709
91.2709
91.2709
96.5243
40.7942
98.2388
43.6901
100.071
46.0984
46.0984
)
;
    }
    procBoundary6to4
    {
        type            processor;
        value           nonuniform List<scalar> 
27
(
94.3866
29.5042
88.7714
17.4187
85.6885
7.23282
84.1629
0.334805
84.4486
93.6544
31.3478
90.1099
21.8969
87.8531
14.8416
87.4672
9.9738
88.3558
93.4734
38.0303
93.9221
37.4378
94.6482
38.5302
97.0467
41.2464
99.4897
)
;
    }
    procBoundary6to7
    {
        type            processor;
        value           nonuniform List<scalar> 
12
(
1.9623
17.5416
47.4798
4.11353e-05
0.813638
37.0694
0.00012566
21.6594
50.2209
31.0597
47.4231
62.1065
)
;
    }
}


// ************************************************************************* //
