/*--------------------------------*- C++ -*----------------------------------*\
| =========                 |                                                 |
| \\      /  F ield         | OpenFOAM: The Open Source CFD Toolbox           |
|  \\    /   O peration     | Version:  4.x                                   |
|   \\  /    A nd           | Web:      www.OpenFOAM.org                      |
|    \\/     M anipulation  |                                                 |
\*---------------------------------------------------------------------------*/
FoamFile
{
    version     2.0;
    format      ascii;
    class       volScalarField;
    location    "33";
    object      p;
}
// * * * * * * * * * * * * * * * * * * * * * * * * * * * * * * * * * * * * * //

dimensions      [1 -1 -2 0 0 0 0];

internalField   nonuniform List<scalar> 
87
(
81.8505
38.6776
81.6285
88.5857
38.6854
81.5211
-1765.96
-1784.15
-1773.32
-1801.76
-1781.03
-1819.91
-1788.77
-1837.92
-1796.23
-1766.43
-1784.25
-1773.62
-1802.07
-1781.15
-1820.36
-1788.66
-1838.68
-1796.03
-1767.12
-1784.61
-1774.26
-1802.25
-1781.63
-1820.51
-1789.11
-1838.78
-1796.2
-3643.95
-3661.97
-3651.3
-3679.78
-3658.87
-3697.84
-3666.41
-3716.08
-3673.74
-3644.5
-3662.17
-3651.79
-3679.94
-3659.33
-3698.08
-3666.79
-3716.41
-3674.07
-3645.07
-3662.47
-3652.24
-3680.08
-3659.66
-3698.24
-3667.05
-3716.48
-3674.21
-5522.39
-5540.09
-5529.65
-5557.78
-5537.19
-5575.85
-5544.67
-5594.23
-5551.87
-5522.78
-5540.26
-5530
-5557.9
-5537.48
-5576.12
-5544.93
-5594.31
-5552.1
-5523.23
-5540.44
-5530.36
-5558.05
-5537.72
-5576.12
-5545.11
-5594.25
-5552.14
)
;

boundaryField
{
    inlet
    {
        type            calculated;
        value           nonuniform List<scalar> 9(-1765.96 -1766.43 -1767.12 -3643.95 -3644.5 -3645.07 -5522.39 -5522.78 -5523.23);
    }
    outlet
    {
        type            calculated;
        value           nonuniform 0();
    }
    wall
    {
        type            calculated;
        value           nonuniform List<scalar> 
57
(
-6461.34
-6461.74
-6462.18
-6479.05
-6479.21
-6479.4
-6468.61
-6468.96
-6469.31
-6496.74
-6496.86
-6497.01
-6476.15
-6476.44
-6476.67
-6514.81
-6515.07
-6515.08
-6483.62
-6483.89
-6484.07
-6533.18
-6533.27
-6533.2
-6490.83
-6491.06
-6491.1
-1767.12
-3645.07
-5523.23
-1784.61
-3662.47
-5540.44
-1774.26
-3652.24
-5530.36
-1802.25
-3680.08
-5558.05
-1781.63
-3659.66
-5537.72
-1820.51
-3698.24
-5576.12
88.5857
-1789.11
-3667.05
-5545.11
38.6854
-1838.78
-3716.48
-5594.25
81.5211
-1796.2
-3674.21
-5552.14
)
;
    }
    procBoundary6to0
    {
        type            processor;
        value           uniform 81.6797;
    }
    procBoundary6to2
    {
        type            processor;
        value           nonuniform List<scalar> 
32
(
1959.63
1916.18
1959.68
1966.34
1916.17
1959.38
111.472
93.7081
104.255
75.701
96.7272
57.5699
89.2024
39.4361
39.4361
39.4361
111.059
93.4314
103.875
75.451
96.3862
57.203
88.89
88.89
88.89
110.413
93.0807
103.317
75.226
95.931
57.0348
57.0348
)
;
    }
    procBoundary6to4
    {
        type            processor;
        value           nonuniform List<scalar> 
27
(
-1766.06
-1783.82
-1773.28
-1801.65
-1780.94
-1819.74
-1788.71
-1837.94
-1796.3
-3643.93
-3661.84
-3651.25
-3679.64
-3658.98
-3698.01
-3666.66
-3716.54
-3674.06
-5522.23
-5540.1
-5529.63
-5557.81
-5537.33
-5576.19
-5545.01
-5594.48
-5552.2
)
;
    }
    procBoundary6to7
    {
        type            processor;
        value           nonuniform List<scalar> 
12
(
21.5255
20.0713
20.178
-1855.8
-1856.99
-1857.19
-3734.25
-3734.89
-3734.81
-5612.31
-5612.68
-5612.53
)
;
    }
}


// ************************************************************************* //
