/*--------------------------------*- C++ -*----------------------------------*\
| =========                 |                                                 |
| \\      /  F ield         | OpenFOAM: The Open Source CFD Toolbox           |
|  \\    /   O peration     | Version:  4.x                                   |
|   \\  /    A nd           | Web:      www.OpenFOAM.org                      |
|    \\/     M anipulation  |                                                 |
\*---------------------------------------------------------------------------*/
FoamFile
{
    version     2.0;
    format      ascii;
    class       volScalarField;
    location    "33";
    object      p_rgh;
}
// * * * * * * * * * * * * * * * * * * * * * * * * * * * * * * * * * * * * * //

dimensions      [1 -1 -2 0 0 0 0];

internalField   nonuniform List<scalar> 
87
(
81.8505
38.6776
81.6285
88.5857
38.6854
81.5211
111.954
93.7618
104.593
76.1533
96.8861
58.0019
89.1452
39.9948
81.6734
111.484
93.6633
104.293
75.8435
96.769
57.5574
89.255
39.2298
81.8785
110.795
93.3076
103.657
75.666
96.2882
57.4036
88.8024
39.1348
81.7096
111.88
93.8601
104.529
76.0474
96.9539
57.9884
89.422
39.7473
82.0862
111.329
93.6577
104.035
75.8841
96.4977
57.746
89.0333
39.4137
81.7599
110.76
93.3601
103.59
75.7442
96.1659
57.5858
88.7753
39.3483
81.6208
111.356
93.6509
104.09
75.9579
96.5516
57.8906
89.0766
39.5161
81.868
110.962
93.4863
103.742
75.8397
96.2592
57.6265
88.8133
39.4311
81.6382
110.517
93.3044
103.386
75.6932
96.0251
57.622
88.6319
39.496
81.5973
)
;

boundaryField
{
    inlet
    {
        type            fixedFluxPressure;
        gradient        nonuniform List<scalar> 9(4.94806e-05 4.92976e-05 5.25273e-05 9.25962e-05 9.34132e-05 0.000100971 0.00013901 0.000151405 0.000187282);
        value           nonuniform List<scalar> 9(111.954 111.484 110.795 111.88 111.329 110.76 111.356 110.962 110.517);
    }
    outlet
    {
        type            fixedValue;
        value           nonuniform 0();
    }
    wall
    {
        type            fixedFluxPressure;
        gradient        nonuniform List<scalar> 
57
(
-7.07486e-07
-2.55468e-06
-3.09032e-06
-3.7698e-06
-2.67943e-06
-2.21364e-06
-1.11903e-06
-1.6327e-06
-1.93644e-06
-4.68592e-06
-5.21593e-06
-1.61402e-06
9.18447e-07
3.23357e-07
-7.62828e-07
7.66411e-06
2.86174e-06
7.2736e-07
6.043e-06
4.33016e-06
1.07683e-06
1.88815e-05
-6.72442e-06
3.16444e-06
9.84476e-06
5.49078e-06
5.64861e-06
-1.9195e-06
2.42965e-08
-3.32076e-05
-7.25537e-06
3.00157e-05
-4.93564e-06
-4.21898e-06
-3.41628e-06
-2.36127e-06
-1.08487e-05
-8.31266e-06
-3.54314e-06
-4.52666e-06
-3.46655e-06
-1.86223e-06
-1.25046e-05
-4.40728e-06
-2.84762e-06
-1.9952e-06
-4.67491e-06
-3.8193e-06
-2.34993e-06
5.84537e-07
-5.54117e-06
-5.96146e-06
-1.1011e-05
-1.77719e-06
-5.21067e-06
-3.58609e-06
-2.80654e-06
)
;
        value           nonuniform List<scalar> 
57
(
111.356
110.962
110.517
93.6509
93.4863
93.3044
104.09
103.742
103.386
75.9579
75.8397
75.6932
96.5516
96.2592
96.0251
57.8906
57.6265
57.622
89.0766
88.8133
88.6319
39.5161
39.4311
39.496
81.868
81.6382
81.5973
110.795
110.76
110.517
93.3076
93.3601
93.3044
103.657
103.59
103.386
75.666
75.7442
75.6932
96.2882
96.1659
96.0251
57.4036
57.5858
57.622
88.5857
88.8024
88.7753
88.6319
38.6854
39.1348
39.3483
39.496
81.5211
81.7096
81.6208
81.5973
)
;
    }
    procBoundary6to0
    {
        type            processor;
        value           uniform 81.6797;
    }
    procBoundary6to2
    {
        type            processor;
        value           nonuniform List<scalar> 
32
(
81.7233
38.265
81.767
88.4233
38.252
81.4647
111.472
93.7081
104.255
75.701
96.7272
57.5699
89.2024
39.4361
39.4361
39.4361
111.059
93.4314
103.875
75.451
96.3862
57.203
88.89
88.89
88.89
110.413
93.0807
103.317
75.226
95.931
57.0348
57.0348
)
;
    }
    procBoundary6to4
    {
        type            processor;
        value           nonuniform List<scalar> 
27
(
111.856
94.0983
104.636
76.2633
96.9697
58.1777
89.2083
39.9734
81.6088
111.901
93.9907
104.577
76.1916
96.8485
57.8212
89.1655
39.2863
81.7653
111.516
93.6419
104.112
75.9314
96.413
57.5553
88.7361
39.2623
81.5399
)
;
    }
    procBoundary6to7
    {
        type            processor;
        value           nonuniform List<scalar> 
12
(
21.5255
20.0713
20.178
22.098
20.9236
20.7186
21.5692
20.9318
21.0164
21.4342
21.0634
21.212
)
;
    }
}


// ************************************************************************* //
