/*--------------------------------*- C++ -*----------------------------------*\
| =========                 |                                                 |
| \\      /  F ield         | OpenFOAM: The Open Source CFD Toolbox           |
|  \\    /   O peration     | Version:  4.x                                   |
|   \\  /    A nd           | Web:      www.OpenFOAM.org                      |
|    \\/     M anipulation  |                                                 |
\*---------------------------------------------------------------------------*/
FoamFile
{
    version     2.0;
    format      ascii;
    class       volScalarField;
    location    "33";
    object      particleRelTemp;
}
// * * * * * * * * * * * * * * * * * * * * * * * * * * * * * * * * * * * * * //

dimensions      [0 0 0 0 0 0 0];

internalField   nonuniform List<scalar> 
87
(
7.34967e-10
-6.29826e-11
3.85843e-10
-6.25496e-10
-3.0581e-10
-8.69457e-11
-1.85659e-09
-1.66247e-09
-1.38394e-09
-1.04344e-09
-6.86026e-10
-3.46087e-10
-6.08298e-11
2.73996e-10
6.82086e-10
-1.8689e-09
-1.73627e-09
-1.50461e-09
-1.20126e-09
-9.33508e-10
-6.17163e-10
-2.67981e-10
-6.89172e-11
2.94574e-10
-1.91861e-09
-1.76876e-09
-1.60445e-09
-1.31813e-09
-1.11461e-09
-8.076e-10
-5.83993e-10
-3.87407e-10
-4.02501e-11
-1.88808e-09
-1.69413e-09
-1.48654e-09
-1.19711e-09
-9.02866e-10
-5.75602e-10
-2.631e-10
6.39352e-11
3.62366e-10
-1.90325e-09
-1.7569e-09
-1.5836e-09
-1.31067e-09
-1.10106e-09
-7.64255e-10
-4.99438e-10
-3.08853e-10
8.17333e-11
-1.92791e-09
-1.79885e-09
-1.6238e-09
-1.4509e-09
-1.2118e-09
-1.01593e-09
-8.16578e-10
-5.76776e-10
-3.68283e-10
-1.90518e-09
-1.77236e-09
-1.57019e-09
-1.32199e-09
-1.08384e-09
-7.32447e-10
-4.58162e-10
-2.15447e-10
-1.20573e-10
-1.91387e-09
-1.82115e-09
-1.65311e-09
-1.44607e-09
-1.20419e-09
-9.52669e-10
-7.10857e-10
-5.0822e-10
-2.95893e-10
-1.95518e-09
-1.82053e-09
-1.70468e-09
-1.54285e-09
-1.38314e-09
-1.14042e-09
-1.04517e-09
-9.12272e-10
-6.4536e-10
)
;

boundaryField
{
    inlet
    {
        type            calculated;
        value           nonuniform List<scalar> 9(-1.85659e-09 -1.8689e-09 -1.91861e-09 -1.88808e-09 -1.90325e-09 -1.92791e-09 -1.90518e-09 -1.91387e-09 -1.95518e-09);
    }
    outlet
    {
        type            calculated;
        value           nonuniform 0();
    }
    wall
    {
        type            calculated;
        value           nonuniform List<scalar> 
57
(
-1.90518e-09
-1.91387e-09
-1.95518e-09
-1.77236e-09
-1.82115e-09
-1.82053e-09
-1.57019e-09
-1.65311e-09
-1.70468e-09
-1.32199e-09
-1.44607e-09
-1.54285e-09
-1.08384e-09
-1.20419e-09
-1.38314e-09
-7.32447e-10
-9.52669e-10
-1.14042e-09
-4.58162e-10
-7.10857e-10
-1.04517e-09
-2.15447e-10
-5.0822e-10
-9.12272e-10
-1.20573e-10
-2.95893e-10
-6.4536e-10
-1.91861e-09
-1.92791e-09
-1.95518e-09
-1.76876e-09
-1.79885e-09
-1.82053e-09
-1.60445e-09
-1.6238e-09
-1.70468e-09
-1.31813e-09
-1.4509e-09
-1.54285e-09
-1.11461e-09
-1.2118e-09
-1.38314e-09
-8.076e-10
-1.01593e-09
-1.14042e-09
-6.25496e-10
-5.83993e-10
-8.16578e-10
-1.04517e-09
-3.0581e-10
-3.87407e-10
-5.76776e-10
-9.12272e-10
-8.69457e-11
-4.02501e-11
-3.68283e-10
-6.4536e-10
)
;
    }
    procBoundary6to0
    {
        type            processor;
        value           uniform 8.61812e-10;
    }
    procBoundary6to2
    {
        type            processor;
        value           nonuniform List<scalar> 
32
(
4.39528e-10
-1.21038e-10
1.85167e-10
-6.87604e-10
-4.72784e-10
-2.19838e-10
-1.86664e-09
-1.63219e-09
-1.3845e-09
-1.11808e-09
-7.72046e-10
-3.55069e-10
3.61233e-11
5.31842e-10
5.31842e-10
5.31842e-10
-1.9093e-09
-1.70582e-09
-1.51789e-09
-1.21014e-09
-9.07427e-10
-5.73908e-10
-3.80901e-10
-3.80901e-10
-3.80901e-10
-1.93072e-09
-1.77264e-09
-1.56445e-09
-1.35512e-09
-1.10487e-09
-8.06878e-10
-8.06878e-10
)
;
    }
    procBoundary6to4
    {
        type            processor;
        value           nonuniform List<scalar> 
27
(
-1.87951e-09
-1.68764e-09
-1.39073e-09
-1.09523e-09
-6.63368e-10
-2.86571e-10
1.59211e-10
5.05268e-10
8.3805e-10
-1.88595e-09
-1.72531e-09
-1.44958e-09
-1.21293e-09
-8.38492e-10
-4.57929e-10
-1.34364e-10
2.25336e-10
5.043e-10
-1.89086e-09
-1.74924e-09
-1.54973e-09
-1.2674e-09
-1.00955e-09
-7.05516e-10
-3.86331e-10
-7.13364e-11
1.37605e-10
)
;
    }
    procBoundary6to7
    {
        type            processor;
        value           nonuniform List<scalar> 
12
(
1.06245e-09
7.40554e-10
3.19011e-10
1.05765e-09
6.88149e-10
2.28248e-10
5.89495e-10
2.72388e-10
-1.62421e-10
2.62025e-10
-1.18248e-10
-5.05129e-10
)
;
    }
}


// ************************************************************************* //
