/*--------------------------------*- C++ -*----------------------------------*\
| =========                 |                                                 |
| \\      /  F ield         | OpenFOAM: The Open Source CFD Toolbox           |
|  \\    /   O peration     | Version:  4.x                                   |
|   \\  /    A nd           | Web:      www.OpenFOAM.org                      |
|    \\/     M anipulation  |                                                 |
\*---------------------------------------------------------------------------*/
FoamFile
{
    version     2.0;
    format      ascii;
    class       volScalarField;
    location    "33";
    object      QPartFluid;
}
// * * * * * * * * * * * * * * * * * * * * * * * * * * * * * * * * * * * * * //

dimensions      [1 -1 -3 0 0 0 0];

internalField   nonuniform List<scalar> 
87
(
8.07118e+09
6.69551e+09
8.91013e+09
5.68758e+09
6.20291e+09
5.60558e+09
9.95756e+09
8.96064e+09
6.09709e+09
8.04106e+09
1.10864e+10
6.15608e+09
8.71985e+09
6.66195e+09
9.96913e+09
6.30627e+09
9.22323e+09
8.18862e+09
1.02437e+10
8.86968e+09
8.76994e+09
8.77451e+09
9.26298e+09
9.41701e+09
4.6804e+09
7.58711e+09
5.9658e+09
6.15381e+09
8.72458e+09
9.49971e+09
7.37487e+09
6.36765e+09
8.82206e+09
7.34955e+09
9.00402e+09
9.66099e+09
8.63736e+09
6.67148e+09
7.89098e+09
7.93004e+09
6.08624e+09
9.55258e+09
5.37516e+09
8.87538e+09
8.85086e+09
8.04647e+09
7.9511e+09
6.5729e+09
1.00399e+10
6.60982e+09
9.98282e+09
4.81114e+09
6.67895e+09
6.18153e+09
7.84512e+09
8.22614e+09
6.18213e+09
7.64116e+09
6.46239e+09
6.89751e+09
4.91294e+09
5.40353e+09
7.4306e+09
7.01397e+09
7.16487e+09
6.48194e+09
1.02796e+10
8.63512e+09
4.51999e+09
5.19851e+09
5.83197e+09
7.63004e+09
6.18736e+09
9.67426e+09
6.71494e+09
7.20764e+09
6.09528e+09
8.47333e+09
4.24889e+09
6.1346e+09
6.76737e+09
6.33634e+09
5.24408e+09
8.48962e+09
5.61786e+09
5.64949e+09
7.19827e+09
)
;

boundaryField
{
    inlet
    {
        type            calculated;
        value           uniform 0;
    }
    outlet
    {
        type            calculated;
        value           nonuniform 0();
    }
    wall
    {
        type            calculated;
        value           uniform 0;
    }
    procBoundary6to0
    {
        type            processor;
        value           uniform 2.58419e+09;
    }
    procBoundary6to2
    {
        type            processor;
        value           nonuniform List<scalar> 
32
(
5.78026e+09
8.52788e+09
1.02722e+10
9.72377e+09
5.39544e+09
7.76651e+09
4.89753e+09
9.48523e+09
1.02999e+10
7.17112e+09
8.23722e+09
6.28024e+09
7.57241e+09
7.55125e+09
7.55125e+09
7.55125e+09
5.87263e+09
7.89997e+09
1.05205e+10
6.59263e+09
9.10949e+09
7.6429e+09
1.02999e+10
1.02999e+10
1.02999e+10
4.25869e+09
6.30057e+09
7.50928e+09
7.23916e+09
6.74404e+09
6.4738e+09
6.4738e+09
)
;
    }
    procBoundary6to4
    {
        type            processor;
        value           nonuniform List<scalar> 
27
(
3.45658e+09
6.72614e+09
9.38955e+09
5.69395e+09
8.77517e+09
6.64415e+09
1.09866e+10
5.97294e+09
7.04465e+09
6.204e+09
8.58082e+09
7.5397e+09
9.64299e+09
1.05164e+10
7.60747e+09
1.1829e+10
8.47627e+09
8.12255e+09
7.25333e+09
7.00785e+09
6.6976e+09
7.96492e+09
8.43248e+09
9.51299e+09
4.96382e+09
5.15882e+09
7.0647e+09
)
;
    }
    procBoundary6to7
    {
        type            processor;
        value           nonuniform List<scalar> 
12
(
7.48923e+09
5.20633e+09
7.04257e+09
3.84279e+09
6.00914e+09
6.79615e+09
8.51705e+09
8.22197e+09
6.05188e+09
7.194e+09
6.33121e+09
6.10135e+09
)
;
    }
}


// ************************************************************************* //
