/*--------------------------------*- C++ -*----------------------------------*\
| =========                 |                                                 |
| \\      /  F ield         | OpenFOAM: The Open Source CFD Toolbox           |
|  \\    /   O peration     | Version:  4.x                                   |
|   \\  /    A nd           | Web:      www.OpenFOAM.org                      |
|    \\/     M anipulation  |                                                 |
\*---------------------------------------------------------------------------*/
FoamFile
{
    version     2.0;
    format      ascii;
    class       volScalarField;
    location    "33";
    object      QWallFluid;
}
// * * * * * * * * * * * * * * * * * * * * * * * * * * * * * * * * * * * * * //

dimensions      [1 -1 -3 0 0 0 0];

internalField   nonuniform List<scalar> 
87
(
0
0
0
8.67168e+08
4.73204e+08
8.80572e+08
0
0
0
0
0
0
0
0
0
0
0
0
0
0
0
0
0
0
8.27699e+08
4.10371e+08
8.33061e+08
4.23036e+08
8.32048e+08
4.16134e+08
8.36242e+08
4.11308e+08
8.39523e+08
0
0
0
0
0
0
0
0
0
0
0
0
0
0
0
0
0
0
8.25294e+08
4.30077e+08
8.41553e+08
4.6076e+08
8.49547e+08
4.78356e+08
8.60885e+08
4.8816e+08
8.71812e+08
8.1658e+08
4.08044e+08
8.17661e+08
4.03403e+08
8.17046e+08
3.93909e+08
8.15626e+08
3.69549e+08
8.22519e+08
8.21287e+08
4.30989e+08
8.34514e+08
4.57856e+08
8.4371e+08
4.72973e+08
8.54395e+08
4.76512e+08
8.62339e+08
1.65738e+09
9.0946e+08
1.71212e+09
1.02628e+09
1.76945e+09
1.10893e+09
1.81188e+09
1.16193e+09
1.83281e+09
)
;

boundaryField
{
    inlet
    {
        type            calculated;
        value           uniform 0;
    }
    outlet
    {
        type            calculated;
        value           nonuniform 0();
    }
    wall
    {
        type            calculated;
        value           uniform 0;
    }
    procBoundary6to0
    {
        type            processor;
        value           uniform 0;
    }
    procBoundary6to2
    {
        type            processor;
        value           nonuniform List<scalar> 
32
(
0
0
0
8.79843e+08
4.88563e+08
8.98641e+08
0
0
0
0
0
0
0
0
0
0
0
0
0
0
0
0
0
0
0
8.28949e+08
4.16195e+08
8.40708e+08
4.39668e+08
8.53228e+08
4.58952e+08
4.58952e+08
)
;
    }
    procBoundary6to4
    {
        type            processor;
        value           nonuniform List<scalar> 
27
(
0
0
0
0
0
0
0
0
0
0
0
0
0
0
0
0
0
0
8.07921e+08
3.93479e+08
8.11022e+08
3.88568e+08
8.16035e+08
3.97612e+08
8.32537e+08
4.19882e+08
8.49261e+08
)
;
    }
    procBoundary6to7
    {
        type            processor;
        value           nonuniform List<scalar> 
12
(
0
0
4.69922e+08
0
0
3.85506e+08
0
0
4.91503e+08
3.34639e+08
4.69473e+08
1.16509e+09
)
;
    }
}


// ************************************************************************* //
