/*--------------------------------*- C++ -*----------------------------------*\
| =========                 |                                                 |
| \\      /  F ield         | OpenFOAM: The Open Source CFD Toolbox           |
|  \\    /   O peration     | Version:  4.x                                   |
|   \\  /    A nd           | Web:      www.OpenFOAM.org                      |
|    \\/     M anipulation  |                                                 |
\*---------------------------------------------------------------------------*/
FoamFile
{
    version     2.0;
    format      ascii;
    class       volVectorField;
    location    "33";
    object      UsNext;
}
// * * * * * * * * * * * * * * * * * * * * * * * * * * * * * * * * * * * * * //

dimensions      [0 1 -1 0 0 0 0];

internalField   nonuniform List<vector> 
87
(
(2.00749e-09 -7.55456e-10 5.39298e-09)
(7.84424e-10 -1.11767e-09 3.18792e-09)
(1.14538e-09 -6.95102e-10 4.60291e-09)
(-1.21027e-10 -2.86419e-10 8.0041e-10)
(3.66679e-10 3.96119e-11 2.21351e-09)
(2.76525e-10 -2.60705e-10 2.30362e-09)
(9.61138e-11 -6.65423e-10 -7.90194e-10)
(5.75637e-10 -1.57957e-09 -1.25911e-09)
(1.59193e-11 -2.06905e-09 -1.27357e-09)
(-1.80478e-10 -2.25694e-09 -8.0589e-10)
(-1.24164e-09 -2.32629e-09 -1.59008e-10)
(-1.98013e-10 -2.03524e-09 1.48957e-09)
(-1.84752e-10 -2.32015e-09 2.2759e-09)
(7.6486e-10 -2.39961e-09 3.53569e-09)
(2.31031e-09 -1.51601e-09 3.89828e-09)
(5.78572e-10 -5.64987e-10 -6.90429e-10)
(1.32299e-09 -1.19886e-09 -1.24956e-09)
(1.32429e-10 -1.62571e-09 -1.13755e-09)
(-1.64523e-10 -1.64547e-09 -8.70853e-10)
(-7.18949e-10 -1.68419e-09 -1.56964e-10)
(-3.64876e-10 -1.4945e-09 6.55125e-10)
(-4.78631e-10 -1.97832e-09 1.60932e-09)
(6.53961e-11 -1.81139e-09 2.41898e-09)
(1.87059e-10 -1.29231e-09 3.06986e-09)
(-1.74898e-11 -2.72292e-10 -7.30714e-11)
(1.90956e-09 -4.22177e-10 -1.05226e-09)
(4.11006e-11 -5.87133e-10 -6.60321e-10)
(1.51557e-10 -6.43939e-10 -4.67132e-10)
(-3.43479e-10 -6.15335e-10 -2.60622e-10)
(-7.72609e-11 -7.17257e-10 2.66485e-10)
(-2.71653e-10 -6.41809e-10 5.58708e-10)
(-2.2237e-10 -3.17766e-10 9.63413e-10)
(-1.06279e-09 -7.20909e-10 1.69039e-09)
(-1.11734e-10 -5.83919e-10 -3.36853e-10)
(6.19183e-10 -1.24843e-09 -6.59767e-10)
(1.64683e-10 -1.36954e-09 -4.80352e-10)
(2.63719e-10 -1.24255e-09 -4.92821e-10)
(-1.40257e-10 -1.28956e-09 -8.73892e-11)
(3.93487e-10 -1.60121e-09 7.61025e-10)
(7.97538e-11 -1.82082e-09 1.54804e-09)
(1.51767e-09 -2.28466e-09 2.56263e-09)
(2.5199e-09 -1.85151e-09 2.88341e-09)
(2.07767e-10 -4.18174e-10 -5.06753e-10)
(7.06351e-10 -8.45242e-10 -5.90233e-10)
(3.45233e-12 -1.11037e-09 -7.19911e-10)
(4.41173e-11 -1.083e-09 -4.15358e-10)
(-5.54462e-10 -9.7291e-10 -2.27666e-10)
(6.82352e-11 -1.11532e-09 4.53625e-10)
(-9.12552e-10 -1.43113e-09 8.83545e-10)
(1.40677e-09 -5.6372e-09 7.31303e-10)
(-4.30132e-10 -1.94274e-09 2.26972e-09)
(-1.4545e-09 3.45441e-12 -5.27476e-11)
(5.30551e-09 1.87339e-09 -1.05304e-10)
(-1.82976e-10 -4.85933e-10 -6.69235e-10)
(1.14737e-10 -5.53644e-10 -3.76381e-10)
(-2.17426e-10 -4.90048e-10 -1.69672e-10)
(6.39366e-11 -3.05407e-10 1.26128e-10)
(-7.00986e-10 -5.47268e-10 3.15825e-10)
(-4.00002e-10 -4.24697e-10 9.12001e-10)
(-2.60302e-09 -5.23943e-10 1.42952e-09)
(3.30531e-11 -5.28895e-10 -9.77647e-11)
(1.8312e-10 -9.21248e-10 -2.17794e-10)
(2.41576e-10 -9.11554e-10 -1.50876e-10)
(4.15421e-10 -5.60487e-10 -2.62273e-10)
(-8.30341e-12 -7.49534e-10 1.23371e-10)
(2.01898e-10 -9.04322e-10 4.15565e-10)
(-7.65628e-10 -2.70817e-09 8.0462e-10)
(2.11296e-09 -1.89897e-09 9.52752e-10)
(2.52053e-09 -2.50986e-09 1.35124e-09)
(-3.81069e-09 -2.27778e-09 -3.60626e-10)
(4.21896e-10 -5.10841e-10 -1.67324e-10)
(-2.92929e-10 -3.55283e-10 -2.28634e-10)
(6.21725e-10 -6.13769e-10 -3.44406e-10)
(-2.1831e-10 -6.32662e-10 4.52847e-11)
(8.52764e-11 -5.97413e-10 1.95593e-10)
(-4.26006e-09 -5.15746e-09 6.14861e-10)
(4.35868e-09 -8.46929e-09 -4.66026e-10)
(-2.71986e-10 -2.15442e-09 7.94781e-10)
(-1.38707e-08 -4.80594e-09 -4.47243e-10)
(9.42568e-12 -3.34931e-10 -1.50217e-10)
(-3.76237e-11 -3.47124e-10 -2.84671e-10)
(2.38728e-10 -2.74354e-10 -1.24978e-10)
(3.32258e-11 -2.82631e-10 -1.15775e-10)
(2.02777e-10 -2.39624e-10 6.12065e-11)
(-5.01116e-11 -3.63693e-10 1.66659e-10)
(2.92274e-10 -9.85002e-10 2.83078e-10)
(-9.14093e-10 -4.40666e-10 8.8691e-10)
)
;

boundaryField
{
    inlet
    {
        type            calculated;
        value           nonuniform List<vector> 9((9.61138e-11 -6.65423e-10 -7.90194e-10) (5.78572e-10 -5.64987e-10 -6.90429e-10) (-1.74898e-11 -2.72292e-10 -7.30714e-11) (-1.11734e-10 -5.83919e-10 -3.36853e-10) (2.07767e-10 -4.18174e-10 -5.06753e-10) (-1.4545e-09 3.45441e-12 -5.27476e-11) (3.30531e-11 -5.28895e-10 -9.77647e-11) (-3.81069e-09 -2.27778e-09 -3.60626e-10) (-1.38707e-08 -4.80594e-09 -4.47243e-10));
    }
    outlet
    {
        type            calculated;
        value           nonuniform 0();
    }
    wall
    {
        type            calculated;
        value           nonuniform List<vector> 
57
(
(3.30531e-11 -5.28895e-10 -9.77647e-11)
(-3.81069e-09 -2.27778e-09 -3.60626e-10)
(-1.38707e-08 -4.80594e-09 -4.47243e-10)
(1.8312e-10 -9.21248e-10 -2.17794e-10)
(4.21896e-10 -5.10841e-10 -1.67324e-10)
(9.42568e-12 -3.34931e-10 -1.50217e-10)
(2.41576e-10 -9.11554e-10 -1.50876e-10)
(-2.92929e-10 -3.55283e-10 -2.28634e-10)
(-3.76237e-11 -3.47124e-10 -2.84671e-10)
(4.15421e-10 -5.60487e-10 -2.62273e-10)
(6.21725e-10 -6.13769e-10 -3.44406e-10)
(2.38728e-10 -2.74354e-10 -1.24978e-10)
(-8.30341e-12 -7.49534e-10 1.23371e-10)
(-2.1831e-10 -6.32662e-10 4.52847e-11)
(3.32258e-11 -2.82631e-10 -1.15775e-10)
(2.01898e-10 -9.04322e-10 4.15565e-10)
(8.52764e-11 -5.97413e-10 1.95593e-10)
(2.02777e-10 -2.39624e-10 6.12065e-11)
(-7.65628e-10 -2.70817e-09 8.0462e-10)
(-4.26006e-09 -5.15746e-09 6.14861e-10)
(-5.01116e-11 -3.63693e-10 1.66659e-10)
(2.11296e-09 -1.89897e-09 9.52752e-10)
(4.35868e-09 -8.46929e-09 -4.66026e-10)
(2.92274e-10 -9.85002e-10 2.83078e-10)
(2.52053e-09 -2.50986e-09 1.35124e-09)
(-2.71986e-10 -2.15442e-09 7.94781e-10)
(-9.14093e-10 -4.40666e-10 8.8691e-10)
(-1.74898e-11 -2.72292e-10 -7.30714e-11)
(-1.4545e-09 3.45441e-12 -5.27476e-11)
(-1.38707e-08 -4.80594e-09 -4.47243e-10)
(1.90956e-09 -4.22177e-10 -1.05226e-09)
(5.30551e-09 1.87339e-09 -1.05304e-10)
(9.42568e-12 -3.34931e-10 -1.50217e-10)
(4.11006e-11 -5.87133e-10 -6.60321e-10)
(-1.82976e-10 -4.85933e-10 -6.69235e-10)
(-3.76237e-11 -3.47124e-10 -2.84671e-10)
(1.51557e-10 -6.43939e-10 -4.67132e-10)
(1.14737e-10 -5.53644e-10 -3.76381e-10)
(2.38728e-10 -2.74354e-10 -1.24978e-10)
(-3.43479e-10 -6.15335e-10 -2.60622e-10)
(-2.17426e-10 -4.90048e-10 -1.69672e-10)
(3.32258e-11 -2.82631e-10 -1.15775e-10)
(-7.72609e-11 -7.17257e-10 2.66485e-10)
(6.39366e-11 -3.05407e-10 1.26128e-10)
(2.02777e-10 -2.39624e-10 6.12065e-11)
(-1.21027e-10 -2.86419e-10 8.0041e-10)
(-2.71653e-10 -6.41809e-10 5.58708e-10)
(-7.00986e-10 -5.47268e-10 3.15825e-10)
(-5.01116e-11 -3.63693e-10 1.66659e-10)
(3.66679e-10 3.96119e-11 2.21351e-09)
(-2.2237e-10 -3.17766e-10 9.63413e-10)
(-4.00002e-10 -4.24697e-10 9.12001e-10)
(2.92274e-10 -9.85002e-10 2.83078e-10)
(2.76525e-10 -2.60705e-10 2.30362e-09)
(-1.06279e-09 -7.20909e-10 1.69039e-09)
(-2.60302e-09 -5.23943e-10 1.42952e-09)
(-9.14093e-10 -4.40666e-10 8.8691e-10)
)
;
    }
    procBoundary6to0
    {
        type            processor;
        value           uniform (3.33242e-09 -4.28348e-10 7.07617e-09);
    }
    procBoundary6to2
    {
        type            processor;
        value           nonuniform List<vector> 
32
(
(2.16713e-09 -6.19125e-10 7.14111e-09)
(1.52508e-09 -1.02646e-09 4.46439e-09)
(1.20376e-09 3.77858e-10 5.47545e-09)
(-3.02913e-11 -7.3974e-10 1.28425e-09)
(5.50331e-10 -2.29905e-10 2.42354e-09)
(2.98004e-10 4.08139e-10 3.3989e-09)
(6.90598e-11 -6.53235e-10 -1.01566e-09)
(7.81702e-10 -1.59891e-09 -1.97114e-09)
(5.90022e-10 -2.42186e-09 -2.46077e-09)
(3.35688e-10 -2.73994e-09 -1.9195e-09)
(1.63713e-11 -2.95281e-09 -4.23748e-10)
(6.37867e-11 -2.33686e-09 1.48327e-09)
(4.349e-10 -2.64107e-09 3.18408e-09)
(1.96489e-09 -1.50043e-09 4.61732e-09)
(1.96489e-09 -1.50043e-09 4.61732e-09)
(1.96489e-09 -1.50043e-09 4.61732e-09)
(1.09085e-10 -4.40873e-10 -7.9021e-10)
(1.61318e-09 -1.33481e-09 -2.14417e-09)
(5.47383e-10 -1.39137e-09 -2.16408e-09)
(5.01274e-10 -1.89944e-09 -1.94654e-09)
(-3.51025e-10 -2.08139e-09 -4.94586e-10)
(2.12618e-10 -1.96255e-09 1.04167e-09)
(2.99092e-10 -1.43442e-09 1.90167e-09)
(2.99092e-10 -1.43442e-09 1.90167e-09)
(2.99092e-10 -1.43442e-09 1.90167e-09)
(1.8201e-10 -2.96936e-10 -5.03562e-10)
(1.19565e-09 -9.17524e-10 -1.51072e-09)
(1.11019e-09 -1.3544e-09 -1.67858e-09)
(9.6761e-10 -6.51946e-10 -7.9857e-10)
(-1.19987e-10 -1.02998e-09 -5.54273e-10)
(1.70759e-10 -6.94731e-10 3.91045e-10)
(1.70759e-10 -6.94731e-10 3.91045e-10)
)
;
    }
    procBoundary6to4
    {
        type            processor;
        value           nonuniform List<vector> 
27
(
(7.00149e-11 -6.4071e-10 -7.50335e-10)
(7.85573e-10 -1.53313e-09 -1.03309e-09)
(3.68316e-10 -2.24045e-09 -1.0002e-09)
(7.38898e-10 -2.48095e-09 -1.12529e-10)
(2.58844e-10 -2.46275e-09 7.14535e-10)
(5.96677e-10 -2.11716e-09 1.61181e-09)
(1.72893e-09 -1.60078e-09 2.95371e-09)
(3.25479e-09 -1.63575e-09 3.6076e-09)
(4.1083e-09 -1.40225e-09 4.04877e-09)
(-1.03165e-10 -4.65073e-10 -2.85626e-10)
(4.75777e-10 -1.04221e-09 -5.17939e-10)
(3.14642e-10 -1.42795e-09 -5.34905e-10)
(5.05275e-10 -1.40008e-09 -2.15411e-10)
(3.18097e-10 -1.36473e-09 4.26285e-10)
(1.30206e-09 -1.60173e-09 1.07793e-09)
(1.72245e-09 -1.22454e-09 2.13465e-09)
(3.59341e-09 -1.23126e-09 2.20344e-09)
(5.36803e-09 -1.27023e-09 3.33944e-09)
(-1.07903e-10 -2.77974e-10 -1.92433e-10)
(3.8844e-10 -3.36661e-10 -1.3152e-10)
(-1.46121e-12 -8.45437e-10 -8.77862e-11)
(5.6598e-10 -7.48891e-10 3.07113e-11)
(3.55058e-10 -7.40474e-10 2.05746e-10)
(8.33091e-10 -6.01155e-10 5.62573e-10)
(1.3138e-09 -9.37955e-10 5.82194e-10)
(2.40906e-08 -1.44129e-08 9.27984e-10)
(3.9203e-09 -1.69496e-09 1.72197e-09)
)
;
    }
    procBoundary6to7
    {
        type            processor;
        value           nonuniform List<vector> 
12
(
(3.56519e-09 -5.0352e-10 5.91994e-09)
(1.99163e-09 -1.18292e-09 3.74465e-09)
(1.07584e-09 -1.93156e-09 1.33949e-09)
(2.95721e-09 -9.9357e-10 4.72307e-09)
(1.23658e-09 -1.04806e-09 3.47262e-09)
(-3.02861e-10 -9.42359e-10 9.22832e-10)
(3.24908e-09 -1.1276e-09 3.01404e-09)
(-4.95475e-10 -1.55465e-09 2.16514e-09)
(-6.86425e-10 -5.35122e-10 9.91966e-10)
(3.48669e-09 -9.6967e-10 1.48975e-09)
(-2.74886e-10 -1.73633e-09 7.01483e-10)
(-3.36085e-10 -5.70122e-10 3.22738e-10)
)
;
    }
}


// ************************************************************************* //
