/*--------------------------------*- C++ -*----------------------------------*\
| =========                 |                                                 |
| \\      /  F ield         | OpenFOAM: The Open Source CFD Toolbox           |
|  \\    /   O peration     | Version:  4.x                                   |
|   \\  /    A nd           | Web:      www.OpenFOAM.org                      |
|    \\/     M anipulation  |                                                 |
\*---------------------------------------------------------------------------*/
FoamFile
{
    version     2.0;
    format      ascii;
    class       volVectorField;
    location    "29.5";
    object      ddtUrel;
}
// * * * * * * * * * * * * * * * * * * * * * * * * * * * * * * * * * * * * * //

dimensions      [0 1 -2 0 0 0 0];

internalField   nonuniform List<vector> 
108
(
(1.81701e-08 1.38589e-09 -5.60027e-10)
(2.10807e-08 1.26789e-09 -1.07532e-09)
(2.57293e-08 1.04718e-09 -1.83263e-09)
(2.94049e-08 7.23798e-10 -2.22209e-09)
(3.19106e-08 -6.92208e-10 -3.14068e-09)
(3.50652e-08 -2.44019e-09 -4.88855e-09)
(3.64198e-08 -5.63629e-09 -7.20906e-09)
(3.44692e-08 -8.63992e-09 -9.36345e-09)
(2.95687e-08 -1.21848e-08 -1.22932e-08)
(1.89883e-08 1.65735e-09 -4.77996e-10)
(2.23603e-08 1.52317e-09 -1.17466e-09)
(2.67207e-08 1.49002e-09 -2.02769e-09)
(3.09697e-08 9.76101e-10 -2.74229e-09)
(3.44269e-08 -8.85888e-11 -4.3353e-09)
(3.74437e-08 -2.19747e-09 -6.45105e-09)
(3.91572e-08 -5.022e-09 -9.46421e-09)
(4.03862e-08 -8.12143e-09 -1.20118e-08)
(4.5434e-08 -1.42714e-08 -1.59343e-08)
(1.94098e-08 1.92814e-09 -6.89268e-10)
(2.34938e-08 1.9623e-09 -1.13868e-09)
(2.94294e-08 2.0297e-09 -2.11879e-09)
(3.46772e-08 1.843e-09 -3.714e-09)
(3.95763e-08 6.46855e-10 -6.36425e-09)
(4.45048e-08 -1.59092e-09 -9.13963e-09)
(4.75526e-08 -5.67592e-09 -1.23268e-08)
(4.90218e-08 -9.42014e-09 -1.61096e-08)
(5.15033e-08 -1.73824e-08 -2.00817e-08)
(1.88808e-08 2.2255e-09 -1.31285e-09)
(2.45157e-08 2.27683e-09 -1.46088e-09)
(3.15987e-08 2.42014e-09 -2.52049e-09)
(3.80728e-08 2.39087e-09 -5.36392e-09)
(4.34946e-08 1.72295e-09 -8.98798e-09)
(4.9854e-08 -1.61127e-09 -1.18569e-08)
(5.13905e-08 -6.77281e-09 -1.57538e-08)
(5.44583e-08 -9.39188e-09 -1.89172e-08)
(5.97203e-08 -1.57994e-08 -2.16684e-08)
(1.61559e-08 1.18443e-09 -8.73814e-10)
(1.80435e-08 1.09401e-09 -1.21551e-09)
(2.25525e-08 9.23618e-10 -1.75682e-09)
(2.63697e-08 5.76577e-10 -2.25899e-09)
(3.03965e-08 -2.22665e-10 -2.96807e-09)
(3.39149e-08 -1.53663e-09 -3.98915e-09)
(3.4822e-08 -3.51739e-09 -4.97804e-09)
(3.34785e-08 -5.81398e-09 -5.54186e-09)
(3.21808e-08 -8.5882e-09 -6.68943e-09)
(1.63437e-08 1.38929e-09 -8.70824e-10)
(1.90848e-08 1.39805e-09 -1.35501e-09)
(2.37588e-08 1.30603e-09 -2.00445e-09)
(2.8482e-08 1.11662e-09 -2.62191e-09)
(3.3319e-08 5.56189e-10 -3.64318e-09)
(3.73139e-08 -6.08011e-10 -5.04541e-09)
(3.96281e-08 -2.82078e-09 -6.61344e-09)
(3.9015e-08 -5.65613e-09 -7.70794e-09)
(4.02578e-08 -8.41055e-09 -8.91369e-09)
(1.69241e-08 1.78611e-09 -1.19507e-09)
(2.04938e-08 1.87808e-09 -1.66713e-09)
(2.62283e-08 1.90603e-09 -2.29486e-09)
(3.20918e-08 1.80519e-09 -3.23264e-09)
(3.80363e-08 1.41551e-09 -4.89674e-09)
(4.35618e-08 4.55108e-10 -6.70201e-09)
(4.57351e-08 -1.72263e-09 -8.7699e-09)
(4.57379e-08 -4.86528e-09 -1.07159e-08)
(4.80445e-08 -9.19971e-09 -1.15947e-08)
(1.74603e-08 2.31067e-09 -1.96667e-09)
(2.19273e-08 2.3201e-09 -2.10574e-09)
(2.8379e-08 2.38418e-09 -2.62296e-09)
(3.50054e-08 2.44078e-09 -4.27308e-09)
(4.143e-08 2.4475e-09 -6.77108e-09)
(4.75902e-08 1.5277e-09 -8.90354e-09)
(4.94909e-08 -7.18001e-10 -1.09782e-08)
(5.16029e-08 -3.48611e-09 -1.36459e-08)
(5.58229e-08 -7.99962e-09 -1.61657e-08)
(1.4322e-08 1.0147e-09 -1.01159e-09)
(1.63812e-08 9.78942e-10 -1.34629e-09)
(2.02732e-08 8.01869e-10 -1.94678e-09)
(2.46097e-08 5.03551e-10 -2.42815e-09)
(2.87127e-08 -9.26405e-12 -2.92441e-09)
(3.27124e-08 -8.00842e-10 -3.62108e-09)
(3.46015e-08 -2.52987e-09 -4.35356e-09)
(3.24611e-08 -4.36042e-09 -4.67426e-09)
(3.26092e-08 -5.44978e-09 -4.87692e-09)
(1.47431e-08 1.24501e-09 -1.1681e-09)
(1.71625e-08 1.28622e-09 -1.59949e-09)
(2.16191e-08 1.18057e-09 -2.13875e-09)
(2.6186e-08 1.01045e-09 -2.80137e-09)
(3.10773e-08 5.95873e-10 -3.39389e-09)
(3.63297e-08 2.8923e-10 -4.53989e-09)
(3.81943e-08 -1.90913e-09 -5.42258e-09)
(3.69472e-08 -3.74861e-09 -6.17148e-09)
(3.75916e-08 -5.36401e-09 -5.93827e-09)
(1.56662e-08 1.65595e-09 -1.52555e-09)
(1.878e-08 1.80711e-09 -1.95578e-09)
(2.37425e-08 1.89631e-09 -2.48587e-09)
(2.9559e-08 1.80136e-09 -3.30372e-09)
(3.54443e-08 1.50427e-09 -4.33698e-09)
(4.11156e-08 1.42543e-09 -5.88789e-09)
(4.33049e-08 -8.20202e-11 -7.15349e-09)
(4.15895e-08 -2.26834e-09 -7.72809e-09)
(4.18983e-08 -4.59351e-09 -8.40634e-09)
(1.6589e-08 2.28895e-09 -2.36852e-09)
(2.03565e-08 2.41988e-09 -2.38071e-09)
(2.6479e-08 2.62088e-09 -2.79113e-09)
(3.33481e-08 2.43199e-09 -4.00632e-09)
(4.00271e-08 2.57569e-09 -5.73234e-09)
(4.53527e-08 2.27494e-09 -7.51503e-09)
(4.70374e-08 1.63484e-09 -8.95779e-09)
(4.59737e-08 -7.27526e-10 -1.16057e-08)
(4.48913e-08 -4.17911e-09 -1.26296e-08)
)
;

boundaryField
{
    inlet
    {
        type            calculated;
        value           nonuniform List<vector> 
12
(
(3.14206e-09 3.86183e-10 1.90288e-09)
(3.91502e-09 1.18968e-09 3.418e-09)
(5.78951e-09 1.75983e-09 4.1254e-09)
(5.43118e-09 2.06066e-09 4.58229e-09)
(3.72712e-09 3.97776e-10 1.74972e-09)
(3.91059e-09 1.0568e-09 2.11713e-09)
(2.53339e-09 9.03125e-10 1.65738e-09)
(3.84268e-09 1.59542e-09 2.10666e-09)
(2.44722e-09 1.47269e-10 1.05604e-10)
(4.37498e-09 4.17582e-10 -9.27881e-11)
(1.52434e-09 2.13225e-10 3.8991e-10)
(4.01488e-09 7.82944e-10 5.18171e-10)
)
;
    }
    outlet
    {
        type            calculated;
        value           nonuniform 0();
    }
    wall
    {
        type            calculated;
        value           nonuniform List<vector> 
63
(
(2.35539e-09 1.40748e-10 4.73287e-11)
(4.53505e-09 3.95456e-10 -1.8768e-10)
(7.50402e-10 1.4954e-10 3.483e-10)
(2.83819e-09 6.08246e-10 3.46405e-10)
(4.24463e-09 3.92199e-10 1.65164e-11)
(4.83452e-09 8.3716e-10 -2.88041e-11)
(5.74592e-09 1.21848e-09 -4.52763e-11)
(6.10329e-09 2.15588e-09 -3.84686e-11)
(7.58269e-09 4.028e-10 -2.40909e-10)
(7.92202e-09 9.75166e-10 -9.96227e-12)
(6.76496e-09 1.98801e-09 8.55949e-11)
(1.47187e-08 3.28183e-09 -3.68972e-10)
(8.80137e-09 1.56003e-10 -3.32967e-10)
(9.62752e-09 1.12959e-09 4.76238e-11)
(1.13094e-08 1.94534e-09 -1.08325e-10)
(1.49241e-08 1.69661e-09 -5.73009e-10)
(1.06454e-08 5.99755e-10 -5.8367e-10)
(1.04451e-08 2.36154e-10 -4.31627e-10)
(1.50862e-08 3.72277e-10 4.9217e-10)
(2.82706e-08 1.40468e-09 -1.53327e-09)
(1.78272e-08 1.39645e-09 -1.12693e-09)
(2.67766e-08 5.62446e-09 -2.90115e-09)
(3.45702e-08 4.01306e-09 -1.9496e-09)
(3.23696e-08 2.35517e-09 -2.13393e-09)
(3.21654e-08 5.66388e-11 -1.88883e-09)
(2.65586e-08 -3.77547e-09 1.03601e-10)
(4.4392e-08 2.1365e-09 -2.91746e-09)
(2.5267e-08 6.80042e-09 -2.43775e-09)
(7.58305e-09 -3.78048e-09 1.46923e-09)
(1.36757e-08 -8.31089e-10 -2.86683e-09)
(2.38474e-08 -9.66517e-10 2.94359e-09)
(2.81221e-08 8.93417e-09 -1.70247e-09)
(1.58469e-08 2.46786e-09 -1.32293e-09)
(3.27736e-08 3.82329e-09 -4.75338e-09)
(2.10494e-08 -1.01968e-09 -1.35755e-09)
(4.8471e-08 -1.30433e-09 -3.98614e-09)
(2.9208e-09 3.75393e-10 1.50991e-09)
(3.34733e-09 3.87226e-10 1.44863e-09)
(1.97622e-09 1.49607e-10 7.76232e-11)
(5.3064e-09 5.11804e-10 1.26657e-09)
(5.4234e-09 4.9187e-10 1.2625e-09)
(4.18167e-09 3.79296e-10 1.21759e-10)
(9.18386e-09 9.43059e-10 5.85226e-10)
(9.2306e-09 7.48417e-10 7.86587e-10)
(6.82839e-09 3.75638e-10 -1.16025e-10)
(1.44392e-08 1.66003e-09 2.48706e-09)
(1.12651e-08 7.54588e-10 4.74239e-10)
(8.29091e-09 1.59267e-10 -2.37273e-10)
(1.21946e-08 2.32667e-09 3.03552e-09)
(1.32778e-08 4.45272e-10 -3.14918e-10)
(1.04019e-08 6.31958e-10 -4.94872e-10)
(2.36494e-08 4.24863e-09 -2.43221e-09)
(2.01112e-08 1.40043e-09 -1.64038e-10)
(1.69791e-08 1.10027e-09 -9.26009e-10)
(4.15612e-08 1.17417e-09 3.38734e-09)
(2.18053e-08 -1.64624e-09 6.79657e-09)
(2.40304e-08 -1.16392e-09 -2.2773e-10)
(3.43242e-08 -9.33946e-09 6.67385e-09)
(4.15472e-08 -5.41943e-09 1.28203e-08)
(1.04578e-08 -4.73186e-09 2.50423e-09)
(2.31591e-08 1.29378e-10 -6.20867e-10)
(1.61412e-08 8.59666e-10 -2.39922e-09)
(1.84126e-08 3.69617e-09 -1.74729e-09)
)
;
    }
    procBoundary4to0
    {
        type            processor;
        value           nonuniform List<vector> 
36
(
(1.98188e-08 1.52535e-09 -2.98249e-11)
(2.26723e-08 1.3695e-09 -5.83722e-10)
(2.67155e-08 8.60462e-10 -1.33382e-09)
(3.07056e-08 3.67696e-10 -1.92438e-09)
(3.29056e-08 -1.22285e-09 -3.61258e-09)
(3.65354e-08 -3.5046e-09 -6.11066e-09)
(3.76034e-08 -8.00995e-09 -9.83182e-09)
(3.76872e-08 -1.13744e-08 -1.30373e-08)
(3.06687e-08 -1.36628e-08 -1.76587e-08)
(2.05107e-08 1.69636e-09 8.93934e-11)
(2.42629e-08 1.56718e-09 -5.30754e-10)
(2.90279e-08 1.42096e-09 -1.3178e-09)
(3.34702e-08 1.21941e-09 -2.5532e-09)
(3.59606e-08 4.70792e-11 -5.75916e-09)
(3.81625e-08 -2.66942e-09 -9.10017e-09)
(3.86261e-08 -8.55396e-09 -1.37347e-08)
(4.04557e-08 -1.38749e-08 -1.88546e-08)
(3.84062e-08 -2.03679e-08 -2.6356e-08)
(2.2353e-08 1.89762e-09 3.58922e-10)
(2.64596e-08 1.81188e-09 -5.05708e-10)
(3.19587e-08 1.96864e-09 -1.70173e-09)
(3.74858e-08 2.04433e-09 -3.6139e-09)
(4.09705e-08 9.36124e-10 -8.51438e-09)
(4.31721e-08 -2.29308e-09 -1.26702e-08)
(4.31841e-08 -9.68898e-09 -1.92423e-08)
(4.30595e-08 -1.83957e-08 -2.57186e-08)
(3.51312e-08 -2.91241e-08 -3.56585e-08)
(2.13017e-08 2.04187e-09 -1.94042e-10)
(2.76273e-08 1.94415e-09 -8.94238e-10)
(3.51621e-08 1.9296e-09 -2.10934e-09)
(4.12077e-08 1.93504e-09 -4.64829e-09)
(4.53039e-08 1.05423e-09 -1.0043e-08)
(4.93561e-08 -2.27359e-09 -1.46309e-08)
(5.03926e-08 -9.33383e-09 -2.08223e-08)
(4.75921e-08 -1.87885e-08 -2.77516e-08)
(3.45162e-08 -3.01731e-08 -3.76412e-08)
)
;
    }
    procBoundary4to5
    {
        type            processor;
        value           nonuniform List<vector> 
12
(
(2.66866e-08 -9.56854e-09 -9.13198e-09)
(3.70264e-08 -1.36238e-08 -1.34167e-08)
(4.23604e-08 -1.92402e-08 -1.74278e-08)
(5.13405e-08 -1.69149e-08 -1.77947e-08)
(3.34481e-08 -8.14303e-09 -6.07626e-09)
(3.85203e-08 -8.4836e-09 -7.88001e-09)
(4.60906e-08 -8.85975e-09 -1.01901e-08)
(5.32073e-08 -6.19618e-09 -1.09468e-08)
(3.3203e-08 -7.95146e-09 -4.83452e-09)
(3.90878e-08 -7.23651e-09 -5.21641e-09)
(4.69286e-08 -6.32587e-09 -7.03847e-09)
(4.95501e-08 -3.56278e-09 -8.38835e-09)
)
;
    }
    procBoundary4to6
    {
        type            processor;
        value           nonuniform List<vector> 
27
(
(1.88517e-08 2.21652e-09 -1.40635e-09)
(2.50502e-08 2.2204e-09 -2.01442e-09)
(3.31495e-08 2.21343e-09 -2.96549e-09)
(4.05994e-08 2.38946e-09 -4.81017e-09)
(4.74226e-08 2.98315e-09 -8.18261e-09)
(5.59524e-08 2.1993e-09 -1.1497e-08)
(5.98801e-08 -1.04438e-09 -1.37707e-08)
(6.18872e-08 -3.38757e-09 -1.65601e-08)
(6.40399e-08 -8.97234e-09 -1.8306e-08)
(1.79744e-08 2.35396e-09 -1.99881e-09)
(2.23372e-08 2.48237e-09 -2.40143e-09)
(2.90182e-08 2.42849e-09 -3.04215e-09)
(3.55322e-08 2.4423e-09 -4.58894e-09)
(4.19616e-08 2.35663e-09 -7.05946e-09)
(4.93135e-08 1.74963e-09 -9.20252e-09)
(5.48203e-08 9.80811e-10 -1.1318e-08)
(5.84784e-08 5.3175e-10 -1.44687e-08)
(6.24255e-08 -1.00783e-09 -1.22595e-08)
(1.73257e-08 2.38349e-09 -2.5027e-09)
(2.09018e-08 2.50784e-09 -2.53407e-09)
(2.70088e-08 2.72873e-09 -2.95521e-09)
(3.37332e-08 2.76321e-09 -4.32332e-09)
(4.03911e-08 2.60353e-09 -6.28958e-09)
(4.69154e-08 2.26562e-09 -8.35644e-09)
(5.15759e-08 2.32767e-09 -9.71632e-09)
(5.3516e-08 1.5761e-09 -1.00979e-08)
(5.43956e-08 1.96092e-09 -8.91305e-09)
)
;
    }
}


// ************************************************************************* //
