/*--------------------------------*- C++ -*----------------------------------*\
| =========                 |                                                 |
| \\      /  F ield         | OpenFOAM: The Open Source CFD Toolbox           |
|  \\    /   O peration     | Version:  4.x                                   |
|   \\  /    A nd           | Web:      www.OpenFOAM.org                      |
|    \\/     M anipulation  |                                                 |
\*---------------------------------------------------------------------------*/
FoamFile
{
    version     2.0;
    format      ascii;
    class       volScalarField;
    location    "29.5";
    object      Sm;
}
// * * * * * * * * * * * * * * * * * * * * * * * * * * * * * * * * * * * * * //

dimensions      [1 -3 -1 0 0 0 0];

internalField   nonuniform List<scalar> 
108
(
5.19257e-65
7.36259e-65
7.51759e-65
5.58006e-65
5.96756e-65
5.65755e-65
7.59506e-65
6.74255e-65
8.91256e-65
7.7501e-65
6.35508e-65
7.36258e-65
8.60259e-65
8.21507e-65
7.51756e-65
6.35504e-65
5.42503e-65
9.06754e-65
6.97509e-65
8.75761e-65
6.66507e-65
8.44758e-65
6.66505e-65
5.96754e-65
6.12253e-65
9.68754e-65
5.65752e-65
4.34006e-65
5.73507e-65
7.59508e-65
5.19255e-65
7.36256e-65
6.35504e-65
9.22255e-65
5.96753e-65
5.96752e-65
5.34757e-65
5.11506e-65
7.05258e-65
7.67259e-65
6.97507e-65
5.27005e-65
4.49504e-65
6.97505e-65
8.21506e-65
5.65757e-65
6.51008e-65
5.81257e-65
6.43257e-65
5.96756e-65
5.96755e-65
6.66505e-65
7.90505e-65
8.13755e-65
4.41756e-65
6.27758e-65
7.82759e-65
7.20757e-65
7.67257e-65
7.28506e-65
6.66504e-65
6.66504e-65
6.82003e-65
6.66509e-65
7.20759e-65
5.96757e-65
8.52509e-65
8.44757e-65
6.74255e-65
9.61006e-65
7.90504e-65
6.82003e-65
4.96007e-65
6.66508e-65
4.41755e-65
6.74258e-65
5.73506e-65
8.06008e-65
7.20757e-65
6.27756e-65
7.20757e-65
5.34757e-65
8.75761e-65
5.81257e-65
5.50256e-65
6.20007e-65
7.20757e-65
6.35506e-65
5.65755e-65
7.59506e-65
5.42507e-65
7.36259e-65
7.44009e-65
7.36258e-65
5.65756e-65
6.58756e-65
6.43255e-65
7.51755e-65
6.27754e-65
7.4401e-65
7.05259e-65
5.81257e-65
7.67258e-65
6.97507e-65
9.22258e-65
4.49504e-65
4.88253e-65
6.35504e-65
)
;

boundaryField
{
    inlet
    {
        type            calculated;
        value           uniform 0;
    }
    outlet
    {
        type            calculated;
        value           nonuniform 0();
    }
    wall
    {
        type            calculated;
        value           uniform 0;
    }
    procBoundary4to0
    {
        type            processor;
        value           nonuniform List<scalar> 
36
(
4.57256e-65
4.88256e-65
5.73507e-65
5.34756e-65
6.12256e-65
7.44006e-65
4.80504e-65
4.10753e-65
4.96003e-65
5.50257e-65
8.1376e-65
7.28508e-65
6.74257e-65
5.81255e-65
5.96754e-65
8.37005e-65
6.58753e-65
5.50252e-65
4.57256e-65
4.96006e-65
7.28508e-65
5.73505e-65
7.28506e-65
8.06005e-65
6.74253e-65
5.11502e-65
8.06002e-65
5.27007e-65
5.89007e-65
7.98259e-65
9.06758e-65
4.49504e-65
9.14506e-65
7.13003e-65
5.42502e-65
2.325e-65
)
;
    }
    procBoundary4to5
    {
        type            processor;
        value           nonuniform List<scalar> 
12
(
6.35504e-65
7.05253e-65
8.21503e-65
9.99753e-65
6.66504e-65
5.42503e-65
6.89753e-65
4.80502e-65
2.63502e-65
6.35504e-65
6.12254e-65
7.36254e-65
)
;
    }
    procBoundary4to6
    {
        type            processor;
        value           nonuniform List<scalar> 
27
(
1.03851e-64
7.59509e-65
4.96005e-65
7.44007e-65
9.37758e-65
6.12254e-65
7.36254e-65
6.51003e-65
8.52503e-65
7.6726e-65
7.67259e-65
7.75009e-65
7.67258e-65
5.34755e-65
7.05256e-65
6.27755e-65
5.89004e-65
7.90504e-65
5.03757e-65
5.27007e-65
6.12257e-65
6.89757e-65
6.51007e-65
6.43256e-65
8.68007e-65
8.75756e-65
3.79753e-65
)
;
    }
}


// ************************************************************************* //
