/*--------------------------------*- C++ -*----------------------------------*\
  =========                 |
  \\      /  F ield         | OpenFOAM: The Open Source CFD Toolbox
   \\    /   O peration     | Website:  https://openfoam.org
    \\  /    A nd           | Version:  4.x
     \\/     M anipulation  |
\*---------------------------------------------------------------------------*/
FoamFile
{
    version     2.0;
    format      ascii;
    class       vectorField;
    location    0;
    object      v;
}
// * * * * * * * * * * * * * * * * * * * * * * * * * * * * * * * * * * * * * //

348
(
( 6.19808e-09 1.69694e-09 2.594e-09 )  
( 7.07221e-09 1.91518e-09 1.75307e-09 )  
( 9.02888e-09 1.7138e-09 1.97579e-09 )  
( 3.38748e-09 8.77252e-10 -5.83524e-09 )  
( 5.91273e-09 1.0576e-09 4.33538e-09 )  
( 9.65983e-10 4.73598e-10 -2.85026e-09 )  
( -1.38813e-11 1.38898e-09 -6.56783e-09 )  
( -3.38938e-10 4.32854e-10 -1.44603e-09 )  
( 5.54371e-09 1.2672e-09 1.59196e-09 )  
( -7.37367e-10 1.9243e-09 -4.48943e-09 )  
( 3.10643e-09 3.06705e-09 -4.14762e-09 )  
( -1.01499e-10 1.36061e-09 -5.1513e-09 )  
( 2.87689e-09 -3.52273e-10 1.24189e-09 )  
( 3.04154e-09 1.2487e-09 -4.35867e-09 )  
( 1.47046e-09 2.15391e-09 -5.65219e-09 )  
( 1.14586e-08 1.82003e-09 5.09737e-09 )  
( 5.49504e-09 -1.35084e-09 -2.62781e-10 )  
( 4.01664e-09 1.36854e-10 -2.71518e-09 )  
( 8.03922e-09 2.48833e-09 6.32249e-09 )  
( 1.26721e-08 2.06786e-09 7.90602e-10 )  
( 4.58058e-09 -2.15115e-10 -1.61991e-09 )  
( 7.21956e-09 2.38896e-09 4.98157e-09 )  
( 1.25373e-08 2.27868e-09 4.33436e-09 )  
( 6.4463e-09 -2.48256e-10 3.96813e-09 )  
( 2.22965e-09 4.94516e-10 7.68256e-10 )  
( 1.06917e-08 5.2913e-10 4.64672e-10 )  
( -3.70894e-09 2.26556e-09 -3.16499e-09 )  
( 8.10508e-11 -5.75847e-11 -1.79995e-09 )  
( -5.02369e-09 4.13074e-10 -8.07019e-09 )  
( 6.82916e-09 -9.42687e-10 -7.82614e-11 )  
( 2.44526e-09 1.42031e-09 -3.68827e-09 )  
( 9.42091e-10 3.98594e-10 -3.7034e-09 )  
( 4.01905e-09 6.02115e-10 2.35475e-09 )  
( 6.02317e-10 -1.08686e-10 -1.61988e-10 )  
( 5.27545e-09 -4.75262e-10 2.46555e-09 )  
( 2.95361e-09 1.84201e-09 -2.51563e-09 )  
( 3.56684e-09 2.28063e-10 -1.50535e-09 )  
( 9.32552e-10 5.7735e-10 -2.46794e-09 )  
( 6.1411e-09 5.24539e-10 3.46775e-09 )  
( 3.80773e-09 6.97857e-10 -3.50465e-09 )  
( -1.28602e-10 1.77114e-09 -3.83693e-09 )  
( 1.13908e-09 8.14738e-10 -8.9119e-09 )  
( 6.70989e-09 1.33341e-09 -1.44716e-09 )  
( 9.74265e-09 4.88736e-10 5.37009e-09 )  
( 9.9611e-09 2.15409e-09 3.42646e-09 )  
( 3.96602e-09 -5.26777e-10 1.03413e-09 )  
( 6.75894e-09 1.55903e-09 5.91129e-09 )  
( 6.48613e-09 9.61225e-10 -8.43336e-10 )  
( 4.74172e-09 4.48635e-10 -8.83614e-11 )  
( -4.58009e-09 -6.62373e-09 2.61302e-09 )  
( 9.89462e-09 1.37203e-09 1.21576e-08 )  
( 4.42775e-09 1.23035e-09 -1.20502e-09 )  
( 2.15311e-09 -4.3457e-10 5.2562e-10 )  
( 1.16e-09 5.86924e-09 -4.24488e-09 )  
( 7.73279e-09 -3.72521e-10 -1.60695e-09 )  
( -6.34628e-11 8.71726e-10 1.12407e-09 )  
( 8.5298e-11 2.52527e-10 -1.66028e-09 )  
( 2.43035e-09 2.89272e-10 -7.348e-10 )  
( 9.37823e-09 5.0188e-10 1.72035e-09 )  
( -5.83205e-10 1.60792e-09 -2.36096e-09 )  
( 6.84372e-10 1.52184e-09 -4.73497e-09 )  
( -2.40527e-09 2.79924e-09 -3.36894e-09 )  
( -6.91983e-10 2.28154e-10 -2.26884e-09 )  
( -1.48089e-09 2.00506e-09 -2.88573e-09 )  
( 1.08392e-09 6.14755e-10 -1.53933e-09 )  
( 2.44217e-09 3.22189e-09 -4.43481e-09 )  
( 3.93371e-09 1.6418e-09 -3.33549e-09 )  
( 3.31486e-09 1.46186e-09 -2.34131e-09 )  
( 1.00966e-08 2.34459e-09 2.18209e-09 )  
( 8.86233e-09 1.29391e-09 4.66055e-09 )  
( 9.33451e-09 2.17984e-09 -5.21673e-10 )  
( 5.3626e-09 7.56434e-10 3.60911e-09 )  
( 7.52605e-10 2.19595e-09 -5.06882e-09 )  
( 1.01502e-08 2.39089e-09 1.02106e-09 )  
( 3.15414e-09 7.00788e-10 2.62935e-09 )  
( 6.79257e-09 -1.24878e-09 -4.10607e-10 )  
( 2.92301e-09 3.15432e-09 -4.76228e-09 )  
( 2.44434e-09 1.59164e-09 -1.96848e-09 )  
( 9.46784e-09 2.05534e-09 3.89642e-09 )  
( 8.17251e-09 1.67718e-09 4.12632e-09 )  
( 1.99662e-09 3.10613e-10 -2.25011e-09 )  
( 5.01136e-09 1.33288e-09 -1.92021e-10 )  
( 4.69287e-09 9.92386e-10 8.47989e-10 )  
( 9.40228e-09 2.91738e-09 5.55513e-09 )  
( 5.18747e-10 1.42329e-09 -6.5266e-09 )  
( -2.65695e-09 3.72233e-09 -4.32812e-09 )  
( -3.74131e-09 7.79962e-10 -9.07443e-09 )  
( 6.14709e-09 1.23103e-09 3.3216e-09 )  
( 6.22449e-09 -1.14366e-09 9.52909e-10 )  
( 1.59695e-09 7.39657e-10 -5.67153e-09 )  
( 2.76492e-09 -2.83301e-10 1.00742e-09 )  
( 3.62631e-09 2.54396e-10 1.47615e-09 )  
( -6.91781e-10 2.24987e-09 -4.56401e-09 )  
( 3.62397e-09 1.17478e-09 2.07598e-09 )  
( 1.06869e-08 5.51964e-10 3.86899e-09 )  
( 1.72506e-10 -3.95314e-11 2.87372e-10 )  
( -1.37297e-11 3.22722e-10 -2.47173e-09 )  
( 9.04418e-09 1.51835e-09 2.20788e-09 )  
( 3.48745e-10 4.02511e-11 -1.33283e-09 )  
( 4.94552e-09 9.64554e-10 -2.24164e-09 )  
( 1.83168e-09 1.12299e-09 -4.71308e-09 )  
( -2.49493e-09 5.04612e-10 -8.34468e-09 )  
( 6.06436e-09 -1.0696e-10 -9.40267e-10 )  
( 2.63806e-09 5.29811e-10 7.56744e-10 )  
( -1.92473e-09 2.40408e-09 -4.74345e-09 )  
( 9.1916e-09 1.83223e-09 2.31485e-09 )  
( 3.27834e-10 9.67981e-10 -3.56646e-09 )  
( 8.59699e-09 8.61518e-10 -1.59561e-10 )  
( -2.80314e-10 6.94857e-10 1.15127e-09 )  
( -1.1197e-07 9.83601e-10 5.13213e-09 )  
( 2.79719e-09 1.8502e-09 -5.64375e-09 )  
( 1.17827e-09 -8.11258e-11 7.84681e-10 )  
( 3.28192e-09 -5.89365e-10 -2.92653e-10 )  
( 5.71393e-09 1.41023e-09 1.7197e-09 )  
( 1.76346e-09 8.18612e-10 -1.05229e-09 )  
( 2.03419e-09 1.0033e-09 -3.41001e-09 )  
( 4.70176e-09 1.20852e-09 -3.93339e-10 )  
( -2.88032e-10 5.1961e-10 -1.82578e-09 )  
( -2.57506e-09 2.9703e-09 -5.00798e-09 )  
( 9.11124e-09 7.45567e-10 1.48833e-09 )  
( -1.6194e-09 1.68875e-09 -4.76751e-09 )  
( 2.20883e-09 2.72948e-09 -4.06772e-09 )  
( -2.87358e-10 -8.75499e-10 1.36132e-10 )  
( 5.64478e-09 5.18907e-10 2.39799e-09 )  
( 2.82757e-09 1.08235e-09 3.06161e-09 )  
( 6.81531e-09 2.43064e-09 1.56226e-09 )  
( 7.74354e-10 9.14347e-10 9.41284e-11 )  
( 6.2907e-09 1.31158e-09 -4.63483e-10 )  
( 1.17255e-09 1.05133e-10 -6.3035e-10 )  
( -5.03617e-10 3.01731e-09 -2.81116e-09 )  
( 3.51317e-09 1.07533e-09 6.83966e-10 )  
( 1.52101e-09 -6.42939e-12 2.93332e-10 )  
( -6.44066e-10 9.21704e-10 -4.52654e-09 )  
( 8.18438e-09 1.7173e-09 9.50179e-10 )  
( 5.32432e-09 1.85146e-09 1.38218e-09 )  
( 8.86277e-09 2.10483e-09 2.71981e-11 )  
( -2.73529e-09 2.61445e-09 -4.12552e-09 )  
( 1.31303e-09 2.17383e-10 6.09887e-10 )  
( 4.14666e-09 1.19374e-09 -3.07101e-10 )  
( -1.298e-09 1.62907e-09 -3.39117e-09 )  
( 2.25568e-09 9.27857e-10 1.80174e-09 )  
( -1.32321e-09 4.61741e-10 -2.00585e-09 )  
( -2.20896e-09 4.10189e-09 -3.4992e-09 )  
( 3.24422e-09 8.24243e-09 -1.24666e-08 )  
( 3.27585e-09 3.34664e-09 2.70262e-09 )  
( 2.17746e-09 4.95783e-10 1.65807e-09 )  
( 5.59554e-09 1.3121e-09 1.6671e-10 )  
( 1.6433e-09 -1.40828e-10 3.137e-10 )  
( -1.2064e-09 5.50607e-10 -1.52893e-09 )  
( 3.54999e-09 1.02583e-09 1.04796e-10 )  
( -1.9137e-09 3.85905e-09 -4.04459e-09 )  
( 7.27623e-10 3.24717e-10 3.67905e-10 )  
( -5.71053e-09 4.1554e-09 -7.55029e-09 )  
( 2.20992e-09 1.05073e-10 1.39438e-09 )  
( 8.39245e-09 3.23278e-09 3.84357e-10 )  
( -1.73773e-09 2.62393e-09 -3.25712e-09 )  
( -2.13415e-09 3.36296e-09 -4.4139e-09 )  
( -1.96155e-09 2.91538e-10 -8.68025e-10 )  
( 7.4583e-09 1.71328e-09 -3.72347e-10 )  
( -2.49379e-09 3.98288e-09 -4.12063e-09 )  
( 4.66913e-09 1.98773e-09 7.6257e-10 )  
( 3.32711e-09 2.00285e-09 -1.05165e-09 )  
( 5.28174e-09 1.72115e-09 -5.33311e-10 )  
( 9.21402e-09 2.21106e-09 -7.73177e-10 )  
( 7.56178e-09 2.82446e-09 4.78428e-10 )  
( 2.99381e-09 8.98064e-10 -5.25741e-10 )  
( -1.77435e-09 3.99715e-09 -3.06011e-09 )  
( 6.59288e-09 2.13816e-09 1.6317e-09 )  
( 5.0753e-09 5.61407e-10 2.19982e-09 )  
( 4.31626e-09 1.34842e-09 2.4424e-11 )  
( 3.97748e-09 3.00027e-09 2.71318e-09 )  
( 4.21699e-09 2.33011e-09 2.84727e-09 )  
( 5.27909e-09 3.26147e-09 2.32355e-09 )  
( 2.42161e-09 1.99654e-09 -1.49136e-09 )  
( -2.44914e-09 3.30707e-09 -4.76959e-09 )  
( -8.95411e-10 1.29771e-10 -7.44665e-10 )  
( 8.33665e-09 2.12412e-09 5.85421e-10 )  
( 3.25757e-09 1.02332e-09 3.93511e-10 )  
( -2.21785e-10 9.5754e-10 -2.25637e-09 )  
( 3.14864e-09 5.82461e-10 1.55167e-09 )  
( 4.90897e-09 1.19086e-09 5.47704e-10 )  
( -1.12848e-09 3.11086e-09 -5.2715e-09 )  
( 8.51788e-10 7.34722e-10 9.38094e-10 )  
( 3.94432e-09 8.68004e-10 5.8997e-10 )  
( 3.5847e-09 7.18753e-10 1.50771e-09 )  
( 5.80858e-09 4.28991e-09 -5.07295e-09 )  
( -1.72721e-09 2.1274e-09 -2.48121e-09 )  
( 8.40847e-09 4.5083e-10 1.77111e-09 )  
( 8.19937e-09 1.57293e-09 3.03798e-09 )  
( 1.03559e-09 5.08203e-10 7.16168e-10 )  
( -1.78266e-09 4.24847e-09 -4.35727e-09 )  
( 6.04307e-09 2.96873e-09 1.40497e-10 )  
( 1.08122e-10 7.26508e-10 -1.92437e-09 )  
( 2.95745e-09 1.65721e-09 -1.52135e-09 )  
( 1.97401e-10 1.13452e-09 -2.68726e-09 )  
( 1.20793e-09 8.85593e-10 6.24993e-10 )  
( 3.00245e-09 -3.59819e-10 3.00088e-09 )  
( -2.5768e-09 3.88717e-09 -3.3071e-09 )  
( 1.98792e-09 5.1125e-10 1.76728e-09 )  
( -2.90803e-10 -6.16056e-10 -1.13102e-08 )  
( 1.44812e-09 6.43548e-11 3.41215e-10 )  
( -1.86117e-09 1.76056e-09 -2.56168e-09 )  
( 9.54955e-09 2.76558e-09 -6.42311e-10 )  
( -2.08659e-09 2.29537e-09 -4.51985e-09 )  
( 8.15721e-09 1.9055e-09 8.85964e-10 )  
( 6.01256e-09 2.16952e-09 3.70021e-09 )  
( 1.53881e-09 6.95802e-10 9.87351e-10 )  
( 6.44092e-10 7.85985e-11 1.6867e-10 )  
( 4.626e-09 2.34109e-09 3.28286e-09 )  
( -5.82464e-10 -1.82268e-10 -6.01107e-10 )  
( 4.58847e-10 6.0576e-10 -1.61892e-09 )  
( 7.05869e-09 1.51241e-09 1.26018e-09 )  
( 1.68762e-09 2.94527e-10 -1.14926e-09 )  
( 3.85997e-09 1.40002e-09 -7.98333e-10 )  
( 1.7563e-09 1.13745e-10 5.27667e-10 )  
( 6.85227e-09 -3.00809e-09 -1.64185e-08 )  
( 2.06664e-09 2.36534e-10 9.13304e-10 )  
( 9.46155e-10 8.70737e-10 4.54286e-10 )  
( 7.72725e-09 1.11931e-09 1.50342e-09 )  
( 1.09322e-09 2.41797e-09 -1.11264e-09 )  
( 1.481e-09 3.33752e-10 4.76346e-10 )  
( 7.52646e-10 -6.22126e-10 -8.02136e-10 )  
( -1.30315e-09 6.88153e-10 -1.90496e-09 )  
( -1.0143e-09 3.51067e-09 -5.16917e-09 )  
( 6.30697e-08 2.22273e-08 -2.17371e-09 )  
( 7.46228e-10 1.04533e-09 -2.19296e-09 )  
( -3.43204e-09 1.02075e-09 -3.06309e-09 )  
( 3.1589e-09 1.82718e-09 9.95086e-12 )  
( 9.72316e-09 4.35481e-10 6.51952e-10 )  
( 4.41172e-09 4.21913e-09 2.45224e-10 )  
( 2.60708e-09 1.17717e-09 6.49591e-10 )  
( 2.71834e-09 1.2925e-09 -1.20757e-09 )  
( 1.72164e-09 2.00423e-09 1.96846e-09 )  
( 8.50596e-10 1.21538e-10 5.95216e-10 )  
( 2.08113e-09 1.06316e-09 7.78245e-10 )  
( 3.43058e-09 1.89592e-09 -5.0576e-10 )  
( 3.77811e-09 1.85619e-09 -1.72982e-09 )  
( -2.50901e-09 4.20457e-09 -5.85771e-09 )  
( -5.37989e-10 3.88534e-09 -3.62744e-09 )  
( 3.65093e-09 1.33983e-09 6.89872e-10 )  
( 9.05293e-09 1.44206e-09 3.48678e-10 )  
( 3.41025e-09 7.62672e-10 2.42994e-09 )  
( 5.52651e-09 8.99489e-10 2.55874e-09 )  
( 6.70645e-09 2.36634e-09 2.14333e-09 )  
( 8.74245e-09 1.62798e-09 6.29065e-10 )  
( -2.81849e-09 3.37648e-09 -3.68558e-09 )  
( 2.64334e-09 1.22928e-09 -1.07394e-10 )  
( 1.44277e-09 3.86448e-09 -1.28292e-08 )  
( -3.35727e-09 3.74522e-09 -3.82679e-09 )  
( 2.89807e-09 1.23402e-10 3.23723e-11 )  
( 8.03876e-09 1.56734e-09 -4.31537e-10 )  
( -2.11204e-09 3.50233e-09 -3.13621e-09 )  
( 3.46635e-09 -1.89488e-10 3.29153e-10 )  
( 9.89351e-10 3.06106e-09 -2.80114e-09 )  
( -2.93055e-09 2.52808e-09 -4.51336e-09 )  
( 8.30671e-09 2.68547e-09 4.83088e-10 )  
( -1.28329e-09 1.87814e-09 -1.89748e-09 )  
( 1.21477e-09 1.69776e-10 7.37017e-10 )  
( 1.26745e-09 2.09048e-09 -3.74916e-10 )  
( 2.06217e-09 3.65489e-10 2.38315e-10 )  
( 4.33168e-09 2.14519e-09 -4.73337e-10 )  
( 5.66786e-09 2.41717e-09 -3.18815e-10 )  
( 6.01587e-09 2.05791e-09 5.82358e-10 )  
( 3.83343e-09 1.44143e-09 4.61724e-10 )  
( -1.85723e-09 6.11185e-09 -5.20449e-09 )  
( 2.51357e-09 1.72058e-09 -3.65867e-11 )  
( 4.92918e-09 2.29938e-09 -2.70934e-10 )  
( 1.31413e-09 3.07724e-10 7.4102e-10 )  
( -1.84177e-09 1.03668e-10 -2.25129e-10 )  
( 8.24624e-09 1.21151e-09 1.92093e-09 )  
( 2.40847e-09 2.51075e-09 1.34331e-09 )  
( -6.70673e-11 2.76435e-09 -1.77329e-09 )  
( 8.90346e-09 1.6785e-09 3.81699e-10 )  
( -2.24635e-09 3.65618e-09 -3.82515e-09 )  
( 1.8829e-09 -9.09894e-11 1.96592e-09 )  
( 1.7111e-09 2.57257e-12 1.63107e-10 )  
( 5.38988e-09 2.7379e-09 3.12778e-10 )  
( 5.29654e-10 8.68621e-10 1.79918e-10 )  
( 5.86102e-09 2.82412e-09 -4.11915e-10 )  
( 2.92705e-09 -1.4862e-09 -5.11288e-10 )  
( 7.74658e-09 2.03416e-09 1.01963e-09 )  
( 2.27857e-09 1.96866e-09 -7.08162e-10 )  
( 7.92183e-09 2.1882e-09 1.05677e-09 )  
( 7.13008e-09 2.98358e-09 5.87531e-10 )  
( 1.4391e-09 2.24183e-10 4.15349e-10 )  
( 1.67916e-09 3.01501e-11 -5.36321e-10 )  
( 1.09623e-09 4.87487e-10 -3.87631e-10 )  
( -1.30092e-09 2.34121e-09 -2.07774e-09 )  
( -7.26496e-10 -9.99837e-13 -5.50005e-10 )  
( 5.08538e-10 1.99433e-10 -9.84143e-11 )  
( 2.11594e-09 1.02073e-10 4.96194e-11 )  
( 1.10165e-09 4.64266e-10 5.19374e-10 )  
( 7.79524e-09 7.54713e-09 -9.99466e-11 )  
( 2.94714e-09 7.77156e-10 -8.62127e-10 )  
( -6.40869e-09 3.45374e-09 -5.42881e-09 )  
( 1.11293e-09 8.67561e-10 4.00797e-10 )  
( -2.95338e-09 3.10287e-09 -2.8381e-09 )  
( 4.92394e-09 2.06409e-09 1.60035e-10 )  
( 2.65797e-09 1.52078e-09 -6.79109e-11 )  
( 1.20415e-09 1.32818e-08 -1.43907e-08 )  
( 4.99578e-10 1.2768e-10 2.19655e-10 )  
( 2.12828e-09 1.41353e-09 2.56429e-10 )  
( 2.14608e-10 8.33233e-10 -1.22229e-09 )  
( 4.40757e-09 9.95456e-10 -7.53582e-11 )  
( 5.08393e-09 -1.04465e-09 -6.63427e-11 )  
( 1.11296e-09 1.14852e-09 -2.7727e-10 )  
( 1.31741e-09 -1.33789e-10 3.4474e-11 )  
( -3.09442e-09 3.41846e-09 -2.14573e-09 )  
( -2.74074e-09 1.00763e-09 -2.05792e-10 )  
( 4.31603e-09 2.12915e-09 8.12758e-10 )  
( 5.76961e-09 1.68466e-09 -3.29791e-10 )  
( -3.1876e-10 3.67651e-09 -3.86457e-09 )  
( 2.4369e-09 3.47074e-08 -1.77818e-09 )  
( 1.74428e-09 -1.91273e-10 -4.67079e-10 )  
( 1.64987e-09 1.95085e-10 -5.17823e-10 )  
( 2.44557e-09 2.90393e-10 -6.07969e-10 )  
( 1.44347e-09 6.27593e-10 -2.77453e-10 )  
( 2.11448e-09 7.76848e-09 -4.40493e-09 )  
( 1.36368e-09 7.5155e-10 2.19845e-10 )  
( 3.05782e-09 1.31606e-09 2.75564e-10 )  
( 5.07329e-10 9.38165e-10 -5.87007e-10 )  
( 8.46434e-10 2.39465e-10 8.46127e-10 )  
( 4.12021e-09 4.15897e-10 6.54558e-11 )  
( 5.24499e-09 2.06307e-10 -2.92879e-10 )  
( 4.38556e-10 1.86465e-10 1.5825e-10 )  
( 2.50184e-09 1.42053e-09 2.67995e-10 )  
( -4.59516e-09 1.61967e-09 -1.18811e-09 )  
( 1.87968e-09 -1.47806e-09 -5.06993e-10 )  
( 3.10184e-10 4.12948e-11 3.06702e-10 )  
( 1.9534e-09 -7.58483e-11 3.61905e-10 )  
( -3.51436e-09 2.18615e-09 -1.69675e-09 )  
( -1.58415e-09 2.52173e-09 -3.07071e-09 )  
( -1.60018e-09 2.0854e-09 -1.3823e-09 )  
( 1.25852e-09 5.63691e-10 -4.15193e-11 )  
( 3.5942e-09 3.13716e-09 1.73109e-10 )  
( 6.8478e-10 9.51892e-10 -2.45434e-10 )  
( 1.74425e-09 -3.35344e-10 3.78058e-10 )  
( -4.20076e-10 1.44099e-09 -1.63065e-09 )  
( -1.95353e-09 2.05659e-09 -1.03419e-09 )  
( 1.21768e-09 7.8744e-10 2.71749e-10 )  
( 4.55124e-09 5.28785e-10 2.52258e-12 )  
( -3.81544e-10 4.17663e-10 -6.67184e-10 )  
( 2.39522e-09 9.69796e-09 -8.70945e-09 )  
( 2.31716e-09 1.29567e-09 -2.98574e-10 )  
( -1.00314e-09 2.96967e-09 -2.15706e-09 )  
( 8.87871e-10 4.33044e-10 6.16619e-10 )  
( 6.59304e-10 2.81257e-10 1.41532e-10 )  
( 2.28311e-09 5.26601e-10 -5.4545e-10 )  
)
