/*--------------------------------*- C++ -*----------------------------------*\
| =========                 |                                                 |
| \\      /  F ield         | OpenFOAM: The Open Source CFD Toolbox           |
|  \\    /   O peration     | Version:  4.x                                   |
|   \\  /    A nd           | Web:      www.OpenFOAM.org                      |
|    \\/     M anipulation  |                                                 |
\*---------------------------------------------------------------------------*/
FoamFile
{
    version     2.0;
    format      ascii;
    class       volScalarField;
    location    "39";
    object      Ksl;
}
// * * * * * * * * * * * * * * * * * * * * * * * * * * * * * * * * * * * * * //

dimensions      [1 -3 -1 0 0 0 0];

internalField   nonuniform List<scalar> 
132
(
3314.95
6843.31
3085.67
5263.61
2903.39
4535.61
2788.05
4090.35
2613.01
3332.03
7328.85
3193.38
5911.81
3048.41
5184.8
2931
4717.39
2821.38
3347.48
7663.98
3257.98
6389.3
3184.05
5724.55
3071.08
5371.6
3028.11
3358.51
7596.66
3224.07
3366.32
7941.88
3295.21
7037.31
3257.75
6501.38
3212.93
6155.08
3109.98
3395.15
9104.06
3463.9
9101.5
3529.52
9565.67
3527.85
10260
3478.32
3437.73
10051.7
3556.86
11279
3668.15
13758.7
3734.56
19284.9
3701.19
3476.73
9811.55
3566.15
10879.6
3661.36
3397.3
8113.84
3374.01
7406.71
3318.95
6879
3242.09
6494.56
3106.08
3451.5
9520.04
3549.94
10251.7
3610.26
11292.8
3602.81
12585.3
3491.74
3497.03
10645.5
3675.81
14449.8
3792.42
20047.2
3790.86
25023.4
3697.96
3519.36
11250.6
3720.51
16528
3797
24484.4
3774.63
3382.69
8182.16
3388.31
7684.85
3364.41
7531.25
3348.1
7616.62
3307.36
3452.77
10212.4
3621.01
12598.2
3693.39
16163.2
3750.25
25266.2
3729.36
3509.57
11565.7
3769.35
20876
3912.61
66015.8
4008.74
1e+10
4067.52
3497.46
11646.3
3772.48
21236.4
3842.95
48949.6
3845.06
170300
3793.29
)
;

boundaryField
{
    inlet
    {
        type            zeroGradient;
    }
    outlet
    {
        type            zeroGradient;
    }
    wall
    {
        type            zeroGradient;
    }
    procBoundary0to1
    {
        type            processor;
        value           nonuniform List<scalar> 
12
(
3826.31
4488.67
5340.92
6037.93
11261
36300.9
6310.47
13043.2
31849.7
8557.69
66262.9
1e+10
)
;
    }
    procBoundary0to2
    {
        type            processor;
        value           nonuniform List<scalar> 
44
(
6290.97
3144.24
5547.5
3034.3
5116.49
2885.09
3396.49
8079.91
6290.97
3327.41
6290.97
3144.24
13126.5
3679.77
15408.3
3559.28
3439.34
9952.9
3591.1
11832.7
13126.5
3690.04
13126.5
3679.77
32091.1
3682.83
3495.74
10527
3695.2
14633.8
3794.41
23008.9
32091.1
3836.55
32091.1
3682.83
3503.59
11539.5
3752.02
17803
3829.35
30473.7
3845.86
80916.5
)
;
    }
    procBoundary0to4
    {
        type            processor;
        value           nonuniform List<scalar> 
36
(
3381.58
7951.87
3387.12
7595.35
3368.63
7293.85
3304.51
7135.81
3180.03
3473.45
9923.46
3651.49
12715.4
3702.45
15466.1
3679.83
19344.6
3606.52
3509.8
11147
3760.11
17116.3
3815.21
27180.3
3787.8
66116.3
3728.99
3491.63
11307.3
3793.02
19305.1
3882.84
48374.4
3898.4
1.79801e+07
3855.04
)
;
    }
    procBoundary0to6
    {
        type            processor;
        value           uniform 3825.09;
    }
    procBoundary0to7
    {
        type            processor;
        value           uniform 1e+10;
    }
}


// ************************************************************************* //
