/*--------------------------------*- C++ -*----------------------------------*\
  =========                 |
  \\      /  F ield         | OpenFOAM: The Open Source CFD Toolbox
   \\    /   O peration     | Website:  https://openfoam.org
    \\  /    A nd           | Version:  4.x
     \\/     M anipulation  |
\*---------------------------------------------------------------------------*/
FoamFile
{
    version     2.0;
    format      ascii;
    class       vectorField;
    location    0;
    object      v;
}
// * * * * * * * * * * * * * * * * * * * * * * * * * * * * * * * * * * * * * //

325
(
( 2.88689e-11 1.66344e-10 -2.79587e-10 )  
( 2.17639e-09 -2.21317e-10 -1.50646e-09 )  
( 2.15606e-08 -1.43594e-09 -4.85351e-09 )  
( 2.34669e-09 -4.03736e-10 -1.52192e-09 )  
( 4.85255e-09 -2.26901e-10 -3.284e-09 )  
( 2.70078e-09 -4.63445e-10 -1.65088e-09 )  
( 3.52213e-10 -3.239e-11 -3.22842e-10 )  
( 2.97117e-10 -1.4164e-10 -5.15051e-10 )  
( 1.63849e-08 -1.90766e-09 -5.91435e-09 )  
( 2.56801e-10 1.63136e-10 -2.40862e-10 )  
( 1.73786e-08 -2.77229e-09 -8.36479e-09 )  
( 1.3641e-08 -1.20107e-09 -4.42645e-09 )  
( 1.17586e-08 -6.97882e-11 -4.94062e-09 )  
( 2.49671e-08 -9.46618e-09 -4.6572e-09 )  
( 2.23518e-08 -7.07852e-09 -6.00875e-09 )  
( 4.0738e-09 3.01362e-10 -2.50301e-09 )  
( 1.95285e-09 7.1366e-11 -8.75526e-10 )  
( 1.80033e-09 -4.28388e-10 -1.28989e-09 )  
( 2.35573e-09 -8.62451e-10 -1.56319e-09 )  
( 9.38898e-09 -2.46358e-11 -3.18143e-09 )  
( 3.01326e-09 -4.20589e-10 -1.18127e-09 )  
( 1.00368e-08 -2.96566e-10 -4.33661e-09 )  
( 1.59826e-08 7.71515e-11 -6.4416e-09 )  
( 6.02041e-09 9.24672e-11 -2.90547e-09 )  
( 5.95303e-10 2.72604e-10 -2.56671e-10 )  
( 1.51355e-08 1.9693e-10 -5.90285e-09 )  
( 1.07884e-09 1.20276e-11 -1.07365e-09 )  
( 1.91066e-08 -2.39108e-10 -4.29429e-09 )  
( 3.10858e-09 -5.83024e-10 -2.2974e-09 )  
( 9.97903e-09 -8.44965e-11 -3.07614e-09 )  
( 4.12803e-09 -8.12122e-10 -2.82569e-09 )  
( 3.05903e-09 -6.41176e-10 -1.91883e-09 )  
( 5.53445e-09 -1.67982e-10 -2.67514e-09 )  
( 1.87647e-09 1.39656e-10 -1.35439e-09 )  
( 2.2789e-09 -5.81367e-10 -1.28749e-09 )  
( -1.73244e-10 -4.94617e-11 -2.30176e-10 )  
( 1.10069e-09 -2.1288e-10 -7.85087e-10 )  
( 6.18391e-09 1.38114e-09 -2.11845e-09 )  
( 6.16046e-09 2.8976e-10 -2.93641e-09 )  
( 1.09947e-08 1.03693e-09 -4.16835e-09 )  
( 2.76758e-10 3.84481e-10 -3.07023e-10 )  
( 1.34186e-09 -1.7366e-10 -1.30528e-09 )  
( 6.30787e-10 2.25136e-10 -7.35719e-10 )  
( 3.26135e-09 -6.35981e-10 -2.44852e-09 )  
( 2.69338e-09 -6.33785e-10 -1.46453e-09 )  
( 1.01821e-08 1.49784e-09 -3.71232e-09 )  
( 6.85597e-09 7.71556e-10 -3.07287e-09 )  
( 2.43725e-09 -9.15285e-11 -8.73122e-10 )  
( 3.50283e-09 1.13871e-09 -1.55084e-09 )  
( 1.91572e-09 -3.3078e-10 -1.98695e-09 )  
( 1.27984e-09 7.69785e-11 -7.30274e-10 )  
( 4.4442e-09 -7.91585e-10 -3.0992e-09 )  
( 8.30836e-09 3.2768e-11 -3.18189e-09 )  
( 9.18176e-09 1.48509e-09 -3.15532e-09 )  
( 4.2964e-09 1.31624e-09 -2.97715e-09 )  
( 2.63674e-09 -4.79711e-10 -1.34079e-09 )  
( 9.25209e-09 -1.93329e-10 -3.7402e-09 )  
( 1.66374e-10 -7.64495e-12 -9.93877e-11 )  
( 1.27291e-08 9.9085e-10 -4.65584e-09 )  
( 2.6588e-10 2.48784e-11 -2.02284e-10 )  
( 2.40999e-09 -6.39655e-10 -1.49361e-09 )  
( 1.05732e-09 1.93059e-10 -4.78398e-10 )  
( 1.18975e-10 2.53546e-11 -6.71632e-10 )  
( 1.21121e-08 1.23556e-09 -5.18153e-09 )  
( 1.24223e-09 1.00038e-10 -1.18431e-09 )  
( 7.54814e-09 9.46569e-10 -1.84471e-09 )  
( 1.45121e-08 -6.5175e-10 -4.17638e-09 )  
( 6.24196e-09 1.68026e-09 -1.48693e-09 )  
( 1.69782e-08 -1.07676e-09 -4.64851e-09 )  
( 1.0521e-09 -2.27247e-10 -1.06354e-09 )  
( 8.34392e-10 1.85124e-10 -9.21582e-10 )  
( 3.79742e-09 -7.40134e-10 -1.9827e-09 )  
( 4.22997e-09 6.89767e-10 -1.60877e-09 )  
( 3.29427e-09 -7.58529e-11 -2.5843e-09 )  
( 1.54629e-09 -8.77937e-10 -1.28983e-09 )  
( 1.00393e-08 -6.01458e-10 -4.43989e-09 )  
( 9.53202e-09 -3.89274e-10 -8.32972e-10 )  
( 1.63265e-08 -4.51235e-10 -9.02191e-09 )  
( 1.86503e-09 -5.70706e-10 -1.5982e-09 )  
( 1.26563e-08 -7.2654e-10 -5.61776e-09 )  
( 2.08415e-09 -1.17634e-09 -1.37199e-09 )  
( 1.09693e-08 3.08345e-09 -7.44962e-09 )  
( 9.12159e-09 -1.10355e-10 -3.7836e-09 )  
( 1.52569e-08 6.3155e-10 -8.01577e-09 )  
( 9.12014e-09 -1.76146e-11 -4.13542e-09 )  
( 2.13358e-10 -2.31835e-11 -5.88376e-10 )  
( 1.36205e-08 -7.35083e-10 -3.43285e-09 )  
( 2.55966e-10 6.39701e-12 4.29111e-11 )  
( 2.99805e-09 -9.43951e-10 -2.91956e-09 )  
( 6.47105e-09 2.06274e-10 -2.15841e-09 )  
( -1.36636e-11 2.69186e-11 -2.5191e-10 )  
( 1.18189e-09 -1.79869e-10 -8.82541e-10 )  
( 4.67757e-09 8.42963e-10 -5.97424e-10 )  
( 3.5473e-10 -1.49569e-10 -5.50014e-10 )  
( 2.44063e-10 -4.59845e-11 -2.42759e-10 )  
( 3.0969e-09 -8.5358e-10 -1.95289e-09 )  
( 3.97525e-10 1.29834e-10 -4.68211e-10 )  
( 2.35825e-10 -2.30613e-10 -9.32094e-10 )  
( 1.16381e-08 2.71475e-09 -9.39633e-09 )  
( 2.94476e-09 1.66329e-10 -1.62007e-09 )  
( 2.07051e-09 2.07128e-10 -1.98609e-09 )  
( 3.41042e-09 7.90406e-10 -1.49892e-09 )  
( 6.06401e-09 2.90738e-10 -2.59959e-09 )  
( -6.04262e-11 1.58514e-10 -6.84752e-10 )  
( 1.08968e-09 -1.61421e-10 -4.00018e-10 )  
( -1.00974e-10 2.93216e-10 -3.9207e-10 )  
( 6.14635e-09 1.5249e-11 -2.39772e-09 )  
( 2.41398e-09 -6.02225e-10 -2.8674e-09 )  
( 1.60291e-08 -2.54927e-09 -3.44334e-09 )  
( 1.68041e-10 2.257e-10 -5.78015e-10 )  
( 2.22657e-09 -3.91147e-10 -1.33926e-09 )  
( 3.96693e-10 1.55196e-11 -5.35832e-10 )  
( 7.11585e-09 2.56851e-09 3.31608e-10 )  
( 8.87538e-09 3.48044e-10 -4.06981e-09 )  
( 1.78732e-08 1.83861e-10 -1.62815e-09 )  
( 1.27511e-09 -6.21709e-10 -1.30611e-09 )  
( 7.57679e-10 -2.18679e-11 -8.93529e-10 )  
( 2.87601e-09 1.83158e-09 -1.4147e-09 )  
( -7.17272e-11 -7.37176e-12 -1.15286e-10 )  
( 6.87623e-09 2.59684e-09 -4.56358e-09 )  
( 8.29666e-10 1.05365e-10 -6.46846e-10 )  
( 5.22593e-09 1.24579e-09 -1.78683e-09 )  
( 1.22459e-08 3.12355e-09 3.72615e-10 )  
( 8.14177e-10 -3.78072e-12 -1.13782e-09 )  
( 1.26569e-09 -8.36758e-10 -9.36179e-10 )  
( 1.63523e-08 1.16439e-09 -3.35973e-09 )  
( 6.91041e-09 1.62128e-09 -3.22959e-09 )  
( 5.54481e-09 1.08663e-09 -1.97885e-09 )  
( 9.25957e-11 -8.957e-11 -2.80724e-10 )  
( 7.02093e-10 -1.55564e-10 -6.88123e-10 )  
( 1.03907e-10 1.62082e-10 -2.27774e-10 )  
( 7.59479e-09 2.17759e-09 -3.02291e-09 )  
( 3.2269e-09 -1.68721e-10 -2.65184e-09 )  
( 6.74643e-10 7.36462e-11 -3.73525e-10 )  
( 3.94631e-09 9.8606e-10 -2.82267e-09 )  
( 8.20981e-09 7.9601e-10 -3.23506e-09 )  
( 2.81273e-10 1.93888e-10 -7.18658e-10 )  
( 3.78626e-09 -2.33298e-10 -1.47569e-10 )  
( 1.20867e-08 -6.69153e-09 3.06614e-09 )  
( 2.29072e-09 -7.47892e-10 -1.68091e-09 )  
( -9.82914e-11 -2.63045e-10 -2.54855e-10 )  
( 6.36497e-09 1.80273e-09 -2.96607e-09 )  
( 1.20771e-09 -5.44724e-10 -1.17858e-09 )  
( 1.32823e-09 1.72997e-10 -1.38177e-09 )  
( 2.31038e-09 -5.60219e-10 -1.71167e-09 )  
( 2.49109e-09 -4.00118e-11 -1.65568e-09 )  
( 8.6081e-09 2.29418e-09 -1.73029e-09 )  
( 8.25485e-11 -2.71851e-11 -2.25387e-10 )  
( -2.12614e-10 3.01267e-10 -2.13134e-10 )  
( 1.77876e-11 8.63817e-11 -6.84155e-10 )  
( 6.95667e-10 2.8723e-10 -3.92502e-10 )  
( 3.06873e-09 1.59602e-10 -2.68049e-09 )  
( 4.85798e-09 5.7736e-10 -1.90754e-09 )  
( 8.89066e-09 2.36574e-09 -2.57946e-10 )  
( 2.21313e-09 -1.30373e-09 -2.16502e-09 )  
( 1.22089e-09 1.5716e-10 -9.55124e-10 )  
( 1.80475e-09 -8.34846e-10 -1.53409e-09 )  
( 1.18967e-10 -4.39594e-11 -2.19545e-10 )  
( 1.86873e-09 -4.92743e-10 -1.6817e-09 )  
( 9.8356e-09 6.68826e-10 -3.807e-09 )  
( 1.83293e-09 2.66742e-10 -9.5305e-10 )  
( 1.07994e-09 -4.44597e-11 -1.01001e-09 )  
( 1.56489e-10 2.42881e-10 -7.8132e-10 )  
( 5.71158e-09 1.7134e-09 -1.09962e-09 )  
( 9.51334e-10 -2.50039e-11 -6.99789e-10 )  
( 9.31226e-09 1.44982e-09 -3.60475e-09 )  
( 3.2841e-10 5.5948e-11 -2.20154e-10 )  
( 8.39938e-09 1.70961e-09 -4.40145e-09 )  
( 4.31491e-09 -1.75644e-10 -2.63923e-09 )  
( 4.81764e-09 -5.23665e-10 -2.94598e-09 )  
( 1.17365e-08 8.79465e-10 -4.3139e-09 )  
( 2.11126e-09 -8.43066e-10 -1.59943e-09 )  
( 2.83182e-09 -3.59119e-10 -2.21549e-09 )  
( 1.86336e-09 -4.0412e-11 -1.49942e-09 )  
( 2.20481e-09 5.06478e-10 -1.95732e-09 )  
( -1.33366e-11 1.54976e-10 -2.55283e-10 )  
( 1.59958e-08 -3.45317e-10 -3.77673e-09 )  
( 6.34876e-10 5.97599e-11 -4.99503e-10 )  
( 2.75156e-09 2.83099e-10 -8.88182e-10 )  
( 1.28253e-08 -1.9133e-10 -1.84546e-09 )  
( 3.82005e-09 2.38087e-10 -1.87854e-09 )  
( 8.00226e-09 -2.2015e-10 -2.87109e-09 )  
( 4.66766e-09 -8.67848e-10 -2.31258e-09 )  
( 7.53404e-09 9.92761e-10 -2.94679e-09 )  
( 1.31304e-09 -3.45255e-10 -1.37171e-09 )  
( 2.19624e-10 -1.96776e-10 -2.18789e-10 )  
( 9.42119e-10 -5.20279e-10 -1.25038e-09 )  
( 7.59393e-09 1.06802e-09 -3.08688e-09 )  
( 5.13396e-10 1.79381e-10 -6.57188e-10 )  
( -8.21134e-11 2.09825e-10 -3.73983e-10 )  
( 1.55922e-10 1.45712e-10 -1.40836e-10 )  
( 1.30495e-10 -4.02747e-11 -2.77282e-10 )  
( 1.91767e-09 -8.91508e-10 -1.69694e-09 )  
( 1.23242e-08 -1.16464e-09 -2.71761e-09 )  
( 9.20591e-09 -1.73316e-09 -1.83639e-09 )  
( 2.84027e-09 -1.02378e-09 -2.25868e-09 )  
( 7.48466e-10 2.9605e-10 -3.12511e-10 )  
( 3.22451e-09 -1.0875e-09 -2.10679e-09 )  
( 1.24199e-08 9.23692e-10 -5.2927e-09 )  
( 2.57304e-10 1.8754e-10 -3.68252e-10 )  
( 6.33829e-10 -4.41926e-10 -1.06758e-09 )  
( 2.10939e-09 -5.73999e-10 -1.44903e-09 )  
( 8.92263e-09 4.59915e-10 -5.02303e-09 )  
( 2.07527e-10 -5.4764e-11 -2.67457e-10 )  
( 9.2333e-09 7.47391e-10 -2.88319e-09 )  
( 7.86308e-09 2.2146e-10 -6.42551e-10 )  
( 5.34979e-10 1.35239e-10 -5.14889e-10 )  
( 1.09863e-09 4.47122e-11 -7.54004e-10 )  
( 8.16456e-09 1.08493e-09 -2.12079e-09 )  
( 8.39488e-09 -1.09454e-09 -1.57952e-09 )  
( -1.0326e-10 1.1991e-10 -2.73327e-10 )  
( 4.54599e-09 1.13075e-09 -1.24291e-09 )  
( 7.80383e-09 7.84622e-10 -2.98945e-09 )  
( 1.7099e-08 5.17917e-10 -1.05914e-09 )  
( 2.00706e-11 1.77322e-10 -4.38171e-10 )  
( 1.79621e-08 1.79435e-09 -6.65739e-10 )  
( 2.06697e-10 6.35813e-11 -1.72916e-10 )  
( 3.49894e-10 2.92544e-10 -6.95261e-10 )  
( 5.9283e-09 3.98242e-10 -2.63974e-09 )  
( 7.87141e-10 -3.2101e-10 -7.20741e-10 )  
( 3.11751e-10 1.1428e-10 -4.56562e-10 )  
( 2.60144e-09 -4.2656e-10 -2.26246e-09 )  
( 6.66256e-10 -1.86892e-09 -1.36976e-09 )  
( 6.85571e-09 1.16962e-09 -2.05333e-09 )  
( 5.45116e-10 -2.95855e-10 -4.61929e-10 )  
( 9.49149e-09 1.98963e-09 -3.02671e-09 )  
( 7.17491e-10 2.04491e-10 -4.82289e-10 )  
( 3.81985e-09 6.09186e-10 -2.43423e-09 )  
( 5.73776e-10 2.44886e-10 -1.01776e-09 )  
( 5.23384e-09 2.05671e-10 -2.99152e-09 )  
( 2.60846e-09 1.74057e-10 -1.18199e-09 )  
( -2.29727e-10 -7.93088e-10 -1.99083e-10 )  
( 1.68331e-09 -7.65387e-10 -1.44575e-09 )  
( 6.71719e-10 3.02713e-10 -4.08324e-10 )  
( 5.42877e-09 1.17771e-09 -1.41023e-09 )  
( 7.00794e-09 2.23247e-10 -3.09346e-09 )  
( 5.77864e-09 -1.40391e-10 -2.23537e-09 )  
( 1.55067e-10 1.16538e-10 -1.67293e-10 )  
( 2.863e-09 1.60711e-10 -5.59402e-10 )  
( 5.70497e-09 5.46581e-10 -1.02861e-09 )  
( 2.29526e-09 -2.46962e-10 -1.47751e-09 )  
( 9.06046e-11 1.04698e-11 -1.49537e-10 )  
( 7.36786e-09 8.69849e-10 -2.40006e-09 )  
( 3.06069e-09 7.39667e-10 -1.86682e-09 )  
( 2.44283e-10 2.60197e-10 -3.63595e-10 )  
( 4.21688e-10 1.03784e-10 -5.29276e-10 )  
( 2.80308e-10 3.52238e-10 -4.97588e-10 )  
( 3.7785e-09 -2.47555e-10 -1.24825e-09 )  
( 9.64146e-10 -7.83359e-12 -6.23451e-10 )  
( 2.41952e-09 8.90194e-10 -1.54824e-09 )  
( 8.99734e-11 2.3099e-10 -4.4745e-10 )  
( 1.38082e-10 -6.27232e-11 -1.39014e-10 )  
( 1.66437e-10 1.19887e-11 -1.29776e-10 )  
( 2.49149e-09 -7.72691e-10 -1.51368e-09 )  
( 7.59882e-09 3.45133e-11 -2.96153e-09 )  
( 2.71661e-09 -1.16244e-09 -1.57417e-09 )  
( 1.99263e-09 2.92899e-10 -9.12896e-10 )  
( 1.93834e-09 -1.46065e-09 -1.85273e-09 )  
( 2.53195e-10 2.55372e-10 -4.69651e-10 )  
( 9.90364e-10 3.21119e-11 -7.79954e-10 )  
( 1.05029e-09 6.93937e-10 -8.34947e-10 )  
( 2.32845e-08 2.15628e-11 -4.30324e-09 )  
( 1.30817e-09 -4.17193e-10 -7.83581e-10 )  
( 1.8409e-10 2.09425e-10 -3.24577e-10 )  
( 5.3435e-09 5.0806e-10 2.57711e-10 )  
( 1.6186e-10 1.12238e-10 -2.31717e-10 )  
( 3.20007e-09 1.08995e-10 -6.7848e-10 )  
( 1.01095e-09 3.47355e-10 -7.32749e-10 )  
( -1.71319e-10 1.59487e-10 -2.00449e-10 )  
( 4.18241e-10 -1.1137e-10 -3.74723e-10 )  
( 8.08141e-09 -1.04065e-09 -2.11653e-09 )  
( 2.02289e-09 -4.17152e-10 3.84328e-11 )  
( 2.64025e-10 -2.67311e-11 -2.70591e-10 )  
( -1.62124e-10 1.71718e-10 -1.14527e-10 )  
( 2.56522e-09 4.08827e-10 -1.75019e-10 )  
( 2.01134e-09 -5.89171e-10 -1.27161e-09 )  
( 5.14561e-09 -8.83235e-10 -1.85518e-09 )  
( 2.44024e-09 -5.99875e-10 -1.81386e-09 )  
( 5.75809e-10 2.47877e-10 -1.35581e-10 )  
( 5.71907e-10 -5.10008e-10 -7.93494e-10 )  
( 1.52883e-09 -1.73114e-11 -8.14701e-10 )  
( 1.42053e-10 -1.51887e-10 -1.48012e-11 )  
( 3.02085e-09 1.03644e-10 -1.77904e-09 )  
( 1.08131e-09 -1.0438e-09 -8.42977e-10 )  
( 4.65609e-09 -2.4303e-10 -6.45101e-10 )  
( 2.52323e-10 1.0319e-10 -6.05581e-10 )  
( 1.24049e-09 2.43469e-10 -5.12119e-10 )  
( 2.2188e-10 -1.96283e-10 -4.65427e-10 )  
( 1.6302e-10 2.09304e-11 -1.2777e-10 )  
( 7.678e-09 -1.14071e-09 -2.36056e-09 )  
( 1.18926e-09 1.86737e-10 -4.59001e-10 )  
( -2.5536e-11 1.45925e-10 -1.13806e-10 )  
( 9.6473e-10 -1.21408e-09 -9.23634e-10 )  
( 2.29587e-09 9.05895e-12 -6.76401e-10 )  
( -1.49727e-10 -2.2128e-09 -5.7776e-10 )  
( 1.15764e-08 8.36305e-10 -4.47865e-09 )  
( 1.7533e-09 5.45806e-10 -1.28177e-09 )  
( 2.2485e-09 8.13646e-11 -1.63455e-09 )  
( 1.63384e-09 -1.49912e-09 -3.11718e-10 )  
( 8.1343e-11 9.47657e-12 -2.81501e-10 )  
( 8.60425e-10 5.10357e-11 -7.25847e-10 )  
( 4.0193e-10 -5.20643e-10 -4.41077e-10 )  
( -2.40979e-10 1.6867e-10 -6.31631e-11 )  
( 1.17049e-09 -1.27341e-10 -5.34116e-10 )  
( 7.01636e-10 -2.62667e-10 -6.54165e-10 )  
( 6.97637e-09 3.0235e-10 -3.06904e-09 )  
( 1.95995e-09 1.38121e-09 -6.67598e-10 )  
( 3.66492e-10 -6.12319e-11 -3.70727e-10 )  
( 1.14867e-09 -4.64932e-10 -9.52038e-10 )  
( 1.56695e-10 2.54165e-11 -5.14593e-11 )  
( 1.06664e-10 -4.29546e-11 -1.26208e-10 )  
( 4.84689e-10 1.16113e-10 -3.30738e-10 )  
( 5.68727e-10 3.30557e-10 -3.65412e-10 )  
( -1.33302e-10 2.2627e-10 -1.43609e-10 )  
( 6.86277e-11 1.57991e-10 -2.21669e-10 )  
( -9.78806e-09 8.59491e-09 -1.46582e-09 )  
( 2.48693e-10 -1.31708e-10 -4.48088e-10 )  
( 1.94023e-09 1.68193e-10 -4.25272e-10 )  
( 3.41945e-09 3.41418e-10 -9.79651e-10 )  
( 3.70103e-11 1.54423e-10 -2.4067e-10 )  
( 1.28566e-10 4.71802e-12 5.89669e-12 )  
( 5.25699e-09 4.2452e-10 -1.63165e-09 )  
( 7.21397e-09 1.61847e-09 -1.19797e-09 )  
( 3.47625e-09 9.85167e-11 -1.66227e-09 )  
( 1.19443e-09 -3.38388e-10 -1.14307e-09 )  
)
