/*--------------------------------*- C++ -*----------------------------------*\
| =========                 |                                                 |
| \\      /  F ield         | OpenFOAM: The Open Source CFD Toolbox           |
|  \\    /   O peration     | Version:  4.x                                   |
|   \\  /    A nd           | Web:      www.OpenFOAM.org                      |
|    \\/     M anipulation  |                                                 |
\*---------------------------------------------------------------------------*/
FoamFile
{
    version     2.0;
    format      ascii;
    class       volScalarField;
    location    "5";
    object      Deff;
}
// * * * * * * * * * * * * * * * * * * * * * * * * * * * * * * * * * * * * * //

dimensions      [0 2 -1 0 0 0 0];

internalField   nonuniform List<scalar> 
108
(
9.88978e-08
9.89448e-08
9.88106e-08
9.89186e-08
9.88754e-08
9.8903e-08
9.87524e-08
9.87544e-08
9.87177e-08
9.89232e-08
9.87466e-08
9.8851e-08
9.88574e-08
9.88035e-08
9.88369e-08
9.86697e-08
9.86616e-08
9.86441e-08
9.89726e-08
9.89083e-08
9.89429e-08
9.89111e-08
9.88297e-08
9.88284e-08
9.86924e-08
9.86664e-08
9.8731e-08
9.9135e-08
9.91172e-08
9.90191e-08
9.88532e-08
9.88675e-08
9.88284e-08
9.88533e-08
9.87166e-08
9.87717e-08
9.84807e-08
9.84772e-08
9.83109e-08
9.83029e-08
9.83483e-08
9.83689e-08
9.82915e-08
9.82534e-08
9.81812e-08
9.85221e-08
9.84673e-08
9.8363e-08
9.83708e-08
9.83787e-08
9.83479e-08
9.81925e-08
9.82084e-08
9.82182e-08
9.84361e-08
9.84682e-08
9.84299e-08
9.83732e-08
9.83785e-08
9.8334e-08
9.82809e-08
9.8238e-08
9.82366e-08
9.86542e-08
9.86954e-08
9.85939e-08
9.84999e-08
9.83765e-08
9.84256e-08
9.83523e-08
9.83035e-08
9.83636e-08
9.81322e-08
9.80411e-08
9.80063e-08
9.79454e-08
9.80131e-08
9.7961e-08
9.78526e-08
9.79176e-08
9.79233e-08
9.81431e-08
9.81741e-08
9.80683e-08
9.81739e-08
9.81279e-08
9.79436e-08
9.78785e-08
9.78372e-08
9.79509e-08
9.83108e-08
9.81715e-08
9.81133e-08
9.81776e-08
9.80833e-08
9.79477e-08
9.79491e-08
9.79218e-08
9.80073e-08
9.84579e-08
9.84736e-08
9.83266e-08
9.82533e-08
9.81718e-08
9.80443e-08
9.80201e-08
9.79396e-08
9.7946e-08
)
;

boundaryField
{
    inlet
    {
        type            calculated;
        value           nonuniform 0();
    }
    outlet
    {
        type            calculated;
        value           uniform 0;
    }
    wall
    {
        type            calculated;
        value           uniform 0;
    }
    procBoundary3to1
    {
        type            processor;
        value           uniform 0;
    }
    procBoundary3to2
    {
        type            processor;
        value           uniform 0;
    }
    procBoundary3to7
    {
        type            processor;
        value           uniform 0;
    }
}


// ************************************************************************* //
