/*--------------------------------*- C++ -*----------------------------------*\
| =========                 |                                                 |
| \\      /  F ield         | OpenFOAM: The Open Source CFD Toolbox           |
|  \\    /   O peration     | Version:  4.x                                   |
|   \\  /    A nd           | Web:      www.OpenFOAM.org                      |
|    \\/     M anipulation  |                                                 |
\*---------------------------------------------------------------------------*/
FoamFile
{
    version     2.0;
    format      ascii;
    class       volScalarField;
    location    "5";
    object      thCond;
}
// * * * * * * * * * * * * * * * * * * * * * * * * * * * * * * * * * * * * * //

dimensions      [1 1 -3 -1 0 0 0];

internalField   nonuniform List<scalar> 
108
(
191.978
192.069
191.809
192.018
191.935
191.988
191.696
191.7
191.628
192.027
191.685
191.887
191.9
191.795
191.86
191.535
191.52
191.486
192.123
191.999
192.066
192.004
191.846
191.843
191.579
191.529
191.654
192.438
192.404
192.214
191.892
191.919
191.843
191.892
191.626
191.733
191.168
191.162
190.839
190.823
190.911
190.951
190.801
190.727
190.587
191.249
191.142
190.94
190.955
190.97
190.911
190.609
190.64
190.659
191.082
191.144
191.07
190.96
190.97
190.884
190.78
190.697
190.695
191.505
191.585
191.388
191.206
190.966
191.061
190.919
190.824
190.941
190.492
190.315
190.248
190.129
190.261
190.16
189.949
190.075
190.086
190.513
190.573
190.368
190.573
190.483
190.126
190
189.919
190.14
190.839
190.568
190.455
190.58
190.397
190.134
190.136
190.084
190.249
191.124
191.155
190.869
190.727
190.569
190.321
190.274
190.118
190.13
)
;

boundaryField
{
    inlet
    {
        type            zeroGradient;
    }
    outlet
    {
        type            zeroGradient;
    }
    wall
    {
        type            zeroGradient;
    }
    procBoundary3to1
    {
        type            processor;
        value           nonuniform List<scalar> 
27
(
192.408
192.169
191.952
191.709
191.825
191.827
191.619
191.671
191.838
191.372
191.398
191.329
191.143
191.122
190.876
190.659
190.549
191.134
190.723
190.695
190.707
190.262
190.215
190.094
190.127
190.158
190.672
)
;
    }
    procBoundary3to2
    {
        type            processor;
        value           nonuniform List<scalar> 
12
(
192.539
192.463
192.665
192.889
191.325
191.61
191.632
191.991
190.815
190.983
190.825
190.98
)
;
    }
    procBoundary3to7
    {
        type            processor;
        value           nonuniform List<scalar> 
36
(
189.999
189.948
190.002
189.835
189.46
189.397
189.512
189.736
189.548
190.174
189.854
189.939
189.932
189.658
189.722
189.596
189.671
189.577
190.539
190.145
190.114
190.036
189.805
189.63
189.603
189.682
189.646
190.803
190.359
190.096
190.229
189.971
189.852
189.716
189.928
190.187
)
;
    }
}


// ************************************************************************* //
