/*--------------------------------*- C++ -*----------------------------------*\
| =========                 |                                                 |
| \\      /  F ield         | OpenFOAM: The Open Source CFD Toolbox           |
|  \\    /   O peration     | Version:  4.x                                   |
|   \\  /    A nd           | Web:      www.OpenFOAM.org                      |
|    \\/     M anipulation  |                                                 |
\*---------------------------------------------------------------------------*/
FoamFile
{
    version     2.0;
    format      ascii;
    class       volScalarField;
    location    "11";
    object      alpha.iron;
}
// * * * * * * * * * * * * * * * * * * * * * * * * * * * * * * * * * * * * * //

dimensions      [0 0 0 0 0 0 0];

internalField   nonuniform List<scalar> 
87
(
0.999746
0.999741
0.999708
0.99988
0.999819
0.999739
1
0.999998
0.999992
0.99997
0.999929
0.999874
0.999827
0.999816
0.99985
1
0.999999
0.999993
0.999978
0.999945
0.999898
0.999848
0.999818
0.999822
1
0.999999
0.999996
0.999988
0.999971
0.999944
0.999906
0.999861
0.999809
1
0.999999
0.999994
0.99998
0.999951
0.99991
0.999866
0.999839
0.999842
1
0.999999
0.999995
0.999984
0.99996
0.999924
0.999881
0.99985
0.999847
1
0.999999
0.999997
0.99999
0.999977
0.999957
0.999928
0.999896
0.99986
1
0.999999
0.999996
0.999988
0.99997
0.999944
0.999908
0.999869
0.999831
1
0.999999
0.999996
0.999989
0.999975
0.999953
0.999922
0.999888
0.999855
1
0.999999
0.999997
0.999991
0.999979
0.999961
0.999935
0.999903
0.999869
)
;

boundaryField
{
    inlet
    {
        type            fixedValue;
        value           uniform 1;
    }
    outlet
    {
        type            fixedValue;
        value           nonuniform 0();
    }
    wall
    {
        type            zeroGradient;
    }
    procBoundary6to0
    {
        type            processor;
        value           uniform 0.999682;
    }
    procBoundary6to2
    {
        type            processor;
        value           nonuniform List<scalar> 
32
(
0.999529
0.999558
0.999486
0.999796
0.999688
0.99956
1
0.999998
0.999992
0.999971
0.99993
0.99987
0.999802
0.999759
0.999759
0.999759
1
0.999999
0.999993
0.999974
0.999936
0.999876
0.999801
0.999801
0.999801
1
0.999999
0.999995
0.999985
0.999964
0.999931
0.999931
)
;
    }
    procBoundary6to4
    {
        type            processor;
        value           nonuniform List<scalar> 
27
(
1
0.999999
0.999992
0.999971
0.999929
0.999869
0.999811
0.999786
0.999805
1
0.999999
0.999994
0.999981
0.999952
0.999909
0.999859
0.999824
0.999818
1
0.999999
0.999996
0.999987
0.999968
0.999941
0.999904
0.999868
0.999835
)
;
    }
    procBoundary6to7
    {
        type            processor;
        value           nonuniform List<scalar> 
12
(
0.999791
0.999742
0.999657
0.999932
0.999872
0.99976
0.999877
0.999881
0.999827
0.999799
0.999824
0.999835
)
;
    }
}


// ************************************************************************* //
