/*--------------------------------*- C++ -*----------------------------------*\
| =========                 |                                                 |
| \\      /  F ield         | OpenFOAM: The Open Source CFD Toolbox           |
|  \\    /   O peration     | Version:  4.x                                   |
|   \\  /    A nd           | Web:      www.OpenFOAM.org                      |
|    \\/     M anipulation  |                                                 |
\*---------------------------------------------------------------------------*/
FoamFile
{
    version     2.0;
    format      ascii;
    class       volScalarField;
    location    "11";
    object      magGField;
}
// * * * * * * * * * * * * * * * * * * * * * * * * * * * * * * * * * * * * * //

dimensions      [1 -2 -1 0 0 0 0];

internalField   nonuniform List<scalar> 
87
(
86.9319
17.5329
87.0843
98.7983
51.8628
102.219
88.8872
30.7356
83.9023
17.3976
80.3425
7.84044
79.2222
2.44507
78.8557
91.0467
33.4044
86.6697
23.0063
83.1702
14.0605
81.3583
7.56203
80.6821
92.9309
43.0454
93.3609
44.3564
92.8254
43.7038
93.1118
44.2699
94.0073
89.1391
34.5352
85.6435
25.5984
83.94
19.3772
83.294
15.4575
83.3509
91.2812
37.6053
88.5384
31.5844
86.6355
26.2556
85.149
21.3801
84.5492
92.5929
45.313
94.7111
48.6641
95.8278
51.1247
97.9665
53.5767
100.917
91.3405
42.4113
90.8196
40.6589
90.0915
39.076
89.8008
37.7519
91.4174
92.0298
44.6668
93.0004
46.5282
93.4444
48.0059
94.5849
49.908
96.4374
93.1282
47.5234
96.2673
52.9664
99.3195
56.6142
101.501
59.6963
103.202
)
;

boundaryField
{
    inlet
    {
        type            calculated;
        value           uniform 67;
    }
    outlet
    {
        type            calculated;
        value           nonuniform 0();
    }
    wall
    {
        type            calculated;
        value           uniform 0;
    }
    procBoundary6to0
    {
        type            processor;
        value           uniform 85.2312;
    }
    procBoundary6to2
    {
        type            processor;
        value           nonuniform List<scalar> 
32
(
85.0702
11.5649
85.2752
98.5216
51.0427
100.856
91.4045
33.6804
87.1187
24.3523
85.1966
18.0249
85.3173
15.2812
15.2812
15.2812
91.7581
35.8329
88.5403
28.0961
86.3564
21.1731
85.654
85.654
85.654
93.2039
44.125
94.9646
46.859
96.7089
49.1288
49.1288
)
;
    }
    procBoundary6to4
    {
        type            processor;
        value           nonuniform List<scalar> 
27
(
91.0425
31.9185
84.0682
18.4427
79.7911
7.93811
77.1373
1.14677
76.2443
89.9929
34.1496
85.3311
23.8693
82.0378
16.5086
80.611
11.3039
79.5622
89.9329
40.308
89.3262
38.3664
89.0457
39.2825
91.0651
44.4133
93.6962
)
;
    }
    procBoundary6to7
    {
        type            processor;
        value           nonuniform List<scalar> 
12
(
15.7984
18.7729
55.3199
1.05385
3.92068
44.4504
11.589
17.9205
56.5813
36.2626
52.1671
61.5178
)
;
    }
}


// ************************************************************************* //
