/*--------------------------------*- C++ -*----------------------------------*\
| =========                 |                                                 |
| \\      /  F ield         | OpenFOAM: The Open Source CFD Toolbox           |
|  \\    /   O peration     | Version:  4.x                                   |
|   \\  /    A nd           | Web:      www.OpenFOAM.org                      |
|    \\/     M anipulation  |                                                 |
\*---------------------------------------------------------------------------*/
FoamFile
{
    version     2.0;
    format      ascii;
    class       volScalarField;
    location    "11";
    object      Sm;
}
// * * * * * * * * * * * * * * * * * * * * * * * * * * * * * * * * * * * * * //

dimensions      [1 -3 -1 0 0 0 0];

internalField   nonuniform List<scalar> 
87
(
6.74205e-65
6.04473e-65
7.12961e-65
5.11486e-65
5.8123e-65
4.95981e-65
1.03851e-64
7.59501e-65
4.95996e-65
7.43985e-65
9.3772e-65
6.12224e-65
7.36215e-65
6.50962e-65
8.52446e-65
5.81255e-65
7.90503e-65
6.43247e-65
8.52487e-65
7.36233e-65
7.82724e-65
7.05221e-65
8.6021e-65
7.59461e-65
4.96005e-65
7.20754e-65
5.425e-65
6.12244e-65
7.59489e-65
8.75728e-65
6.35481e-65
6.81976e-65
7.51722e-65
7.98257e-65
7.67252e-65
7.90496e-65
7.28489e-65
5.42486e-65
7.05226e-65
6.27725e-65
5.88971e-65
7.90456e-65
5.65755e-65
7.28503e-65
6.81999e-65
7.20741e-65
5.96741e-65
5.57984e-65
7.74974e-65
5.73478e-65
7.74964e-65
5.19256e-65
6.74254e-65
5.58e-65
7.59496e-65
7.28492e-65
5.96739e-65
6.50986e-65
6.12232e-65
5.65734e-65
4.72755e-65
5.27003e-65
5.96749e-65
6.89743e-65
6.5099e-65
6.43233e-65
8.67972e-65
8.75716e-65
3.79736e-65
6.04506e-65
5.50254e-65
6.82001e-65
5.65746e-65
8.60239e-65
5.65739e-65
6.89733e-65
5.65732e-65
7.82724e-65
4.41755e-65
6.27754e-65
6.12252e-65
6.43249e-65
4.95997e-65
8.21489e-65
4.80494e-65
5.11491e-65
6.04488e-65
)
;

boundaryField
{
    inlet
    {
        type            calculated;
        value           uniform 0;
    }
    outlet
    {
        type            calculated;
        value           nonuniform 0();
    }
    wall
    {
        type            calculated;
        value           uniform 0;
    }
    procBoundary6to0
    {
        type            processor;
        value           uniform 2.32482e-65;
    }
    procBoundary6to2
    {
        type            processor;
        value           nonuniform List<scalar> 
32
(
4.88221e-65
7.43969e-65
8.36958e-65
8.2923e-65
4.95984e-65
8.91218e-65
4.80504e-65
8.1375e-65
8.36993e-65
6.50989e-65
6.43232e-65
6.27724e-65
6.27718e-65
7.74952e-65
7.74952e-65
7.74952e-65
6.89757e-65
6.89752e-65
8.36997e-65
5.81242e-65
7.20733e-65
6.89726e-65
8.36968e-65
8.36968e-65
8.36968e-65
5.27005e-65
6.51003e-65
6.27749e-65
7.12994e-65
5.50241e-65
6.35484e-65
6.35484e-65
)
;
    }
    procBoundary6to4
    {
        type            processor;
        value           nonuniform List<scalar> 
27
(
4.34003e-65
5.73501e-65
7.59493e-65
5.1924e-65
7.36226e-65
6.04474e-65
9.53198e-65
5.96713e-65
5.96709e-65
6.66506e-65
7.20752e-65
5.96745e-65
8.52487e-65
8.75726e-65
6.43226e-65
9.60955e-65
7.90458e-65
6.81961e-65
7.75007e-65
7.05254e-65
5.81249e-65
7.8274e-65
7.12986e-65
9.22223e-65
4.49485e-65
4.8823e-65
6.35471e-65
)
;
    }
    procBoundary6to7
    {
        type            processor;
        value           nonuniform List<scalar> 
12
(
7.67194e-65
5.50216e-65
5.11476e-65
3.95221e-65
5.81218e-65
5.65725e-65
8.05953e-65
7.05216e-65
5.34733e-65
6.89717e-65
5.96729e-65
6.27735e-65
)
;
    }
}


// ************************************************************************* //
