/*--------------------------------*- C++ -*----------------------------------*\
| =========                 |                                                 |
| \\      /  F ield         | OpenFOAM: The Open Source CFD Toolbox           |
|  \\    /   O peration     | Version:  4.x                                   |
|   \\  /    A nd           | Web:      www.OpenFOAM.org                      |
|    \\/     M anipulation  |                                                 |
\*---------------------------------------------------------------------------*/
FoamFile
{
    version     2.0;
    format      ascii;
    class       volScalarField;
    location    "24";
    object      KslNext;
}
// * * * * * * * * * * * * * * * * * * * * * * * * * * * * * * * * * * * * * //

dimensions      [1 -3 -1 0 0 0 0];

internalField   nonuniform List<scalar> 
132
(
3406
6458.08
3154
5047.79
2958.65
4381.04
2834.89
3958.62
2655.52
3426.02
6890.48
3272.67
5637.72
3115.06
4963.06
2988.32
4491.61
2867.13
3442.01
7190.48
3340.08
6080.38
3253.46
5462.11
3129.25
5093.36
3081.91
3453.18
7140.79
3310.06
3460.3
7286.48
3366.72
6478.86
3307.86
5960.08
3236.99
5585.96
3104.84
3493.48
8218.35
3547.39
8059.54
3595.32
8162.2
3569.63
8230.6
3482.3
3538.39
8861.85
3636.74
9503.14
3722.43
10834.5
3775.87
13026.2
3724.54
3579.63
8834.25
3668.77
9651.67
3776.84
3485.95
7679.19
3480.65
7224.47
3448.74
6895.79
3401.75
6698.58
3308.79
3545.94
8924.46
3678.15
9934.68
3779.52
11475.5
3823.63
13836.2
3777.47
3596.83
10047.9
3833.05
14794.8
4011.6
26167.6
4068.1
59611.2
4027.56
3622.37
10439.6
3880.92
16130.6
4013.87
28085.4
4026.31
3482.44
7438.38
3461.71
6910.85
3402.35
6611.55
3337.85
6329.84
3223.47
3558.19
9044.78
3721.76
10380
3769.06
11581.6
3781.37
13091.6
3703.1
3620.41
9593.59
3847.07
13010.9
3942.12
18408.1
3980.76
27671.8
3949.11
3604.51
10017.6
3893.02
14997.4
3974.03
22555.5
3995.61
37356.3
3977.32
)
;

boundaryField
{
    inlet
    {
        type            zeroGradient;
    }
    outlet
    {
        type            zeroGradient;
    }
    wall
    {
        type            zeroGradient;
    }
    procBoundary0to1
    {
        type            processor;
        value           uniform 0;
    }
    procBoundary0to2
    {
        type            processor;
        value           uniform 0;
    }
    procBoundary0to4
    {
        type            processor;
        value           uniform 0;
    }
    procBoundary0to6
    {
        type            processor;
        value           uniform 0;
    }
    procBoundary0to7
    {
        type            processor;
        value           uniform 0;
    }
}


// ************************************************************************* //
