/*--------------------------------*- C++ -*----------------------------------*\
| =========                 |                                                 |
| \\      /  F ield         | OpenFOAM: The Open Source CFD Toolbox           |
|  \\    /   O peration     | Version:  4.x                                   |
|   \\  /    A nd           | Web:      www.OpenFOAM.org                      |
|    \\/     M anipulation  |                                                 |
\*---------------------------------------------------------------------------*/
FoamFile
{
    version     2.0;
    format      ascii;
    class       volVectorField;
    location    "24";
    object      U;
}
// * * * * * * * * * * * * * * * * * * * * * * * * * * * * * * * * * * * * * //

dimensions      [0 1 -1 0 0 0 0];

internalField   nonuniform List<vector> 
132
(
(0.0290875 -0.000478438 -0.00104611)
(0.0154404 -0.000337855 -0.00075622)
(0.0322073 -0.000580495 -0.00116863)
(0.0202928 -0.000262651 -0.000666451)
(0.0352912 -0.000407893 -0.000897136)
(0.0241528 -0.000133492 -0.000462806)
(0.0379146 -0.000238337 -0.000691571)
(0.0269027 -1.7395e-05 -0.00038281)
(0.0400576 3.12831e-05 -0.000545256)
(0.0291737 -0.000857539 -0.00124759)
(0.0146966 -0.000649111 -0.000758514)
(0.031607 -0.00107756 -0.00129601)
(0.0185013 -0.000570671 -0.000756744)
(0.0340268 -0.00087733 -0.00112503)
(0.021643 -0.000397644 -0.000565611)
(0.0362068 -0.000777145 -0.000905879)
(0.0240734 -0.000582735 -0.000397731)
(0.0380198 -0.000769788 -0.000651919)
(0.0292313 -0.000633166 -0.00132348)
(0.014223 -0.000416183 -0.000680941)
(0.0312297 -0.000763798 -0.00128995)
(0.0172993 -0.000455381 -0.000663031)
(0.0330089 -0.00055218 -0.00115293)
(0.0196601 -0.000223091 -0.000571829)
(0.0345596 -0.000430758 -0.000988764)
(0.0212249 -0.000144195 -0.000198065)
(0.035553 -0.000389224 -0.000738822)
(0.0292402 -0.000407503 -0.00147305)
(0.0142868 -0.000133231 -0.000739918)
(0.0313311 -0.000240654 -0.00144906)
(0.0289433 -0.000664688 -0.0022391)
(0.0139188 -0.000336872 -0.00143509)
(0.0307876 -0.000696871 -0.00241772)
(0.01616 -0.000332471 -0.00132368)
(0.0322233 -0.00060579 -0.00193477)
(0.0179817 -0.00019846 -0.00116151)
(0.0335845 -0.000408924 -0.00168093)
(0.019245 -3.76813e-06 -0.00121599)
(0.0348382 -5.93901e-05 -0.00141029)
(0.0290049 -0.00109131 -0.00251146)
(0.0126039 -0.000534156 -0.0013885)
(0.0298291 -0.00116176 -0.00261457)
(0.0132317 -0.000476592 -0.00126423)
(0.0303715 -0.00105539 -0.00217765)
(0.0133728 -0.000354752 -0.0010314)
(0.0309711 -0.000961053 -0.00189534)
(0.0133097 -0.000224798 -0.000981484)
(0.0316688 -0.000887211 -0.00145665)
(0.0288846 -0.000819436 -0.00270887)
(0.0117698 -0.000337477 -0.00135622)
(0.0292824 -0.000857097 -0.00286886)
(0.0112722 -0.000325363 -0.00122638)
(0.0293521 -0.000760971 -0.00233696)
(0.010073 -0.000187284 -0.00091823)
(0.0293744 -0.000541553 -0.00171975)
(0.00835074 -6.38547e-05 -0.000669178)
(0.029404 -0.000502043 -0.00103625)
(0.0288 -0.000230651 -0.00285129)
(0.0117707 -0.000130389 -0.00149381)
(0.0290638 -0.000225031 -0.0030026)
(0.0110836 -6.59628e-05 -0.00123351)
(0.0291287 -4.85172e-06 -0.00245084)
(0.0289402 -0.000765989 -0.00169166)
(0.0133019 -0.000386086 -0.00108132)
(0.0300424 -0.000834755 -0.00175439)
(0.0145203 -0.000371986 -0.00104872)
(0.0309183 -0.000762082 -0.00139943)
(0.0154525 -0.000255859 -0.000971113)
(0.0317267 -0.000603165 -0.0011073)
(0.0159123 -0.000136097 -0.00105307)
(0.0322679 -0.000270895 -0.000987936)
(0.0289056 -0.00133586 -0.00196808)
(0.0116775 -0.000654641 -0.00112128)
(0.0289539 -0.00156348 -0.00196721)
(0.0107496 -0.000604888 -0.000870507)
(0.0288284 -0.00133763 -0.00141051)
(0.00942154 -0.000389447 -0.000732113)
(0.0287509 -0.000945363 -0.00114371)
(0.0078248 -0.000317256 -0.000637824)
(0.0288004 -0.000619426 -0.000883932)
(0.0287469 -0.000994112 -0.00190212)
(0.0104265 -0.00048255 -0.00104701)
(0.0280305 -0.0011221 -0.00192383)
(0.00728342 -0.000302386 -0.000673176)
(0.0273676 -0.000779954 -0.00125442)
(0.00413951 -0.000116631 -0.000375196)
(0.0269565 -0.00038096 -0.000734823)
(0.00178649 -4.63705e-05 -0.000216311)
(0.0266424 -0.000260043 -0.000285018)
(0.0286944 -0.000129116 -0.00206433)
(0.0100688 -4.99635e-05 -0.0011793)
(0.02784 -6.49377e-05 -0.00216099)
(0.00668518 -4.14687e-05 -0.000663056)
(0.0273016 -8.21699e-06 -0.00135059)
(0.00385099 -7.78947e-05 -0.000424265)
(0.0271654 -6.95763e-05 -0.000968283)
(0.0288955 -0.000964501 -0.00127206)
(0.0137005 -0.000527876 -0.000901086)
(0.0301888 -0.00100601 -0.00138673)
(0.0151116 -0.000434988 -0.000911741)
(0.0311935 -0.000779375 -0.00114258)
(0.0160396 -0.000374945 -0.000900035)
(0.0320013 -0.000685233 -0.00098851)
(0.01663 -0.000197172 -0.00100842)
(0.0328956 -0.000358906 -0.00083649)
(0.028802 -0.00131754 -0.00147495)
(0.0115649 -0.000687193 -0.000874116)
(0.0287487 -0.00143069 -0.00155878)
(0.0102983 -0.000548632 -0.000728036)
(0.028614 -0.00113904 -0.00111411)
(0.00924404 -0.000455174 -0.000595239)
(0.028738 -0.000920462 -0.000864673)
(0.0081133 -0.000474149 -0.000640724)
(0.0289163 -0.000815856 -0.000844805)
(0.0285685 -0.000930869 -0.00142085)
(0.0109272 -0.00052934 -0.000822262)
(0.0280296 -0.00111285 -0.00127902)
(0.00823433 -0.000381991 -0.0005423)
(0.0274978 -0.000801674 -0.000779045)
(0.00582448 -0.000280964 -0.000407503)
(0.0271354 -0.000516593 -0.000638649)
(0.00379166 -0.000260169 -0.00035136)
(0.0268702 -0.000522358 -0.000177637)
(0.028699 -0.000265101 -0.00134094)
(0.01051 -4.28549e-05 -0.000859235)
(0.0278231 -2.79682e-05 -0.00134358)
(0.00718322 7.66639e-05 -0.000603492)
(0.0271695 0.000159544 -0.0010346)
(0.0047426 9.9613e-05 -0.000473002)
(0.026947 0.000142803 -0.000828476)
(0.00279227 0.000108722 -0.000345048)
(0.0263185 0.000308204 -0.000403346)
)
;

boundaryField
{
    inlet
    {
        type            fixedValue;
        value           uniform (0.01 0 0);
    }
    outlet
    {
        type            zeroGradient;
    }
    wall
    {
        type            fixedValue;
        value           uniform (0 0 0);
    }
    procBoundary0to1
    {
        type            processor;
        value           nonuniform List<vector> 
12
(
(0.029066 0.00050015 -7.6627e-06)
(0.0259461 -0.000377923 -0.000109724)
(0.0216542 -0.000150818 -7.62687e-05)
(0.0200951 0.000338119 -0.0011933)
(0.0134078 -0.000271963 -0.000948949)
(0.00623314 -7.50183e-05 -0.00065992)
(0.0157236 0.000160757 -0.00109885)
(0.00663601 -0.000413267 -0.000656168)
(2.58559e-08 4.10842e-09 -1.7291e-09)
(0.0167863 -0.000148456 -0.000719599)
(0.00715679 -0.000693095 -0.000568706)
(0.00163193 -0.000230101 -0.00014273)
)
;
    }
    procBoundary0to2
    {
        type            processor;
        value           nonuniform List<vector> 
44
(
(0.017569 -0.000145502 -0.000764101)
(0.0332522 -0.000147538 -0.0014192)
(0.0201894 -0.000136014 -0.00070518)
(0.0350339 -0.000113921 -0.00110893)
(0.0222 4.18202e-05 -0.000452665)
(0.0367448 0.000117802 -0.000799946)
(0.0289943 0.000133435 -0.00111659)
(0.0137215 8.1895e-05 -0.000670654)
(0.017569 -0.000145502 -0.000764101)
(0.0306676 0.000269535 -0.00126703)
(0.017569 -0.000145502 -0.000764101)
(0.0332522 -0.000147538 -0.0014192)
(0.0096027 -2.51469e-05 -0.000923116)
(0.0291144 7.25629e-05 -0.0018165)
(0.00828228 4.44912e-05 -0.00078337)
(0.0293747 0.00033748 -0.00120309)
(0.0288478 0.000341436 -0.00243746)
(0.0118514 7.9737e-05 -0.00131518)
(0.0291043 0.000366799 -0.00269452)
(0.0109351 0.000214412 -0.00115158)
(0.0096027 -2.51469e-05 -0.000923116)
(0.0290585 0.000474634 -0.00220776)
(0.0096027 -2.51469e-05 -0.000923116)
(0.0291144 7.25629e-05 -0.0018165)
(0.00213972 -3.5459e-05 -0.000312015)
(0.0271765 -4.49943e-05 -0.000635693)
(0.0287968 0.000577917 -0.00193718)
(0.0109204 0.000201639 -0.00101336)
(0.0281283 0.000526465 -0.00175073)
(0.00835019 0.000148934 -0.000632207)
(0.0276246 0.000390881 -0.00113844)
(0.00584979 3.37062e-06 -0.000388433)
(0.00213972 -3.5459e-05 -0.000312015)
(0.0274371 -6.09054e-05 -0.000718843)
(0.00213972 -3.5459e-05 -0.000312015)
(0.0271765 -4.49943e-05 -0.000635693)
(0.0286722 0.000540396 -0.00169901)
(0.010812 0.000343681 -0.000803488)
(0.0280848 0.000773365 -0.00149115)
(0.00850036 0.000293106 -0.000659813)
(0.0278149 0.00062557 -0.00105552)
(0.00692143 0.000283906 -0.000477284)
(0.027919 0.000498304 -0.000617594)
(0.00564473 0.000310369 -0.000559548)
)
;
    }
    procBoundary0to4
    {
        type            processor;
        value           nonuniform List<vector> 
36
(
(0.029017 -0.00099715 -0.000717496)
(0.0135999 -0.000525356 -0.000519772)
(0.0299194 -0.00112174 -0.000823753)
(0.0143296 -0.000506283 -0.000624544)
(0.0304162 -0.000904696 -0.000612897)
(0.0146931 -0.000333119 -0.000598101)
(0.0308727 -0.000696898 -0.000632502)
(0.0145927 -0.000324331 -0.000743031)
(0.0313964 -0.000649655 -0.000313294)
(0.0287932 -0.00150061 -0.000641637)
(0.0112634 -0.000726368 -0.000394801)
(0.028263 -0.00155332 -0.000696081)
(0.00874587 -0.000522935 -0.000419347)
(0.0278047 -0.00114543 -0.000595929)
(0.00663211 -0.000339242 -0.000350696)
(0.0275361 -0.000856481 -0.000563079)
(0.00454733 -0.000303115 -0.000349488)
(0.0275271 -0.000407509 -0.000220755)
(0.0287884 -0.000867292 -0.000666814)
(0.0104108 -0.000530009 -0.000386256)
(0.0276331 -0.000940807 -0.00061338)
(0.00699313 -0.000377459 -0.00025085)
(0.0269749 -0.000784686 -0.000328086)
(0.00432373 -0.000273888 -0.000118943)
(0.0265744 -0.0004584 -0.000156751)
(0.00173846 -0.00011533 -3.19405e-05)
(0.0262717 -1.08763e-05 0.000308211)
(0.0287769 -0.000420039 -0.0007725)
(0.0104656 -5.44589e-05 -0.000362989)
(0.0274963 -0.000295939 -0.000664394)
(0.00690905 -0.000132322 -0.000351418)
(0.0267241 -0.000276563 -0.000565274)
(0.00374064 -7.41268e-05 -0.000166204)
(0.026328 -2.05665e-05 -0.000438727)
(0.00118604 -3.38238e-05 -5.42195e-05)
(0.0260726 0.000274373 3.34602e-05)
)
;
    }
    procBoundary0to6
    {
        type            processor;
        value           uniform (0.0280269 0.00064129 5.2521e-05);
    }
    procBoundary0to7
    {
        type            processor;
        value           uniform (0.000525511 3.6888e-05 -8.01991e-05);
    }
}


// ************************************************************************* //
