/*--------------------------------*- C++ -*----------------------------------*\
| =========                 |                                                 |
| \\      /  F ield         | OpenFOAM: The Open Source CFD Toolbox           |
|  \\    /   O peration     | Version:  4.x                                   |
|   \\  /    A nd           | Web:      www.OpenFOAM.org                      |
|    \\/     M anipulation  |                                                 |
\*---------------------------------------------------------------------------*/
FoamFile
{
    version     2.0;
    format      ascii;
    class       volScalarField;
    location    "1";
    object      ddtVoidfraction;
}
// * * * * * * * * * * * * * * * * * * * * * * * * * * * * * * * * * * * * * //

dimensions      [0 0 -1 0 0 0 0];

internalField   nonuniform List<scalar> 
114
(
-0.0274937
-0.0357701
-0.0420383
-0.0308615
0.0292484
0.0400232
-0.0177484
-0.0207124
-0.0274462
-0.0398909
-0.0610984
-0.0931133
-0.110643
0.109008
0.0917226
-0.0198058
-0.0235947
-0.0328497
-0.051219
-0.089696
-0.184522
-0.470161
0.46688
0.182437
-0.0207852
-0.0250314
-0.0348516
-0.0523786
-0.0813772
-0.122567
-0.136738
0.135074
0.120583
-0.035077
-0.0250922
0.0239009
0.0333762
-0.0165909
-0.0190727
-0.0246681
-0.034694
-0.05126
-0.0759966
-0.0926504
0.0902739
0.0747246
-0.018353
-0.0216799
-0.0294234
-0.0441355
-0.0744339
-0.152567
-0.412513
0.411125
0.150232
-0.0193894
-0.0231706
-0.0312366
-0.045252
-0.0691223
-0.0997842
-0.111277
0.110281
0.0982077
0.0118276
0.0210544
-0.0146888
-0.0163959
-0.0201832
-0.0262437
-0.0342305
-0.0415548
-0.0339401
0.0324718
0.0399186
-0.0161743
-0.0185689
-0.0236565
-0.0319892
-0.0457414
-0.0668215
-0.080197
0.0783524
0.0645627
-0.0171834
-0.0198019
-0.0249776
-0.0332626
-0.0466925
-0.0551328
-0.0433078
0.0410542
0.0536616
-0.0126406
-0.0137201
-0.0157794
-0.0184251
-0.0210689
-0.0214261
-0.0123865
0.0108083
-0.0138422
-0.0152118
-0.0179266
-0.0217962
-0.0264532
-0.0291222
-0.0205234
-0.0145971
-0.0160272
-0.0189111
-0.0231338
-0.0274569
-0.0280301
)
;

boundaryField
{
    inlet
    {
        type            calculated;
        value           uniform 0;
    }
    outlet
    {
        type            calculated;
        value           nonuniform 0();
    }
    wall
    {
        type            calculated;
        value           nonuniform List<scalar> 
66
(
-0.0177484
-0.0198058
-0.0207852
-0.0207124
-0.0235947
-0.0250314
-0.0274462
-0.0328497
-0.0348516
-0.0274937
-0.0398909
-0.051219
-0.0523786
-0.0357701
-0.0610984
-0.089696
-0.0813772
-0.0420383
-0.0931133
-0.184522
-0.122567
-0.0308615
-0.110643
-0.470161
-0.136738
0.0292484
0.109008
0.46688
0.135074
0.0400232
0.0917226
0.182437
0.120583
-0.0207852
-0.0193894
-0.0171834
-0.0145971
-0.0250314
-0.0231706
-0.0198019
-0.0160272
-0.0348516
-0.0312366
-0.0249776
-0.0189111
-0.0523786
-0.045252
-0.0332626
-0.0231338
-0.0813772
-0.0691223
-0.0466925
-0.0274569
-0.122567
-0.0997842
-0.0551328
-0.0280301
-0.136738
-0.111277
-0.0433078
0.135074
0.110281
0.0410542
0.120583
0.0982077
0.0536616
)
;
    }
    procBoundary2to0
    {
        type            processor;
        value           nonuniform List<scalar> 
44
(
-0.0184727
-0.0206314
-0.0199234
-0.0108178
0.00943594
0.0184225
-0.0151538
-0.0171085
-0.0211788
-0.0211788
-0.0244499
-0.0307851
-0.0173011
-0.00872591
0.00787348
0.0155026
-0.0142759
-0.0158999
-0.0192308
-0.0244499
-0.0307851
-0.0307851
-0.0224021
-0.0138307
0.00495163
0.0109028
-0.0127872
-0.0139219
-0.0161752
-0.0194429
-0.0225466
-0.0224021
-0.0138307
-0.0138307
0.00530215
0.0117531
-0.0111888
-0.0118868
-0.0130637
-0.0144351
-0.015215
-0.0135377
-0.00706922
0.00530215
)
;
    }
    procBoundary2to3
    {
        type            processor;
        value           nonuniform List<scalar> 
12
(
0.0338334
0.0591372
0.0872814
0.0793753
0.0288269
0.0491595
0.07223
0.066379
0.0204703
0.0322567
0.0438692
0.043372
)
;
    }
    procBoundary2to6
    {
        type            processor;
        value           nonuniform List<scalar> 
32
(
0.0193564
0.0186184
0.0271825
-0.0165841
0.0142949
0.026131
-0.0106924
-0.011321
-0.0121857
-0.0129902
-0.0131463
-0.0114131
-0.00563677
0.0193564
0.0186184
0.00404287
-0.0116268
-0.0123415
-0.0135938
-0.014928
-0.0153668
-0.0141966
0.0186184
-0.0165841
-0.0071332
-0.0121921
-0.0128998
-0.0142465
-0.0154305
-0.0167349
-0.0165841
-0.0143598
)
;
    }
}


// ************************************************************************* //
