/*--------------------------------*- C++ -*----------------------------------*\
| =========                 |                                                 |
| \\      /  F ield         | OpenFOAM: The Open Source CFD Toolbox           |
|  \\    /   O peration     | Version:  4.x                                   |
|   \\  /    A nd           | Web:      www.OpenFOAM.org                      |
|    \\/     M anipulation  |                                                 |
\*---------------------------------------------------------------------------*/
FoamFile
{
    version     2.0;
    format      ascii;
    class       volScalarField;
    location    "1";
    object      Deff;
}
// * * * * * * * * * * * * * * * * * * * * * * * * * * * * * * * * * * * * * //

dimensions      [0 2 -1 0 0 0 0];

internalField   nonuniform List<scalar> 
114
(
9.94229e-08
9.9445e-08
9.94049e-08
9.92603e-08
9.93698e-08
9.92964e-08
9.95029e-08
9.93877e-08
9.94303e-08
9.94198e-08
9.92721e-08
9.92648e-08
9.91595e-08
9.91343e-08
9.92274e-08
9.96022e-08
9.94604e-08
9.95455e-08
9.94152e-08
9.94005e-08
9.93451e-08
9.9433e-08
9.92886e-08
9.93184e-08
9.9659e-08
9.96102e-08
9.95893e-08
9.95103e-08
9.95467e-08
9.95285e-08
9.95824e-08
9.94408e-08
9.94232e-08
9.87078e-08
9.86099e-08
9.87811e-08
9.86233e-08
9.92027e-08
9.90656e-08
9.89611e-08
9.89106e-08
9.88137e-08
9.87592e-08
9.86207e-08
9.86834e-08
9.87598e-08
9.92321e-08
9.90233e-08
9.89411e-08
9.88975e-08
9.88552e-08
9.88319e-08
9.8813e-08
9.87836e-08
9.8783e-08
9.93141e-08
9.92313e-08
9.90884e-08
9.90639e-08
9.89937e-08
9.90078e-08
9.89904e-08
9.89549e-08
9.89855e-08
9.83924e-08
9.835e-08
9.88767e-08
9.8855e-08
9.87277e-08
9.86227e-08
9.85398e-08
9.83997e-08
9.83072e-08
9.83779e-08
9.84339e-08
9.89973e-08
9.88451e-08
9.86813e-08
9.85186e-08
9.85269e-08
9.85022e-08
9.84081e-08
9.84197e-08
9.83615e-08
9.9071e-08
9.8862e-08
9.87993e-08
9.8706e-08
9.87126e-08
9.86087e-08
9.85095e-08
9.86408e-08
9.85514e-08
9.87332e-08
9.85172e-08
9.83844e-08
9.83484e-08
9.8293e-08
9.81705e-08
9.81685e-08
9.81698e-08
9.87307e-08
9.85863e-08
9.84471e-08
9.83756e-08
9.82933e-08
9.82511e-08
9.8157e-08
9.88861e-08
9.86886e-08
9.85917e-08
9.84597e-08
9.84301e-08
9.83515e-08
)
;

boundaryField
{
    inlet
    {
        type            calculated;
        value           uniform 0;
    }
    outlet
    {
        type            calculated;
        value           nonuniform 0();
    }
    wall
    {
        type            calculated;
        value           uniform 0;
    }
    procBoundary2to0
    {
        type            processor;
        value           uniform 0;
    }
    procBoundary2to3
    {
        type            processor;
        value           uniform 0;
    }
    procBoundary2to6
    {
        type            processor;
        value           uniform 0;
    }
}


// ************************************************************************* //
