/*--------------------------------*- C++ -*----------------------------------*\
| =========                 |                                                 |
| \\      /  F ield         | OpenFOAM: The Open Source CFD Toolbox           |
|  \\    /   O peration     | Version:  4.x                                   |
|   \\  /    A nd           | Web:      www.OpenFOAM.org                      |
|    \\/     M anipulation  |                                                 |
\*---------------------------------------------------------------------------*/
FoamFile
{
    version     2.0;
    format      ascii;
    class       volScalarField;
    location    "1";
    object      nu;
}
// * * * * * * * * * * * * * * * * * * * * * * * * * * * * * * * * * * * * * //

dimensions      [0 2 -1 0 0 0 0];

internalField   nonuniform List<scalar> 
114
(
1.00177e-06
1.00126e-06
1.00093e-06
1.00053e-06
1.00013e-06
9.99827e-07
1.00145e-06
1.00236e-06
1.00253e-06
1.00208e-06
1.00131e-06
1.00082e-06
1.00036e-06
1.00024e-06
9.99942e-07
1.00168e-06
1.0026e-06
1.00239e-06
1.00191e-06
1.00138e-06
1.00071e-06
1.00004e-06
1.00073e-06
1.00023e-06
1.00157e-06
1.0023e-06
1.00225e-06
1.00191e-06
1.00159e-06
1.00125e-06
1.00091e-06
1.00094e-06
1.00073e-06
1.00039e-06
1.00017e-06
9.9998e-07
9.99781e-07
1.00072e-06
1.00127e-06
1.00127e-06
1.00086e-06
1.00061e-06
1.00035e-06
1.00004e-06
9.99994e-07
9.99761e-07
1.00084e-06
1.00126e-06
1.00125e-06
1.00095e-06
1.00066e-06
1.00035e-06
9.99797e-07
1.00038e-06
9.999e-07
1.00082e-06
1.00125e-06
1.00132e-06
1.00115e-06
1.00097e-06
1.00077e-06
1.00057e-06
1.00063e-06
1.00045e-06
9.99869e-07
9.99812e-07
1.00039e-06
1.00069e-06
1.00075e-06
1.00053e-06
1.00032e-06
1.00016e-06
9.99968e-07
9.99824e-07
9.99687e-07
1.00044e-06
1.00067e-06
1.00074e-06
1.00059e-06
1.00039e-06
1.00019e-06
9.99987e-07
9.99907e-07
9.9974e-07
1.00045e-06
1.00071e-06
1.0008e-06
1.00073e-06
1.00063e-06
1.0005e-06
1.00039e-06
1.00036e-06
1.00024e-06
1.00022e-06
1.0003e-06
1.00039e-06
1.00033e-06
1.00022e-06
1.00013e-06
9.99915e-07
9.99759e-07
1.00022e-06
1.00035e-06
1.00042e-06
1.00036e-06
1.00025e-06
1.00015e-06
9.99988e-07
1.00023e-06
1.00038e-06
1.00047e-06
1.00046e-06
1.00042e-06
1.00035e-06
)
;

boundaryField
{
    inlet
    {
        type            calculated;
        value           uniform 1e-06;
    }
    outlet
    {
        type            calculated;
        value           nonuniform 0();
    }
    wall
    {
        type            calculated;
        value           nonuniform List<scalar> 
66
(
1.00145e-06
1.00168e-06
1.00157e-06
1.00236e-06
1.0026e-06
1.0023e-06
1.00253e-06
1.00239e-06
1.00225e-06
1.00177e-06
1.00208e-06
1.00191e-06
1.00191e-06
1.00126e-06
1.00131e-06
1.00138e-06
1.00159e-06
1.00093e-06
1.00082e-06
1.00071e-06
1.00125e-06
1.00053e-06
1.00036e-06
1.00004e-06
1.00091e-06
1.00013e-06
1.00024e-06
1.00073e-06
1.00094e-06
9.99827e-07
9.99942e-07
1.00023e-06
1.00073e-06
1.00157e-06
1.00082e-06
1.00045e-06
1.00023e-06
1.0023e-06
1.00125e-06
1.00071e-06
1.00038e-06
1.00225e-06
1.00132e-06
1.0008e-06
1.00047e-06
1.00191e-06
1.00115e-06
1.00073e-06
1.00046e-06
1.00159e-06
1.00097e-06
1.00063e-06
1.00042e-06
1.00125e-06
1.00077e-06
1.0005e-06
1.00035e-06
1.00091e-06
1.00057e-06
1.00039e-06
1.00094e-06
1.00063e-06
1.00036e-06
1.00073e-06
1.00045e-06
1.00024e-06
)
;
    }
    procBoundary2to0
    {
        type            processor;
        value           nonuniform List<scalar> 
44
(
1.00179e-06
1.00131e-06
1.00106e-06
1.00075e-06
1.00022e-06
9.99776e-07
1.00127e-06
1.00226e-06
1.00203e-06
1.00203e-06
1.0009e-06
1.00082e-06
1.00032e-06
1.00002e-06
9.9976e-07
9.99489e-07
1.00072e-06
1.00127e-06
1.0012e-06
1.0009e-06
1.00082e-06
1.00082e-06
1.00021e-06
1.00004e-06
9.99683e-07
9.99466e-07
1.00041e-06
1.00075e-06
1.00076e-06
1.00055e-06
1.00035e-06
1.00021e-06
1.00004e-06
1.00004e-06
9.99844e-07
9.99688e-07
1.00028e-06
1.00053e-06
1.00051e-06
1.00038e-06
1.00025e-06
1.00018e-06
9.99998e-07
9.99844e-07
)
;
    }
    procBoundary2to3
    {
        type            processor;
        value           nonuniform List<scalar> 
12
(
9.99499e-07
9.99599e-07
9.99832e-07
1.00054e-06
9.99492e-07
9.99488e-07
9.99581e-07
1.00028e-06
9.99738e-07
9.9957e-07
9.99631e-07
1.00013e-06
)
;
    }
    procBoundary2to6
    {
        type            processor;
        value           nonuniform List<scalar> 
32
(
9.99755e-07
9.99859e-07
9.99704e-07
1.00028e-06
1.00023e-06
1.00014e-06
1.00019e-06
1.0003e-06
1.00032e-06
1.0003e-06
1.00022e-06
1.00002e-06
9.99887e-07
9.99755e-07
9.99859e-07
9.99748e-07
1.00017e-06
1.00028e-06
1.00032e-06
1.00029e-06
1.00018e-06
1.00006e-06
9.99859e-07
1.00028e-06
9.99917e-07
1.00017e-06
1.00028e-06
1.00034e-06
1.00034e-06
1.00032e-06
1.00028e-06
1.00028e-06
)
;
    }
}


// ************************************************************************* //
