/*--------------------------------*- C++ -*----------------------------------*\
| =========                 |                                                 |
| \\      /  F ield         | OpenFOAM: The Open Source CFD Toolbox           |
|  \\    /   O peration     | Version:  4.x                                   |
|   \\  /    A nd           | Web:      www.OpenFOAM.org                      |
|    \\/     M anipulation  |                                                 |
\*---------------------------------------------------------------------------*/
FoamFile
{
    version     2.0;
    format      ascii;
    class       volScalarField;
    location    "1";
    object      thCond;
}
// * * * * * * * * * * * * * * * * * * * * * * * * * * * * * * * * * * * * * //

dimensions      [1 1 -3 -1 0 0 0];

internalField   nonuniform List<scalar> 
114
(
192.997
193.04
192.963
192.682
192.894
192.752
193.153
192.929
193.012
192.991
192.705
192.691
192.486
192.437
192.618
193.345
193.07
193.235
192.982
192.954
192.846
193.017
192.737
192.795
193.456
193.361
193.32
193.167
193.238
193.202
193.307
193.032
192.998
191.609
191.419
191.752
191.445
192.57
192.304
192.101
192.003
191.815
191.709
191.44
191.562
191.71
192.627
192.222
192.062
191.977
191.895
191.85
191.813
191.756
191.755
192.786
192.625
192.348
192.301
192.164
192.192
192.158
192.089
192.148
190.997
190.915
191.937
191.895
191.648
191.444
191.283
191.011
190.832
190.969
191.078
192.171
191.876
191.558
191.242
191.258
191.21
191.027
191.05
190.937
192.314
191.909
191.787
191.606
191.619
191.417
191.224
191.479
191.306
191.659
191.239
190.982
190.912
190.804
190.566
190.562
190.565
191.654
191.373
191.103
190.964
190.805
190.723
190.54
191.955
191.572
191.384
191.128
191.07
190.918
)
;

boundaryField
{
    inlet
    {
        type            zeroGradient;
    }
    outlet
    {
        type            zeroGradient;
    }
    wall
    {
        type            zeroGradient;
    }
    procBoundary2to0
    {
        type            processor;
        value           nonuniform List<scalar> 
44
(
193.397
193.149
192.959
192.952
192.813
192.516
193.591
193.299
193.281
193.281
192.231
191.726
191.901
191.793
191.818
191.86
192.442
192.42
192.325
192.231
191.726
191.726
191.059
190.935
191.236
191.248
191.88
191.733
191.493
191.263
191.086
191.059
190.935
190.935
190.787
190.893
191.803
191.476
191.008
190.758
190.946
190.634
190.569
190.787
)
;
    }
    procBoundary2to3
    {
        type            processor;
        value           nonuniform List<scalar> 
12
(
192.446
192.26
192.288
192.592
191.402
191.408
191.22
191.603
190.619
190.629
190.966
191.016
)
;
    }
    procBoundary2to6
    {
        type            processor;
        value           nonuniform List<scalar> 
32
(
190.567
190.708
190.613
190.993
190.993
190.98
190.909
190.943
190.959
190.587
190.307
190.441
190.188
190.567
190.708
190.285
191.42
191.064
190.986
190.632
190.386
190.357
190.708
190.993
190.302
191.778
191.323
191.288
190.964
190.42
190.993
190.323
)
;
    }
}


// ************************************************************************* //
