/*--------------------------------*- C++ -*----------------------------------*\
| =========                 |                                                 |
| \\      /  F ield         | OpenFOAM: The Open Source CFD Toolbox           |
|  \\    /   O peration     | Version:  4.x                                   |
|   \\  /    A nd           | Web:      www.OpenFOAM.org                      |
|    \\/     M anipulation  |                                                 |
\*---------------------------------------------------------------------------*/
FoamFile
{
    version     2.0;
    format      ascii;
    class       volScalarField;
    location    "3";
    object      KslNext;
}
// * * * * * * * * * * * * * * * * * * * * * * * * * * * * * * * * * * * * * //

dimensions      [1 -3 -1 0 0 0 0];

internalField   nonuniform List<scalar> 
114
(
22301.6
4390.32
71433.3
4682.26
907893
4819.4
3608.13
8734.55
3625.32
12398.1
3955.35
31832.6
4072.67
46785.3
3864.71
3515.35
7987.74
3396.54
8616.84
3592.57
13795.9
3766.49
32162.8
3834.86
3445.2
6731.82
3154.72
5675.14
3099.91
5550.66
3048.59
5711.91
3020.68
49291.4
5607.01
88255.3
6352.5
3803.34
13352.4
4144.29
21901.6
4293.89
36546.9
4268.99
47691.3
3969.96
3708.73
11222.2
3897.36
13505.1
4009.11
23602.3
4103.27
93431.4
3999.82
3592.83
8228.61
3494.64
6517.97
3288.44
5766.38
3187.26
5707.96
3054.72
21407.4
3444.5
3849.31
15455.5
4147.69
26676.6
4216.8
49371.9
4171.88
234312
3984.91
3723.07
12056.6
3908.17
13532.3
3962.23
19542.9
4082.49
31384.5
4132.18
3652.66
8964.53
3585.59
6694.19
3305.89
5436.8
3184.3
5063.07
3019.67
3922.05
18284.9
4333.19
42793.3
4461.57
56321.7
4471.78
56721.9
3789.57
13088
4147.98
18048.9
4439.39
36775.5
5012.53
3670.55
8443.78
3635.86
6381.4
3433.66
5199.08
)
;

boundaryField
{
    inlet
    {
        type            zeroGradient;
    }
    outlet
    {
        type            zeroGradient;
    }
    wall
    {
        type            zeroGradient;
    }
    procBoundary2to0
    {
        type            processor;
        value           uniform 0;
    }
    procBoundary2to3
    {
        type            processor;
        value           uniform 0;
    }
    procBoundary2to6
    {
        type            processor;
        value           uniform 0;
    }
}


// ************************************************************************* //
