/*--------------------------------*- C++ -*----------------------------------*\
| =========                 |                                                 |
| \\      /  F ield         | OpenFOAM: The Open Source CFD Toolbox           |
|  \\    /   O peration     | Version:  4.x                                   |
|   \\  /    A nd           | Web:      www.OpenFOAM.org                      |
|    \\/     M anipulation  |                                                 |
\*---------------------------------------------------------------------------*/
FoamFile
{
    version     2.0;
    format      ascii;
    class       volScalarField;
    location    "3";
    object      QPartFluidCoeff;
}
// * * * * * * * * * * * * * * * * * * * * * * * * * * * * * * * * * * * * * //

dimensions      [1 -1 -3 -1 0 0 0];

internalField   nonuniform List<scalar> 
114
(
-2.07401e+07
-1.65512e+07
-8.52763e+06
-1.67042e+07
-7.46727e+06
-8.02784e+06
-1.93642e+07
-2.26754e+07
-2.00643e+07
-1.35904e+07
-2.26707e+07
-1.43442e+07
-2.19314e+07
-1.78907e+07
-1.29818e+07
-1.30882e+07
-2.06826e+07
-1.14751e+07
-1.78894e+07
-1.63981e+07
-1.80231e+07
-1.04944e+07
-1.45938e+07
-1.14717e+07
-1.3446e+07
-1.35218e+07
-1.5172e+07
-1.52322e+07
-1.31067e+07
-1.32051e+07
-9.73591e+06
-1.53332e+07
-1.26481e+07
-2.85141e+07
-3.60699e+07
-1.88846e+07
-3.25171e+07
-1.56791e+07
-2.57794e+07
-3.07634e+07
-2.70147e+07
-2.84008e+07
-2.22222e+07
-3.31494e+07
-2.71477e+07
-1.93385e+07
-1.96091e+07
-3.31291e+07
-3.53526e+07
-2.99489e+07
-3.06822e+07
-2.87165e+07
-2.93933e+07
-2.55976e+07
-2.56974e+07
-1.69754e+07
-1.80841e+07
-2.82439e+07
-2.04012e+07
-2.57805e+07
-2.21351e+07
-2.23219e+07
-2.35333e+07
-1.62744e+07
-2.65436e+07
-2.96331e+07
-2.2601e+07
-1.85653e+07
-2.1918e+07
-2.0525e+07
-2.32626e+07
-2.47599e+07
-3.20774e+07
-2.3451e+07
-1.8859e+07
-1.66796e+07
-2.29463e+07
-3.03272e+07
-3.5101e+07
-3.0788e+07
-2.34942e+07
-3.18114e+07
-2.83975e+07
-3.46422e+07
-1.67901e+07
-2.5437e+07
-2.36781e+07
-2.60809e+07
-1.64623e+07
-2.4152e+07
-3.40949e+07
-1.92619e+07
-2.7464e+07
-1.61435e+07
-3.05696e+07
-3.34379e+07
-2.29588e+07
-2.54825e+07
-2.1551e+07
-2.49645e+07
-2.49555e+07
-1.95222e+07
-2.58358e+07
-3.50941e+07
-2.16548e+07
-3.03476e+07
-2.47727e+07
-3.49394e+07
-1.42712e+07
-2.11717e+07
-2.54695e+07
-2.53889e+07
-2.3471e+07
-2.36918e+07
)
;

boundaryField
{
    inlet
    {
        type            calculated;
        value           uniform 0;
    }
    outlet
    {
        type            calculated;
        value           nonuniform 0();
    }
    wall
    {
        type            calculated;
        value           uniform 0;
    }
    procBoundary2to0
    {
        type            processor;
        value           nonuniform List<scalar> 
44
(
332.975
380.673
293.806
263.506
271.523
575.613
224.502
329.739
253.685
253.685
361.191
789.048
502.039
707.029
445.994
441.809
589.923
504.678
553.497
361.191
789.048
789.048
588.608
663.602
468.907
395.109
515.097
625.907
702.406
631.086
747.642
588.608
663.602
663.602
420.285
206.232
360.16
491.085
712.262
757.313
404.355
735.697
649.682
420.285
)
;
    }
    procBoundary2to3
    {
        type            processor;
        value           nonuniform List<scalar> 
12
(
420.422
364.81
434.711
303.134
522.188
496.209
905.226
630.283
614.283
714.394
465.191
640.62
)
;
    }
    procBoundary2to6
    {
        type            processor;
        value           nonuniform List<scalar> 
32
(
604.197
499.938
653.988
456.207
510.309
455.359
740.76
660.97
445.207
575.49
806.876
401.742
676.439
604.197
499.938
487.859
476.417
687.678
616.032
734.027
700.623
640.346
499.938
456.207
685.539
356.405
579.924
459.594
490.572
687.539
456.207
782.271
)
;
    }
}


// ************************************************************************* //
