/*--------------------------------*- C++ -*----------------------------------*\
| =========                 |                                                 |
| \\      /  F ield         | OpenFOAM: The Open Source CFD Toolbox           |
|  \\    /   O peration     | Version:  4.x                                   |
|   \\  /    A nd           | Web:      www.OpenFOAM.org                      |
|    \\/     M anipulation  |                                                 |
\*---------------------------------------------------------------------------*/
FoamFile
{
    version     2.0;
    format      ascii;
    class       volScalarField;
    location    "11";
    object      magGField;
}
// * * * * * * * * * * * * * * * * * * * * * * * * * * * * * * * * * * * * * //

dimensions      [1 -2 -1 0 0 0 0];

internalField   nonuniform List<scalar> 
132
(
15.5798
84.6346
15.9932
82.317
13.2877
75.0161
11.5
58.1259
18.3988
15.7984
89.2634
17.7921
92.045
20.2124
93.2479
26.1231
88.6341
40.632
18.7729
90.6609
21.893
95.3621
26.5712
99.2002
35.5969
99.0965
83.4176
55.3199
108.323
58.6604
118.882
60.7143
135.281
56.7274
169.752
82.2781
9.97113e-05
72.3551
3.77119e-05
67.1897
0.0595751
57.4845
20.8858
1.05385
79.0115
2.1679
78.1779
5.56246
74.817
14.16
65.405
28.338
3.92068
80.7087
2.04654
80.3664
1.51342
76.1875
4.49372
65.1865
14.0993
44.4504
95.8331
43.7018
98.9405
41.704
100.751
36.7048
93.8889
32.7033
2.69229e-05
68.0398
1.65832e-05
57.386
14.8372
11.589
84.4372
8.25551
86.6423
5.59551
87.0537
5.01328
77.7517
14.1381
17.9205
85.323
17.1084
88.1776
18.0057
91.2194
25.0615
89.7479
63.1348
56.5813
105.583
59.2269
113.024
60.693
127.585
58.4142
162.331
58.3263
36.7396
77.5678
36.1727
36.2626
91.0701
29.8788
87.8692
19.0406
81.1455
8.65444
66.0367
17.2918
52.1671
98.5568
51.5807
97.845
45.9975
93.7874
38.0539
82.0461
35.3645
61.5178
106.003
64.0409
110.623
66.5529
116.96
69.9244
125.495
85.044
)
;

boundaryField
{
    inlet
    {
        type            calculated;
        value           nonuniform 0();
    }
    outlet
    {
        type            calculated;
        value           nonuniform List<scalar> 
16
(
40.7888
89.9675
184.332
178.897
46.4267
62.7789
31.3085
71.6528
32.8608
31.4316
140.187
127.782
79.7686
38.0994
78.081
184.992
)
;
    }
    wall
    {
        type            calculated;
        value           uniform 0;
    }
    procBoundary7to0
    {
        type            processor;
        value           uniform 85.2312;
    }
    procBoundary7to1
    {
        type            processor;
        value           uniform 15.5962;
    }
    procBoundary7to3
    {
        type            processor;
        value           nonuniform List<scalar> 
36
(
2.96735
83.6878
5.50204
86.051
9.28389
86.2562
12.0302
80.112
20.9914
9.08934
87.8239
10.4941
90.9385
12.0377
93.551
15.2791
96.3427
35.1222
9.73996
88.3717
11.5533
94.1042
17.0094
104.204
25.0281
127.517
60.9571
54.4808
108.293
60.5004
117.668
61.9166
130.399
54.2458
162.476
37.8559
)
;
    }
    procBoundary7to5
    {
        type            processor;
        value           nonuniform List<scalar> 
44
(
89.1806
14.8556
90.7493
13.8577
90.4198
13.2692
81.6046
21.4313
0.000119867
74.9783
0.000103475
77.5686
3.84554e-05
73.3199
2.63116
65.2523
24.6047
0.000119867
74.9783
74.9783
7.8427e-05
72.8402
12.6958
90.1957
16.3482
85.5248
26.7763
6.85769
76.7994
7.8427e-05
72.8402
72.8402
42.4851
87.0989
45.1234
100.993
32.9206
48.4099
95.154
48.4263
93.1196
42.4851
87.0989
87.0989
)
;
    }
    procBoundary7to6
    {
        type            processor;
        value           nonuniform List<scalar> 
12
(
86.9319
87.0843
102.219
78.8557
80.6821
94.0073
83.3509
84.5492
100.917
91.4174
96.4374
103.202
)
;
    }
}


// ************************************************************************* //
