/*--------------------------------*- C++ -*----------------------------------*\
| =========                 |                                                 |
| \\      /  F ield         | OpenFOAM: The Open Source CFD Toolbox           |
|  \\    /   O peration     | Version:  4.x                                   |
|   \\  /    A nd           | Web:      www.OpenFOAM.org                      |
|    \\/     M anipulation  |                                                 |
\*---------------------------------------------------------------------------*/
FoamFile
{
    version     2.0;
    format      ascii;
    class       volScalarField;
    location    "11";
    object      nu;
}
// * * * * * * * * * * * * * * * * * * * * * * * * * * * * * * * * * * * * * //

dimensions      [0 2 -1 0 0 0 0];

internalField   nonuniform List<scalar> 
132
(
1.00028e-06
1.00019e-06
1.00008e-06
9.99953e-07
9.99826e-07
9.9971e-07
9.99655e-07
9.99648e-07
9.99682e-07
1.00021e-06
1.00013e-06
1.00003e-06
9.99911e-07
9.998e-07
9.99699e-07
9.99624e-07
9.9958e-07
9.99367e-07
1.00026e-06
1.00019e-06
1.00008e-06
9.99979e-07
9.99855e-07
9.99802e-07
9.99695e-07
9.99716e-07
9.99391e-07
1.00034e-06
1.00043e-06
1.0005e-06
1.00056e-06
1.00055e-06
1.00054e-06
1.0004e-06
1.00036e-06
9.99277e-07
9.99902e-07
9.99778e-07
9.99664e-07
9.99631e-07
9.99704e-07
9.99781e-07
9.99766e-07
1.00007e-06
9.99968e-07
9.99858e-07
9.99765e-07
9.99669e-07
9.99607e-07
9.99579e-07
9.99604e-07
9.99393e-07
1.00013e-06
1.00005e-06
9.99954e-07
9.99877e-07
9.99763e-07
9.9973e-07
9.99659e-07
9.99699e-07
9.99516e-07
1.00024e-06
1.00029e-06
1.00032e-06
1.00036e-06
1.00033e-06
1.00032e-06
1.00024e-06
1.00019e-06
9.99618e-07
9.99757e-07
9.99693e-07
9.99612e-07
9.99627e-07
9.99283e-07
1.00012e-06
1.00007e-06
9.99996e-07
9.9993e-07
9.99842e-07
9.99772e-07
9.99684e-07
9.99655e-07
9.99433e-07
1.00012e-06
1.00006e-06
9.9999e-07
9.99945e-07
9.99897e-07
9.99893e-07
9.99852e-07
9.99878e-07
9.99478e-07
1.00017e-06
1.00021e-06
1.00023e-06
1.00025e-06
1.00024e-06
1.00024e-06
1.00019e-06
1.00018e-06
9.98536e-07
1.0001e-06
1.00006e-06
9.98476e-07
1.0002e-06
1.00022e-06
1.00022e-06
1.00019e-06
1.00011e-06
1.00003e-06
9.99929e-07
9.99875e-07
9.99416e-07
1.00018e-06
1.0002e-06
1.00022e-06
1.00023e-06
1.00023e-06
1.00021e-06
1.00017e-06
1.00014e-06
9.99796e-07
1.00017e-06
1.0002e-06
1.00022e-06
1.00024e-06
1.00025e-06
1.00026e-06
1.00025e-06
1.00024e-06
1.0002e-06
)
;

boundaryField
{
    inlet
    {
        type            calculated;
        value           nonuniform 0();
    }
    outlet
    {
        type            calculated;
        value           uniform 1e-06;
    }
    wall
    {
        type            calculated;
        value           nonuniform List<scalar> 
66
(
1.0002e-06
1.00018e-06
1.00017e-06
1.00022e-06
1.0002e-06
1.0002e-06
1.00022e-06
1.00022e-06
1.00022e-06
1.00019e-06
1.00023e-06
1.00024e-06
1.00011e-06
1.00023e-06
1.00025e-06
1.00003e-06
1.00021e-06
1.00026e-06
1.0001e-06
9.99929e-07
1.00017e-06
1.00025e-06
1.00006e-06
9.99875e-07
1.00014e-06
1.00024e-06
9.98476e-07
9.99416e-07
9.99796e-07
1.0002e-06
1.00034e-06
1.00024e-06
1.00017e-06
1.00017e-06
1.00043e-06
1.00029e-06
1.00021e-06
1.0002e-06
1.0005e-06
1.00032e-06
1.00023e-06
1.00022e-06
1.00056e-06
1.00036e-06
1.00025e-06
1.00024e-06
1.00055e-06
1.00033e-06
1.00024e-06
1.00025e-06
1.00054e-06
1.00032e-06
1.00024e-06
1.00026e-06
1.0004e-06
1.00024e-06
1.00019e-06
1.00025e-06
1.00036e-06
1.00019e-06
1.00018e-06
1.00024e-06
9.99277e-07
9.99618e-07
9.98536e-07
1.0002e-06
)
;
    }
    procBoundary7to0
    {
        type            processor;
        value           uniform 1.00032e-06;
    }
    procBoundary7to1
    {
        type            processor;
        value           uniform 1.00021e-06;
    }
    procBoundary7to3
    {
        type            processor;
        value           nonuniform List<scalar> 
36
(
1.0004e-06
1.00028e-06
1.00013e-06
9.9997e-07
9.99824e-07
9.99685e-07
9.99582e-07
9.99502e-07
9.99387e-07
1.00041e-06
1.0003e-06
1.00014e-06
9.99983e-07
9.99832e-07
9.99697e-07
9.99587e-07
9.99519e-07
9.99205e-07
1.00047e-06
1.00038e-06
1.0002e-06
1.00003e-06
9.99865e-07
9.99793e-07
9.99671e-07
9.99698e-07
9.98355e-07
1.00056e-06
1.00068e-06
1.00076e-06
1.00082e-06
1.00081e-06
1.00078e-06
1.00064e-06
1.00055e-06
9.98588e-07
)
;
    }
    procBoundary7to5
    {
        type            processor;
        value           nonuniform List<scalar> 
44
(
1.00011e-06
9.99981e-07
9.99841e-07
9.99708e-07
9.99597e-07
9.99522e-07
9.99503e-07
9.99309e-07
1.00012e-06
1.00002e-06
9.99877e-07
9.99765e-07
9.99656e-07
9.99594e-07
9.99553e-07
9.99596e-07
9.99348e-07
1.00012e-06
1.00002e-06
1.00002e-06
9.9996e-07
9.99866e-07
9.99842e-07
9.99804e-07
9.9972e-07
9.99736e-07
9.9939e-07
1.00015e-06
1.00007e-06
9.9996e-07
9.99866e-07
9.99866e-07
1.00019e-06
1.00016e-06
1.00017e-06
1.00014e-06
9.99356e-07
1.00019e-06
1.00021e-06
1.00021e-06
1.00021e-06
1.00019e-06
1.00016e-06
1.00016e-06
)
;
    }
    procBoundary7to6
    {
        type            processor;
        value           nonuniform List<scalar> 
12
(
1.00025e-06
1.00029e-06
1.00026e-06
1.00015e-06
1.00018e-06
1.00019e-06
1.00016e-06
1.00015e-06
1.00014e-06
1.00017e-06
1.00015e-06
1.00013e-06
)
;
    }
}


// ************************************************************************* //
