/*--------------------------------*- C++ -*----------------------------------*\
| =========                 |                                                 |
| \\      /  F ield         | OpenFOAM: The Open Source CFD Toolbox           |
|  \\    /   O peration     | Version:  4.x                                   |
|   \\  /    A nd           | Web:      www.OpenFOAM.org                      |
|    \\/     M anipulation  |                                                 |
\*---------------------------------------------------------------------------*/
FoamFile
{
    version     2.0;
    format      ascii;
    class       volScalarField;
    location    "11";
    object      Qsource;
}
// * * * * * * * * * * * * * * * * * * * * * * * * * * * * * * * * * * * * * //

dimensions      [1 -1 -3 0 0 0 0];

internalField   nonuniform List<scalar> 
132
(
1.0448e+10
9.24365e+09
6.74226e+09
8.00889e+09
1.13187e+10
1.23411e+10
8.19085e+09
6.27658e+09
6.20159e+09
7.90105e+09
1.16147e+10
7.83407e+09
8.22858e+09
9.14122e+09
7.24621e+09
8.25518e+09
8.03657e+09
7.13422e+09
6.10657e+09
9.31431e+09
7.1567e+09
9.13269e+09
8.684e+09
1.08249e+10
9.26403e+09
9.47488e+09
8.20393e+09
6.03683e+09
9.03733e+09
9.89618e+09
7.1406e+09
8.88771e+09
9.72789e+09
9.29675e+09
9.18668e+09
5.07632e+09
6.5264e+09
8.44227e+09
6.87256e+09
7.88007e+09
8.5582e+09
9.35589e+09
5.9353e+09
3.85571e+09
1.00178e+10
7.39956e+09
8.81158e+09
8.71399e+09
8.22603e+09
5.74791e+09
8.85044e+09
4.7633e+09
6.3927e+09
1.05263e+10
7.66325e+09
7.04564e+09
8.42282e+09
1.07695e+10
9.91615e+09
8.57228e+09
6.63678e+09
6.2079e+09
1.02337e+10
6.89698e+09
9.19787e+09
8.22821e+09
7.90494e+09
7.35446e+09
1.00233e+10
5.09777e+09
4.71744e+09
6.78472e+09
7.5417e+09
6.84892e+09
4.08278e+09
8.69829e+09
9.05218e+09
7.14067e+09
6.45638e+09
9.00661e+09
8.64589e+09
7.38832e+09
1.02825e+10
6.3002e+09
8.13992e+09
9.38669e+09
8.5971e+09
8.92479e+09
9.68704e+09
9.84616e+09
9.00409e+09
9.09174e+09
7.34836e+09
6.43204e+09
8.17105e+09
7.94846e+09
9.22834e+09
7.39971e+09
8.1871e+09
9.30682e+09
1.02111e+10
6.49711e+09
6.05512e+09
7.82816e+09
5.12272e+09
7.65968e+09
7.68139e+09
7.74959e+09
9.18616e+09
5.13466e+09
5.37417e+09
6.46613e+09
7.59787e+09
4.41519e+09
6.88472e+09
7.57232e+09
6.89764e+09
8.51666e+09
7.87808e+09
7.88098e+09
7.92225e+09
8.08006e+09
6.67298e+09
7.42731e+09
9.83515e+09
7.12647e+09
9.05169e+09
8.81937e+09
9.10754e+09
8.15284e+09
9.53758e+09
5.74911e+09
)
;

boundaryField
{
    inlet
    {
        type            calculated;
        value           nonuniform 0();
    }
    outlet
    {
        type            calculated;
        value           uniform 0;
    }
    wall
    {
        type            calculated;
        value           uniform 0;
    }
    procBoundary7to0
    {
        type            processor;
        value           uniform 2.61797e+09;
    }
    procBoundary7to1
    {
        type            processor;
        value           uniform 6.07232e+09;
    }
    procBoundary7to3
    {
        type            processor;
        value           nonuniform List<scalar> 
36
(
8.17692e+09
1.07198e+10
9.37221e+09
1.02967e+10
6.69354e+09
7.83076e+09
9.26072e+09
8.04317e+09
7.0552e+09
9.61854e+09
6.27089e+09
8.45655e+09
5.16277e+09
4.75712e+09
9.83031e+09
8.20898e+09
1.14646e+10
5.70271e+09
6.72816e+09
1.05094e+10
9.49001e+09
7.43284e+09
7.82788e+09
1.04403e+10
8.58957e+09
1.00697e+10
5.39031e+09
6.59422e+09
5.62747e+09
6.59227e+09
8.18953e+09
7.43312e+09
1.00582e+10
7.4865e+09
1.14786e+10
8.64421e+09
)
;
    }
    procBoundary7to5
    {
        type            processor;
        value           nonuniform List<scalar> 
44
(
1.01668e+10
6.42489e+09
8.89152e+09
6.27329e+09
5.45425e+09
7.32286e+09
6.60883e+09
6.66279e+09
1.0241e+10
5.05261e+09
7.31408e+09
8.98219e+09
6.13385e+09
8.15919e+09
7.13809e+09
7.76543e+09
4.41111e+09
1.0241e+10
5.05261e+09
5.05261e+09
9.32949e+09
9.52681e+09
1.14603e+10
9.22385e+09
8.88162e+09
1.06469e+10
7.82873e+09
3.79147e+09
1.1406e+10
9.32949e+09
9.52681e+09
9.52681e+09
1.07474e+10
8.86277e+09
7.42024e+09
8.59374e+09
6.74066e+09
7.57915e+09
7.07217e+09
8.04278e+09
7.4627e+09
1.07474e+10
8.86277e+09
8.86277e+09
)
;
    }
    procBoundary7to6
    {
        type            processor;
        value           nonuniform List<scalar> 
12
(
8.09488e+09
8.80066e+09
6.41353e+09
9.8876e+09
9.26872e+09
9.49105e+09
9.45596e+09
9.7955e+09
7.67124e+09
5.25986e+09
9.20696e+09
8.8196e+09
)
;
    }
}


// ************************************************************************* //
