/*--------------------------------*- C++ -*----------------------------------*\
| =========                 |                                                 |
| \\      /  F ield         | OpenFOAM: The Open Source CFD Toolbox           |
|  \\    /   O peration     | Version:  4.x                                   |
|   \\  /    A nd           | Web:      www.OpenFOAM.org                      |
|    \\/     M anipulation  |                                                 |
\*---------------------------------------------------------------------------*/
FoamFile
{
    version     2.0;
    format      ascii;
    class       volScalarField;
    location    "11";
    object      rho;
}
// * * * * * * * * * * * * * * * * * * * * * * * * * * * * * * * * * * * * * //

dimensions      [1 -3 0 0 0 0 0];

internalField   nonuniform List<scalar> 
132
(
6698.15
6698.7
6699.45
6700.31
6701.16
6701.94
6702.31
6702.36
6702.13
6698.6
6699.13
6699.83
6700.6
6701.34
6702.02
6702.52
6702.82
6704.24
6698.27
6698.75
6699.49
6700.14
6700.97
6701.32
6702.04
6701.91
6704.08
6697.7
6697.1
6696.67
6696.28
6696.35
6696.38
6697.32
6697.6
6704.85
6700.65
6701.49
6702.26
6702.48
6701.98
6701.46
6701.57
6699.54
6700.22
6700.95
6701.58
6702.22
6702.63
6702.83
6702.65
6704.07
6699.14
6699.64
6700.31
6700.83
6701.59
6701.81
6702.29
6702.01
6703.24
6698.39
6698.03
6697.82
6697.62
6697.77
6697.86
6698.38
6698.73
6702.56
6701.63
6702.06
6702.6
6702.5
6704.81
6699.18
6699.54
6700.03
6700.47
6701.06
6701.53
6702.12
6702.31
6703.8
6699.2
6699.62
6700.07
6700.37
6700.69
6700.72
6700.99
6700.82
6703.5
6698.84
6698.61
6698.47
6698.34
6698.39
6698.39
6698.72
6698.82
6709.82
6699.3
6699.61
6710.23
6698.65
6698.52
6698.53
6698.76
6699.24
6699.83
6700.47
6700.84
6703.92
6698.82
6698.65
6698.52
6698.45
6698.49
6698.58
6698.87
6699.09
6701.36
6698.89
6698.68
6698.51
6698.38
6698.3
6698.26
6698.31
6698.37
6698.63
)
;

boundaryField
{
    inlet
    {
        type            calculated;
        value           nonuniform 0();
    }
    outlet
    {
        type            calculated;
        value           uniform 6700;
    }
    wall
    {
        type            calculated;
        value           nonuniform List<scalar> 
66
(
6698.65
6698.82
6698.89
6698.52
6698.65
6698.68
6698.53
6698.52
6698.51
6698.76
6698.45
6698.38
6699.24
6698.49
6698.3
6699.83
6698.58
6698.26
6699.3
6700.47
6698.87
6698.31
6699.61
6700.84
6699.09
6698.37
6710.23
6703.92
6701.36
6698.63
6697.7
6698.39
6698.84
6698.89
6697.1
6698.03
6698.61
6698.68
6696.67
6697.82
6698.47
6698.51
6696.28
6697.62
6698.34
6698.38
6696.35
6697.77
6698.39
6698.3
6696.38
6697.86
6698.39
6698.26
6697.32
6698.38
6698.72
6698.31
6697.6
6698.73
6698.82
6698.37
6704.85
6702.56
6709.82
6698.63
)
;
    }
    procBoundary7to0
    {
        type            processor;
        value           uniform 6697.87;
    }
    procBoundary7to1
    {
        type            processor;
        value           uniform 6698.6;
    }
    procBoundary7to3
    {
        type            processor;
        value           nonuniform List<scalar> 
36
(
6697.31
6698.14
6699.15
6700.2
6701.18
6702.11
6702.8
6703.34
6704.11
6697.28
6698.01
6699.05
6700.11
6701.12
6702.03
6702.77
6703.22
6705.33
6696.83
6697.48
6698.69
6699.77
6700.9
6701.39
6702.2
6702.02
6711.04
6696.23
6695.45
6694.91
6694.48
6694.57
6694.77
6695.69
6696.31
6709.48
)
;
    }
    procBoundary7to5
    {
        type            processor;
        value           nonuniform List<scalar> 
44
(
6699.27
6700.12
6701.07
6701.95
6702.7
6703.21
6703.33
6704.63
6699.18
6699.87
6700.82
6701.58
6702.3
6702.72
6703
6702.71
6704.37
6699.18
6699.87
6699.87
6700.27
6700.9
6701.06
6701.31
6701.87
6701.77
6704.09
6699.02
6699.52
6700.27
6700.9
6700.9
6698.71
6698.9
6698.87
6699.09
6704.32
6698.73
6698.62
6698.57
6698.58
6698.71
6698.9
6698.9
)
;
    }
    procBoundary7to6
    {
        type            processor;
        value           nonuniform List<scalar> 
12
(
6698.3
6698.04
6698.25
6699
6698.81
6698.72
6698.94
6698.97
6699.06
6698.87
6699.03
6699.12
)
;
    }
}


// ************************************************************************* //
