/*--------------------------------*- C++ -*----------------------------------*\
| =========                 |                                                 |
| \\      /  F ield         | OpenFOAM: The Open Source CFD Toolbox           |
|  \\    /   O peration     | Version:  4.x                                   |
|   \\  /    A nd           | Web:      www.OpenFOAM.org                      |
|    \\/     M anipulation  |                                                 |
\*---------------------------------------------------------------------------*/
FoamFile
{
    version     2.0;
    format      ascii;
    class       volScalarField;
    location    "11";
    object      Sm;
}
// * * * * * * * * * * * * * * * * * * * * * * * * * * * * * * * * * * * * * //

dimensions      [1 -3 -1 0 0 0 0];

internalField   nonuniform List<scalar> 
132
(
9.91924e-65
7.82687e-65
6.43195e-65
6.74189e-65
1.03065e-64
1.03839e-64
7.98158e-65
5.65679e-65
8.36889e-65
7.67194e-65
9.45428e-65
7.2844e-65
6.74191e-65
8.44672e-65
5.65694e-65
7.51671e-65
6.35429e-65
8.05902e-65
5.50216e-65
7.36204e-65
6.19959e-65
7.12948e-65
7.43942e-65
8.05935e-65
7.51685e-65
7.20682e-65
8.60162e-65
5.11476e-65
7.28467e-65
8.75705e-65
5.5022e-65
7.20709e-65
6.81959e-65
7.90447e-65
5.88962e-65
4.3397e-65
6.43195e-65
7.36185e-65
6.74186e-65
6.8968e-65
8.60155e-65
8.4465e-65
7.36157e-65
3.95221e-65
8.52436e-65
7.43941e-65
7.51688e-65
8.13678e-65
7.05184e-65
5.6569e-65
7.74915e-65
5.73432e-65
5.81218e-65
8.52449e-65
6.97454e-65
5.7346e-65
7.36194e-65
8.60183e-65
8.91173e-65
7.05188e-65
7.98172e-65
5.65725e-65
8.44712e-65
5.8897e-65
7.28462e-65
7.36207e-65
6.19965e-65
6.58706e-65
7.98197e-65
5.34712e-65
5.03704e-65
5.81196e-65
7.36177e-65
6.04436e-65
5.81182e-65
8.05953e-65
7.36202e-65
6.81954e-65
5.19211e-65
8.52433e-65
7.0519e-65
7.12933e-65
8.75664e-65
7.51668e-65
7.05216e-65
7.36213e-65
7.51708e-65
6.97457e-65
8.29195e-65
7.59449e-65
7.67194e-65
7.05196e-65
7.74935e-65
5.34733e-65
6.27726e-65
7.0522e-65
6.89719e-65
6.1222e-65
5.26976e-65
7.59459e-65
7.05216e-65
5.81216e-65
5.50204e-65
6.43195e-65
6.12196e-65
6.89717e-65
5.81222e-65
7.67207e-65
7.43957e-65
5.19216e-65
3.87474e-65
6.89695e-65
6.66446e-65
5.42452e-65
5.96729e-65
6.04478e-65
6.04475e-65
6.19973e-65
6.89713e-65
6.35466e-65
7.20704e-65
6.43213e-65
7.28453e-65
6.27735e-65
7.36232e-65
5.65733e-65
5.81233e-65
6.58726e-65
6.50977e-65
6.50971e-65
6.35476e-65
4.10738e-65
)
;

boundaryField
{
    inlet
    {
        type            calculated;
        value           nonuniform 0();
    }
    outlet
    {
        type            calculated;
        value           uniform 0;
    }
    wall
    {
        type            calculated;
        value           uniform 0;
    }
    procBoundary7to0
    {
        type            processor;
        value           uniform 2.32482e-65;
    }
    procBoundary7to1
    {
        type            processor;
        value           uniform 5.73458e-65;
    }
    procBoundary7to3
    {
        type            processor;
        value           nonuniform List<scalar> 
36
(
7.67195e-65
8.98932e-65
8.83428e-65
8.52429e-65
6.12193e-65
6.27687e-65
8.52408e-65
6.81918e-65
7.74903e-65
8.98941e-65
5.11463e-65
7.74941e-65
4.33965e-65
4.64958e-65
7.90427e-65
7.28427e-65
8.83404e-65
6.12179e-65
5.6572e-65
8.29204e-65
8.21448e-65
5.8121e-65
6.81948e-65
7.98188e-65
6.66447e-65
7.20683e-65
5.4245e-65
5.73477e-65
3.87485e-65
5.42477e-65
6.12222e-65
5.5797e-65
7.12962e-65
6.19963e-65
7.90451e-65
8.52436e-65
)
;
    }
    procBoundary7to5
    {
        type            processor;
        value           nonuniform List<scalar> 
44
(
8.44685e-65
6.04452e-65
7.43936e-65
5.81198e-65
4.57206e-65
6.97426e-65
5.73435e-65
8.6789e-65
9.99677e-65
4.41714e-65
7.28444e-65
7.59439e-65
6.19946e-65
7.05186e-65
7.12928e-65
6.89675e-65
5.57936e-65
9.99677e-65
4.41714e-65
4.41714e-65
8.98938e-65
7.98192e-65
1.01517e-64
7.36192e-65
8.21427e-65
8.91165e-65
8.67911e-65
3.56476e-65
9.37688e-65
8.98938e-65
7.98192e-65
7.98192e-65
9.68683e-65
7.74945e-65
6.50954e-65
6.74199e-65
6.81945e-65
7.20715e-65
5.50222e-65
7.28459e-65
5.65717e-65
9.68683e-65
7.74945e-65
7.74945e-65
)
;
    }
    procBoundary7to6
    {
        type            processor;
        value           nonuniform List<scalar> 
12
(
6.74205e-65
7.12961e-65
4.95981e-65
8.52446e-65
7.59461e-65
7.51722e-65
7.90456e-65
7.74964e-65
5.65734e-65
3.79736e-65
7.82724e-65
6.04488e-65
)
;
    }
}


// ************************************************************************* //
