/*--------------------------------*- C++ -*----------------------------------*\
| =========                 |                                                 |
| \\      /  F ield         | OpenFOAM: The Open Source CFD Toolbox           |
|  \\    /   O peration     | Version:  4.x                                   |
|   \\  /    A nd           | Web:      www.OpenFOAM.org                      |
|    \\/     M anipulation  |                                                 |
\*---------------------------------------------------------------------------*/
FoamFile
{
    version     2.0;
    format      ascii;
    class       volVectorField;
    location    "11";
    object      U;
}
// * * * * * * * * * * * * * * * * * * * * * * * * * * * * * * * * * * * * * //

dimensions      [0 1 -1 0 0 0 0];

internalField   nonuniform List<vector> 
132
(
(0.00508446 -2.94689e-05 -0.000276252)
(0.0277063 6.67393e-05 0.00025618)
(0.00511822 6.26041e-05 -0.00105939)
(0.0269953 0.000150916 -0.00102337)
(0.00406462 9.64141e-05 -0.00170184)
(0.0248853 0.000395697 -0.00146198)
(0.00312466 0.000284002 -0.00216033)
(0.0190911 0.000227876 0.00107084)
(0.00438449 0.00093124 -0.00412028)
(0.00511882 0.000399742 -0.000182712)
(0.0293018 0.000156921 0.000380813)
(0.00572536 0.00071391 -0.000808062)
(0.0301247 0.000216391 -0.000579761)
(0.00624678 0.00145818 -0.00182088)
(0.0306793 4.9487e-05 -0.00100863)
(0.00700573 0.00328469 -0.00382315)
(0.0291712 -0.00158029 -0.000157554)
(0.00740971 0.00712634 -0.00863851)
(0.00604075 4.67112e-05 -8.49294e-05)
(0.0295076 0.000136621 0.000456616)
(0.00708882 4.76101e-05 -0.000780221)
(0.0311185 -0.00036292 -0.000607873)
(0.00839326 0.000663546 -0.00230803)
(0.0327169 -0.00120777 -0.000957777)
(0.00974614 0.00359405 -0.00551038)
(0.0324894 -0.0032662 0.000462136)
(0.00915058 0.0181406 -0.0185502)
(0.0176729 0.000176882 0.000135182)
(0.0350057 -2.63523e-05 0.00189316)
(0.0190997 8.00928e-05 0.000995788)
(0.0384369 -0.000964058 0.00345751)
(0.0198479 0.000540785 0.000625213)
(0.0441502 -0.00230179 0.00424919)
(0.0182164 0.00309549 -0.00278732)
(0.0552091 -0.00404621 0.0048346)
(0.0109629 0.015168 -0.0190435)
(-2.02316e-08 -5.56297e-09 2.44824e-08)
(0.0239115 0.000159009 -0.000376337)
(6.83147e-09 5.74328e-09 8.86733e-09)
(0.022295 0.000608721 -0.000690007)
(1.82934e-05 6.52603e-07 -8.22468e-06)
(0.0191295 0.000418591 0.000827383)
(0.00629036 0.000380155 -0.00288242)
(0.000338043 4.53852e-05 -2.80299e-05)
(0.0260129 -0.000198773 -0.000355591)
(0.000685636 0.000143142 -0.000141604)
(0.0258015 -0.000301321 -0.000948044)
(0.00170401 0.000442811 -0.000562811)
(0.0248064 -0.000205148 -0.00110231)
(0.00407422 0.00142188 -0.00184931)
(0.0217038 -0.00144133 2.51855e-06)
(0.0077064 0.00265914 -0.00461961)
(0.0012663 7.90223e-05 -8.35833e-05)
(0.0265198 -0.000217027 1.72924e-05)
(0.000659914 5.53928e-05 -0.000114144)
(0.0263688 -0.00078353 -0.00033842)
(0.000475906 6.61277e-05 -0.000142682)
(0.0253272 -0.00139976 -8.46134e-05)
(0.00133252 0.00033417 -0.000598922)
(0.0214616 -0.00227575 0.00153921)
(0.00356429 0.00152738 -0.00260747)
(0.0143413 0.000326609 -7.83943e-05)
(0.0313395 -2.76479e-05 0.00136256)
(0.0142842 0.000249043 0.000111726)
(0.0323954 -0.000856947 0.00225034)
(0.0137439 0.000530826 -0.000110486)
(0.033062 -0.00171786 0.00283111)
(0.012032 0.00103995 -0.0012936)
(0.0307644 -0.00278611 0.00322943)
(0.00940337 0.0021291 -0.00462708)
(1.31897e-09 2.93383e-10 8.75426e-09)
(0.0225133 0.000123394 -0.00126085)
(5.14577e-09 -2.93935e-09 4.14365e-10)
(0.0188727 0.00117128 -0.00224551)
(0.00484398 -0.000745024 -0.00018841)
(0.00378108 0.000233723 0.000224417)
(0.0277937 0.000349524 -0.000322312)
(0.00270571 0.000312967 7.2124e-05)
(0.0285191 -0.000291923 -0.00138235)
(0.00181575 0.000405816 7.6279e-07)
(0.0287873 -0.000328998 -0.00227908)
(0.00150544 0.000710176 -9.68434e-05)
(0.025773 -0.00194721 -0.0021526)
(0.00365527 0.00281511 -0.000850471)
(0.00583737 0.000167264 0.000172548)
(0.027998 0.000175027 0.000315588)
(0.00562523 0.000279335 -0.000111801)
(0.0290584 -0.000217245 -0.000573689)
(0.00591794 0.000816718 -0.000226992)
(0.0302616 -0.000969632 -0.00112622)
(0.00775574 0.00304671 -0.000430315)
(0.0295698 -0.00343278 -0.00138859)
(0.0108238 0.0178394 -0.00154743)
(0.018273 0.000483366 0.000511726)
(0.0344256 1.9901e-05 0.00129099)
(0.0193827 0.0006218 0.000984436)
(0.0370932 -0.00079962 0.0017984)
(0.0198695 0.00146287 0.0014632)
(0.0418897 -0.00185479 0.00210185)
(0.0188394 0.0040523 0.00190763)
(0.0534744 -0.00390285 0.00146324)
(0.0120986 0.0147336 -0.000534358)
(0.011755 -0.00292949 0.000806221)
(0.025521 0.00242041 -0.000608119)
(0.0107179 -0.00518208 0.000148998)
(0.0118229 0.000135258 -8.1501e-05)
(0.0297815 -0.000127532 -0.000138158)
(0.00984956 0.000197366 -0.000438616)
(0.0290192 -0.000380679 -0.000615539)
(0.00623524 0.000324899 -0.000624385)
(0.0266187 -0.000687106 -0.000565649)
(0.00277147 0.000291122 -0.000659386)
(0.0217668 -0.00124046 0.00134599)
(0.00516462 0.000868625 -0.00221584)
(0.016949 0.000164041 -4.94446e-05)
(0.0321577 0.000312945 6.00619e-06)
(0.0168736 0.000364494 -0.000701969)
(0.0321303 0.000173893 -0.000801789)
(0.0150865 0.000885941 -0.00140981)
(0.0309163 -0.000112422 -0.00124438)
(0.0121546 0.00241692 -0.00231188)
(0.0270268 -0.00179958 -0.000632972)
(0.0095708 0.00571213 -0.00340467)
(0.0199242 9.97656e-05 -0.000400497)
(0.0346109 -0.0002053 5.78599e-05)
(0.0208683 0.000294351 -0.000762943)
(0.0361752 -0.000510378 5.28958e-05)
(0.0217842 0.000853154 -0.00185921)
(0.0384989 -0.000818572 0.000272935)
(0.0224166 0.00246435 -0.0048539)
(0.0411614 -0.00157716 0.00141935)
(0.020601 0.00689788 -0.0170403)
)
;

boundaryField
{
    inlet
    {
        type            fixedValue;
        value           nonuniform 0();
    }
    outlet
    {
        type            zeroGradient;
    }
    wall
    {
        type            fixedValue;
        value           uniform (0 0 0);
    }
    procBoundary7to0
    {
        type            processor;
        value           uniform (0.027195 2.93105e-05 0.00101468);
    }
    procBoundary7to1
    {
        type            processor;
        value           uniform (0.00502808 -0.000376283 -3.77803e-05);
    }
    procBoundary7to3
    {
        type            processor;
        value           nonuniform List<vector> 
36
(
(0.000955451 1.20728e-05 2.44767e-05)
(0.0271142 0.000246986 0.000571728)
(0.00178065 6.66024e-05 -0.000143338)
(0.0279699 0.00015376 -0.000581529)
(0.00290016 0.000205665 -0.000772795)
(0.0280112 0.000306567 -0.00110741)
(0.00351027 0.000721734 -0.00161905)
(0.0260831 0.000141285 -0.000497018)
(0.00428007 0.00272926 -0.0045739)
(0.00290716 0.000254137 0.000238939)
(0.0282389 -0.000109847 0.000928243)
(0.00337463 0.000379481 3.33596e-05)
(0.0292134 -0.00032059 -0.000187429)
(0.00379945 0.000606034 -0.000475915)
(0.0304153 -0.000549482 -0.000978504)
(0.00457812 0.00159194 -0.00117766)
(0.0313908 -0.00207346 -0.00194838)
(0.00694943 0.00746584 -0.00511856)
(0.00308609 0.00022316 0.00030803)
(0.0283944 0.000650318 0.00145406)
(0.00372044 0.000243836 0.000106783)
(0.0302476 -1.01879e-05 0.000499002)
(0.00542273 0.000611734 -0.000631878)
(0.0338834 -0.00106825 -0.000203779)
(0.00761147 0.00214796 -0.00191975)
(0.0413399 -0.0038657 -0.000506099)
(0.00790482 0.0136041 -0.0118971)
(0.0172118 0.000621768 0.00107454)
(0.0341585 0.000620808 0.00290204)
(0.0191288 0.000344507 0.00262575)
(0.0373721 -0.00043867 0.00496089)
(0.0196683 0.000236452 0.00315619)
(0.0418512 -0.00180315 0.00541098)
(0.017398 0.00087412 0.00239825)
(0.0525684 -0.00382349 0.00450874)
(0.00852525 0.00571823 -0.00676785)
)
;
    }
    procBoundary7to5
    {
        type            processor;
        value           nonuniform List<vector> 
44
(
(0.0290642 -4.45272e-05 0.000453432)
(0.00475286 -0.000624519 -0.000581664)
(0.0296626 1.04269e-05 -0.000979962)
(0.00424964 -0.00104226 -0.00117705)
(0.0295133 0.000363297 -0.00171543)
(0.00366747 -0.00169927 -0.00164484)
(0.0266972 0.00196531 -0.000174743)
(0.00502803 -0.0038964 -0.00305069)
(-3.52633e-08 -6.20735e-09 1.45817e-08)
(0.0244754 3.07519e-05 -0.000277281)
(-1.89791e-08 -1.10423e-08 2.54761e-08)
(0.0255653 0.000290311 -0.000812981)
(-4.48637e-09 -6.09501e-09 9.83806e-09)
(0.0242541 0.000503772 -0.000816828)
(0.000779539 -0.000335829 -0.000202849)
(0.0214771 0.00242885 -0.000751117)
(0.00753845 -0.00227094 -0.00196041)
(-3.52633e-08 -6.20735e-09 1.45817e-08)
(0.0244754 3.07519e-05 -0.000277281)
(0.0244754 3.07519e-05 -0.000277281)
(-2.01422e-08 -6.74811e-09 1.46295e-08)
(0.0241399 -6.88432e-05 -0.000781754)
(0.00401333 -0.00123551 0.00058006)
(0.0299794 0.000289537 -0.001728)
(0.00454012 -0.00267707 0.00141021)
(0.0281391 0.00228695 -0.00422578)
(0.00630492 -0.00560885 0.0028479)
(0.00220288 -9.42836e-05 0.000334375)
(0.0253468 -0.000119117 0.000308764)
(-2.01422e-08 -6.74811e-09 1.46295e-08)
(0.0241399 -6.88432e-05 -0.000781754)
(0.0241399 -6.88432e-05 -0.000781754)
(0.0140865 -0.00159361 0.000405311)
(0.0289463 -3.10795e-06 -0.000461698)
(0.0141705 -0.00473936 -0.00042337)
(0.0334279 0.00146159 -0.000514006)
(0.00882254 -0.00636464 -0.00026126)
(0.0157676 -0.000655102 0.000653635)
(0.0311075 -0.000765423 0.000775206)
(0.0159604 -0.00104116 0.000526521)
(0.0307469 -0.000796913 -0.000303487)
(0.0140865 -0.00159361 0.000405311)
(0.0289463 -3.10795e-06 -0.000461698)
(0.0289463 -3.10795e-06 -0.000461698)
)
;
    }
    procBoundary7to6
    {
        type            processor;
        value           nonuniform List<vector> 
12
(
(0.0280018 0.000276937 0.000857143)
(0.0280088 0.000515747 0.00086607)
(0.0325742 0.000604462 0.000398651)
(0.0257154 -5.30113e-05 0.000230173)
(0.0262306 0.000298028 0.000343076)
(0.0303749 0.00055631 0.00027318)
(0.0272131 0.000212616 0.00061168)
(0.0275176 0.000504214 0.000971005)
(0.0325288 0.000671724 0.000668616)
(0.0295423 -6.87899e-05 0.000316429)
(0.0313385 0.000346029 0.000521503)
(0.0332709 0.000158324 -5.80833e-05)
)
;
    }
}


// ************************************************************************* //
