/*--------------------------------*- C++ -*----------------------------------*\
| =========                 |                                                 |
| \\      /  F ield         | OpenFOAM: The Open Source CFD Toolbox           |
|  \\    /   O peration     | Version:  4.x                                   |
|   \\  /    A nd           | Web:      www.OpenFOAM.org                      |
|    \\/     M anipulation  |                                                 |
\*---------------------------------------------------------------------------*/
FoamFile
{
    version     2.0;
    format      ascii;
    class       volVectorField;
    location    "11";
    object      Urel;
}
// * * * * * * * * * * * * * * * * * * * * * * * * * * * * * * * * * * * * * //

dimensions      [0 1 -1 0 0 0 0];

internalField   nonuniform List<vector> 
132
(
(-0.0180288 3.48991e-05 -0.000238406)
(-0.0197254 3.14818e-05 -0.000158809)
(-0.01808 3.23689e-05 7.87724e-05)
(-0.0196776 3.26596e-05 0.000312469)
(-0.0178757 3.40878e-05 0.000592319)
(-0.0192081 2.48578e-05 0.000872101)
(-0.0171531 2.88052e-05 0.00123265)
(-0.0178767 3.3927e-05 0.00148488)
(-0.0158609 -4.75766e-05 0.00228232)
(-0.0183841 -0.000113057 -0.000253906)
(-0.0201738 -8.72313e-05 -0.000190815)
(-0.0185593 -0.000111903 3.37833e-05)
(-0.0203143 -9.56251e-05 0.000263706)
(-0.0185748 -0.000216235 0.000597202)
(-0.0201599 -0.000245106 0.000916111)
(-0.0181452 -0.000609494 0.00150554)
(-0.0191675 -0.00067107 0.00189632)
(-0.0167202 -0.00176555 0.00313973)
(-0.0193975 -0.000196609 -0.000349576)
(-0.0211855 -0.000158752 -0.000357734)
(-0.0197465 -0.000139635 -0.000166515)
(-0.0215553 -0.0001106 2.3125e-05)
(-0.019984 -0.000251254 0.00040021)
(-0.0216927 -0.000299628 0.000732273)
(-0.0197647 -0.000909868 0.00155937)
(-0.0209482 -0.00115719 0.00211197)
(-0.017997 -0.00332848 0.00421806)
(-0.0213106 -0.000265751 -0.000514922)
(-0.0228397 -0.000199862 -0.000691813)
(-0.021879 -0.000165387 -0.000579936)
(-0.0234723 -9.57867e-05 -0.000567868)
(-0.0222493 -0.000261278 -0.000110114)
(-0.0239332 -0.000277041 0.000147648)
(-0.0219933 -0.00099807 0.001234)
(-0.0237141 -0.00129823 0.00192532)
(-0.0194273 -0.00354026 0.00462829)
(-0.0175113 8.07643e-05 5.28703e-05)
(-0.0191521 8.96435e-05 0.000269618)
(-0.0173022 0.000105421 0.000432)
(-0.0186235 0.000102369 0.000695728)
(-0.0166141 0.000159258 0.000898476)
(-0.0174324 0.000175948 0.00114142)
(-0.0157449 0.000251047 0.00165547)
(-0.0178465 -5.44084e-05 -0.000176493)
(-0.0196529 -1.88043e-05 -6.24527e-05)
(-0.0179274 -2.78164e-05 7.32822e-05)
(-0.01966 3.80742e-06 0.000312645)
(-0.0178452 -9.00256e-05 0.000510908)
(-0.0193037 -0.000120836 0.000817048)
(-0.0173449 -0.00036259 0.00117031)
(-0.0181708 -0.000425516 0.00146574)
(-0.0162427 -0.00109101 0.00222726)
(-0.0188482 -0.0001385 -0.000231714)
(-0.0206311 -7.95802e-05 -0.00019302)
(-0.0190378 -7.42333e-05 -5.91033e-05)
(-0.0208048 -2.3114e-05 0.000121818)
(-0.0190586 -0.000151669 0.000360242)
(-0.0206393 -0.00018944 0.000660581)
(-0.0186334 -0.00062109 0.0011477)
(-0.0195467 -0.000870709 0.00156286)
(-0.0171894 -0.0020632 0.00260471)
(-0.0207415 -0.000206532 -0.000344913)
(-0.0222084 -0.000127759 -0.000448164)
(-0.0211411 -0.000111512 -0.000309598)
(-0.0226202 -4.01326e-05 -0.00028063)
(-0.0213076 -0.000209036 9.10961e-05)
(-0.0226915 -0.000225276 0.000294198)
(-0.0208294 -0.000792776 0.00105624)
(-0.0217486 -0.00106568 0.00152478)
(-0.0187338 -0.00244409 0.00298683)
(-0.017828 0.000229385 0.000377073)
(-0.0191258 0.000258629 0.000638644)
(-0.0170475 0.000365303 0.000724882)
(-0.0178766 0.000372595 0.00103052)
(-0.0160288 0.000681488 0.00107326)
(-0.0185126 -2.857e-05 -0.0001698)
(-0.0201634 -6.88144e-06 -2.9797e-05)
(-0.0184371 1.22151e-05 9.78541e-05)
(-0.0200957 6.09633e-05 0.000354806)
(-0.0181403 -1.00441e-05 0.000470613)
(-0.0196365 -1.57561e-05 0.000792324)
(-0.0173865 -0.000190628 0.000938164)
(-0.0184008 -0.000234637 0.0012854)
(-0.0161752 -0.000883593 0.00157359)
(-0.0194967 -0.000116245 -0.00019336)
(-0.0211119 -7.64742e-05 -0.00011874)
(-0.0196538 -6.82059e-05 2.82301e-05)
(-0.0212709 -3.39025e-05 0.000223417)
(-0.0196023 -0.000170351 0.000415327)
(-0.0211068 -0.000197512 0.000718716)
(-0.0191292 -0.000692616 0.00103927)
(-0.0201326 -0.000845915 0.00147038)
(-0.0177123 -0.00272721 0.00203913)
(-0.0212514 -0.000180651 -0.000276064)
(-0.0226499 -0.000104971 -0.000302464)
(-0.0216902 -0.000116496 -0.000182893)
(-0.0231098 -4.84191e-05 -9.28779e-05)
(-0.0218962 -0.000266758 0.00016595)
(-0.023355 -0.00025952 0.000408656)
(-0.0215512 -0.000948963 0.000910842)
(-0.0230489 -0.0011072 0.00144629)
(-0.0193563 -0.0031214 0.00240366)
(-0.0183657 0.000681372 0.000598953)
(-0.0188502 0.000557279 0.000824597)
(-0.0168327 0.00125367 0.000898694)
(-0.0197887 1.81442e-05 -0.000144514)
(-0.0210944 5.98614e-05 -2.27979e-05)
(-0.0195997 6.70528e-05 0.000139948)
(-0.0208268 0.000113701 0.000341613)
(-0.0189385 6.29478e-05 0.000491957)
(-0.0200167 7.76595e-05 0.00069315)
(-0.0177887 -4.48144e-05 0.000869105)
(-0.0185156 -0.00010358 0.00103319)
(-0.0164646 -0.000437192 0.00148855)
(-0.0207911 -9.06033e-05 -0.000129303)
(-0.0220435 -6.60297e-05 -3.13927e-05)
(-0.0208775 -6.29366e-05 0.000151041)
(-0.022026 -5.2473e-05 0.000339214)
(-0.0205369 -0.000174492 0.000574159)
(-0.0215231 -0.000222379 0.000817124)
(-0.0196077 -0.000629094 0.00119296)
(-0.0201738 -0.000750015 0.00148327)
(-0.017917 -0.00189901 0.00222306)
(-0.021865 -0.000129358 -0.000132207)
(-0.023143 -7.59793e-05 -0.000100945)
(-0.0222748 -9.86398e-05 6.62707e-05)
(-0.0235021 -7.26902e-05 0.000189339)
(-0.0224155 -0.000262311 0.000519937)
(-0.0235494 -0.000325144 0.000721166)
(-0.0219909 -0.000887529 0.00142122)
(-0.0228072 -0.00110849 0.00175197)
(-0.0201166 -0.00251869 0.00356221)
)
;

boundaryField
{
    inlet
    {
        type            calculated;
        value           nonuniform 0();
    }
    outlet
    {
        type            calculated;
        value           nonuniform List<vector> 
16
(
(-0.00377362 -0.000788759 0.00369668)
(-0.00721034 -0.00732163 0.00861165)
(-0.00894426 -0.0186354 0.0185886)
(-0.0111268 -0.0158259 0.0205945)
(-0.005411 -0.000308967 0.00253588)
(-0.00736963 -0.00295085 0.00449759)
(-0.00364436 -0.00183047 0.00275731)
(-0.00967138 -0.0026435 0.00565377)
(-0.00507598 0.000783515 0.000106521)
(-0.00360673 -0.00286734 0.000874009)
(-0.0105115 -0.017832 0.0018973)
(-0.0119981 -0.0147759 0.00129044)
(-0.0107533 0.00514899 -2.90624e-05)
(-0.00511879 -0.000849701 0.00226068)
(-0.00893988 -0.00566503 0.0033345)
(-0.020463 -0.00713947 0.0170709)
)
;
    }
    wall
    {
        type            calculated;
        value           nonuniform List<vector> 
66
(
(-1.63811e-08 3.78451e-09 1.04558e-07)
(3.44325e-09 -1.40464e-08 1.13979e-07)
(5.27479e-08 2.40325e-08 1.49974e-07)
(-3.40866e-08 -2.70152e-08 6.258e-08)
(7.04785e-09 -6.34278e-09 6.21654e-08)
(2.96055e-08 1.19592e-08 9.63007e-08)
(-1.02299e-08 -1.29637e-08 3.64598e-08)
(-2.00253e-08 -3.67816e-08 7.4309e-08)
(3.80984e-08 -2.62648e-09 7.30797e-08)
(2.02942e-10 -1.40249e-08 3.43141e-08)
(-1.01799e-08 -5.90598e-09 3.97007e-08)
(3.99946e-08 6.95392e-09 7.34321e-08)
(1.80683e-08 -1.63375e-08 5.08994e-08)
(2.39376e-09 -1.23167e-08 4.22603e-08)
(1.03037e-08 -2.17028e-09 6.36663e-08)
(-1.53643e-08 -4.98158e-09 3.30996e-08)
(1.63467e-09 -8.79836e-09 8.72827e-08)
(1.66829e-08 3.23974e-10 4.79249e-08)
(4.04232e-09 1.74912e-10 4.1646e-08)
(-4.23282e-09 -4.8551e-09 2.6747e-08)
(3.05144e-09 5.80624e-09 4.76323e-08)
(9.04448e-09 1.85144e-09 2.64998e-08)
(-9.0219e-09 2.89565e-09 4.7217e-08)
(-1.45127e-08 1.09998e-08 6.84653e-08)
(-6.87465e-11 1.53806e-08 4.49173e-08)
(8.61912e-09 4.59967e-09 4.37607e-08)
(2.22946e-08 1.62069e-08 1.01723e-07)
(8.99334e-09 9.1872e-09 5.91206e-08)
(9.97469e-09 -3.06193e-09 3.60883e-08)
(7.13155e-08 -3.21062e-08 6.22807e-08)
(-4.16031e-08 1.36936e-08 1.46723e-07)
(-1.08868e-07 -9.23076e-09 1.35208e-07)
(-2.17565e-09 1.43037e-08 1.17667e-07)
(5.27479e-08 2.40325e-08 1.49974e-07)
(-4.73137e-08 -5.22499e-10 1.52236e-07)
(-7.6932e-08 5.1307e-09 1.55034e-07)
(-2.40229e-08 -1.08367e-08 1.30321e-07)
(2.96055e-08 1.19592e-08 9.63007e-08)
(-3.11699e-08 -4.14672e-09 1.37003e-07)
(-6.71509e-08 -9.33255e-09 1.33199e-07)
(-1.73112e-08 7.96389e-09 1.06811e-07)
(3.80984e-08 -2.62648e-09 7.30797e-08)
(-8.49217e-09 -1.57449e-08 1.2623e-07)
(-2.33431e-08 -1.97998e-10 1.03394e-07)
(-2.39078e-08 3.08641e-09 7.89046e-08)
(3.99946e-08 6.95392e-09 7.34321e-08)
(-2.87458e-08 -1.09715e-08 9.92302e-08)
(-3.30715e-09 -3.20577e-10 7.94286e-08)
(1.08472e-10 -1.1775e-08 6.31082e-08)
(1.03037e-08 -2.17028e-09 6.36663e-08)
(-1.87438e-08 -2.9759e-09 1.0797e-07)
(1.25226e-08 -1.38971e-09 7.92164e-08)
(4.25403e-08 -7.83418e-09 7.86745e-08)
(1.66829e-08 3.23974e-10 4.79249e-08)
(-1.51277e-08 -8.89238e-09 7.02694e-08)
(2.28323e-08 -2.38751e-09 4.94613e-08)
(-4.29656e-09 5.26968e-10 4.16168e-08)
(9.04448e-09 1.85144e-09 2.64998e-08)
(-3.43687e-09 -1.55367e-08 4.39861e-08)
(1.11291e-08 -1.43263e-10 4.23766e-08)
(1.2095e-08 1.23451e-08 3.19679e-08)
(8.61912e-09 4.59967e-09 4.37607e-08)
(-1.11516e-08 -1.5789e-08 4.80082e-08)
(-1.74878e-08 -7.18518e-09 3.8023e-08)
(-8.20764e-10 9.84669e-10 3.07482e-08)
(7.13155e-08 -3.21062e-08 6.22807e-08)
)
;
    }
    procBoundary7to0
    {
        type            processor;
        value           uniform (-0.0196346 2.92909e-05 -0.000329588);
    }
    procBoundary7to1
    {
        type            processor;
        value           uniform (-0.0184114 0.000186383 -0.000315286);
    }
    procBoundary7to3
    {
        type            processor;
        value           nonuniform List<vector> 
36
(
(-0.018468 1.86143e-05 -0.000367978)
(-0.0202316 5.31315e-06 -0.000306882)
(-0.0184671 5.64124e-06 -7.84837e-05)
(-0.0202294 -5.35687e-07 0.000196498)
(-0.0183635 -6.63353e-06 0.000502207)
(-0.0199326 -1.04604e-05 0.000873312)
(-0.0178034 -5.22851e-05 0.00132952)
(-0.0188407 -5.46611e-05 0.00183305)
(-0.0163776 -0.00034048 0.00275522)
(-0.0189605 -0.000156045 -0.000415872)
(-0.0207299 -0.000133016 -0.000383347)
(-0.0190399 -0.000155761 -0.000159473)
(-0.0208423 -0.000131661 9.71109e-05)
(-0.0190435 -0.000234507 0.000436598)
(-0.0207852 -0.000259222 0.000850413)
(-0.0187018 -0.000587761 0.00143252)
(-0.0200562 -0.000721196 0.00218022)
(-0.0172873 -0.00193858 0.00335899)
(-0.0200288 -0.000298929 -0.000545166)
(-0.0218049 -0.000290107 -0.000614486)
(-0.020257 -0.000257539 -0.000432502)
(-0.0221151 -0.000236998 -0.000254204)
(-0.0204583 -0.000349278 0.000126494)
(-0.0223547 -0.000393955 0.00052782)
(-0.0203297 -0.000914202 0.00130223)
(-0.0220358 -0.0011814 0.00221388)
(-0.0184802 -0.00324362 0.00403655)
(-0.0221182 -0.000408516 -0.000758683)
(-0.0235807 -0.000374595 -0.00100224)
(-0.0226012 -0.000322477 -0.000945788)
(-0.024104 -0.000264488 -0.000946875)
(-0.0228451 -0.000382003 -0.000520385)
(-0.0244626 -0.000414139 -0.00017658)
(-0.0225241 -0.000997414 0.000799714)
(-0.0243083 -0.00134501 0.0019469)
(-0.0197235 -0.0032077 0.00432562)
)
;
    }
    procBoundary7to5
    {
        type            processor;
        value           nonuniform List<vector> 
44
(
(-0.0201759 0.000160785 -0.000263901)
(-0.0184827 0.000193325 -7.20222e-05)
(-0.0202433 0.000182864 0.000158814)
(-0.0183691 0.000312679 0.000392311)
(-0.0199387 0.00036577 0.000698643)
(-0.0177562 0.000716013 0.00101856)
(-0.0187771 0.000866882 0.001337)
(-0.0163952 0.00181968 0.00196176)
(-0.017525 6.16296e-05 -0.000197533)
(-0.0192585 7.26481e-05 -7.5843e-05)
(-0.0180526 0.00018469 -5.87955e-05)
(-0.0198255 0.000184883 0.00015862)
(-0.0179488 0.000302586 0.000279764)
(-0.0194662 0.000382704 0.000536751)
(-0.0173895 0.000700657 0.00071025)
(-0.0183493 0.000858692 0.000991114)
(-0.0164239 0.00172406 0.00129543)
(-0.017525 6.16296e-05 -0.000197533)
(-0.0192585 7.26481e-05 -7.5843e-05)
(-0.0192585 7.26481e-05 -7.5843e-05)
(-0.0181176 0.00015943 4.28463e-05)
(-0.0196876 0.000187102 0.00027507)
(-0.0188789 0.000483255 0.000223943)
(-0.0204388 0.000568855 0.000492365)
(-0.0183032 0.00103546 0.000479876)
(-0.0193376 0.00117392 0.000848169)
(-0.0169774 0.00239952 0.000525853)
(-0.0182808 0.000116142 -0.000231511)
(-0.0198595 0.00013899 -0.000107263)
(-0.0181176 0.00015943 4.28463e-05)
(-0.0196876 0.000187102 0.00027507)
(-0.0196876 0.000187102 0.00027507)
(-0.0194643 0.000426465 0.000340701)
(-0.0203031 0.000416475 0.000544583)
(-0.0198567 0.00142275 0.000479431)
(-0.0205599 0.00154647 0.000602882)
(-0.0178533 0.0029811 0.000515598)
(-0.0199942 0.000201216 -0.000259253)
(-0.0212175 0.000245566 -0.000152188)
(-0.0199798 0.000296584 1.49858e-05)
(-0.0210432 0.000328509 0.000237507)
(-0.0194643 0.000426465 0.000340701)
(-0.0203031 0.000416475 0.000544583)
(-0.0203031 0.000416475 0.000544583)
)
;
    }
    procBoundary7to6
    {
        type            processor;
        value           nonuniform List<vector> 
12
(
(-0.0199539 -0.000125486 -0.00031829)
(-0.0208055 -0.000257541 -0.000357)
(-0.0222247 -0.000345644 -0.000402437)
(-0.0195391 -7.83193e-05 -0.000229555)
(-0.0203815 -0.000197289 -0.000250926)
(-0.0217419 -0.000284195 -0.000294482)
(-0.0200887 -5.4178e-05 -0.000251485)
(-0.0208778 -0.000175536 -0.000259743)
(-0.0221521 -0.000253288 -0.000268616)
(-0.0210222 -5.24989e-06 -0.000234569)
(-0.0217917 -0.000139585 -0.000214396)
(-0.0226689 -0.000187754 -0.000170309)
)
;
    }
}


// ************************************************************************* //
