/*--------------------------------*- C++ -*----------------------------------*\
| =========                 |                                                 |
| \\      /  F ield         | OpenFOAM: The Open Source CFD Toolbox           |
|  \\    /   O peration     | Version:  4.x                                   |
|   \\  /    A nd           | Web:      www.OpenFOAM.org                      |
|    \\/     M anipulation  |                                                 |
\*---------------------------------------------------------------------------*/
FoamFile
{
    version     2.0;
    format      ascii;
    class       volScalarField;
    location    "4.5";
    object      Cs;
}
// * * * * * * * * * * * * * * * * * * * * * * * * * * * * * * * * * * * * * //

dimensions      [1 -3 0 0 0 0 0];

internalField   nonuniform List<scalar> 
114
(
334.521
334.445
334.487
334.6
334.744
334.897
334.967
334.866
334.695
334.509
334.402
334.427
334.553
334.709
334.857
334.962
334.855
334.687
334.513
334.4
334.392
334.482
334.63
334.777
334.961
334.868
334.726
334.578
334.459
334.399
334.404
334.453
334.536
334.709
334.791
334.888
335.001
334.983
334.916
334.802
334.7
334.655
334.703
334.785
334.881
334.973
334.981
334.916
334.811
334.707
334.646
334.669
334.729
334.827
334.928
334.98
334.924
334.832
334.734
334.648
334.607
334.599
334.627
334.672
334.928
334.991
334.991
334.951
334.883
334.823
334.799
334.83
334.883
334.948
335.013
334.99
334.953
334.891
334.83
334.791
334.803
334.842
334.908
334.983
334.989
334.956
334.899
334.837
334.779
334.747
334.734
334.747
334.765
334.994
334.973
334.936
334.903
334.888
334.899
334.931
334.982
334.994
334.973
334.935
334.898
334.875
334.881
334.907
334.994
334.976
334.944
334.909
334.873
334.849
)
;

boundaryField
{
    inlet
    {
        type            calculated;
        value           uniform 335;
    }
    outlet
    {
        type            calculated;
        value           nonuniform 0();
    }
    wall
    {
        type            calculated;
        value           nonuniform List<scalar> 
66
(
334.967
334.962
334.961
334.866
334.855
334.868
334.695
334.687
334.726
334.521
334.509
334.513
334.578
334.445
334.402
334.4
334.459
334.487
334.427
334.392
334.399
334.6
334.553
334.482
334.404
334.744
334.709
334.63
334.453
334.897
334.857
334.777
334.536
334.961
334.98
334.989
334.994
334.868
334.924
334.956
334.976
334.726
334.832
334.899
334.944
334.578
334.734
334.837
334.909
334.459
334.648
334.779
334.873
334.399
334.607
334.747
334.849
334.404
334.599
334.734
334.453
334.627
334.747
334.536
334.672
334.765
)
;
    }
    procBoundary2to0
    {
        type            processor;
        value           nonuniform List<scalar> 
44
(
334.519
334.434
334.463
334.561
334.7
334.867
334.969
334.863
334.69
334.69
334.693
334.659
334.73
334.819
334.923
335.024
334.983
334.907
334.785
334.693
334.659
334.659
334.822
334.87
334.972
335.047
334.99
334.945
334.871
334.812
334.792
334.822
334.87
334.87
334.951
335.005
334.993
334.963
334.914
334.874
334.861
334.875
334.906
334.951
)
;
    }
    procBoundary2to3
    {
        type            processor;
        value           nonuniform List<scalar> 
12
(
335.028
334.977
334.911
334.628
335.095
335.057
335.016
334.74
335.035
335.067
335.051
334.816
)
;
    }
    procBoundary2to6
    {
        type            processor;
        value           nonuniform List<scalar> 
32
(
335.034
334.956
335.017
334.835
334.836
334.844
334.995
334.975
334.943
334.915
334.907
334.928
334.969
335.034
334.956
335.018
334.995
334.979
334.952
334.926
334.912
334.921
334.956
334.835
334.948
334.995
334.982
334.959
334.933
334.907
334.835
334.89
)
;
    }
}


// ************************************************************************* //
