/*--------------------------------*- C++ -*----------------------------------*\
| =========                 |                                                 |
| \\      /  F ield         | OpenFOAM: The Open Source CFD Toolbox           |
|  \\    /   O peration     | Version:  4.x                                   |
|   \\  /    A nd           | Web:      www.OpenFOAM.org                      |
|    \\/     M anipulation  |                                                 |
\*---------------------------------------------------------------------------*/
FoamFile
{
    version     2.0;
    format      ascii;
    class       volScalarField;
    location    "4.5";
    object      Deff;
}
// * * * * * * * * * * * * * * * * * * * * * * * * * * * * * * * * * * * * * //

dimensions      [0 2 -1 0 0 0 0];

internalField   nonuniform List<scalar> 
114
(
9.92133e-08
9.91894e-08
9.92773e-08
9.91615e-08
9.92901e-08
9.91866e-08
9.94199e-08
9.92967e-08
9.93213e-08
9.92821e-08
9.91435e-08
9.91809e-08
9.90613e-08
9.90777e-08
9.91476e-08
9.95242e-08
9.93776e-08
9.94514e-08
9.93058e-08
9.93199e-08
9.92674e-08
9.93406e-08
9.92348e-08
9.92516e-08
9.95838e-08
9.95313e-08
9.9504e-08
9.94241e-08
9.94748e-08
9.94566e-08
9.94998e-08
9.936e-08
9.93671e-08
9.86037e-08
9.85152e-08
9.87095e-08
9.85615e-08
9.9124e-08
9.8982e-08
9.88642e-08
9.87898e-08
9.87356e-08
9.86852e-08
9.85349e-08
9.86279e-08
9.87085e-08
9.91573e-08
9.89446e-08
9.88534e-08
9.88031e-08
9.87934e-08
9.87678e-08
9.87411e-08
9.87262e-08
9.87196e-08
9.92413e-08
9.91542e-08
9.90023e-08
9.89792e-08
9.89423e-08
9.89492e-08
9.89229e-08
9.8882e-08
9.89043e-08
9.8337e-08
9.82988e-08
9.88015e-08
9.87824e-08
9.86465e-08
9.85414e-08
9.84738e-08
9.83659e-08
9.82576e-08
9.83433e-08
9.8385e-08
9.89257e-08
9.87698e-08
9.85959e-08
9.84464e-08
9.84796e-08
9.8456e-08
9.83556e-08
9.83692e-08
9.83039e-08
9.90008e-08
9.87876e-08
9.87162e-08
9.86129e-08
9.86878e-08
9.8565e-08
9.84519e-08
9.85578e-08
9.83839e-08
9.86664e-08
9.84484e-08
9.83102e-08
9.8285e-08
9.82457e-08
9.81898e-08
9.81405e-08
9.81201e-08
9.8663e-08
9.85115e-08
9.83458e-08
9.83345e-08
9.82576e-08
9.82108e-08
9.81326e-08
9.88183e-08
9.86156e-08
9.85088e-08
9.83901e-08
9.84014e-08
9.83164e-08
)
;

boundaryField
{
    inlet
    {
        type            calculated;
        value           uniform 0;
    }
    outlet
    {
        type            calculated;
        value           nonuniform 0();
    }
    wall
    {
        type            calculated;
        value           uniform 0;
    }
    procBoundary2to0
    {
        type            processor;
        value           uniform 0;
    }
    procBoundary2to3
    {
        type            processor;
        value           uniform 0;
    }
    procBoundary2to6
    {
        type            processor;
        value           uniform 0;
    }
}


// ************************************************************************* //
