/*--------------------------------*- C++ -*----------------------------------*\
| =========                 |                                                 |
| \\      /  F ield         | OpenFOAM: The Open Source CFD Toolbox           |
|  \\    /   O peration     | Version:  4.x                                   |
|   \\  /    A nd           | Web:      www.OpenFOAM.org                      |
|    \\/     M anipulation  |                                                 |
\*---------------------------------------------------------------------------*/
FoamFile
{
    version     2.0;
    format      ascii;
    class       volScalarField;
    location    "4.5";
    object      QWallFluid;
}
// * * * * * * * * * * * * * * * * * * * * * * * * * * * * * * * * * * * * * //

dimensions      [1 -1 -3 0 0 0 0];

internalField   nonuniform List<scalar> 
114
(
3.42696e+08
8.7238e+08
1.58763e+08
8.48745e+08
4.25932e+07
8.48243e+08
8.92896e+08
4.52609e+08
9.4136e+08
4.56148e+08
9.16356e+08
2.92787e+08
8.87784e+08
1.90234e+08
9.00634e+08
9.00751e+08
4.78455e+08
9.66523e+08
5.3083e+08
9.60559e+08
4.03377e+08
9.22225e+08
2.16583e+08
9.0565e+08
0
1.07455e+09
2.00576e+09
1.36284e+09
2.11146e+09
1.40905e+09
2.12008e+09
1.33089e+09
2.10347e+09
0
0
0
0
0
0
0
0
0
0
0
0
0
0
0
0
0
0
0
0
0
0
8.77332e+08
4.39464e+08
9.11249e+08
5.30814e+08
9.57262e+08
6.05763e+08
9.95984e+08
6.29652e+08
1.01775e+09
0
0
0
0
0
0
0
0
0
0
0
0
0
0
0
0
0
0
0
0
8.57834e+08
3.95254e+08
8.68306e+08
4.66291e+08
9.09054e+08
5.64487e+08
9.55886e+08
6.22011e+08
1.00707e+09
0
0
0
0
0
0
0
0
0
0
0
0
0
0
0
8.534e+08
4.05988e+08
8.68824e+08
4.80274e+08
9.03659e+08
5.7097e+08
)
;

boundaryField
{
    inlet
    {
        type            calculated;
        value           uniform 0;
    }
    outlet
    {
        type            calculated;
        value           nonuniform 0();
    }
    wall
    {
        type            calculated;
        value           uniform 0;
    }
    procBoundary2to0
    {
        type            processor;
        value           nonuniform List<scalar> 
44
(
4.39269e+08
9.20268e+08
2.56304e+08
8.85751e+08
1.12794e+08
8.7828e+08
0
4.19759e+08
9.2062e+08
9.2062e+08
0
0
0
0
0
0
0
0
0
0
0
0
0
0
0
0
0
0
0
0
0
0
0
0
0
0
0
0
0
0
0
0
0
0
)
;
    }
    procBoundary2to3
    {
        type            processor;
        value           nonuniform List<scalar> 
12
(
2.90518e+07
1.90504e+08
9.44925e+07
1.21489e+09
0
0
0
6.05108e+08
0
0
0
6.43819e+08
)
;
    }
    procBoundary2to6
    {
        type            processor;
        value           nonuniform List<scalar> 
32
(
0
0
0
9.60557e+08
6.48903e+08
1.01843e+09
0
0
0
0
0
0
0
0
0
0
0
0
0
0
0
0
0
9.60557e+08
0
8.46843e+08
4.12414e+08
8.59326e+08
4.75815e+08
8.76599e+08
9.60557e+08
5.27675e+08
)
;
    }
}


// ************************************************************************* //
