/*--------------------------------*- C++ -*----------------------------------*\
| =========                 |                                                 |
| \\      /  F ield         | OpenFOAM: The Open Source CFD Toolbox           |
|  \\    /   O peration     | Version:  4.x                                   |
|   \\  /    A nd           | Web:      www.OpenFOAM.org                      |
|    \\/     M anipulation  |                                                 |
\*---------------------------------------------------------------------------*/
FoamFile
{
    version     2.0;
    format      ascii;
    class       volScalarField;
    location    "4.5";
    object      rho;
}
// * * * * * * * * * * * * * * * * * * * * * * * * * * * * * * * * * * * * * //

dimensions      [1 -3 0 0 0 0 0];

internalField   nonuniform List<scalar> 
114
(
6690.42
6688.9
6689.75
6692
6694.87
6697.93
6699.35
6697.32
6693.9
6690.18
6688.05
6688.55
6691.06
6694.18
6697.13
6699.24
6697.1
6693.75
6690.26
6688
6687.84
6689.64
6692.6
6695.54
6699.23
6697.36
6694.51
6691.55
6689.18
6687.98
6688.07
6689.06
6690.73
6694.18
6695.82
6697.76
6700.01
6699.67
6698.32
6696.03
6693.99
6693.11
6694.06
6695.71
6697.61
6699.45
6699.62
6698.33
6696.22
6694.13
6692.91
6693.37
6694.58
6696.54
6698.56
6699.61
6698.48
6696.65
6694.67
6692.97
6692.13
6691.97
6692.54
6693.45
6698.55
6699.82
6699.81
6699.03
6697.67
6696.46
6695.98
6696.6
6697.65
6698.97
6700.26
6699.79
6699.06
6697.83
6696.6
6695.81
6696.06
6696.84
6698.16
6699.66
6699.78
6699.12
6697.99
6696.75
6695.58
6694.95
6694.68
6694.94
6695.3
6699.88
6699.45
6698.72
6698.06
6697.76
6697.98
6698.62
6699.64
6699.88
6699.47
6698.71
6697.97
6697.5
6697.63
6698.14
6699.88
6699.51
6698.88
6698.18
6697.47
6696.98
)
;

boundaryField
{
    inlet
    {
        type            calculated;
        value           uniform 6700;
    }
    outlet
    {
        type            calculated;
        value           nonuniform 0();
    }
    wall
    {
        type            calculated;
        value           nonuniform List<scalar> 
66
(
6699.35
6699.24
6699.23
6697.32
6697.1
6697.36
6693.9
6693.75
6694.51
6690.42
6690.18
6690.26
6691.55
6688.9
6688.05
6688
6689.18
6689.75
6688.55
6687.84
6687.98
6692
6691.06
6689.64
6688.07
6694.87
6694.18
6692.6
6689.06
6697.93
6697.13
6695.54
6690.73
6699.23
6699.61
6699.78
6699.88
6697.36
6698.48
6699.12
6699.51
6694.51
6696.65
6697.99
6698.88
6691.55
6694.67
6696.75
6698.18
6689.18
6692.97
6695.58
6697.47
6687.98
6692.13
6694.95
6696.98
6688.07
6691.97
6694.68
6689.06
6692.54
6694.94
6690.73
6693.45
6695.3
)
;
    }
    procBoundary2to0
    {
        type            processor;
        value           nonuniform List<scalar> 
44
(
6690.39
6688.69
6689.25
6691.22
6694
6697.35
6699.38
6697.26
6693.8
6693.8
6693.85
6693.18
6694.6
6696.37
6698.45
6700.49
6699.66
6698.14
6695.7
6693.85
6693.18
6693.18
6696.44
6697.4
6699.44
6700.94
6699.8
6698.9
6697.42
6696.24
6695.85
6696.44
6697.4
6697.4
6699.01
6700.09
6699.86
6699.26
6698.28
6697.47
6697.22
6697.51
6698.11
6699.01
)
;
    }
    procBoundary2to3
    {
        type            processor;
        value           nonuniform List<scalar> 
12
(
6700.56
6699.55
6698.23
6692.55
6701.91
6701.14
6700.33
6694.8
6700.7
6701.34
6701.02
6696.32
)
;
    }
    procBoundary2to6
    {
        type            processor;
        value           nonuniform List<scalar> 
32
(
6700.69
6699.13
6700.34
6696.7
6696.71
6696.89
6699.9
6699.5
6698.86
6698.3
6698.13
6698.56
6699.37
6700.69
6699.13
6700.36
6699.91
6699.58
6699.03
6698.52
6698.24
6698.42
6699.13
6696.7
6698.96
6699.91
6699.64
6699.18
6698.65
6698.15
6696.7
6697.8
)
;
    }
}


// ************************************************************************* //
