/*--------------------------------*- C++ -*----------------------------------*\
| =========                 |                                                 |
| \\      /  F ield         | OpenFOAM: The Open Source CFD Toolbox           |
|  \\    /   O peration     | Version:  4.x                                   |
|   \\  /    A nd           | Web:      www.OpenFOAM.org                      |
|    \\/     M anipulation  |                                                 |
\*---------------------------------------------------------------------------*/
FoamFile
{
    version     2.0;
    format      ascii;
    class       volScalarField;
    location    "4.5";
    object      Sm;
}
// * * * * * * * * * * * * * * * * * * * * * * * * * * * * * * * * * * * * * //

dimensions      [1 -3 -1 0 0 0 0];

internalField   nonuniform List<scalar> 
114
(
6.50465e-65
4.87833e-65
2.55485e-65
4.87852e-65
2.24596e-65
2.63382e-65
5.73414e-65
6.50765e-65
5.11232e-65
3.79457e-65
6.19484e-65
4.41328e-65
6.19509e-65
6.1182e-65
3.95083e-65
4.02972e-65
5.656e-65
2.78868e-65
5.26657e-65
3.87229e-65
5.18846e-65
2.78819e-65
4.64726e-65
3.09864e-65
4.41707e-65
4.26177e-65
3.87407e-65
4.57067e-65
3.3311e-65
3.79577e-65
2.71132e-65
4.49319e-65
3.09911e-65
8.4382e-65
9.75529e-65
5.73111e-65
9.37237e-65
5.42399e-65
6.81725e-65
7.6671e-65
7.74299e-65
6.73553e-65
6.58056e-65
8.98158e-65
7.58914e-65
5.1897e-65
6.0443e-65
8.59958e-65
8.28806e-65
7.58921e-65
7.35616e-65
7.35633e-65
7.0469e-65
7.12523e-65
6.27427e-65
5.88941e-65
5.19116e-65
6.97211e-65
5.80911e-65
6.89307e-65
5.88604e-65
5.88636e-65
6.50646e-65
4.26084e-65
7.58863e-65
7.97742e-65
7.28352e-65
4.95777e-65
5.49802e-65
5.72917e-65
5.8832e-65
7.12161e-65
8.36107e-65
6.58188e-65
4.87944e-65
5.34664e-65
6.04267e-65
7.12504e-65
9.05962e-65
7.27752e-65
6.42594e-65
7.51041e-65
7.43445e-65
8.3657e-65
5.34677e-65
7.51507e-65
6.04216e-65
6.96996e-65
4.64656e-65
6.50487e-65
8.28666e-65
4.95689e-65
8.90871e-65
4.8038e-65
8.13307e-65
8.36307e-65
6.58059e-65
6.42461e-65
6.26961e-65
6.27034e-65
7.74312e-65
6.89644e-65
6.89449e-65
8.3645e-65
5.80726e-65
7.19979e-65
6.89e-65
8.36192e-65
5.26933e-65
6.50779e-65
6.27403e-65
7.12477e-65
5.4979e-65
6.3495e-65
)
;

boundaryField
{
    inlet
    {
        type            calculated;
        value           uniform 0;
    }
    outlet
    {
        type            calculated;
        value           nonuniform 0();
    }
    wall
    {
        type            calculated;
        value           uniform 0;
    }
    procBoundary2to0
    {
        type            processor;
        value           nonuniform List<scalar> 
44
(
4.72327e-65
4.25854e-65
4.3358e-65
3.25244e-65
4.18253e-65
7.205e-65
2.86714e-65
4.41567e-65
3.25339e-65
3.25339e-65
4.56744e-65
9.13464e-65
6.58034e-65
8.28495e-65
6.04064e-65
4.95804e-65
8.05832e-65
6.11972e-65
6.11752e-65
4.56744e-65
9.13464e-65
9.13464e-65
7.12094e-65
7.1219e-65
6.19523e-65
4.56987e-65
7.28339e-65
7.59067e-65
7.66559e-65
7.97361e-65
8.35963e-65
7.12094e-65
7.1219e-65
7.1219e-65
5.41928e-65
2.32332e-65
5.26886e-65
5.88684e-65
7.82074e-65
9.21207e-65
4.41178e-65
9.21042e-65
7.12148e-65
5.41928e-65
)
;
    }
    procBoundary2to3
    {
        type            processor;
        value           nonuniform List<scalar> 
12
(
6.97344e-65
5.03628e-65
5.50146e-65
4.64929e-65
7.51573e-65
6.50818e-65
1.03822e-64
7.7483e-65
7.66994e-65
8.9866e-65
5.6561e-65
5.73381e-65
)
;
    }
    procBoundary2to6
    {
        type            processor;
        value           nonuniform List<scalar> 
32
(
6.73775e-65
6.04034e-65
7.12597e-65
5.11128e-65
5.8089e-65
4.95786e-65
1.03826e-64
7.59139e-65
4.95613e-65
7.43202e-65
9.36611e-65
6.11506e-65
7.35399e-65
6.73775e-65
6.04034e-65
6.50413e-65
5.81122e-65
7.90188e-65
6.42802e-65
8.51715e-65
7.35499e-65
7.81935e-65
6.04034e-65
5.11128e-65
7.0458e-65
4.95943e-65
7.20501e-65
5.42241e-65
6.11799e-65
7.58903e-65
5.11128e-65
8.74989e-65
)
;
    }
}


// ************************************************************************* //
