/*--------------------------------*- C++ -*----------------------------------*\
| =========                 |                                                 |
| \\      /  F ield         | OpenFOAM: The Open Source CFD Toolbox           |
|  \\    /   O peration     | Version:  4.x                                   |
|   \\  /    A nd           | Web:      www.OpenFOAM.org                      |
|    \\/     M anipulation  |                                                 |
\*---------------------------------------------------------------------------*/
FoamFile
{
    version     2.0;
    format      ascii;
    class       volScalarField;
    location    "4.5";
    object      thCond;
}
// * * * * * * * * * * * * * * * * * * * * * * * * * * * * * * * * * * * * * //

dimensions      [1 1 -3 -1 0 0 0];

internalField   nonuniform List<scalar> 
114
(
192.591
192.544
192.715
192.49
192.74
192.539
192.992
192.752
192.8
192.724
192.455
192.528
192.296
192.327
192.463
193.194
192.909
193.053
192.77
192.797
192.695
192.838
192.632
192.665
193.31
193.208
193.155
193
193.098
193.063
193.147
192.875
192.889
191.407
191.235
191.613
191.325
192.417
192.142
191.913
191.768
191.663
191.565
191.274
191.454
191.611
192.482
192.069
191.892
191.794
191.776
191.726
191.674
191.645
191.632
192.645
192.476
192.181
192.136
192.064
192.078
192.027
191.947
191.991
190.889
190.815
191.791
191.754
191.49
191.286
191.155
190.945
190.735
190.902
190.983
192.032
191.73
191.392
191.102
191.166
191.12
190.926
190.952
190.825
192.178
191.764
191.626
191.425
191.57
191.332
191.113
191.318
190.98
191.529
191.106
190.837
190.789
190.712
190.604
190.508
190.468
191.522
191.228
190.907
190.885
190.735
190.645
190.493
191.824
191.43
191.223
190.993
191.015
190.849
)
;

boundaryField
{
    inlet
    {
        type            zeroGradient;
    }
    outlet
    {
        type            zeroGradient;
    }
    wall
    {
        type            zeroGradient;
    }
    procBoundary2to0
    {
        type            processor;
        value           nonuniform List<scalar> 
44
(
192.837
192.793
192.732
192.759
192.691
192.347
193.415
193.096
193.022
193.022
191.982
191.478
191.7
191.544
191.769
191.756
192.284
192.245
192.113
191.982
191.478
191.478
190.847
190.795
191.117
191.184
191.737
191.583
191.328
191.085
190.902
190.847
190.795
190.795
190.692
190.806
191.674
191.343
190.867
190.61
190.778
190.373
190.443
190.692
)
;
    }
    procBoundary2to3
    {
        type            processor;
        value           nonuniform List<scalar> 
12
(
191.978
192.028
192.123
192.439
191.169
191.249
191.082
191.505
190.492
190.513
190.839
191.124
)
;
    }
    procBoundary2to6
    {
        type            processor;
        value           nonuniform List<scalar> 
32
(
190.483
190.623
190.534
190.903
190.9
190.872
190.791
190.819
190.827
190.457
190.193
190.327
190.18
190.483
190.623
190.228
191.298
190.932
190.83
190.462
190.359
190.276
190.623
190.903
190.264
191.653
191.184
191.099
190.754
190.462
190.903
190.285
)
;
    }
}


// ************************************************************************* //
