/*--------------------------------*- C++ -*----------------------------------*\
| =========                 |                                                 |
| \\      /  F ield         | OpenFOAM: The Open Source CFD Toolbox           |
|  \\    /   O peration     | Version:  4.x                                   |
|   \\  /    A nd           | Web:      www.OpenFOAM.org                      |
|    \\/     M anipulation  |                                                 |
\*---------------------------------------------------------------------------*/
FoamFile
{
    version     2.0;
    format      ascii;
    class       volScalarField;
    location    "43";
    object      pSmooth;
}
// * * * * * * * * * * * * * * * * * * * * * * * * * * * * * * * * * * * * * //

dimensions      [1 -1 -2 0 0 0 0];

internalField   nonuniform List<scalar> 
108
(
110.237
92.8711
103.16
75.0751
95.8266
56.9097
88.5348
38.3856
81.4337
110.853
93.1423
103.736
75.2741
96.2445
56.964
88.852
38.5079
81.7413
111.419
93.5538
104.191
75.6898
96.5826
57.491
89.0963
39.2247
81.7242
111.536
93.7498
104.389
75.9035
96.8332
57.7721
89.1723
39.5024
81.6202
110.429
93.109
103.448
75.4109
96.1303
57.22
88.9393
38.9759
81.8138
110.907
93.2839
103.794
75.5131
96.4196
57.3124
89.1368
38.9107
81.9128
111.455
93.7533
104.347
75.7987
96.8561
57.4985
89.3702
39.1589
82.083
111.609
93.6672
104.357
75.8683
96.7417
57.5165
89.1793
38.9939
81.8719
110.122
92.8544
103.05
75.3693
95.808
57.2308
88.4545
38.7297
81.2536
110.58
93.0626
103.354
75.394
96.0033
57.2057
88.6007
38.7655
81.4489
111.056
93.3953
103.774
75.5753
96.2758
57.3959
88.7974
39.003
81.5661
111.253
93.3514
103.906
75.6426
96.2912
57.2738
88.6978
38.976
81.5631
)
;

boundaryField
{
    inlet
    {
        type            zeroGradient;
    }
    outlet
    {
        type            fixedValue;
        value           nonuniform 0();
    }
    wall
    {
        type            zeroGradient;
    }
    procBoundary4to0
    {
        type            processor;
        value           nonuniform List<scalar> 
36
(
110.034
92.8136
103.161
75.0603
96.061
56.931
88.8703
38.6706
82.0492
110.578
93.0499
103.615
75.1469
96.4022
57.0081
89.1972
38.5308
82.164
111.154
93.5486
104.266
75.7102
96.929
57.6809
89.2731
39.7819
81.9492
111.166
93.4622
104.156
75.4138
96.6399
57.2331
89.0806
38.7985
81.914
)
;
    }
    procBoundary4to5
    {
        type            processor;
        value           nonuniform List<scalar> 
12
(
19.3981
19.6289
20.9637
21.7295
20.191
20.0405
20.6931
20.7034
19.864
19.9109
20.4602
20.5283
)
;
    }
    procBoundary4to6
    {
        type            processor;
        value           nonuniform List<scalar> 
27
(
111.828
93.6255
104.531
76.0934
96.8584
58.0681
89.0478
40.2337
81.7102
111.68
93.6307
104.395
75.7988
96.8888
57.721
89.403
39.4385
82.1116
111.167
93.4377
103.936
75.7357
96.4297
57.6568
88.9648
39.2432
81.7571
)
;
    }
}


// ************************************************************************* //
