/*--------------------------------*- C++ -*----------------------------------*\
| =========                 |                                                 |
| \\      /  F ield         | OpenFOAM: The Open Source CFD Toolbox           |
|  \\    /   O peration     | Version:  4.x                                   |
|   \\  /    A nd           | Web:      www.OpenFOAM.org                      |
|    \\/     M anipulation  |                                                 |
\*---------------------------------------------------------------------------*/
FoamFile
{
    version     2.0;
    format      ascii;
    class       volScalarField;
    location    "43";
    object      QPartFluid;
}
// * * * * * * * * * * * * * * * * * * * * * * * * * * * * * * * * * * * * * //

dimensions      [1 -1 -3 0 0 0 0];

internalField   nonuniform List<scalar> 
108
(
4.92457e+09
7.10837e+09
8.42686e+09
5.97995e+09
7.15802e+09
5.99283e+09
8.94422e+09
6.87356e+09
9.64998e+09
7.01833e+09
7.29737e+09
9.38976e+09
1.00429e+10
1.01185e+10
8.59472e+09
8.1443e+09
5.77756e+09
1.11104e+10
6.68838e+09
1.02783e+10
8.31718e+09
9.36974e+09
8.12478e+09
6.3095e+09
7.30856e+09
1.03003e+10
6.74065e+09
3.45733e+09
6.72971e+09
9.3945e+09
5.69892e+09
8.79249e+09
6.65248e+09
1.10154e+10
5.97644e+09
7.0493e+09
5.06392e+09
5.48857e+09
8.05454e+09
8.33281e+09
8.52633e+09
5.45948e+09
5.57655e+09
7.52867e+09
9.57798e+09
6.24731e+09
7.60038e+09
7.55641e+09
7.59402e+09
7.74235e+09
6.81275e+09
8.50727e+09
9.26918e+09
1.05025e+10
4.196e+09
7.3235e+09
1.00304e+10
8.28776e+09
9.68014e+09
8.25232e+09
8.18607e+09
7.15332e+09
8.63751e+09
6.20477e+09
8.58336e+09
7.54298e+09
9.64938e+09
1.05214e+10
7.61053e+09
1.1835e+10
8.47901e+09
8.13703e+09
4.55291e+09
6.29942e+09
4.44491e+09
6.05321e+09
6.35055e+09
8.01205e+09
8.02072e+09
6.51529e+09
8.20746e+09
4.87562e+09
9.00901e+09
7.12754e+09
5.84652e+09
7.47113e+09
7.71111e+09
7.38425e+09
6.22511e+09
8.58193e+09
5.2339e+09
7.46106e+09
8.46361e+09
7.17019e+09
6.71407e+09
6.92914e+09
7.37315e+09
7.93733e+09
7.05425e+09
7.25333e+09
7.01105e+09
6.70039e+09
7.97508e+09
8.44029e+09
9.5349e+09
4.97074e+09
5.17659e+09
7.08968e+09
)
;

boundaryField
{
    inlet
    {
        type            calculated;
        value           uniform 0;
    }
    outlet
    {
        type            calculated;
        value           nonuniform 0();
    }
    wall
    {
        type            calculated;
        value           uniform 0;
    }
    procBoundary4to0
    {
        type            processor;
        value           nonuniform List<scalar> 
36
(
4.35489e+09
4.98748e+09
6.76991e+09
5.18522e+09
7.08587e+09
7.77252e+09
5.90372e+09
4.3308e+09
6.04057e+09
5.13746e+09
9.59579e+09
9.09469e+09
8.08882e+09
7.2026e+09
6.63195e+09
1.04355e+10
7.18822e+09
6.93288e+09
5.18862e+09
5.58425e+09
9.05055e+09
6.10505e+09
8.69396e+09
8.40153e+09
8.23799e+09
4.94058e+09
9.33248e+09
4.82764e+09
6.72527e+09
9.82477e+09
1.02051e+10
5.50131e+09
9.76584e+09
8.54306e+09
5.50025e+09
2.61219e+09
)
;
    }
    procBoundary4to5
    {
        type            processor;
        value           nonuniform List<scalar> 
12
(
6.6466e+09
8.10983e+09
8.51465e+09
1.02662e+10
7.25128e+09
6.19663e+09
7.41662e+09
5.30453e+09
2.48894e+09
6.96635e+09
6.0868e+09
7.19517e+09
)
;
    }
    procBoundary4to6
    {
        type            processor;
        value           nonuniform List<scalar> 
27
(
9.95324e+09
8.9545e+09
6.08555e+09
7.99929e+09
1.10675e+10
6.09609e+09
8.70176e+09
6.66158e+09
9.95893e+09
7.35034e+09
9.0016e+09
9.66033e+09
8.63547e+09
6.67197e+09
7.89058e+09
7.93538e+09
6.10906e+09
9.57077e+09
4.91315e+09
5.41002e+09
7.43633e+09
7.03367e+09
7.17592e+09
6.52113e+09
1.03132e+10
8.72952e+09
4.54668e+09
)
;
    }
}


// ************************************************************************* //
