/*--------------------------------*- C++ -*----------------------------------*\
| =========                 |                                                 |
| \\      /  F ield         | OpenFOAM: The Open Source CFD Toolbox           |
|  \\    /   O peration     | Version:  4.x                                   |
|   \\  /    A nd           | Web:      www.OpenFOAM.org                      |
|    \\/     M anipulation  |                                                 |
\*---------------------------------------------------------------------------*/
FoamFile
{
    version     2.0;
    format      ascii;
    class       volScalarField;
    location    "43";
    object      QWallFluid;
}
// * * * * * * * * * * * * * * * * * * * * * * * * * * * * * * * * * * * * * //

dimensions      [1 -1 -3 0 0 0 0];

internalField   nonuniform List<scalar> 
108
(
8.26883e+08
4.17775e+08
8.36267e+08
4.39846e+08
8.48686e+08
4.54629e+08
8.59636e+08
4.58258e+08
8.72067e+08
0
0
0
0
0
0
0
0
0
0
0
0
0
0
0
0
0
0
0
0
0
0
0
0
0
0
0
8.26143e+08
4.20012e+08
8.37106e+08
4.37233e+08
8.44696e+08
4.50526e+08
8.54511e+08
4.42985e+08
8.53065e+08
0
0
0
0
0
0
0
0
0
0
0
0
0
0
0
0
0
0
0
0
0
0
0
0
0
0
0
1.65751e+09
9.12132e+08
1.72835e+09
1.03903e+09
1.77333e+09
1.10604e+09
1.80559e+09
1.15999e+09
1.85838e+09
8.23657e+08
4.23473e+08
8.37316e+08
4.58148e+08
8.53113e+08
4.7967e+08
8.66835e+08
4.96004e+08
8.85106e+08
8.15885e+08
4.01814e+08
8.17508e+08
4.09138e+08
8.26366e+08
4.2119e+08
8.39288e+08
4.36147e+08
8.55245e+08
8.07622e+08
3.94224e+08
8.10979e+08
3.90418e+08
8.16303e+08
4.0146e+08
8.33415e+08
4.26979e+08
8.51204e+08
)
;

boundaryField
{
    inlet
    {
        type            calculated;
        value           uniform 0;
    }
    outlet
    {
        type            calculated;
        value           nonuniform 0();
    }
    wall
    {
        type            calculated;
        value           uniform 0;
    }
    procBoundary4to0
    {
        type            processor;
        value           nonuniform List<scalar> 
36
(
8.34117e+08
4.12785e+08
8.4597e+08
4.3817e+08
8.55494e+08
4.46722e+08
8.62047e+08
4.39749e+08
8.61777e+08
0
0
0
0
0
0
0
0
0
0
0
0
0
0
0
0
0
0
0
0
0
0
0
0
0
0
0
)
;
    }
    procBoundary4to5
    {
        type            processor;
        value           nonuniform List<scalar> 
12
(
4.52543e+08
0
0
0
4.23968e+08
0
0
0
1.22733e+09
5.08709e+08
4.44089e+08
4.28866e+08
)
;
    }
    procBoundary4to6
    {
        type            processor;
        value           nonuniform List<scalar> 
27
(
0
0
0
0
0
0
0
0
0
0
0
0
0
0
0
0
0
0
8.16307e+08
4.10603e+08
8.18605e+08
4.11201e+08
8.20034e+08
4.09741e+08
8.21899e+08
3.95481e+08
8.33805e+08
)
;
    }
}


// ************************************************************************* //
