/*--------------------------------*- C++ -*----------------------------------*\
| =========                 |                                                 |
| \\      /  F ield         | OpenFOAM: The Open Source CFD Toolbox           |
|  \\    /   O peration     | Version:  4.x                                   |
|   \\  /    A nd           | Web:      www.OpenFOAM.org                      |
|    \\/     M anipulation  |                                                 |
\*---------------------------------------------------------------------------*/
FoamFile
{
    version     2.0;
    format      ascii;
    class       volVectorField;
    location    "43";
    object      UsPrev;
}
// * * * * * * * * * * * * * * * * * * * * * * * * * * * * * * * * * * * * * //

dimensions      [0 1 -1 0 0 0 0];

internalField   nonuniform List<vector> 
108
(
(-4.96649e-11 2.04171e-11 -7.60422e-11)
(-2.05042e-11 4.60536e-11 -4.22109e-11)
(-1.7019e-10 6.03879e-11 6.78502e-11)
(-2.12666e-10 9.80156e-11 1.87333e-10)
(-3.10423e-10 2.51209e-10 3.14698e-10)
(-2.68218e-10 1.74479e-10 4.33718e-10)
(-2.41082e-10 1.37145e-10 6.59162e-10)
(-1.37426e-10 1.76989e-10 8.43188e-10)
(-3.73964e-10 1.15664e-10 1.08944e-09)
(-3.96879e-11 -2.78166e-11 -5.01724e-11)
(-8.61963e-12 -1.1814e-11 -4.29333e-11)
(-1.78385e-10 1.13377e-10 1.47998e-10)
(-9.28047e-11 1.59003e-10 3.2209e-10)
(-5.36103e-11 2.67601e-10 4.92782e-10)
(1.71881e-10 2.58934e-10 6.1511e-10)
(-4.97221e-11 2.87046e-10 8.59941e-10)
(-1.11079e-10 4.48196e-10 1.08064e-09)
(-2.21621e-10 5.19242e-10 1.59757e-09)
(1.54216e-11 7.77064e-12 1.41784e-11)
(1.19499e-10 9.53294e-11 1.28702e-10)
(1.22552e-10 1.75292e-10 3.1786e-10)
(4.62573e-10 2.36141e-10 3.49806e-10)
(5.45061e-10 3.26474e-10 6.20603e-10)
(1.04056e-09 4.70986e-10 6.88283e-10)
(9.20122e-10 4.87215e-10 8.29872e-10)
(8.62608e-10 6.49616e-10 1.01134e-09)
(1.92233e-09 2.16247e-10 9.6913e-10)
(5.29338e-11 -5.57277e-12 6.95831e-11)
(2.31027e-10 -7.93406e-11 6.78132e-11)
(4.46517e-10 -5.83229e-11 4.47225e-11)
(7.25977e-10 1.19935e-10 6.19254e-11)
(1.31984e-09 3.0921e-10 5.55292e-10)
(1.95041e-09 4.55393e-10 7.15872e-10)
(2.21193e-09 4.49804e-10 7.12712e-10)
(2.70274e-09 2.87707e-10 1.98606e-10)
(3.12298e-09 2.22199e-10 5.23735e-10)
(-1.73637e-11 1.71149e-11 -2.52148e-11)
(-1.61512e-11 1.65756e-11 -4.02204e-12)
(-1.18543e-10 3.46621e-11 6.33808e-11)
(-6.29217e-11 3.51342e-11 1.01617e-10)
(-9.99818e-11 8.56474e-11 1.81499e-10)
(-4.03904e-12 7.16345e-11 2.03394e-10)
(-5.81897e-11 2.98696e-11 3.07969e-10)
(3.28482e-11 1.43191e-10 5.02384e-10)
(2.42582e-10 9.07377e-12 4.07266e-10)
(-3.47314e-11 1.67009e-11 -2.64811e-11)
(-1.98913e-11 3.50824e-11 2.53899e-11)
(-1.15908e-10 3.16507e-11 8.31956e-11)
(-1.97448e-11 6.99725e-11 2.00021e-10)
(3.67985e-11 1.20171e-10 3.06908e-10)
(1.14914e-10 1.95348e-10 4.23118e-10)
(1.73837e-10 3.16021e-10 5.8068e-10)
(3.30968e-10 3.32575e-10 6.66872e-10)
(5.28193e-10 4.43206e-11 7.24222e-10)
(-7.40157e-12 2.94721e-11 2.01581e-11)
(7.07585e-11 5.81254e-11 9.61992e-11)
(3.46084e-11 1.11221e-10 1.77731e-10)
(1.67401e-10 1.2227e-10 2.69141e-10)
(2.31132e-10 1.50468e-10 3.19091e-10)
(4.9611e-10 3.11457e-10 5.20738e-10)
(5.53769e-10 3.91363e-10 6.31633e-10)
(1.10712e-09 5.92652e-10 4.64547e-10)
(9.97675e-10 5.82785e-10 8.00497e-10)
(1.38334e-11 -1.2292e-11 -4.16285e-12)
(1.1346e-10 -4.12464e-11 6.71707e-12)
(2.23405e-10 -2.07315e-11 4.33998e-11)
(3.33193e-10 -8.15319e-13 1.42071e-10)
(4.79299e-10 4.62349e-11 2.56361e-10)
(1.13267e-09 2.94117e-10 3.25129e-10)
(1.43473e-09 5.56865e-10 4.44644e-10)
(1.73298e-09 3.08112e-10 4.15097e-10)
(1.91803e-09 1.97388e-10 5.87884e-10)
(-1.12429e-11 1.39392e-11 -3.46882e-11)
(-9.42929e-12 1.51984e-11 3.89028e-12)
(-4.73435e-11 2.90938e-11 4.88023e-12)
(5.23002e-11 5.8149e-12 2.77297e-11)
(-6.29349e-11 1.32391e-11 4.94672e-11)
(-1.08897e-11 8.23382e-12 5.85215e-11)
(-9.74835e-11 -3.77224e-11 1.7818e-10)
(1.84417e-11 2.95804e-11 2.16337e-10)
(1.04227e-10 3.72545e-12 1.08968e-10)
(-1.27981e-11 -3.96987e-12 -5.95852e-11)
(-4.01075e-12 1.429e-11 7.80136e-12)
(-7.32271e-11 3.34319e-11 3.1203e-11)
(4.89143e-11 5.90747e-11 4.08473e-11)
(2.35618e-11 5.624e-11 1.11435e-10)
(9.64769e-11 8.10355e-11 1.40656e-10)
(1.15437e-10 1.22335e-10 1.29831e-10)
(2.12038e-10 1.95238e-11 2.62594e-10)
(2.47157e-10 -1.31055e-11 2.48071e-10)
(-1.06211e-11 6.09766e-12 -9.57858e-12)
(5.9577e-11 5.50117e-11 1.35855e-11)
(1.90776e-12 5.79191e-11 6.2411e-11)
(9.34564e-11 7.28315e-11 7.13111e-11)
(1.15943e-10 7.45685e-11 1.44259e-10)
(3.46328e-10 1.67559e-10 2.14182e-10)
(5.15183e-10 3.10417e-10 1.9145e-10)
(6.43075e-10 3.34622e-10 2.58592e-10)
(5.21596e-10 1.94477e-10 2.86923e-10)
(5.01025e-12 -4.76874e-11 -2.97762e-11)
(5.55254e-11 -7.15112e-12 -3.09688e-11)
(1.2158e-10 7.25317e-11 9.77038e-12)
(1.33073e-10 2.56411e-11 7.12076e-11)
(2.0975e-10 -2.4328e-11 4.95618e-11)
(4.42316e-10 5.14756e-11 2.5381e-11)
(6.19756e-10 3.16974e-10 1.72446e-10)
(3.86314e-09 -1.29433e-09 1.65714e-10)
(1.50434e-09 2.00808e-10 2.20881e-10)
)
;

boundaryField
{
    inlet
    {
        type            calculated;
        value           uniform (0 0 0);
    }
    outlet
    {
        type            calculated;
        value           nonuniform 0();
    }
    wall
    {
        type            calculated;
        value           uniform (0 0 0);
    }
    procBoundary4to0
    {
        type            processor;
        value           uniform (0 0 0);
    }
    procBoundary4to5
    {
        type            processor;
        value           uniform (0 0 0);
    }
    procBoundary4to6
    {
        type            processor;
        value           uniform (0 0 0);
    }
}


// ************************************************************************* //
