/*--------------------------------*- C++ -*----------------------------------*\
| =========                 |                                                 |
| \\      /  F ield         | OpenFOAM: The Open Source CFD Toolbox           |
|  \\    /   O peration     | Version:  4.x                                   |
|   \\  /    A nd           | Web:      www.OpenFOAM.org                      |
|    \\/     M anipulation  |                                                 |
\*---------------------------------------------------------------------------*/
FoamFile
{
    version     2.0;
    format      ascii;
    class       volScalarField;
    location    "35";
    object      QWallFluid;
}
// * * * * * * * * * * * * * * * * * * * * * * * * * * * * * * * * * * * * * //

dimensions      [1 -1 -3 0 0 0 0];

internalField   nonuniform List<scalar> 
108
(
8.27563e+08
4.1701e+08
8.3677e+08
4.38881e+08
8.49014e+08
4.53618e+08
8.5992e+08
4.57256e+08
8.72256e+08
0
0
0
0
0
0
0
0
0
0
0
0
0
0
0
0
0
0
0
0
0
0
0
0
0
0
0
8.2573e+08
4.20874e+08
8.37001e+08
4.38882e+08
8.45035e+08
4.53609e+08
8.55491e+08
4.48114e+08
8.54638e+08
0
0
0
0
0
0
0
0
0
0
0
0
0
0
0
0
0
0
0
0
0
0
0
0
0
0
0
1.65781e+09
9.11174e+08
1.72819e+09
1.03723e+09
1.77259e+09
1.10311e+09
1.80402e+09
1.15571e+09
1.85575e+09
8.23856e+08
4.23415e+08
8.37568e+08
4.58368e+08
8.53383e+08
4.80003e+08
8.67038e+08
4.96149e+08
8.85137e+08
8.16069e+08
4.00132e+08
8.16818e+08
4.04784e+08
8.24498e+08
4.13301e+08
8.35842e+08
4.23746e+08
8.49741e+08
8.07734e+08
3.9427e+08
8.11175e+08
3.90567e+08
8.16599e+08
4.01173e+08
8.33708e+08
4.25302e+08
8.51237e+08
)
;

boundaryField
{
    inlet
    {
        type            calculated;
        value           uniform 0;
    }
    outlet
    {
        type            calculated;
        value           nonuniform 0();
    }
    wall
    {
        type            calculated;
        value           uniform 0;
    }
    procBoundary4to0
    {
        type            processor;
        value           nonuniform List<scalar> 
36
(
8.33286e+08
4.14243e+08
8.45641e+08
4.40339e+08
8.55833e+08
4.50726e+08
8.6362e+08
4.4987e+08
8.66221e+08
0
0
0
0
0
0
0
0
0
0
0
0
0
0
0
0
0
0
0
0
0
0
0
0
0
0
0
)
;
    }
    procBoundary4to5
    {
        type            processor;
        value           nonuniform List<scalar> 
12
(
4.51314e+08
0
0
0
4.30892e+08
0
0
0
1.22107e+09
5.08341e+08
4.25426e+08
4.25738e+08
)
;
    }
    procBoundary4to6
    {
        type            processor;
        value           nonuniform List<scalar> 
27
(
0
0
0
0
0
0
0
0
0
0
0
0
0
0
0
0
0
0
8.16519e+08
4.0852e+08
8.17858e+08
4.04813e+08
8.17772e+08
3.96908e+08
8.17364e+08
3.7464e+08
8.25972e+08
)
;
    }
}


// ************************************************************************* //
