/*--------------------------------*- C++ -*----------------------------------*\
| =========                 |                                                 |
| \\      /  F ield         | OpenFOAM: The Open Source CFD Toolbox           |
|  \\    /   O peration     | Version:  4.x                                   |
|   \\  /    A nd           | Web:      www.OpenFOAM.org                      |
|    \\/     M anipulation  |                                                 |
\*---------------------------------------------------------------------------*/
FoamFile
{
    version     2.0;
    format      ascii;
    class       volVectorField;
    location    "46.5";
    object      GField;
}
// * * * * * * * * * * * * * * * * * * * * * * * * * * * * * * * * * * * * * //

dimensions      [1 -2 -1 0 0 0 0];

internalField   nonuniform List<vector> 
87
(
(93.1322 2.12173 -2.89633)
(141.52 1.41998 -2.98441)
(95.0039 2.59405 -4.75884)
(150.281 1.8053 -2.46871)
(93.4519 2.98199 -8.53991)
(166.485 2.19688 0.2686)
(82.5862 1.63281 -17.6415)
(205.073 3.83891 9.21481)
(42.8023 -10.3428 -36.2873)
(80.3801 -2.12695 -3.01163)
(134.495 -2.17241 -3.02597)
(81.5763 -3.11361 -4.19478)
(142.315 -1.05762 -1.8843)
(78.5605 -5.57724 -6.6299)
(155.163 1.87345 2.39746)
(66.3916 -11.934 -13.0038)
(180.548 10.7281 11.9182)
(34.4525 -30.7978 -31.5883)
(66.0871 0.594687 -2.36219)
(121.281 0.946128 -2.51715)
(64.4527 1.6208 -3.22005)
(125.191 1.92273 -0.209759)
(60.8215 0.764827 -6.50285)
(134.207 2.16723 3.7574)
(54.5426 -3.14259 -14.3613)
(156.594 3.99955 14.6285)
(33.42 -13.419 -37.1478)
(57.9314 1.28913 -0.571782)
(116.158 0.774695 -0.571853)
(57.4927 2.03558 -1.09568)
(119.203 1.29455 0.405459)
(53.5229 3.0928 -2.29857)
(122.999 2.17219 3.24133)
(42.7232 3.3417 -7.66599)
(127.598 1.72993 12.2108)
(20.1389 1.78793 -19.2013)
(30.811 -0.96387 -0.335304)
(104.873 -1.41536 -0.121099)
(27.267 -1.03416 -0.191559)
(108.801 1.46533 1.94566)
(22.2572 -2.20243 -1.07123)
(114.769 5.80475 6.5352)
(19.507 -5.32024 -4.20461)
(120.38 16.2785 16.0558)
(17.7136 -18.1904 -19.8864)
(7.98436 0.39745 -0.487201)
(94.9805 1.0106 0.705199)
(0.971065 0.0904883 -0.0954734)
(94.592 1.30653 2.3084)
(4.20293e-05 -2.37e-06 -8.00738e-06)
(90.1141 0.482554 5.5478)
(6.10373 0.452215 -2.39483)
(81.1233 -0.687061 13.0919)
(28.6035 0.622283 -33.2777)
(53.2676 1.37092 -4.493)
(113.457 1.08165 -4.22989)
(50.6949 2.24416 -6.38087)
(116.999 2.19717 -3.93034)
(44.9972 1.89563 -10.387)
(122.296 3.32478 0.145674)
(34.9048 0.663093 -16.9975)
(128.387 4.2716 10.653)
(19.8724 -1.53775 -29.5889)
(27.7662 -2.06858 -3.03858)
(102.988 -0.739938 -1.95351)
(27.6899 -3.0911 -3.73254)
(108.045 0.746581 0.455855)
(26.6219 -5.61863 -6.64499)
(113.245 4.08605 3.60247)
(25.2233 -10.8343 -12.2813)
(120.299 12.9006 12.247)
(19.7767 -25.2538 -26.1885)
(7.66748 -0.409859 -1.63645)
(91.5794 -0.0891308 0.435041)
(5.79634 -0.465786 -1.88971)
(92.0675 1.50996 0.225641)
(6.60907 -1.11145 -3.05703)
(91.7813 2.91918 1.99501)
(12.565 -4.82442 -7.4676)
(86.7762 8.90713 7.95059)
(27.5553 -22.2545 -16.5467)
(37.5327 0.336368 -1.39518)
(98.5295 1.63022 -0.537076)
(25.6373 1.24191 -1.35034)
(5.42293 -0.794871 -0.531847)
(89.453 1.85693 -1.15012)
(3.50463e-05 -3.34443e-07 3.78747e-06)
)
;

boundaryField
{
    inlet
    {
        type            calculated;
        value           nonuniform 0();
    }
    outlet
    {
        type            calculated;
        value           nonuniform List<vector> 9((89.0187 -21.5106 -75.4692) (71.3019 -63.7383 -65.3742) (69.4054 -27.868 -77.1472) (42.4928 3.77252 -40.5145) (37.3438 -38.349 -41.9246) (60.5503 1.3173 -70.445) (42.3479 -3.27693 -63.0535) (42.2652 -53.9703 -55.9678) (59.1067 -47.7364 -35.4931));
    }
    wall
    {
        type            calculated;
        value           uniform (0 0 0);
    }
    procBoundary1to0
    {
        type            processor;
        value           nonuniform List<vector> 
12
(
(136.049 0.311368 -3.89809)
(127.627 -3.28811 -4.02481)
(117.566 -0.593939 -3.66555)
(112.89 -0.187024 -1.72522)
(101.925 -2.88195 -1.77615)
(94.8886 0.318526 -1.16951)
(109.951 -0.281153 -4.02826)
(98.9961 -2.363 -3.21353)
(91.1186 -1.06718 0.0407925)
(101.205 -0.380795 -1.8741)
(90.3354 0.0438403 -2.21045)
(81.2888 1.05107 -0.384102)
)
;
    }
    procBoundary1to3
    {
        type            processor;
        value           nonuniform List<vector> 
27
(
(72.5511 -1.00266 -0.868119)
(129.055 -1.03067 -1.60232)
(74.6573 -1.279 -0.998305)
(137.362 -2.24677 0.172682)
(72.3648 -5.31456 -1.64131)
(147.088 -4.3599 4.459)
(59.166 -14.5549 -5.67921)
(160.496 0.582056 10.8688)
(28.8075 -37.0693 -17.3917)
(21.2011 0.252638 -1.53552)
(102.085 0.573431 -1.17688)
(17.7602 0.399142 -1.94484)
(106.08 0.0928362 1.84149)
(15.1176 0.341976 -3.14351)
(111.516 -1.01604 7.52081)
(14.0447 0.0541404 -6.97499)
(117.036 -3.41746 20.1919)
(17.0992 -2.18554 -32.3097)
(11.389 -1.04743 -2.23111)
(93.2938 -0.57047 -0.324729)
(8.98798 -1.31671 -2.43796)
(94.192 -1.46008 0.838821)
(9.35672 -2.54305 -4.10251)
(93.1172 -1.95366 3.82062)
(11.7551 -4.82023 -7.73704)
(84.9888 3.20542 11.9017)
(23.5226 -12.4641 -26.6514)
)
;
    }
    procBoundary1to5
    {
        type            processor;
        value           nonuniform List<vector> 
32
(
(91.0162 3.47167 0.573721)
(8.99793 0.734375 -0.919856)
(77.9419 1.56907 2.86112)
(2.73457e-05 8.49787e-06 -8.43614e-06)
(54.3793 -1.49408 6.31781)
(4.23001 1.42643 -0.303966)
(0.437114 -0.0902895 -0.0675338)
(89.0296 3.54807 0.968767)
(0.970245 -0.267805 -0.251388)
(85.6179 3.69593 5.04791)
(4.77691 -1.40514 -2.1274)
(74.034 8.52811 12.8956)
(19.6195 -2.8537 -16.0269)
(79.465 1.91357 0.26492)
(3.93054e-05 1.60824e-06 3.87523e-06)
(78.0154 0.730841 1.06512)
(3.72547e-05 -4.49368e-07 -4.74938e-06)
(75.1447 -1.17727 2.38329)
(3.53817e-05 2.81871e-06 -9.25504e-06)
(64.2557 -4.54914 3.75322)
(19.7371 0.597561 -1.6132)
(45.3917 -0.953764 0.687482)
(106.501 -1.04112 2.29047)
(91.0162 3.47167 0.573721)
(0.437114 -0.0902895 -0.0675338)
(43.7118 -1.32007 2.51347)
(9.99555 -1.18891 0.183511)
(0.437114 -0.0902895 -0.0675338)
(79.465 1.91357 0.26492)
(92.4143 -0.106049 0.765013)
(79.465 1.91357 0.26492)
(0.00479031 -0.000721263 0.000599431)
)
;
    }
    procBoundary1to7
    {
        type            processor;
        value           uniform (3.25881 0.374827 -0.624584);
    }
}


// ************************************************************************* //
