/*--------------------------------*- C++ -*----------------------------------*\
| =========                 |                                                 |
| \\      /  F ield         | OpenFOAM: The Open Source CFD Toolbox           |
|  \\    /   O peration     | Version:  4.x                                   |
|   \\  /    A nd           | Web:      www.OpenFOAM.org                      |
|    \\/     M anipulation  |                                                 |
\*---------------------------------------------------------------------------*/
FoamFile
{
    version     2.0;
    format      ascii;
    class       volScalarField;
    location    "46.5";
    object      pSmooth;
}
// * * * * * * * * * * * * * * * * * * * * * * * * * * * * * * * * * * * * * //

dimensions      [1 -1 -2 0 0 0 0];

internalField   nonuniform List<scalar> 
87
(
19.054
74.7785
0.1
69.1297
0.1
65.2562
0.1
65.7486
0.1
18.5058
74.7471
0.1
69.0908
0.1
65.2047
0.1
65.0586
0.1
19.2426
74.9986
0.1
68.9341
0.1
63.9629
0.1
61.2134
0.1
19.3084
75.0747
0.133467
68.9891
0.1
63.745
0.1
60.0683
0.1
18.8537
75.0478
0.1
68.9323
0.1
63.6119
0.1
60.0933
0.1
19.5527
75.2968
0.60547
68.5786
0.1
62.2801
0.1
55.9234
0.1
19.0359
74.83
0.1
68.896
0.1
64.2313
0.1
62.1281
0.1
18.5127
74.74
0.1
68.6472
0.1
63.6823
0.1
61.2244
0.1
19.9785
74.8147
1.16559
68.4499
0.1
62.8005
0.1
58.2516
0.1
20.4689
75.5486
2.07354
20.2848
75.2103
22.4319
)
;

boundaryField
{
    inlet
    {
        type            zeroGradient;
    }
    outlet
    {
        type            fixedValue;
        value           uniform 0;
    }
    wall
    {
        type            zeroGradient;
    }
    procBoundary1to0
    {
        type            processor;
        value           nonuniform List<scalar> 
12
(
81.1142
81.096
81.5256
81.5886
81.6605
82.1386
81.3119
81.385
81.7284
82.0951
82.1775
82.0007
)
;
    }
    procBoundary1to3
    {
        type            processor;
        value           nonuniform List<scalar> 
27
(
18.246
74.6012
0.1
68.8428
0.1
64.7979
0.1
63.784
0.1
18.1901
74.8623
0.1
68.6678
0.1
63.5419
0.1
60.5374
0.1
19.1481
74.7326
0.100032
68.2848
0.1
62.964
0.1
58.8366
0.1
)
;
    }
    procBoundary1to5
    {
        type            processor;
        value           nonuniform List<scalar> 
32
(
69.1677
0.1
62.4796
0.1
55.7991
0.1
1.48102
68.4734
0.1
62.1608
0.1
56.2668
0.1
75.0843
4.86207
68.3972
0.1
61.6465
0.1
53.7756
0.1
19.4837
74.8173
69.1677
1.48102
0.267558
19.6928
1.48102
75.0843
74.9592
75.0843
21.0329
)
;
    }
    procBoundary1to7
    {
        type            processor;
        value           uniform 20.8227;
    }
}


// ************************************************************************* //
