/*--------------------------------*- C++ -*----------------------------------*\
| =========                 |                                                 |
| \\      /  F ield         | OpenFOAM: The Open Source CFD Toolbox           |
|  \\    /   O peration     | Version:  4.x                                   |
|   \\  /    A nd           | Web:      www.OpenFOAM.org                      |
|    \\/     M anipulation  |                                                 |
\*---------------------------------------------------------------------------*/
FoamFile
{
    version     2.0;
    format      ascii;
    class       volScalarField;
    location    "46.5";
    object      Qsource;
}
// * * * * * * * * * * * * * * * * * * * * * * * * * * * * * * * * * * * * * //

dimensions      [1 -1 -3 0 0 0 0];

internalField   nonuniform List<scalar> 
87
(
5.90929e+09
9.311e+09
5.83694e+09
8.92064e+09
5.99321e+09
7.4476e+09
6.73591e+09
9.6237e+09
5.08215e+09
5.24954e+09
5.51315e+09
6.56916e+09
6.88077e+09
5.10506e+09
7.88431e+09
8.28312e+09
8.11001e+09
4.55411e+09
4.55963e+09
8.09164e+09
6.8264e+09
9.9815e+09
6.87349e+09
6.90451e+09
6.30821e+09
7.53151e+09
4.80228e+09
7.97835e+09
7.55473e+09
6.68899e+09
8.56486e+09
6.88256e+09
8.85301e+09
9.50288e+09
9.99815e+09
5.66788e+09
9.01904e+09
6.7222e+09
7.56763e+09
9.42959e+09
9.20769e+09
7.72938e+09
9.41869e+09
1.05763e+10
4.72201e+09
7.91462e+09
8.4856e+09
7.18583e+09
6.80889e+09
5.79837e+09
9.31561e+09
9.45133e+09
1.31883e+10
4.45988e+09
7.63927e+09
7.95557e+09
8.72931e+09
1.05952e+10
6.56092e+09
1.06833e+10
8.01159e+09
8.49219e+09
3.57259e+09
6.48389e+09
8.86407e+09
6.50234e+09
8.11185e+09
8.19937e+09
9.09787e+09
7.6498e+09
9.46665e+09
3.7139e+09
9.47299e+09
7.87753e+09
5.48401e+09
1.11447e+10
8.87514e+09
1.07102e+10
7.49638e+09
9.68826e+09
3.38041e+09
6.85953e+09
6.37589e+09
7.88644e+09
7.85715e+09
1.21982e+10
5.89807e+09
)
;

boundaryField
{
    inlet
    {
        type            calculated;
        value           nonuniform 0();
    }
    outlet
    {
        type            calculated;
        value           uniform 0;
    }
    wall
    {
        type            calculated;
        value           uniform 0;
    }
    procBoundary1to0
    {
        type            processor;
        value           nonuniform List<scalar> 
12
(
4.19996e+09
6.28006e+09
9.47599e+09
8.19926e+09
8.97003e+09
6.34549e+09
6.33855e+09
1.01449e+10
5.39528e+09
6.89999e+09
6.9292e+09
9.33352e+09
)
;
    }
    procBoundary1to3
    {
        type            processor;
        value           nonuniform List<scalar> 
27
(
9.15135e+09
4.90249e+09
7.41112e+09
4.33684e+09
5.6801e+09
4.96388e+09
6.21921e+09
6.55284e+09
3.40947e+09
8.5597e+09
8.09751e+09
1.02828e+10
1.0668e+10
8.53962e+09
8.01175e+09
6.87715e+09
8.62838e+09
7.70284e+09
8.25798e+09
1.1035e+10
9.28073e+09
1.03898e+10
6.6366e+09
7.86556e+09
9.1867e+09
8.47054e+09
7.00081e+09
)
;
    }
    procBoundary1to5
    {
        type            processor;
        value           nonuniform List<scalar> 
32
(
8.64875e+09
7.37381e+09
7.72851e+09
5.71517e+09
8.40959e+09
5.92109e+09
7.26262e+09
7.05207e+09
5.90165e+09
8.27171e+09
8.51515e+09
1.01428e+10
6.55728e+09
9.95745e+09
6.14861e+09
8.71755e+09
5.88909e+09
5.32147e+09
7.46839e+09
6.25716e+09
6.64529e+09
7.10195e+09
6.59618e+09
8.64875e+09
7.26262e+09
8.01286e+09
8.10823e+09
7.26262e+09
9.95745e+09
8.23804e+09
9.95745e+09
8.51136e+09
)
;
    }
    procBoundary1to7
    {
        type            processor;
        value           uniform 1.01058e+10;
    }
}


// ************************************************************************* //
