/*--------------------------------*- C++ -*----------------------------------*\
| =========                 |                                                 |
| \\      /  F ield         | OpenFOAM: The Open Source CFD Toolbox           |
|  \\    /   O peration     | Version:  4.x                                   |
|   \\  /    A nd           | Web:      www.OpenFOAM.org                      |
|    \\/     M anipulation  |                                                 |
\*---------------------------------------------------------------------------*/
FoamFile
{
    version     2.0;
    format      ascii;
    class       volScalarField;
    location    "46.5";
    object      QWallFluid;
}
// * * * * * * * * * * * * * * * * * * * * * * * * * * * * * * * * * * * * * //

dimensions      [1 -1 -3 0 0 0 0];

internalField   nonuniform List<scalar> 
87
(
1.61208e+09
2.25215e+09
1.6391e+09
2.36289e+09
1.62158e+09
2.56436e+09
1.49002e+09
3.03241e+09
1.08871e+09
7.16643e+08
1.08122e+09
7.2574e+08
1.13099e+09
7.06451e+08
1.21204e+09
6.31498e+08
1.37233e+09
5.36068e+08
6.12559e+08
9.95261e+08
6.00834e+08
1.02075e+09
5.75528e+08
1.07949e+09
5.39996e+08
1.22535e+09
5.03353e+08
5.51129e+08
9.61321e+08
5.48011e+08
9.81453e+08
5.18261e+08
1.00674e+09
4.38411e+08
1.04018e+09
3.06966e+08
0
0
0
0
0
0
0
0
0
0
0
0
0
0
0
0
0
0
5.16815e+08
9.43929e+08
4.98719e+08
9.67437e+08
4.59915e+08
1.00202e+09
4.00078e+08
1.04477e+09
3.73869e+08
0
0
0
0
0
0
0
0
0
0
0
0
0
0
0
0
0
0
3.89584e+08
8.428e+08
2.8761e+08
0
0
0
)
;

boundaryField
{
    inlet
    {
        type            calculated;
        value           nonuniform 0();
    }
    outlet
    {
        type            calculated;
        value           uniform 0;
    }
    wall
    {
        type            calculated;
        value           uniform 0;
    }
    procBoundary1to0
    {
        type            processor;
        value           nonuniform List<scalar> 
12
(
2.18247e+09
1.0372e+09
9.70998e+08
9.39692e+08
0
0
9.20474e+08
0
0
8.61074e+08
0
0
)
;
    }
    procBoundary1to3
    {
        type            processor;
        value           nonuniform List<scalar> 
27
(
6.59769e+08
1.04586e+09
6.75085e+08
1.09941e+09
6.59879e+08
1.16197e+09
5.75686e+08
1.24735e+09
4.9028e+08
0
0
0
0
0
0
0
0
0
0
0
0
0
0
0
0
0
0
)
;
    }
    procBoundary1to5
    {
        type            processor;
        value           nonuniform List<scalar> 
32
(
7.91358e+08
1.25049e+08
6.991e+08
5138.1
5.26774e+08
7.1024e+07
0
0
0
0
0
0
0
0
0
0
0
0
0
0
0
4.53437e+08
8.9701e+08
7.91358e+08
0
4.40584e+08
0
0
0
0
0
0
)
;
    }
    procBoundary1to7
    {
        type            processor;
        value           uniform 0;
    }
}


// ************************************************************************* //
