/*--------------------------------*- C++ -*----------------------------------*\
| =========                 |                                                 |
| \\      /  F ield         | OpenFOAM: The Open Source CFD Toolbox           |
|  \\    /   O peration     | Version:  4.x                                   |
|   \\  /    A nd           | Web:      www.OpenFOAM.org                      |
|    \\/     M anipulation  |                                                 |
\*---------------------------------------------------------------------------*/
FoamFile
{
    version     2.0;
    format      ascii;
    class       volVectorField;
    location    "46.5";
    object      Us;
}
// * * * * * * * * * * * * * * * * * * * * * * * * * * * * * * * * * * * * * //

dimensions      [0 1 -1 0 0 0 0];

internalField   nonuniform List<vector> 
87
(
(9.88959e-09 7.1008e-09 2.57498e-08)
(-4.32177e-08 1.05575e-06 1.02118e-07)
(-1.15083e-08 1.04569e-09 1.6674e-08)
(-6.14136e-09 -7.31674e-10 1.68365e-09)
(-2.31747e-09 1.07784e-10 2.74007e-12)
(8.16658e-11 -1.37375e-09 -1.00569e-09)
(3.50194e-09 -2.13244e-09 -2.34593e-09)
(2.47508e-07 3.36781e-09 -1.61145e-08)
(1.27596e-07 -8.77266e-09 -2.53768e-08)
(3.67509e-09 -5.33756e-09 1.13949e-08)
(2.20525e-09 -8.91086e-09 2.18373e-08)
(-1.18625e-08 -7.34991e-09 7.69104e-09)
(-1.92208e-09 -2.4289e-09 7.73042e-10)
(1.16772e-09 -3.86679e-09 1.28479e-10)
(1.44562e-09 -6.1709e-10 -1.77546e-09)
(1.81033e-09 -2.1248e-09 -4.13013e-09)
(3.87977e-10 -6.0895e-09 -6.0061e-09)
(-3.9626e-09 -1.56761e-08 -1.321e-08)
(4.46495e-09 -6.76139e-09 4.46417e-09)
(2.57282e-09 -1.00426e-08 7.39993e-09)
(3.27473e-09 -6.29218e-09 4.06509e-09)
(1.3459e-09 -2.03456e-09 1.06424e-09)
(1.76931e-09 -1.72022e-09 -2.05482e-10)
(2.41346e-09 -1.01668e-09 -8.95085e-10)
(3.17623e-09 -1.11013e-09 -2.5238e-09)
(1.65724e-09 -3.91889e-09 -6.43907e-09)
(3.04488e-09 -1.153e-09 -4.19717e-09)
(-5.5953e-09 4.70843e-09 1.74526e-08)
(7.99507e-10 3.02618e-09 4.03437e-08)
(2.97753e-09 1.58099e-09 1.48637e-08)
(2.22556e-09 -1.28357e-09 9.87916e-10)
(8.30038e-10 4.97112e-11 5.14714e-10)
(7.32179e-10 -1.80984e-10 -5.79658e-10)
(1.6294e-09 -6.77825e-10 -1.64718e-09)
(8.46997e-10 -1.99615e-09 -3.23029e-09)
(-5.08836e-10 -3.41916e-09 -7.84504e-09)
(-2.94538e-09 5.62842e-10 1.20948e-08)
(-9.51439e-10 -3.31114e-09 1.98892e-08)
(3.80843e-09 1.23301e-09 1.00869e-08)
(1.15233e-09 -2.10105e-09 1.45645e-09)
(1.28947e-09 -1.37252e-09 -9.714e-11)
(1.52001e-09 -8.66584e-10 -1.33627e-09)
(1.89887e-09 -1.37418e-09 -3.04175e-09)
(1.41867e-09 -2.31709e-09 -4.00028e-09)
(4.88116e-09 -4.26064e-09 -8.88588e-09)
(1.99319e-09 -1.62961e-09 3.68961e-09)
(2.83767e-09 -2.00281e-09 6.59643e-09)
(3.21609e-09 -1.59176e-09 3.38286e-09)
(1.739e-09 -2.12049e-09 1.47542e-09)
(2.36329e-09 -1.85093e-09 -4.50219e-10)
(2.64661e-09 -1.37207e-09 -1.2628e-09)
(3.37817e-09 -7.82523e-10 -3.08364e-09)
(3.56455e-09 -1.30159e-09 -3.09708e-09)
(1.08883e-09 -2.49821e-09 -5.09916e-09)
(-9.45026e-10 1.21118e-10 3.44681e-09)
(2.98794e-10 1.60004e-09 5.00001e-09)
(6.23442e-10 1.43359e-09 6.72751e-09)
(2.11456e-09 -4.12928e-10 1.19304e-09)
(1.67576e-09 -2.30647e-10 3.04608e-10)
(1.32502e-09 -3.23174e-10 -5.79245e-10)
(1.5753e-09 -2.07257e-10 -6.20081e-10)
(-4.12837e-10 -1.42569e-09 1.437e-09)
(-8.51293e-10 -9.79484e-10 -2.45295e-09)
(-7.21299e-10 7.52545e-10 4.87264e-09)
(2.14984e-09 3.23779e-10 6.39622e-09)
(3.06117e-09 3.62028e-10 7.65391e-09)
(2.03186e-09 -8.42081e-10 2.11673e-09)
(2.19058e-09 -6.35487e-10 1.0023e-10)
(1.83394e-09 -1.14325e-10 -9.63602e-10)
(1.84537e-09 -5.14988e-10 -1.82132e-09)
(4.97717e-10 -2.13004e-09 -2.05404e-09)
(-6.30273e-10 -1.55031e-09 -1.74999e-09)
(1.71176e-09 3.12057e-10 3.11235e-09)
(2.82863e-09 9.56277e-10 4.16137e-09)
(3.50429e-09 1.07749e-09 4.83025e-09)
(3.1601e-09 -8.89451e-11 1.62566e-09)
(2.96076e-09 -5.05531e-10 -1.5909e-10)
(2.73439e-09 -5.63878e-10 -1.15375e-09)
(2.43946e-09 -3.70881e-10 -2.25122e-09)
(1.62276e-09 -7.33321e-10 -2.30998e-09)
(9.70952e-10 -1.31121e-09 -1.64802e-09)
(1.30516e-10 1.96423e-10 2.18417e-09)
(9.73456e-10 9.38682e-10 6.85266e-10)
(1.18864e-09 5.67273e-10 1.81601e-09)
(3.18826e-10 4.75994e-10 2.29124e-09)
(1.90629e-09 8.89317e-10 3.6063e-09)
(1.65195e-09 2.2021e-10 2.0011e-09)
)
;

boundaryField
{
    inlet
    {
        type            zeroGradient;
    }
    outlet
    {
        type            zeroGradient;
    }
    wall
    {
        type            zeroGradient;
    }
    procBoundary1to0
    {
        type            processor;
        value           nonuniform List<vector> 
12
(
(-2.19494e-10 -2.53718e-11 4.45998e-10)
(2.96426e-09 -2.45851e-09 3.8043e-09)
(2.13212e-09 -2.12797e-09 2.25544e-09)
(-1.62807e-09 -1.32171e-09 3.16916e-09)
(-5.92595e-10 2.43898e-10 4.59223e-09)
(1.19312e-09 -5.12159e-10 2.77901e-09)
(-1.54715e-09 -6.90606e-10 4.13635e-09)
(-2.00363e-09 1.68443e-09 4.62564e-09)
(-2.8201e-10 1.75477e-09 3.06448e-09)
(-1.64444e-10 -3.00193e-10 2.86483e-09)
(-3.17389e-10 4.11316e-10 1.87881e-09)
(6.18164e-10 8.49419e-10 2.01787e-09)
)
;
    }
    procBoundary1to3
    {
        type            processor;
        value           nonuniform List<vector> 
27
(
(2.92039e-09 -3.83367e-09 1.33879e-09)
(3.79611e-09 -5.70449e-09 1.68959e-09)
(5.09167e-09 -8.17616e-09 1.26334e-10)
(3.24489e-09 -2.94918e-09 6.31114e-12)
(2.43799e-09 -1.68144e-09 -6.86143e-10)
(2.75036e-09 -9.28848e-10 -9.98444e-10)
(2.50411e-09 -1.11075e-09 -1.67078e-09)
(-2.58185e-10 5.39936e-10 -2.34222e-09)
(-2.12241e-08 -1.0557e-09 -1.2213e-09)
(3.10471e-09 -2.61367e-09 1.04162e-09)
(3.29677e-09 -1.70011e-09 1.08137e-09)
(3.28137e-09 -1.96762e-09 7.09834e-10)
(3.37016e-09 -1.50709e-09 6.71012e-11)
(3.38791e-09 -1.29429e-09 -7.03904e-10)
(2.94244e-09 -1.02728e-09 -1.3348e-09)
(2.6992e-09 -4.19582e-10 -2.66131e-09)
(2.14262e-09 4.53808e-11 -2.35972e-09)
(-2.54219e-09 -9.68069e-10 -1.29231e-09)
(3.10669e-09 -8.22065e-10 1.0695e-09)
(3.30264e-09 -6.32809e-10 1.36363e-09)
(3.53988e-09 3.57849e-10 2.03798e-09)
(3.71346e-09 -8.28543e-10 3.87467e-10)
(3.65482e-09 -9.68934e-10 -4.22107e-10)
(3.23241e-09 -4.67708e-10 -1.4335e-09)
(2.62991e-09 -3.66968e-10 -2.3366e-09)
(2.06739e-09 -3.78605e-10 -2.20011e-09)
(1.36267e-09 -3.29602e-10 -1.24628e-09)
)
;
    }
    procBoundary1to5
    {
        type            processor;
        value           nonuniform List<vector> 
32
(
(1.71629e-09 -2.40189e-10 1.19049e-09)
(1.59554e-09 -2.23135e-10 8.68611e-11)
(1.74085e-09 -1.78358e-10 -5.06363e-10)
(2.19909e-09 -1.08699e-10 -7.398e-10)
(1.82699e-09 -2.09493e-09 -9.31533e-10)
(-5.14356e-09 -1.17043e-09 -7.6153e-10)
(3.51921e-09 8.18641e-10 4.74915e-09)
(3.03859e-09 -1.66625e-10 1.7889e-09)
(2.70991e-09 -4.53063e-10 8.13319e-11)
(2.20193e-09 -2.40423e-10 -7.39523e-10)
(1.71915e-09 -1.40045e-11 -1.541e-09)
(3.01869e-10 -2.873e-09 -1.67644e-09)
(-8.45552e-10 -1.63008e-09 -1.27411e-09)
(2.80309e-09 2.35894e-10 2.59241e-09)
(3.50181e-09 8.11495e-10 2.48711e-09)
(3.52779e-09 3.4411e-10 1.0169e-09)
(2.98882e-09 6.48627e-12 4.94989e-11)
(2.30567e-09 -2.10968e-10 -6.74156e-10)
(1.5067e-09 2.89858e-11 -1.26167e-09)
(9.45793e-10 -9.74247e-10 -1.89996e-09)
(1.67093e-10 -4.09102e-10 -9.43558e-10)
(2.35547e-10 2.96594e-10 4.66495e-10)
(1.0058e-09 3.64385e-10 6.34152e-10)
(1.71629e-09 -2.40189e-10 1.19049e-09)
(3.51921e-09 8.18641e-10 4.74915e-09)
(1.28451e-09 6.90838e-11 9.45779e-10)
(1.23207e-09 3.02638e-10 9.28013e-10)
(3.51921e-09 8.18641e-10 4.74915e-09)
(2.80309e-09 2.35894e-10 2.59241e-09)
(2.21725e-09 2.33318e-10 8.9077e-10)
(2.80309e-09 2.35894e-10 2.59241e-09)
(1.94513e-09 1.97835e-10 1.31948e-09)
)
;
    }
    procBoundary1to7
    {
        type            processor;
        value           uniform (3.04533e-09 -2.19641e-10 1.23473e-09);
    }
}


// ************************************************************************* //
