/*--------------------------------*- C++ -*----------------------------------*\
| =========                 |                                                 |
| \\      /  F ield         | OpenFOAM: The Open Source CFD Toolbox           |
|  \\    /   O peration     | Version:  4.x                                   |
|   \\  /    A nd           | Web:      www.OpenFOAM.org                      |
|    \\/     M anipulation  |                                                 |
\*---------------------------------------------------------------------------*/
FoamFile
{
    version     2.0;
    format      ascii;
    class       volScalarField;
    location    "52";
    object      magGField;
}
// * * * * * * * * * * * * * * * * * * * * * * * * * * * * * * * * * * * * * //

dimensions      [1 -2 -1 0 0 0 0];

internalField   nonuniform List<scalar> 
108
(
72.6227
129.143
74.7356
137.532
72.6782
147.529
61.3317
161.359
50.2752
54.5065
112.762
48.3852
112.188
35.1757
103.424
11.9286
76.6796
1.51935e-05
71.7274
126.731
72.6688
134.582
69.95
145.6
60.2462
166.443
55.8368
90.9154
139.073
92.6782
144.075
89.8639
153.539
80.1981
172.463
53.6179
21.5894
102.261
18.474
106.477
16.3101
112.618
16.6043
120.376
37.9807
7.15571
93.9595
1.42423
93.3954
0.242042
89.4028
2.73118
75.6975
15.9505
32.2161
106.722
32.9643
114.919
36.2572
129.004
43.7796
151.976
79.091
64.2575
120.485
63.8896
125.476
59.5383
135.849
51.046
163.011
66.6756
12.2051
93.5091
10.1962
94.7361
11.722
94.0609
16.0494
86.8421
39.1333
3.50779e-05
84.575
3.47601e-05
83.981
3.28662e-05
81.7651
3.15644e-05
70.4573
11.7209
2.91989
92.3297
3.71393e-05
93.8608
3.96646
95.6061
17.783
92.6648
51.1606
43.4694
105.002
39.7924
105.952
33.7932
109.165
27.495
123.886
26.9361
)
;

boundaryField
{
    inlet
    {
        type            calculated;
        value           nonuniform 0();
    }
    outlet
    {
        type            calculated;
        value           nonuniform List<scalar> 
12
(
104.777
3.18299e-05
116.523
109.864
81.5958
34.2207
169.558
141.958
85.3072
25.5323
111.118
58.7142
)
;
    }
    wall
    {
        type            calculated;
        value           uniform 0;
    }
    procBoundary3to1
    {
        type            processor;
        value           nonuniform List<scalar> 
27
(
66.272
121.267
64.7385
125.111
61.3937
134.17
56.6325
157.433
52.4159
8.19479
94.9462
1.11539
94.4436
3.7233e-05
90.093
7.20141
82.3909
45.964
6.13573
91.0973
4.56694
91.5977
6.50965
91.5855
15.2177
87.6232
39.1698
)
;
    }
    procBoundary3to2
    {
        type            processor;
        value           nonuniform List<scalar> 
12
(
122.761
112.316
121.349
133.198
98.2916
93.7087
102.603
116.525
92.5501
85.9258
90.9255
103.451
)
;
    }
    procBoundary3to7
    {
        type            processor;
        value           nonuniform List<scalar> 
36
(
5.33352
88.6918
4.20652
88.5111
1.32969
86.2828
0.535957
75.4633
12.3434
0.209823
87.0827
3.71928e-05
85.3192
2.16582
81.8671
14.1904
73.9062
42.6039
28.6061
99.6703
28.37
104.27
28.5733
109.99
29.1868
119.012
36.1322
51.0479
109.367
49.6764
112.866
46.1684
116.203
37.7679
122.912
32.2986
)
;
    }
}


// ************************************************************************* //
