/*--------------------------------*- C++ -*----------------------------------*\
  =========                 |
  \\      /  F ield         | OpenFOAM: The Open Source CFD Toolbox
   \\    /   O peration     | Website:  https://openfoam.org
    \\  /    A nd           | Version:  4.x
     \\/     M anipulation  |
\*---------------------------------------------------------------------------*/
FoamFile
{
    version     2.0;
    format      ascii;
    class       vectorField;
    location    0;
    object      v;
}
// * * * * * * * * * * * * * * * * * * * * * * * * * * * * * * * * * * * * * //

235
(
( 0.000330327 -4.4009e-05 -0.000176531 )  
( 0.000419219 -4.34249e-05 -0.000272607 )  
( 0.000272549 -0.000110718 -0.000179709 )  
( 0.000240722 -6.31164e-05 -0.000142882 )  
( 0.000358066 -5.52542e-05 -0.000210763 )  
( 0.0003222 -8.062e-06 -0.000144554 )  
( 0.000226989 -3.35787e-05 -5.7547e-05 )  
( 0.00035689 -4.28436e-05 -0.000169517 )  
( 0.000163153 -1.40553e-05 -7.02854e-05 )  
( 6.20864e-05 1.81214e-05 -3.03978e-05 )  
( 0.000352178 -0.000181109 -0.000198783 )  
( 6.19013e-05 -2.69539e-05 -3.83876e-05 )  
( 0.000332643 -8.46096e-05 -0.000237931 )  
( 0.000348513 -0.00013672 -0.000228816 )  
( 3.67053e-05 -2.93275e-05 -2.19609e-05 )  
( 0.000121728 -5.02122e-05 -5.40929e-05 )  
( 0.000377017 -9.94079e-05 -0.00028257 )  
( 0.000408342 -0.000146321 -0.000267131 )  
( 4.71302e-05 -8.22415e-06 -1.74138e-05 )  
( 0.000118948 -3.3415e-05 -6.34289e-05 )  
( 0.000108076 -5.27339e-05 -3.88256e-05 )  
( 0.000456927 -0.000122534 -0.000352292 )  
( 4.38039e-05 -7.62375e-06 -2.04185e-05 )  
( 0.000190174 -2.78909e-05 -8.39194e-05 )  
( 0.000336704 -0.000104419 -0.000246817 )  
( 0.000285492 -7.20447e-05 -0.000145185 )  
( 0.000398986 -0.000183372 -0.00027307 )  
( 0.000458453 -7.2259e-05 -0.000244867 )  
( 3.18963e-05 -1.76617e-05 -1.96866e-06 )  
( 0.000254985 -8.85825e-05 -0.000158789 )  
( 0.000346475 -8.15135e-05 -0.000197581 )  
( 0.00023007 -9.30322e-05 -0.000165388 )  
( 0.000333709 -8.97022e-05 -0.000253055 )  
( 6.99934e-05 -1.94726e-05 -2.13423e-05 )  
( 0.000597108 -0.000195882 -0.000365443 )  
( 0.000233831 -5.19238e-05 -0.00013855 )  
( 0.000339907 -0.00012856 -0.00025337 )  
( 0.000162833 -2.35956e-05 -3.9157e-05 )  
( 0.000478111 -0.000199394 -0.000242913 )  
( 0.000386743 -0.000170633 -0.000228243 )  
( 0.000257525 -3.59357e-05 -0.000249804 )  
( 0.000167027 -4.20714e-05 -0.000104188 )  
( 5.91328e-05 -3.14759e-05 -5.12835e-06 )  
( 0.000452323 -0.000160714 -0.000272396 )  
( 0.000401643 -8.18835e-05 -0.000313885 )  
( 0.000118272 -2.28303e-05 -9.40319e-05 )  
( 0.00019129 -7.81884e-05 -4.80723e-05 )  
( 2.53285e-05 -1.59896e-05 -7.34155e-06 )  
( 0.000122038 -7.03038e-06 -0.000105218 )  
( 0.000203546 -6.9698e-05 -0.000234171 )  
( 0.000102886 -4.13479e-05 -2.95496e-05 )  
( 0.000141334 -6.68683e-05 -6.25639e-05 )  
( 0.000439872 -9.85255e-05 -0.000346396 )  
( 0.000372099 -9.20158e-05 -0.000280125 )  
( 4.27874e-05 1.43998e-05 -1.10573e-05 )  
( 0.000267421 -5.90138e-05 -9.87601e-05 )  
( 0.000223975 -0.000113161 -0.000116796 )  
( 0.000113285 -2.92705e-05 -9.63603e-05 )  
( 0.000133689 -5.63212e-05 -7.98148e-05 )  
( 0.000208817 -8.94925e-05 -8.8045e-05 )  
( 0.000495786 -0.000180399 -0.000259115 )  
( 0.000296553 -8.63045e-05 -0.000130716 )  
( 0.000401022 -5.992e-05 -0.000284463 )  
( 0.000125833 -1.69629e-05 -8.06254e-05 )  
( 0.000192781 -7.49937e-05 -7.39814e-05 )  
( 0.000379098 -0.000237564 -1.56897e-05 )  
( 0.000285523 -0.000114831 -0.000168255 )  
( 0.000244132 -7.16732e-05 -0.00019042 )  
( 9.16992e-05 -5.47874e-05 -1.41563e-05 )  
( 0.000236437 -4.53103e-05 -0.000164532 )  
( 1.67504e-05 -2.32197e-05 4.45274e-06 )  
( 0.000100811 -3.5153e-05 -7.89259e-05 )  
( 0.000391779 -0.000137989 -0.000253275 )  
( 0.00033899 -0.000125625 -0.000226537 )  
( 8.62174e-05 -3.55724e-05 -4.75718e-05 )  
( 0.000176666 -0.000109195 -6.59985e-05 )  
( 7.31216e-05 -4.53778e-05 7.22994e-06 )  
( 4.02886e-05 -1.88009e-05 -4.08449e-07 )  
( 0.000444524 -9.82614e-05 -0.000343474 )  
( 0.000163598 -2.26671e-05 -0.000137497 )  
( 0.0002577 -0.000128354 -0.000217667 )  
( 0.000395655 -0.000122986 -0.000238396 )  
( 0.000493212 -0.000171139 -0.000397859 )  
( 0.000232208 -8.66286e-05 -0.000251229 )  
( 0.000102649 -2.11388e-05 -5.54757e-05 )  
( 0.000244704 -0.00017757 -0.000155223 )  
( 0.000106272 -6.58246e-05 -2.06871e-06 )  
( 0.000511817 -0.00017838 -0.000321729 )  
( 0.000463693 -0.000144145 -0.000324268 )  
( 0.000255372 -0.000140836 -0.000171109 )  
( 0.000306229 -5.04422e-05 -0.000194752 )  
( 0.000322356 -0.000122478 -0.000240836 )  
( 5.49616e-05 -2.65602e-05 -2.18325e-05 )  
( 0.000117062 -7.25243e-05 -4.69299e-05 )  
( 2.43655e-05 -1.01753e-05 -2.13406e-05 )  
( 0.000220082 -3.68197e-05 -0.000166518 )  
( 0.000144645 -4.93384e-05 -9.4476e-05 )  
( 0.000240221 -3.89952e-05 3.05846e-05 )  
( 5.35881e-05 -2.80765e-05 -1.04493e-05 )  
( 0.000132976 -4.75691e-05 -3.73811e-05 )  
( 0.000119339 -1.99614e-06 -7.02747e-05 )  
( 0.000479338 -0.000160472 -0.000202993 )  
( 0.000204646 -9.74951e-05 -0.000179705 )  
( 0.000355936 -0.000125526 -0.000261062 )  
( 0.000111295 -8.96329e-05 -0.000115342 )  
( 0.000183362 -0.000138592 -0.000139441 )  
( 9.71306e-05 -8.63033e-05 -5.0306e-05 )  
( 6.24983e-05 -3.11765e-05 -2.23534e-05 )  
( 0.00032023 -8.79972e-07 -0.000294491 )  
( 4.99265e-05 -2.1906e-05 -1.10857e-05 )  
( 0.000408841 -8.55414e-05 -0.000296653 )  
( 3.32646e-05 -1.69906e-05 -2.23586e-05 )  
( 0.000161166 -2.86846e-05 -0.000108323 )  
( 0.000192057 -5.1832e-05 -6.72723e-05 )  
( 0.000589011 -0.000229961 -0.000431062 )  
( 4.02624e-05 -8.0042e-05 1.58775e-05 )  
( 1.80087e-05 -2.03453e-05 2.06173e-06 )  
( 9.18245e-05 -3.81255e-05 -2.6295e-05 )  
( 7.09151e-05 -3.56461e-05 -2.16403e-05 )  
( 0.000113708 -2.92537e-05 -7.22515e-05 )  
( 0.000315363 -5.49888e-05 -0.000218303 )  
( 0.000186268 -3.87474e-05 -6.22244e-05 )  
( 0.00031588 -0.000110675 -0.000219895 )  
( 0.000272371 -7.47153e-05 -0.000198981 )  
( 3.65648e-05 4.11195e-06 -2.26093e-06 )  
( 0.000406422 -0.000142006 -0.000320853 )  
( 0.000325488 -0.000180321 -0.000174332 )  
( 0.000107182 -9.73122e-06 -5.56378e-05 )  
( 0.000273376 -3.22507e-05 -0.000223497 )  
( 0.000256062 -8.26751e-05 -0.000173356 )  
( 0.000202245 -6.31299e-05 -0.000159586 )  
( 3.83333e-05 -2.44891e-05 1.06572e-05 )  
( 0.000266391 -0.000174421 -0.000197296 )  
( 0.000244805 -0.00015315 -0.000226724 )  
( 0.000175308 -0.000133948 -3.92157e-05 )  
( 0.000244088 -6.19019e-05 -0.000195055 )  
( 9.56307e-05 1.21223e-05 -5.61239e-05 )  
( 0.000274661 -0.000141829 -0.000176469 )  
( 0.000450375 -0.000316297 -6.82773e-05 )  
( 0.00011929 -0.000117686 -4.22666e-05 )  
( 6.77131e-05 -4.59502e-05 -2.38041e-05 )  
( 1.99945e-05 -8.97836e-06 1.81712e-07 )  
( 0.000502926 -0.000177135 -0.000284792 )  
( 0.000514223 -0.000166838 -0.00032586 )  
( 9.45787e-05 -2.81767e-05 -4.42268e-05 )  
( 0.000101269 -2.21191e-05 -6.0702e-05 )  
( 1.88916e-05 -2.21422e-05 4.48329e-06 )  
( 0.000268649 -6.25189e-05 -0.000258813 )  
( 0.000152884 -1.08998e-05 -0.000125255 )  
( 0.000247939 -0.000105374 -0.000174241 )  
( 9.30476e-05 -2.52906e-05 -5.30981e-05 )  
( 7.19202e-05 1.79053e-05 -5.13206e-05 )  
( 8.04423e-05 -1.4982e-05 -4.9667e-05 )  
( 0.000321276 -6.47501e-05 -0.00021936 )  
( 7.45618e-05 -2.65472e-05 -2.52904e-05 )  
( 7.2712e-05 7.4042e-06 -5.75998e-05 )  
( 0.00018014 -7.75722e-05 -0.000107167 )  
( 0.000256423 -6.85472e-06 -0.000166045 )  
( 6.95016e-05 -2.31746e-05 -3.68807e-05 )  
( 9.16051e-05 -2.4732e-05 -4.94083e-05 )  
( 0.000209378 -0.00014107 -0.000101214 )  
( 0.000291449 -7.66799e-05 -0.000220901 )  
( 7.4416e-05 -1.07125e-05 -4.74059e-05 )  
( 0.000119301 5.69551e-06 -7.09894e-05 )  
( 0.000261488 -3.99478e-05 -0.000201258 )  
( 0.000275373 -4.72589e-06 -0.000132688 )  
( 0.000295408 -8.95963e-05 -0.000209865 )  
( 0.000219932 -5.97675e-06 -0.000130909 )  
( 0.000220082 -3.22696e-05 -0.000163744 )  
( 7.45743e-05 1.43616e-05 -6.33134e-05 )  
( 0.000196258 -6.69607e-05 -0.000142525 )  
( 6.07379e-05 -1.05194e-07 -4.32531e-05 )  
( 0.000115948 -5.49838e-05 -7.23857e-05 )  
( 0.000330552 -1.01672e-05 -0.000188006 )  
( 0.000139579 -2.30987e-05 -8.59092e-05 )  
( 0.000114207 -2.32374e-05 -9.4339e-05 )  
( 3.76111e-05 1.02116e-05 -3.11708e-05 )  
( 0.000290497 -9.09297e-05 -0.000219858 )  
( 0.000322504 -4.78767e-05 -0.000205219 )  
( 0.000478323 -0.000144946 -0.000252744 )  
( 7.5231e-05 -1.92642e-05 -2.50852e-05 )  
( 0.000235114 -0.000102257 -0.000136461 )  
( 0.00028741 -0.000136699 -0.000168379 )  
( 0.000245394 -4.29828e-05 -0.000173546 )  
( 0.000416346 -5.44659e-05 -0.000237972 )  
( 2.75936e-05 -2.03787e-05 8.15206e-06 )  
( 6.47727e-05 -6.30962e-06 -3.88654e-05 )  
( 0.000124937 -9.55562e-05 -7.6307e-05 )  
( 9.39956e-05 -3.42413e-05 -6.61869e-05 )  
( 0.000404747 -8.61195e-05 -0.000296998 )  
( 0.00010416 -5.78751e-05 -2.42409e-05 )  
( 8.55439e-05 -4.01658e-05 -6.53643e-05 )  
( 0.000402959 -0.000175965 -0.000245485 )  
( 0.000103163 -7.20597e-05 -7.26441e-05 )  
( 0.000543948 -8.4604e-05 -0.000422807 )  
( 6.26328e-05 -2.08846e-05 -2.43655e-05 )  
( 0.000325066 -0.000155743 -0.000211935 )  
( 0.000131805 -0.000102005 -6.07797e-05 )  
( 2.21961e-05 -1.8345e-05 7.43481e-07 )  
( 5.7551e-05 -7.51749e-06 -2.13667e-05 )  
( 0.000268947 -2.39326e-05 -0.000135462 )  
( 0.000147069 -5.4494e-05 -9.68167e-05 )  
( 0.000113891 -4.5346e-05 -4.58021e-05 )  
( 9.07177e-05 -2.14509e-05 -4.77188e-05 )  
( 0.00035168 -6.63214e-05 -0.000249534 )  
( 0.000175508 -5.12373e-05 -0.000107363 )  
( 0.000190167 -3.96411e-05 -0.000160317 )  
( 0.000237335 -1.51127e-05 -0.000187245 )  
( 4.01449e-05 -2.72307e-05 -1.37786e-06 )  
( 3.18157e-05 1.74699e-06 -1.46387e-05 )  
( 0.000284915 -7.62568e-05 -0.000207676 )  
( 0.00018104 -1.3771e-05 -0.000137656 )  
( 6.19649e-05 -2.31136e-05 -2.63068e-05 )  
( 0.000164484 -8.32135e-05 -9.23537e-05 )  
( 0.000377649 -0.000203876 -0.000259093 )  
( 0.000128561 -0.000143078 -0.000135333 )  
( 0.000141864 -4.43895e-05 -0.000135301 )  
( 0.000225598 -0.00013176 -9.44951e-05 )  
( 3.52672e-05 -3.96998e-05 8.93683e-06 )  
( 0.000649092 -0.000182829 -0.000263725 )  
( 0.000189232 -0.000188325 -0.000111989 )  
( 0.000148268 -9.18364e-05 -2.27481e-05 )  
( 0.000430769 -6.76734e-05 -0.00028267 )  
( 0.000490983 -0.000202182 -0.000267732 )  
( 0.000428675 -9.08509e-05 -0.000364332 )  
( 0.00077352 -0.000461764 -0.000353484 )  
( 0.000350764 -0.000177044 -0.00026425 )  
( 0.00023387 -0.000195727 -0.00021527 )  
( 0.000551307 -0.000253682 -0.000324821 )  
( 0.000226062 -0.000155271 -0.000197798 )  
( -0.000196643 -7.19602e-05 -0.000101828 )  
( 0.000122056 -7.48205e-05 -0.000214119 )  
( 0.000341717 -0.00016235 -0.000249629 )  
( 0.000537532 -0.000349318 -0.000254501 )  
( 0.000484404 -0.000154366 -0.000337048 )  
)
