/*--------------------------------*- C++ -*----------------------------------*\
| =========                 |                                                 |
| \\      /  F ield         | OpenFOAM: The Open Source CFD Toolbox           |
|  \\    /   O peration     | Version:  4.x                                   |
|   \\  /    A nd           | Web:      www.OpenFOAM.org                      |
|    \\/     M anipulation  |                                                 |
\*---------------------------------------------------------------------------*/
FoamFile
{
    version     2.0;
    format      ascii;
    class       volVectorField;
    location    "50.5";
    object      DDtUrel;
}
// * * * * * * * * * * * * * * * * * * * * * * * * * * * * * * * * * * * * * //

dimensions      [0 1 -2 0 0 0 0];

internalField   nonuniform List<vector> 
87
(
(3.73349e-05 -8.86325e-06 9.52843e-06)
(8.57397e-05 -2.33115e-05 1.2708e-05)
(5.56649e-05 -1.7606e-05 4.87111e-06)
(0.000129776 -2.82394e-05 9.2715e-06)
(0.000105787 -3.25631e-05 8.20168e-06)
(6.73544e-05 -3.06155e-05 4.10118e-07)
(0.00161339 3.52935e-05 -6.44612e-05)
(0.000909333 1.53341e-05 -3.2995e-05)
(0.00052066 2.79498e-06 -1.61681e-05)
(0.000300892 -5.8306e-06 -2.54177e-06)
(0.000181026 -7.31187e-06 3.20192e-06)
(0.000106963 -1.11264e-05 6.19419e-06)
(6.8188e-05 -1.02009e-05 5.69498e-06)
(4.11392e-05 -1.21811e-05 4.22869e-06)
(2.23964e-05 -1.01164e-05 2.44688e-06)
(0.00165692 8.39162e-05 -6.66684e-05)
(0.000958285 3.19025e-05 -3.68415e-05)
(0.00055897 6.19618e-06 -1.97042e-05)
(0.000333475 -1.161e-05 -5.90991e-06)
(0.000200971 -1.39261e-05 1.06891e-06)
(0.00012491 -2.20179e-05 4.30532e-06)
(7.68141e-05 -2.00295e-05 4.3804e-06)
(5.00191e-05 -2.4756e-05 3.37124e-06)
(2.51634e-05 -2.0314e-05 1.11413e-06)
(0.00171213 7.94198e-05 -7.00117e-05)
(0.00101749 3.55753e-05 -4.02735e-05)
(0.000610232 6.4175e-06 -2.3857e-05)
(0.000375236 -1.09985e-05 -8.69723e-06)
(0.000230108 -1.65311e-05 -1.02253e-06)
(0.000147039 -2.23995e-05 3.54534e-06)
(8.65338e-05 -2.595e-05 1.63558e-06)
(5.54277e-05 -3.38132e-05 1.92354e-06)
(1.91526e-05 -2.92348e-05 -1.34702e-06)
(0.00164734 4.10744e-05 6.25904e-06)
(0.000943999 1.6029e-05 -6.20702e-06)
(0.00054355 1.88863e-06 -7.44012e-06)
(0.00032081 -7.56984e-06 -6.54982e-06)
(0.000188756 -9.7653e-06 -3.21098e-06)
(0.000115287 -1.34569e-05 -5.431e-06)
(6.76401e-05 -1.24753e-05 -1.9545e-06)
(4.31626e-05 -1.39374e-05 -4.62877e-06)
(1.93524e-05 -1.22714e-05 -5.39526e-06)
(0.00169116 8.25205e-05 1.36308e-07)
(0.000991932 3.14234e-05 -9.06168e-06)
(0.000585696 4.64874e-06 -1.0804e-05)
(0.000355499 -1.05616e-05 -7.52347e-06)
(0.000213471 -1.40054e-05 -4.53212e-06)
(0.000132766 -2.01533e-05 -4.31623e-06)
(7.74853e-05 -2.1057e-05 -4.14636e-06)
(5.35049e-05 -2.44216e-05 -7.41833e-06)
(2.3302e-05 -2.16071e-05 -6.81536e-06)
(0.00174067 7.57091e-05 -8.40732e-06)
(0.00104873 3.34183e-05 -1.26525e-05)
(0.000637024 5.81336e-06 -1.17914e-05)
(0.000399075 -1.02692e-05 -7.84718e-06)
(0.000248148 -1.59282e-05 -6.60655e-06)
(0.000160259 -2.1508e-05 -5.32448e-06)
(9.6736e-05 -2.55899e-05 -5.53421e-06)
(6.5928e-05 -3.03702e-05 -5.78281e-06)
(3.11518e-05 -3.06435e-05 -6.43637e-06)
(0.00169581 3.80183e-05 2.52331e-05)
(0.000994424 1.20991e-05 4.54033e-06)
(0.000586557 -4.98776e-07 -4.37625e-06)
(0.000357729 -1.02589e-05 -5.39519e-06)
(0.000216124 -1.30842e-05 -4.13882e-06)
(0.000137952 -1.71379e-05 -4.34895e-06)
(8.05287e-05 -1.64778e-05 -4.31054e-06)
(5.74706e-05 -1.64601e-05 -8.22005e-06)
(2.44141e-05 -1.58918e-05 -1.10014e-05)
(0.00173449 7.38094e-05 1.56606e-05)
(0.00103852 2.90791e-05 -7.04331e-07)
(0.000627897 4.49622e-06 -7.63148e-06)
(0.000393794 -1.17384e-05 -8.07278e-06)
(0.000243458 -1.61733e-05 -5.96591e-06)
(0.000155548 -2.20114e-05 -6.0202e-06)
(9.2963e-05 -2.55802e-05 -9.09249e-06)
(6.50381e-05 -2.82955e-05 -1.24715e-05)
(2.86209e-05 -2.32074e-05 -1.55613e-05)
(0.00177304 6.87594e-05 6.90619e-06)
(0.00108556 3.14399e-05 -4.14004e-06)
(0.000673788 6.54896e-06 -8.10514e-06)
(0.000437438 -1.04587e-05 -9.1707e-06)
(0.000279844 -1.86588e-05 -9.34451e-06)
(0.000182797 -2.36468e-05 -8.57116e-06)
(0.000111839 -2.78633e-05 -1.20304e-05)
(7.4556e-05 -3.25794e-05 -1.53124e-05)
(3.5197e-05 -3.18422e-05 -1.73193e-05)
)
;

boundaryField
{
    inlet
    {
        type            calculated;
        value           nonuniform List<vector> 9((0.00366062 0.000102115 -0.000152026) (0.00375578 0.000423321 -0.000163991) (0.00402929 0.000228298 -0.000177196) (0.003785 0.000199032 0.000240521) (0.00391106 0.000418296 0.000194327) (0.00412235 0.000201837 0.000120909) (0.00404578 0.000167685 0.000179017) (0.00412241 0.000317169 0.000113681) (0.00421825 0.000152886 6.27642e-05));
    }
    outlet
    {
        type            calculated;
        value           nonuniform 0();
    }
    wall
    {
        type            calculated;
        value           nonuniform List<vector> 
57
(
(0.00404578 0.000167685 0.000179017)
(0.00412241 0.000317169 0.000113681)
(0.00421825 0.000152886 6.27642e-05)
(0.000105769 -2.928e-05 -3.11253e-07)
(0.000247947 1.32226e-06 -1.1246e-05)
(0.000449577 -7.68858e-06 -1.15573e-05)
(4.91334e-05 -1.48606e-05 -2.17369e-05)
(0.00017169 -1.40676e-05 -2.74975e-05)
(0.000358482 -1.04846e-05 -7.70765e-06)
(9.19583e-05 -5.80837e-05 -9.88308e-06)
(0.000216546 -6.20678e-05 -2.29316e-05)
(0.000433432 -3.5669e-05 -1.95125e-05)
(7.64425e-06 -3.90105e-05 -4.5988e-06)
(0.000105324 -2.01576e-05 1.30195e-06)
(0.000292118 -4.50809e-05 -3.11953e-05)
(5.27857e-05 -6.9377e-05 -7.62518e-06)
(0.000113642 -4.50525e-05 1.1352e-06)
(0.000250697 -3.77519e-05 -1.26735e-05)
(-7.93797e-05 -3.1841e-05 1.3863e-05)
(8.25445e-06 -6.32051e-05 -2.89722e-05)
(0.000106722 -4.02562e-05 -4.15364e-05)
(4.80442e-05 -1.43636e-05 -1.30499e-05)
(0.000121923 -8.87757e-05 -3.33125e-05)
(0.00013683 -7.02457e-05 -5.73503e-05)
(-9.75955e-05 -1.29932e-05 -1.71004e-05)
(-3.33493e-05 -4.69056e-06 -4.06482e-05)
(1.40208e-05 -6.20734e-05 -4.99427e-05)
(0.00402929 0.000228298 -0.000177196)
(0.00412235 0.000201837 0.000120909)
(0.00421825 0.000152886 6.27642e-05)
(0.000121589 8.04548e-06 -9.68158e-06)
(0.000297823 -8.66378e-06 1.83019e-05)
(0.000449577 -7.68858e-06 -1.15573e-05)
(6.51531e-05 -3.12403e-05 -4.46544e-05)
(0.000201107 -3.21208e-05 8.06845e-07)
(0.000358482 -1.04846e-05 -7.70765e-06)
(4.9652e-05 -5.55009e-05 -6.92706e-06)
(0.000206183 -4.03772e-05 6.50979e-06)
(0.000433432 -3.5669e-05 -1.95125e-05)
(-4.12685e-05 -2.34515e-05 -1.03994e-05)
(0.000108285 -1.19187e-05 -2.18992e-05)
(0.000292118 -4.50809e-05 -3.11953e-05)
(-3.2002e-05 -2.93073e-05 6.9207e-06)
(0.000136924 -2.1297e-05 -2.08821e-05)
(0.000250697 -3.77519e-05 -1.26735e-05)
(9.97079e-05 -7.05555e-05 -3.90439e-05)
(-0.000142594 -2.43328e-05 -1.54036e-05)
(3.46259e-05 -2.92928e-05 -1.18068e-05)
(0.000106722 -4.02562e-05 -4.15364e-05)
(0.000258603 -7.7631e-05 -9.17001e-06)
(-9.75975e-05 -0.000116461 1.33015e-05)
(0.000122483 -4.60427e-05 6.02139e-06)
(0.00013683 -7.02457e-05 -5.73503e-05)
(3.96622e-05 -7.10258e-05 -6.32243e-05)
(-0.000238817 -2.46976e-05 -3.14052e-06)
(1.46077e-05 -5.4704e-05 1.46875e-05)
(1.40208e-05 -6.20734e-05 -4.99427e-05)
)
;
    }
    procBoundary6to0
    {
        type            processor;
        value           uniform (3.09838e-05 6.51652e-08 1.18e-05);
    }
    procBoundary6to2
    {
        type            processor;
        value           nonuniform List<vector> 
32
(
(6.26723e-05 -7.86349e-06 1.7683e-05)
(0.000111149 -2.5791e-05 2.42087e-05)
(8.12303e-05 -1.94804e-05 1.60782e-05)
(0.000168624 -2.67212e-05 2.20493e-05)
(0.000141397 -3.26126e-05 2.27334e-05)
(9.99233e-05 -3.08606e-05 1.43994e-05)
(0.00161963 3.84209e-05 -0.00013595)
(0.000926074 1.7535e-05 -6.1404e-05)
(0.000535524 3.85847e-06 -2.37982e-05)
(0.000318223 -4.25906e-06 3.67345e-06)
(0.000194993 -6.56134e-06 1.11579e-05)
(0.000126479 -1.04608e-05 2.00468e-05)
(8.29241e-05 -9.10162e-06 1.49675e-05)
(5.8362e-05 -9.15472e-06 1.26189e-05)
(5.8362e-05 -9.15472e-06 1.26189e-05)
(5.8362e-05 -9.15472e-06 1.26189e-05)
(0.00166487 8.26094e-05 -0.000132129)
(0.000976136 3.40396e-05 -6.35551e-05)
(0.000577734 7.15824e-06 -2.72035e-05)
(0.000357396 -7.31716e-06 -1.0936e-06)
(0.000224961 -1.24063e-05 9.18065e-06)
(0.000157697 -1.8865e-05 1.77413e-05)
(0.00010483 -1.84008e-05 1.24382e-05)
(0.00010483 -1.84008e-05 1.24382e-05)
(0.00010483 -1.84008e-05 1.24382e-05)
(0.00171714 7.64155e-05 -0.000131449)
(0.00103404 3.48673e-05 -6.72099e-05)
(0.000630482 7.10637e-06 -3.19921e-05)
(0.000404503 -9.21301e-06 -5.03488e-06)
(0.000264171 -1.71582e-05 8.77311e-06)
(0.000190501 -2.39188e-05 1.73757e-05)
(0.000190501 -2.39188e-05 1.73757e-05)
)
;
    }
    procBoundary6to4
    {
        type            processor;
        value           nonuniform List<vector> 
27
(
(0.00160598 -2.29076e-05 -6.62198e-05)
(0.000902158 -8.06606e-06 -3.2359e-05)
(0.00051144 -3.92939e-06 -1.51016e-05)
(0.000294895 -1.72018e-07 -1.26304e-06)
(0.000173675 9.44402e-07 4.75717e-06)
(0.000105402 3.78887e-06 7.3593e-06)
(6.55402e-05 6.65869e-07 7.45106e-06)
(3.92208e-05 -1.28478e-06 8.20189e-06)
(2.17452e-05 -2.05473e-06 5.00299e-06)
(0.00163521 -1.66408e-05 7.97517e-07)
(0.000930799 -5.87641e-06 -2.98816e-06)
(0.000531809 -4.16559e-06 -6.1226e-06)
(0.000312588 -1.70872e-06 -3.08851e-06)
(0.000184511 -1.65185e-06 -2.04846e-07)
(0.000117952 -1.11389e-06 2.89662e-08)
(7.20572e-05 -2.52106e-06 -8.98754e-08)
(5.15547e-05 -4.31329e-06 -4.19184e-06)
(2.6179e-05 -5.69485e-06 -1.51885e-06)
(0.00168047 -1.57513e-05 2.54222e-05)
(0.000980503 -9.44483e-06 9.64039e-06)
(0.000574408 -6.19214e-06 -7.6346e-07)
(0.000353255 -3.21594e-06 -2.54237e-06)
(0.000217212 -3.56801e-06 -1.61634e-06)
(0.000148912 -3.91948e-06 -8.67522e-07)
(9.67854e-05 -5.74032e-06 -3.71909e-06)
(7.77749e-05 -8.47705e-06 -7.22663e-06)
(4.3454e-05 -1.30082e-05 -5.10329e-06)
)
;
    }
    procBoundary6to7
    {
        type            processor;
        value           nonuniform List<vector> 
12
(
(2.13677e-05 -1.05824e-05 5.98916e-06)
(5.1052e-05 -2.11427e-05 1.93818e-06)
(6.30683e-05 -2.96852e-05 -3.51837e-06)
(7.55292e-06 -8.93366e-06 6.90422e-07)
(6.67081e-06 -2.0624e-05 -8.92469e-07)
(-1.60956e-07 -3.18649e-05 -3.25737e-06)
(5.54056e-06 -1.22427e-05 -7.03071e-06)
(1.70771e-05 -2.491e-05 -1.16071e-05)
(1.6406e-05 -3.22444e-05 -7.77373e-06)
(1.17706e-05 -1.53321e-05 -1.83314e-05)
(1.40518e-05 -2.4078e-05 -2.17919e-05)
(1.23076e-05 -3.10572e-05 -2.1181e-05)
)
;
    }
}


// ************************************************************************* //
