/*--------------------------------*- C++ -*----------------------------------*\
  =========                 |
  \\      /  F ield         | OpenFOAM: The Open Source CFD Toolbox
   \\    /   O peration     | Website:  https://openfoam.org
    \\  /    A nd           | Version:  4.x
     \\/     M anipulation  |
\*---------------------------------------------------------------------------*/
FoamFile
{
    version     2.0;
    format      ascii;
    class       Cloud<passiveParticle>;
    location    0;
    object      positions;
}
// * * * * * * * * * * * * * * * * * * * * * * * * * * * * * * * * * * * * * //

235
(
( 0.250404 -0.0571916 -0.0378529 ) 63
( 0.253527 -0.0190849 -0.0429277 ) 45
( 0.252924 -0.0642347 -0.0651381 ) 36
( 0.254012 -0.073869 -0.0477684 ) 27
( 0.256135 -0.0383749 -0.0387071 ) 72
( 0.250851 -0.0262756 0.00331034 ) 86
( 0.257027 -0.0654629 0.00461707 ) 84
( 0.251764 -0.0232859 -0.0165635 ) 72
( 0.257504 -0.076024 -0.013922 ) 81
( 0.252779 -0.0902802 -0.00140363 ) 81
( 0.353823 -0.0661179 -0.0606275 ) 39
( 0.379394 -0.0900548 -0.0645144 ) 31
( 0.402417 -0.052582 -0.0632367 ) 41
( 0.313135 -0.0442794 -0.0461993 ) 38
( 0.416668 -0.0900009 -0.0798455 ) 6
( 0.362342 -0.0749508 -0.0398727 ) 58
( 0.303152 -0.0282228 -0.0373679 ) 73
( 0.353196 -0.0312008 -0.0499228 ) 48
( 0.412515 -0.0901865 -0.0422712 ) 59
( 0.446063 -0.0468227 -0.0353816 ) 70
( 0.472131 -0.0451939 -0.0595244 ) 43
( 0.288554 -0.0268148 -0.0598667 ) 46
( 0.420588 -0.0900976 -0.0603221 ) 33
( 0.447717 -0.0149976 -0.0454199 ) 52
( 0.33588 -0.0578419 -0.0578843 ) 39
( 0.437858 -0.0312821 -0.063425 ) 51
( 0.300855 -0.0423569 -0.0616637 ) 46
( 0.406903 -0.0246273 -0.0794996 ) 23
( 0.490045 -0.0448112 -0.045821 ) 44
( 0.337352 -0.0762486 -0.0653797 ) 30
( 0.406594 -0.0147811 -0.0568432 ) 50
( 0.343283 -0.0546509 -0.0245535 ) 66
( 0.274391 -0.0540015 -0.058766 ) 36
( 0.478831 -0.0300448 -0.0284296 ) 80
( 0.35946 -0.0144981 -0.0796375 ) 21
( 0.43151 -0.0440021 -0.0495304 ) 42
( 0.341934 -0.0338691 -0.0339054 ) 75
( 0.46697 -0.0213915 -0.0521735 ) 52
( 0.359818 -0.0510028 -0.0723003 ) 12
( 0.362534 -0.0502757 -0.0526163 ) 40
( 0.418208 -0.0295167 -0.0464937 ) 51
( 0.418627 -0.0725621 -0.0694092 ) 33
( 0.468715 -0.07392 -0.0515573 ) 34
( 0.321321 -0.0477359 -0.071901 ) 11
( 0.333682 -0.0393647 -0.0509988 ) 48
( 0.430264 -0.0585409 -0.0361358 ) 69
( 0.437736 -0.072888 -0.0749571 ) 6
( 0.451669 -0.090164 -0.0491583 ) 34
( 0.287973 -0.0901752 -0.068174 ) 28
( 0.400214 -0.0732622 -0.0769967 ) 5
( 0.468248 -0.0413102 -0.0405743 ) 79
( 0.474032 -0.021122 -0.0860882 ) 26
( 0.269026 -0.0224704 -0.0729265 ) 18
( 0.409176 -0.0444617 -0.0801545 ) 14
( 0.401746 -0.0900787 -0.0665641 ) 32
( 0.45328 -0.0190153 -0.0664188 ) 52
( 0.327916 -0.0743425 -0.0419178 ) 56
( 0.410755 -0.0720991 -0.0510668 ) 32
( 0.379029 -0.0677017 -0.0324812 ) 67
( 0.324539 -0.0879469 -0.0752567 ) 2
( 0.340283 -0.0421496 -0.0695314 ) 48
( 0.436602 -0.0459449 -0.0768296 ) 15
( 0.270361 -0.0254446 -0.0349432 ) 72
( 0.273053 -0.0863615 -0.0204385 ) 54
( 0.440807 -0.0583615 -0.0618566 ) 42
( 0.384744 -0.0608895 -0.0664416 ) 40
( 0.380939 -0.0417274 -0.0342683 ) 76
( 0.409249 -0.0145525 -0.0371727 ) 77
( 0.456099 -0.0796977 -0.0697111 ) 34
( 0.295623 -0.0697965 -0.0272647 ) 64
( 0.489857 -0.0756066 -0.0426706 ) 62
( 0.302707 -0.0900957 -0.0445205 ) 28
( 0.379459 -0.0428693 -0.0598782 ) 40
( 0.366906 -0.0276967 -0.0359343 ) 76
( 0.328297 -0.0901897 -0.029767 ) 56
( 0.458342 -0.0531505 -0.0836425 ) 16
( 0.479947 -0.0739904 -0.0701674 ) 35
( 0.485333 -0.0614254 -0.0557275 ) 44
( 0.272225 -0.0170456 -0.054072 ) 45
( 0.413922 -0.0529767 -0.0462127 ) 41
( 0.2879 -0.0667094 -0.0659694 ) 37
( 0.381592 -0.0261848 -0.049332 ) 49
( 0.298689 -0.0169346 -0.0738868 ) 19
( 0.356967 -0.0751144 -0.0780179 ) 3
( 0.34754 -0.0870597 -0.0352243 ) 57
( 0.454402 -0.0316974 -0.0844619 ) 25
( 0.483137 -0.0552366 -0.0828358 ) 17
( 0.374665 -0.022453 -0.0676697 ) 49
( 0.308017 -0.0245048 -0.0562359 ) 47
( 0.271577 -0.0738738 -0.0570855 ) 27
( 0.425825 -0.0155357 -0.0617917 ) 51
( 0.316209 -0.0603196 -0.0574607 ) 38
( 0.439879 -0.0901061 -0.0650648 ) 33
( 0.356828 -0.086827 -0.0548622 ) 30
( 0.432379 -0.0901894 -0.04436 ) 33
( 0.276451 -0.066947 -0.023125 ) 63
( 0.318468 -0.0899538 -0.0564633 ) 29
( 0.372344 -0.073058 -0.0568608 ) 31
( 0.467983 -0.0611006 -0.0365442 ) 70
( 0.456295 -0.0531403 -0.0510424 ) 43
( 0.270866 -0.0901522 -0.0398381 ) 54
( 0.393709 -0.0274989 -0.0649584 ) 50
( 0.302761 -0.0789972 -0.0614677 ) 28
( 0.3228 -0.0301697 -0.0362798 ) 74
( 0.269357 -0.0854811 -0.073257 ) 0
( 0.388245 -0.0577179 -0.046898 ) 40
( 0.392228 -0.0868319 -0.0277791 ) 59
( 0.49033 -0.0457867 -0.0668622 ) 44
( 0.418145 -0.0339262 -0.0658062 ) 51
( 0.481866 -0.0495722 -0.0283546 ) 71
( 0.280219 -0.039262 -0.0467877 ) 46
( 0.490032 -0.0249863 -0.043971 ) 53
( 0.437034 -0.0295134 -0.0370755 ) 78
( 0.454084 -0.0421925 -0.0675141 ) 52
( 0.341316 -0.0223584 -0.0774972 ) 21
( 0.470521 -0.0888795 -0.0822756 ) 7
( 0.476137 -0.0900862 -0.0427037 ) 62
( 0.436684 -0.0901391 -0.0846821 ) 6
( 0.374069 -0.090032 -0.0453456 ) 31
( 0.430707 -0.0716348 -0.0510884 ) 33
( 0.269757 -0.0604193 -0.0405638 ) 63
( 0.451876 -0.0339532 -0.0494869 ) 52
( 0.289097 -0.0569488 -0.044162 ) 37
( 0.302867 -0.0516372 -0.0308374 ) 64
( 0.393687 -0.0901197 -0.0483883 ) 32
( 0.279061 -0.0396627 -0.0717272 ) 19
( 0.39618 -0.0397311 -0.0495297 ) 50
( 0.337513 -0.0904008 -0.0515413 ) 30
( 0.422031 -0.0534103 -0.0651496 ) 42
( 0.325026 -0.0552164 -0.0324444 ) 65
( 0.346392 -0.0634737 -0.0420397 ) 66
( 0.47142 -0.0902146 -0.0624414 ) 34
( 0.270226 -0.0649743 -0.0748983 ) 9
( 0.315052 -0.0703807 -0.0745939 ) 11
( 0.451348 -0.0772413 -0.0889006 ) 7
( 0.306099 -0.0705423 -0.0439703 ) 38
( 0.290429 -0.0900907 -0.0290513 ) 55
( 0.396277 -0.0290875 -0.0329173 ) 77
( 0.372415 -0.0631987 -0.0818426 ) 13
( 0.389067 -0.0890867 -0.0818883 ) 5
( 0.49007 -0.0319839 -0.0812472 ) 26
( 0.46011 -0.0902728 -0.0313391 ) 61
( 0.357059 -0.0314598 -0.0693328 ) 48
( 0.314594 -0.0291489 -0.0744537 ) 20
( 0.460171 -0.0245942 -0.0328341 ) 79
( 0.418762 -0.0741182 -0.0327742 ) 60
( 0.490302 -0.0899369 -0.0563693 ) 35
( 0.340077 -0.019371 -0.0146908 ) 75
( 0.297884 -0.0651195 0.0107076 ) 85
( 0.382376 -0.028146 -0.0188007 ) 76
( 0.454688 -0.0159305 -0.0149659 ) 79
( 0.293397 -0.0901614 -0.00947195 ) 82
( 0.441634 -0.0578162 -0.0197019 ) 69
( 0.301389 -0.0291484 -0.0169113 ) 73
( 0.461346 -0.0480014 -0.0232328 ) 70
( 0.289776 -0.0841313 0.0124132 ) 82
( 0.399907 -0.0396909 -0.0147615 ) 77
( 0.277126 -0.0520676 -0.00138424 ) 84
( 0.342738 -0.0900505 -0.0161577 ) 57
( 0.447465 -0.0336402 -0.0204332 ) 79
( 0.368415 -0.0533824 -0.0194112 ) 67
( 0.316557 -0.0412972 -0.0210022 ) 74
( 0.429377 -0.0729818 -0.0160254 ) 60
( 0.273105 -0.0903848 -0.00100698 ) 81
( 0.287743 -0.0514074 -0.0180571 ) 64
( 0.260921 -0.0432014 0.00583603 ) 84
( 0.35534 -0.0308625 -0.0199458 ) 75
( 0.2737 -0.071094 -0.00396819 ) 84
( 0.292701 -0.0677966 -0.00793658 ) 85
( 0.309488 -0.0902016 -0.0230956 ) 56
( 0.410154 -0.023789 -0.0199159 ) 77
( 0.307103 -0.0903211 0.00468611 ) 83
( 0.387254 -0.0722091 -0.0151154 ) 58
( 0.267855 -0.020603 -0.00526922 ) 86
( 0.436672 -0.0156598 -0.0228291 ) 78
( 0.429664 -0.0424723 -0.0239534 ) 78
( 0.325953 -0.0901774 0.0106769 ) 83
( 0.36738 -0.0152129 -0.020612 ) 76
( 0.268229 -0.0415685 -0.0232626 ) 72
( 0.388973 -0.0422053 -0.0774182 ) 23
( 0.450083 -0.070842 -0.0450716 ) 43
( 0.284796 -0.0763274 -0.0424883 ) 55
( 0.421752 -0.0594728 -0.0841177 ) 15
( 0.305137 -0.0515444 -0.00829335 ) 85
( 0.439632 -0.0188418 -0.0809004 ) 24
( 0.490042 -0.0900575 -0.0762604 ) 8
( 0.323414 -0.090297 -0.00894732 ) 83
( 0.399162 -0.069563 -0.0350896 ) 68
( 0.406976 -0.072226 -0.0170356 ) 59
( 0.264535 -0.0349867 -0.0581193 ) 45
( 0.464475 -0.0619438 -0.0668467 ) 43
( 0.481944 -0.0282655 -0.0632442 ) 53
( 0.342846 -0.0606462 -0.0763941 ) 12
( 0.25634 -0.0900997 -0.0589816 ) 27
( 0.329011 -0.0234921 -0.0619386 ) 47
( 0.447417 -0.0754159 -0.026066 ) 61
( 0.358042 -0.0453478 -0.0340785 ) 66
( 0.471782 -0.0393654 -0.0784673 ) 25
( 0.490281 -0.0697117 -0.0238522 ) 71
( 0.413255 -0.0902475 -0.022446 ) 59
( 0.256375 -0.0567427 -0.0183103 ) 63
( 0.334782 -0.0726466 -0.023297 ) 57
( 0.354298 -0.074827 -0.0216263 ) 57
( 0.254911 -0.0900667 -0.0275631 ) 54
( 0.286659 -0.0347125 -0.0287331 ) 73
( 0.311514 -0.0738512 -0.00536686 ) 83
( 0.31537 -0.0716384 -0.026615 ) 56
( 0.293925 -0.0461776 0.00703483 ) 85
( 0.471699 -0.0761547 -0.0240614 ) 61
( 0.43496 -0.0903888 -0.0248455 ) 60
( 0.335399 -0.0386121 -0.0158285 ) 75
( 0.41159 -0.0506928 -0.026576 ) 68
( 0.365583 -0.0902143 -0.0274627 ) 58
( 0.391513 -0.0549903 -0.023898 ) 68
( 0.293757 -0.0517864 -0.0777115 ) 10
( 0.250537 -0.0800561 -0.0769217 ) 0
( 0.344087 -0.090146 -0.0786091 ) 3
( 0.440841 -0.0602651 -0.0900182 ) 15
( 0.490035 -0.073437 -0.0873379 ) 8
( 0.387277 -0.0225308 -0.0831441 ) 22
( 0.304931 -0.0891649 -0.0785765 ) 1
( 0.469565 -0.0693948 -0.0865402 ) 16
( 0.424865 -0.0317595 -0.0844399 ) 24
( 0.370336 -0.0377048 -0.0828126 ) 22
( 0.396152 -0.057321 -0.0881495 ) 14
( 0.330162 -0.0366035 -0.0858529 ) 20
( 0.263802 -0.0474177 -0.0819105 ) 9
( 0.297008 -0.0713841 -0.0830641 ) 10
( 0.298075 -0.0336499 -0.0846789 ) 19
( 0.334135 -0.0750595 -0.0870562 ) 3
( 0.287346 -0.0897891 -0.0880657 ) 1
( 0.369182 -0.0900483 -0.0830031 ) 4
( 0.323021 -0.0585431 -0.0885538 ) 11
( 0.350788 -0.0398365 -0.0863118 ) 21
( 0.277103 -0.0305149 -0.0893177 ) 18
)
