/*--------------------------------*- C++ -*----------------------------------*\
| =========                 |                                                 |
| \\      /  F ield         | OpenFOAM: The Open Source CFD Toolbox           |
|  \\    /   O peration     | Version:  4.x                                   |
|   \\  /    A nd           | Web:      www.OpenFOAM.org                      |
|    \\/     M anipulation  |                                                 |
\*---------------------------------------------------------------------------*/
FoamFile
{
    version     2.0;
    format      ascii;
    class       volScalarField;
    location    "4.5";
    object      nu;
}
// * * * * * * * * * * * * * * * * * * * * * * * * * * * * * * * * * * * * * //

dimensions      [0 2 -1 0 0 0 0];

internalField   nonuniform List<scalar> 
108
(
9.99916e-07
9.99605e-07
9.99401e-07
9.99342e-07
9.99389e-07
9.99434e-07
9.99564e-07
9.99655e-07
9.99366e-07
1.00007e-06
9.99749e-07
9.99488e-07
9.99324e-07
9.99244e-07
9.9923e-07
9.99298e-07
9.99351e-07
9.98656e-07
1.00026e-06
9.99897e-07
9.99626e-07
9.99393e-07
9.99275e-07
9.9921e-07
9.99201e-07
9.99255e-07
9.98271e-07
1.00111e-06
1.0008e-06
1.00053e-06
1.00025e-06
1.00004e-06
9.99902e-07
9.99758e-07
9.99697e-07
9.90304e-07
9.99716e-07
9.99495e-07
9.99324e-07
9.99263e-07
9.99264e-07
9.993e-07
9.99422e-07
9.99541e-07
9.9898e-07
9.99829e-07
9.99599e-07
9.994e-07
9.99251e-07
9.99199e-07
9.99218e-07
9.99283e-07
9.99379e-07
9.98919e-07
9.99951e-07
9.9968e-07
9.99406e-07
9.99207e-07
9.99231e-07
9.99307e-07
9.99234e-07
9.9933e-07
9.99226e-07
1.00078e-06
1.00058e-06
1.00031e-06
1.00004e-06
9.99963e-07
9.99884e-07
9.99771e-07
9.99681e-07
9.95969e-07
9.99896e-07
9.99735e-07
9.99569e-07
9.99389e-07
9.99286e-07
9.99296e-07
9.99421e-07
9.99569e-07
9.99686e-07
9.99799e-07
9.9964e-07
9.99497e-07
9.99367e-07
9.9926e-07
9.99216e-07
9.99278e-07
9.99352e-07
9.99127e-07
9.99848e-07
9.99564e-07
9.99443e-07
9.99406e-07
9.99293e-07
9.99286e-07
9.99268e-07
9.99331e-07
9.98295e-07
1.00055e-06
1.00038e-06
1.00029e-06
1.00018e-06
1.00006e-06
9.99933e-07
9.99798e-07
9.99731e-07
9.9005e-07
)
;

boundaryField
{
    inlet
    {
        type            calculated;
        value           nonuniform 0();
    }
    outlet
    {
        type            calculated;
        value           uniform 1e-06;
    }
    wall
    {
        type            calculated;
        value           nonuniform List<scalar> 
63
(
9.99916e-07
1.00007e-06
1.00026e-06
1.00111e-06
9.99605e-07
9.99749e-07
9.99897e-07
1.0008e-06
9.99401e-07
9.99488e-07
9.99626e-07
1.00053e-06
9.99342e-07
9.99324e-07
9.99393e-07
1.00025e-06
9.99389e-07
9.99244e-07
9.99275e-07
1.00004e-06
9.99434e-07
9.9923e-07
9.9921e-07
9.99902e-07
9.99564e-07
9.99298e-07
9.99201e-07
9.99758e-07
9.99655e-07
9.99351e-07
9.99255e-07
9.99697e-07
9.99366e-07
9.98656e-07
9.98271e-07
9.90304e-07
1.00111e-06
1.00078e-06
1.00055e-06
1.0008e-06
1.00058e-06
1.00038e-06
1.00053e-06
1.00031e-06
1.00029e-06
1.00025e-06
1.00004e-06
1.00018e-06
1.00004e-06
9.99963e-07
1.00006e-06
9.99902e-07
9.99884e-07
9.99933e-07
9.99758e-07
9.99771e-07
9.99798e-07
9.99697e-07
9.99681e-07
9.99731e-07
9.90304e-07
9.95969e-07
9.9005e-07
)
;
    }
    procBoundary3to1
    {
        type            processor;
        value           nonuniform List<scalar> 
27
(
9.99973e-07
9.99621e-07
9.99437e-07
9.99329e-07
9.99368e-07
9.99495e-07
9.99654e-07
9.99798e-07
9.99888e-07
9.99647e-07
9.99421e-07
9.99274e-07
9.9923e-07
9.99258e-07
9.99334e-07
9.99444e-07
9.99556e-07
9.99356e-07
9.99623e-07
9.99473e-07
9.99326e-07
9.99281e-07
9.993e-07
9.99359e-07
9.99426e-07
9.995e-07
9.99152e-07
)
;
    }
    procBoundary3to2
    {
        type            processor;
        value           nonuniform List<scalar> 
12
(
1.00031e-06
1.00043e-06
1.00067e-06
1.00139e-06
9.99998e-07
1.00008e-06
1.00021e-06
1.00098e-06
1.00003e-06
9.99961e-07
1.00005e-06
1.0007e-06
)
;
    }
    procBoundary3to7
    {
        type            processor;
        value           nonuniform List<scalar> 
36
(
9.99865e-07
9.99751e-07
9.99654e-07
9.99539e-07
9.99446e-07
9.99502e-07
9.99788e-07
9.99906e-07
9.99993e-07
9.99777e-07
9.99671e-07
9.99581e-07
9.99474e-07
9.99381e-07
9.9936e-07
9.99479e-07
9.99567e-07
9.99864e-07
9.9979e-07
9.99597e-07
9.9949e-07
9.9945e-07
9.99381e-07
9.99384e-07
9.99408e-07
9.99451e-07
9.99499e-07
1.00039e-06
1.00031e-06
1.00021e-06
1.00014e-06
1.00005e-06
9.99989e-07
9.99869e-07
9.99823e-07
9.94905e-07
)
;
    }
}


// ************************************************************************* //
