/*--------------------------------*- C++ -*----------------------------------*\
| =========                 |                                                 |
| \\      /  F ield         | OpenFOAM: The Open Source CFD Toolbox           |
|  \\    /   O peration     | Version:  4.x                                   |
|   \\  /    A nd           | Web:      www.OpenFOAM.org                      |
|    \\/     M anipulation  |                                                 |
\*---------------------------------------------------------------------------*/
FoamFile
{
    version     2.0;
    format      ascii;
    class       volScalarField;
    location    "4.5";
    object      pSmooth;
}
// * * * * * * * * * * * * * * * * * * * * * * * * * * * * * * * * * * * * * //

dimensions      [1 -1 -2 0 0 0 0];

internalField   nonuniform List<scalar> 
108
(
41.2679
99.2673
10.8355
90.9485
0.1
71.5235
0.1
68.2762
0.1
38.7638
98.8545
5.82418
85.575
0.1
77.7452
0.1
73.7714
0.1
39.8274
100.535
6.62363
87.1607
0.1
72.5267
0.1
68.5374
0.1
43.2026
103.428
10.1869
89.5196
0.1
79.8309
0.1
78.587
0.1
39.2397
98.4744
9.83779
87.53
0.1
74.2738
0.1
68.7443
0.1
39.048
98.4237
7.97
85.9364
0.1
77.6738
0.1
72.8973
0.1
41.124
99.7732
12.7432
91.6782
0.1
69.3188
0.1
68.2416
0.1
41.9867
101.859
10.207
89.0737
0.1
79.3298
0.1
73.6094
0.1
42.1679
100.457
13.5056
86.5908
0.1
75.4084
0.1
69.3646
0.1
39.6398
98.9505
9.34003
85.7501
0.1
78.0289
0.1
74.8338
0.1
42.4135
103.717
2.55471
81.2094
0.1
74.6116
0.1
69.8638
0.1
40.224
100.424
7.51233
87.8913
0.1
79.4435
0.1
77.0014
0.1
)
;

boundaryField
{
    inlet
    {
        type            zeroGradient;
    }
    outlet
    {
        type            fixedValue;
        value           uniform 0;
    }
    wall
    {
        type            zeroGradient;
    }
    procBoundary3to1
    {
        type            processor;
        value           nonuniform List<scalar> 
27
(
38.3184
98.7461
7.49959
86.2663
0.1
78.296
0.1
74.3321
0.1
38.1478
98.474
7.67085
86.5785
0.1
77.7148
0.1
73.5972
0.1
39.6793
98.8346
10.1312
86.6296
0.1
78.2609
0.1
74.5018
0.1
)
;
    }
    procBoundary3to2
    {
        type            processor;
        value           nonuniform List<scalar> 
12
(
115.725
114.919
116.848
119.256
114.661
113.905
114.399
116.594
114.637
113.662
114.729
115.087
)
;
    }
    procBoundary3to7
    {
        type            processor;
        value           nonuniform List<scalar> 
36
(
41.0151
99.3815
12.9366
86.7967
0.1
78.9693
0.1
73.9361
0.1
38.7505
98.8828
8.35916
86.9353
0.1
78.9529
0.1
75.3825
0.1
39.802
98.7942
4.90545
86.4089
0.1
75.5998
0.1
71.247
0.1
38.5878
98.5639
7.04101
87.3607
0.1
79.8364
0.1
79.6121
0.1
)
;
    }
}


// ************************************************************************* //
