/*--------------------------------*- C++ -*----------------------------------*\
| =========                 |                                                 |
| \\      /  F ield         | OpenFOAM: The Open Source CFD Toolbox           |
|  \\    /   O peration     | Version:  4.x                                   |
|   \\  /    A nd           | Web:      www.OpenFOAM.org                      |
|    \\/     M anipulation  |                                                 |
\*---------------------------------------------------------------------------*/
FoamFile
{
    version     2.0;
    format      ascii;
    class       volVectorField;
    location    "4.5";
    object      U;
}
// * * * * * * * * * * * * * * * * * * * * * * * * * * * * * * * * * * * * * //

dimensions      [0 1 -1 0 0 0 0];

internalField   nonuniform List<vector> 
108
(
(0.000451167 3.8666e-06 -1.87374e-05)
(0.0306186 0.00112134 -0.000157374)
(0.000508208 3.9791e-05 -3.67114e-05)
(0.0303474 -0.000245533 0.00297494)
(-0.0164433 -0.00124167 -0.00501052)
(0.0377188 -0.00100302 -0.00760743)
(0.00279355 0.000991774 -0.000693876)
(0.0390788 -0.0019749 -0.0021859)
(0.00805029 0.00967742 -0.00426214)
(0.00467471 0.000561003 -0.000539322)
(0.0349566 0.00107201 -0.000542632)
(0.00635866 0.00128172 -0.00127627)
(0.0382917 0.00433599 -0.00106073)
(0.00621844 0.00228467 -0.00157174)
(0.0411161 -0.00203265 -0.00132722)
(0.00744791 0.00278114 -0.0032256)
(0.0480862 -0.00173951 -0.00137203)
(0.00935753 0.00711147 -0.00933012)
(0.00192942 0.000156228 -0.000363191)
(0.0335413 0.000719751 -0.00153996)
(0.0063174 0.000159706 -0.00431273)
(0.0370167 0.000742428 -0.00776445)
(0.0133191 0.000963217 0.00167902)
(0.0432573 0.0010505 0.00556963)
(0.00761458 0.00184268 -0.000943253)
(0.0464171 -0.00140181 -0.00100666)
(0.00890325 0.00809685 -0.0128928)
(0.0198667 0.00219107 0.000598483)
(0.0406871 0.00290978 0.00115774)
(0.0193026 0.00289039 -0.000813269)
(0.0445087 0.0049563 -0.00103192)
(0.0226081 0.00449891 -4.51949e-05)
(0.0508645 0.000962802 0.00040819)
(0.0220328 0.00366881 -0.00237019)
(0.0614352 -0.00201209 8.23887e-05)
(0.0168658 0.0104673 -0.0198355)
(0.00109551 3.76389e-05 -0.000422388)
(0.0311322 0.00114367 -0.00209048)
(0.000518466 4.44826e-05 -0.00029229)
(0.0340756 -0.000480996 0.00381774)
(0.00821925 0.000595033 -0.00400729)
(0.0297712 -0.000406253 -0.00662463)
(0.00146361 0.00026665 -0.00199089)
(0.0335546 -0.000542389 -0.00302917)
(0.00689925 0.00230914 -0.0179473)
(0.00275681 -0.000263521 -0.000563932)
(0.0328071 -6.33196e-05 -0.00158925)
(0.00462844 -0.00140676 -0.00163505)
(0.0332741 -0.00665912 -0.000780285)
(0.00384888 0.00312625 -0.00245516)
(0.0349557 0.00636513 -0.00322014)
(0.00431058 0.00251663 -0.00310909)
(0.0368033 0.000142654 -0.00273514)
(0.00600333 0.00095801 -0.00589622)
(0.00369806 -1.7605e-05 -0.000864829)
(0.0260729 -0.000834185 -0.00576929)
(-2.20197e-07 -2.35923e-08 6.80108e-07)
(0.0151303 6.73133e-05 -0.00099614)
(-0.0239454 0.00147025 -0.00931392)
(0.0241664 -0.000473763 -0.00392381)
(0.000289021 0.00120289 -0.00155671)
(0.0279602 -0.000297077 -0.00153885)
(0.00539201 0.00540637 -0.00504715)
(0.0201359 0.00292901 0.00137209)
(0.0398926 0.00207129 0.00242463)
(0.0178318 0.00631314 0.00144771)
(0.0430963 0.00963554 0.00254331)
(0.0214696 0.000620048 0.000147102)
(0.0454799 -0.00662364 0.000997474)
(0.0124503 0.000404479 -0.00126581)
(0.0448885 -0.00397781 0.000356233)
(0.0083483 0.013345 -0.0216149)
(0.00226118 -3.27513e-05 -0.000985285)
(0.0301654 -0.000475791 -0.000636303)
(0.000742628 5.01395e-05 -0.000565447)
(0.0305944 0.0010065 7.33119e-05)
(0.00245434 0.000204279 -0.0030446)
(0.0254305 -0.000220033 -0.00755878)
(0.00267208 0.000566907 -0.00583071)
(0.0221699 -0.000473949 -0.00941386)
(-0.00086626 0.00149613 -0.0225843)
(0.00288568 0.000560955 -0.000435073)
(0.0321184 -0.00383847 -0.00125833)
(0.00270848 0.00152769 -0.000727164)
(0.0351038 0.00677501 -0.00182376)
(0.00578275 0.00578613 -0.00318208)
(0.0365457 0.00247514 -0.00296326)
(0.00670115 0.00790114 -0.00470627)
(0.0437462 0.00327433 -0.00489254)
(0.00653897 0.0200511 -0.0174327)
(6.83722e-07 6.84221e-07 1.98794e-07)
(0.0231697 -0.00114523 -0.00049373)
(-0.0184033 -0.00227884 -0.000431404)
(0.0341187 -0.00230394 -0.000486488)
(0.00272267 0.000662252 -0.00388999)
(0.0342229 -0.000607747 -0.00761067)
(0.00318428 0.00153162 -0.00140501)
(0.0426078 -0.00094867 -0.00356013)
(0.0084284 0.016897 -0.00498128)
(0.0216873 0.00395996 0.00311645)
(0.0427415 0.00617025 0.00412208)
(0.0256688 0.0013483 0.00354898)
(0.0458056 -0.00259377 0.00423391)
(0.0223199 -0.00190533 0.000860341)
(0.0487807 -0.00332962 0.00140067)
(0.0180172 0.00305113 0.00146682)
(0.0591008 -0.00342173 -0.00148714)
(0.0133587 0.0160089 -0.0158442)
)
;

boundaryField
{
    inlet
    {
        type            fixedValue;
        value           nonuniform 0();
    }
    outlet
    {
        type            zeroGradient;
    }
    wall
    {
        type            fixedValue;
        value           uniform (0 0 0);
    }
    procBoundary3to1
    {
        type            processor;
        value           nonuniform List<vector> 
27
(
(0.00201724 -0.00055424 -0.000380515)
(0.0325245 -0.000319855 -0.000986463)
(0.00078936 -0.000190231 -0.000220465)
(0.0336168 -0.00556201 -0.00105963)
(0.000156631 -6.63807e-05 -6.34938e-05)
(0.0340426 0.00484565 -0.000841136)
(0.000437932 -1.5147e-07 -7.74468e-05)
(0.0327593 -0.000144651 -0.000178182)
(0.00449225 0.00131777 0.000369688)
(0.0021432 -0.000436989 -0.000573294)
(0.0323289 -0.000366845 -0.00170999)
(0.000435651 -6.40707e-05 -0.000182531)
(0.0330962 -0.000816365 -0.00119781)
(0.000153715 -5.78822e-05 -8.10836e-05)
(0.0335454 0.000959399 -0.00109112)
(0.000109349 -3.73977e-05 -1.64676e-05)
(0.0357927 4.58619e-05 -0.00153895)
(0.00581677 -0.000968796 0.00220385)
(0.0013275 -0.000330116 -0.000336437)
(0.031672 -0.00207759 -0.00136185)
(0.000530739 -0.000224742 -0.000202706)
(0.0328083 0.00166747 -0.00143095)
(0.000244097 -0.000134417 -0.000124023)
(0.0346158 -0.000378912 -0.00141009)
(0.00397157 -0.00439219 -0.00197622)
(0.042608 -0.00301376 -0.00450987)
(0.0074965 -0.0166666 -0.0131292)
)
;
    }
    procBoundary3to2
    {
        type            processor;
        value           nonuniform List<vector> 
12
(
(0.0302516 0.000244067 0.000133691)
(0.0326636 0.000503284 -0.000576368)
(0.0327064 0.00101581 0.000977094)
(0.0391081 0.00280927 0.00213686)
(0.0295676 0.000273526 -0.00136797)
(0.0317936 0.000390307 -0.000781829)
(0.0285514 0.000381263 -0.000271863)
(0.0383732 0.00134974 0.00358781)
(0.0290168 0.000433177 -0.000251354)
(0.0311783 6.26739e-05 -0.000348868)
(0.0265822 -0.000371442 0.000130233)
(0.0388003 0.00189298 0.00456106)
)
;
    }
    procBoundary3to7
    {
        type            processor;
        value           nonuniform List<vector> 
36
(
(0.00465229 0.000146869 -0.00146278)
(0.0286032 0.000286577 0.000469358)
(0.0022595 0.000257195 -0.00156578)
(0.0268551 0.000338387 -0.00400799)
(0.00240156 0.000414865 -0.00391691)
(0.0190598 5.50077e-05 -0.0111781)
(-0.0147767 0.000584023 -0.010005)
(-0.000370234 2.91803e-05 -0.00697344)
(-0.0283383 -0.000994889 -0.0202768)
(0.00257457 0.000628885 -0.00052137)
(0.0321095 0.00221377 -0.00154019)
(0.00419351 0.00188244 -0.00157851)
(0.0325303 -0.000726696 -0.00159721)
(0.00520632 0.00421304 -0.00296399)
(0.03224 0.00677494 -0.00496684)
(0.00382479 0.0123323 -0.0100681)
(0.0255719 0.00761765 -0.00367062)
(-0.00220977 0.0249063 -0.0251197)
(0.000796446 2.42429e-05 -0.00028736)
(0.0292388 -0.000731067 0.00239774)
(0.00378802 0.000153137 -0.0104036)
(0.0303559 -0.00139147 -0.0144863)
(0.000502047 0.000196909 -0.000348178)
(0.0336234 -0.000871967 0.000145364)
(0.00369355 0.00532858 -0.00417321)
(0.0406862 -0.000744854 -0.00168572)
(0.0056041 0.0350588 -0.0225508)
(0.024207 0.00118066 0.00180587)
(0.0429834 -0.000103961 0.00288147)
(0.0245833 0.00121519 -0.00120656)
(0.0472835 0.00156417 0.000373414)
(0.0259646 0.00278432 -0.00255773)
(0.0523344 -0.00229334 0.000491812)
(0.021959 0.00489596 -0.00571286)
(0.0664697 -0.0013716 -0.000702742)
(0.0157668 0.0241301 -0.0340351)
)
;
    }
}


// ************************************************************************* //
