/*--------------------------------*- C++ -*----------------------------------*\
| =========                 |                                                 |
| \\      /  F ield         | OpenFOAM: The Open Source CFD Toolbox           |
|  \\    /   O peration     | Version:  4.x                                   |
|   \\  /    A nd           | Web:      www.OpenFOAM.org                      |
|    \\/     M anipulation  |                                                 |
\*---------------------------------------------------------------------------*/
FoamFile
{
    version     2.0;
    format      ascii;
    class       volVectorField;
    location    "16";
    object      GField;
}
// * * * * * * * * * * * * * * * * * * * * * * * * * * * * * * * * * * * * * //

dimensions      [1 -2 -1 0 0 0 0];

internalField   nonuniform List<vector> 
132
(
(99.6381 -1.67706 -3.4328)
(49.2693 -1.20836 -2.27307)
(110.036 -1.79656 -3.94556)
(66.3317 -0.885533 -2.15538)
(120.108 -0.85087 -3.3458)
(81.3754 -0.221977 -1.67041)
(129.672 -0.653556 -3.14754)
(90.7907 -0.0123896 -1.37113)
(136.993 0.135785 -2.65203)
(99.7314 -2.57156 -4.36032)
(46.8759 -1.95892 -2.51101)
(107.273 -3.15985 -4.97195)
(59.8578 -1.80905 -2.76856)
(115.805 -3.74882 -4.88931)
(72.2756 -1.8261 -2.53754)
(123.979 -1.69235 -3.6391)
(82.5757 -1.22264 -1.29362)
(130.562 -2.34587 -2.0087)
(100.074 -1.67558 -4.35283)
(45.1661 -1.24087 -2.14031)
(105.41 -1.4324 -3.70985)
(52.7543 -1.62583 -1.99324)
(110.865 -2.16768 -2.32345)
(54.7881 -1.57802 -1.08184)
(113.896 -2.32806 -5.25731)
(67.6694 -1.52912 -1.78142)
(119.339 -2.35702 -4.02482)
(99.0804 -1.1416 -4.65379)
(46.3145 -0.404287 -2.20534)
(105.377 0.767429 -4.16294)
(98.1554 -2.17352 -7.85938)
(43.0785 -1.07201 -4.73653)
(102.286 -2.39223 -9.11327)
(49.6509 -1.25942 -4.84271)
(106.73 -2.27164 -8.62256)
(55.6629 -1.02975 -4.8563)
(110.863 -1.34936 -5.66291)
(59.9238 -0.388874 -3.24832)
(115.066 -0.243526 -3.75391)
(97.4794 -2.96986 -8.80678)
(38.4481 -1.37444 -4.712)
(98.8706 -2.55034 -9.42516)
(38.1614 -1.32029 -4.39265)
(99.3402 -2.69032 -7.63811)
(35.3492 -1.07652 -3.25413)
(99.9384 -4.00043 -6.74572)
(36.418 -1.40375 -2.29348)
(102.222 -5.10376 -2.11756)
(95.7927 -1.8651 -8.83639)
(37.506 -0.799188 -4.40809)
(96.5488 -0.61207 -8.71194)
(36.6758 -0.914972 -4.04969)
(96.4548 -1.05201 -6.23764)
(33.7696 -0.898406 -2.91415)
(96.6518 -3.32551 -8.74024)
(25.6413 -1.30954 -2.18415)
(95.358 -4.18765 -1.56544)
(94.338 -0.429101 -8.99107)
(38.805 -0.311215 -4.82352)
(95.6948 0.602008 -9.16384)
(38.9515 -0.0668475 -4.32275)
(95.4365 0.625314 -7.69706)
(96.4927 -2.31752 -5.92124)
(39.3775 -1.17996 -3.57848)
(97.9048 -1.91811 -6.42639)
(38.5464 -1.12702 -3.2808)
(99.2035 -0.414331 -5.62172)
(34.3339 -0.384752 -2.56571)
(99.3077 -3.56522 -3.63446)
(41.469 -1.45129 -2.25237)
(103.961 -2.71792 -2.80837)
(95.0551 -3.29606 -6.85384)
(34.9487 -1.4973 -3.71882)
(93.6288 -2.55161 -7.14136)
(29.8661 -1.2608 -2.72738)
(92.0078 -1.7794 -4.28329)
(26.2201 -0.81428 -2.03733)
(92.0825 -6.4443 -4.2055)
(21.5632 -1.63833 -1.08426)
(91.2758 -3.34691 -0.581574)
(93.4163 -2.05031 -6.36803)
(33.8123 -1.05924 -3.48328)
(91.1073 -1.16084 -6.68132)
(26.71 -0.797212 -2.2772)
(88.8204 -2.10605 -3.70005)
(19.862 -0.920142 -1.17636)
(88.0355 -4.47609 -1.28494)
(1.9471 -0.152104 -0.0325152)
(86.727 -2.04596 1.47373)
(92.326 -0.100638 -6.80057)
(33.885 -0.0308153 -3.99166)
(89.5856 0.658868 -7.4092)
(26.7954 -0.0266538 -2.48498)
(87.3173 0.547997 -4.28843)
(17.6427 -0.244888 -1.48366)
(85.4902 1.10177 -2.03718)
(96.0084 -3.21528 -4.37541)
(41.3966 -1.68649 -3.02267)
(98.1608 -3.42876 -4.47899)
(44.0627 -1.4552 -2.92911)
(100.288 -1.57961 -3.15387)
(42.5964 -0.858841 -2.54193)
(102.297 -2.96714 -4.42319)
(46.1103 -1.32054 -3.33821)
(105.869 -3.67438 -3.15758)
(94.7888 -3.54728 -5.17574)
(34.0423 -1.62568 -2.87554)
(92.7737 -3.1156 -5.64349)
(28.3311 -0.982736 -2.20384)
(91.7467 -1.48626 -3.24773)
(24.3846 -0.438056 -1.57755)
(91.9206 -2.91499 -2.47624)
(18.6929 -0.541465 -1.2018)
(92.9972 -3.56502 -2.36195)
(93.5013 -1.9761 -5.27752)
(34.4592 -1.15205 -3.00416)
(90.9078 -1.15106 -5.3057)
(27.8184 -0.730156 -2.08386)
(89.7126 -1.22933 -2.57116)
(23.2846 -0.823248 -1.46352)
(90.2272 -1.69365 0.709422)
(18.7626 -1.10418 -0.870368)
(91.8988 -1.70014 -1.72487)
(93.0003 -0.579702 -5.05888)
(34.6166 -0.0198986 -3.18734)
(89.5354 0.579427 -5.65981)
(28.1114 0.344307 -2.47981)
(88.5404 0.050751 -2.96301)
(22.9144 0.111177 -1.77133)
(88.011 -0.66971 0.215614)
(17.7572 -0.0611994 -0.913072)
(88.3123 -0.0356947 -1.74245)
)
;

boundaryField
{
    inlet
    {
        type            calculated;
        value           uniform (67 0 0);
    }
    outlet
    {
        type            calculated;
        value           nonuniform 0();
    }
    wall
    {
        type            calculated;
        value           uniform (0 0 0);
    }
    procBoundary0to1
    {
        type            processor;
        value           nonuniform List<vector> 
12
(
(97.3162 0.735156 -0.764866)
(87.1861 -1.74994 -0.101345)
(70.3149 -1.96803 -1.13298)
(63.459 0.307836 -3.18125)
(37.0786 -2.44517 -0.207473)
(13.545 -0.929374 -0.534001)
(45.0174 -0.610441 -2.0654)
(19.3765 -1.55034 0.137311)
(0.108888 -0.0111071 0.00439107)
(49.789 -2.41094 -2.27766)
(13.2857 -0.633893 -0.698676)
(13.0652 -1.63344 -0.895855)
)
;
    }
    procBoundary0to2
    {
        type            processor;
        value           nonuniform List<vector> 
44
(
(55.7472 -0.495266 -2.13156)
(111.429 1.64332 -3.73051)
(60.9491 0.31299 -1.80107)
(114.895 -2.41539 -4.5038)
(71.2401 -1.2074 -2.22024)
(121.795 -1.35525 -3.41961)
(97.1551 0.0513408 -3.46426)
(44.7378 -0.194779 -1.99848)
(55.7472 -0.495266 -2.13156)
(102.81 1.50906 -3.72756)
(55.7472 -0.495266 -2.13156)
(111.429 1.64332 -3.73051)
(35.5036 0.0605936 -3.7302)
(94.8338 -1.06555 -8.4999)
(28.9104 -0.18396 -3.36263)
(93.4323 -0.0459944 -1.88144)
(94.7169 0.95766 -7.7603)
(39.355 0.0925436 -4.23956)
(95.3378 1.80279 -8.58575)
(39.9509 0.566738 -3.91797)
(35.5036 0.0605936 -3.7302)
(96.1217 2.00448 -7.37032)
(35.5036 0.0605936 -3.7302)
(94.8338 -1.06555 -8.4999)
(2.18725 -0.0336141 -0.154178)
(84.1703 -2.92268 0.776836)
(93.0667 1.81443 -6.49994)
(36.5827 0.609155 -3.43727)
(91.4256 1.93919 -6.71103)
(32.1912 0.532659 -2.29427)
(90.3916 1.52279 -4.60075)
(28.8557 0.197875 -1.81352)
(2.18725 -0.0336141 -0.154178)
(88.8146 1.28777 -1.61985)
(2.18725 -0.0336141 -0.154178)
(84.1703 -2.92268 0.776836)
(92.5423 1.42434 -6.58152)
(35.1025 0.878904 -3.24507)
(90.2399 1.98694 -6.92149)
(31.0972 0.673347 -3.03187)
(90.3217 0.802364 -6.62165)
(27.2041 0.453594 -2.37707)
(90.1129 0.436127 -0.0206438)
(20.8935 0.490905 -0.764251)
)
;
    }
    procBoundary0to4
    {
        type            processor;
        value           nonuniform List<vector> 
36
(
(95.4218 -3.2414 -2.84528)
(40.8501 -1.69063 -1.98513)
(96.2267 -3.50134 -3.27913)
(42.0635 -1.73119 -2.17166)
(97.457 -1.31325 -2.06827)
(40.7149 -0.646119 -2.10896)
(98.0555 -2.58717 -2.76783)
(39.5959 -1.47856 -2.45061)
(99.0843 -5.02589 -1.14965)
(93.3196 -4.28569 -2.97835)
(33.2702 -1.90959 -1.68993)
(90.2473 -3.73936 -4.21808)
(23.4816 -1.18608 -1.53922)
(87.9992 -1.84852 -1.60845)
(19.8386 -0.747751 -1.03874)
(88.4671 -2.73505 -1.0316)
(13.7035 -0.927591 -0.807798)
(88.2338 -4.02835 1.21812)
(92.8851 -2.02099 -3.30703)
(32.0786 -1.27358 -1.91849)
(88.514 -1.34877 -4.19745)
(22.9273 -0.919638 -1.51258)
(86.5237 -1.93742 -1.58461)
(20.8251 -1.27454 -1.0264)
(86.0134 -2.08027 -0.259499)
(13.8313 -1.04936 -0.607695)
(84.8772 -0.997941 2.02829)
(92.6933 -1.53739 -3.83639)
(33.2802 -0.291845 -1.96919)
(87.7631 -1.09158 -4.52335)
(25.6509 -0.61509 -2.0213)
(84.9936 -3.28757 -1.98963)
(18.8114 -0.620676 -1.02953)
(82.6527 0.85095 -0.2348)
(12.2071 0.0241434 -0.501082)
(81.4618 2.02673 2.53638)
)
;
    }
    procBoundary0to6
    {
        type            processor;
        value           uniform (90.8474 1.61191 3.32878);
    }
    procBoundary0to7
    {
        type            processor;
        value           uniform (11.1234 0.0522938 -0.912121);
    }
}


// ************************************************************************* //
