/*--------------------------------*- C++ -*----------------------------------*\
| =========                 |                                                 |
| \\      /  F ield         | OpenFOAM: The Open Source CFD Toolbox           |
|  \\    /   O peration     | Version:  4.x                                   |
|   \\  /    A nd           | Web:      www.OpenFOAM.org                      |
|    \\/     M anipulation  |                                                 |
\*---------------------------------------------------------------------------*/
FoamFile
{
    version     2.0;
    format      ascii;
    class       volScalarField;
    location    "16";
    object      Sm;
}
// * * * * * * * * * * * * * * * * * * * * * * * * * * * * * * * * * * * * * //

dimensions      [1 -3 -1 0 0 0 0];

internalField   nonuniform List<scalar> 
132
(
5.50235e-65
4.41726e-65
3.09981e-65
2.8672e-65
3.7971e-65
4.02937e-65
4.72665e-65
3.48654e-65
1.70446e-65
4.88233e-65
4.72712e-65
4.57205e-65
5.11432e-65
3.17693e-65
5.81124e-65
4.41624e-65
4.64843e-65
4.26056e-65
2.71235e-65
5.34702e-65
4.72696e-65
4.72662e-65
4.26149e-65
4.33861e-65
3.25383e-65
4.49315e-65
6.89486e-65
2.86741e-65
4.41713e-65
3.25466e-65
4.18487e-65
6.66454e-65
8.0593e-65
7.05165e-65
6.81902e-65
7.12865e-65
5.7336e-65
6.4302e-65
6.19725e-65
5.42478e-65
7.98189e-65
6.27683e-65
7.20635e-65
7.28351e-65
7.12825e-65
7.05018e-65
7.74665e-65
6.97129e-65
5.88979e-65
8.13683e-65
6.81906e-65
6.27613e-65
6.66311e-65
6.58493e-65
8.28908e-65
6.04226e-65
4.95761e-65
8.05968e-65
6.12199e-65
6.12157e-65
4.72604e-65
8.98589e-65
5.96732e-65
6.81961e-65
7.28439e-65
6.7417e-65
6.58661e-65
5.19142e-65
7.05051e-65
6.8948e-65
4.72524e-65
6.43229e-65
7.05208e-65
6.43184e-65
5.96666e-65
7.36117e-65
5.73359e-65
7.36007e-65
8.83118e-65
8.28793e-65
7.67226e-65
6.27707e-65
6.58672e-65
8.21352e-65
7.82556e-65
7.36026e-65
7.43733e-65
6.19698e-65
4.56993e-65
7.28476e-65
7.59437e-65
7.67139e-65
8.13553e-65
8.21217e-65
7.12744e-65
7.12698e-65
4.57241e-65
4.88223e-65
5.7346e-65
5.34699e-65
6.12175e-65
7.43872e-65
4.80393e-65
4.10604e-65
4.95803e-65
5.50235e-65
8.13706e-65
7.28442e-65
6.74174e-65
5.81161e-65
5.96627e-65
8.36769e-65
6.58493e-65
5.49975e-65
4.57234e-65
4.95965e-65
7.28433e-65
5.73417e-65
7.28363e-65
8.05799e-65
6.74042e-65
5.11284e-65
8.05607e-65
5.26985e-65
5.88961e-65
7.82675e-65
9.22098e-65
4.4941e-65
9.14264e-65
7.12774e-65
5.42312e-65
2.32398e-65
)
;

boundaryField
{
    inlet
    {
        type            calculated;
        value           uniform 0;
    }
    outlet
    {
        type            calculated;
        value           nonuniform 0();
    }
    wall
    {
        type            calculated;
        value           uniform 0;
    }
    procBoundary0to1
    {
        type            processor;
        value           nonuniform List<scalar> 
12
(
3.71806e-65
3.64089e-65
3.48609e-65
6.66153e-65
7.20364e-65
8.13321e-65
7.04901e-65
5.57679e-65
7.9004e-65
6.58442e-65
7.04886e-65
5.73203e-65
)
;
    }
    procBoundary0to2
    {
        type            processor;
        value           nonuniform List<scalar> 
44
(
6.50826e-65
4.88087e-65
2.55581e-65
4.88014e-65
2.24643e-65
2.63397e-65
5.73477e-65
6.5094e-65
6.50826e-65
5.11408e-65
6.50826e-65
4.88087e-65
8.44316e-65
9.75997e-65
5.73222e-65
9.21827e-65
5.42477e-65
6.81939e-65
7.67083e-65
7.82403e-65
8.44316e-65
6.97003e-65
8.44316e-65
9.75997e-65
7.59149e-65
8.13366e-65
7.28476e-65
4.95962e-65
5.50161e-65
6.04328e-65
5.57759e-65
7.1264e-65
7.59149e-65
8.36587e-65
7.59149e-65
8.13366e-65
4.80483e-65
8.13699e-65
8.36907e-65
6.58631e-65
6.8183e-65
5.88855e-65
6.27545e-65
7.7476e-65
)
;
    }
    procBoundary0to4
    {
        type            processor;
        value           nonuniform List<scalar> 
36
(
5.1924e-65
7.36221e-65
7.51711e-65
5.57961e-65
5.96691e-65
5.65677e-65
7.59356e-65
6.74073e-65
8.90969e-65
7.74984e-65
6.35473e-65
7.36201e-65
8.60176e-65
8.21403e-65
7.51637e-65
6.35367e-65
5.4234e-65
9.06409e-65
6.97482e-65
8.75706e-65
6.66452e-65
8.44669e-65
6.66414e-65
5.96655e-65
6.12117e-65
9.68469e-65
5.65557e-65
4.33987e-65
5.73472e-65
7.59446e-65
5.192e-65
7.36151e-65
6.35397e-65
9.22061e-65
5.96615e-65
5.96571e-65
)
;
    }
    procBoundary0to6
    {
        type            processor;
        value           uniform 6.74049e-65;
    }
    procBoundary0to7
    {
        type            processor;
        value           uniform 9.91603e-65;
    }
}


// ************************************************************************* //
