/*--------------------------------*- C++ -*----------------------------------*\
| =========                 |                                                 |
| \\      /  F ield         | OpenFOAM: The Open Source CFD Toolbox           |
|  \\    /   O peration     | Version:  4.x                                   |
|   \\  /    A nd           | Web:      www.OpenFOAM.org                      |
|    \\/     M anipulation  |                                                 |
\*---------------------------------------------------------------------------*/
FoamFile
{
    version     2.0;
    format      ascii;
    class       volVectorField;
    location    "16";
    object      Urel;
}
// * * * * * * * * * * * * * * * * * * * * * * * * * * * * * * * * * * * * * //

dimensions      [0 1 -1 0 0 0 0];

internalField   nonuniform List<vector> 
132
(
(-0.023834 0.000432577 0.00130342)
(-0.0223847 0.000405615 0.00123951)
(-0.0237498 0.000407776 0.00123219)
(-0.0231279 0.000373124 0.00112492)
(-0.0247195 0.000381706 0.00106631)
(-0.0243321 0.000347985 0.000916612)
(-0.0257945 0.000373543 0.000792239)
(-0.0253528 0.000356426 0.00059623)
(-0.0267038 0.000348996 0.000406031)
(-0.0237441 0.000412083 0.00133158)
(-0.022205 0.000383737 0.00125101)
(-0.0234992 0.000398284 0.00125094)
(-0.0227327 0.000365938 0.00113424)
(-0.0242678 0.000414648 0.00107879)
(-0.0236862 0.000350442 0.000924904)
(-0.0251321 0.000406193 0.000797157)
(-0.0245427 0.000388795 0.000576983)
(-0.0258251 0.000432282 0.00036745)
(-0.0236472 0.000287505 0.00133666)
(-0.022043 0.000260121 0.00124184)
(-0.0232679 0.000268748 0.00122659)
(-0.0223493 0.000257013 0.00110833)
(-0.0238039 0.000304416 0.00102557)
(-0.0229312 0.000238119 0.000912051)
(-0.024364 0.000342174 0.000830945)
(-0.0235875 0.00029176 0.000576713)
(-0.024791 0.000337954 0.000372751)
(-0.0235995 0.000117437 0.00132808)
(-0.0219932 8.84595e-05 0.00123047)
(-0.0232037 7.92e-05 0.00121833)
(-0.0235929 0.000459051 0.00142009)
(-0.0219683 0.000420235 0.0013273)
(-0.0231612 0.000434922 0.00135516)
(-0.0221825 0.000397236 0.0012089)
(-0.0236288 0.000416087 0.00117196)
(-0.0227999 0.000389368 0.00098203)
(-0.0242517 0.000430446 0.0008461)
(-0.0234695 0.000408133 0.000643428)
(-0.0248819 0.00040473 0.000440578)
(-0.0234827 0.000435066 0.00145426)
(-0.0217384 0.000387485 0.00133769)
(-0.0228548 0.000402314 0.001364)
(-0.0216739 0.00036714 0.00119291)
(-0.0230726 0.000406148 0.00113277)
(-0.0219644 0.000375062 0.000951367)
(-0.0234267 0.000481538 0.000844876)
(-0.0223382 0.000428332 0.000597655)
(-0.0237451 0.000497445 0.000341441)
(-0.0233583 0.000294545 0.00146389)
(-0.0215604 0.000255063 0.00133272)
(-0.0226011 0.000256408 0.00134772)
(-0.0213156 0.000244528 0.00116825)
(-0.0226313 0.000283464 0.00108803)
(-0.0213697 0.000258848 0.000932101)
(-0.0227027 0.000386361 0.000863386)
(-0.0212736 0.000315737 0.000551634)
(-0.0226524 0.000360268 0.000287221)
(-0.0233117 9.20013e-05 0.00145844)
(-0.0215206 7.47528e-05 0.00133015)
(-0.0225347 6.53183e-05 0.0013436)
(-0.0212599 6.54627e-05 0.00116861)
(-0.0225368 8.83916e-05 0.00109811)
(-0.0233321 0.00049764 0.00129265)
(-0.0215614 0.000451818 0.00120677)
(-0.0225698 0.00045865 0.00121289)
(-0.0212815 0.000410815 0.00106837)
(-0.0225637 0.00039821 0.000993804)
(-0.0213263 0.00041859 0.000822967)
(-0.022804 0.000520784 0.000700523)
(-0.0217801 0.000491688 0.00051948)
(-0.0232203 0.000479763 0.000333076)
(-0.0231929 0.00046935 0.00132398)
(-0.0212924 0.000412294 0.00121837)
(-0.0222176 0.000422738 0.00122243)
(-0.0207307 0.000373234 0.00103901)
(-0.0219791 0.000395234 0.000939138)
(-0.0205798 0.000395248 0.000777213)
(-0.0219443 0.000562008 0.000650167)
(-0.0205547 0.000459876 0.00043055)
(-0.0219647 0.000485785 0.000223601)
(-0.0230531 0.000309831 0.00132856)
(-0.021091 0.000268572 0.00121809)
(-0.0219368 0.00026812 0.00121165)
(-0.0203324 0.000246859 0.0010143)
(-0.0215269 0.000294633 0.000892692)
(-0.0199367 0.000277535 0.000722435)
(-0.021214 0.000430243 0.00054232)
(-0.019298 0.000330084 0.000339686)
(-0.0209225 0.000351136 0.000111817)
(-0.0230032 7.63785e-05 0.0013378)
(-0.0210363 6.28841e-05 0.00122901)
(-0.0218545 5.5824e-05 0.00122213)
(-0.0202408 6.46732e-05 0.00102327)
(-0.0213968 9.06953e-05 0.000900775)
(-0.019756 7.98806e-05 0.000739269)
(-0.0209785 0.000113305 0.000532208)
(-0.0231726 0.000553072 0.00105072)
(-0.0213772 0.000499494 0.000987478)
(-0.0222853 0.000513006 0.00097766)
(-0.0209378 0.000436335 0.000859728)
(-0.0220953 0.000420741 0.000763439)
(-0.020828 0.000424247 0.000653117)
(-0.0221795 0.000506644 0.000564934)
(-0.0210383 0.000486867 0.000406967)
(-0.0224589 0.000536043 0.000240723)
(-0.0230149 0.000507051 0.00107609)
(-0.0210529 0.000446307 0.00099536)
(-0.0218811 0.000454958 0.000992534)
(-0.0202617 0.000383599 0.00083268)
(-0.0214498 0.000386099 0.000727109)
(-0.0199433 0.000378659 0.000584857)
(-0.021298 0.000471612 0.000459902)
(-0.0197639 0.000422931 0.000295688)
(-0.0212495 0.000473367 0.000176115)
(-0.0228614 0.000330748 0.00109203)
(-0.0208492 0.00029105 0.00100598)
(-0.021586 0.000285014 0.000991683)
(-0.0198706 0.000259002 0.000820398)
(-0.0209936 0.000284202 0.000688524)
(-0.0193708 0.000274608 0.00053137)
(-0.0206433 0.000342129 0.00031095)
(-0.0189285 0.000295347 0.00021142)
(-0.020372 0.000301534 8.05349e-05)
(-0.0228092 9.11949e-05 0.00110349)
(-0.020781 7.09583e-05 0.0010208)
(-0.0214847 6.31503e-05 0.00100912)
(-0.0197562 7.54044e-05 0.000842895)
(-0.0208188 0.000111988 0.00070371)
(-0.0191539 9.95354e-05 0.00054689)
(-0.0203522 0.00013 0.000288002)
(-0.0185922 9.34963e-05 0.000191343)
(-0.0199777 7.50874e-05 4.54688e-05)
)
;

boundaryField
{
    inlet
    {
        type            calculated;
        value           nonuniform List<vector> 
16
(
(-0.00999049 -6.01989e-06 2.29375e-05)
(-0.0100002 -1.08054e-06 1.52764e-06)
(-0.0100038 1.71159e-06 -2.91775e-06)
(-0.0100002 1.96758e-07 -1.18115e-07)
(-0.0100017 1.32362e-06 3.06935e-06)
(-0.0100007 3.20243e-07 2.98119e-09)
(-0.0100009 2.0738e-07 -2.15274e-07)
(-0.0100006 -1.84731e-07 -7.61848e-08)
(-0.0100004 -8.36117e-08 1.83488e-06)
(-0.0100001 -1.96363e-07 8.63246e-07)
(-0.0100001 -4.43578e-07 -2.92572e-07)
(-0.0100005 -6.67087e-07 3.17441e-07)
(-0.0100003 -5.80927e-07 9.052e-07)
(-0.0100002 1.1965e-06 6.14822e-07)
(-0.0100005 -5.55313e-07 5.37423e-07)
(-0.0100004 -1.05177e-06 1.12916e-06)
)
;
    }
    outlet
    {
        type            calculated;
        value           nonuniform 0();
    }
    wall
    {
        type            calculated;
        value           nonuniform List<vector> 
66
(
(9.51332e-06 -6.01989e-06 2.29375e-05)
(-2.44728e-07 -1.08054e-06 1.52764e-06)
(-3.81122e-06 1.71159e-06 -2.91775e-06)
(-1.52694e-07 1.96758e-07 -1.18115e-07)
(1.07069e-05 1.16816e-06 1.6346e-05)
(-3.70421e-06 4.60419e-06 6.93838e-06)
(-5.01659e-06 1.06874e-06 -1.01481e-06)
(-3.0871e-06 1.15784e-06 -5.54759e-07)
(-2.12365e-06 -3.20981e-06 5.88054e-06)
(-1.41498e-06 1.2315e-06 -4.04347e-06)
(-5.07166e-06 7.07521e-07 -2.18372e-06)
(-4.72452e-06 8.94088e-07 -6.11407e-08)
(-5.0859e-06 3.16715e-07 1.03623e-06)
(-5.653e-06 1.55437e-07 -9.79483e-07)
(-5.98461e-06 2.45748e-07 -8.1457e-07)
(-6.21964e-06 -3.62993e-07 4.9217e-07)
(-6.34285e-06 -4.18815e-07 -6.29631e-07)
(-6.62706e-06 -1.11603e-07 -8.90323e-07)
(-6.5045e-06 2.35525e-08 -7.48315e-07)
(-6.93987e-06 -1.85101e-07 -1.14215e-06)
(-7.22712e-06 -8.15081e-07 -9.55958e-07)
(-6.53822e-06 1.80841e-07 8.37051e-07)
(-8.06927e-06 6.56063e-07 2.39902e-07)
(-7.66696e-06 1.79763e-07 -5.1884e-07)
(-6.67436e-06 5.39874e-07 4.0421e-07)
(-7.58214e-06 3.39584e-07 1.48533e-07)
(-6.83544e-06 7.05674e-07 2.57031e-07)
(-6.34334e-06 1.96949e-06 -6.99212e-07)
(-6.80266e-06 7.95109e-07 1.20152e-06)
(-8.33016e-06 1.59279e-06 8.57641e-07)
(9.51332e-06 -6.01989e-06 2.29375e-05)
(-1.65345e-06 1.32362e-06 3.06935e-06)
(-3.82129e-07 -8.36117e-08 1.83488e-06)
(-3.35623e-07 -5.80927e-07 9.052e-07)
(1.07069e-05 1.16816e-06 1.6346e-05)
(-1.9972e-06 -5.72792e-07 2.78373e-06)
(-1.52152e-06 -2.61682e-07 1.69033e-06)
(-1.34898e-06 -2.38304e-07 8.1691e-07)
(-2.12365e-06 -3.20981e-06 5.88054e-06)
(-3.50516e-06 2.68381e-07 2.02811e-06)
(-2.46545e-06 -6.04954e-07 6.43243e-07)
(-1.00393e-07 -1.23072e-08 -2.08127e-09)
(-5.0859e-06 3.16715e-07 1.03623e-06)
(-4.21566e-06 6.58372e-07 3.56144e-07)
(-3.16571e-06 8.27391e-07 -3.60073e-08)
(-1.14714e-07 -5.18049e-07 -5.58917e-07)
(-6.21964e-06 -3.62993e-07 4.9217e-07)
(-5.78555e-06 8.6095e-07 4.71243e-07)
(-2.79228e-06 3.70258e-07 -1.0604e-08)
(-1.28959e-06 -7.38583e-07 -1.10556e-06)
(-6.5045e-06 2.35525e-08 -7.48315e-07)
(-5.68811e-06 -5.19214e-08 -3.52836e-07)
(-5.43489e-06 -2.84871e-06 -1.53084e-06)
(-5.1208e-06 -4.20683e-07 -4.78804e-07)
(-6.53822e-06 1.80841e-07 8.37051e-07)
(-7.1716e-06 1.37309e-06 5.74784e-07)
(-6.64569e-06 -5.5698e-07 8.14691e-07)
(-6.58014e-06 9.49589e-08 2.85539e-06)
(-6.67436e-06 5.39874e-07 4.0421e-07)
(-7.71579e-06 -9.79264e-08 4.60802e-08)
(-6.67967e-06 -4.53173e-07 -8.24171e-08)
(-7.92009e-06 2.74158e-07 6.47191e-08)
(-6.34334e-06 1.96949e-06 -6.99212e-07)
(-7.53622e-06 -1.43353e-07 1.15042e-06)
(-7.69435e-06 3.3923e-08 5.37147e-07)
(-8.05339e-06 2.54365e-07 -3.15111e-07)
)
;
    }
    procBoundary0to1
    {
        type            processor;
        value           nonuniform List<vector> 
12
(
(-0.0261649 0.000309382 0.000115466)
(-0.0250412 0.000396135 6.41944e-05)
(-0.0237328 0.000291741 5.70048e-05)
(-0.024051 0.000343321 0.000165561)
(-0.022556 0.000412664 3.79372e-05)
(-0.020981 0.000271452 2.65071e-05)
(-0.022176 0.000367315 0.000112745)
(-0.0206475 0.000404263 9.19211e-06)
(-0.0190437 0.000259406 -4.39763e-05)
(-0.021334 0.00043652 6.7422e-05)
(-0.0196283 0.000374978 -3.65647e-06)
(-0.0185458 0.000264362 -6.23479e-05)
)
;
    }
    procBoundary0to2
    {
        type            processor;
        value           nonuniform List<vector> 
44
(
(-0.0222864 7.29677e-05 0.0011033)
(-0.0237175 8.31685e-05 0.00103733)
(-0.022844 3.82959e-05 0.000943417)
(-0.0241526 0.000192033 0.000831936)
(-0.0233591 0.000133284 0.00058228)
(-0.024488 0.000146241 0.000340324)
(-0.0236093 -7.48454e-05 0.00127148)
(-0.0220017 -7.76193e-05 0.00119504)
(-0.0222864 7.29677e-05 0.0011033)
(-0.023241 -8.59034e-05 0.00118334)
(-0.0222864 7.29677e-05 0.0011033)
(-0.0237175 8.31685e-05 0.00103733)
(-0.021271 6.3456e-05 0.000965)
(-0.0224934 0.000169402 0.000866644)
(-0.0210481 0.000127451 0.000556732)
(-0.0223393 0.000124349 0.000279286)
(-0.0233595 -0.000118288 0.00140696)
(-0.0215942 -0.000105725 0.0012957)
(-0.0226397 -0.000117712 0.00131251)
(-0.0214232 -0.000108206 0.00116083)
(-0.021271 6.3456e-05 0.000965)
(-0.0227385 -9.25783e-05 0.00110833)
(-0.021271 6.3456e-05 0.000965)
(-0.0224934 0.000169402 0.000866644)
(-0.0189912 0.000130922 0.000322999)
(-0.0205661 0.00015953 0.000100799)
(-0.0230763 -0.000165753 0.00132094)
(-0.021162 -0.000140871 0.00121219)
(-0.0220073 -0.000148882 0.00120787)
(-0.0204909 -0.000115195 0.00103514)
(-0.0216617 -9.43623e-05 0.000933805)
(-0.0201861 -0.000107598 0.000794193)
(-0.0189912 0.000130922 0.000322999)
(-0.0213637 -9.06363e-05 0.000552686)
(-0.0189912 0.000130922 0.000322999)
(-0.0205661 0.00015953 0.000100799)
(-0.0228585 -0.000173748 0.00113252)
(-0.020868 -0.000154319 0.00103646)
(-0.0215963 -0.000156546 0.00104248)
(-0.0199365 -0.000108885 0.000894401)
(-0.0209921 -7.25085e-05 0.000811787)
(-0.0193664 -7.84462e-05 0.000627513)
(-0.0205338 -6.96625e-05 0.000367502)
(-0.0188444 -8.22273e-05 0.000187298)
)
;
    }
    procBoundary0to4
    {
        type            processor;
        value           nonuniform List<vector> 
36
(
(-0.0231232 0.000590164 0.000736497)
(-0.0213121 0.000534586 0.000697953)
(-0.02217 0.000552136 0.000691447)
(-0.0207801 0.000465886 0.000612811)
(-0.0218989 0.000428936 0.000531042)
(-0.0206116 0.000420507 0.000454105)
(-0.0218906 0.000490484 0.000360669)
(-0.0206593 0.00048926 0.000233117)
(-0.022066 0.000589198 6.07068e-05)
(-0.0229461 0.000553715 0.000743011)
(-0.0209519 0.00048535 0.000696253)
(-0.0217144 0.000497889 0.0006968)
(-0.0200016 0.000410092 0.000586008)
(-0.0211857 0.000402699 0.000495417)
(-0.019624 0.00037527 0.000387866)
(-0.020978 0.00043752 0.000258932)
(-0.0193694 0.000406453 0.000129435)
(-0.0208628 0.00047575 -5.33589e-05)
(-0.0227874 0.000360894 0.000760842)
(-0.0207088 0.000319619 0.000708522)
(-0.021385 0.000314757 0.000705126)
(-0.0195636 0.000286448 0.000576826)
(-0.020695 0.000312071 0.000461839)
(-0.0190476 0.000287391 0.000338103)
(-0.0203368 0.000325953 0.000164788)
(-0.0186361 0.000273829 5.47438e-05)
(-0.0199991 0.000268089 -0.000135288)
(-0.0227138 0.000124159 0.000785245)
(-0.0206204 9.78883e-05 0.000725915)
(-0.0212461 0.00010935 0.000729068)
(-0.0194139 0.000127813 0.00059778)
(-0.0204345 0.000202376 0.000470111)
(-0.0186944 0.000151757 0.000331677)
(-0.0199113 0.000138238 0.000139602)
(-0.018138 6.53875e-05 3.41148e-05)
(-0.0195066 -6.54899e-06 -0.000159959)
)
;
    }
    procBoundary0to6
    {
        type            processor;
        value           uniform (-0.0202522 -0.000105128 -7.63875e-05);
    }
    procBoundary0to7
    {
        type            processor;
        value           uniform (-0.0181582 7.76958e-05 -6.77005e-05);
    }
}


// ************************************************************************* //
