/*--------------------------------*- C++ -*----------------------------------*\
| =========                 |                                                 |
| \\      /  F ield         | OpenFOAM: The Open Source CFD Toolbox           |
|  \\    /   O peration     | Version:  4.x                                   |
|   \\  /    A nd           | Web:      www.OpenFOAM.org                      |
|    \\/     M anipulation  |                                                 |
\*---------------------------------------------------------------------------*/
FoamFile
{
    version     2.0;
    format      ascii;
    class       volVectorField;
    location    "16";
    object      UsPrev;
}
// * * * * * * * * * * * * * * * * * * * * * * * * * * * * * * * * * * * * * //

dimensions      [0 1 -1 0 0 0 0];

internalField   nonuniform List<vector> 
132
(
(1.76256e-07 -1.01363e-08 -4.89124e-08)
(2.51024e-07 -5.0277e-08 -1.0731e-07)
(6.2982e-07 -4.45391e-07 -1.54261e-07)
(3.12062e-07 -1.38678e-07 -1.16405e-07)
(1.93266e-07 -2.6205e-07 -4.79971e-08)
(-1.28418e-07 -1.91202e-07 -6.61825e-08)
(-2.51217e-07 -1.88535e-07 -1.56008e-07)
(-6.32944e-07 -8.25643e-08 -6.71897e-08)
(-9.41951e-07 1.35709e-07 -4.94053e-08)
(2.78669e-07 1.21483e-08 -1.07115e-07)
(5.72419e-07 -1.47991e-07 -1.28274e-07)
(6.60627e-07 -2.13216e-07 -2.31103e-07)
(4.90406e-07 -2.71635e-07 -2.33138e-07)
(3.15641e-07 -3.97843e-07 -1.87716e-07)
(-7.45609e-08 -4.05888e-07 -1.07971e-07)
(-4.79744e-07 -3.25836e-07 -1.68618e-08)
(-9.93344e-07 -6.39004e-08 1.0118e-07)
(-1.35422e-06 -2.47812e-08 1.84537e-07)
(7.11995e-07 -6.18505e-08 -4.86532e-08)
(6.81289e-07 -1.42281e-07 -1.08489e-07)
(6.60082e-07 -2.42165e-07 -1.36428e-07)
(5.37442e-07 -3.04727e-07 -2.2459e-07)
(3.08414e-07 -4.68487e-07 -2.60799e-07)
(-1.53741e-07 -4.859e-07 -7.13605e-08)
(-5.467e-07 -3.94415e-07 4.54902e-08)
(-1.0515e-06 -3.32149e-07 1.84425e-07)
(-1.43867e-06 -9.23424e-08 2.25468e-07)
(2.31261e-07 -5.96674e-08 -8.31822e-08)
(6.6148e-07 -1.19775e-07 -8.00999e-08)
(7.32987e-07 -2.28282e-07 -1.27921e-07)
(2.49611e-07 -1.326e-08 -3.41e-08)
(3.33022e-07 -9.4114e-09 -1.16249e-07)
(3.20484e-07 -5.8893e-08 -1.19204e-07)
(2.33808e-07 -1.33431e-07 -1.12581e-07)
(1.29836e-07 -2.31508e-07 -7.28877e-08)
(-5.81088e-08 -2.62785e-07 -6.44353e-08)
(-2.30591e-07 -1.48548e-07 -1.61662e-07)
(-7.54093e-07 -1.39563e-07 -4.16867e-08)
(-7.85617e-07 -1.90596e-07 7.10934e-08)
(2.87501e-07 -1.96465e-08 -9.22706e-08)
(4.72969e-07 -9.94039e-08 -1.26562e-07)
(6.14024e-07 -2.20223e-07 -1.84365e-07)
(4.34184e-07 -2.19507e-07 -2.41152e-07)
(1.9969e-07 -3.65927e-07 -1.42774e-07)
(-8.97748e-08 -3.99598e-07 -7.45331e-08)
(-5.15341e-07 -3.07367e-07 -6.34606e-09)
(-8.98642e-07 -1.61982e-07 4.09902e-08)
(-1.2401e-06 -4.42604e-08 2.03764e-07)
(4.33102e-07 -5.93552e-08 -1.06038e-07)
(5.48243e-07 -1.51637e-07 -1.14132e-07)
(5.79754e-07 -2.55966e-07 -1.81589e-07)
(4.92067e-07 -3.09914e-07 -1.92996e-07)
(1.46072e-07 -3.67419e-07 -1.11139e-07)
(-2.57037e-07 -4.39022e-07 -8.5932e-08)
(-6.64638e-07 -4.20118e-07 3.44662e-08)
(-9.9069e-07 -2.46708e-07 1.82896e-07)
(-1.31071e-06 -7.39654e-08 2.4478e-07)
(3.19357e-07 -8.50543e-08 -6.86581e-08)
(5.62332e-07 -1.68286e-07 -6.7433e-08)
(6.46657e-07 -2.5259e-07 -1.68223e-07)
(4.43128e-07 -3.12341e-07 -1.45163e-07)
(2.67847e-07 -4.21671e-07 -1.66339e-08)
(1.9358e-07 1.6204e-09 -3.3209e-08)
(3.11689e-07 -3.8373e-08 -1.08748e-07)
(3.19973e-07 -4.92646e-08 -7.1534e-08)
(1.88179e-07 -1.1553e-07 -9.7314e-08)
(1.18184e-07 -1.60175e-07 -1.02841e-07)
(-4.34666e-08 -2.41407e-07 -1.17372e-07)
(-1.82055e-07 -2.45508e-07 -1.43817e-07)
(-4.76808e-07 -7.69533e-08 -3.35543e-08)
(-7.09771e-07 -1.64532e-07 2.14489e-07)
(2.29508e-07 -1.29575e-08 -7.6244e-08)
(4.64458e-07 -5.29361e-08 -1.13952e-07)
(5.74574e-07 -1.39223e-07 -1.68563e-07)
(4.28707e-07 -1.86943e-07 -1.71015e-07)
(1.82588e-07 -2.65815e-07 -1.07789e-07)
(-1.5208e-07 -3.55577e-07 -6.50505e-08)
(-4.83471e-07 -3.36298e-07 -3.05156e-08)
(-7.84568e-07 -2.20408e-07 3.68009e-09)
(-1.16784e-06 -1.12227e-07 1.733e-07)
(2.57268e-07 -5.40302e-08 -8.54259e-08)
(4.92409e-07 -1.22444e-07 -1.07604e-07)
(5.71489e-07 -2.36705e-07 -1.83822e-07)
(4.27844e-07 -3.01945e-07 -1.71393e-07)
(1.01811e-07 -3.88989e-07 -3.42581e-08)
(-3.09762e-07 -3.70498e-07 -6.02857e-08)
(-5.02462e-07 -3.15805e-07 -4.19219e-09)
(-9.9381e-07 -2.4626e-07 1.13645e-07)
(-1.23244e-06 -9.12346e-08 2.19886e-07)
(2.47028e-07 -6.20601e-08 -6.1909e-08)
(5.15969e-07 -1.80229e-07 -9.78057e-08)
(6.38929e-07 -2.64226e-07 -1.53497e-07)
(4.63259e-07 -2.47402e-07 -1.50288e-07)
(6.77791e-08 -3.20135e-07 -2.489e-08)
(-2.43225e-07 -3.52956e-07 5.03441e-08)
(-6.34942e-07 -2.98262e-07 1.77005e-08)
(1.46187e-07 5.46876e-08 -2.74805e-08)
(2.69302e-07 2.32912e-10 -8.1924e-08)
(3.23357e-07 -4.50983e-08 -6.90904e-08)
(1.74713e-07 -1.08659e-07 -7.9588e-08)
(1.19798e-07 -6.35207e-08 -1.4494e-07)
(-7.24672e-08 -1.63988e-07 -1.12895e-07)
(-1.87034e-07 -1.80328e-07 -4.0563e-08)
(-4.12154e-07 -1.29015e-07 -1.66841e-08)
(-5.27835e-07 -5.38059e-09 2.43655e-07)
(2.02002e-07 -1.06752e-09 -4.69865e-08)
(4.27401e-07 -6.53409e-08 -1.04587e-07)
(5.52534e-07 -1.72787e-07 -1.17113e-07)
(3.52061e-07 -2.28048e-07 -7.71334e-08)
(1.16645e-07 -2.57374e-07 -1.05119e-07)
(-1.07032e-07 -2.9456e-07 -1.05345e-07)
(-4.40428e-07 -2.84891e-07 -3.09005e-08)
(-8.35563e-07 -2.07748e-07 2.10865e-09)
(-1.00625e-06 -5.24919e-08 1.70005e-07)
(3.64295e-07 -7.84639e-08 -9.47711e-08)
(4.97705e-07 -1.01796e-07 -1.17662e-07)
(6.19386e-07 -1.86393e-07 -1.31516e-07)
(3.96558e-07 -2.42698e-07 -6.31624e-08)
(1.33545e-07 -3.92877e-07 -1.78063e-08)
(-2.89251e-07 -3.05014e-07 -6.24758e-08)
(-5.91264e-07 -3.09767e-07 -1.33253e-08)
(-9.19508e-07 -2.63259e-07 5.27084e-08)
(-1.14806e-06 -1.12204e-07 1.91382e-07)
(2.94196e-07 -5.46675e-08 -7.76342e-08)
(4.85375e-07 -1.29003e-07 -1.19402e-07)
(6.47582e-07 -1.56598e-07 -1.25895e-07)
(3.88559e-07 -2.39346e-07 -1.23489e-07)
(1.21438e-07 -3.13418e-07 -1.01452e-07)
(-3.36917e-07 -2.67443e-07 4.21148e-09)
(-6.74545e-07 -2.67572e-07 1.16698e-08)
(-8.3867e-07 -2.68977e-07 9.15704e-08)
(-1.14883e-06 -1.05781e-07 2.03571e-07)
)
;

boundaryField
{
    inlet
    {
        type            calculated;
        value           uniform (0 0 0);
    }
    outlet
    {
        type            calculated;
        value           nonuniform 0();
    }
    wall
    {
        type            calculated;
        value           uniform (0 0 0);
    }
    procBoundary0to1
    {
        type            processor;
        value           uniform (0 0 0);
    }
    procBoundary0to2
    {
        type            processor;
        value           uniform (0 0 0);
    }
    procBoundary0to4
    {
        type            processor;
        value           uniform (0 0 0);
    }
    procBoundary0to6
    {
        type            processor;
        value           uniform (0 0 0);
    }
    procBoundary0to7
    {
        type            processor;
        value           uniform (0 0 0);
    }
}


// ************************************************************************* //
