/*--------------------------------*- C++ -*----------------------------------*\
| =========                 |                                                 |
| \\      /  F ield         | OpenFOAM: The Open Source CFD Toolbox           |
|  \\    /   O peration     | Version:  4.x                                   |
|   \\  /    A nd           | Web:      www.OpenFOAM.org                      |
|    \\/     M anipulation  |                                                 |
\*---------------------------------------------------------------------------*/
FoamFile
{
    version     2.0;
    format      ascii;
    class       volScalarField;
    location    "37";
    object      p;
}
// * * * * * * * * * * * * * * * * * * * * * * * * * * * * * * * * * * * * * //

dimensions      [1 -1 -2 0 0 0 0];

internalField   nonuniform List<scalar> 
87
(
81.8097
38.1139
81.4524
88.4209
38.2918
81.3954
-1766.11
-1784.39
-1773.54
-1801.98
-1781.24
-1820.07
-1789.03
-1837.97
-1796.4
-1766.68
-1784.54
-1773.88
-1802.37
-1781.38
-1820.63
-1788.86
-1838.92
-1796.21
-1767.36
-1784.87
-1774.49
-1802.51
-1781.84
-1820.75
-1789.29
-1838.97
-1796.33
-3644.19
-3662.26
-3651.52
-3680.11
-3659.07
-3698.2
-3666.58
-3716.48
-3673.9
-3644.77
-3662.48
-3652.05
-3680.28
-3659.55
-3698.43
-3666.96
-3716.76
-3674.18
-3645.33
-3662.76
-3652.48
-3680.41
-3659.87
-3698.58
-3667.22
-3716.83
-3674.33
-5522.66
-5540.39
-5529.91
-5558.1
-5537.44
-5576.2
-5544.92
-5594.62
-5552.12
-5523.06
-5540.56
-5530.26
-5558.22
-5537.71
-5576.44
-5545.12
-5594.64
-5552.26
-5523.49
-5540.73
-5530.6
-5558.35
-5537.94
-5576.43
-5545.31
-5594.56
-5552.3
)
;

boundaryField
{
    inlet
    {
        type            calculated;
        value           nonuniform List<scalar> 9(-1766.11 -1766.68 -1767.36 -3644.19 -3644.77 -3645.33 -5522.66 -5523.06 -5523.49);
    }
    outlet
    {
        type            calculated;
        value           nonuniform 0();
    }
    wall
    {
        type            calculated;
        value           nonuniform List<scalar> 
57
(
-6461.61
-6462.02
-6462.44
-6479.35
-6479.52
-6479.68
-6468.86
-6469.22
-6469.56
-6497.06
-6497.18
-6497.31
-6476.39
-6476.67
-6476.9
-6515.16
-6515.4
-6515.39
-6483.87
-6484.08
-6484.26
-6533.58
-6533.6
-6533.52
-6491.08
-6491.22
-6491.26
-1767.36
-3645.33
-5523.49
-1784.87
-3662.76
-5540.73
-1774.49
-3652.48
-5530.6
-1802.51
-3680.41
-5558.35
-1781.84
-3659.87
-5537.94
-1820.75
-3698.58
-5576.43
88.4209
-1789.29
-3667.22
-5545.31
38.2918
-1838.97
-3716.83
-5594.56
81.3954
-1796.33
-3674.33
-5552.3
)
;
    }
    procBoundary6to0
    {
        type            processor;
        value           uniform 81.562;
    }
    procBoundary6to2
    {
        type            processor;
        value           nonuniform List<scalar> 
32
(
1959.54
1915.95
1959.49
1966.18
1916.02
1959.25
111.244
93.4306
104.058
75.3916
96.5842
57.2322
89.115
39.046
39.046
39.046
110.762
93.0886
103.596
75.0518
96.1356
56.7374
88.6728
88.6728
88.6728
110.143
92.7752
103.076
74.8898
95.7259
56.6714
56.6714
)
;
    }
    procBoundary6to4
    {
        type            processor;
        value           nonuniform List<scalar> 
27
(
-1766.48
-1784.2
-1773.59
-1802.04
-1781.22
-1820.18
-1788.94
-1838.43
-1796.5
-3644.28
-3662.2
-3651.54
-3680.02
-3659.22
-3698.4
-3666.84
-3716.94
-3674.17
-5522.56
-5540.45
-5529.93
-5558.17
-5537.59
-5576.56
-5545.23
-5594.87
-5552.38
)
;
    }
    procBoundary6to7
    {
        type            processor;
        value           nonuniform List<scalar> 
12
(
21.0197
19.3649
19.7513
-1855.74
-1857.16
-1857.3
-3734.68
-3735.23
-3735.16
-5612.78
-5613.01
-5612.84
)
;
    }
}


// ************************************************************************* //
