/*--------------------------------*- C++ -*----------------------------------*\
| =========                 |                                                 |
| \\      /  F ield         | OpenFOAM: The Open Source CFD Toolbox           |
|  \\    /   O peration     | Version:  4.x                                   |
|   \\  /    A nd           | Web:      www.OpenFOAM.org                      |
|    \\/     M anipulation  |                                                 |
\*---------------------------------------------------------------------------*/
FoamFile
{
    version     2.0;
    format      ascii;
    class       volScalarField;
    location    "37";
    object      QPartFluidCoeff;
}
// * * * * * * * * * * * * * * * * * * * * * * * * * * * * * * * * * * * * * //

dimensions      [1 -1 -3 -1 0 0 0];

internalField   nonuniform List<scalar> 
87
(
-2.68943e+07
-2.24125e+07
-2.97365e+07
-1.89655e+07
-2.07045e+07
-1.86968e+07
-3.3177e+07
-2.98579e+07
-2.02984e+07
-2.67423e+07
-3.68875e+07
-2.04167e+07
-2.89915e+07
-2.21793e+07
-3.3167e+07
-2.10122e+07
-3.0746e+07
-2.72765e+07
-3.41272e+07
-2.9538e+07
-2.92039e+07
-2.92031e+07
-3.08282e+07
-3.13264e+07
-1.55929e+07
-2.52976e+07
-1.98754e+07
-2.05155e+07
-2.90579e+07
-3.16597e+07
-2.45594e+07
-2.11988e+07
-2.9346e+07
-2.44979e+07
-3.00109e+07
-3.22008e+07
-2.87824e+07
-2.22364e+07
-2.62917e+07
-2.6433e+07
-2.03005e+07
-3.18726e+07
-1.7914e+07
-2.95836e+07
-2.94942e+07
-2.6818e+07
-2.64934e+07
-2.18962e+07
-3.34303e+07
-2.19957e+07
-3.32396e+07
-1.60341e+07
-2.22675e+07
-2.06019e+07
-2.61532e+07
-2.741e+07
-2.06063e+07
-2.54518e+07
-2.15146e+07
-2.29547e+07
-1.63742e+07
-1.80266e+07
-2.47747e+07
-2.3415e+07
-2.39017e+07
-2.16719e+07
-3.4325e+07
-2.89429e+07
-1.51123e+07
-1.73259e+07
-1.94482e+07
-2.54273e+07
-2.06326e+07
-3.22433e+07
-2.23919e+07
-2.40232e+07
-2.03288e+07
-2.82443e+07
-1.41572e+07
-2.04576e+07
-2.25517e+07
-2.11276e+07
-1.74769e+07
-2.83018e+07
-1.87194e+07
-1.88322e+07
-2.39767e+07
)
;

boundaryField
{
    inlet
    {
        type            calculated;
        value           uniform 0;
    }
    outlet
    {
        type            calculated;
        value           nonuniform 0();
    }
    wall
    {
        type            calculated;
        value           uniform 0;
    }
    procBoundary6to0
    {
        type            processor;
        value           uniform 195.776;
    }
    procBoundary6to2
    {
        type            processor;
        value           nonuniform List<scalar> 
32
(
434.93
644.09
775.204
734.264
407.22
586.53
370.155
716.807
778.181
541.372
622.218
473.841
571.885
566.265
566.265
566.265
443.86
597.365
795.317
498.762
688.748
579.048
778.705
778.705
778.705
321.86
476.373
567.573
547.465
509.863
489.865
489.865
)
;
    }
    procBoundary6to4
    {
        type            processor;
        value           nonuniform List<scalar> 
27
(
261.256
508.505
709.642
430.373
663.377
501.873
831.056
451.687
532.823
468.949
648.849
570.098
729.999
795.4
576.201
894.89
643.124
615.222
548.147
530.111
506.372
603.155
637.889
720.848
375.744
391.371
535.483
)
;
    }
    procBoundary6to7
    {
        type            processor;
        value           nonuniform List<scalar> 
12
(
561.952
395.605
533.337
290.22
453.541
512.219
644.999
619.671
456.337
549.274
478.645
460.906
)
;
    }
}


// ************************************************************************* //
