/*--------------------------------*- C++ -*----------------------------------*\
| =========                 |                                                 |
| \\      /  F ield         | OpenFOAM: The Open Source CFD Toolbox           |
|  \\    /   O peration     | Version:  4.x                                   |
|   \\  /    A nd           | Web:      www.OpenFOAM.org                      |
|    \\/     M anipulation  |                                                 |
\*---------------------------------------------------------------------------*/
FoamFile
{
    version     2.0;
    format      ascii;
    class       volVectorField;
    location    "37";
    object      U;
}
// * * * * * * * * * * * * * * * * * * * * * * * * * * * * * * * * * * * * * //

dimensions      [0 1 -1 0 0 0 0];

internalField   nonuniform List<vector> 
87
(
(0.0277393 0.00019336 0.000127078)
(0.006764 0.000477796 -0.00050206)
(0.0300726 0.000745428 -0.000347772)
(0.0326169 0.000507128 -0.000832221)
(0.0153915 1.05614e-05 -0.000943526)
(0.0333316 0.000116661 -0.00074797)
(0.0294535 0.000418888 -0.000581977)
(0.00870632 0.000268077 -0.000182965)
(0.0279781 0.000507099 -0.000433169)
(0.00441452 0.000136599 -0.000132656)
(0.0274104 0.00029085 -0.000288024)
(0.00124462 4.86476e-05 -4.04566e-05)
(0.0269848 -7.53981e-05 -0.000198693)
(1.09628e-08 -7.22467e-10 1.18392e-09)
(0.0268536 -0.000401503 -0.000185714)
(0.0297215 0.00158785 -0.000424382)
(0.00987017 0.000567315 -0.000241232)
(0.0290729 0.00149605 -0.000340266)
(0.00708373 0.000427546 -0.000271289)
(0.0286711 0.000977331 -0.000273559)
(0.00451793 0.00028851 -0.000225293)
(0.0283269 0.000500874 -0.000319721)
(0.00205584 0.000168535 -0.000153292)
(0.0281633 -2.68279e-05 -0.000311285)
(0.0300233 0.000986549 -0.000515142)
(0.0127137 0.000483929 -0.00034789)
(0.0307129 0.00106819 -0.000529656)
(0.0133401 0.000375973 -0.000541625)
(0.0312011 0.000796416 -0.000535204)
(0.0132145 0.000283812 -0.000555848)
(0.031347 0.000725525 -0.000478492)
(0.0128345 0.000212124 -0.000636739)
(0.0315255 0.000281812 -0.000402562)
(0.0296229 0.000739184 0.00081988)
(0.00990281 0.000315804 0.000225804)
(0.0289116 0.000823813 0.000789837)
(0.00700197 0.00022151 0.000226439)
(0.028521 0.000547658 0.000583511)
(0.00440107 4.91797e-05 0.000136194)
(0.0283002 0.000200855 0.000140471)
(0.00202693 -1.98951e-05 0.000129069)
(0.028195 9.02405e-06 -0.000121779)
(0.0297833 0.00156019 0.000715028)
(0.0114704 0.000677904 0.000270951)
(0.0297895 0.00156365 0.000846117)
(0.010571 0.000484162 0.000173234)
(0.0297977 0.00127827 0.000758472)
(0.00955694 0.000443823 0.000117266)
(0.0296779 0.00104351 0.000644555)
(0.00810811 0.000335565 3.53797e-05)
(0.0298026 0.000732157 0.000332484)
(0.0299694 0.00083318 0.000409431)
(0.0134757 0.000436869 0.000113766)
(0.0312413 0.000804483 0.000440188)
(0.0149482 0.000327801 0.000126601)
(0.0321399 0.000598615 0.000430119)
(0.0157155 0.000307493 -3.72054e-06)
(0.032646 0.000502204 0.000250549)
(0.0160131 0.000211851 -0.000135363)
(0.0331378 0.000309039 0.000122768)
(0.0298344 0.000728699 0.000766345)
(0.0126893 0.000262393 0.000337129)
(0.0303565 0.000579628 0.000777017)
(0.012835 0.000174855 0.000237572)
(0.0308119 0.000257672 0.000712368)
(0.0127027 -2.64459e-05 0.000223779)
(0.0310928 -0.000133885 0.00064957)
(0.0119836 -0.000187518 0.000303779)
(0.0312218 -0.000229545 0.000546908)
(0.029901 0.00118676 0.000544493)
(0.0135029 0.000573418 0.00026648)
(0.0310197 0.00120754 0.000528728)
(0.0148053 0.000536631 0.000166315)
(0.0319933 0.000925992 0.000422777)
(0.0155561 0.000464415 0.000207307)
(0.0324077 0.000754689 0.000434901)
(0.0156663 0.000173253 0.000100802)
(0.0329616 0.000348599 0.000274568)
(0.0299828 0.000662294 0.000377101)
(0.0144073 0.000322333 0.000141729)
(0.0318975 0.000637107 0.000359133)
(0.0170327 0.000325009 0.000144829)
(0.0336166 0.000475296 0.000287222)
(0.0189841 0.000161261 4.31698e-05)
(0.0345896 0.000334325 0.000256406)
(0.0198928 4.8152e-05 -7.96574e-05)
(0.0352737 8.91194e-05 4.40499e-05)
)
;

boundaryField
{
    inlet
    {
        type            fixedValue;
        value           uniform (0.01 0 0);
    }
    outlet
    {
        type            zeroGradient;
    }
    wall
    {
        type            fixedValue;
        value           uniform (0 0 0);
    }
    procBoundary6to0
    {
        type            processor;
        value           uniform (0.0274442 -0.000135573 -5.21771e-05);
    }
    procBoundary6to2
    {
        type            processor;
        value           nonuniform List<vector> 
32
(
(0.0282944 -0.000302617 -0.000338933)
(0.00444432 0.000196055 -0.000322628)
(0.0294492 0.000496898 -0.0002597)
(0.0328088 0.000730839 -0.00100614)
(0.0155541 0.000159421 -0.000930741)
(0.0335825 0.0004147 -0.000746195)
(0.0296772 0.00065565 -0.00179963)
(0.00927901 0.000368079 -0.000749333)
(0.0288661 0.000951195 -0.00154135)
(0.00615479 0.000284042 -0.000529929)
(0.0282705 0.000769933 -0.000983402)
(0.00368631 0.000218682 -0.000287711)
(0.0279878 0.000449825 -0.000310075)
(0.00156321 0.000127693 -0.000171174)
(0.00156321 0.000127693 -0.000171174)
(0.00156321 0.000127693 -0.000171174)
(0.0297266 0.00146906 -0.00150745)
(0.0105713 0.000697801 -0.000733462)
(0.0295485 0.00157419 -0.001343)
(0.00896244 0.000528981 -0.000642019)
(0.0294006 0.00136434 -0.00105023)
(0.00767667 0.000464963 -0.000485469)
(0.0296557 0.0011271 -0.000631447)
(0.0296557 0.0011271 -0.000631447)
(0.0296557 0.0011271 -0.000631447)
(0.0299786 0.000919618 -0.00137219)
(0.0128343 0.000463096 -0.000853608)
(0.0310317 0.000945998 -0.00142003)
(0.0139303 0.000376294 -0.00100306)
(0.031816 0.000760868 -0.00130533)
(0.0147999 0.000272481 -0.000790383)
(0.0147999 0.000272481 -0.000790383)
)
;
    }
    procBoundary6to4
    {
        type            processor;
        value           nonuniform List<vector> 
27
(
(0.0296701 -0.000514876 -0.000512899)
(0.00940444 -0.000108475 -0.000161478)
(0.0284899 -0.000426193 -0.000185169)
(0.00559397 -0.000179762 -0.000137242)
(0.0278396 -0.000394513 -1.5801e-05)
(0.00228055 -9.97383e-05 -5.94279e-06)
(0.0276294 -1.8867e-05 -5.27386e-05)
(7.25582e-05 -5.05261e-06 1.12841e-06)
(0.0275098 -2.15465e-06 -0.000131065)
(0.0296878 -0.000326212 0.000411244)
(0.0100851 1.59535e-05 0.000338793)
(0.0289397 -8.25115e-05 0.000806926)
(0.0073133 -1.17027e-05 0.000241246)
(0.0286771 -7.55364e-05 0.000841329)
(0.00514954 -8.46097e-05 0.000271418)
(0.0286938 -0.000100939 0.000751008)
(0.0035832 -7.77439e-05 0.00020416)
(0.0288004 -8.08604e-05 0.00016118)
(0.0296775 -0.000147731 0.000550266)
(0.0122211 -6.00207e-05 0.000373127)
(0.0300983 -0.000239802 0.000800661)
(0.0122938 -0.000165284 0.000350684)
(0.0308305 -0.000280125 0.000769664)
(0.0128624 -0.000251447 0.000361797)
(0.0315412 -0.00036015 0.000804693)
(0.0137122 -0.000268396 0.000214914)
(0.0324527 -0.000419343 0.000491106)
)
;
    }
    procBoundary6to7
    {
        type            processor;
        value           nonuniform List<vector> 
12
(
(3.76374e-05 6.05303e-06 -4.83388e-06)
(0.00633113 0.000635939 -0.000628509)
(0.0154586 -0.000267809 -0.00119155)
(1.10663e-08 -5.04309e-10 2.03635e-09)
(0.000181439 2.186e-05 -1.79211e-05)
(0.0117361 0.000160957 -0.000723218)
(2.67495e-05 5.05333e-08 2.44858e-06)
(0.00674773 0.000305224 4.84709e-05)
(0.016124 2.77945e-05 -0.000223647)
(0.0110845 -0.000243045 0.000237747)
(0.0154868 0.000159363 -3.54572e-05)
(0.0201322 -0.000132628 -0.000208314)
)
;
    }
}


// ************************************************************************* //
