/*--------------------------------*- C++ -*----------------------------------*\
| =========                 |                                                 |
| \\      /  F ield         | OpenFOAM: The Open Source CFD Toolbox           |
|  \\    /   O peration     | Version:  4.x                                   |
|   \\  /    A nd           | Web:      www.OpenFOAM.org                      |
|    \\/     M anipulation  |                                                 |
\*---------------------------------------------------------------------------*/
FoamFile
{
    version     2.0;
    format      ascii;
    class       volVectorField;
    location    "8";
    object      UsNext;
}
// * * * * * * * * * * * * * * * * * * * * * * * * * * * * * * * * * * * * * //

dimensions      [0 1 -1 0 0 0 0];

internalField   nonuniform List<vector> 
108
(
(7.83653e-09 1.23459e-09 5.56911e-09)
(9.8697e-09 2.36104e-09 6.93557e-09)
(8.17245e-09 -2.11539e-09 8.10464e-09)
(-2.30155e-08 -3.54361e-09 -1.56256e-09)
(-4.63057e-08 1.21638e-09 8.22287e-09)
(-8.42111e-08 -6.6683e-09 1.4808e-08)
(-1.64175e-07 -2.0859e-08 9.14344e-09)
(-2.28179e-07 -1.88092e-08 2.74903e-08)
(-2.04977e-07 6.16584e-09 -7.90043e-09)
(9.58911e-09 2.76613e-09 7.4193e-09)
(6.37858e-09 3.24165e-09 1.01518e-08)
(-5.03568e-09 6.47837e-09 1.02582e-08)
(-4.21934e-08 5.06666e-09 1.45561e-09)
(-9.32326e-08 -1.20142e-08 9.58078e-09)
(-1.55555e-07 -3.84968e-08 -1.17193e-08)
(-2.43607e-07 -4.37778e-08 1.51229e-08)
(-2.77316e-07 -1.50446e-08 1.63831e-08)
(-3.47079e-07 -2.80222e-08 2.0551e-08)
(1.06456e-08 5.88911e-09 5.6613e-09)
(6.18469e-09 9.13901e-09 1.21519e-08)
(-1.87342e-08 1.04547e-08 1.05257e-08)
(-6.09432e-08 1.70342e-08 1.63561e-08)
(-1.1846e-07 -9.30622e-09 5.59715e-09)
(-2.14653e-07 -3.82708e-08 -1.93668e-09)
(-2.82574e-07 -2.83639e-08 1.28985e-08)
(-3.33305e-07 -3.14978e-08 2.00902e-08)
(-3.8022e-07 -3.41927e-08 3.77885e-09)
(8.91138e-09 6.88868e-09 6.39182e-09)
(7.4556e-09 1.08469e-08 7.82559e-09)
(-1.21234e-08 1.74089e-08 7.05437e-09)
(-5.0948e-08 1.63872e-08 1.13212e-08)
(-1.40719e-07 -8.43472e-09 7.36531e-09)
(-2.69098e-07 -2.86095e-08 9.8481e-09)
(-3.20535e-07 -2.50114e-08 1.02531e-08)
(-3.82956e-07 -3.5559e-08 3.63058e-08)
(-4.01977e-07 -1.4741e-08 2.74707e-08)
(7.20746e-09 -3.98411e-11 4.11284e-09)
(9.94188e-09 -1.32948e-10 5.34197e-09)
(3.45724e-09 -1.4045e-09 5.07717e-09)
(-1.56871e-08 -4.85155e-09 5.96419e-09)
(-4.08195e-08 -3.79988e-09 9.21749e-09)
(-5.91983e-08 -1.02207e-08 1.92469e-08)
(-9.89797e-08 -2.9692e-09 1.36661e-08)
(-1.90106e-07 -2.14991e-08 6.00602e-09)
(-1.93619e-07 -1.00251e-08 1.69471e-09)
(1.05082e-08 1.88157e-09 4.73777e-09)
(7.65817e-09 3.37339e-09 7.11399e-09)
(-2.27629e-09 1.95372e-09 8.78993e-09)
(-3.87264e-08 1.69262e-09 8.61735e-09)
(-8.22187e-08 -1.17958e-08 7.84817e-09)
(-1.17084e-07 -2.51829e-08 1.81519e-08)
(-1.92346e-07 -3.53988e-08 1.44326e-08)
(-2.22967e-07 -4.16783e-08 -4.66863e-09)
(-2.7134e-07 -3.22889e-08 1.54984e-08)
(9.11085e-09 3.82768e-09 3.11025e-09)
(6.44957e-09 5.64463e-09 9.74518e-09)
(-4.94822e-09 8.3528e-09 1.08266e-08)
(-4.1594e-08 7.82731e-09 5.75013e-09)
(-8.57077e-08 -4.96189e-09 1.03608e-08)
(-1.75696e-07 -2.64321e-08 9.51018e-09)
(-2.4288e-07 -3.33434e-08 1.0755e-08)
(-2.84907e-07 -3.76964e-08 2.02885e-08)
(-3.2951e-07 -3.78962e-08 -9.24569e-09)
(1.09199e-08 6.16778e-09 3.33925e-09)
(7.9829e-09 8.77776e-09 5.15299e-09)
(-1.58642e-08 1.51185e-08 1.07433e-08)
(-4.16231e-08 1.09488e-08 1.32868e-08)
(-7.92355e-08 1.81682e-09 2.07217e-08)
(-2.26619e-07 -3.43738e-08 2.11603e-08)
(-2.64751e-07 -4.52794e-08 1.54086e-08)
(-3.14542e-07 -2.98584e-08 8.86849e-09)
(-3.40711e-07 -1.64425e-08 -8.62065e-09)
(8.05752e-09 -2.76362e-10 9.95298e-10)
(9.72635e-09 -1.00766e-10 2.60619e-09)
(8.15065e-09 -3.55117e-09 4.23606e-09)
(-1.19263e-08 -3.49112e-09 4.26496e-09)
(-2.1535e-08 -6.03447e-09 6.30978e-09)
(-3.94285e-08 -7.54471e-09 1.25187e-08)
(-6.86998e-08 -3.91607e-09 1.56853e-08)
(-9.44819e-08 1.20739e-09 1.13768e-08)
(-1.19772e-07 -1.87955e-08 3.51265e-09)
(1.23168e-08 1.14031e-09 -2.55215e-09)
(8.5528e-09 1.64843e-09 3.66206e-09)
(5.36039e-10 -7.63747e-10 7.07084e-09)
(-2.02248e-08 -5.70643e-09 7.68867e-09)
(-4.67292e-08 -5.82119e-09 6.894e-09)
(-8.46845e-08 -4.92654e-09 1.09546e-08)
(-1.02553e-07 -1.68605e-08 8.46804e-09)
(-1.4323e-07 3.66416e-09 1.11704e-09)
(-1.72813e-07 -1.42621e-08 1.95389e-08)
(1.08474e-08 3.43922e-09 2.18846e-10)
(6.02697e-09 4.29415e-09 3.62883e-09)
(-5.57674e-11 2.67847e-10 6.12513e-09)
(-2.32704e-08 -4.22426e-09 6.95482e-09)
(-6.11819e-08 -7.92886e-09 5.18477e-09)
(-1.26747e-07 -1.15396e-08 1.30807e-08)
(-1.62927e-07 -2.55909e-08 1.66852e-08)
(-2.01424e-07 -1.97672e-08 2.13597e-09)
(-2.15114e-07 -2.90963e-08 -1.20938e-08)
(7.06425e-09 4.17146e-09 1.77352e-09)
(6.58418e-09 6.15042e-09 3.66926e-09)
(-8.60865e-09 -3.34386e-10 9.19458e-09)
(-2.79577e-08 4.17845e-09 9.07286e-09)
(-5.46881e-08 8.08895e-09 2.17701e-08)
(-1.10442e-07 -4.51884e-09 2.12056e-08)
(-1.64136e-07 -2.93913e-08 1.85038e-08)
(-5.96565e-07 1.94647e-07 3.93201e-09)
(-2.63689e-07 -1.67731e-08 2.06053e-09)
)
;

boundaryField
{
    inlet
    {
        type            calculated;
        value           nonuniform List<vector> 
12
(
(7.83653e-09 1.23459e-09 5.56911e-09)
(9.58911e-09 2.76613e-09 7.4193e-09)
(1.06456e-08 5.88911e-09 5.6613e-09)
(8.91138e-09 6.88868e-09 6.39182e-09)
(7.20746e-09 -3.98411e-11 4.11284e-09)
(1.05082e-08 1.88157e-09 4.73777e-09)
(9.11085e-09 3.82768e-09 3.11025e-09)
(1.09199e-08 6.16778e-09 3.33925e-09)
(8.05752e-09 -2.76362e-10 9.95298e-10)
(1.23168e-08 1.14031e-09 -2.55215e-09)
(1.08474e-08 3.43922e-09 2.18846e-10)
(7.06425e-09 4.17146e-09 1.77352e-09)
)
;
    }
    outlet
    {
        type            calculated;
        value           nonuniform 0();
    }
    wall
    {
        type            calculated;
        value           nonuniform List<vector> 
63
(
(8.05752e-09 -2.76362e-10 9.95298e-10)
(1.23168e-08 1.14031e-09 -2.55215e-09)
(1.08474e-08 3.43922e-09 2.18846e-10)
(7.06425e-09 4.17146e-09 1.77352e-09)
(9.72635e-09 -1.00766e-10 2.60619e-09)
(8.5528e-09 1.64843e-09 3.66206e-09)
(6.02697e-09 4.29415e-09 3.62883e-09)
(6.58418e-09 6.15042e-09 3.66926e-09)
(8.15065e-09 -3.55117e-09 4.23606e-09)
(5.36039e-10 -7.63747e-10 7.07084e-09)
(-5.57674e-11 2.67847e-10 6.12513e-09)
(-8.60865e-09 -3.34386e-10 9.19458e-09)
(-1.19263e-08 -3.49112e-09 4.26496e-09)
(-2.02248e-08 -5.70643e-09 7.68867e-09)
(-2.32704e-08 -4.22426e-09 6.95482e-09)
(-2.79577e-08 4.17845e-09 9.07286e-09)
(-2.1535e-08 -6.03447e-09 6.30978e-09)
(-4.67292e-08 -5.82119e-09 6.894e-09)
(-6.11819e-08 -7.92886e-09 5.18477e-09)
(-5.46881e-08 8.08895e-09 2.17701e-08)
(-3.94285e-08 -7.54471e-09 1.25187e-08)
(-8.46845e-08 -4.92654e-09 1.09546e-08)
(-1.26747e-07 -1.15396e-08 1.30807e-08)
(-1.10442e-07 -4.51884e-09 2.12056e-08)
(-6.86998e-08 -3.91607e-09 1.56853e-08)
(-1.02553e-07 -1.68605e-08 8.46804e-09)
(-1.62927e-07 -2.55909e-08 1.66852e-08)
(-1.64136e-07 -2.93913e-08 1.85038e-08)
(-9.44819e-08 1.20739e-09 1.13768e-08)
(-1.4323e-07 3.66416e-09 1.11704e-09)
(-2.01424e-07 -1.97672e-08 2.13597e-09)
(-5.96565e-07 1.94647e-07 3.93201e-09)
(-1.19772e-07 -1.87955e-08 3.51265e-09)
(-1.72813e-07 -1.42621e-08 1.95389e-08)
(-2.15114e-07 -2.90963e-08 -1.20938e-08)
(-2.63689e-07 -1.67731e-08 2.06053e-09)
(7.83653e-09 1.23459e-09 5.56911e-09)
(7.20746e-09 -3.98411e-11 4.11284e-09)
(8.05752e-09 -2.76362e-10 9.95298e-10)
(9.8697e-09 2.36104e-09 6.93557e-09)
(9.94188e-09 -1.32948e-10 5.34197e-09)
(9.72635e-09 -1.00766e-10 2.60619e-09)
(8.17245e-09 -2.11539e-09 8.10464e-09)
(3.45724e-09 -1.4045e-09 5.07717e-09)
(8.15065e-09 -3.55117e-09 4.23606e-09)
(-2.30155e-08 -3.54361e-09 -1.56256e-09)
(-1.56871e-08 -4.85155e-09 5.96419e-09)
(-1.19263e-08 -3.49112e-09 4.26496e-09)
(-4.63057e-08 1.21638e-09 8.22287e-09)
(-4.08195e-08 -3.79988e-09 9.21749e-09)
(-2.1535e-08 -6.03447e-09 6.30978e-09)
(-8.42111e-08 -6.6683e-09 1.4808e-08)
(-5.91983e-08 -1.02207e-08 1.92469e-08)
(-3.94285e-08 -7.54471e-09 1.25187e-08)
(-1.64175e-07 -2.0859e-08 9.14344e-09)
(-9.89797e-08 -2.9692e-09 1.36661e-08)
(-6.86998e-08 -3.91607e-09 1.56853e-08)
(-2.28179e-07 -1.88092e-08 2.74903e-08)
(-1.90106e-07 -2.14991e-08 6.00602e-09)
(-9.44819e-08 1.20739e-09 1.13768e-08)
(-2.04977e-07 6.16584e-09 -7.90043e-09)
(-1.93619e-07 -1.00251e-08 1.69471e-09)
(-1.19772e-07 -1.87955e-08 3.51265e-09)
)
;
    }
    procBoundary4to0
    {
        type            processor;
        value           nonuniform List<vector> 
36
(
(1.17938e-08 2.77936e-09 1.17292e-08)
(1.78819e-08 6.80865e-09 1.19633e-08)
(1.39559e-08 1.37685e-10 3.06174e-09)
(-4.68783e-08 -6.43546e-09 -1.03386e-08)
(-7.52128e-08 -3.37404e-09 -1.14915e-08)
(-1.46411e-07 -2.07318e-08 -6.23018e-09)
(-1.80481e-07 -1.87621e-08 2.0751e-09)
(-2.72593e-07 -4.40949e-10 1.26673e-08)
(-2.87104e-07 -1.93781e-08 3.31445e-09)
(1.37278e-08 5.06078e-09 1.15239e-08)
(1.50461e-08 8.05011e-09 1.51572e-08)
(2.11704e-10 1.86895e-09 6.04793e-09)
(-8.6687e-08 -1.04078e-08 -6.55729e-09)
(-1.4962e-07 -1.71903e-08 -7.7375e-09)
(-2.00902e-07 -2.28147e-08 -7.2012e-09)
(-2.73958e-07 -2.63169e-08 1.19983e-08)
(-3.34816e-07 -1.13183e-08 2.34882e-08)
(-3.66052e-07 -2.77836e-08 1.77773e-08)
(1.61129e-08 1.33033e-08 1.08706e-08)
(1.41753e-08 1.29792e-08 1.21708e-08)
(-4.96659e-09 9.40274e-09 3.59324e-09)
(-7.61185e-08 3.89234e-09 8.09405e-09)
(-1.52921e-07 -3.26365e-08 2.78529e-09)
(-2.44172e-07 -2.3111e-08 -6.26622e-09)
(-3.16838e-07 -2.89171e-08 1.17521e-08)
(-3.67789e-07 -2.49122e-08 2.84342e-08)
(-4.03615e-07 -4.15199e-08 2.97258e-08)
(1.55271e-08 1.12576e-08 8.12676e-09)
(9.82737e-09 1.71825e-08 8.58595e-09)
(-6.94352e-09 1.54673e-08 6.24181e-09)
(-7.49819e-08 4.31024e-09 -8.14544e-09)
(-1.59682e-07 -2.18161e-08 -1.41503e-08)
(-2.59599e-07 -1.72958e-08 5.5068e-09)
(-3.31168e-07 -2.44552e-08 2.00702e-08)
(-3.61043e-07 -2.67969e-08 3.83834e-08)
(-4.08108e-07 -2.77514e-08 5.27053e-08)
)
;
    }
    procBoundary4to5
    {
        type            processor;
        value           nonuniform List<vector> 
12
(
(-2.59341e-07 1.81579e-08 1.76796e-08)
(-3.75367e-07 -4.99029e-08 1.45157e-08)
(-4.17682e-07 -3.7803e-08 4.15164e-09)
(-4.20682e-07 -2.46776e-08 2.68233e-08)
(-2.3971e-07 1.20797e-08 3.19993e-08)
(-3.30469e-07 1.59588e-09 -3.83472e-09)
(-3.84396e-07 -2.96712e-08 -6.08685e-09)
(-3.89815e-07 -1.60306e-08 -1.90804e-08)
(-1.22743e-07 2.17229e-08 1.65438e-08)
(-2.42142e-07 2.15887e-08 1.45393e-08)
(-2.68237e-07 -1.00112e-09 5.4258e-09)
(-2.46019e-07 -3.28923e-08 7.78503e-09)
)
;
    }
    procBoundary4to6
    {
        type            processor;
        value           nonuniform List<vector> 
27
(
(8.56996e-09 8.14257e-09 7.23928e-09)
(4.23299e-09 1.45943e-08 8.01295e-09)
(-1.46959e-08 1.03455e-08 9.62771e-09)
(-4.86587e-08 4.48901e-09 9.10147e-09)
(-1.41577e-07 4.30977e-09 2.56014e-09)
(-2.64027e-07 -1.77081e-08 3.14723e-08)
(-2.99692e-07 -2.14256e-08 2.87844e-08)
(-3.40304e-07 -2.62429e-08 3.29177e-08)
(-3.80063e-07 -9.28439e-09 3.85755e-08)
(1.01273e-08 8.31087e-09 3.4814e-09)
(1.91854e-09 1.45229e-08 9.5999e-09)
(-1.3884e-08 1.37855e-08 1.12476e-08)
(-3.8333e-08 1.37737e-08 9.88808e-09)
(-8.99864e-08 1.35481e-08 5.4549e-09)
(-2.08876e-07 1.13546e-08 2.19249e-08)
(-2.64607e-07 -7.87258e-09 1.20041e-08)
(-3.04411e-07 -2.59969e-08 2.63256e-08)
(-3.23169e-07 -1.1834e-08 2.46282e-08)
(8.17269e-09 6.92856e-09 1.12317e-10)
(7.71775e-09 1.03135e-08 4.33694e-09)
(-4.07133e-09 5.38312e-09 8.3075e-09)
(-3.147e-08 4.17479e-09 1.01502e-08)
(-6.7472e-08 3.60392e-09 1.61064e-08)
(-1.27807e-07 -1.05341e-09 1.88621e-08)
(-2.06558e-07 -2.69654e-08 4.8182e-09)
(-2.19999e-07 -1.70229e-08 1.06045e-08)
(-2.60484e-07 -3.97875e-08 -2.69852e-08)
)
;
    }
}


// ************************************************************************* //
