/*--------------------------------*- C++ -*----------------------------------*\
| =========                 |                                                 |
| \\      /  F ield         | OpenFOAM: The Open Source CFD Toolbox           |
|  \\    /   O peration     | Version:  4.x                                   |
|   \\  /    A nd           | Web:      www.OpenFOAM.org                      |
|    \\/     M anipulation  |                                                 |
\*---------------------------------------------------------------------------*/
FoamFile
{
    version     2.0;
    format      ascii;
    class       volVectorField;
    location    "8";
    object      UsPrev;
}
// * * * * * * * * * * * * * * * * * * * * * * * * * * * * * * * * * * * * * //

dimensions      [0 1 -1 0 0 0 0];

internalField   nonuniform List<vector> 
108
(
(6.07203e-09 9.23737e-10 -8.2039e-11)
(5.94256e-09 1.93063e-09 2.96139e-09)
(2.11846e-09 -2.46405e-09 7.03389e-09)
(-2.89827e-08 -3.48521e-09 -2.57341e-10)
(-5.13466e-08 1.46543e-09 1.14069e-08)
(-8.66757e-08 -6.38441e-09 1.74879e-08)
(-1.65566e-07 -2.05619e-08 1.12682e-08)
(-2.28698e-07 -1.86548e-08 2.8773e-08)
(-2.05202e-07 6.29654e-09 -7.09932e-09)
(7.27243e-09 1.2964e-09 2.11369e-09)
(1.17742e-09 1.81675e-09 5.32056e-09)
(-1.39599e-08 5.80488e-09 8.75616e-09)
(-4.93e-08 5.11276e-09 2.97681e-09)
(-9.93244e-08 -1.13833e-08 1.27347e-08)
(-1.58681e-07 -3.79304e-08 -8.97699e-09)
(-2.45672e-07 -4.31087e-08 1.76014e-08)
(-2.78132e-07 -1.4591e-08 1.77204e-08)
(-3.47559e-07 -2.76181e-08 2.17052e-08)
(8.73474e-09 4.03677e-09 1.85431e-09)
(1.13719e-09 7.00814e-09 8.39945e-09)
(-2.62719e-08 9.52298e-09 9.38885e-09)
(-6.66836e-08 1.703e-08 1.71482e-08)
(-1.23684e-07 -8.59583e-09 7.61697e-09)
(-2.17474e-07 -3.75551e-08 -6.68532e-11)
(-2.84582e-07 -2.75323e-08 1.46076e-08)
(-3.34302e-07 -3.08757e-08 2.13196e-08)
(-3.81052e-07 -3.36797e-08 4.66501e-09)
(7.42924e-09 5.40361e-09 4.49872e-09)
(3.72384e-09 8.86524e-09 5.43391e-09)
(-1.72388e-08 1.64441e-08 6.26617e-09)
(-5.54178e-08 1.63163e-08 1.16545e-08)
(-1.45094e-07 -7.79013e-09 8.60508e-09)
(-2.71855e-07 -2.78842e-08 1.10637e-08)
(-3.22647e-07 -2.41868e-08 1.14682e-08)
(-3.84172e-07 -3.50261e-08 3.70532e-08)
(-4.02999e-07 -1.41687e-08 2.81985e-08)
(6.07731e-09 -3.31947e-10 1.723e-09)
(7.00957e-09 -5.62443e-10 2.85055e-09)
(-5.64248e-10 -1.48267e-09 4.19623e-09)
(-1.96501e-08 -4.88288e-09 6.17238e-09)
(-4.52458e-08 -3.77164e-09 1.04125e-08)
(-6.16688e-08 -1.00563e-08 2.04101e-08)
(-1.01127e-07 -2.85526e-09 1.50258e-08)
(-1.91143e-07 -2.13562e-08 6.86854e-09)
(-1.94303e-07 -9.90746e-09 2.3117e-09)
(8.56233e-09 9.74885e-10 1.33717e-09)
(4.18601e-09 2.52717e-09 4.35322e-09)
(-7.84692e-09 1.54527e-09 7.78391e-09)
(-4.40654e-08 1.61273e-09 9.09848e-09)
(-8.73306e-08 -1.16096e-08 9.15405e-09)
(-1.20034e-07 -2.49189e-08 1.94749e-08)
(-1.94925e-07 -3.50433e-08 1.58071e-08)
(-2.24448e-07 -4.13866e-08 -3.76072e-09)
(-2.72404e-07 -3.20105e-08 1.62429e-08)
(8.09331e-09 2.92303e-09 1.37421e-09)
(3.32064e-09 4.54276e-09 7.72647e-09)
(-9.8328e-09 7.65753e-09 9.92293e-09)
(-4.59757e-08 7.63517e-09 5.88198e-09)
(-9.02206e-08 -4.71249e-09 1.1293e-08)
(-1.78604e-07 -2.60598e-08 1.05095e-08)
(-2.45288e-07 -3.28651e-08 1.18329e-08)
(-2.86355e-07 -3.72988e-08 2.0966e-08)
(-3.30732e-07 -3.75046e-08 -8.64087e-09)
(9.95294e-09 5.12441e-09 1.94743e-09)
(5.32709e-09 7.53543e-09 3.71193e-09)
(-2.00637e-08 1.43718e-08 1.00454e-08)
(-4.52239e-08 1.0702e-08 1.33041e-08)
(-8.3123e-08 2.02277e-09 2.13062e-08)
(-2.2941e-07 -3.4016e-08 2.1823e-08)
(-2.67199e-07 -4.47949e-08 1.61457e-08)
(-3.16011e-07 -2.94688e-08 9.36768e-09)
(-3.41917e-07 -1.60535e-08 -8.20861e-09)
(7.36002e-09 -4.64624e-10 2.07195e-10)
(8.1506e-09 -2.21155e-10 1.97548e-09)
(5.87347e-09 -3.67417e-09 3.88006e-09)
(-1.39371e-08 -3.50304e-09 4.30676e-09)
(-2.43088e-08 -5.99151e-09 6.59505e-09)
(-4.1391e-08 -7.48396e-09 1.28951e-08)
(-7.04447e-08 -3.82841e-09 1.6088e-08)
(-9.55094e-08 1.27268e-09 1.16509e-08)
(-1.20502e-07 -1.87284e-08 3.71174e-09)
(1.15346e-08 6.86069e-10 -3.40938e-09)
(6.74905e-09 1.21678e-09 2.86209e-09)
(-3.09737e-09 -1.10017e-09 6.58629e-09)
(-2.32949e-08 -5.8228e-09 7.73263e-09)
(-5.0045e-08 -5.79294e-09 7.29948e-09)
(-8.7061e-08 -4.80236e-09 1.13786e-08)
(-1.04463e-07 -1.6701e-08 8.90783e-09)
(-1.44546e-07 3.86505e-09 1.50252e-09)
(-1.73591e-07 -1.40967e-08 1.98074e-08)
(1.01742e-08 2.76768e-09 -3.72939e-10)
(4.38568e-09 3.66615e-09 2.91093e-09)
(-2.79782e-09 -1.32829e-10 5.80154e-09)
(-2.56598e-08 -4.38134e-09 6.93508e-09)
(-6.45792e-08 -7.90294e-09 5.5048e-09)
(-1.28954e-07 -1.13549e-08 1.34575e-08)
(-1.64938e-07 -2.53437e-08 1.69784e-08)
(-2.02786e-07 -1.9513e-08 2.39597e-09)
(-2.16016e-07 -2.88672e-08 -1.18849e-08)
(6.43971e-09 3.46345e-09 1.28801e-09)
(5.25783e-09 5.51243e-09 3.23653e-09)
(-1.11447e-08 -8.49612e-10 8.88292e-09)
(-3.05241e-08 3.99012e-09 9.08211e-09)
(-5.77115e-08 8.13201e-09 2.19419e-08)
(-1.12432e-07 -4.33598e-09 2.14987e-08)
(-1.65779e-07 -2.91341e-08 1.87877e-08)
(-5.98017e-07 1.9498e-07 4.14936e-09)
(-2.64752e-07 -1.65076e-08 2.25479e-09)
)
;

boundaryField
{
    inlet
    {
        type            calculated;
        value           uniform (0 0 0);
    }
    outlet
    {
        type            calculated;
        value           nonuniform 0();
    }
    wall
    {
        type            calculated;
        value           uniform (0 0 0);
    }
    procBoundary4to0
    {
        type            processor;
        value           uniform (0 0 0);
    }
    procBoundary4to5
    {
        type            processor;
        value           uniform (0 0 0);
    }
    procBoundary4to6
    {
        type            processor;
        value           uniform (0 0 0);
    }
}


// ************************************************************************* //
