/*--------------------------------*- C++ -*----------------------------------*\
| =========                 |                                                 |
| \\      /  F ield         | OpenFOAM: The Open Source CFD Toolbox           |
|  \\    /   O peration     | Version:  4.x                                   |
|   \\  /    A nd           | Web:      www.OpenFOAM.org                      |
|    \\/     M anipulation  |                                                 |
\*---------------------------------------------------------------------------*/
FoamFile
{
    version     2.0;
    format      ascii;
    class       volVectorField;
    location    "59";
    object      DDtUrel;
}
// * * * * * * * * * * * * * * * * * * * * * * * * * * * * * * * * * * * * * //

dimensions      [0 1 -2 0 0 0 0];

internalField   nonuniform List<vector> 
108
(
(0.0001708 -1.55395e-06 2.75213e-05)
(9.44701e-05 -4.72152e-06 1.36158e-05)
(8.5417e-05 -1.84714e-05 1.11596e-05)
(-7.08797e-05 -4.31305e-05 -3.0985e-05)
(-0.000129918 -4.97454e-05 -5.93315e-05)
(-0.000487548 -9.23961e-05 -0.000210034)
(-0.000749007 -7.15886e-05 -0.000347489)
(-0.00178214 -0.000274416 -0.000759369)
(-0.00305093 -0.000475536 -0.00116382)
(0.000132117 -8.77129e-06 3.64318e-05)
(5.37852e-05 -6.71579e-06 2.28944e-05)
(1.14064e-05 -5.68194e-06 2.45469e-05)
(-0.000121075 7.22652e-07 -1.45782e-05)
(-0.000249517 1.03687e-05 -5.42858e-05)
(-0.00051659 3.01103e-05 -0.000185598)
(-0.000922795 5.58943e-05 -0.000368007)
(-0.00162606 0.000131033 -0.000668197)
(-0.00245203 0.00021051 -0.00095304)
(0.00019307 -1.80729e-05 3.92874e-05)
(0.000108364 -1.21755e-05 3.45188e-05)
(9.51231e-05 -3.71538e-06 3.07867e-05)
(-5.31387e-05 3.56083e-05 1.51084e-06)
(-8.94944e-05 4.48981e-05 -4.33945e-05)
(-0.000439707 0.000128258 -0.000184779)
(-0.00066488 0.000121927 -0.000391617)
(-0.00184861 0.000487214 -0.000812101)
(-0.00328337 0.000762338 -0.00109716)
(0.000232467 -4.26702e-05 3.97249e-05)
(0.000139136 -4.44622e-05 3.56749e-05)
(0.000118494 -2.87935e-05 2.94187e-05)
(-2.55378e-05 -2.1479e-06 -1.03867e-07)
(-6.08496e-05 3.68043e-05 -4.78211e-05)
(-0.000423067 8.80353e-05 -0.00018804)
(-0.000660799 0.000169068 -0.00045562)
(-0.00200001 0.000346053 -0.00112159)
(-0.00363941 0.000323191 -0.00144251)
(0.000107859 1.51211e-06 2.19119e-05)
(4.63075e-05 -2.0158e-06 9.53598e-06)
(2.28262e-05 -8.94083e-06 6.70273e-06)
(-9.77756e-05 -1.77642e-05 -3.15113e-05)
(-0.000194986 -2.80561e-05 -5.9157e-05)
(-0.000480857 -3.66781e-05 -0.000188476)
(-0.000802723 -5.23323e-05 -0.000316205)
(-0.00154109 -9.3943e-05 -0.000746959)
(-0.00246382 -0.000140754 -0.001095)
(9.0685e-05 -6.65442e-06 2.52342e-05)
(3.69539e-05 -5.91467e-06 1.43098e-05)
(-5.68499e-06 -6.0732e-06 8.1063e-06)
(-0.000109161 2.15885e-06 -2.6376e-05)
(-0.000234438 9.47383e-06 -6.64697e-05)
(-0.000483569 4.16917e-05 -0.00018696)
(-0.000861609 7.56466e-05 -0.000351793)
(-0.00149286 0.000226672 -0.000682673)
(-0.00222526 0.000408157 -0.00102833)
(0.000141348 -2.0828e-05 2.68733e-05)
(7.5098e-05 -1.25889e-05 1.13923e-05)
(7.17006e-05 -1.27578e-05 1.21723e-05)
(-5.36611e-05 2.35349e-05 -3.40173e-05)
(-8.39949e-05 3.02483e-05 -5.74394e-05)
(-0.000406886 0.00012807 -0.000218753)
(-0.00063441 0.000151477 -0.000368857)
(-0.00171415 0.000563015 -0.000932475)
(-0.00294905 0.000884627 -0.00146185)
(0.00016992 -3.92977e-05 2.48222e-05)
(9.17102e-05 -3.89571e-05 8.30141e-06)
(8.2061e-05 -2.84721e-05 7.03784e-06)
(-4.6383e-05 -3.46076e-06 -3.59845e-05)
(-6.61582e-05 3.11378e-05 -5.97825e-05)
(-0.000390361 9.77464e-05 -0.000211282)
(-0.00057012 0.000188958 -0.00040514)
(-0.00179588 0.000397433 -0.00114736)
(-0.00329351 0.000371702 -0.00168834)
(4.99093e-05 -3.12526e-07 1.5448e-05)
(4.81475e-06 -2.89717e-06 4.60867e-06)
(-3.48211e-05 -7.60203e-06 -2.33663e-06)
(-0.000128127 -1.36905e-05 -3.02089e-05)
(-0.000255765 -1.54848e-05 -5.47936e-05)
(-0.000480918 -2.43153e-05 -0.000148134)
(-0.000830342 -1.95491e-05 -0.000252205)
(-0.00130206 -6.92049e-05 -0.000555296)
(-0.00191872 -0.00010868 -0.000815213)
(4.30531e-05 -6.02598e-06 1.47768e-05)
(6.02335e-06 -6.07257e-06 5.17279e-06)
(-4.1364e-05 -3.36595e-06 -3.26934e-06)
(-0.00012467 2.60853e-06 -2.78595e-05)
(-0.000252543 1.67372e-05 -5.86498e-05)
(-0.000466677 4.08614e-05 -0.000149998)
(-0.000822595 8.16736e-05 -0.000276424)
(-0.00128308 0.000188606 -0.000519862)
(-0.00186685 0.000299748 -0.000765736)
(7.18266e-05 -1.8665e-05 1.18711e-05)
(2.42178e-05 -1.36111e-05 2.89695e-06)
(-7.33296e-06 -8.24637e-06 -4.33317e-06)
(-9.89858e-05 1.32524e-05 -3.44037e-05)
(-0.000189118 3.25618e-05 -6.71138e-05)
(-0.000429017 0.000100296 -0.000179322)
(-0.000752123 0.00015391 -0.000312054)
(-0.001424 0.000430951 -0.000683799)
(-0.00225946 0.000662791 -0.00104595)
(8.83156e-05 -3.353e-05 1.17211e-05)
(2.78677e-05 -2.77736e-05 9.0703e-07)
(2.11982e-06 -2.19824e-05 -4.27617e-06)
(-9.64249e-05 5.75767e-06 -3.87228e-05)
(-0.000162866 3.17622e-05 -6.77808e-05)
(-0.000411047 9.40863e-05 -0.000180862)
(-0.00066276 0.000168536 -0.000323919)
(-0.00153578 0.000343112 -0.000752078)
(-0.00264547 0.000420978 -0.00116717)
)
;

boundaryField
{
    inlet
    {
        type            calculated;
        value           nonuniform 0();
    }
    outlet
    {
        type            calculated;
        value           nonuniform List<vector> 
12
(
(-0.0099043 -0.00387188 -0.00255284)
(-0.00144259 0.000273594 -0.00055839)
(-0.0104114 0.00431472 -0.000287788)
(-0.0111013 -0.0012443 -0.00278687)
(-0.00603188 -0.00037106 -0.00291895)
(-0.00205287 0.00215646 -0.00165165)
(-0.00919942 0.0060096 -0.00620178)
(-0.0101253 -0.00128552 -0.0064831)
(-0.00290883 -0.000976542 -0.0024168)
(-0.00176403 0.000303733 -0.000807867)
(-0.00326112 0.00305827 -0.00269541)
(-0.00640831 0.000507882 -0.00257357)
)
;
    }
    wall
    {
        type            calculated;
        value           nonuniform List<vector> 
63
(
(0.000735199 -3.30184e-05 7.04169e-05)
(0.000160827 -7.70918e-06 0.000141064)
(0.000673581 1.63623e-05 0.000107448)
(0.00080332 -0.000131741 0.000108961)
(0.000121542 -2.47906e-05 -5.17882e-06)
(-0.000302461 4.69173e-06 -7.21318e-06)
(5.19041e-05 6.29435e-05 0.000133934)
(0.000143189 -0.000216769 0.000130149)
(0.000956856 -0.000107318 0.000151697)
(-0.000126906 1.12563e-05 0.000228865)
(0.000789493 6.85727e-06 0.000193893)
(0.000701666 -0.000142038 0.000169145)
(-0.000238055 -0.000355628 -5.01212e-05)
(-0.000532343 1.33939e-05 2.4459e-05)
(-0.000290538 0.000392642 0.000215018)
(-0.000229662 -0.000153418 0.000163669)
(0.00127958 -0.000188484 0.000372172)
(-0.000702692 5.89317e-05 0.000261779)
(0.00131244 -1.94737e-05 0.000359018)
(0.00110206 -9.88072e-06 0.000274845)
(-0.000890629 -0.000787824 -0.000307715)
(-0.000491952 4.95236e-05 5.62969e-05)
(-0.000760847 0.000843712 0.000143678)
(-0.000875863 -0.000161179 0.000285827)
(0.00223012 0.000439946 0.000527604)
(-0.00146846 2.42375e-05 -2.65009e-05)
(0.00312529 -0.00111473 0.000354851)
(0.00264348 -5.86034e-05 0.000484674)
(-0.001827 -0.0017255 -0.000674809)
(-0.000476873 -2.57249e-05 4.63622e-05)
(-0.00166601 0.00206968 -0.000375244)
(-0.00211642 0.000404416 -0.00310906)
(-0.0099043 -0.00387188 -0.00255284)
(-0.00144259 0.000273594 -0.00055839)
(-0.0104114 0.00431472 -0.000287788)
(-0.0111013 -0.0012443 -0.00278687)
(0.00080332 -0.000131741 0.000108961)
(0.000544605 -0.000112211 7.01073e-05)
(0.0001236 -0.00010388 4.12302e-05)
(0.000143189 -0.000216769 0.000130149)
(-2.91934e-05 -0.000170046 -0.000111875)
(-0.000196308 -5.54396e-05 -8.54528e-06)
(0.000701666 -0.000142038 0.000169145)
(0.000632306 -0.00014225 9.26645e-05)
(8.20536e-05 -0.000136061 7.90042e-05)
(-0.000229662 -0.000153418 0.000163669)
(-0.000287463 -0.000149154 -0.00020596)
(-0.000273581 2.74322e-05 -7.3176e-05)
(0.00110206 -9.88072e-06 0.000274845)
(0.00125571 -8.84428e-05 0.000334729)
(0.000307885 -6.04743e-05 0.000117333)
(-0.000875863 -0.000161179 0.000285827)
(-0.000643983 -3.43165e-05 -0.000215426)
(-0.000324324 0.000114952 -0.00013048)
(0.00264348 -5.86034e-05 0.000484674)
(0.00357505 4.67976e-05 0.00116615)
(0.0014533 -3.11102e-05 0.000441597)
(-0.00211642 0.000404416 -0.00310906)
(-0.00133699 0.000972385 -0.00374736)
(-0.000755845 0.000594887 -0.000669924)
(-0.0111013 -0.0012443 -0.00278687)
(-0.0101253 -0.00128552 -0.0064831)
(-0.00640831 0.000507882 -0.00257357)
)
;
    }
    procBoundary3to1
    {
        type            processor;
        value           nonuniform List<vector> 
27
(
(0.000169072 1.90984e-05 2.19219e-05)
(0.000103198 1.22721e-05 2.37814e-06)
(9.33465e-05 -2.5377e-07 -1.69077e-06)
(-4.18134e-05 -2.93991e-05 -5.52141e-05)
(-8.95269e-05 -4.79869e-05 -7.59453e-05)
(-0.000435692 -0.000110596 -0.000238256)
(-0.000678295 -0.000148639 -0.000353584)
(-0.00191535 -0.000388188 -0.000898282)
(-0.00334232 -0.000599924 -0.00141783)
(0.000101879 1.31353e-05 2.04122e-05)
(5.32659e-05 6.06045e-06 6.38282e-06)
(1.88694e-05 -1.04613e-06 -2.91733e-06)
(-8.44165e-05 -1.93018e-05 -3.73902e-05)
(-0.000201971 -3.7683e-05 -7.29227e-05)
(-0.000473262 -7.46555e-05 -0.000194493)
(-0.000843712 -0.000125311 -0.000340785)
(-0.00161044 -0.000253042 -0.000791141)
(-0.00247079 -0.000361532 -0.00114502)
(5.32025e-05 1.14152e-05 1.34752e-05)
(1.12657e-05 4.37432e-06 3.85721e-06)
(-2.66758e-05 -4.37711e-09 -5.92246e-06)
(-0.000119808 -1.71012e-05 -3.12812e-05)
(-0.00024207 -2.95859e-05 -5.8171e-05)
(-0.000476841 -7.0007e-05 -0.000146483)
(-0.000828722 -0.00010098 -0.000240996)
(-0.00135304 -0.000255014 -0.00052628)
(-0.00203341 -0.000361394 -0.00078563)
)
;
    }
    procBoundary3to2
    {
        type            processor;
        value           nonuniform List<vector> 
12
(
(0.000170258 -4.25678e-06 3.04042e-05)
(0.000146412 -1.12274e-05 3.39458e-05)
(0.000198689 -1.76097e-05 3.70237e-05)
(0.000246033 -3.98776e-05 3.69025e-05)
(0.000109495 5.01728e-08 2.29911e-05)
(0.00010369 -8.46425e-06 2.68531e-05)
(0.000140071 -1.88221e-05 2.53704e-05)
(0.000177449 -3.69085e-05 2.36827e-05)
(6.18022e-05 7.44782e-07 1.48969e-05)
(6.26019e-05 -7.8028e-06 1.69958e-05)
(8.11319e-05 -1.94484e-05 1.58271e-05)
(9.86319e-05 -3.09929e-05 1.45995e-05)
)
;
    }
    procBoundary3to7
    {
        type            processor;
        value           nonuniform List<vector> 
36
(
(1.56785e-05 1.7931e-06 9.29123e-06)
(-2.03568e-05 -1.71208e-06 2.45242e-06)
(-6.68087e-05 -4.82878e-06 -1.97254e-06)
(-0.000145347 -1.01368e-05 -1.32755e-05)
(-0.000273293 -1.24226e-05 -2.8619e-05)
(-0.00046803 -1.70627e-05 -7.24625e-05)
(-0.000797587 -2.87019e-05 -0.000124799)
(-0.00114742 -7.23042e-06 -0.000252169)
(-0.00164016 9.05335e-06 -0.000366534)
(2.23673e-05 -9.65024e-06 6.05191e-06)
(-1.50411e-05 -6.55611e-06 -2.85831e-07)
(-6.28924e-05 -5.54824e-06 -5.33877e-06)
(-0.000138357 1.49034e-06 -2.14639e-05)
(-0.000261239 6.81362e-06 -4.01733e-05)
(-0.000453601 4.24235e-05 -9.29354e-05)
(-0.00076591 6.38871e-05 -0.000159529)
(-0.00117294 0.000226313 -0.000277483)
(-0.00171551 0.000352168 -0.000419983)
(5.31017e-05 -1.99916e-05 1.84386e-06)
(7.7896e-07 -1.00974e-05 -8.37839e-06)
(-2.24599e-05 -1.06912e-05 -1.43396e-05)
(-0.000117752 1.09736e-05 -3.59323e-05)
(-0.000197812 7.77771e-06 -5.42201e-05)
(-0.000433075 6.9735e-05 -0.000122448)
(-0.000700966 8.76113e-05 -0.000186933)
(-0.00131396 0.000304721 -0.000391222)
(-0.00213373 0.000509021 -0.000633625)
(6.46323e-05 -2.85378e-05 -2.75025e-06)
(4.10623e-06 -2.15684e-05 -1.13856e-05)
(-1.75125e-05 -1.49942e-05 -1.17592e-05)
(-0.000119885 2.3278e-06 -4.01412e-05)
(-0.000194682 2.29842e-05 -4.79237e-05)
(-0.000438556 6.43843e-05 -0.00013671)
(-0.000699586 0.000121915 -0.000202965)
(-0.00139146 0.00022102 -0.000465695)
(-0.00232834 0.000282736 -0.000746852)
)
;
    }
}


// ************************************************************************* //
