/*--------------------------------*- C++ -*----------------------------------*\
| =========                 |                                                 |
| \\      /  F ield         | OpenFOAM: The Open Source CFD Toolbox           |
|  \\    /   O peration     | Version:  4.x                                   |
|   \\  /    A nd           | Web:      www.OpenFOAM.org                      |
|    \\/     M anipulation  |                                                 |
\*---------------------------------------------------------------------------*/
FoamFile
{
    version     2.0;
    format      ascii;
    class       volVectorField;
    location    "26.5";
    object      GField;
}
// * * * * * * * * * * * * * * * * * * * * * * * * * * * * * * * * * * * * * //

dimensions      [1 -2 -1 0 0 0 0];

internalField   nonuniform List<vector> 
87
(
(88.8158 -0.855841 -2.20012)
(20.1387 1.11151 -1.22019)
(93.4297 1.05593 -1.75949)
(103.299 1.83075 -2.57182)
(48.8743 0.477376 -2.63731)
(106.085 0.735959 -2.80536)
(92.3281 1.54931 -2.04664)
(27.7604 0.952996 -0.776456)
(88.2356 1.6714 -1.70733)
(16.2052 0.470212 -0.67947)
(85.3013 0.44657 -1.21154)
(10.3248 0.329443 -0.52111)
(84.2205 -1.22065 -1.00948)
(1.09537 0.05993 -0.03911)
(83.2164 0.129002 -2.38581)
(94.5463 4.82032 -1.65046)
(30.4555 1.62217 -0.945111)
(91.2211 4.03258 -1.58574)
(21.1509 1.11588 -0.971117)
(88.7984 1.61191 -1.45643)
(12.7968 0.658041 -0.671783)
(87.6114 2.01828 -1.54777)
(4.57786 0.377352 -0.247107)
(86.6196 -0.996964 -1.12732)
(96.4571 3.4722 -1.84485)
(39.6735 1.69161 -1.26165)
(97.013 3.73026 -1.96838)
(40.567 1.30463 -1.86856)
(96.5305 2.73407 -1.98466)
(38.1824 0.964994 -1.83221)
(96.6368 2.58641 -1.86694)
(37.8867 1.05144 -1.99629)
(97.1069 0.753234 -1.67219)
(92.9597 2.31328 3.01039)
(31.8716 0.975047 0.953373)
(90.4789 2.63884 2.77496)
(24.2399 0.715639 0.845441)
(89.3021 1.75849 1.28658)
(18.1184 0.179918 0.422802)
(88.4135 0.414919 1.36793)
(11.9159 -0.0613772 0.758823)
(87.9173 -0.363399 -1.4537)
(94.7593 4.40419 2.67461)
(35.5468 1.77634 1.10722)
(93.2608 3.92154 3.07809)
(32.0386 1.19022 0.791712)
(92.5124 2.84503 2.51476)
(28.4351 1.21963 0.592617)
(91.8757 2.21365 1.71965)
(23.4398 1.15871 0.370642)
(92.5833 2.34011 0.451261)
(96.0559 2.99981 1.74104)
(42.478 1.58588 0.687406)
(98.5399 3.04541 1.98141)
(46.3537 1.23556 0.794477)
(99.9378 2.40411 1.85072)
(48.4283 1.15203 0.422852)
(102 1.96246 0.940482)
(49.1264 0.778047 -0.115418)
(104.276 1.1375 0.329767)
(94.806 2.48863 1.6704)
(39.8256 0.909492 0.508909)
(95.0542 2.0981 1.19715)
(39.3085 0.611996 0.136834)
(94.9849 1.07978 0.852712)
(37.4765 0.0143 0.112883)
(94.6387 -0.164968 1.10824)
(35.8293 -0.383471 0.654056)
(96.2214 -0.534205 1.15549)
(95.6298 3.508 1.26296)
(42.0329 1.60313 0.474104)
(97.3359 3.28613 0.950972)
(44.9093 1.4767 0.125994)
(98.4513 2.3129 0.582571)
(45.9672 1.39816 0.222898)
(99.7062 1.77126 0.649125)
(45.1378 0.72361 -0.215472)
(100.568 1.24269 0.410979)
(96.667 2.45743 0.704424)
(45.3221 1.2216 0.0367491)
(100.586 2.50111 0.35805)
(52.585 1.22 -0.0391301)
(104.756 2.06935 0.121609)
(57.777 0.746079 -0.372992)
(108.053 1.66497 0.198711)
(60.8739 0.467461 -0.805196)
(109.855 0.559697 -0.402243)
)
;

boundaryField
{
    inlet
    {
        type            calculated;
        value           uniform (67 0 0);
    }
    outlet
    {
        type            calculated;
        value           nonuniform 0();
    }
    wall
    {
        type            calculated;
        value           uniform (0 0 0);
    }
    procBoundary6to0
    {
        type            processor;
        value           uniform (90.3447 1.40087 -1.80831);
    }
    procBoundary6to2
    {
        type            processor;
        value           nonuniform List<vector> 
32
(
(90.4894 0.00365746 -0.860784)
(7.46777 0.214178 -0.617933)
(91.339 -1.26794 -0.594924)
(102.936 3.21652 -2.60435)
(46.2313 1.3201 -2.34874)
(105.156 1.24765 -1.82068)
(94.4311 1.71066 -5.20934)
(30.409 0.960043 -2.14711)
(90.8389 2.24978 -4.08489)
(21.9981 0.68741 -1.62054)
(89.5539 1.30221 -2.32936)
(15.4563 0.489529 -1.0235)
(89.3603 -0.168603 -3.48556)
(9.33992 0.336445 -1.08308)
(9.33992 0.336445 -1.08308)
(9.33992 0.336445 -1.08308)
(94.8234 4.07811 -4.44185)
(33.3931 1.82491 -2.05702)
(92.8249 3.91828 -3.73881)
(28.1186 1.25741 -1.70774)
(92.1614 3.19367 -2.74164)
(23.7567 1.0269 -1.19727)
(92.3417 2.7021 -1.52541)
(92.3417 2.7021 -1.52541)
(92.3417 2.7021 -1.52541)
(96.4042 3.16085 -4.15659)
(40.8387 1.59982 -2.53991)
(98.3818 3.2431 -4.18992)
(43.8905 1.30523 -2.95849)
(100.666 2.63936 -3.91918)
(46.5609 1.02832 -2.28774)
(46.5609 1.02832 -2.28774)
)
;
    }
    procBoundary6to4
    {
        type            processor;
        value           nonuniform List<vector> 
27
(
(94.4211 -1.05344 -2.32011)
(29.5651 0.0120542 -0.905602)
(89.1567 -0.312733 -1.91299)
(18.3648 -0.264058 -0.815964)
(86.9178 0.18982 -1.83311)
(11.2118 -0.184374 -0.32967)
(86.1719 -1.26714 -2.08559)
(8.98205 -0.302043 -0.129718)
(86.5672 -0.162105 -1.83423)
(93.9862 -1.11058 1.76798)
(30.9281 0.0124487 1.32653)
(90.4647 -0.360233 2.74735)
(21.0031 -0.0563466 0.795902)
(88.1611 -0.366767 1.99301)
(13.0085 -0.260749 0.663191)
(87.8265 -0.661209 0.648868)
(7.36399 -0.224533 0.536463)
(89.1515 -1.46216 0.480259)
(93.869 -0.327283 1.10447)
(37.2713 -0.0945626 0.712798)
(94.073 -0.555733 1.61318)
(35.8106 -0.413229 0.597239)
(94.3778 -0.699588 1.41854)
(35.1997 -0.676532 0.533117)
(96.0282 -1.02319 1.3114)
(35.0386 -0.624756 -0.0306388)
(97.5521 -1.69874 0.600244)
)
;
    }
    procBoundary6to7
    {
        type            processor;
        value           nonuniform List<vector> 
12
(
(9.42366 1.071 -1.18686)
(17.349 1.79339 -1.5243)
(48.7057 0.227628 -3.47165)
(0.000128832 -9.47621e-06 -9.52485e-05)
(0.210065 0.0244621 -0.00620261)
(32.8692 1.05327 -1.83827)
(3.05751 0.076266 0.181816)
(18.7568 1.30581 0.604806)
(49.5375 0.167126 -0.234608)
(30.9626 -0.469799 0.137633)
(43.1951 1.42181 -0.784664)
(60.8269 -0.169676 -1.51242)
)
;
    }
}


// ************************************************************************* //
