/*--------------------------------*- C++ -*----------------------------------*\
| =========                 |                                                 |
| \\      /  F ield         | OpenFOAM: The Open Source CFD Toolbox           |
|  \\    /   O peration     | Version:  4.x                                   |
|   \\  /    A nd           | Web:      www.OpenFOAM.org                      |
|    \\/     M anipulation  |                                                 |
\*---------------------------------------------------------------------------*/
FoamFile
{
    version     2.0;
    format      ascii;
    class       volVectorField;
    location    "26.5";
    object      impParticleForces;
}
// * * * * * * * * * * * * * * * * * * * * * * * * * * * * * * * * * * * * * //

dimensions      [1 1 -2 0 0 0 0];

internalField   nonuniform List<vector> 
87
(
(0.00243908 9.43952e-06 -3.59162e-05)
(0.0024296 1.28694e-05 -4.28925e-05)
(0.00245154 1.28271e-05 -3.71248e-05)
(0.00241139 1.59271e-05 -4.82281e-05)
(0.00239569 1.4491e-05 -4.24722e-05)
(0.00240621 1.39238e-05 -3.68143e-05)
(0.0023939 7.85695e-06 -5.5676e-05)
(0.00242001 8.12069e-06 -5.53007e-05)
(0.00244538 8.52238e-06 -5.39081e-05)
(0.00244339 7.91357e-06 -5.11265e-05)
(0.00247243 7.62854e-06 -4.81182e-05)
(0.00243345 6.77313e-06 -4.35218e-05)
(0.0024527 6.34556e-06 -3.94341e-05)
(0.00240723 6.70862e-06 -3.43192e-05)
(0.00242687 7.29784e-06 -2.96729e-05)
(0.00235907 1.68753e-05 -5.48486e-05)
(0.00239528 1.78041e-05 -5.49292e-05)
(0.00243606 1.84072e-05 -5.39332e-05)
(0.00243946 1.68517e-05 -5.14676e-05)
(0.00246288 1.57684e-05 -4.85044e-05)
(0.00243714 1.405e-05 -4.43117e-05)
(0.00245319 1.32621e-05 -4.01523e-05)
(0.0024152 1.18353e-05 -3.52828e-05)
(0.00243598 1.11995e-05 -3.08005e-05)
(0.00230279 1.92886e-05 -5.39299e-05)
(0.00233582 2.03581e-05 -5.42703e-05)
(0.00236674 2.04724e-05 -5.33664e-05)
(0.00237898 1.92743e-05 -5.12603e-05)
(0.00241976 1.87336e-05 -4.83927e-05)
(0.00241147 1.70512e-05 -4.46498e-05)
(0.00241111 1.57049e-05 -4.01622e-05)
(0.00237768 1.37312e-05 -3.55092e-05)
(0.00240422 1.29888e-05 -3.12268e-05)
(0.00237017 7.31773e-06 -4.23552e-05)
(0.00239993 7.88512e-06 -4.1802e-05)
(0.00244087 8.30511e-06 -4.016e-05)
(0.00242812 7.41218e-06 -3.88735e-05)
(0.0024422 6.88049e-06 -3.65839e-05)
(0.0024255 6.02594e-06 -3.38381e-05)
(0.00244552 5.64294e-06 -3.02599e-05)
(0.00239359 5.3176e-06 -2.71077e-05)
(0.00241426 5.38697e-06 -2.35608e-05)
(0.00233303 1.574e-05 -4.27254e-05)
(0.00237609 1.69339e-05 -4.20545e-05)
(0.00241869 1.75501e-05 -4.04175e-05)
(0.00241066 1.57095e-05 -3.94216e-05)
(0.00243932 1.49385e-05 -3.67833e-05)
(0.00241472 1.30288e-05 -3.45668e-05)
(0.00244668 1.25148e-05 -3.10829e-05)
(0.00240004 1.08933e-05 -2.81772e-05)
(0.00242806 1.06713e-05 -2.47317e-05)
(0.00229013 1.86439e-05 -4.30015e-05)
(0.00231018 1.91229e-05 -4.27535e-05)
(0.0023463 1.93467e-05 -4.15097e-05)
(0.00236027 1.82913e-05 -4.01046e-05)
(0.00238949 1.7431e-05 -3.78178e-05)
(0.00237775 1.56509e-05 -3.52792e-05)
(0.00239709 1.4657e-05 -3.20432e-05)
(0.00237182 1.29665e-05 -2.90301e-05)
(0.00238778 1.20868e-05 -2.55511e-05)
(0.00232662 6.42682e-06 -3.66618e-05)
(0.00233857 6.58925e-06 -3.61267e-05)
(0.00239017 7.02665e-06 -3.4506e-05)
(0.00238172 6.24419e-06 -3.34857e-05)
(0.00239881 5.77484e-06 -3.14938e-05)
(0.00238833 5.13133e-06 -2.92738e-05)
(0.00241635 4.70058e-06 -2.60807e-05)
(0.00237005 4.32872e-06 -2.34379e-05)
(0.00236791 4.21998e-06 -2.00946e-05)
(0.00229345 1.42304e-05 -3.72764e-05)
(0.00231592 1.47262e-05 -3.66271e-05)
(0.00235955 1.5201e-05 -3.53162e-05)
(0.00236319 1.40655e-05 -3.42122e-05)
(0.002393 1.33735e-05 -3.21491e-05)
(0.0023787 1.18313e-05 -3.01082e-05)
(0.002398 1.09573e-05 -2.73143e-05)
(0.00236724 9.6696e-06 -2.48282e-05)
(0.00237865 9.25432e-06 -2.17486e-05)
(0.0022619 1.72813e-05 -3.79301e-05)
(0.00227846 1.76226e-05 -3.7442e-05)
(0.00231959 1.79766e-05 -3.62903e-05)
(0.00232294 1.68405e-05 -3.5019e-05)
(0.00234183 1.57889e-05 -3.31447e-05)
(0.00235518 1.46185e-05 -3.09068e-05)
(0.00236563 1.34046e-05 -2.83599e-05)
(0.00234786 1.18806e-05 -2.59128e-05)
(0.00236445 1.10873e-05 -2.2912e-05)
)
;

boundaryField
{
    inlet
    {
        type            zeroGradient;
    }
    outlet
    {
        type            zeroGradient;
    }
    wall
    {
        type            zeroGradient;
    }
    procBoundary6to0
    {
        type            processor;
        value           uniform (0.0024079 5.97383e-06 -3.39709e-05);
    }
    procBoundary6to2
    {
        type            processor;
        value           nonuniform List<vector> 
32
(
(0.00245631 1.158e-05 -4.11944e-05)
(0.0024617 1.36755e-05 -4.94275e-05)
(0.0024803 1.40149e-05 -4.23211e-05)
(0.00244823 1.69706e-05 -5.58583e-05)
(0.00241784 1.52805e-05 -4.82986e-05)
(0.002435 1.49839e-05 -4.15538e-05)
(0.00237114 7.30576e-06 -6.95366e-05)
(0.00242021 8.28127e-06 -7.06527e-05)
(0.00247254 9.36276e-06 -7.03503e-05)
(0.00245348 8.67495e-06 -6.52934e-05)
(0.00247308 8.46456e-06 -6.05873e-05)
(0.00244465 7.74578e-06 -5.43128e-05)
(0.00246364 7.63738e-06 -4.91817e-05)
(0.00242442 8.31957e-06 -4.2181e-05)
(0.00242442 8.31957e-06 -4.2181e-05)
(0.00242442 8.31957e-06 -4.2181e-05)
(0.00234387 1.58931e-05 -6.8004e-05)
(0.0023901 1.74382e-05 -6.93643e-05)
(0.00245859 1.92084e-05 -6.97342e-05)
(0.00244077 1.72313e-05 -6.50911e-05)
(0.00247197 1.67259e-05 -6.09414e-05)
(0.00244325 1.46726e-05 -5.4662e-05)
(0.00246838 1.40457e-05 -4.95325e-05)
(0.00246838 1.40457e-05 -4.95325e-05)
(0.00246838 1.40457e-05 -4.95325e-05)
(0.00229112 1.85787e-05 -6.57573e-05)
(0.00233164 1.99908e-05 -6.69734e-05)
(0.0023963 2.15228e-05 -6.74038e-05)
(0.00239501 2.0028e-05 -6.37486e-05)
(0.0024211 1.91396e-05 -5.96028e-05)
(0.00240345 1.71221e-05 -5.37413e-05)
(0.00240345 1.71221e-05 -5.37413e-05)
)
;
    }
    procBoundary6to4
    {
        type            processor;
        value           nonuniform List<vector> 
27
(
(0.00235813 -5.14769e-06 -5.50936e-05)
(0.00240991 -5.39641e-06 -5.51162e-05)
(0.00246417 -4.8157e-06 -5.40566e-05)
(0.00244519 -3.98798e-06 -5.08886e-05)
(0.0024711 -3.02849e-06 -4.74946e-05)
(0.00244082 -1.91263e-06 -4.31021e-05)
(0.00246728 -1.00562e-06 -3.89961e-05)
(0.00240692 9.45547e-07 -3.31566e-05)
(0.00241342 2.72608e-06 -2.77337e-05)
(0.00236098 -5.36603e-06 -4.26257e-05)
(0.0024004 -5.40035e-06 -4.18034e-05)
(0.00244292 -5.08917e-06 -4.00131e-05)
(0.00244281 -4.23512e-06 -3.83758e-05)
(0.00247083 -3.67316e-06 -3.57268e-05)
(0.00243606 -2.72379e-06 -3.32613e-05)
(0.0024576 -2.03323e-06 -2.98344e-05)
(0.00240041 -8.65565e-07 -2.60558e-05)
(0.00240401 -1.343e-07 -2.16118e-05)
(0.00234079 -5.29604e-06 -3.66258e-05)
(0.00234952 -5.07957e-06 -3.58649e-05)
(0.00239452 -5.00111e-06 -3.41505e-05)
(0.00239788 -4.51006e-06 -3.28009e-05)
(0.00242795 -3.92524e-06 -3.05418e-05)
(0.00240294 -3.07344e-06 -2.84803e-05)
(0.00238967 -2.26478e-06 -2.57573e-05)
(0.00236183 -1.61757e-06 -2.25783e-05)
(0.00236436 -1.30263e-06 -1.85779e-05)
)
;
    }
    procBoundary6to7
    {
        type            processor;
        value           nonuniform List<vector> 
12
(
(0.00241997 1.16259e-05 -2.83927e-05)
(0.0024188 1.36797e-05 -3.00093e-05)
(0.00240243 1.42654e-05 -3.1043e-05)
(0.00238562 8.3261e-06 -2.29027e-05)
(0.00239492 1.14702e-05 -2.48612e-05)
(0.00237425 1.26546e-05 -2.60052e-05)
(0.00238417 5.89641e-06 -1.85262e-05)
(0.00239013 1.01245e-05 -2.05268e-05)
(0.00235889 1.13083e-05 -2.16153e-05)
(0.00234962 4.30297e-06 -1.61817e-05)
(0.00234692 8.84001e-06 -1.83728e-05)
(0.00232985 1.02323e-05 -1.96897e-05)
)
;
    }
}


// ************************************************************************* //
