/*--------------------------------*- C++ -*----------------------------------*\
| =========                 |                                                 |
| \\      /  F ield         | OpenFOAM: The Open Source CFD Toolbox           |
|  \\    /   O peration     | Version:  4.x                                   |
|   \\  /    A nd           | Web:      www.OpenFOAM.org                      |
|    \\/     M anipulation  |                                                 |
\*---------------------------------------------------------------------------*/
FoamFile
{
    version     2.0;
    format      ascii;
    class       volScalarField;
    location    "26.5";
    object      QPartFluid;
}
// * * * * * * * * * * * * * * * * * * * * * * * * * * * * * * * * * * * * * //

dimensions      [1 -1 -3 0 0 0 0];

internalField   nonuniform List<scalar> 
87
(
8.20382e+09
6.70402e+09
8.94496e+09
5.69613e+09
6.1994e+09
5.61843e+09
9.96605e+09
8.98143e+09
6.11688e+09
8.1203e+09
1.12042e+10
6.36023e+09
8.82582e+09
6.74415e+09
1.00713e+10
6.30884e+09
9.22167e+09
8.19375e+09
1.02493e+10
8.87749e+09
8.77674e+09
8.78263e+09
9.22991e+09
9.41375e+09
4.68262e+09
7.58016e+09
5.96462e+09
6.13701e+09
8.71331e+09
9.43125e+09
7.35115e+09
6.32582e+09
8.79268e+09
7.35259e+09
9.02359e+09
9.68272e+09
8.7014e+09
6.69932e+09
7.98837e+09
7.9812e+09
6.22431e+09
9.59675e+09
5.37676e+09
8.87656e+09
8.8543e+09
8.04399e+09
7.95344e+09
6.56761e+09
1.00426e+10
6.57694e+09
9.99205e+09
4.812e+09
6.67747e+09
6.18099e+09
7.8395e+09
8.21915e+09
6.17132e+09
7.63721e+09
6.43621e+09
6.89956e+09
4.91491e+09
5.40611e+09
7.43748e+09
7.02109e+09
7.17104e+09
6.47545e+09
1.02831e+10
8.6555e+09
4.52824e+09
5.20021e+09
5.82425e+09
7.63206e+09
6.17346e+09
9.67397e+09
6.69019e+09
7.20159e+09
6.05637e+09
8.46029e+09
4.25134e+09
6.12957e+09
6.76794e+09
6.32773e+09
5.24087e+09
8.47158e+09
5.61598e+09
5.62387e+09
7.19457e+09
)
;

boundaryField
{
    inlet
    {
        type            calculated;
        value           uniform 0;
    }
    outlet
    {
        type            calculated;
        value           nonuniform 0();
    }
    wall
    {
        type            calculated;
        value           uniform 0;
    }
    procBoundary6to0
    {
        type            processor;
        value           uniform 2.62396e+09;
    }
    procBoundary6to2
    {
        type            processor;
        value           nonuniform List<scalar> 
32
(
5.77444e+09
8.43901e+09
1.02437e+10
9.68488e+09
5.31838e+09
7.71867e+09
4.89755e+09
9.51059e+09
1.03281e+10
7.23046e+09
8.28216e+09
6.36363e+09
7.64255e+09
7.75713e+09
7.75713e+09
7.75713e+09
5.87352e+09
7.9043e+09
1.05247e+10
6.60707e+09
9.12569e+09
7.66632e+09
1.03038e+10
1.03038e+10
1.03038e+10
4.25892e+09
6.30161e+09
7.51024e+09
7.24183e+09
6.74881e+09
6.47809e+09
6.47809e+09
)
;
    }
    procBoundary6to4
    {
        type            processor;
        value           nonuniform List<scalar> 
27
(
3.4602e+09
6.73813e+09
9.42335e+09
5.73526e+09
8.88032e+09
6.81362e+09
1.11923e+10
6.20831e+09
7.2018e+09
6.20825e+09
8.58394e+09
7.55185e+09
9.6481e+09
1.05485e+10
7.62672e+09
1.18858e+10
8.47135e+09
8.15184e+09
7.26037e+09
6.99732e+09
6.70169e+09
7.93263e+09
8.42907e+09
9.46004e+09
4.9507e+09
5.08916e+09
7.04206e+09
)
;
    }
    procBoundary6to7
    {
        type            processor;
        value           nonuniform List<scalar> 
12
(
7.79368e+09
5.22949e+09
7.03664e+09
3.87686e+09
6.01293e+09
6.71906e+09
8.5795e+09
8.17328e+09
6.02675e+09
7.17566e+09
6.25662e+09
6.07047e+09
)
;
    }
}


// ************************************************************************* //
