/*--------------------------------*- C++ -*----------------------------------*\
| =========                 |                                                 |
| \\      /  F ield         | OpenFOAM: The Open Source CFD Toolbox           |
|  \\    /   O peration     | Version:  4.x                                   |
|   \\  /    A nd           | Web:      www.OpenFOAM.org                      |
|    \\/     M anipulation  |                                                 |
\*---------------------------------------------------------------------------*/
FoamFile
{
    version     2.0;
    format      ascii;
    class       volVectorField;
    location    "26.5";
    object      UsPrev;
}
// * * * * * * * * * * * * * * * * * * * * * * * * * * * * * * * * * * * * * //

dimensions      [0 1 -1 0 0 0 0];

internalField   nonuniform List<vector> 
87
(
(3.96544e-08 -2.37525e-08 -5.2618e-08)
(4.68765e-08 -8.86765e-09 -4.03707e-08)
(4.06569e-08 -1.09872e-08 -4.54177e-08)
(2.35736e-08 -8.42038e-09 -2.23411e-08)
(3.00924e-08 -7.60003e-09 -2.48045e-08)
(2.02994e-08 -1.28978e-09 -1.9835e-08)
(4.98977e-09 -4.06413e-09 -8.8074e-09)
(9.54547e-09 -8.81582e-09 -1.63376e-08)
(1.2277e-08 -1.1558e-08 -2.29004e-08)
(1.51449e-08 -1.45185e-08 -3.10041e-08)
(3.13879e-08 -1.97099e-08 -4.08934e-08)
(3.25402e-08 -1.74508e-08 -3.88317e-08)
(3.41627e-08 -2.01913e-08 -3.89153e-08)
(3.13291e-08 -1.53373e-08 -3.77882e-08)
(2.96425e-08 -1.48497e-08 -3.30719e-08)
(7.5373e-09 -3.6527e-09 -7.07997e-09)
(9.56155e-09 -7.28624e-09 -1.39943e-08)
(1.21435e-08 -1.11389e-08 -1.73477e-08)
(1.74007e-08 -1.19172e-08 -2.36504e-08)
(2.52751e-08 -1.26459e-08 -2.83376e-08)
(3.02638e-08 -1.46272e-08 -2.98233e-08)
(3.18201e-08 -1.12695e-08 -2.72172e-08)
(3.39399e-08 -6.4816e-09 -2.9608e-08)
(3.52979e-08 -9.02255e-09 -2.92761e-08)
(1.162e-09 -1.122e-09 -2.30573e-09)
(1.58813e-09 -7.22008e-09 -1.15148e-08)
(4.35065e-09 -4.33397e-09 -9.20465e-09)
(8.68025e-09 -9.68619e-09 -1.46111e-08)
(9.47157e-09 -8.84007e-09 -1.26281e-08)
(1.75167e-08 -8.19515e-09 -1.59449e-08)
(2.22947e-08 -4.16446e-09 -1.90092e-08)
(2.05853e-08 -1.74323e-09 -1.30223e-08)
(3.17905e-08 -5.22405e-09 -1.40188e-08)
(1.41751e-09 -3.31049e-09 -4.60693e-09)
(3.89973e-09 -7.31723e-09 -9.35173e-09)
(5.20151e-09 -9.62327e-09 -1.42053e-08)
(7.71136e-09 -9.50125e-09 -1.73334e-08)
(9.01798e-09 -1.06557e-08 -2.06061e-08)
(1.6082e-08 -1.18514e-08 -2.0699e-08)
(2.2092e-08 -1.36781e-08 -2.27693e-08)
(2.38622e-08 -1.16639e-08 -2.44018e-08)
(2.49733e-08 -9.98964e-09 -2.12321e-08)
(2.71807e-09 -2.77738e-09 -5.31765e-09)
(3.65124e-09 -3.46541e-09 -7.98686e-09)
(4.76735e-09 -8.04445e-09 -1.2801e-08)
(7.29628e-09 -8.64518e-09 -1.71549e-08)
(5.62185e-09 -8.88065e-09 -9.90994e-09)
(1.82129e-08 -9.80505e-09 -1.86776e-08)
(2.48983e-08 -9.96654e-09 -1.99767e-08)
(3.11138e-08 -1.77104e-08 -2.1912e-08)
(3.74162e-08 -3.29109e-09 -2.38682e-08)
(-3.12954e-09 -9.436e-10 -9.91483e-11)
(-6.71668e-09 -3.88267e-09 -3.01277e-09)
(1.60446e-09 -3.79382e-09 -1.1115e-08)
(1.14388e-09 -7.10166e-09 -1.0135e-08)
(3.05231e-09 -6.40268e-09 -6.65267e-09)
(7.07012e-09 -7.08332e-09 -6.94297e-09)
(1.41794e-08 -4.47119e-09 -8.89572e-09)
(1.92991e-08 -6.27857e-09 -1.25679e-08)
(3.79414e-08 -3.98281e-09 -1.52659e-08)
(9.31724e-10 -2.61493e-09 -2.01319e-09)
(7.9043e-10 -3.77812e-09 -3.54269e-09)
(2.37114e-09 -5.64635e-09 -7.37182e-09)
(3.08023e-09 -5.99587e-09 -7.71293e-09)
(7.34119e-09 -6.60121e-09 -7.46875e-09)
(1.12024e-08 -5.32905e-09 -8.49025e-09)
(1.75095e-08 -6.41132e-09 -9.70788e-09)
(1.58628e-08 -8.11804e-09 -9.86355e-09)
(2.25158e-08 2.96031e-09 -4.98749e-09)
(-3.79737e-09 -4.07456e-09 -3.13818e-09)
(1.24968e-09 -1.64157e-09 -3.30547e-09)
(3.67762e-10 -2.59732e-09 -4.68861e-09)
(6.63471e-10 -6.35076e-09 -5.77739e-09)
(3.07541e-09 -6.55766e-09 -4.44627e-09)
(9.48772e-09 -6.88604e-09 -8.08236e-09)
(2.04312e-08 -4.24279e-09 -8.14777e-09)
(2.84394e-08 -1.98291e-08 -1.33045e-08)
(2.90046e-08 6.62939e-09 -1.09304e-08)
(-1.94507e-08 -7.00414e-09 -1.07417e-09)
(-3.39743e-10 -6.5918e-10 -2.52822e-09)
(-1.60184e-10 -2.39023e-09 -4.94068e-09)
(-6.47035e-11 -2.89961e-09 -3.17293e-09)
(2.41846e-10 -3.94819e-09 -3.99623e-09)
(5.30788e-09 -4.13271e-09 -4.7717e-09)
(1.01837e-08 -5.68987e-09 -4.87728e-09)
(1.47199e-08 -4.30223e-09 -4.84522e-09)
(2.17333e-08 2.93414e-11 -1.29126e-08)
)
;

boundaryField
{
    inlet
    {
        type            calculated;
        value           uniform (0 0 0);
    }
    outlet
    {
        type            calculated;
        value           nonuniform 0();
    }
    wall
    {
        type            calculated;
        value           uniform (0 0 0);
    }
    procBoundary6to0
    {
        type            processor;
        value           uniform (0 0 0);
    }
    procBoundary6to2
    {
        type            processor;
        value           uniform (0 0 0);
    }
    procBoundary6to4
    {
        type            processor;
        value           uniform (0 0 0);
    }
    procBoundary6to7
    {
        type            processor;
        value           uniform (0 0 0);
    }
}


// ************************************************************************* //
