/*--------------------------------*- C++ -*----------------------------------*\
| =========                 |                                                 |
| \\      /  F ield         | OpenFOAM: The Open Source CFD Toolbox           |
|  \\    /   O peration     | Version:  4.x                                   |
|   \\  /    A nd           | Web:      www.OpenFOAM.org                      |
|    \\/     M anipulation  |                                                 |
\*---------------------------------------------------------------------------*/
FoamFile
{
    version     2.0;
    format      ascii;
    class       volScalarField;
    location    "34.5";
    object      p;
}
// * * * * * * * * * * * * * * * * * * * * * * * * * * * * * * * * * * * * * //

dimensions      [1 -1 -2 0 0 0 0];

internalField   nonuniform List<scalar> 
87
(
81.8716
38.4041
81.6337
88.5632
38.4754
81.5317
-1766.08
-1784.29
-1773.42
-1801.9
-1781.1
-1820.05
-1788.84
-1838.02
-1796.25
-1766.55
-1784.4
-1773.72
-1802.23
-1781.22
-1820.52
-1788.7
-1838.84
-1796.05
-1767.24
-1784.74
-1774.35
-1802.39
-1781.7
-1820.66
-1789.15
-1838.92
-1796.21
-3644.06
-3662.11
-3651.38
-3679.95
-3658.93
-3698.04
-3666.44
-3716.32
-3673.76
-3644.62
-3662.32
-3651.89
-3680.12
-3659.39
-3698.27
-3666.82
-3716.61
-3674.05
-3645.18
-3662.61
-3652.33
-3680.25
-3659.72
-3698.43
-3667.08
-3716.68
-3674.2
-5522.51
-5540.23
-5529.75
-5557.95
-5537.27
-5576.05
-5544.73
-5594.47
-5551.92
-5522.9
-5540.4
-5530.1
-5558.07
-5537.55
-5576.3
-5544.97
-5594.51
-5552.11
-5523.34
-5540.58
-5530.45
-5558.21
-5537.79
-5576.3
-5545.15
-5594.44
-5552.15
)
;

boundaryField
{
    inlet
    {
        type            calculated;
        value           nonuniform List<scalar> 9(-1766.08 -1766.55 -1767.24 -3644.06 -3644.62 -3645.18 -5522.51 -5522.9 -5523.34);
    }
    outlet
    {
        type            calculated;
        value           nonuniform 0();
    }
    wall
    {
        type            calculated;
        value           nonuniform List<scalar> 
57
(
-6461.46
-6461.86
-6462.3
-6479.19
-6479.36
-6479.54
-6468.71
-6469.06
-6469.41
-6496.91
-6497.03
-6497.17
-6476.23
-6476.51
-6476.74
-6515.01
-6515.26
-6515.26
-6483.69
-6483.93
-6484.11
-6533.42
-6533.47
-6533.4
-6490.88
-6491.07
-6491.11
-1767.24
-3645.18
-5523.34
-1784.74
-3662.61
-5540.58
-1774.35
-3652.33
-5530.45
-1802.39
-3680.25
-5558.21
-1781.7
-3659.72
-5537.79
-1820.66
-3698.43
-5576.3
88.5632
-1789.15
-3667.08
-5545.15
38.4754
-1838.92
-3716.68
-5594.44
81.5317
-1796.21
-3674.2
-5552.15
)
;
    }
    procBoundary6to0
    {
        type            processor;
        value           uniform 81.7018;
    }
    procBoundary6to2
    {
        type            processor;
        value           nonuniform List<scalar> 
32
(
1959.65
1916.02
1959.67
1966.31
1916.04
1959.39
111.364
93.573
104.181
75.5424
96.6869
57.3895
89.1947
39.2317
39.2317
39.2317
110.939
93.2796
103.786
75.2638
96.3274
56.9748
88.862
88.862
88.862
110.298
92.9395
103.231
75.0613
95.8763
56.8467
56.8467
)
;
    }
    procBoundary6to4
    {
        type            processor;
        value           nonuniform List<scalar> 
27
(
-1766.19
-1783.98
-1773.39
-1801.85
-1781.03
-1819.99
-1788.76
-1838.25
-1796.33
-3644.05
-3661.99
-3651.35
-3679.83
-3659.05
-3698.23
-3666.69
-3716.79
-3674.04
-5522.36
-5540.26
-5529.74
-5557.99
-5537.41
-5576.4
-5545.06
-5594.72
-5552.22
)
;
    }
    procBoundary6to7
    {
        type            processor;
        value           nonuniform List<scalar> 
12
(
21.2854
19.7481
19.9479
-1855.85
-1857.13
-1857.32
-3734.54
-3735.1
-3735.03
-5612.61
-5612.89
-5612.74
)
;
    }
}


// ************************************************************************* //
