/*--------------------------------*- C++ -*----------------------------------*\
| =========                 |                                                 |
| \\      /  F ield         | OpenFOAM: The Open Source CFD Toolbox           |
|  \\    /   O peration     | Version:  4.x                                   |
|   \\  /    A nd           | Web:      www.OpenFOAM.org                      |
|    \\/     M anipulation  |                                                 |
\*---------------------------------------------------------------------------*/
FoamFile
{
    version     2.0;
    format      ascii;
    class       volScalarField;
    location    "34.5";
    object      p_rgh;
}
// * * * * * * * * * * * * * * * * * * * * * * * * * * * * * * * * * * * * * //

dimensions      [1 -1 -2 0 0 0 0];

internalField   nonuniform List<scalar> 
87
(
81.8716
38.4041
81.6337
88.5632
38.4754
81.5317
111.839
93.6242
104.498
76.0112
96.8098
57.8682
89.0714
39.8913
81.6557
111.359
93.5171
104.191
75.6865
96.6958
57.3976
89.214
39.0748
81.867
110.677
93.1702
103.561
75.5194
96.2175
57.2549
88.761
38.9928
81.7072
111.768
93.7219
104.448
75.876
96.8996
57.7834
89.3874
39.5052
82.0697
111.209
93.5101
103.942
75.7129
96.4374
57.5569
89.0113
39.2155
81.7793
110.644
93.2185
103.502
75.5794
96.107
57.3996
88.7491
39.1445
81.6316
111.238
93.5082
103.993
75.7894
96.4728
57.6921
89.0136
39.2763
81.822
110.84
93.3401
103.644
75.6743
96.1883
57.4439
88.7738
39.233
81.6325
110.399
93.1633
103.291
75.5334
95.9555
57.4444
88.5907
39.3016
81.5892
)
;

boundaryField
{
    inlet
    {
        type            fixedFluxPressure;
        gradient        nonuniform List<scalar> 9(1.66473e-05 1.79618e-05 1.73168e-05 2.96756e-05 3.0694e-05 3.27192e-05 4.46594e-05 4.72363e-05 5.56392e-05);
        value           nonuniform List<scalar> 9(111.839 111.359 110.677 111.768 111.209 110.644 111.238 110.84 110.399);
    }
    outlet
    {
        type            fixedValue;
        value           nonuniform 0();
    }
    wall
    {
        type            fixedFluxPressure;
        gradient        nonuniform List<scalar> 
57
(
1.40424e-06
9.26705e-07
-4.05287e-07
4.15586e-06
3.17415e-06
2.54532e-06
3.62876e-06
1.96695e-06
1.62304e-06
7.34385e-06
4.36175e-06
1.24779e-06
3.7906e-06
2.1257e-06
8.33884e-07
1.16455e-05
5.56907e-06
2.00774e-06
6.73672e-06
3.6923e-06
1.29503e-06
1.59376e-05
-2.24143e-06
2.96649e-06
6.49621e-06
3.71827e-06
3.63747e-06
-6.17116e-07
1.91979e-07
-6.05396e-06
8.45952e-07
2.72525e-06
-1.81792e-06
-1.20872e-06
-7.56148e-07
-5.55076e-07
-1.44643e-06
-6.52072e-08
-8.42141e-07
-7.31959e-07
-8.75871e-07
-4.99702e-07
-7.05632e-06
-2.32077e-06
-1.80221e-06
-1.21959e-06
-3.73328e-06
-2.97116e-06
-1.46621e-06
-8.07493e-06
-8.58083e-06
-5.4509e-06
-9.27448e-06
-4.31142e-06
-6.1654e-06
-5.46408e-06
-3.90377e-06
)
;
        value           nonuniform List<scalar> 
57
(
111.238
110.84
110.399
93.5082
93.3401
93.1633
103.993
103.644
103.291
75.7894
75.6743
75.5334
96.4728
96.1883
95.9555
57.6921
57.4439
57.4444
89.0136
88.7738
88.5907
39.2763
39.233
39.3016
81.822
81.6325
81.5892
110.677
110.644
110.399
93.1702
93.2185
93.1633
103.561
103.502
103.291
75.5194
75.5794
75.5334
96.2175
96.107
95.9555
57.2549
57.3996
57.4444
88.5632
88.761
88.7491
88.5907
38.4754
38.9928
39.1445
39.3016
81.5317
81.7072
81.6316
81.5892
)
;
    }
    procBoundary6to0
    {
        type            processor;
        value           uniform 81.7018;
    }
    procBoundary6to2
    {
        type            processor;
        value           nonuniform List<scalar> 
32
(
81.7381
38.1072
81.7575
88.3923
38.1272
81.4731
111.364
93.573
104.181
75.5424
96.6869
57.3895
89.1947
39.2317
39.2317
39.2317
110.939
93.2796
103.786
75.2638
96.3274
56.9748
88.862
88.862
88.862
110.298
92.9395
103.231
75.0613
95.8763
56.8467
56.8467
)
;
    }
    procBoundary6to4
    {
        type            processor;
        value           nonuniform List<scalar> 
27
(
111.721
93.9341
104.527
76.064
96.8862
57.929
89.1527
39.6659
81.5823
111.778
93.8355
104.481
76.0018
96.783
57.6004
89.1389
39.0423
81.7819
111.386
93.4853
104.005
75.7481
96.3316
57.3444
88.6847
39.0234
81.5213
)
;
    }
    procBoundary6to7
    {
        type            processor;
        value           nonuniform List<scalar> 
12
(
21.2854
19.7481
19.9479
22.0507
20.783
20.5931
21.2881
20.7283
20.8004
21.1309
20.8507
21.0021
)
;
    }
}


// ************************************************************************* //
