/*--------------------------------*- C++ -*----------------------------------*\
| =========                 |                                                 |
| \\      /  F ield         | OpenFOAM: The Open Source CFD Toolbox           |
|  \\    /   O peration     | Version:  4.x                                   |
|   \\  /    A nd           | Web:      www.OpenFOAM.org                      |
|    \\/     M anipulation  |                                                 |
\*---------------------------------------------------------------------------*/
FoamFile
{
    version     2.0;
    format      ascii;
    class       volScalarField;
    location    "34.5";
    object      QWallFluid;
}
// * * * * * * * * * * * * * * * * * * * * * * * * * * * * * * * * * * * * * //

dimensions      [1 -1 -3 0 0 0 0];

internalField   nonuniform List<scalar> 
87
(
0
0
0
8.66992e+08
4.7375e+08
8.80493e+08
0
0
0
0
0
0
0
0
0
0
0
0
0
0
0
0
0
0
8.2723e+08
4.10741e+08
8.32457e+08
4.23337e+08
8.31262e+08
4.16304e+08
8.35152e+08
4.10702e+08
8.37783e+08
0
0
0
0
0
0
0
0
0
0
0
0
0
0
0
0
0
0
8.25118e+08
4.30288e+08
8.41323e+08
4.60974e+08
8.49209e+08
4.78399e+08
8.60332e+08
4.87569e+08
8.70853e+08
8.16438e+08
4.08519e+08
8.17703e+08
4.04563e+08
8.17465e+08
3.96216e+08
8.1679e+08
3.73334e+08
8.2498e+08
8.20932e+08
4.3145e+08
8.34169e+08
4.5839e+08
8.43344e+08
4.73567e+08
8.53987e+08
4.77231e+08
8.61946e+08
1.65671e+09
9.10222e+08
1.71142e+09
1.02702e+09
1.76866e+09
1.10955e+09
1.81097e+09
1.16212e+09
1.83168e+09
)
;

boundaryField
{
    inlet
    {
        type            calculated;
        value           uniform 0;
    }
    outlet
    {
        type            calculated;
        value           nonuniform 0();
    }
    wall
    {
        type            calculated;
        value           uniform 0;
    }
    procBoundary6to0
    {
        type            processor;
        value           uniform 0;
    }
    procBoundary6to2
    {
        type            processor;
        value           nonuniform List<scalar> 
32
(
0
0
0
8.78513e+08
4.87715e+08
8.96671e+08
0
0
0
0
0
0
0
0
0
0
0
0
0
0
0
0
0
0
0
8.28836e+08
4.16396e+08
8.40568e+08
4.39983e+08
8.5305e+08
4.59382e+08
4.59382e+08
)
;
    }
    procBoundary6to4
    {
        type            processor;
        value           nonuniform List<scalar> 
27
(
0
0
0
0
0
0
0
0
0
0
0
0
0
0
0
0
0
0
8.0764e+08
3.94267e+08
8.11021e+08
3.90337e+08
8.1638e+08
4.00668e+08
8.33385e+08
4.24476e+08
8.50792e+08
)
;
    }
    procBoundary6to7
    {
        type            processor;
        value           nonuniform List<scalar> 
12
(
0
0
4.70859e+08
0
0
3.84173e+08
0
0
4.89435e+08
3.42115e+08
4.70339e+08
1.16441e+09
)
;
    }
}


// ************************************************************************* //
