/*--------------------------------*- C++ -*----------------------------------*\
| =========                 |                                                 |
| \\      /  F ield         | OpenFOAM: The Open Source CFD Toolbox           |
|  \\    /   O peration     | Version:  4.x                                   |
|   \\  /    A nd           | Web:      www.OpenFOAM.org                      |
|    \\/     M anipulation  |                                                 |
\*---------------------------------------------------------------------------*/
FoamFile
{
    version     2.0;
    format      ascii;
    class       volVectorField;
    location    "34.5";
    object      U;
}
// * * * * * * * * * * * * * * * * * * * * * * * * * * * * * * * * * * * * * //

dimensions      [0 1 -1 0 0 0 0];

internalField   nonuniform List<vector> 
87
(
(0.0276386 0.000161214 4.21843e-05)
(0.00636044 0.000443409 -0.000480287)
(0.029805 0.000646163 -0.000315784)
(0.0325858 0.00058842 -0.000867591)
(0.0152841 0.000126392 -0.000978852)
(0.0332743 0.000219905 -0.000771989)
(0.0295214 0.000452796 -0.000603109)
(0.00872068 0.000291212 -0.000193672)
(0.0281138 0.000549395 -0.000471101)
(0.00454361 0.00015967 -0.000142936)
(0.027624 0.00033457 -0.000348647)
(0.00143027 6.50293e-05 -4.82429e-05)
(0.0272523 -3.8441e-05 -0.000292095)
(8.17274e-09 -2.41209e-09 2.33826e-09)
(0.0271109 -0.000388617 -0.000290899)
(0.0297682 0.00157024 -0.000413059)
(0.00983618 0.000547853 -0.00022878)
(0.0291369 0.00147325 -0.000325339)
(0.0070693 0.000403213 -0.000251195)
(0.0287588 0.000967808 -0.00024356)
(0.00453138 0.000266246 -0.000198937)
(0.0284401 0.000551819 -0.000265902)
(0.00209283 0.000157633 -0.000131822)
(0.0282961 1.14565e-06 -0.00023827)
(0.0300696 0.00101708 -0.000518626)
(0.0126908 0.000505276 -0.000348437)
(0.0307755 0.00110539 -0.000537695)
(0.0133399 0.000400197 -0.000540413)
(0.0312841 0.0008307 -0.000544252)
(0.0132413 0.000309934 -0.000548303)
(0.0314608 0.000759109 -0.00048292)
(0.0129446 0.000246114 -0.000618554)
(0.0317084 0.00033643 -0.000397216)
(0.029635 0.000753081 0.000787587)
(0.00988537 0.000326342 0.000196334)
(0.0289256 0.000844275 0.000745258)
(0.00698542 0.000232711 0.000185813)
(0.0285345 0.000570244 0.000535457)
(0.00436879 5.6286e-05 9.15291e-05)
(0.0283122 0.000217411 0.00012151)
(0.00194171 -1.66452e-05 9.28717e-05)
(0.0282186 1.46192e-05 -0.000212814)
(0.0298082 0.00154621 0.000709055)
(0.0114392 0.000666588 0.000262007)
(0.0298151 0.00154333 0.000841225)
(0.0105441 0.000477306 0.000159077)
(0.0298309 0.00126614 0.000753622)
(0.00956583 0.000446346 9.61208e-05)
(0.0297266 0.00105311 0.000641161)
(0.00819479 0.000348808 5.32553e-06)
(0.0298675 0.000761488 0.000336208)
(0.0299915 0.000854079 0.000390638)
(0.0134508 0.000451192 9.43999e-05)
(0.0312595 0.000829905 0.000417951)
(0.0149206 0.000341188 9.53799e-05)
(0.0321558 0.000618099 0.000402931)
(0.0156945 0.000315712 -5.34809e-05)
(0.0326659 0.000510714 0.000212419)
(0.0160244 0.000214372 -0.000215648)
(0.0331745 0.000305319 5.74336e-05)
(0.0298645 0.000748644 0.000761901)
(0.0126377 0.000277323 0.000335444)
(0.0303702 0.00060836 0.000753371)
(0.0127284 0.000194716 0.000235536)
(0.0307935 0.000289527 0.000670696)
(0.012497 -1.89512e-06 0.00021811)
(0.0310179 -0.000102022 0.000585737)
(0.0116367 -0.000158916 0.000284434)
(0.0310569 -0.000199206 0.000444651)
(0.0299343 0.00118288 0.000554189)
(0.013475 0.000568638 0.000274196)
(0.0310532 0.00120915 0.000533385)
(0.0147835 0.000538833 0.00017606)
(0.0320275 0.000945252 0.000418734)
(0.0155398 0.000484288 0.000216431)
(0.0324401 0.00080866 0.000416603)
(0.0156505 0.000224585 0.000105761)
(0.0329828 0.000454056 0.000237801)
(0.0300133 0.000679904 0.000383031)
(0.0143775 0.000336295 0.000148453)
(0.0319254 0.000658534 0.000358799)
(0.0170029 0.000340179 0.000154959)
(0.0336414 0.000492092 0.000278731)
(0.0189541 0.000175728 5.68184e-05)
(0.0346129 0.000343559 0.000237176)
(0.0198682 6.32622e-05 -6.39087e-05)
(0.0352996 9.48369e-05 1.55012e-05)
)
;

boundaryField
{
    inlet
    {
        type            fixedValue;
        value           uniform (0.01 0 0);
    }
    outlet
    {
        type            zeroGradient;
    }
    wall
    {
        type            fixedValue;
        value           uniform (0 0 0);
    }
    procBoundary6to0
    {
        type            processor;
        value           uniform (0.0269135 -0.000100287 -3.59874e-05);
    }
    procBoundary6to2
    {
        type            processor;
        value           nonuniform List<vector> 
32
(
(0.0290141 -0.0002821 -0.000425131)
(0.00434453 0.000120138 -0.00035731)
(0.0295573 0.00044213 -0.000247143)
(0.0329565 0.000815964 -0.00104929)
(0.0156692 0.000230185 -0.0010188)
(0.0337989 0.000516876 -0.000808806)
(0.0296891 0.000663371 -0.00181071)
(0.0092893 0.000385627 -0.000757809)
(0.0288922 0.000943214 -0.00156164)
(0.00621654 0.00031986 -0.000547571)
(0.028296 0.000765591 -0.00104372)
(0.00384408 0.000270318 -0.000320962)
(0.0279824 0.000455741 -0.000462238)
(0.00191352 0.000187261 -0.000234075)
(0.00191352 0.000187261 -0.000234075)
(0.00191352 0.000187261 -0.000234075)
(0.0297326 0.0014371 -0.00150231)
(0.0105073 0.00067309 -0.000726937)
(0.0295187 0.00152234 -0.00133199)
(0.0088096 0.000500591 -0.000631656)
(0.029323 0.00129688 -0.00103516)
(0.0074112 0.000433446 -0.000471976)
(0.0295028 0.0010408 -0.000613256)
(0.0295028 0.0010408 -0.000613256)
(0.0295028 0.0010408 -0.000613256)
(0.0299966 0.000955703 -0.00137998)
(0.0128072 0.000491825 -0.000859315)
(0.0310408 0.000994616 -0.00143357)
(0.0138879 0.000419007 -0.00101534)
(0.0318094 0.000822967 -0.00132899)
(0.0147335 0.000340214 -0.000813499)
(0.0147335 0.000340214 -0.000813499)
)
;
    }
    procBoundary6to4
    {
        type            processor;
        value           nonuniform List<vector> 
27
(
(0.0296918 -0.000472583 -0.000507865)
(0.00935984 -8.02212e-05 -0.000142577)
(0.0284957 -0.000356405 -0.000198903)
(0.00555151 -0.000152066 -9.97212e-05)
(0.0278321 -0.000332507 -1.37328e-05)
(0.00225124 -8.21056e-05 2.90082e-05)
(0.0276318 -2.26474e-05 -1.85719e-05)
(5.16694e-05 -2.99937e-06 2.18315e-06)
(0.0275371 2.22231e-05 -0.00011699)
(0.0297033 -0.000329362 0.000420002)
(0.0100343 1.5445e-05 0.000343602)
(0.0289456 -8.78565e-05 0.000818804)
(0.00719608 -1.05616e-05 0.000245892)
(0.028692 -8.56758e-05 0.000856319)
(0.00498495 -8.0608e-05 0.000273407)
(0.0287286 -0.000116738 0.000769184)
(0.00343448 -7.10667e-05 0.000204239)
(0.0288398 -8.49097e-05 0.000179437)
(0.0297071 -0.000137381 0.000554427)
(0.0121757 -5.12463e-05 0.000377844)
(0.0301189 -0.000225323 0.000798395)
(0.0122184 -0.000153942 0.00035716)
(0.0308402 -0.000271571 0.000759477)
(0.0127504 -0.000239245 0.000365103)
(0.0315324 -0.000366618 0.000777256)
(0.0135561 -0.000255845 0.000210023)
(0.0324188 -0.000441563 0.000439775)
)
;
    }
    procBoundary6to7
    {
        type            processor;
        value           nonuniform List<vector> 
12
(
(0.000500004 9.53141e-05 -7.70827e-05)
(0.00573757 0.000596822 -0.000583301)
(0.0152887 -7.30341e-05 -0.0012342)
(7.89272e-09 -1.63685e-09 2.52604e-09)
(0.000202631 2.29823e-05 -1.59482e-05)
(0.0119661 0.000216518 -0.000694472)
(1.10743e-08 -2.08976e-09 2.62089e-09)
(0.0069516 0.000326665 9.21286e-06)
(0.0161932 2.87737e-05 -0.000356983)
(0.0104238 -0.000211941 0.000187567)
(0.0154627 0.000264347 -3.68474e-05)
(0.0201229 -0.000109182 -0.000190488)
)
;
    }
}


// ************************************************************************* //
