/*--------------------------------*- C++ -*----------------------------------*\
| =========                 |                                                 |
| \\      /  F ield         | OpenFOAM: The Open Source CFD Toolbox           |
|  \\    /   O peration     | Version:  4.x                                   |
|   \\  /    A nd           | Web:      www.OpenFOAM.org                      |
|    \\/     M anipulation  |                                                 |
\*---------------------------------------------------------------------------*/
FoamFile
{
    version     2.0;
    format      ascii;
    class       volVectorField;
    location    "34.5";
    object      UsNext;
}
// * * * * * * * * * * * * * * * * * * * * * * * * * * * * * * * * * * * * * //

dimensions      [0 1 -1 0 0 0 0];

internalField   nonuniform List<vector> 
87
(
(-2.88251e-09 -1.84185e-09 3.01747e-09)
(-2.38684e-09 -1.70842e-09 2.1179e-09)
(-2.98511e-09 -2.29533e-09 2.26673e-09)
(-9.1733e-10 -1.75105e-10 8.90312e-10)
(-1.40654e-09 -5.48263e-10 1.20715e-09)
(-9.0672e-10 -6.32772e-10 1.01309e-09)
(-2.74997e-10 -2.61354e-10 4.82731e-10)
(-4.06855e-10 -6.60202e-10 9.32685e-10)
(-7.57653e-10 -7.98978e-10 1.38088e-09)
(-8.43168e-10 -9.48118e-10 1.78237e-09)
(-1.62614e-09 -1.23199e-09 2.09557e-09)
(-1.427e-09 -1.57901e-09 2.27526e-09)
(-1.95667e-09 -2.14651e-09 2.63951e-09)
(-2.09504e-09 -2.88113e-09 2.60147e-09)
(-1.85496e-09 -2.20023e-09 2.47808e-09)
(-4.5482e-10 -1.87164e-10 3.22184e-10)
(-4.54171e-10 -2.22086e-10 8.03327e-10)
(-9.09122e-10 -2.95831e-10 1.12025e-09)
(-9.7702e-10 -5.09772e-10 1.18753e-09)
(-1.32396e-09 -8.68354e-10 1.50209e-09)
(-1.35102e-09 -9.90214e-10 1.56539e-09)
(-1.8196e-09 -1.68145e-09 1.36976e-09)
(-1.9393e-09 -1.72515e-09 1.48661e-09)
(-2.49309e-09 -1.84198e-09 1.55933e-09)
(-1.16944e-10 -8.7491e-11 2.57802e-10)
(2.83308e-11 4.9286e-11 6.59824e-10)
(-3.31245e-10 -1.68084e-10 4.62149e-10)
(-3.51806e-10 -8.5946e-11 6.63372e-10)
(-4.82092e-10 -9.94052e-11 6.20001e-10)
(-6.72666e-10 -4.05063e-10 7.88908e-10)
(-9.92073e-10 -5.11888e-10 7.76561e-10)
(-9.48534e-10 -4.91388e-10 5.71718e-10)
(-2.28352e-09 -8.51289e-10 5.64609e-10)
(-1.53656e-10 -2.34129e-10 2.91141e-10)
(-1.85854e-11 -5.63443e-10 5.02827e-10)
(-1.29994e-10 -5.87084e-10 9.23231e-10)
(-2.45444e-10 -5.93679e-10 1.02195e-09)
(-1.70007e-10 -6.2673e-10 1.11358e-09)
(-1.08252e-10 -1.14409e-09 1.45497e-09)
(-2.40063e-10 -1.49419e-09 1.60035e-09)
(6.76259e-11 -2.30148e-09 2.12181e-09)
(2.77006e-10 -2.14392e-09 1.72299e-09)
(-1.7315e-10 -2.05379e-10 2.36102e-10)
(-1.83198e-10 -3.76012e-10 5.03134e-10)
(-3.87523e-10 -2.96059e-10 7.762e-10)
(-4.50664e-10 -4.06764e-10 9.20716e-10)
(-2.95465e-10 -4.22334e-10 5.01507e-10)
(-6.75643e-10 -8.238e-10 1.04516e-09)
(-1.14451e-09 -1.21174e-09 8.90311e-10)
(-4.27818e-10 -3.78847e-09 3.52195e-10)
(-1.84083e-09 -2.0318e-09 1.32125e-09)
(-5.15012e-10 2.72904e-11 1.61222e-10)
(3.90258e-10 1.70211e-10 4.23281e-10)
(-1.6932e-10 -1.07529e-10 5.62187e-10)
(-6.83814e-11 -4.34597e-12 4.74591e-10)
(-2.22289e-10 -1.23774e-10 2.9646e-10)
(-2.42025e-10 -1.60868e-10 3.67393e-10)
(-5.08197e-10 -4.25507e-10 3.95989e-10)
(-7.52081e-10 -3.87866e-10 5.10798e-10)
(-1.91706e-09 -7.97597e-10 7.86019e-10)
(-7.57461e-11 -2.2641e-10 1.94005e-10)
(-2.32133e-11 -4.83344e-10 2.40441e-10)
(2.71806e-11 -4.8552e-10 4.89257e-10)
(9.31643e-11 -2.8765e-10 4.12471e-10)
(-3.80275e-11 -4.17891e-10 5.09426e-10)
(1.92766e-10 -7.93233e-10 6.35923e-10)
(4.08703e-10 -1.20656e-09 8.98299e-10)
(1.2292e-09 -1.68427e-09 8.14176e-10)
(1.48451e-09 -2.09328e-09 8.94554e-10)
(-8.06817e-10 -5.15404e-10 1.30752e-10)
(-3.94242e-12 -2.18506e-10 1.98488e-10)
(-2.06252e-10 -2.08246e-10 2.75306e-10)
(1.06606e-10 -1.70007e-10 2.88426e-10)
(-4.1147e-11 -2.99751e-10 2.97537e-10)
(-6.27613e-11 -4.58474e-10 3.81227e-10)
(-1.05793e-09 -1.47874e-09 5.23979e-10)
(1.78627e-09 -6.12673e-09 -1.55632e-10)
(-4.71493e-10 -2.28742e-09 5.37929e-10)
(-2.98049e-09 -8.75779e-10 -5.86297e-11)
(-9.09882e-11 -1.235e-10 1.72916e-10)
(-5.4244e-11 -8.15643e-11 2.38494e-10)
(2.53288e-11 -6.52721e-11 9.67128e-11)
(-2.01693e-11 -7.58042e-11 1.26499e-10)
(-6.64978e-11 -1.51775e-10 1.69084e-10)
(-1.38438e-10 -2.26816e-10 2.00334e-10)
(-6.40554e-11 -8.29995e-10 2.65478e-10)
(-6.04846e-10 -6.12664e-10 5.70871e-10)
)
;

boundaryField
{
    inlet
    {
        type            calculated;
        value           nonuniform List<vector> 9((-2.74997e-10 -2.61354e-10 4.82731e-10) (-4.5482e-10 -1.87164e-10 3.22184e-10) (-1.16944e-10 -8.7491e-11 2.57802e-10) (-1.53656e-10 -2.34129e-10 2.91141e-10) (-1.7315e-10 -2.05379e-10 2.36102e-10) (-5.15012e-10 2.72904e-11 1.61222e-10) (-7.57461e-11 -2.2641e-10 1.94005e-10) (-8.06817e-10 -5.15404e-10 1.30752e-10) (-2.98049e-09 -8.75779e-10 -5.86297e-11));
    }
    outlet
    {
        type            calculated;
        value           nonuniform 0();
    }
    wall
    {
        type            calculated;
        value           nonuniform List<vector> 
57
(
(-7.57461e-11 -2.2641e-10 1.94005e-10)
(-8.06817e-10 -5.15404e-10 1.30752e-10)
(-2.98049e-09 -8.75779e-10 -5.86297e-11)
(-2.32133e-11 -4.83344e-10 2.40441e-10)
(-3.94242e-12 -2.18506e-10 1.98488e-10)
(-9.09882e-11 -1.235e-10 1.72916e-10)
(2.71806e-11 -4.8552e-10 4.89257e-10)
(-2.06252e-10 -2.08246e-10 2.75306e-10)
(-5.4244e-11 -8.15643e-11 2.38494e-10)
(9.31643e-11 -2.8765e-10 4.12471e-10)
(1.06606e-10 -1.70007e-10 2.88426e-10)
(2.53288e-11 -6.52721e-11 9.67128e-11)
(-3.80275e-11 -4.17891e-10 5.09426e-10)
(-4.1147e-11 -2.99751e-10 2.97537e-10)
(-2.01693e-11 -7.58042e-11 1.26499e-10)
(1.92766e-10 -7.93233e-10 6.35923e-10)
(-6.27613e-11 -4.58474e-10 3.81227e-10)
(-6.64978e-11 -1.51775e-10 1.69084e-10)
(4.08703e-10 -1.20656e-09 8.98299e-10)
(-1.05793e-09 -1.47874e-09 5.23979e-10)
(-1.38438e-10 -2.26816e-10 2.00334e-10)
(1.2292e-09 -1.68427e-09 8.14176e-10)
(1.78627e-09 -6.12673e-09 -1.55632e-10)
(-6.40554e-11 -8.29995e-10 2.65478e-10)
(1.48451e-09 -2.09328e-09 8.94554e-10)
(-4.71493e-10 -2.28742e-09 5.37929e-10)
(-6.04846e-10 -6.12664e-10 5.70871e-10)
(-1.16944e-10 -8.7491e-11 2.57802e-10)
(-5.15012e-10 2.72904e-11 1.61222e-10)
(-2.98049e-09 -8.75779e-10 -5.86297e-11)
(2.83308e-11 4.9286e-11 6.59824e-10)
(3.90258e-10 1.70211e-10 4.23281e-10)
(-9.09882e-11 -1.235e-10 1.72916e-10)
(-3.31245e-10 -1.68084e-10 4.62149e-10)
(-1.6932e-10 -1.07529e-10 5.62187e-10)
(-5.4244e-11 -8.15643e-11 2.38494e-10)
(-3.51806e-10 -8.5946e-11 6.63372e-10)
(-6.83814e-11 -4.34597e-12 4.74591e-10)
(2.53288e-11 -6.52721e-11 9.67128e-11)
(-4.82092e-10 -9.94052e-11 6.20001e-10)
(-2.22289e-10 -1.23774e-10 2.9646e-10)
(-2.01693e-11 -7.58042e-11 1.26499e-10)
(-6.72666e-10 -4.05063e-10 7.88908e-10)
(-2.42025e-10 -1.60868e-10 3.67393e-10)
(-6.64978e-11 -1.51775e-10 1.69084e-10)
(-9.1733e-10 -1.75105e-10 8.90312e-10)
(-9.92073e-10 -5.11888e-10 7.76561e-10)
(-5.08197e-10 -4.25507e-10 3.95989e-10)
(-1.38438e-10 -2.26816e-10 2.00334e-10)
(-1.40654e-09 -5.48263e-10 1.20715e-09)
(-9.48534e-10 -4.91388e-10 5.71718e-10)
(-7.52081e-10 -3.87866e-10 5.10798e-10)
(-6.40554e-11 -8.29995e-10 2.65478e-10)
(-9.0672e-10 -6.32772e-10 1.01309e-09)
(-2.28352e-09 -8.51289e-10 5.64609e-10)
(-1.91706e-09 -7.97597e-10 7.86019e-10)
(-6.04846e-10 -6.12664e-10 5.70871e-10)
)
;
    }
    procBoundary6to0
    {
        type            processor;
        value           uniform (-2.81282e-09 -2.27493e-09 4.75771e-09);
    }
    procBoundary6to2
    {
        type            processor;
        value           nonuniform List<vector> 
32
(
(-5.84029e-09 -2.69778e-09 3.6235e-09)
(-3.97866e-09 -1.68158e-09 2.80138e-09)
(-4.7824e-09 -2.0236e-09 2.59319e-09)
(-1.84414e-09 -2.44421e-10 1.42692e-09)
(-2.12267e-09 -3.1082e-10 1.34781e-09)
(-2.62148e-09 -1.09862e-09 1.5008e-09)
(-2.31599e-10 -2.73848e-10 5.0229e-10)
(-4.09185e-10 -6.52914e-10 1.1499e-09)
(-8.30771e-10 -7.76623e-10 1.78535e-09)
(-1.09474e-09 -1.2472e-09 2.09689e-09)
(-1.80863e-09 -1.33056e-09 2.69951e-09)
(-1.96136e-09 -1.84591e-09 2.77848e-09)
(-2.48959e-09 -2.30637e-09 3.23051e-09)
(-2.59978e-09 -3.1735e-09 3.16815e-09)
(-2.59978e-09 -3.1735e-09 3.16815e-09)
(-2.59978e-09 -3.1735e-09 3.16815e-09)
(-1.76306e-10 -9.88371e-11 2.70693e-10)
(-4.65634e-10 -2.70392e-10 1.10363e-09)
(-7.84449e-10 -2.37941e-10 1.32996e-09)
(-1.00263e-09 -6.32763e-10 1.63731e-09)
(-1.55718e-09 -9.41256e-10 2.09863e-09)
(-1.84292e-09 -1.17561e-09 2.17143e-09)
(-1.95996e-09 -9.98504e-10 1.79603e-09)
(-1.95996e-09 -9.98504e-10 1.79603e-09)
(-1.95996e-09 -9.98504e-10 1.79603e-09)
(-1.25263e-10 -1.442e-10 2.82365e-10)
(-2.607e-10 -8.89138e-12 7.81733e-10)
(-6.42976e-10 -1.52801e-10 1.00911e-09)
(-4.79455e-10 -2.6356e-10 8.61365e-10)
(-6.61364e-10 -3.35549e-10 1.10521e-09)
(-7.12631e-10 -4.41294e-10 9.41148e-10)
(-7.12631e-10 -4.41294e-10 9.41148e-10)
)
;
    }
    procBoundary6to4
    {
        type            processor;
        value           nonuniform List<vector> 
27
(
(-3.50915e-11 -1.89469e-10 5.49317e-10)
(1.01898e-10 -6.15991e-10 9.15206e-10)
(-2.51878e-10 -8.14478e-10 1.55883e-09)
(-1.16456e-11 -9.79073e-10 1.50931e-09)
(4.72505e-11 -1.35934e-09 2.31893e-09)
(-2.35622e-10 -1.35246e-09 2.53177e-09)
(7.21164e-10 -1.71305e-09 2.8974e-09)
(4.05461e-11 -2.32598e-09 2.62948e-09)
(-9.25939e-11 -2.15186e-09 2.45542e-09)
(-2.59637e-11 -2.85739e-10 3.40058e-10)
(5.05737e-11 -6.05139e-10 5.748e-10)
(1.21158e-10 -5.58683e-10 9.17441e-10)
(1.23397e-10 -6.0565e-10 1.02854e-09)
(2.20544e-10 -7.8992e-10 1.5386e-09)
(3.57604e-10 -1.19676e-09 1.5469e-09)
(8.99276e-10 -1.12396e-09 2.02928e-09)
(1.45757e-09 -1.46038e-09 2.00405e-09)
(2.45836e-09 -1.86696e-09 1.84341e-09)
(-2.52633e-11 -2.01999e-10 1.37626e-10)
(9.57487e-11 -4.43109e-10 2.01544e-10)
(4.22889e-11 -4.70157e-10 4.93811e-10)
(2.3179e-10 -3.33954e-10 5.55941e-10)
(1.36343e-10 -3.00799e-10 6.76708e-10)
(2.76546e-10 -4.50231e-10 6.16192e-10)
(8.76207e-10 -7.87641e-10 7.27671e-10)
(9.30295e-09 -5.78851e-09 8.68118e-10)
(2.0674e-09 -1.42627e-09 1.3084e-09)
)
;
    }
    procBoundary6to7
    {
        type            processor;
        value           nonuniform List<vector> 
12
(
(-3.10085e-09 -3.13286e-09 3.6274e-09)
(-2.68733e-09 -3.72484e-09 1.42499e-09)
(-2.3095e-09 -3.16591e-09 5.16315e-10)
(-1.89281e-09 -2.40347e-09 2.56612e-09)
(-3.1061e-09 -2.65525e-09 1.55177e-09)
(-3.21767e-09 -1.58889e-09 7.51753e-10)
(-9.62274e-11 -2.10839e-09 1.85944e-09)
(-2.85178e-09 -2.35668e-09 1.52542e-09)
(-2.1826e-09 -8.84007e-10 1.03115e-09)
(1.65628e-09 -1.52665e-09 1.00184e-09)
(-1.1667e-09 -2.64614e-09 5.13219e-10)
(-8.37913e-10 -8.60901e-10 3.09037e-10)
)
;
    }
}


// ************************************************************************* //
