/*--------------------------------*- C++ -*----------------------------------*\
| =========                 |                                                 |
| \\      /  F ield         | OpenFOAM: The Open Source CFD Toolbox           |
|  \\    /   O peration     | Version:  4.x                                   |
|   \\  /    A nd           | Web:      www.OpenFOAM.org                      |
|    \\/     M anipulation  |                                                 |
\*---------------------------------------------------------------------------*/
FoamFile
{
    version     2.0;
    format      ascii;
    class       volScalarField;
    location    "39";
    object      QPartFluidCoeff;
}
// * * * * * * * * * * * * * * * * * * * * * * * * * * * * * * * * * * * * * //

dimensions      [1 -1 -3 -1 0 0 0];

internalField   nonuniform List<scalar> 
114
(
-2.62244e+07
-2.4247e+07
-2.34286e+07
-1.89904e+07
-2.61279e+07
-1.93472e+07
-2.41941e+07
-2.34606e+07
-1.96033e+07
-2.7405e+07
-2.80306e+07
-3.35385e+07
-2.15764e+07
-3.31615e+07
-2.04633e+07
-2.90289e+07
-1.95891e+07
-1.76867e+07
-2.47764e+07
-2.07821e+07
-2.22189e+07
-2.21641e+07
-1.90019e+07
-2.52335e+07
-2.12721e+07
-2.19398e+07
-2.79055e+07
-2.4072e+07
-2.26441e+07
-1.63291e+07
-2.70533e+07
-2.74877e+07
-3.08185e+07
-3.00219e+07
-2.95244e+07
-3.38485e+07
-1.80772e+07
-3.55334e+07
-2.13031e+07
-2.8409e+07
-1.84107e+07
-2.43088e+07
-3.04503e+07
-2.06029e+07
-2.81608e+07
-2.43397e+07
-2.71282e+07
-1.50677e+07
-3.42292e+07
-1.69202e+07
-2.41772e+07
-3.18013e+07
-2.44493e+07
-2.85534e+07
-2.52254e+07
-2.67148e+07
-2.2269e+07
-2.90163e+07
-1.70627e+07
-2.06677e+07
-3.63529e+07
-2.3378e+07
-3.04127e+07
-2.77289e+07
-3.06787e+07
-3.59855e+07
-2.91642e+07
-1.60602e+07
-2.47263e+07
-2.59782e+07
-2.60993e+07
-2.46646e+07
-3.79095e+07
-3.09483e+07
-3.03507e+07
-3.67583e+07
-2.77566e+07
-1.77042e+07
-3.91286e+07
-3.19863e+07
-3.32878e+07
-8.29253e+06
-2.29017e+07
-1.50773e+07
-2.57445e+07
-2.01862e+07
-1.95305e+07
-2.39256e+07
-2.64778e+07
-1.67155e+07
-2.32198e+07
-2.7409e+07
-1.67829e+07
-2.3116e+07
-2.72792e+07
-2.56639e+07
-1.82708e+07
-3.01795e+07
-1.7867e+07
-2.02373e+07
-2.44255e+07
-2.90545e+07
-2.62391e+07
-2.08834e+07
-3.16385e+07
-2.34929e+07
-2.74964e+07
-2.1618e+07
-2.39792e+07
-2.16134e+07
-2.44464e+07
-2.24897e+07
-3.47328e+07
-2.8549e+07
)
;

boundaryField
{
    inlet
    {
        type            calculated;
        value           nonuniform 0();
    }
    outlet
    {
        type            calculated;
        value           uniform 0;
    }
    wall
    {
        type            calculated;
        value           uniform 0;
    }
    procBoundary5to1
    {
        type            processor;
        value           nonuniform List<scalar> 
32
(
728.477
461.574
732.549
578.214
565.788
242.163
489.707
612.5
617.852
686.636
576.503
713.584
279.225
596.674
416.883
842.886
671.854
807.46
564.642
729.779
254.136
489.961
418.894
576.884
576.884
576.884
593.677
922.276
922.276
922.276
444.852
444.852
)
;
    }
    procBoundary5to4
    {
        type            processor;
        value           nonuniform List<scalar> 
12
(
729.704
840.287
509.817
532.918
724.12
793.954
652.933
615.314
620.352
648.708
532.927
535.75
)
;
    }
    procBoundary5to7
    {
        type            processor;
        value           nonuniform List<scalar> 
44
(
687.944
484.156
600.636
837.182
944.091
604.016
493.839
466.354
754.728
687.944
495.137
654.494
529.325
621.885
667.507
750.363
464.597
290.426
495.137
764.432
495.137
654.494
383.079
551.221
627.809
580.997
356.188
645.629
691.792
535.029
383.079
492.693
383.079
551.221
446.098
616.321
369.674
551.289
530.141
568.246
656.675
392.736
446.098
375.719
)
;
    }
}


// ************************************************************************* //
