/*--------------------------------*- C++ -*----------------------------------*\
| =========                 |                                                 |
| \\      /  F ield         | OpenFOAM: The Open Source CFD Toolbox           |
|  \\    /   O peration     | Version:  4.x                                   |
|   \\  /    A nd           | Web:      www.OpenFOAM.org                      |
|    \\/     M anipulation  |                                                 |
\*---------------------------------------------------------------------------*/
FoamFile
{
    version     2.0;
    format      ascii;
    class       volScalarField;
    location    "41";
    object      p;
}
// * * * * * * * * * * * * * * * * * * * * * * * * * * * * * * * * * * * * * //

dimensions      [1 -1 -2 0 0 0 0];

internalField   nonuniform List<scalar> 
114
(
5707.97
5728.74
5689.52
5721.71
5670.77
5715
5742.79
5725.79
5736.05
5708.15
5729.11
5689.95
5722.14
5671.39
5715.38
5742.39
5725.57
5735.7
5707.9
5728.77
5689.73
5721.85
5671.18
5715.07
5742.08
5725.45
5735.46
5707.85
5728.58
5689.84
5721.74
5671.47
5715.02
3811.81
3844.43
3792.86
3837.52
3865.79
3848.43
3859.02
3830.54
3851.95
3812.23
3844.87
3793.49
3837.94
3865.35
3848.13
3858.53
3830.16
3851.43
3811.84
3844.34
3793.11
3837.44
3864.88
3847.92
3858.13
3830.1
3851.12
3811.94
3844.14
3793.41
3837.36
1915.47
1959.55
1988.62
1970.92
1981.69
1953.17
1974.37
1935.06
1967.01
1916.64
1959.76
1988.23
1970.79
1981.39
1952.86
1974.11
1934.65
1966.92
1916.11
1959.81
1987.72
1970.48
1980.83
1952.68
1973.66
1934.7
1966.53
1916.18
1959.64
111.435
93.6057
104.316
75.5182
96.8805
57.2873
89.4297
38.9996
110.872
93.1882
103.744
75.1127
96.3198
56.73
88.8961
110.303
92.9165
103.278
74.9925
95.9676
56.7195
)
;

boundaryField
{
    inlet
    {
        type            calculated;
        value           nonuniform List<scalar> 
12
(
5742.79
5742.39
5742.08
3865.79
3865.35
3864.88
1988.62
1988.23
1987.72
111.435
110.872
110.303
)
;
    }
    outlet
    {
        type            calculated;
        value           nonuniform 0();
    }
    wall
    {
        type            calculated;
        value           nonuniform List<scalar> 
66
(
6681.75
6681.35
6681.04
6664.75
6664.53
6664.41
6675.01
6674.66
6674.42
6646.93
6647.1
6646.86
6646.81
6667.69
6668.06
6667.73
6667.54
6628.48
6628.91
6628.69
6628.8
6660.66
6661.09
6660.8
6660.7
6609.73
6610.34
6610.13
6610.42
6653.96
6654.34
6654.02
6653.97
5742.08
3864.88
1987.72
110.303
5725.45
3847.92
1970.48
92.9165
5735.46
3858.13
1980.83
103.278
5707.85
3830.1
1952.68
74.9925
5728.58
3851.12
1973.66
95.9676
5689.84
3811.94
1934.7
56.7195
5721.74
3844.14
1966.53
5671.47
3793.41
1916.18
5715.02
3837.36
1959.64
)
;
    }
    procBoundary2to0
    {
        type            processor;
        value           nonuniform List<scalar> 
44
(
5708.01
5728.78
5689.7
5721.87
5671.41
5715.23
5742.68
5725.76
5735.93
5735.93
3830.41
3851.71
3812.14
3844.77
3793.6
3837.96
3865.77
3848.3
3858.88
3830.41
3851.71
3851.71
1934.25
1966.65
1915.79
1959.61
1988.65
1970.89
1981.61
1952.84
1974.12
1934.25
1966.65
1966.65
38.687
82.0265
111.387
93.6426
104.347
75.4803
96.7657
57.1917
89.1749
38.687
)
;
    }
    procBoundary2to3
    {
        type            processor;
        value           nonuniform List<scalar> 
12
(
5651.74
5652.93
5652.13
5652.64
3773.76
3775.02
3774.05
3774.6
1896.75
1898.63
1897.43
1897.54
)
;
    }
    procBoundary2to6
    {
        type            processor;
        value           nonuniform List<scalar> 
32
(
82.1072
38.0082
81.7161
88.6965
38.2729
81.7068
-1765.95
-1784.18
-1773.26
-1801.79
-1780.96
-1819.9
-1788.78
82.1072
38.0082
-1837.81
-1766.52
-1784.39
-1773.65
-1802.22
-1781.1
-1820.51
38.0082
88.6965
-1788.55
-1767.16
-1784.69
-1774.24
-1802.35
-1781.54
88.6965
-1820.6
)
;
    }
}


// ************************************************************************* //
