/*--------------------------------*- C++ -*----------------------------------*\
| =========                 |                                                 |
| \\      /  F ield         | OpenFOAM: The Open Source CFD Toolbox           |
|  \\    /   O peration     | Version:  4.x                                   |
|   \\  /    A nd           | Web:      www.OpenFOAM.org                      |
|    \\/     M anipulation  |                                                 |
\*---------------------------------------------------------------------------*/
FoamFile
{
    version     2.0;
    format      ascii;
    class       volScalarField;
    location    "41";
    object      pSmooth;
}
// * * * * * * * * * * * * * * * * * * * * * * * * * * * * * * * * * * * * * //

dimensions      [1 -1 -2 0 0 0 0];

internalField   nonuniform List<scalar> 
114
(
74.1011
94.9507
55.7943
87.9798
37.0742
81.2492
108.844
91.8423
102.139
74.282
95.2551
56.1688
88.3429
37.694
81.5896
108.487
91.6714
101.82
74.0441
94.9289
55.9269
88.0248
37.3527
81.2575
108.178
91.5549
101.571
73.9962
94.7229
56.0244
87.8944
37.6622
81.187
55.9885
88.6015
37.0591
81.6733
109.734
92.4227
103.011
74.5908
96.0016
56.367
88.9675
37.6757
82.0342
109.355
92.1487
102.566
74.2243
95.5058
55.9588
88.4446
37.2534
81.5598
108.893
91.9449
102.163
74.1581
95.1795
56.049
88.2231
37.5486
81.4537
37.5648
81.6083
110.472
92.8001
103.583
75.1137
96.3336
57.0709
89.0271
38.6702
81.8273
110.138
92.7056
103.318
74.8238
96.0791
56.6521
88.9257
38.1343
81.8306
109.636
92.4032
102.762
74.644
95.6174
56.699
88.518
38.1989
81.6434
111.231
93.4209
104.144
75.399
96.7645
57.2383
89.3549
39.0057
110.712
93.0417
103.61
75.0101
96.2243
56.6831
88.8315
110.145
92.7697
103.137
74.8834
95.8576
56.6578
)
;

boundaryField
{
    inlet
    {
        type            zeroGradient;
    }
    outlet
    {
        type            fixedValue;
        value           nonuniform 0();
    }
    wall
    {
        type            zeroGradient;
    }
    procBoundary2to0
    {
        type            processor;
        value           nonuniform List<scalar> 
44
(
74.1956
95.0936
56.0607
88.1773
37.7307
81.4747
108.537
91.6929
101.942
101.942
74.4586
95.8297
56.3797
88.957
37.8287
82.1022
109.611
92.1637
102.836
74.4586
95.8297
95.8297
56.3102
88.7158
37.866
81.6642
110.46
92.7263
103.499
74.8017
96.1366
56.3102
88.7158
88.7158
38.7612
81.9441
111.166
93.4461
104.188
75.386
96.6888
57.1979
89.125
38.7612
)
;
    }
    procBoundary2to3
    {
        type            processor;
        value           nonuniform List<scalar> 
12
(
18.0143
19.2077
18.3767
18.8838
17.9497
19.2188
18.2183
18.7968
18.88
20.6412
19.4678
19.5699
)
;
    }
    procBoundary2to6
    {
        type            processor;
        value           nonuniform List<scalar> 
32
(
82.0529
38.0121
81.6685
88.6145
38.2518
81.6367
111.765
93.5474
104.483
75.9894
96.837
57.9259
89.0657
82.0529
38.0121
40.0373
111.224
93.3748
104.11
75.5711
96.69
57.3215
38.0121
88.6145
89.2737
110.589
93.07
103.523
75.4395
96.2452
88.6145
57.2194
)
;
    }
}


// ************************************************************************* //
