/*--------------------------------*- C++ -*----------------------------------*\
| =========                 |                                                 |
| \\      /  F ield         | OpenFOAM: The Open Source CFD Toolbox           |
|  \\    /   O peration     | Version:  4.x                                   |
|   \\  /    A nd           | Web:      www.OpenFOAM.org                      |
|    \\/     M anipulation  |                                                 |
\*---------------------------------------------------------------------------*/
FoamFile
{
    version     2.0;
    format      ascii;
    class       volVectorField;
    location    "41";
    object      Urel;
}
// * * * * * * * * * * * * * * * * * * * * * * * * * * * * * * * * * * * * * //

dimensions      [0 1 -1 0 0 0 0];

internalField   nonuniform List<vector> 
114
(
(-0.0218821 9.78817e-05 0.00107781)
(-0.0232861 9.55839e-05 0.00103951)
(-0.0222928 8.52087e-05 0.000869095)
(-0.0237075 8.67248e-05 0.000795248)
(-0.0226936 6.65048e-05 0.000635198)
(-0.0241028 6.24028e-05 0.00056605)
(-0.023665 -0.00012029 0.00128525)
(-0.0218185 -0.00011314 0.00118856)
(-0.0229988 -0.000127943 0.00119674)
(-0.0218267 -0.000115461 0.00104564)
(-0.0232422 -0.000106911 0.00099886)
(-0.0221977 -6.95862e-05 0.000835515)
(-0.0236369 -4.87228e-05 0.000764497)
(-0.0225507 -1.43579e-05 0.000606234)
(-0.0239841 -8.43565e-06 0.000536795)
(-0.0237889 -0.000362513 0.00125255)
(-0.0220404 -0.000320748 0.001161)
(-0.0232956 -0.000348274 0.00116314)
(-0.0222797 -0.000304853 0.00101989)
(-0.0237467 -0.000306167 0.000965932)
(-0.0228807 -0.000234459 0.000812642)
(-0.024343 -0.000214014 0.000738919)
(-0.0234476 -0.000136561 0.00059654)
(-0.0248874 -0.000122646 0.000528342)
(-0.0239188 -0.000403288 0.0012148)
(-0.0223104 -0.000367239 0.00113498)
(-0.0236375 -0.000376419 0.00112958)
(-0.0228319 -0.000331956 0.00100576)
(-0.0243534 -0.000315912 0.000947556)
(-0.0237235 -0.000241512 0.000810952)
(-0.0252022 -0.00020078 0.000732853)
(-0.0245512 -0.000107106 0.000604214)
(-0.0259463 -6.29339e-05 0.000538617)
(-0.0205471 6.42199e-05 0.000800195)
(-0.0220964 6.2216e-05 0.000730372)
(-0.0204923 4.64449e-05 0.000572524)
(-0.0221765 3.48931e-05 0.000497811)
(-0.0234261 -0.000159063 0.00134096)
(-0.0213509 -0.000136248 0.00120273)
(-0.0223839 -0.000156158 0.0012244)
(-0.0207739 -0.000136242 0.00102903)
(-0.0221566 -0.000141858 0.000985847)
(-0.0206049 -9.21951e-05 0.000798591)
(-0.0221635 -7.70808e-05 0.000726693)
(-0.0205198 -3.8089e-05 0.000573152)
(-0.0222114 -3.30642e-05 0.000490803)
(-0.0235697 -0.000402754 0.00131518)
(-0.0216082 -0.000351713 0.00119048)
(-0.022717 -0.000389353 0.00121435)
(-0.0213035 -0.000324512 0.00103464)
(-0.0227264 -0.000338943 0.000994721)
(-0.0214161 -0.000248124 0.000822265)
(-0.0229469 -0.000241113 0.000761093)
(-0.0215761 -0.000145359 0.00061759)
(-0.0231931 -0.000134805 0.000551007)
(-0.0237234 -0.000445197 0.00128154)
(-0.021944 -0.000401565 0.00117459)
(-0.0231334 -0.000418275 0.00118893)
(-0.0220259 -0.000357646 0.00104386)
(-0.0234599 -0.000346967 0.000995509)
(-0.0225059 -0.000260579 0.000855822)
(-0.023955 -0.000226924 0.000779218)
(-0.0229786 -0.00012675 0.000660758)
(-0.0244156 -8.2325e-05 0.000593151)
(-0.0188594 6.68114e-05 0.000474489)
(-0.0206187 6.37953e-05 0.000396535)
(-0.0231581 -0.000188227 0.00119759)
(-0.0209299 -0.000157448 0.00106503)
(-0.0217903 -0.000170391 0.00106357)
(-0.0198924 -0.000136364 0.000879517)
(-0.0211815 -0.000130167 0.000824584)
(-0.0193206 -8.29045e-05 0.000657667)
(-0.0208823 -5.26074e-05 0.000582182)
(-0.018939 -3.17649e-05 0.000459932)
(-0.0207028 -6.83493e-06 0.000378512)
(-0.0233255 -0.000435652 0.00116752)
(-0.0212122 -0.000375434 0.00104909)
(-0.0221627 -0.000411369 0.00105043)
(-0.0204564 -0.000332888 0.00089238)
(-0.0217821 -0.000341059 0.000840629)
(-0.0201441 -0.0002441 0.000689935)
(-0.0216679 -0.000228924 0.000618376)
(-0.0199521 -0.000141505 0.000508991)
(-0.0216472 -0.000107539 0.000438628)
(-0.0235037 -0.000482622 0.00114477)
(-0.0215816 -0.000435811 0.00104645)
(-0.0226234 -0.000457869 0.00105135)
(-0.0212591 -0.000384811 0.000925244)
(-0.0225737 -0.000374838 0.000871927)
(-0.0213538 -0.000278918 0.000744617)
(-0.0227299 -0.000252619 0.000669153)
(-0.0214858 -0.000153226 0.000587201)
(-0.0229065 -0.000103465 0.000518844)
(-0.022979 -0.000221137 0.00090879)
(-0.0206485 -0.000195285 0.00079571)
(-0.0214268 -0.000221714 0.000786344)
(-0.0193527 -0.000167625 0.000649081)
(-0.0206008 -0.000174406 0.000596836)
(-0.0185893 -0.00011439 0.000472703)
(-0.0201432 -0.000100694 0.000401488)
(-0.0181132 -5.56069e-05 0.000327317)
(-0.0231674 -0.00048532 0.00088454)
(-0.0209975 -0.000415651 0.000791363)
(-0.0218554 -0.000451015 0.000786161)
(-0.0200493 -0.000354202 0.000677476)
(-0.0212899 -0.000364831 0.00063488)
(-0.0195757 -0.000263713 0.000524522)
(-0.0210343 -0.000251419 0.000468893)
(-0.023371 -0.000520059 0.000870184)
(-0.0214043 -0.000462316 0.000798923)
(-0.0223506 -0.00047488 0.000801527)
(-0.0208787 -0.00039348 0.000721104)
(-0.0220966 -0.000377548 0.000680145)
(-0.0207607 -0.00028661 0.000581198)
)
;

boundaryField
{
    inlet
    {
        type            calculated;
        value           nonuniform List<vector> 
12
(
(-0.01 -1.5596e-09 -2.57122e-11)
(-0.01 -1.27909e-10 1.29862e-10)
(-0.01 -1.60715e-10 1.59591e-10)
(-0.01 -1.25326e-10 1.04908e-10)
(-0.01 -5.45579e-11 7.85484e-11)
(-0.01 -6.1659e-11 4.17839e-11)
(-0.01 -1.64979e-10 1.53588e-10)
(-0.01 -1.88609e-11 6.50118e-11)
(-0.01 -1.21581e-10 6.51656e-11)
(-0.01 -5.29844e-11 6.97249e-11)
(-0.01 4.50077e-11 1.049e-12)
(-0.01 -1.16725e-10 5.20955e-11)
)
;
    }
    outlet
    {
        type            calculated;
        value           nonuniform 0();
    }
    wall
    {
        type            calculated;
        value           nonuniform List<vector> 
66
(
(4.00794e-09 -1.5596e-09 -2.57122e-11)
(2.38808e-10 -1.27909e-10 1.29862e-10)
(5.46607e-10 -1.60715e-10 1.59591e-10)
(4.12874e-10 -2.06213e-10 3.9675e-10)
(1.76291e-10 -9.22231e-11 2.10473e-10)
(-1.67854e-10 -2.17753e-10 1.46412e-10)
(7.10649e-10 -3.36022e-10 6.10407e-10)
(6.01913e-10 -1.34462e-10 6.2755e-10)
(3.79067e-10 -1.50012e-10 6.74427e-10)
(7.62896e-10 -1.43505e-10 8.24527e-10)
(5.89636e-10 -4.89039e-10 8.14275e-10)
(5.68543e-10 -2.19291e-10 6.56423e-10)
(-9.23385e-11 -3.93396e-10 3.89743e-10)
(1.23469e-09 -2.10395e-10 9.83828e-10)
(5.90208e-10 -7.51181e-10 7.93232e-10)
(7.4172e-10 -2.65133e-10 7.0632e-10)
(6.89386e-10 -8.86552e-10 2.14777e-10)
(9.60963e-10 -7.53978e-10 1.54725e-09)
(5.7172e-10 -1.13081e-09 1.11464e-09)
(6.00074e-10 -9.23903e-10 7.32918e-10)
(3.74503e-10 -4.2928e-10 1.15964e-10)
(1.4134e-09 -1.05043e-09 1.87641e-09)
(5.78901e-10 -2.14433e-09 1.5573e-09)
(5.94713e-10 -9.84832e-10 1.1881e-09)
(4.57489e-10 -8.26684e-10 6.30274e-10)
(1.79736e-09 -2.00876e-09 2.4296e-09)
(-1.45821e-10 -3.13486e-09 1.53184e-09)
(2.18591e-10 -1.44017e-09 1.30948e-09)
(5.67903e-10 -1.49311e-09 1.00411e-09)
(2.00723e-09 -2.60921e-09 2.49629e-09)
(3.92804e-10 -2.13261e-09 2.0075e-09)
(6.79039e-10 -1.53404e-09 1.57736e-09)
(6.07339e-10 -1.13309e-09 9.94074e-10)
(5.46607e-10 -1.60715e-10 1.59591e-10)
(8.10906e-11 -6.1659e-11 4.17839e-11)
(8.58489e-11 -1.21581e-10 6.51656e-11)
(3.09555e-11 -1.16725e-10 5.20955e-11)
(-1.67854e-10 -2.17753e-10 1.46412e-10)
(1.39597e-10 -1.35405e-10 4.0868e-11)
(2.78051e-11 -1.10629e-10 1.07831e-10)
(1.95523e-11 -1.33899e-10 6.44117e-11)
(3.79067e-10 -1.50012e-10 6.74427e-10)
(3.28947e-10 -1.98271e-10 9.66483e-11)
(8.14799e-11 -1.64582e-10 1.06889e-10)
(1.96874e-10 -7.82193e-11 1.51187e-10)
(-9.23385e-11 -3.93396e-10 3.89743e-10)
(3.57051e-10 -1.57638e-10 2.08293e-10)
(1.35398e-11 -2.368e-10 2.64388e-10)
(1.70397e-10 -1.9007e-10 1.2686e-10)
(6.89386e-10 -8.86552e-10 2.14777e-10)
(4.61447e-10 -3.12546e-10 3.5537e-11)
(4.00418e-10 -2.10968e-10 2.87267e-10)
(5.75719e-10 -1.72764e-10 2.85036e-10)
(3.74503e-10 -4.2928e-10 1.15964e-10)
(2.59542e-10 -3.78314e-10 2.43507e-10)
(2.60745e-10 -2.3651e-10 3.31861e-10)
(3.26195e-10 -2.07537e-10 2.33062e-10)
(4.57489e-10 -8.26684e-10 6.30274e-10)
(2.9465e-10 -5.23697e-10 4.0343e-10)
(3.22772e-10 -2.13026e-10 4.39918e-10)
(5.67903e-10 -1.49311e-09 1.00411e-09)
(1.54135e-10 -4.27165e-10 3.97508e-10)
(1.42926e-10 -3.30734e-10 5.89893e-10)
(6.07339e-10 -1.13309e-09 9.94074e-10)
(1.64528e-10 -5.452e-10 4.58883e-10)
(4.17742e-10 -5.10192e-10 6.62864e-10)
)
;
    }
    procBoundary2to0
    {
        type            processor;
        value           nonuniform List<vector> 
44
(
(-0.0220522 0.000281301 0.00109197)
(-0.023491 0.000261533 0.00105422)
(-0.0225416 0.000206847 0.000894419)
(-0.0239711 0.000192871 0.000833829)
(-0.0229799 0.000142659 0.000681152)
(-0.024372 0.000120968 0.000627568)
(-0.0236632 0.000143356 0.00133293)
(-0.0218342 0.000117468 0.00121699)
(-0.0230155 0.000118462 0.00122633)
(-0.0230155 0.000118462 0.00122633)
(-0.0207288 8.07038e-05 0.00104409)
(-0.0220957 7.40297e-05 0.00100261)
(-0.0208222 0.000198709 0.000803223)
(-0.0223715 0.000179349 0.000730435)
(-0.0207791 0.000124193 0.000580265)
(-0.0224512 0.000100144 0.000505992)
(-0.0233891 0.000121841 0.00138459)
(-0.0213074 0.000105558 0.00123007)
(-0.0223311 0.000104688 0.00125266)
(-0.0207288 8.07038e-05 0.00104409)
(-0.0220957 7.40297e-05 0.00100261)
(-0.0220957 7.40297e-05 0.00100261)
(-0.0191617 7.83917e-05 0.000665556)
(-0.0207633 8.90606e-05 0.000596045)
(-0.0192768 0.000137412 0.000499887)
(-0.0209913 0.0001162 0.00040471)
(-0.0231022 0.000121561 0.00121684)
(-0.0208363 0.00010517 0.00108733)
(-0.0216959 0.000108699 0.00109309)
(-0.0197427 8.68986e-05 0.000890179)
(-0.0210588 9.11017e-05 0.000837757)
(-0.0191617 7.83917e-05 0.000665556)
(-0.0207633 8.90606e-05 0.000596045)
(-0.0207633 8.90606e-05 0.000596045)
(-0.0178433 4.13993e-05 0.000315727)
(-0.0196392 3.94366e-05 0.00025386)
(-0.0229262 0.000111229 0.00089938)
(-0.0205654 8.76058e-05 0.0008032)
(-0.0213157 7.64093e-05 0.000788837)
(-0.0191619 6.20013e-05 0.000645437)
(-0.0204193 5.0161e-05 0.000599723)
(-0.0183224 4.91501e-05 0.000467853)
(-0.0199286 5.05905e-05 0.000418121)
(-0.0178433 4.13993e-05 0.000315727)
)
;
    }
    procBoundary2to3
    {
        type            processor;
        value           nonuniform List<vector> 
12
(
(-0.0230184 5.55045e-05 0.000450533)
(-0.0228151 1.71067e-05 0.000416647)
(-0.0239273 -7.49908e-05 0.000413685)
(-0.0252279 3.38419e-05 0.000438816)
(-0.020495 2.45256e-05 0.000403184)
(-0.0204858 -1.05763e-05 0.000391609)
(-0.0217521 -6.81844e-05 0.000458008)
(-0.0233821 1.99981e-05 0.000519702)
(-0.0186869 4.43837e-05 0.000330201)
(-0.0187346 -3.33101e-06 0.000304569)
(-0.0198645 -5.15162e-05 0.000379282)
(-0.0216149 -1.63761e-05 0.000485249)
)
;
    }
    procBoundary2to6
    {
        type            processor;
        value           nonuniform List<vector> 
32
(
(-0.0198838 -4.19233e-05 0.000264287)
(-0.0193092 -0.000159701 0.000404107)
(-0.0209248 -0.000121912 0.000353623)
(-0.0220706 -0.000248787 0.000525758)
(-0.0207414 -0.000146728 0.000484584)
(-0.0221027 -8.72159e-05 0.000439798)
(-0.0229238 -0.000215452 0.00048675)
(-0.0205682 -0.000191668 0.00043384)
(-0.0212979 -0.0002004 0.000409182)
(-0.0191656 -0.00015177 0.000350045)
(-0.0204136 -0.00014041 0.000308073)
(-0.0183164 -9.31222e-05 0.000253429)
(-0.0198965 -6.26856e-05 0.000218938)
(-0.0198838 -4.19233e-05 0.000264287)
(-0.0193092 -0.000159701 0.000404107)
(-0.017847 -2.99775e-05 0.000181296)
(-0.0231271 -0.000502893 0.000482973)
(-0.0209202 -0.000418165 0.00044572)
(-0.0217479 -0.000447559 0.000427348)
(-0.0198595 -0.000342776 0.000386006)
(-0.0210988 -0.000334089 0.00034962)
(-0.0192456 -0.000240047 0.00030606)
(-0.0193092 -0.000159701 0.000404107)
(-0.0220706 -0.000248787 0.000525758)
(-0.0207223 -0.000202844 0.00027715)
(-0.0233438 -0.000537696 0.000493686)
(-0.0213615 -0.000472776 0.000464658)
(-0.0222693 -0.00048448 0.000456662)
(-0.0207523 -0.00039304 0.000428979)
(-0.0219233 -0.000373758 0.000396712)
(-0.0220706 -0.000248787 0.000525758)
(-0.0204842 -0.000285316 0.00036267)
)
;
    }
}


// ************************************************************************* //
