/*--------------------------------*- C++ -*----------------------------------*\
  =========                 |
  \\      /  F ield         | OpenFOAM: The Open Source CFD Toolbox
   \\    /   O peration     | Website:  https://openfoam.org
    \\  /    A nd           | Version:  4.x
     \\/     M anipulation  |
\*---------------------------------------------------------------------------*/
FoamFile
{
    version     2.0;
    format      ascii;
    class       vectorField;
    location    0;
    object      v;
}
// * * * * * * * * * * * * * * * * * * * * * * * * * * * * * * * * * * * * * //

258
(
( 0.000100442 -1.04678e-05 1.0354e-05 )  
( 0.000726758 0.000128588 -1.25522e-05 )  
( 8.9643e-05 -1.76079e-05 1.8249e-05 )  
( 6.71752e-05 -5.07573e-05 5.16736e-06 )  
( 0.000469922 5.84931e-06 4.57097e-05 )  
( 0.000381926 0.000175717 -4.15851e-05 )  
( 0.000719329 7.14252e-05 6.64634e-05 )  
( 0.000228762 4.79313e-05 -3.40591e-05 )  
( 0.000679007 0.000103381 4.58691e-05 )  
( 0.000331465 0.000100069 -4.79201e-05 )  
( 0.000127031 -1.33748e-05 -5.32882e-05 )  
( 0.000691516 0.000125975 -1.64861e-05 )  
( 0.000158654 4.40135e-06 -4.81316e-05 )  
( 0.000543684 5.99453e-05 -7.5468e-05 )  
( 0.000282711 7.76006e-05 -6.21975e-05 )  
( -1.07978e-05 -2.70342e-05 -2.17762e-05 )  
( 0.000126144 -8.70342e-06 1.71994e-05 )  
( 3.67802e-05 6.10336e-06 -3.67463e-05 )  
( 0.000195376 3.30089e-05 -2.45437e-05 )  
( 0.000204995 3.41309e-05 -6.75142e-05 )  
( 0.000119108 -2.4809e-05 -2.01962e-05 )  
( 0.000373251 -5.14349e-05 0.000142202 )  
( 0.000815151 1.95491e-05 0.000109224 )  
( 0.00018698 4.14119e-06 -1.36733e-05 )  
( 0.00026658 6.73509e-05 -4.32584e-05 )  
( 0.000586197 8.92466e-05 0.000110298 )  
( 0.000248966 0.000143597 7.93394e-06 )  
( 0.000439995 0.000117411 3.80641e-05 )  
( 0.000326052 8.24387e-05 -4.22473e-05 )  
( 6.36448e-05 -2.48054e-06 2.06828e-05 )  
( 0.000113278 1.01765e-05 -5.02986e-05 )  
( 0.000239852 0.000108149 1.24841e-05 )  
( 0.000851195 0.000198196 6.11287e-05 )  
( 0.00071171 0.000175717 4.01949e-05 )  
( 1.64748e-05 -3.91918e-06 6.86132e-06 )  
( 0.000697518 0.000148779 5.3428e-05 )  
( 2.10346e-05 -9.61219e-06 -1.86199e-05 )  
( 0.000274512 0.000114595 -6.58591e-05 )  
( 0.000705433 0.000221024 3.54161e-05 )  
( 0.000870212 8.74304e-05 9.62993e-05 )  
( 0.000141237 8.35359e-06 -4.81602e-05 )  
( 0.0002344 4.11481e-05 -3.63493e-06 )  
( 8.28506e-05 4.40826e-05 -8.44012e-06 )  
( 0.000363177 3.43877e-05 -8.79902e-05 )  
( 1.44871e-05 -3.37634e-06 5.93237e-06 )  
( 0.000378164 0.000150476 0.00019175 )  
( 0.000772947 0.000124903 6.40012e-06 )  
( 0.000835239 8.63095e-05 7.16522e-05 )  
( -2.27882e-05 -1.44581e-05 1.19728e-05 )  
( 9.01933e-05 -1.6999e-05 1.25859e-05 )  
( 3.20537e-05 -6.70847e-06 7.00653e-07 )  
( 0.000663815 3.31083e-05 1.53342e-05 )  
( 0.000242656 5.67085e-05 -6.19658e-06 )  
( 0.000101885 -2.74023e-06 -7.96217e-06 )  
( 0.000170589 1.02686e-05 -2.81463e-05 )  
( 6.54139e-05 -1.3579e-06 -5.2991e-05 )  
( 0.000880245 2.85692e-05 0.000192965 )  
( 0.000542807 0.000149977 1.18666e-06 )  
( 2.65216e-05 -3.28373e-05 -4.28869e-06 )  
( 0.000544952 7.46426e-05 -9.13246e-05 )  
( 0.000114999 5.19895e-05 7.19888e-05 )  
( 0.000196089 4.22665e-05 7.08815e-05 )  
( 0.000148448 2.58958e-06 -8.52108e-06 )  
( 3.38612e-05 -3.68564e-05 1.42868e-05 )  
( 7.13329e-05 1.59599e-06 -1.2208e-05 )  
( 0.000381329 -1.99989e-05 0.000117918 )  
( 3.94148e-05 -3.69318e-06 -4.65742e-06 )  
( 0.000243761 -7.73849e-05 0.000197621 )  
( 0.000601702 0.000131525 7.18192e-05 )  
( 0.000185414 2.27273e-05 -3.64076e-05 )  
( 0.000714459 0.000131103 7.59637e-05 )  
( 0.000733262 0.000184473 -4.75693e-05 )  
( 0.000246757 6.8407e-05 -4.48463e-05 )  
( 0.000572618 9.4692e-05 0.000161773 )  
( 0.000148123 -6.68297e-06 -5.63453e-05 )  
( 0.000574842 0.000113745 -9.47553e-05 )  
( 0.000179959 6.1024e-05 -7.84493e-05 )  
( 0.000180475 4.01909e-05 -6.59344e-05 )  
( 0.00041761 4.48652e-05 -0.000123913 )  
( 0.000245983 8.44372e-05 -6.55172e-05 )  
( 0.000130953 3.42367e-05 -4.87487e-05 )  
( 0.000494369 1.68577e-05 0.000108451 )  
( 8.24476e-05 -5.03113e-06 -3.63239e-05 )  
( 0.000119253 6.49703e-05 7.92189e-05 )  
( 0.000529094 0.00015267 -2.71576e-05 )  
( 4.12959e-05 6.98854e-06 -4.21244e-05 )  
( 5.72516e-05 -9.83595e-06 -6.14633e-05 )  
( 0.000155117 1.30003e-05 -7.87822e-05 )  
( 0.000160827 7.01952e-05 -4.45532e-05 )  
( 2.94086e-05 -1.23273e-05 -2.02849e-05 )  
( 0.000132642 1.66866e-05 7.86238e-06 )  
( 6.33489e-05 3.83137e-06 -1.28176e-05 )  
( 0.000121319 -0.000122214 -4.05157e-05 )  
( 0.00023391 7.74449e-05 -3.29908e-05 )  
( 9.79922e-06 -4.66968e-06 -2.20426e-05 )  
( 0.000495901 0.000146029 4.31986e-05 )  
( 0.00022557 6.67861e-05 -0.000103009 )  
( 0.000192903 2.35141e-05 -8.57342e-05 )  
( -4.5456e-05 -1.53047e-05 2.72364e-06 )  
( 0.000568422 8.85586e-05 7.48182e-05 )  
( 5.9734e-06 4.62846e-06 -8.90629e-06 )  
( 4.16163e-05 0.000189793 4.90483e-05 )  
( 0.000136227 0.000170162 1.0727e-05 )  
( 7.85556e-06 -1.80236e-05 -1.06164e-05 )  
( 0.000432703 -7.35552e-06 -0.000186574 )  
( -5.14707e-06 -5.9926e-05 -2.77943e-05 )  
( 4.34434e-06 -1.43391e-06 -2.73804e-05 )  
( 0.000120011 4.79521e-05 -4.33236e-05 )  
( 0.000492747 0.000177943 0.000201177 )  
( 0.000578625 0.000148907 6.56723e-05 )  
( 0.0001121 -2.03897e-05 -9.1519e-05 )  
( 0.00011379 -1.79102e-05 -1.46331e-05 )  
( 0.000462016 -5.97905e-05 6.13474e-06 )  
( 2.92129e-05 -1.59882e-05 -3.12659e-05 )  
( 0.000384876 0.000124407 9.72047e-05 )  
( -7.44664e-05 6.66732e-05 0.000123943 )  
( 8.44175e-05 -2.68179e-05 -2.52664e-05 )  
( 0.000159296 9.98458e-05 -6.80474e-05 )  
( 4.2027e-05 1.24083e-05 -6.75857e-05 )  
( 0.000266975 0.000129055 0.000113113 )  
( 0.00050779 0.000204352 -2.06153e-05 )  
( 0.000439716 0.000297251 -6.60759e-06 )  
( 0.000425344 9.03324e-05 -0.000152231 )  
( 0.000217575 5.73207e-05 -2.17785e-05 )  
( 3.04234e-05 -1.50088e-05 -6.70352e-06 )  
( 4.83649e-05 -1.47307e-06 -1.9702e-05 )  
( 0.000609095 0.000127813 -3.60376e-05 )  
( 0.000120494 -1.65779e-05 -6.13536e-05 )  
( 0.000568621 0.000117391 0.000111498 )  
( 0.000163923 -1.79415e-05 -5.9844e-05 )  
( 0.000257615 -3.22927e-05 -1.53116e-05 )  
( 4.16188e-06 4.71783e-06 -2.32725e-06 )  
( 0.000174867 -1.08225e-06 9.76802e-05 )  
( 4.44201e-05 -1.46208e-05 4.0491e-06 )  
( 0.000297622 0.000364295 -8.37279e-05 )  
( 0.000153337 -3.50001e-06 -2.934e-05 )  
( 0.000109727 -3.20178e-05 -5.04093e-06 )  
( 0.000717752 0.000103051 -5.50331e-05 )  
( 0.000540626 -3.31958e-05 -0.000119578 )  
( 5.98546e-05 -3.09015e-05 -3.47787e-05 )  
( 0.000251619 2.75173e-05 -0.000106874 )  
( 6.04309e-05 -2.08645e-05 2.26864e-05 )  
( 0.000144226 1.16651e-05 -2.4665e-05 )  
( 0.00018645 4.74265e-05 2.5275e-05 )  
( 0.000497109 1.60835e-05 -9.10314e-05 )  
( -1.06685e-05 -6.32693e-05 -1.74662e-05 )  
( 0.000670361 0.000237992 -9.4025e-05 )  
( -1.49922e-05 3.70252e-05 0.000108264 )  
( 0.000544364 6.55997e-05 6.24087e-05 )  
( 0.00018169 3.61602e-05 -4.66855e-05 )  
( 0.000160142 9.55591e-05 3.59722e-05 )  
( 0.00014919 4.48989e-05 -2.84615e-05 )  
( 0.000281849 8.10917e-05 3.37814e-05 )  
( 0.000642584 0.000110803 -0.000243258 )  
( -3.68089e-05 -1.40399e-05 1.62707e-05 )  
( 0.000734101 0.00014092 0.000106125 )  
( 6.54137e-05 1.35062e-06 -3.02434e-05 )  
( 0.000359465 5.34404e-05 -0.000261362 )  
( 0.000614325 9.27257e-05 0.000143022 )  
( 0.000195538 9.41766e-05 -3.69112e-05 )  
( 0.000253335 6.91386e-05 -7.21593e-05 )  
( 0.000187513 8.36171e-05 5.78224e-05 )  
( -6.48715e-05 1.35159e-05 5.44286e-06 )  
( 0.000315709 1.49969e-05 -1.42745e-05 )  
( 0.000192817 3.3124e-05 0.000146126 )  
( 4.5134e-05 -3.77298e-06 -3.72808e-05 )  
( 0.000275795 0.000104234 -6.50065e-05 )  
( 0.000189661 1.51765e-05 -6.15318e-05 )  
( 6.46136e-05 -7.24256e-06 -9.47094e-06 )  
( 0.000125136 1.14753e-05 -7.30724e-05 )  
( 0.000263234 1.49461e-06 -7.40565e-05 )  
( 0.000182143 1.13751e-05 7.05503e-06 )  
( 0.000709822 -1.60296e-05 0.000213556 )  
( 2.09794e-05 -1.48658e-05 -2.32957e-05 )  
( 0.00072213 0.000116188 1.36008e-05 )  
( 0.000135016 -4.69805e-05 -1.86703e-05 )  
( 0.000448195 7.30914e-05 7.53717e-05 )  
( 0.000205484 -0.000130516 -6.85618e-05 )  
( -3.37479e-05 0.000254842 2.92217e-05 )  
( 7.2615e-05 1.72977e-05 5.05693e-05 )  
( 8.67668e-06 -6.11201e-06 -3.15459e-06 )  
( 2.52352e-05 -5.18316e-06 -1.22693e-05 )  
( 3.5526e-05 -1.21639e-05 -3.4258e-05 )  
( 2.0361e-05 0.000136914 3.96577e-05 )  
( 0.000341416 0.000529041 -0.00028067 )  
( 2.93874e-06 -5.9815e-05 -2.28962e-05 )  
( 0.000134979 7.70215e-05 -3.70855e-05 )  
( 0.000625838 0.000147204 -0.000118881 )  
( 0.000329428 4.87024e-05 -0.000167375 )  
( 3.26167e-05 -4.80452e-06 -7.75567e-05 )  
( 4.09043e-05 -2.26383e-05 5.18721e-05 )  
( 0.000273837 0.000253612 -1.23156e-05 )  
( 7.95296e-05 4.56563e-05 -3.15511e-05 )  
( 0.000507999 0.000166975 5.77307e-05 )  
( 0.000266872 5.06234e-05 -1.86653e-05 )  
( 0.000222011 3.46493e-05 -8.18907e-05 )  
( 2.70703e-05 1.21455e-05 -2.68913e-05 )  
( 2.80095e-05 -5.90572e-05 -2.99422e-07 )  
( 0.00032124 0.000153925 4.88127e-05 )  
( 8.45227e-05 -5.15134e-07 -1.81103e-05 )  
( 0.000286226 0.000330673 -3.71788e-05 )  
( 1.06692e-05 3.097e-05 5.98616e-05 )  
( 0.0001709 5.98196e-05 -8.3566e-05 )  
( 4.12043e-05 -9.0713e-06 -2.80606e-05 )  
( 0.000103288 2.1961e-05 -3.92692e-05 )  
( 2.93761e-05 5.75366e-05 2.30127e-05 )  
( 0.000373392 0.000293472 8.68177e-05 )  
( 0.000143474 7.79598e-05 -2.26089e-05 )  
( 0.000270901 3.50224e-05 -5.49201e-05 )  
( 8.69241e-05 -7.03016e-07 -4.29192e-05 )  
( 0.000251081 0.000129132 1.09148e-05 )  
( 0.000416809 0.000240846 7.64994e-05 )  
( 0.000448862 0.000251993 -0.000149563 )  
( -2.74752e-05 -2.43035e-07 -2.22829e-06 )  
( 0.000133346 -2.11063e-05 -6.5421e-05 )  
( 7.82678e-05 9.33656e-05 4.39129e-05 )  
( 3.07924e-05 6.04507e-06 -9.50569e-06 )  
( 7.16874e-05 0.000187584 -0.000127984 )  
( 0.00019952 -1.06048e-05 6.69742e-05 )  
( 0.000148495 -5.34385e-07 -1.51497e-05 )  
( 0.000435033 0.000595619 -0.000103783 )  
( 2.06914e-05 7.96883e-06 -1.56141e-05 )  
( 2.72966e-06 -4.02259e-05 2.91054e-05 )  
( 3.66952e-05 1.02366e-05 -3.78463e-05 )  
( 0.000311863 0.000305742 0.000163893 )  
( -1.64112e-05 1.85372e-06 -1.61799e-05 )  
( 1.95687e-05 -5.12658e-06 -1.93764e-06 )  
( 8.54609e-06 -2.7956e-06 -2.99428e-07 )  
( 0.00030162 3.7393e-05 -0.000131014 )  
( 0.000229592 0.000196719 3.80624e-05 )  
( 0.000132588 -3.45205e-05 -1.59353e-06 )  
( 2.01645e-05 -1.45369e-05 -4.21915e-05 )  
( 0.000234578 0.000181879 -1.96274e-05 )  
( 6.09e-05 3.78158e-05 -1.61339e-05 )  
( 5.87176e-05 7.53799e-06 1.3307e-05 )  
( 6.06821e-05 -5.15451e-06 -1.82333e-05 )  
( -4.1939e-06 5.10148e-05 2.96214e-05 )  
( 0.000292471 0.000424256 -4.31761e-05 )  
( 0.000100768 9.02565e-05 2.23194e-06 )  
( 5.24155e-06 -7.10152e-06 -9.42647e-06 )  
( 5.70957e-05 2.28975e-05 -2.9581e-05 )  
( 0.000141 8.22842e-05 -7.28242e-07 )  
( 2.89228e-06 4.72609e-05 8.35969e-06 )  
( 0.000218134 3.35998e-05 -6.9582e-05 )  
( 9.7996e-05 4.08697e-05 -8.64626e-06 )  
( 0.00010429 0.000295238 -4.63347e-05 )  
( 7.07198e-05 -2.25145e-06 -1.64321e-05 )  
( 0.000205909 6.43538e-05 -2.13619e-05 )  
( 9.84755e-05 4.17617e-05 -2.16262e-05 )  
( 6.0546e-05 6.44965e-05 -5.41511e-05 )  
( 0.000182346 3.74002e-05 7.366e-05 )  
( 0.000185837 9.73527e-05 2.13937e-05 )  
( 0.000131839 -3.62648e-05 -5.38844e-05 )  
( 3.67686e-05 1.17297e-05 -1.48211e-05 )  
( 5.0732e-06 5.32516e-06 -5.55017e-06 )  
( -5.27828e-06 -4.45971e-06 -3.53693e-06 )  
( 5.05722e-05 -2.43606e-05 -2.14017e-05 )  
( 7.06087e-06 1.24292e-05 2.35844e-06 )  
)
