/*--------------------------------*- C++ -*----------------------------------*\
| =========                 |                                                 |
| \\      /  F ield         | OpenFOAM: The Open Source CFD Toolbox           |
|  \\    /   O peration     | Version:  4.x                                   |
|   \\  /    A nd           | Web:      www.OpenFOAM.org                      |
|    \\/     M anipulation  |                                                 |
\*---------------------------------------------------------------------------*/
FoamFile
{
    version     2.0;
    format      ascii;
    class       volVectorField;
    location    "47";
    object      impParticleForces;
}
// * * * * * * * * * * * * * * * * * * * * * * * * * * * * * * * * * * * * * //

dimensions      [1 1 -2 0 0 0 0];

internalField   nonuniform List<vector> 
114
(
(0.00240165 -8.19767e-07 -8.51462e-05)
(0.00243778 1.30494e-06 -7.95216e-05)
(0.00243565 4.50707e-06 -7.1064e-05)
(0.0024707 8.51151e-06 -6.36856e-05)
(0.00244789 1.42279e-05 -5.4314e-05)
(0.00246141 2.08976e-05 -4.65504e-05)
(0.00231034 5.59485e-06 -8.93978e-05)
(0.0023372 6.49153e-06 -9.04076e-05)
(0.00238094 7.59181e-06 -8.93559e-05)
(0.0023975 8.50662e-06 -8.4448e-05)
(0.00244177 9.68154e-06 -7.9309e-05)
(0.00243499 1.06336e-05 -7.08017e-05)
(0.00247022 1.23511e-05 -6.35281e-05)
(0.00245309 1.44942e-05 -5.44205e-05)
(0.00245508 1.73854e-05 -4.65059e-05)
(0.00228422 1.32712e-05 -8.68419e-05)
(0.0023164 1.42765e-05 -8.81727e-05)
(0.00235964 1.53516e-05 -8.72374e-05)
(0.00237947 1.56516e-05 -8.2562e-05)
(0.00242472 1.63853e-05 -7.75176e-05)
(0.00242204 1.57699e-05 -6.96361e-05)
(0.00245926 1.63237e-05 -6.25417e-05)
(0.00245103 1.60951e-05 -5.40903e-05)
(0.00246789 1.6674e-05 -4.69992e-05)
(0.00224688 1.58247e-05 -8.39047e-05)
(0.00226785 1.66032e-05 -8.43694e-05)
(0.00232095 1.76448e-05 -8.38937e-05)
(0.00233292 1.75474e-05 -7.93325e-05)
(0.0023662 1.75934e-05 -7.42669e-05)
(0.00237297 1.68077e-05 -6.71733e-05)
(0.00239031 1.63879e-05 -6.02057e-05)
(0.00240843 1.56069e-05 -5.30323e-05)
(0.00242524 1.50649e-05 -4.62923e-05)
(0.00249981 3.40281e-06 -7.17784e-05)
(0.00253681 7.05038e-06 -6.42225e-05)
(0.0024815 1.22804e-05 -5.36352e-05)
(0.00250408 1.80013e-05 -4.60096e-05)
(0.00233755 6.33074e-06 -8.881e-05)
(0.00238468 7.30623e-06 -9.12466e-05)
(0.00244935 8.71528e-06 -9.19842e-05)
(0.00245859 9.47799e-06 -8.60205e-05)
(0.00249366 1.05206e-05 -8.01599e-05)
(0.00247562 1.08257e-05 -7.06863e-05)
(0.00252002 1.22713e-05 -6.36778e-05)
(0.00248187 1.38249e-05 -5.39499e-05)
(0.00248206 1.60995e-05 -4.58389e-05)
(0.00232179 1.48191e-05 -8.72336e-05)
(0.0023746 1.64609e-05 -8.99926e-05)
(0.00244586 1.85392e-05 -9.11323e-05)
(0.00244735 1.78497e-05 -8.47494e-05)
(0.00247581 1.79871e-05 -7.87011e-05)
(0.00247158 1.6979e-05 -7.03586e-05)
(0.00250224 1.70574e-05 -6.32293e-05)
(0.00248231 1.61495e-05 -5.461e-05)
(0.00249409 1.6151e-05 -4.71964e-05)
(0.00227295 1.71605e-05 -8.33542e-05)
(0.0023111 1.84108e-05 -8.48678e-05)
(0.00238324 2.01399e-05 -8.60627e-05)
(0.00237885 1.93771e-05 -8.01429e-05)
(0.00240254 1.89237e-05 -7.45245e-05)
(0.00241293 1.7893e-05 -6.75891e-05)
(0.00243419 1.71765e-05 -6.06217e-05)
(0.00243053 1.57553e-05 -5.3238e-05)
(0.00243394 1.46918e-05 -4.62807e-05)
(0.00245168 9.44966e-06 -4.84687e-05)
(0.00245822 1.39107e-05 -4.12712e-05)
(0.00236322 7.03875e-06 -8.28272e-05)
(0.00239346 7.89252e-06 -8.37864e-05)
(0.00244925 9.16501e-06 -8.37601e-05)
(0.00245248 9.57477e-06 -7.81845e-05)
(0.00247462 1.00501e-05 -7.21008e-05)
(0.00246053 1.02521e-05 -6.38283e-05)
(0.00248818 1.1177e-05 -5.68389e-05)
(0.00245068 1.22205e-05 -4.84917e-05)
(0.00245202 1.37627e-05 -4.14025e-05)
(0.00233248 1.56062e-05 -8.03071e-05)
(0.00237695 1.72018e-05 -8.22324e-05)
(0.00245014 1.95175e-05 -8.33237e-05)
(0.00245469 1.88348e-05 -7.82053e-05)
(0.00247316 1.85703e-05 -7.18437e-05)
(0.00245177 1.67424e-05 -6.36119e-05)
(0.0024893 1.65379e-05 -5.72472e-05)
(0.00245925 1.5102e-05 -4.9607e-05)
(0.00247797 1.44674e-05 -4.33092e-05)
(0.00229198 1.83279e-05 -7.75845e-05)
(0.00233111 1.98827e-05 -7.90864e-05)
(0.00238853 2.13197e-05 -7.91921e-05)
(0.00239552 2.06454e-05 -7.47924e-05)
(0.00239739 1.94242e-05 -6.82983e-05)
(0.00241083 1.82208e-05 -6.21347e-05)
(0.00244628 1.74213e-05 -5.62211e-05)
(0.0024168 1.52268e-05 -4.90733e-05)
(0.0024347 1.37915e-05 -4.32661e-05)
(0.00236694 7.72365e-06 -7.04666e-05)
(0.00241485 8.77767e-06 -7.16004e-05)
(0.00246606 1.01903e-05 -7.12078e-05)
(0.00244594 9.85302e-06 -6.55915e-05)
(0.00246505 1.02049e-05 -6.0402e-05)
(0.00243531 9.82192e-06 -5.33275e-05)
(0.00245449 1.03418e-05 -4.72035e-05)
(0.00241523 1.06348e-05 -4.07125e-05)
(0.00233938 1.65038e-05 -6.88194e-05)
(0.00238534 1.82687e-05 -7.0228e-05)
(0.00245331 2.04747e-05 -7.05429e-05)
(0.00243525 1.86372e-05 -6.54638e-05)
(0.00246635 1.86672e-05 -6.09818e-05)
(0.00243825 1.64252e-05 -5.4153e-05)
(0.00246362 1.55661e-05 -4.86444e-05)
(0.00228686 1.88529e-05 -6.64408e-05)
(0.00232726 2.03899e-05 -6.76754e-05)
(0.0023919 2.20207e-05 -6.80486e-05)
(0.0023907 2.07631e-05 -6.40942e-05)
(0.0024168 1.99439e-05 -5.96424e-05)
(0.00239994 1.77725e-05 -5.35001e-05)
)
;

boundaryField
{
    inlet
    {
        type            zeroGradient;
    }
    outlet
    {
        type            zeroGradient;
    }
    wall
    {
        type            zeroGradient;
    }
    procBoundary2to0
    {
        type            processor;
        value           nonuniform List<vector> 
44
(
(0.00239327 -9.30121e-06 -8.44299e-05)
(0.00244308 -6.07441e-06 -7.95899e-05)
(0.00243776 -6.3565e-07 -7.09907e-05)
(0.00245589 6.27571e-06 -6.30707e-05)
(0.0024541 1.63281e-05 -5.45022e-05)
(0.00248923 2.93971e-05 -4.74107e-05)
(0.00230335 -4.03632e-06 -8.97866e-05)
(0.00232427 -3.53479e-06 -9.01287e-05)
(0.00236174 -2.50056e-06 -8.8744e-05)
(0.00236174 -2.50056e-06 -8.8744e-05)
(0.00244804 -1.45469e-06 -8.55178e-05)
(0.00251234 5.63688e-07 -8.1352e-05)
(0.00248563 -2.69469e-06 -7.07666e-05)
(0.00252585 3.53875e-06 -6.34458e-05)
(0.00248019 1.27086e-05 -5.35275e-05)
(0.00249362 2.35226e-05 -4.56701e-05)
(0.00236033 -4.37555e-06 -9.13173e-05)
(0.00238488 -4.05175e-06 -9.18901e-05)
(0.00244019 -3.27112e-06 -9.19499e-05)
(0.00244804 -1.45469e-06 -8.55178e-05)
(0.00251234 5.63688e-07 -8.1352e-05)
(0.00251234 5.63688e-07 -8.1352e-05)
(0.0024803 2.26416e-06 -6.48139e-05)
(0.00249936 5.15834e-06 -5.72744e-05)
(0.0024509 8.2459e-06 -4.85203e-05)
(0.00245443 1.61626e-05 -4.11791e-05)
(0.00237511 -4.61237e-06 -8.41884e-05)
(0.00240954 -4.46875e-06 -8.56805e-05)
(0.00246935 -3.89067e-06 -8.5718e-05)
(0.00246775 -2.18815e-06 -7.94081e-05)
(0.00250153 -4.61373e-07 -7.36608e-05)
(0.0024803 2.26416e-06 -6.48139e-05)
(0.00249936 5.15834e-06 -5.72744e-05)
(0.00249936 5.15834e-06 -5.72744e-05)
(0.00240691 7.19269e-06 -4.02733e-05)
(0.00240148 1.0274e-05 -3.41365e-05)
(0.00236132 -4.58955e-06 -7.04904e-05)
(0.00240612 -4.41893e-06 -7.17491e-05)
(0.00247238 -3.79833e-06 -7.16683e-05)
(0.00246225 -2.28439e-06 -6.64021e-05)
(0.00246507 -5.05416e-07 -6.04586e-05)
(0.0024526 1.61234e-06 -5.38128e-05)
(0.00246369 4.11962e-06 -4.75479e-05)
(0.00240691 7.19269e-06 -4.02733e-05)
)
;
    }
    procBoundary2to3
    {
        type            processor;
        value           nonuniform List<vector> 
12
(
(0.00249409 2.77164e-05 -3.97646e-05)
(0.00248293 1.99579e-05 -3.97252e-05)
(0.00248149 1.69766e-05 -4.04731e-05)
(0.00241855 1.43213e-05 -3.9932e-05)
(0.00249702 2.36702e-05 -3.86445e-05)
(0.00249472 1.82633e-05 -3.90161e-05)
(0.00252578 1.6235e-05 -4.1485e-05)
(0.00245983 1.36174e-05 -4.11067e-05)
(0.00245766 1.79077e-05 -3.47967e-05)
(0.00245698 1.50627e-05 -3.53627e-05)
(0.00246461 1.36591e-05 -3.74235e-05)
(0.00243538 1.22465e-05 -3.83296e-05)
)
;
    }
    procBoundary2to6
    {
        type            processor;
        value           nonuniform List<vector> 
32
(
(0.00243024 1.15881e-05 -3.51207e-05)
(0.0024264 1.37582e-05 -4.24148e-05)
(0.00244856 1.28958e-05 -3.72476e-05)
(0.00240802 1.60821e-05 -4.78831e-05)
(0.00239376 1.39632e-05 -4.25445e-05)
(0.00240423 1.20238e-05 -3.77618e-05)
(0.00238848 8.2135e-06 -5.57144e-05)
(0.00241327 8.54485e-06 -5.51778e-05)
(0.00243699 9.17896e-06 -5.3365e-05)
(0.00243292 8.95095e-06 -5.00391e-05)
(0.00246005 9.14727e-06 -4.64091e-05)
(0.00241997 8.6105e-06 -4.13877e-05)
(0.00243929 8.58925e-06 -3.68875e-05)
(0.00243024 1.15881e-05 -3.51207e-05)
(0.0024264 1.37582e-05 -4.24148e-05)
(0.00239594 8.48885e-06 -3.22645e-05)
(0.00235354 1.75082e-05 -5.49311e-05)
(0.00238923 1.86302e-05 -5.49034e-05)
(0.00242894 1.96341e-05 -5.36286e-05)
(0.00243149 1.82466e-05 -5.07158e-05)
(0.00245426 1.74854e-05 -4.73283e-05)
(0.00242855 1.53038e-05 -4.27644e-05)
(0.0024264 1.37582e-05 -4.24148e-05)
(0.00240802 1.60821e-05 -4.78831e-05)
(0.00244503 1.37972e-05 -3.83943e-05)
(0.0022977 1.95837e-05 -5.39847e-05)
(0.00233053 2.08361e-05 -5.42553e-05)
(0.00236109 2.10984e-05 -5.3124e-05)
(0.00237334 2.00766e-05 -5.06996e-05)
(0.00241367 1.94688e-05 -4.74727e-05)
(0.00240802 1.60821e-05 -4.78831e-05)
(0.00240612 1.74228e-05 -4.35211e-05)
)
;
    }
}


// ************************************************************************* //
