/*--------------------------------*- C++ -*----------------------------------*\
| =========                 |                                                 |
| \\      /  F ield         | OpenFOAM: The Open Source CFD Toolbox           |
|  \\    /   O peration     | Version:  4.x                                   |
|   \\  /    A nd           | Web:      www.OpenFOAM.org                      |
|    \\/     M anipulation  |                                                 |
\*---------------------------------------------------------------------------*/
FoamFile
{
    version     2.0;
    format      ascii;
    class       volScalarField;
    location    "47";
    object      KslPrev;
}
// * * * * * * * * * * * * * * * * * * * * * * * * * * * * * * * * * * * * * //

dimensions      [1 -3 -1 0 0 0 0];

internalField   nonuniform List<scalar> 
114
(
6252.25
3143.16
5503.37
3028.52
5060.98
2874.75
3394.78
8096.58
3327.85
6998.6
3279.35
6451.97
3213.88
6229.23
3129.76
3348.25
7536.79
3225.8
6177.73
3136.71
5508.01
3031.76
5132.54
2913.8
3291.75
6771.11
3091.72
5287.91
2909.46
4513.53
2739.7
4074.35
2635.63
12819
3678.96
14685.9
3556.07
3435.2
9978.18
3587.43
12015.4
3690.63
15531.2
3741.62
23659.1
3713.67
3410.72
9091.29
3516.05
9456.18
3525.91
9765
3508.34
10323.1
3420.24
3332.88
7574.48
3291.9
6550.66
3165.36
5909.28
3076.29
5533.94
2966.18
23477.7
3654.21
3497.01
10799.3
3717.73
16143.4
3841.28
30373
3909.7
151188
3931.34
3440.76
10008.2
3638.76
12918.5
3727.25
17638.6
3774.54
30626.3
3753.19
3366.32
8197.59
3391.72
7690.82
3324.86
7250.71
3325.47
7227.98
3261.83
3504.35
11540.8
3751.8
17744.3
3823.2
29933.4
3828.54
76076.4
3461.56
9705.54
3631.91
11192
3648.31
12254.8
3588.76
3357.95
7955.63
3386.59
7467.99
3328.69
6993.91
)
;

boundaryField
{
    inlet
    {
        type            zeroGradient;
    }
    outlet
    {
        type            zeroGradient;
    }
    wall
    {
        type            zeroGradient;
    }
    procBoundary2to0
    {
        type            processor;
        value           uniform 0;
    }
    procBoundary2to3
    {
        type            processor;
        value           uniform 0;
    }
    procBoundary2to6
    {
        type            processor;
        value           uniform 0;
    }
}


// ************************************************************************* //
