/*--------------------------------*- C++ -*----------------------------------*\
| =========                 |                                                 |
| \\      /  F ield         | OpenFOAM: The Open Source CFD Toolbox           |
|  \\    /   O peration     | Version:  4.x                                   |
|   \\  /    A nd           | Web:      www.OpenFOAM.org                      |
|    \\/     M anipulation  |                                                 |
\*---------------------------------------------------------------------------*/
FoamFile
{
    version     2.0;
    format      ascii;
    class       volScalarField;
    location    "37.5";
    object      KslNext;
}
// * * * * * * * * * * * * * * * * * * * * * * * * * * * * * * * * * * * * * //

dimensions      [1 -3 -1 0 0 0 0];

internalField   nonuniform List<scalar> 
87
(
3837.18
15532.8
3572.03
3249.12
6834.8
3171.73
3573.64
12252.3
3839.18
24562.6
3954.74
89558.6
3979.84
1e+10
3956.37
3485.54
10668.6
3678.17
15140.1
3770.81
23758.3
3802.13
52101.2
3798.55
3371.46
8085.09
3386.9
7848.03
3409.35
8036.6
3382.44
8170.28
3355.96
3514.61
10659.1
3704.45
15234.3
3754.51
24193.2
3786.76
51602.2
3756.36
3438.1
9101.01
3561.64
10028
3591.18
11119.5
3617.12
13064.8
3577.96
3358.3
7543
3299.96
6947.69
3266.84
6657.53
3226.5
6520.86
3167.38
3425.71
8102.52
3457.05
8149.68
3417.48
8243.76
3410.58
8654.2
3330.62
3368.75
7540.77
3340.03
7020.25
3285.3
6726.28
3251.16
6653.46
3174.08
3315.21
6958.38
3195.7
6000.18
3061.69
5458.85
3006.59
5195.63
2948.75
)
;

boundaryField
{
    inlet
    {
        type            zeroGradient;
    }
    outlet
    {
        type            zeroGradient;
    }
    wall
    {
        type            zeroGradient;
    }
    procBoundary6to0
    {
        type            processor;
        value           uniform 0;
    }
    procBoundary6to2
    {
        type            processor;
        value           uniform 0;
    }
    procBoundary6to4
    {
        type            processor;
        value           uniform 0;
    }
    procBoundary6to7
    {
        type            processor;
        value           uniform 0;
    }
}


// ************************************************************************* //
