/*--------------------------------*- C++ -*----------------------------------*\
| =========                 |                                                 |
| \\      /  F ield         | OpenFOAM: The Open Source CFD Toolbox           |
|  \\    /   O peration     | Version:  4.x                                   |
|   \\  /    A nd           | Web:      www.OpenFOAM.org                      |
|    \\/     M anipulation  |                                                 |
\*---------------------------------------------------------------------------*/
FoamFile
{
    version     2.0;
    format      ascii;
    class       volScalarField;
    location    "37.5";
    object      particleRelTemp;
}
// * * * * * * * * * * * * * * * * * * * * * * * * * * * * * * * * * * * * * //

dimensions      [0 0 0 0 0 0 0];

internalField   nonuniform List<scalar> 
87
(
4.4197e-11
-7.77074e-11
-4.15252e-13
-1.62795e-10
-1.11601e-10
-6.9656e-11
-3.32602e-10
-3.08052e-10
-2.72095e-10
-2.27041e-10
-1.78165e-10
-1.28945e-10
-8.60929e-11
-3.01079e-11
4.29815e-11
-3.34129e-10
-3.17356e-10
-2.87537e-10
-2.47343e-10
-2.1074e-10
-1.65683e-10
-1.12323e-10
-7.86323e-11
-1.20336e-11
-3.40365e-10
-3.21443e-10
-3.0025e-10
-2.62599e-10
-2.34514e-10
-1.91049e-10
-1.56127e-10
-1.22467e-10
-6.03185e-11
-3.36521e-10
-3.11958e-10
-2.85145e-10
-2.46731e-10
-2.06205e-10
-1.59715e-10
-1.12493e-10
-6.02078e-11
-5.22223e-12
-3.3841e-10
-3.19851e-10
-2.97542e-10
-2.61466e-10
-2.32545e-10
-1.85001e-10
-1.44707e-10
-1.13123e-10
-4.39822e-11
-3.415e-10
-3.25146e-10
-3.02534e-10
-2.7968e-10
-2.46961e-10
-2.18909e-10
-1.88378e-10
-1.50006e-10
-1.09478e-10
-3.38661e-10
-3.21863e-10
-2.9583e-10
-2.62977e-10
-2.30467e-10
-1.80529e-10
-1.39207e-10
-9.86547e-11
-7.77941e-11
-3.39728e-10
-3.28011e-10
-3.06353e-10
-2.78947e-10
-2.45942e-10
-2.10016e-10
-1.74188e-10
-1.39801e-10
-9.95458e-11
-3.44911e-10
-3.27857e-10
-3.12866e-10
-2.91507e-10
-2.69661e-10
-2.3541e-10
-2.20467e-10
-1.98274e-10
-1.50419e-10
)
;

boundaryField
{
    inlet
    {
        type            calculated;
        value           nonuniform List<scalar> 9(-3.32602e-10 -3.34129e-10 -3.40365e-10 -3.36521e-10 -3.3841e-10 -3.415e-10 -3.38661e-10 -3.39728e-10 -3.44911e-10);
    }
    outlet
    {
        type            calculated;
        value           nonuniform 0();
    }
    wall
    {
        type            calculated;
        value           nonuniform List<scalar> 
57
(
-3.38661e-10
-3.39728e-10
-3.44911e-10
-3.21863e-10
-3.28011e-10
-3.27857e-10
-2.9583e-10
-3.06353e-10
-3.12866e-10
-2.62977e-10
-2.78947e-10
-2.91507e-10
-2.30467e-10
-2.45942e-10
-2.69661e-10
-1.80529e-10
-2.10016e-10
-2.3541e-10
-1.39207e-10
-1.74188e-10
-2.20467e-10
-9.86547e-11
-1.39801e-10
-1.98274e-10
-7.77941e-11
-9.95458e-11
-1.50419e-10
-3.40365e-10
-3.415e-10
-3.44911e-10
-3.21443e-10
-3.25146e-10
-3.27857e-10
-3.0025e-10
-3.02534e-10
-3.12866e-10
-2.62599e-10
-2.7968e-10
-2.91507e-10
-2.34514e-10
-2.46961e-10
-2.69661e-10
-1.91049e-10
-2.18909e-10
-2.3541e-10
-1.62795e-10
-1.56127e-10
-1.88378e-10
-2.20467e-10
-1.11601e-10
-1.22467e-10
-1.50006e-10
-1.98274e-10
-6.9656e-11
-6.03185e-11
-1.09478e-10
-1.50419e-10
)
;
    }
    procBoundary6to0
    {
        type            processor;
        value           uniform 6.0515e-11;
    }
    procBoundary6to2
    {
        type            processor;
        value           nonuniform List<scalar> 
32
(
-1.15649e-12
-8.75445e-11
-3.25902e-11
-1.72388e-10
-1.3764e-10
-9.39749e-11
-3.33937e-10
-3.0435e-10
-2.7258e-10
-2.37536e-10
-1.90861e-10
-1.3131e-10
-7.2695e-11
7.87378e-12
7.87378e-12
7.87378e-12
-3.39251e-10
-3.1366e-10
-2.89496e-10
-2.49275e-10
-2.08115e-10
-1.60807e-10
-1.3008e-10
-1.3008e-10
-1.3008e-10
-3.41919e-10
-3.22064e-10
-2.95411e-10
-2.67928e-10
-2.34081e-10
-1.91567e-10
-1.91567e-10
)
;
    }
    procBoundary6to4
    {
        type            processor;
        value           nonuniform List<scalar> 
27
(
-3.35529e-10
-3.11388e-10
-2.73234e-10
-2.34545e-10
-1.7586e-10
-1.22396e-10
-5.51042e-11
1.95314e-12
5.93607e-11
-3.36298e-10
-3.16031e-10
-2.8059e-10
-2.49353e-10
-1.98394e-10
-1.44327e-10
-9.56217e-11
-3.69536e-11
1.5196e-11
-3.36892e-10
-3.1899e-10
-2.93281e-10
-2.56161e-10
-2.20841e-10
-1.77798e-10
-1.29408e-10
-7.85038e-11
-4.03182e-11
)
;
    }
    procBoundary6to7
    {
        type            processor;
        value           nonuniform List<scalar> 
12
(
1.14886e-10
6.86885e-11
6.15901e-12
1.19727e-10
6.294e-11
-5.64577e-12
4.54272e-11
-7.47007e-13
-6.5603e-11
-8.70298e-12
-6.15527e-11
-1.20553e-10
)
;
    }
}


// ************************************************************************* //
