/*--------------------------------*- C++ -*----------------------------------*\
| =========                 |                                                 |
| \\      /  F ield         | OpenFOAM: The Open Source CFD Toolbox           |
|  \\    /   O peration     | Version:  4.x                                   |
|   \\  /    A nd           | Web:      www.OpenFOAM.org                      |
|    \\/     M anipulation  |                                                 |
\*---------------------------------------------------------------------------*/
FoamFile
{
    version     2.0;
    format      ascii;
    class       volScalarField;
    location    "32.5";
    object      KslNext;
}
// * * * * * * * * * * * * * * * * * * * * * * * * * * * * * * * * * * * * * //

dimensions      [1 -3 -1 0 0 0 0];

internalField   nonuniform List<scalar> 
114
(
3418.37
15676.1
3770.83
44404.3
4832.94
28892.8
131522
3692.32
1e+10
3755.28
2.29195e+06
4017.44
33418.1
4052.64
1e+10
4073.11
1e+10
4128.79
80241.2
4389.06
11011.5
7341.12
3075.76
7601.99
2936.2
8130.66
2756.62
9366.23
2392.17
7703.09
40787.1
3560.92
123100
3510.16
117604
3495.47
22770.3
3597.73
6045.58
1e+10
3695.2
1e+10
3626.9
6.27589e+09
3544.32
63180.1
3691.95
15023.6
1e+10
3807.71
7427.55
3177.21
7782.77
3096.21
8504.17
3046.85
10768.1
3068.54
18049.6
14746.3
3454.66
16878.7
3321.38
19034.2
3190.71
18289.2
2932.26
11202.5
59791.9
3657.34
1.02668e+09
3680.29
4.20507e+08
3830.77
31185
4115.25
7412.32
47317.1
3592.9
56790.2
3487.79
4889.48
2737.78
4666.18
2549.74
4623.05
2281.21
4884.7
1810.4
5677.14
6172.92
2983.67
6096.81
2812.09
6325.33
2616.52
7426.18
2363.36
10594.4
7779.92
3152.86
8113.91
3015.08
8222.48
2808.33
8386.08
2372.42
8503.28
7730.14
3123.11
8151.88
3007.05
8745.03
2788.53
)
;

boundaryField
{
    inlet
    {
        type            zeroGradient;
    }
    outlet
    {
        type            zeroGradient;
    }
    wall
    {
        type            zeroGradient;
    }
    procBoundary5to1
    {
        type            processor;
        value           uniform 0;
    }
    procBoundary5to4
    {
        type            processor;
        value           uniform 0;
    }
    procBoundary5to7
    {
        type            processor;
        value           uniform 0;
    }
}


// ************************************************************************* //
