/*--------------------------------*- C++ -*----------------------------------*\
| =========                 |                                                 |
| \\      /  F ield         | OpenFOAM: The Open Source CFD Toolbox           |
|  \\    /   O peration     | Version:  4.x                                   |
|   \\  /    A nd           | Web:      www.OpenFOAM.org                      |
|    \\/     M anipulation  |                                                 |
\*---------------------------------------------------------------------------*/
FoamFile
{
    version     2.0;
    format      ascii;
    class       volVectorField;
    location    "25.5";
    object      DDtUrel;
}
// * * * * * * * * * * * * * * * * * * * * * * * * * * * * * * * * * * * * * //

dimensions      [0 1 -2 0 0 0 0];

internalField   nonuniform List<vector> 
132
(
(0.000517824 3.82543e-05 4.35175e-05)
(0.00066638 -8.78475e-06 -3.39285e-05)
(-0.00026042 -5.52217e-05 -3.84285e-05)
(-0.000551166 -2.49477e-05 -3.84025e-05)
(-0.000490489 -1.04886e-05 -3.53016e-05)
(-0.000620857 -6.67008e-06 -8.54238e-05)
(-0.00101869 -1.69345e-05 -0.000178772)
(-0.00152392 2.7511e-05 -0.000373217)
(-0.00190559 7.68585e-05 -0.000488473)
(0.000401916 3.62106e-05 9.32493e-06)
(0.000354525 -5.04158e-05 -6.14207e-05)
(-5.05973e-05 -0.000101918 -7.83579e-05)
(-0.00027607 -3.36601e-05 -5.23202e-05)
(-0.000404066 1.96343e-05 -5.49502e-05)
(-0.000615257 6.56164e-05 -0.000107036)
(-0.000954035 0.00010418 -0.000173301)
(-0.00145113 0.000313641 -0.000406035)
(-0.00196203 0.000546109 -0.000584449)
(0.000343821 6.35657e-06 8.9222e-06)
(0.000268825 -5.14149e-05 -4.96652e-05)
(6.47118e-05 -7.45996e-05 -6.64875e-05)
(-0.00011591 -2.46386e-05 -5.79582e-05)
(-0.000276129 2.91097e-05 -8.25331e-05)
(-0.000543357 0.000148385 -0.000121445)
(-0.000869602 0.000242026 -0.000163094)
(-0.00154771 0.000627699 -0.000424092)
(-0.00223667 0.00096181 -0.000667377)
(0.000351072 9.42791e-06 -4.98339e-06)
(0.000284827 -4.11593e-05 -4.03214e-05)
(0.000161023 -8.95001e-05 -5.45649e-05)
(-3.45313e-05 -2.36053e-05 -6.64921e-05)
(-0.000138595 2.92043e-05 -7.32628e-05)
(-0.000487038 0.000180476 -0.000144025)
(-0.000708742 0.000293144 -0.000166965)
(-0.00171984 0.000733949 -0.000437306)
(-0.0028705 0.00109988 -0.000779037)
(-0.000153875 -3.13029e-05 -0.000104223)
(-0.000167094 -3.02766e-05 -9.353e-05)
(-0.000334137 -2.91724e-05 -4.49623e-05)
(-0.000548325 -6.35676e-05 -4.62732e-05)
(-0.000967375 -0.000113471 -6.4594e-05)
(-0.00138132 -9.80954e-05 -0.00010894)
(-0.00178027 -9.04599e-05 -0.000126582)
(0.000214885 6.07809e-07 -5.88118e-06)
(0.00016233 -2.94336e-05 -4.33466e-05)
(-2.71241e-05 -4.48988e-05 -6.52808e-05)
(-0.000136113 -2.1211e-05 -6.21304e-05)
(-0.000315384 5.69774e-07 -5.97354e-05)
(-0.000572522 3.42068e-05 -6.97874e-05)
(-0.000886713 0.000102739 -9.99869e-05)
(-0.00129597 0.000203644 -0.000164764)
(-0.00176181 0.000323146 -0.000210617)
(0.000223213 1.17719e-05 -2.5709e-06)
(0.00017615 -1.85207e-05 -3.68591e-05)
(1.59577e-05 -4.58504e-05 -6.03599e-05)
(-9.6006e-05 -1.24997e-05 -5.90132e-05)
(-0.000254363 2.15089e-05 -6.51771e-05)
(-0.000463803 0.000102542 -8.06266e-05)
(-0.000819456 0.000225463 -0.000111553)
(-0.0014099 0.000488652 -0.000168689)
(-0.00188796 0.000736335 -0.000210574)
(0.000238511 2.25871e-05 -9.6493e-06)
(0.00021092 -2.88457e-05 -3.79732e-05)
(7.84892e-05 -9.4063e-05 -5.15739e-05)
(-6.12225e-05 -2.06364e-05 -6.05426e-05)
(-0.000200863 3.28801e-05 -6.20463e-05)
(-0.000460287 0.000137556 -8.45389e-05)
(-0.00074289 0.000259965 -0.000104322)
(-0.00149089 0.000595939 -0.000140371)
(-0.00225919 0.000908622 -0.000211516)
(-0.000276699 -4.06146e-05 -3.76328e-05)
(-0.000477634 -6.9834e-05 -2.08037e-05)
(-0.00083598 -0.000124885 -4.48499e-06)
(-0.00133098 -0.000193172 8.74313e-05)
(-0.00173393 -0.000259133 0.000163427)
(0.000142895 1.4717e-05 2.20824e-07)
(0.000115241 -1.69248e-05 -3.96898e-05)
(-2.83819e-07 -4.85006e-05 -7.66304e-05)
(-0.000112032 -1.79907e-05 -6.6759e-05)
(-0.000261815 -5.96054e-06 -8.78082e-05)
(-0.000481982 2.33419e-05 -5.29802e-05)
(-0.000799449 4.06176e-05 -3.87022e-05)
(-0.00125901 0.00022141 2.81451e-06)
(-0.00175852 0.000429285 8.8519e-05)
(0.000183674 2.064e-06 3.7267e-06)
(0.000156642 -1.79638e-05 -4.55449e-05)
(4.65055e-05 -3.00052e-05 -0.000103049)
(-7.06794e-05 4.04915e-06 -7.18648e-05)
(-0.000184552 2.61433e-05 -8.07654e-05)
(-0.000410052 0.000121581 -6.40592e-05)
(-0.000663856 0.000197295 -9.07025e-05)
(-0.00135061 0.000583122 -5.47104e-06)
(-0.00203383 0.000910105 0.000123085)
(0.000220476 3.3072e-06 -1.22096e-05)
(0.00018898 -1.92446e-05 -4.33449e-05)
(0.000113873 -4.27084e-05 -7.69835e-05)
(-1.73291e-05 5.44114e-06 -6.68048e-05)
(-7.66399e-05 3.56123e-05 -8.26277e-05)
(-0.000343628 0.000156119 -7.30062e-05)
(-0.000425736 0.000243543 -8.70316e-05)
(-0.0014784 0.000697321 -9.07003e-06)
(-0.00270462 0.00104447 0.000112123)
(-0.000770686 -0.000165958 -2.73323e-05)
(-0.00127999 -0.000286881 7.58012e-05)
(-0.00182199 -0.000443696 0.000172947)
(0.000137092 -2.08459e-06 -1.69287e-05)
(0.000113129 -2.22603e-05 -4.47998e-05)
(-1.33404e-06 -3.51215e-05 -5.73704e-05)
(-0.00011926 -1.66975e-05 -5.59166e-05)
(-0.000279827 -1.476e-05 -4.52408e-05)
(-0.000494129 6.82674e-06 -5.56662e-05)
(-0.000805852 2.15395e-05 -4.2132e-05)
(-0.00122095 8.3765e-05 -3.02816e-05)
(-0.00174576 0.000150697 -2.49071e-05)
(0.000169188 -3.18407e-07 -2.49169e-05)
(0.000155397 -1.03733e-05 -6.19971e-05)
(3.72787e-05 -1.82186e-05 -6.72625e-05)
(-9.08489e-05 6.34519e-06 -7.53957e-05)
(-0.000230122 2.81148e-05 -6.56784e-05)
(-0.000450249 0.000100822 -9.60524e-05)
(-0.000742533 0.000168893 -9.44507e-05)
(-0.00128211 0.000361466 -0.000145167)
(-0.00192452 0.000532118 -0.000224062)
(0.000202383 1.79018e-06 -3.14574e-05)
(0.000175257 -1.03265e-05 -5.9564e-05)
(8.42708e-05 -2.66916e-05 -6.42254e-05)
(-3.81096e-05 1.20918e-05 -8.85989e-05)
(-0.000152998 4.40075e-05 -7.50244e-05)
(-0.000390554 0.00014163 -0.000143624)
(-0.000664708 0.000235456 -0.000123537)
(-0.00135619 0.00049018 -0.000358634)
(-0.00222609 0.000723412 -0.000511188)
)
;

boundaryField
{
    inlet
    {
        type            calculated;
        value           nonuniform 0();
    }
    outlet
    {
        type            calculated;
        value           nonuniform List<vector> 
16
(
(-0.00243166 0.000845234 -0.000489728)
(-0.00259566 0.00229561 -0.0011641)
(-0.00372791 0.00361286 -0.00158088)
(-0.00999607 0.00261858 -0.00192396)
(-0.00262643 0.000258998 -0.00042256)
(-0.00222534 -0.000296692 -0.000387715)
(-0.00117155 0.00105458 3.42408e-05)
(-0.00264917 0.0014484 0.000302069)
(-0.00190312 -0.000244172 0.000523995)
(-0.00263753 0.00291642 0.00129447)
(-0.00381858 0.00472038 0.00276408)
(-0.0115614 0.00397961 0.00337111)
(-0.00320515 -0.00100432 0.000653077)
(-0.00262527 0.000167159 -0.000350424)
(-0.00329498 0.000510149 -0.00127338)
(-0.00450398 0.00108169 -0.00379334)
)
;
    }
    wall
    {
        type            calculated;
        value           nonuniform List<vector> 
66
(
(-8.05135e-07 5.00334e-05 -2.74346e-05)
(0.000139682 3.11493e-05 -1.01957e-05)
(0.000310794 5.10626e-05 -4.11925e-05)
(0.000173089 -8.68003e-05 -6.62595e-05)
(0.000557634 4.23543e-05 -0.000275991)
(0.000401111 3.10566e-05 -0.000177412)
(-6.79854e-05 -0.000172038 5.12848e-05)
(1.62324e-05 -9.59993e-06 1.21973e-05)
(0.00024017 -0.000182487 4.76938e-05)
(-7.3268e-05 3.39166e-05 -1.881e-05)
(-0.000190918 7.54355e-05 -0.000163692)
(3.47747e-05 7.27915e-05 -0.000318607)
(-0.000347222 -0.000137506 0.000123844)
(-0.000190416 -4.79234e-05 7.65576e-05)
(0.000246712 -9.42233e-05 0.000185412)
(-0.000404933 4.78592e-05 -0.000136559)
(-0.000387976 0.000214764 -0.000275974)
(-0.000233598 0.000233831 -0.000793422)
(0.000124099 -6.49644e-05 -0.000711535)
(-0.000792002 -6.84262e-05 6.79023e-05)
(-0.000227394 -7.37802e-05 -8.20405e-06)
(0.000194505 -0.000106875 0.000502123)
(-0.000734462 -0.000269291 3.37315e-05)
(-0.000378688 -6.81236e-05 -8.44789e-05)
(-0.000699883 0.000210149 -0.000179725)
(-0.000629985 0.000320187 -0.00235045)
(-0.00320515 -0.00100432 0.000653077)
(-0.00262527 0.000167159 -0.000350424)
(-0.00329498 0.000510149 -0.00127338)
(-0.00450398 0.00108169 -0.00379334)
(0.000729956 5.84702e-05 2.21199e-05)
(0.000125066 0.000362271 2.30256e-05)
(0.000457415 3.18171e-05 7.94049e-05)
(0.000310794 5.10626e-05 -4.11925e-05)
(0.000393506 6.98791e-05 -0.000192712)
(0.000497412 -7.01674e-06 -6.54514e-05)
(0.000402014 -1.85569e-05 4.64405e-06)
(0.000401111 3.10566e-05 -0.000177412)
(0.000880207 -0.00023864 -0.000201951)
(-6.63316e-05 -0.000862138 4.68619e-05)
(0.000699556 -0.000205089 -0.000255998)
(0.00024017 -0.000182487 4.76938e-05)
(4.30541e-06 0.000114784 -0.000231792)
(-0.000170752 -5.20655e-05 -5.18149e-05)
(0.000110851 0.000127396 8.03763e-05)
(3.47747e-05 7.27915e-05 -0.000318607)
(0.00137973 -0.000243837 8.54168e-05)
(-0.00021856 -9.51368e-05 0.000113003)
(0.00153904 -0.000245303 -0.000257018)
(0.000246712 -9.42233e-05 0.000185412)
(-0.000479633 0.000451469 -0.000408933)
(-0.000650025 -1.57474e-06 4.15545e-05)
(-0.000237631 0.000470657 0.000227974)
(-0.000233598 0.000233831 -0.000793422)
(0.00279203 -0.000794872 0.00101867)
(-7.50132e-05 -0.000377193 0.000109681)
(0.00515124 -0.000827857 -0.000209834)
(0.000194505 -0.000106875 0.000502123)
(-0.00202878 0.00146013 9.89454e-05)
(-0.00100867 0.000266809 0.000567027)
(-0.00164453 0.00233749 0.00131261)
(-0.000629985 0.000320187 -0.00235045)
(-0.00999607 0.00261858 -0.00192396)
(-0.00264917 0.0014484 0.000302069)
(-0.0115614 0.00397961 0.00337111)
(-0.00450398 0.00108169 -0.00379334)
)
;
    }
    procBoundary7to0
    {
        type            processor;
        value           uniform (0.000426055 3.05977e-05 5.03241e-05);
    }
    procBoundary7to1
    {
        type            processor;
        value           uniform (0.000339177 7.74532e-06 -6.86904e-05);
    }
    procBoundary7to3
    {
        type            processor;
        value           nonuniform List<vector> 
36
(
(0.000931596 6.80246e-05 3.62986e-05)
(0.00207891 -0.000100765 -6.55659e-06)
(-0.000260026 -0.000173817 -2.50917e-05)
(-0.00162826 -2.36424e-05 -3.93011e-05)
(-0.000676535 -2.43618e-06 -3.8482e-05)
(-0.000788984 1.06815e-05 -0.000132502)
(-0.00102104 2.21144e-05 -0.000274823)
(-0.00167794 7.15041e-05 -0.000659777)
(-0.0021407 0.000137686 -0.000950491)
(0.000589696 4.81145e-05 1.39074e-05)
(0.000754195 -4.54698e-05 4.03176e-07)
(-6.33912e-05 -6.86137e-05 6.16612e-06)
(-0.00045672 -2.53936e-05 -1.04192e-05)
(-0.000462184 2.93118e-05 -3.59469e-05)
(-0.000750149 9.26311e-05 -0.0001601)
(-0.00100349 0.000141508 -0.000294759)
(-0.00160878 0.000326086 -0.00067184)
(-0.00227654 0.000497496 -0.000970941)
(0.000479529 7.0955e-06 2.30825e-06)
(0.000393149 -7.96591e-05 -1.52524e-05)
(1.92292e-05 -0.000123161 7.3574e-06)
(-8.72392e-05 -7.41803e-05 -1.23408e-05)
(-0.000293787 3.1417e-05 -4.76035e-05)
(-0.000696167 0.000169444 -0.000173133)
(-0.000977835 0.00030901 -0.000332815)
(-0.00168777 0.000638923 -0.000701332)
(-0.00246762 0.000952761 -0.00105458)
(0.000449156 3.33758e-05 2.26261e-06)
(0.000400235 -8.19812e-05 -5.70516e-06)
(0.00018184 -0.000171674 3.05776e-07)
(-3.54851e-05 -5.69756e-05 -3.21505e-05)
(-0.000175125 1.06018e-05 -5.91888e-05)
(-0.000593709 0.000207563 -0.000190191)
(-0.000822021 0.000385758 -0.00035887)
(-0.00187218 0.000820356 -0.000846967)
(-0.003007 0.00131993 -0.00144594)
)
;
    }
    procBoundary7to5
    {
        type            processor;
        value           nonuniform List<vector> 
44
(
(0.000366375 -4.56651e-05 -5.33279e-05)
(-9.38761e-05 -9.55231e-06 -1.84655e-05)
(-0.000341338 -1.04837e-05 -1.71642e-05)
(-0.000399354 -3.01648e-05 -1.93534e-05)
(-0.000507941 -6.99809e-05 -5.79842e-05)
(-0.000964947 -0.0001586 -0.000132582)
(-0.00160811 -0.000361081 -0.000301338)
(-0.00197366 -0.000484437 -0.000413506)
(0.000295988 -4.61755e-06 -7.11289e-06)
(0.000179969 -3.14148e-05 -7.36942e-05)
(-7.36267e-05 -1.23035e-05 -5.32192e-05)
(-0.000179754 -2.56122e-05 -2.89961e-05)
(-0.000278981 -5.36396e-05 -1.25602e-05)
(-0.00020873 -6.93372e-05 -1.05049e-05)
(-0.00088392 -0.00019536 2.19888e-05)
(-0.00171457 -0.00046699 5.41622e-05)
(-0.00186544 -0.000608782 0.000107065)
(0.000295988 -4.61755e-06 -7.11289e-06)
(0.000179969 -3.14148e-05 -7.36942e-05)
(0.000179969 -3.14148e-05 -7.36942e-05)
(-4.02082e-05 -2.35738e-05 -7.74177e-05)
(-0.000117608 -3.08432e-05 -5.28449e-05)
(-0.000184545 -8.08271e-05 9.00902e-06)
(-0.000368058 -0.000179993 1.64994e-05)
(-0.000788402 -0.000275902 -3.39665e-06)
(-0.00146649 -0.000629503 0.000220841)
(-0.00194574 -0.00100617 0.000481187)
(0.000153064 -7.39158e-06 -1.41445e-05)
(0.000129789 -1.80681e-05 -4.47134e-05)
(-4.02082e-05 -2.35738e-05 -7.74177e-05)
(-0.000117608 -3.08432e-05 -5.28449e-05)
(-0.000117608 -3.08432e-05 -5.28449e-05)
(-0.00026834 -4.69866e-05 -1.5011e-05)
(-0.00047739 -0.000109745 -1.65023e-05)
(-0.000735008 -0.000359237 6.7834e-05)
(-0.00143188 -0.000719369 0.000190265)
(-0.00210905 -0.00120554 0.000326228)
(0.000158107 -1.59309e-05 6.47149e-06)
(0.000145322 -2.62045e-05 -4.19133e-05)
(-1.5666e-05 -2.7314e-05 -7.84672e-05)
(-0.000124991 -3.77356e-05 -4.7481e-05)
(-0.00026834 -4.69866e-05 -1.5011e-05)
(-0.00047739 -0.000109745 -1.65023e-05)
(-0.00047739 -0.000109745 -1.65023e-05)
)
;
    }
    procBoundary7to6
    {
        type            processor;
        value           nonuniform List<vector> 
12
(
(0.00034068 2.69074e-05 2.53305e-05)
(0.000307477 9.21966e-06 1.55892e-05)
(0.000319832 1.21823e-05 6.85618e-06)
(0.000161769 -1.6651e-06 -3.64531e-06)
(0.000209459 -7.19352e-07 5.44211e-06)
(0.000226957 9.92363e-06 1.69049e-07)
(0.000151276 3.19228e-07 -9.82057e-06)
(0.000179946 -4.96341e-07 -3.03959e-06)
(0.000214169 1.52968e-06 -8.5286e-06)
(0.000146244 -3.12773e-06 -1.7448e-05)
(0.000177332 -2.4591e-06 -2.10798e-05)
(0.000209899 -6.01747e-07 -2.49863e-05)
)
;
    }
}


// ************************************************************************* //
