/*--------------------------------*- C++ -*----------------------------------*\
| =========                 |                                                 |
| \\      /  F ield         | OpenFOAM: The Open Source CFD Toolbox           |
|  \\    /   O peration     | Version:  4.x                                   |
|   \\  /    A nd           | Web:      www.OpenFOAM.org                      |
|    \\/     M anipulation  |                                                 |
\*---------------------------------------------------------------------------*/
FoamFile
{
    version     2.0;
    format      ascii;
    class       volScalarField;
    location    "25.5";
    object      Ksl;
}
// * * * * * * * * * * * * * * * * * * * * * * * * * * * * * * * * * * * * * //

dimensions      [1 -3 -1 0 0 0 0];

internalField   nonuniform List<scalar> 
132
(
13161.5
3114.34
4315.9
2994.13
6746.93
3239.26
6181.14
4183.28
24422.9
23950.7
3208.41
16477.3
3391.33
36641.6
3626.41
24002.7
3735.61
8860.26
16767.3
3400.89
10848.3
3225.22
12947
3169.15
11402.7
2864.52
6594.37
6261.42
2959.68
5723.24
2738.29
5691.72
2533.88
6283.76
2198.73
11511.4
127804
3794.17
7100
3547.31
1e+10
5891.73
17824.1
54947.6
3667.86
20926.3
3765.98
8541.19
3616.07
2.06741e+06
4125.75
32976.3
309161
3645.26
104541
4169.24
60315.3
4544.76
12657
5343.07
28366.2
9197.92
3356.49
7219.01
3371.91
7970
3481.57
14622
3262.61
13877.4
13056.2
3485.77
10812.1
3916.42
16782.3
41688.8
3617.84
94685.8
3577.5
119982
3472.1
32142.5
3565.01
9110.79
14685.9
3414.71
10915.7
3301.66
11038.6
3030.04
9411.86
2527.87
4784.75
6056.38
2977.58
5591.18
2796
5409.61
2495.77
5580.4
1915.31
7212.84
9764.92
3089.87
14507.2
9123.71
3329.6
8228.68
3329.17
8489.74
3396.47
13700.8
3741.38
29879.8
6971.7
3152.14
5936.42
3102.78
6272.15
3052.51
7336.7
2939.14
13430.9
4942.23
2847.75
4689.05
2797.88
4627.24
2669.16
4567.01
2604.5
4179.2
)
;

boundaryField
{
    inlet
    {
        type            zeroGradient;
    }
    outlet
    {
        type            zeroGradient;
    }
    wall
    {
        type            zeroGradient;
    }
    procBoundary7to0
    {
        type            processor;
        value           uniform 3646.08;
    }
    procBoundary7to1
    {
        type            processor;
        value           uniform 608842;
    }
    procBoundary7to3
    {
        type            processor;
        value           nonuniform List<scalar> 
36
(
11145.7
4511.21
1872.58
5995.44
5430.58
4242.44
6877.08
3557.54
10556.6
11618.7
3563.74
5107.42
3291.98
7219.2
3474.8
656230
3205.68
18679.3
114887
3096.37
1e+10
4535.46
8005.64
3870.07
1e+10
4205.99
17295.8
7450.6
3049.1
5023.47
2957.84
5324.63
2833.36
8577.35
2480.01
9873.32
)
;
    }
    procBoundary7to5
    {
        type            processor;
        value           nonuniform List<scalar> 
44
(
3624.64
5340.01
3493.15
6842.83
3624.56
5363.09
3661.4
11314.1
34653.6
2800.58
15027.6
4186.04
10981.2
6886.36
3207.21
5812.69
27217
34653.6
2800.58
2800.58
29212.6
3626
14025.6
3333.46
11693.8
3182.9
6798.5
95837.8
3511.41
29212.6
3626
3626
7054.77
3261.92
6660.64
2715.26
9951.48
8985.75
3224.59
6325.54
3215.08
7054.77
3261.92
3261.92
)
;
    }
    procBoundary7to6
    {
        type            processor;
        value           nonuniform List<scalar> 
12
(
3400.45
3528.91
3087.5
3672.93
3731.82
3372.06
3683.97
3541.98
3119.62
3346.02
3213.83
2940.92
)
;
    }
}


// ************************************************************************* //
