/*--------------------------------*- C++ -*----------------------------------*\
| =========                 |                                                 |
| \\      /  F ield         | OpenFOAM: The Open Source CFD Toolbox           |
|  \\    /   O peration     | Version:  4.x                                   |
|   \\  /    A nd           | Web:      www.OpenFOAM.org                      |
|    \\/     M anipulation  |                                                 |
\*---------------------------------------------------------------------------*/
FoamFile
{
    version     2.0;
    format      ascii;
    class       volScalarField;
    location    "25.5";
    object      magGField;
}
// * * * * * * * * * * * * * * * * * * * * * * * * * * * * * * * * * * * * * //

dimensions      [1 -2 -1 0 0 0 0];

internalField   nonuniform List<scalar> 
132
(
24.2803
102.001
71.7246
103.768
45.0747
94.6702
48.3018
71.4616
11.8865
13.5846
101.446
19.2157
93.3562
8.46554
86.4342
12.7269
81.4681
33.0959
19.8244
98.317
30.1682
101.277
24.7411
101.714
27.5258
108.555
45.0105
52.9993
112.381
57.3247
119.575
57.0045
127.86
50.1746
143.273
26.1501
2.43615
81.5065
42.5273
85.1175
0.000478442
49.5045
16.0202
5.89238
88.2969
15.0346
83.2798
35.8348
84.8028
0.144095
71.7983
8.73106
1.05954
90.2834
3.08196
77.0573
5.22635
69.1117
24.0869
56.5624
10.2546
35.4523
97.2188
44.7935
95.5159
39.8098
90.6752
21.0313
93.2156
21.2132
23.3837
87.4702
27.4164
75.2521
17.0021
7.75014
89.7436
3.33994
88.5014
2.56751
88.8884
9.32402
83.2653
31.4237
22.2479
96.0899
29.531
97.9164
28.6843
104.352
32.6171
120.51
60.8283
53.7322
109.213
57.4502
115.581
58.9437
128.048
55.43
159.779
40.7603
30.5511
95.6562
19.6363
35.1726
96.576
38.22
94.6441
36.4272
90.6561
21.787
78.7519
9.54769
46.2681
102.24
53.7759
103.616
50.1369
101.887
41.3464
102.297
21.5197
65.1018
112.918
68.274
115.633
68.7278
117.13
66.8198
116.308
70.5079
)
;

boundaryField
{
    inlet
    {
        type            calculated;
        value           nonuniform 0();
    }
    outlet
    {
        type            calculated;
        value           nonuniform List<scalar> 
16
(
26.3432
73.329
99.5502
56.9875
35.5721
19.3492
22.7861
46.5239
37.6844
69.9185
135.179
89.6934
43.3961
21.0602
47.5579
153.52
)
;
    }
    wall
    {
        type            calculated;
        value           uniform 0;
    }
    procBoundary7to0
    {
        type            processor;
        value           uniform 90.1236;
    }
    procBoundary7to1
    {
        type            processor;
        value           uniform 0.529501;
    }
    procBoundary7to3
    {
        type            processor;
        value           nonuniform List<scalar> 
36
(
29.0771
70.5723
166.264
53.1764
58.5799
75.6872
45.5697
88.23
28.8118
28.5922
93.1638
63.2199
98.9583
44.6786
93.5308
0.484062
99.2108
16.3483
2.96349
111.025
0.0038929
73.9831
41.1932
85.9011
0.00250302
76.584
17.8212
45.3234
112.255
67.3563
114.447
63.1072
118.452
38.0345
130.183
31.2036
)
;
    }
    procBoundary7to5
    {
        type            processor;
        value           nonuniform List<scalar> 
44
(
88.6342
58.9675
90.1857
45.2888
85.5034
56.2306
82.3813
25.8863
9.2303
114.499
20.8232
74.4696
27.782
44.0549
92.1519
50.7948
10.6316
9.2303
114.499
114.499
10.7377
86.4234
22.0613
92.9158
25.8284
94.2516
42.6592
3.36467
92.0912
10.7377
86.4234
86.4234
43.4339
93.1239
45.7918
111.241
29.2242
35.4506
99.4206
49.6653
97.5614
43.4339
93.1239
93.1239
)
;
    }
    procBoundary7to6
    {
        type            processor;
        value           nonuniform List<scalar> 
12
(
97.7835
95.3941
108.247
89.4719
89.0141
97.9381
89.0802
93.6725
105.745
97.4764
101.572
111.318
)
;
    }
}


// ************************************************************************* //
