/*--------------------------------*- C++ -*----------------------------------*\
| =========                 |                                                 |
| \\      /  F ield         | OpenFOAM: The Open Source CFD Toolbox           |
|  \\    /   O peration     | Version:  4.x                                   |
|   \\  /    A nd           | Web:      www.OpenFOAM.org                      |
|    \\/     M anipulation  |                                                 |
\*---------------------------------------------------------------------------*/
FoamFile
{
    version     2.0;
    format      ascii;
    class       volScalarField;
    location    "25.5";
    object      p;
}
// * * * * * * * * * * * * * * * * * * * * * * * * * * * * * * * * * * * * * //

dimensions      [1 -1 -2 0 0 0 0];

internalField   nonuniform List<scalar> 
132
(
9.93003
67.1242
-9.84783
64.6038
-25.3842
64.5003
-41.7853
65.2309
-52.4481
10.3912
68.0122
-7.10158
65.7436
-23.9968
63.2035
-40.3275
59.8356
-55.1475
10.375
67.7888
-9.39625
65.3689
-27.8462
63.9065
-47.1531
63.4958
-66.7644
11.0555
68.3428
-8.00935
65.5633
-27.2953
64.1176
-47.839
64.5669
-69.5331
-1885.62
-1813.88
-1902.18
-1811.8
-1915.87
-1815.37
-1933.15
-1863.55
-1810.33
-1880.74
-1810.32
-1897.52
-1809.63
-1913.96
-1817.01
-1931.42
-1865.78
-1813.95
-1882.87
-1813.1
-1900.64
-1812.32
-1916.65
-1814.05
-1928.87
-1865.28
-1810.69
-1883.67
-1811.83
-1901.82
-1812.31
-1919.51
-1816.32
-1937.93
-3780.1
-3691.07
-3797.3
-3690.8
-3811.69
-3741.5
-3687.02
-3760.6
-3690.14
-3779.09
-3692.85
-3796.5
-3696.25
-3811.97
-3742.83
-3688.47
-3760.94
-3690.42
-3780.88
-3691.89
-3802.27
-3692.46
-3825.11
-3742.97
-3687.41
-3761.77
-3690.25
-3781.34
-3691.89
-3802.37
-3691.88
-3828.19
-5676.28
-5570.81
-5695.14
-5620.01
-5565.24
-5638.47
-5567.42
-5656.49
-5568.95
-5672.94
-5572.77
-5688.02
-5620.85
-5566.56
-5638.84
-5568.24
-5657.4
-5569.18
-5676.22
-5570.68
-5695.37
-5620.62
-5565.58
-5638.99
-5567.93
-5657.5
-5569.56
-5675.91
-5571.93
-5693.55
)
;

boundaryField
{
    inlet
    {
        type            calculated;
        value           nonuniform 0();
    }
    outlet
    {
        type            calculated;
        value           nonuniform List<scalar> 
16
(
0
0
0
0
-1877.91
-1877.91
-1877.91
-1877.91
-3755.83
-3755.83
-3755.83
-3755.83
-5633.74
-5633.74
-5633.74
-5633.74
)
;
    }
    wall
    {
        type            calculated;
        value           nonuniform List<scalar> 
66
(
-6558.97
-6559.8
-6559.58
-6504.19
-6505.51
-6504.54
-6577.42
-6577.79
-6577.94
-6506.36
-6507.18
-6506.88
-6595.42
-6596.34
-6596.45
-6507.86
-6508.11
-6508.5
-6615.17
-6611.83
-6615.14
-6614.85
-6509.69
-6511.64
-6509.59
-6510.87
-6633.76
-6626.68
-6633.83
-6631.63
11.0555
-1865.28
-3742.97
-5620.62
68.3428
-1810.69
-3687.41
-5565.58
-8.00936
-1883.67
-3761.77
-5638.99
65.5633
-1811.83
-3690.25
-5567.93
-27.2953
-1901.82
-3781.34
-5657.5
64.1176
-1812.31
-3691.89
-5569.56
-47.839
-1919.51
-3802.37
-5675.91
64.5669
-1816.32
-3691.88
-5571.93
-69.5331
-1937.93
-3828.19
-5693.55
)
;
    }
    procBoundary7to0
    {
        type            processor;
        value           uniform 71.4202;
    }
    procBoundary7to1
    {
        type            processor;
        value           uniform 9.92323;
    }
    procBoundary7to3
    {
        type            processor;
        value           nonuniform List<scalar> 
36
(
1895.81
1944.28
1866.2
1944.67
1851.62
1942.26
1836.5
1940.43
1821.76
1889.54
1945.15
1869.96
1943.86
1854.36
1945.72
1838.1
1939.24
1819.39
1889.24
1944
1870.1
1941.74
1851.5
1944.36
1837.08
1939.97
1822.61
1889.26
1945.12
1870.52
1943.6
1852.19
1943.81
1832.09
1941.53
1808.64
)
;
    }
    procBoundary7to5
    {
        type            processor;
        value           nonuniform List<scalar> 
44
(
66.6989
-7.68131
65.0065
-23.5149
63.7056
-39.4596
60.7627
-52.1452
-1866.31
-1808.79
-1882.79
-1811.4
-1898.41
-1811.16
-1919.87
-1812.19
-1911.01
-1866.31
-1808.79
-1808.79
-3761.21
-3690.47
-3779.64
-3692.74
-3797.92
-3695.35
-3816.25
-3742.32
-3691.65
-3761.21
-3690.47
-3690.47
-5657.56
-5568.92
-5677.99
-5571.34
-5699.48
-5620.91
-5566.66
-5638.87
-5568.3
-5657.56
-5568.92
-5568.92
)
;
    }
    procBoundary7to6
    {
        type            processor;
        value           nonuniform List<scalar> 
12
(
73.3135
73.0189
73.2916
-1806.71
-1806.48
-1805.61
-3681.78
-3682.73
-3682.41
-5560.6
-5561.2
-5560.79
)
;
    }
}


// ************************************************************************* //
