/*--------------------------------*- C++ -*----------------------------------*\
| =========                 |                                                 |
| \\      /  F ield         | OpenFOAM: The Open Source CFD Toolbox           |
|  \\    /   O peration     | Version:  4.x                                   |
|   \\  /    A nd           | Web:      www.OpenFOAM.org                      |
|    \\/     M anipulation  |                                                 |
\*---------------------------------------------------------------------------*/
FoamFile
{
    version     2.0;
    format      ascii;
    class       volScalarField;
    location    "25.5";
    object      particleRelTemp;
}
// * * * * * * * * * * * * * * * * * * * * * * * * * * * * * * * * * * * * * //

dimensions      [0 0 0 0 0 0 0];

internalField   nonuniform List<scalar> 
132
(
4.75816e-08
3.05107e-08
1.18374e-08
-1.52762e-08
-1.67331e-08
-9.54016e-09
-1.45911e-09
1.63885e-09
2.92105e-09
1.1747e-08
5.69092e-09
-1.40555e-08
-2.18437e-08
-1.94268e-08
-1.18354e-08
-2.90813e-09
2.43102e-10
6.87896e-10
-5.76163e-09
-7.9885e-09
-1.94456e-08
-2.55258e-08
-2.52644e-08
-2.19158e-08
-1.50926e-08
-9.40179e-09
-7.76072e-09
-4.0148e-09
-1.1589e-08
-1.72427e-08
-2.65777e-08
-2.93495e-08
-2.8306e-08
-2.42621e-08
-1.89431e-08
-1.52105e-08
-1.27047e-08
-2.03575e-08
-2.24303e-08
-1.4591e-08
-5.57177e-09
2.36213e-10
2.74827e-09
-1.13435e-08
-1.19681e-08
-1.86358e-08
-2.41321e-08
-2.28158e-08
-1.51028e-08
-3.82406e-09
4.8362e-10
3.67179e-09
-1.26421e-08
-1.78468e-08
-2.22054e-08
-2.56404e-08
-2.74151e-08
-2.23663e-08
-1.49202e-08
-6.79842e-09
-3.96257e-09
-1.3981e-08
-1.95659e-08
-2.3507e-08
-2.76809e-08
-3.09416e-08
-2.95459e-08
-2.53393e-08
-1.70742e-08
-1.26924e-08
-2.51751e-08
-2.06348e-08
-1.17474e-08
-6.15075e-09
-5.77949e-10
-1.7083e-08
-1.94362e-08
-2.45997e-08
-2.8154e-08
-2.71282e-08
-2.01368e-08
-1.02157e-08
-4.75784e-09
-4.16174e-12
-1.75659e-08
-2.13502e-08
-2.51432e-08
-2.88699e-08
-3.03939e-08
-2.54775e-08
-1.75541e-08
-1.05442e-08
-5.57309e-09
-1.77433e-08
-2.17779e-08
-2.62417e-08
-3.00818e-08
-3.39209e-08
-3.14678e-08
-2.49897e-08
-1.80694e-08
-1.20052e-08
-1.71072e-08
-1.0037e-08
-6.71129e-09
-1.80167e-08
-2.19685e-08
-2.73365e-08
-3.08931e-08
-3.01218e-08
-2.41438e-08
-1.84655e-08
-1.03706e-08
-4.21417e-09
-1.85689e-08
-2.20111e-08
-2.70769e-08
-3.11371e-08
-3.28473e-08
-2.8383e-08
-2.26379e-08
-1.45993e-08
-8.89425e-09
-1.83206e-08
-2.27116e-08
-2.74788e-08
-3.2168e-08
-3.48356e-08
-3.28127e-08
-2.69476e-08
-2.02296e-08
-1.47872e-08
)
;

boundaryField
{
    inlet
    {
        type            calculated;
        value           nonuniform 0();
    }
    outlet
    {
        type            calculated;
        value           nonuniform List<scalar> 
16
(
2.92105e-09
6.87896e-10
-7.76072e-09
-1.52105e-08
2.74827e-09
3.67179e-09
-3.96257e-09
-1.26924e-08
-5.77949e-10
-4.16174e-12
-5.57309e-09
-1.20052e-08
-6.71129e-09
-4.21417e-09
-8.89425e-09
-1.47872e-08
)
;
    }
    wall
    {
        type            calculated;
        value           nonuniform List<scalar> 
66
(
-1.80167e-08
-1.85689e-08
-1.83206e-08
-2.19685e-08
-2.20111e-08
-2.27116e-08
-2.73365e-08
-2.70769e-08
-2.74788e-08
-3.08931e-08
-3.11371e-08
-3.2168e-08
-3.01218e-08
-3.28473e-08
-3.48356e-08
-2.41438e-08
-2.8383e-08
-3.28127e-08
-1.71072e-08
-1.84655e-08
-2.26379e-08
-2.69476e-08
-1.0037e-08
-1.03706e-08
-1.45993e-08
-2.02296e-08
-6.71129e-09
-4.21417e-09
-8.89425e-09
-1.47872e-08
-4.0148e-09
-1.3981e-08
-1.77433e-08
-1.83206e-08
-1.1589e-08
-1.95659e-08
-2.17779e-08
-2.27116e-08
-1.72427e-08
-2.3507e-08
-2.62417e-08
-2.74788e-08
-2.65777e-08
-2.76809e-08
-3.00818e-08
-3.2168e-08
-2.93495e-08
-3.09416e-08
-3.39209e-08
-3.48356e-08
-2.8306e-08
-2.95459e-08
-3.14678e-08
-3.28127e-08
-2.42621e-08
-2.53393e-08
-2.49897e-08
-2.69476e-08
-1.89431e-08
-1.70742e-08
-1.80694e-08
-2.02296e-08
-1.52105e-08
-1.26924e-08
-1.20052e-08
-1.47872e-08
)
;
    }
    procBoundary7to0
    {
        type            processor;
        value           uniform 5.64382e-08;
    }
    procBoundary7to1
    {
        type            processor;
        value           uniform 9.34413e-08;
    }
    procBoundary7to3
    {
        type            processor;
        value           nonuniform List<scalar> 
36
(
8.24441e-08
6.49396e-08
1.38658e-08
-1.2017e-08
-1.76051e-08
-9.85609e-09
-1.35401e-09
3.08067e-09
1.31377e-09
5.6451e-08
2.1347e-08
-1.2086e-08
-2.3861e-08
-1.837e-08
-1.17348e-08
-4.10063e-09
-3.24395e-09
-6.16943e-09
2.42716e-08
1.11354e-08
-1.65424e-08
-2.76304e-08
-2.52287e-08
-1.9549e-08
-1.61519e-08
-1.39677e-08
-1.70501e-08
1.41822e-08
6.78951e-09
-9.87843e-09
-2.62795e-08
-3.01604e-08
-2.86809e-08
-2.52913e-08
-2.26656e-08
-2.096e-08
)
;
    }
    procBoundary7to5
    {
        type            processor;
        value           nonuniform List<scalar> 
44
(
7.25675e-08
1.77615e-08
-8.47455e-09
-1.57051e-08
-1.77687e-08
-1.13557e-08
-4.60691e-09
-6.87485e-10
1.97929e-09
-6.86463e-09
-2.6035e-09
-1.66989e-08
-2.18124e-08
-1.94617e-08
-1.35564e-08
-6.45404e-09
-4.34859e-09
1.97929e-09
-6.86463e-09
-6.86463e-09
-2.33444e-08
-2.63906e-08
-2.54024e-08
-2.25172e-08
-1.73564e-08
-1.18223e-08
-8.65591e-09
-1.39187e-08
-1.7411e-08
-2.33444e-08
-2.63906e-08
-2.63906e-08
-2.82301e-08
-2.28914e-08
-2.11886e-08
-1.5936e-08
-1.23442e-08
-1.76774e-08
-2.11899e-08
-2.68478e-08
-2.9755e-08
-2.82301e-08
-2.28914e-08
-2.28914e-08
)
;
    }
    procBoundary7to6
    {
        type            processor;
        value           nonuniform List<scalar> 
12
(
1.50141e-08
6.50287e-09
1.15299e-09
-8.23496e-09
-1.07702e-08
-1.0346e-08
-1.5067e-08
-1.52561e-08
-1.44326e-08
-1.71725e-08
-1.66227e-08
-1.63876e-08
)
;
    }
}


// ************************************************************************* //
