/*--------------------------------*- C++ -*----------------------------------*\
| =========                 |                                                 |
| \\      /  F ield         | OpenFOAM: The Open Source CFD Toolbox           |
|  \\    /   O peration     | Version:  4.x                                   |
|   \\  /    A nd           | Web:      www.OpenFOAM.org                      |
|    \\/     M anipulation  |                                                 |
\*---------------------------------------------------------------------------*/
FoamFile
{
    version     2.0;
    format      ascii;
    class       volScalarField;
    location    "12";
    object      Deff;
}
// * * * * * * * * * * * * * * * * * * * * * * * * * * * * * * * * * * * * * //

dimensions      [0 2 -1 0 0 0 0];

internalField   nonuniform List<scalar> 
114
(
9.7977e-08
9.78797e-08
9.78766e-08
9.78346e-08
9.78172e-08
9.78264e-08
9.79795e-08
9.79893e-08
9.79241e-08
9.78425e-08
9.77441e-08
9.7723e-08
9.77916e-08
9.79053e-08
9.79524e-08
9.78441e-08
9.78466e-08
9.78447e-08
9.77433e-08
9.77869e-08
9.77258e-08
9.80547e-08
9.807e-08
9.79097e-08
9.79081e-08
9.7798e-08
9.77431e-08
9.77279e-08
9.77866e-08
9.78185e-08
9.79394e-08
9.79002e-08
9.77854e-08
9.77771e-08
9.76717e-08
9.76406e-08
9.77047e-08
9.76199e-08
9.77211e-08
9.78559e-08
9.79404e-08
9.77821e-08
9.76998e-08
9.76799e-08
9.76314e-08
9.75976e-08
9.76126e-08
9.76962e-08
9.77762e-08
9.78769e-08
9.79927e-08
9.7871e-08
9.78823e-08
9.77852e-08
9.77339e-08
9.77135e-08
9.76895e-08
9.77009e-08
9.77734e-08
9.79591e-08
9.78126e-08
9.78376e-08
9.77399e-08
9.76384e-08
9.76151e-08
9.75522e-08
9.76462e-08
9.77481e-08
9.78407e-08
9.78204e-08
9.77192e-08
9.76863e-08
9.7492e-08
9.75386e-08
9.74984e-08
9.74963e-08
9.75497e-08
9.79491e-08
9.76886e-08
9.75926e-08
9.7608e-08
9.82376e-08
9.80034e-08
9.80523e-08
9.78427e-08
9.78157e-08
9.78485e-08
9.77486e-08
9.77652e-08
9.78168e-08
9.80158e-08
9.7922e-08
9.79882e-08
9.7838e-08
9.76855e-08
9.77015e-08
9.77696e-08
9.76966e-08
9.77663e-08
9.79254e-08
9.78571e-08
9.7692e-08
9.7691e-08
9.76237e-08
9.75472e-08
9.76312e-08
9.76269e-08
9.76552e-08
9.7891e-08
9.78465e-08
9.76715e-08
9.76796e-08
9.75009e-08
9.75735e-08
)
;

boundaryField
{
    inlet
    {
        type            calculated;
        value           nonuniform 0();
    }
    outlet
    {
        type            calculated;
        value           uniform 0;
    }
    wall
    {
        type            calculated;
        value           uniform 0;
    }
    procBoundary5to1
    {
        type            processor;
        value           uniform 0;
    }
    procBoundary5to4
    {
        type            processor;
        value           uniform 0;
    }
    procBoundary5to7
    {
        type            processor;
        value           uniform 0;
    }
}


// ************************************************************************* //
