/*--------------------------------*- C++ -*----------------------------------*\
| =========                 |                                                 |
| \\      /  F ield         | OpenFOAM: The Open Source CFD Toolbox           |
|  \\    /   O peration     | Version:  4.x                                   |
|   \\  /    A nd           | Web:      www.OpenFOAM.org                      |
|    \\/     M anipulation  |                                                 |
\*---------------------------------------------------------------------------*/
FoamFile
{
    version     2.0;
    format      ascii;
    class       volScalarField;
    location    "12";
    object      magGField;
}
// * * * * * * * * * * * * * * * * * * * * * * * * * * * * * * * * * * * * * //

dimensions      [1 -2 -1 0 0 0 0];

internalField   nonuniform List<scalar> 
114
(
118.143
55.3711
136.048
51.4554
179.646
83.8094
20.5025
98.0984
25.7152
101.791
35.0045
99.0995
93.4475
89.9214
10.2164
90.8109
7.86637
90.6673
2.64916
84.8216
33.0201
42.6727
100.778
44.8387
106.48
42.8125
109.812
31.4048
99.5936
14.9017
3.60973
86.4923
0.612839
85.9145
0.757429
82.7924
3.60767
69.2273
11.1455
4.91698
83.1832
1.82369
81.3044
1.2187
77.9729
6.11847
72.1052
26.093
2.78174
79.2542
51.0718
105.636
52.8008
115.176
55.0952
131.272
56.1982
159.552
72.3989
14.6629
89.4545
13.9532
92.4335
13.5614
95.3629
22.2107
93.1834
64.1026
14.8045
90.3416
14.0591
91.5706
10.7025
92.9213
14.196
87.5722
28.2703
8.74012
81.513
0.395836
77.6471
62.1982
112.126
65.7627
122.434
68.6537
143.979
69.8752
201.942
87.8343
55.1999
104.811
58.9038
110.098
58.8323
115.196
59.9459
119.045
96.2136
48.7922
101.563
52.1464
105.349
51.8322
106.897
45.6836
103.359
34.8065
46.2375
96.61
47.8832
95.1845
43.0235
88.8331
)
;

boundaryField
{
    inlet
    {
        type            calculated;
        value           nonuniform 0();
    }
    outlet
    {
        type            calculated;
        value           nonuniform List<scalar> 
12
(
183.867
205.33
72.8234
32.7184
24.5957
57.6508
159.208
141.233
63.0099
190.985
211.803
77.105
)
;
    }
    wall
    {
        type            calculated;
        value           uniform 0;
    }
    procBoundary5to1
    {
        type            processor;
        value           nonuniform List<scalar> 
32
(
117.908
60.1477
134.233
59.3921
171.388
44.22
15.013
97.4027
17.7056
105.263
25.6974
123.094
64.1441
87.5471
0.149154
88.2091
2.11144
88.4459
5.46539
83.42
36.9466
52.9215
109.358
55.1847
55.1847
55.1847
18.8683
92.9681
92.9681
92.9681
12.45
12.45
)
;
    }
    procBoundary5to4
    {
        type            processor;
        value           nonuniform List<scalar> 
12
(
97.0746
85.3885
83.6378
79.6485
100.832
88.7501
89.0726
83.306
105.713
100.769
97.9297
95.2561
)
;
    }
    procBoundary5to7
    {
        type            processor;
        value           nonuniform List<scalar> 
44
(
85.479
12.2715
84.5323
9.76102
81.1758
13.5747
74.2228
31.8907
11.0774
85.479
3.58569
78.1047
2.30616
75.3632
5.18305
65.1204
23.1223
0.486533
3.58569
80.4641
3.58569
78.1047
0.815546
73.0459
0.0026673
59.7931
15.2041
8.18895
86.1182
2.5801
0.815546
88.2784
0.815546
73.0459
38.4393
79.1749
36.9941
34.687
93.1519
29.8702
90.2309
19.4438
38.4393
83.325
)
;
    }
}


// ************************************************************************* //
