/*--------------------------------*- C++ -*----------------------------------*\
| =========                 |                                                 |
| \\      /  F ield         | OpenFOAM: The Open Source CFD Toolbox           |
|  \\    /   O peration     | Version:  4.x                                   |
|   \\  /    A nd           | Web:      www.OpenFOAM.org                      |
|    \\/     M anipulation  |                                                 |
\*---------------------------------------------------------------------------*/
FoamFile
{
    version     2.0;
    format      ascii;
    class       volScalarField;
    location    "12";
    object      p;
}
// * * * * * * * * * * * * * * * * * * * * * * * * * * * * * * * * * * * * * //

dimensions      [1 -1 -2 0 0 0 0];

internalField   nonuniform List<scalar> 
114
(
65.2678
-17.4604
60.0214
-41.2664
58.6296
-74.2469
3.06678
64.6012
-16.4349
58.1429
-36.4149
54.0318
-53.9131
72.1465
3.50081
64.9865
-15.7644
58.5103
-35.4221
54.9776
-52.1776
-1855.23
-1805.82
-1873.55
-1812.58
-1892.71
-1818.16
-1912.43
-1822.23
-1929.17
-1854.85
-1805.95
-1872.98
-1813.49
-1891.62
-1820.37
-1909.55
-1824.92
-1924.9
-1853.52
-1805.7
-1870.42
-1813.13
-1887.46
-1819.97
-1904.27
-1826.08
-1921.47
-1852.88
-1806.07
-3733.12
-3683.58
-3752.12
-3690.44
-3772.61
-3696.07
-3796.05
-3698.01
-3825.65
-3732.66
-3683.71
-3751.16
-3691.27
-3770.1
-3698.29
-3789.35
-3703.54
-3806.85
-3732.57
-3683.52
-3750.86
-3690.8
-3769.62
-3697.44
-3788.8
-3701.89
-3806.55
-3731.15
-3683.42
-3748.31
-3691.54
-5610.52
-5561.42
-5629.24
-5568.16
-5649.59
-5573.6
-5673.82
-5574.96
-5712.87
-5610.16
-5561.68
-5628.57
-5568.96
-5647.55
-5575.6
-5667.52
-5580.3
-5687.46
-5609.96
-5561.35
-5628.2
-5568.51
-5646.98
-5574.84
-5666.35
-5579.64
-5685.25
-5609.13
-5561.57
-5626.69
-5569.24
-5644.07
-5576.7
)
;

boundaryField
{
    inlet
    {
        type            calculated;
        value           nonuniform 0();
    }
    outlet
    {
        type            calculated;
        value           nonuniform List<scalar> 
12
(
0
0
0
-1877.91
-1877.91
-1877.91
-3755.83
-3755.83
-3755.83
-5633.74
-5633.74
-5633.74
)
;
    }
    wall
    {
        type            calculated;
        value           nonuniform List<scalar> 
66
(
-6549.34
-6548.98
-6548.77
-6547.93
-6500.21
-6500.48
-6500.14
-6500.35
-6568.01
-6567.35
-6566.97
-6565.46
-6506.91
-6507.72
-6507.27
-6508.01
-6588.33
-6586.31
-6585.73
-6582.83
-6512.33
-6514.36
-6513.59
-6515.49
-6612.56
-6606.3
-6605.13
-6513.7
-6519.08
-6518.45
-6661.03
-6626.72
-6624.69
-1855.23
-3733.12
-5610.52
-1805.82
-3683.58
-5561.42
-1873.55
-3752.12
-5629.24
65.2678
-1812.58
-3690.44
-5568.16
-17.4604
-1892.71
-3772.61
-5649.59
60.0214
-1818.16
-3696.07
-5573.6
-41.2665
-1912.43
-3796.05
-5673.82
58.6296
-1822.23
-3698.01
-5574.96
-74.2469
-1929.17
-3825.65
-5712.87
)
;
    }
    procBoundary5to1
    {
        type            processor;
        value           nonuniform List<scalar> 
32
(
1942.58
1861.16
1937.34
1838.63
1935.66
1809.88
1881.3
1942.47
1861.58
1936.14
1840.26
1932.32
1818.01
1949.9
1883.13
1942.77
1864.68
1935.61
1846.84
1931.48
1827.04
21.8148
71.842
3.041
3.041
3.041
22.0358
71.7855
71.7855
71.7855
22.306
22.306
)
;
    }
    procBoundary5to4
    {
        type            processor;
        value           nonuniform List<scalar> 
12
(
-1798.56
-1798.29
-1798.16
-1798.03
-3676.29
-3675.9
-3675.86
-3675.78
-5554.21
-5554.05
-5553.89
-5553.82
)
;
    }
    procBoundary5to7
    {
        type            processor;
        value           nonuniform List<scalar> 
44
(
71.8312
4.90875
64.4226
-13.698
57.2557
-31.7897
51.5534
-46.3743
23.247
71.8312
-1869.58
-1814.16
-1886.59
-1822.63
-1903.94
-1825.51
-1920.44
-1853.24
-1869.58
-1805.62
-1869.58
-1814.16
-3764.64
-3699.17
-3780.65
-3705.73
-3796.58
-3731.97
-3683.25
-3750.13
-3764.64
-3690.82
-3764.64
-3699.17
-5661.25
-5582.75
-5677.4
-5609.4
-5560.95
-5627.27
-5568.17
-5645.16
-5661.25
-5575.19
)
;
    }
}


// ************************************************************************* //
