/*--------------------------------*- C++ -*----------------------------------*\
| =========                 |                                                 |
| \\      /  F ield         | OpenFOAM: The Open Source CFD Toolbox           |
|  \\    /   O peration     | Version:  4.x                                   |
|   \\  /    A nd           | Web:      www.OpenFOAM.org                      |
|    \\/     M anipulation  |                                                 |
\*---------------------------------------------------------------------------*/
FoamFile
{
    version     2.0;
    format      ascii;
    class       volVectorField;
    location    "12";
    object      Urel;
}
// * * * * * * * * * * * * * * * * * * * * * * * * * * * * * * * * * * * * * //

dimensions      [0 1 -1 0 0 0 0];

internalField   nonuniform List<vector> 
114
(
(-0.0236216 0.000283874 -0.00110647)
(-0.0223651 0.000510245 -0.000926514)
(-0.0241273 0.000591995 -0.000863262)
(-0.0221455 0.00154475 -0.000146754)
(-0.0240515 0.00204774 0.000334055)
(-0.019699 0.00489752 0.0023627)
(-0.0197917 0.000296059 -0.000437975)
(-0.021637 0.00028581 -0.000394291)
(-0.0199781 0.000481115 -0.000208217)
(-0.0217054 0.000578543 -7.16048e-05)
(-0.0196795 0.00138483 0.000430972)
(-0.0208673 0.00178898 0.000716366)
(-0.0180853 0.00450975 0.00205214)
(-0.0201073 0.000161711 -0.000296174)
(-0.0182578 0.000169888 -0.000141834)
(-0.020118 0.000162898 2.42131e-05)
(-0.0181116 0.00027038 0.000157019)
(-0.0198331 0.000295256 0.000259108)
(-0.0175432 0.000624152 0.000600487)
(-0.0187676 0.000749825 0.000848606)
(-0.0165022 0.00185619 0.00149118)
(-0.0208924 0.000357952 -0.000509474)
(-0.0224901 0.000350353 -0.000699595)
(-0.0214474 0.000303001 -0.000747163)
(-0.0230923 0.000219261 -0.00085401)
(-0.0218025 0.000441745 -0.000746687)
(-0.0233649 0.000475051 -0.000737358)
(-0.0213137 0.00129758 -0.000370271)
(-0.0223497 0.00164508 -0.000137559)
(-0.0188932 0.0034794 0.000560563)
(-0.0189729 0.000291713 -0.000353683)
(-0.0208595 0.000313064 -0.000382103)
(-0.0189998 0.00024386 -0.000346125)
(-0.0210825 0.00022696 -0.000281341)
(-0.0192188 0.000373 -0.000205458)
(-0.0210805 0.000362394 -0.000100982)
(-0.0190278 0.00105359 0.000113811)
(-0.0200293 0.00134594 0.00027941)
(-0.0176113 0.00305912 0.000755523)
(-0.0177934 0.000175133 -0.000253502)
(-0.0196903 0.000144711 -0.000219658)
(-0.0175424 0.000154843 -9.06794e-05)
(-0.0196271 0.0002244 3.56227e-05)
(-0.0173481 0.00028071 0.000146772)
(-0.0193656 0.00035254 0.000278983)
(-0.0172708 0.000615379 0.000422192)
(-0.0184741 0.000636824 0.000581959)
(-0.0165944 0.00168628 0.000919653)
(-0.0172983 -3.83372e-06 -0.000169784)
(-0.0191415 -6.84644e-05 -4.37595e-05)
(-0.021486 0.000348554 -0.000483843)
(-0.0230763 0.00032247 -0.000618521)
(-0.0221702 0.000331288 -0.000604592)
(-0.0238948 0.000281242 -0.000639138)
(-0.0227734 0.000582535 -0.000635752)
(-0.0246041 0.000663371 -0.000589045)
(-0.0227619 0.00170157 -0.00071164)
(-0.0245042 0.00212694 -0.000409642)
(-0.020308 0.00498543 -0.0011808)
(-0.0198491 0.000294136 -0.000381895)
(-0.0216274 0.000302161 -0.000442632)
(-0.0201824 0.000299007 -0.000311386)
(-0.0220409 0.000300881 -0.000197126)
(-0.0204434 0.000516905 -0.000148408)
(-0.0222587 0.000621659 4.78069e-06)
(-0.0203562 0.00144005 -5.82176e-05)
(-0.0215405 0.00181819 0.000165752)
(-0.018866 0.00443859 -0.00033126)
(-0.0188887 0.000241959 -0.000334185)
(-0.020607 0.000303221 -0.00034203)
(-0.0188825 0.000280887 -0.000160862)
(-0.0206577 0.000276827 9.63502e-06)
(-0.0187658 0.000449256 0.000110532)
(-0.0204696 0.000537519 0.000406105)
(-0.0183423 0.000966862 0.000308113)
(-0.0195383 0.00101034 0.000671731)
(-0.0172217 0.00239287 0.000281414)
(-0.0182 8.53704e-05 -0.000267709)
(-0.0198411 8.27017e-05 -0.000217536)
(-0.0177516 8.13389e-05 -2.46201e-05)
(-0.0196163 0.000123083 0.000124896)
(-0.0223687 0.000331834 -0.000372646)
(-0.0239093 0.000303398 -0.000418849)
(-0.0232532 0.000350371 -0.000358842)
(-0.0249073 0.000348135 -0.000353178)
(-0.024052 0.000698467 -0.000280324)
(-0.0259215 0.00088331 -0.000285667)
(-0.024377 0.00207181 -0.000305623)
(-0.0266587 0.00278209 -0.000265393)
(-0.0218801 0.00632326 -0.000508657)
(-0.0214385 0.000324771 -0.000338953)
(-0.0229239 0.000332195 -0.000334963)
(-0.0220746 0.000390065 -0.000206376)
(-0.0235221 0.000418166 -0.000110902)
(-0.0224421 0.000734915 -1.06394e-05)
(-0.0238445 0.000899504 6.68818e-05)
(-0.0222257 0.00192941 6.5562e-05)
(-0.0232708 0.00243437 0.000118477)
(-0.0202412 0.00573681 -0.000154205)
(-0.0205491 0.000305984 -0.000284661)
(-0.0219737 0.000342232 -0.000251155)
(-0.0208971 0.000421909 -8.40699e-05)
(-0.0222089 0.00045219 3.75305e-05)
(-0.020846 0.00070749 0.00017755)
(-0.0219805 0.000777097 0.000286158)
(-0.0200617 0.00138476 0.000338568)
(-0.0208335 0.00146302 0.000424667)
(-0.0181429 0.00299078 0.000335576)
(-0.0199251 0.000185516 -0.00028381)
(-0.0212411 0.000204112 -0.000277715)
(-0.0199772 0.000269586 -6.64305e-05)
(-0.0211119 0.000301228 0.000144166)
(-0.0195531 0.000419144 0.000255022)
(-0.02043 0.000428664 0.000407767)
)
;

boundaryField
{
    inlet
    {
        type            calculated;
        value           nonuniform 0();
    }
    outlet
    {
        type            calculated;
        value           nonuniform List<vector> 
12
(
(-0.0122508 0.0181779 0.0163709)
(-0.0111507 0.0229732 0.0124059)
(-0.00824503 0.0044763 0.00287263)
(-0.00482604 0.00175655 0.00203855)
(-0.00365432 0.00285709 0.0017507)
(-0.00784944 0.00281361 0.00106843)
(-0.010642 0.0164395 -0.0136714)
(-0.0104356 0.0177667 -0.00508548)
(-0.00700361 0.00629711 -0.00324997)
(-0.0162233 0.0236919 -0.00032388)
(-0.0160342 0.0270211 -0.000909526)
(-0.00918729 0.00670315 0.000394008)
)
;
    }
    wall
    {
        type            calculated;
        value           nonuniform List<vector> 
66
(
(-1.63582e-07 -2.3062e-08 3.96052e-08)
(-5.24138e-07 -6.09194e-08 5.20412e-08)
(-8.2876e-07 1.95866e-08 -7.86676e-08)
(-9.4128e-08 6.2191e-09 1.43436e-07)
(-2.62869e-07 8.49626e-09 1.82788e-09)
(-4.82248e-07 4.23703e-08 -3.15458e-08)
(-3.79164e-07 -8.30512e-08 6.25717e-08)
(-1.56674e-07 -1.61471e-07 3.41547e-08)
(-6.69007e-07 3.59291e-07 -6.10861e-08)
(-9.37817e-07 2.5308e-07 8.40716e-08)
(-1.40287e-07 -1.9605e-07 9.15596e-08)
(-8.97083e-08 -3.63799e-08 4.36439e-09)
(-4.20579e-07 -3.24845e-07 -4.72616e-08)
(-4.31956e-07 -2.67036e-07 1.95913e-08)
(-3.89078e-07 -2.87774e-07 -3.13948e-08)
(-1.40395e-07 -2.00193e-07 -1.52832e-08)
(-4.11093e-07 1.274e-08 1.43951e-08)
(-5.30945e-07 -1.85813e-07 3.70431e-08)
(-3.76652e-07 -2.96462e-07 9.92505e-08)
(-1.26316e-07 -2.25836e-07 5.03345e-08)
(-2.14985e-07 2.16793e-07 8.12805e-07)
(-2.00921e-07 2.38126e-07 1.05684e-06)
(-6.08995e-08 -1.29337e-07 8.21722e-08)
(-1.21393e-07 2.9329e-08 9.78914e-08)
(-8.95304e-08 -2.92134e-08 3.42517e-08)
(-1.90319e-07 5.71016e-08 1.22131e-07)
(-1.19839e-07 1.35264e-07 5.62496e-09)
(-6.23419e-08 -5.83777e-10 3.4399e-08)
(-1.12395e-07 9.69893e-10 6.28687e-08)
(-7.48026e-08 6.72146e-08 4.58279e-08)
(-2.00344e-08 3.04865e-09 1.93134e-08)
(2.51298e-08 -1.86945e-08 -5.62515e-08)
(-3.11849e-08 2.82429e-08 5.714e-09)
(-1.37834e-06 -2.00991e-07 5.09134e-07)
(-7.7755e-07 -2.38653e-07 1.87212e-07)
(-1.63582e-07 -2.3062e-08 3.96052e-08)
(-6.2789e-07 -1.58114e-07 1.84266e-08)
(-5.09916e-07 -5.25635e-08 1.93507e-08)
(-2.62869e-07 8.49626e-09 1.82788e-09)
(-2.27211e-07 -6.62442e-08 -6.59679e-08)
(-3.60304e-07 -6.80991e-08 -2.61738e-08)
(-6.69007e-07 3.59291e-07 -6.10861e-08)
(-1.70043e-07 -6.29093e-08 1.37522e-07)
(-1.81758e-07 1.26338e-08 5.2086e-08)
(-2.23092e-07 -9.14873e-08 -3.45399e-08)
(-4.20579e-07 -3.24845e-07 -4.72616e-08)
(-2.42011e-07 -4.38319e-08 2.65428e-07)
(-1.39846e-07 -3.57193e-08 -4.8932e-08)
(-1.98096e-07 -1.76745e-08 4.53475e-08)
(-4.11093e-07 1.274e-08 1.43951e-08)
(-2.52202e-07 1.01032e-07 3.00675e-07)
(-1.49293e-07 1.11078e-08 1.46175e-07)
(-1.34741e-07 -2.52122e-09 2.58971e-07)
(-2.14985e-07 2.16793e-07 8.12805e-07)
(-1.83448e-07 -4.73248e-09 1.04009e-07)
(-1.02109e-07 -2.2855e-08 1.39928e-07)
(-1.55611e-07 3.12773e-08 1.24551e-07)
(-8.95304e-08 -2.92134e-08 3.42517e-08)
(-2.02062e-07 -4.43469e-08 9.03207e-08)
(-2.37842e-07 4.69866e-08 6.37442e-08)
(-6.31744e-08 3.74048e-08 1.0736e-07)
(-6.23419e-08 -5.83777e-10 3.4399e-08)
(1.83755e-07 -2.77437e-08 7.62865e-08)
(-9.68927e-08 -1.38645e-07 1.25992e-07)
(-6.4998e-09 -5.70053e-08 1.02601e-07)
(-2.00344e-08 3.04865e-09 1.93134e-08)
)
;
    }
    procBoundary5to1
    {
        type            processor;
        value           nonuniform List<vector> 
32
(
(-0.0241733 0.00048325 -0.00139009)
(-0.0228853 0.000704193 -0.00125467)
(-0.0244943 0.000875926 -0.00114428)
(-0.0225645 0.00181818 -0.000537433)
(-0.0243796 0.00255307 0.000229943)
(-0.0199436 0.00538266 0.00204804)
(-0.0203547 0.000427045 -0.000646166)
(-0.0221113 0.000428549 -0.000606131)
(-0.0203594 0.00063557 -0.000417258)
(-0.0220083 0.000802238 -0.000206138)
(-0.0198487 0.00162349 0.000217605)
(-0.0210703 0.00210467 0.000656717)
(-0.0178574 0.00507575 0.00163198)
(-0.020579 0.000176512 -0.000422928)
(-0.0184285 0.000133186 -0.000268494)
(-0.0204831 0.000139941 -0.000133595)
(-0.0182413 0.000231343 4.08669e-05)
(-0.0200049 0.000299686 0.000268443)
(-0.0172694 0.000613907 0.000477427)
(-0.0184212 0.000812192 0.000637998)
(-0.0155496 0.00179824 0.00109262)
(-0.0214044 0.000392223 -0.000607456)
(-0.0229691 0.000361565 -0.000871926)
(-0.0219786 0.000331175 -0.000963489)
(-0.0219786 0.000331175 -0.000963489)
(-0.0219786 0.000331175 -0.000963489)
(-0.0195413 0.000322205 -0.000406632)
(-0.0213201 0.000325164 -0.000455891)
(-0.0213201 0.000325164 -0.000455891)
(-0.0213201 0.000325164 -0.000455891)
(-0.0183127 0.000188741 -0.000289485)
(-0.0183127 0.000188741 -0.000289485)
)
;
    }
    procBoundary5to4
    {
        type            processor;
        value           nonuniform List<vector> 
12
(
(-0.0219869 0.000398108 -0.000348481)
(-0.0206639 0.000352789 -0.000305043)
(-0.019725 0.0002097 -0.000285728)
(-0.0192316 -3.31012e-06 -0.000243988)
(-0.0224412 0.000387197 -0.000416541)
(-0.0212797 0.000320463 -0.000404004)
(-0.0204636 0.000222751 -0.000412112)
(-0.0199068 7.63831e-05 -0.000370202)
(-0.0231033 0.000348319 -0.000342939)
(-0.0223281 0.000318408 -0.000366875)
(-0.0215688 0.000257501 -0.000340906)
(-0.021054 0.000144392 -0.000333412)
)
;
    }
    procBoundary5to7
    {
        type            processor;
        value           nonuniform List<vector> 
44
(
(-0.0196664 -5.58188e-05 -0.000145487)
(-0.0179306 -4.82816e-05 2.70982e-05)
(-0.0196392 -5.4356e-05 0.000227115)
(-0.0177209 -6.22365e-05 0.000426466)
(-0.01927 -9.39591e-05 0.000624152)
(-0.0171372 -0.000132918 0.00097591)
(-0.018134 -0.000167727 0.00103718)
(-0.0160758 -0.000255701 0.00212869)
(-0.0179006 -1.3619e-05 -0.000205877)
(-0.0196664 -5.58188e-05 -0.000145487)
(-0.0170699 -2.34676e-05 4.03299e-05)
(-0.0189963 -3.70972e-07 0.000174235)
(-0.016654 2.80936e-05 0.000372964)
(-0.0185287 0.000110004 0.000552467)
(-0.016068 7.12144e-05 0.000752205)
(-0.0175726 9.1532e-05 0.000819466)
(-0.0159054 0.00017907 0.00145952)
(-0.0177118 -0.000135154 -0.00016681)
(-0.0170699 -2.34676e-05 4.03299e-05)
(-0.0195984 -0.000166116 -9.65981e-05)
(-0.0170699 -2.34676e-05 4.03299e-05)
(-0.0189963 -3.70972e-07 0.000174235)
(-0.0174591 0.000176397 0.000285372)
(-0.0190753 0.000224223 0.000514225)
(-0.0166991 0.000320301 0.000605606)
(-0.0179782 0.000308901 0.000998286)
(-0.0161627 0.000642949 0.000941739)
(-0.018457 -8.12879e-05 -0.000212761)
(-0.0201636 -0.000146702 -0.000134972)
(-0.0183556 -5.93141e-05 1.89118e-06)
(-0.0174591 0.000176397 0.000285372)
(-0.0201388 -1.00933e-05 0.00022288)
(-0.0174591 0.000176397 0.000285372)
(-0.0190753 0.000224223 0.000514225)
(-0.018555 0.000685972 0.000507468)
(-0.0190578 0.000542467 0.00076851)
(-0.0170391 0.00124627 0.000766817)
(-0.0197889 -1.5055e-05 -0.000184567)
(-0.0211678 -1.93402e-05 -0.000112326)
(-0.019708 2.45181e-05 3.97796e-05)
(-0.020992 5.96078e-05 0.000224187)
(-0.0191583 3.97764e-05 0.000382454)
(-0.018555 0.000685972 0.000507468)
(-0.0202619 6.13619e-05 0.000569314)
)
;
    }
}


// ************************************************************************* //
