/*--------------------------------*- C++ -*----------------------------------*\
| =========                 |                                                 |
| \\      /  F ield         | OpenFOAM: The Open Source CFD Toolbox           |
|  \\    /   O peration     | Version:  4.x                                   |
|   \\  /    A nd           | Web:      www.OpenFOAM.org                      |
|    \\/     M anipulation  |                                                 |
\*---------------------------------------------------------------------------*/
FoamFile
{
    version     2.0;
    format      ascii;
    class       volVectorField;
    location    "12";
    object      UsNext;
}
// * * * * * * * * * * * * * * * * * * * * * * * * * * * * * * * * * * * * * //

dimensions      [0 1 -1 0 0 0 0];

internalField   nonuniform List<vector> 
114
(
(-1.11619e-06 1.27428e-07 1.01767e-08)
(-9.92219e-07 1.01249e-07 7.33927e-08)
(-1.10081e-06 1.07478e-07 8.85653e-08)
(-5.22623e-07 8.5479e-08 -5.67951e-09)
(-3.79468e-07 9.46669e-08 -7.21147e-08)
(-8.58776e-07 2.68124e-07 -6.45751e-08)
(-2.03987e-06 8.98745e-08 -1.57408e-08)
(-1.76293e-06 1.54623e-07 -1.47858e-08)
(-1.68455e-06 1.89659e-07 -3.50295e-08)
(-1.45777e-06 1.55503e-07 2.16928e-08)
(-1.0948e-06 1.14267e-07 -4.37062e-08)
(-6.14869e-07 1.56327e-07 -1.23302e-07)
(-3.88544e-07 2.49979e-07 -8.94462e-08)
(-2.53917e-06 -9.15155e-08 6.02416e-08)
(-2.38431e-06 2.3231e-08 3.48242e-09)
(-2.16698e-06 -1.94407e-08 1.35607e-08)
(-2.05533e-06 6.20906e-08 -7.30876e-10)
(-1.83188e-06 1.00487e-07 -7.18582e-08)
(-1.3504e-06 7.29458e-08 -1.76325e-07)
(-7.68687e-07 1.24879e-07 -1.65466e-07)
(-3.32337e-07 6.83837e-08 -1.11712e-07)
(-8.34987e-07 -9.60596e-09 1.53555e-07)
(-8.40787e-07 -1.21931e-07 1.33025e-07)
(-9.18142e-07 -1.7594e-08 3.17012e-08)
(-6.74463e-07 1.98981e-08 -1.46996e-08)
(-6.77919e-07 -2.81845e-09 -1.11624e-07)
(-6.10215e-07 5.03777e-08 -2.85974e-08)
(-4.98329e-07 8.48523e-08 -5.31423e-08)
(-2.78317e-07 5.18535e-08 -5.19427e-08)
(-1.81747e-07 1.1585e-07 -5.17703e-08)
(-1.78524e-06 -2.38629e-07 4.51357e-08)
(-1.90611e-06 -4.54958e-07 2.02718e-07)
(-1.63737e-06 5.63722e-09 -6.12472e-08)
(-1.3494e-06 -3.76608e-08 -7.29664e-08)
(-1.31646e-06 -4.02057e-08 -1.09113e-07)
(-1.27641e-06 5.18529e-08 -7.04026e-08)
(-1.04134e-06 1.39507e-07 -1.29985e-07)
(-5.78251e-07 1.8672e-07 -1.42159e-07)
(-2.57618e-07 1.13198e-07 -8.88695e-08)
(-2.25361e-06 -1.94496e-07 -8.38302e-08)
(-2.21341e-06 -1.14505e-07 7.82324e-08)
(-2.07986e-06 -4.13729e-08 4.12124e-09)
(-1.95511e-06 -5.09234e-08 -4.42998e-08)
(-1.7255e-06 7.61448e-10 -4.25991e-08)
(-1.5359e-06 4.53899e-08 -1.28204e-07)
(-1.12409e-06 7.61733e-08 -1.70548e-07)
(-6.42545e-07 8.99834e-08 -1.64583e-07)
(-2.0881e-07 9.42421e-08 -7.82457e-08)
(-2.43652e-06 -1.35184e-07 1.59159e-08)
(-2.44065e-06 -6.52667e-08 8.5097e-08)
(-7.40851e-07 2.36957e-08 9.48138e-08)
(-6.46156e-07 -8.22894e-08 8.97454e-09)
(-6.18774e-07 -1.64457e-08 -2.05698e-08)
(-6.14293e-07 -1.13138e-07 9.28952e-08)
(-6.45276e-07 -2.14848e-08 -4.49067e-08)
(-5.97214e-07 6.001e-08 -4.17188e-09)
(-4.11685e-07 7.165e-08 -6.61535e-08)
(-2.79134e-07 8.46157e-08 -7.61938e-08)
(-1.04742e-07 6.92935e-08 -3.25403e-08)
(-1.25273e-06 3.43763e-08 3.94314e-08)
(-1.14642e-06 -6.27119e-08 3.30359e-08)
(-1.09925e-06 -9.07516e-08 -6.32519e-08)
(-1.4264e-06 -1.96148e-07 -1.19399e-07)
(-1.16566e-06 -7.63888e-08 -8.03668e-08)
(-1.11905e-06 1.6895e-08 -4.13923e-08)
(-7.1775e-07 1.28289e-07 -9.64614e-08)
(-4.90595e-07 1.28552e-07 -1.26828e-07)
(-1.77853e-07 5.87935e-08 -7.08913e-08)
(-1.93931e-06 -2.7266e-07 -6.23273e-08)
(-1.89953e-06 -2.42032e-07 7.26355e-08)
(-1.6399e-06 -1.68831e-07 -9.02427e-09)
(-1.60186e-06 -7.69057e-08 -5.6119e-08)
(-1.38892e-06 -4.13579e-08 -3.96859e-08)
(-1.24868e-06 -1.72518e-08 -1.51147e-07)
(-8.6252e-07 -1.66211e-08 -1.52558e-07)
(-4.55432e-07 3.99929e-08 -1.47574e-07)
(-2.4958e-07 3.79873e-08 -9.37856e-08)
(-2.16624e-06 -2.06576e-07 -1.8576e-07)
(-2.11044e-06 -1.56652e-07 -6.31126e-08)
(-2.00659e-06 -7.21734e-08 -5.93104e-08)
(-1.64666e-06 -1.11468e-07 -3.20614e-08)
(-3.22092e-07 -5.16958e-08 5.68211e-08)
(-4.19581e-07 -2.16793e-08 -1.71721e-08)
(-3.5783e-07 3.81279e-08 3.08991e-08)
(-4.83442e-07 -6.29156e-08 5.94415e-08)
(-5.39952e-07 -6.26569e-09 -1.96747e-08)
(-4.11495e-07 -1.23413e-08 1.60183e-08)
(-2.75346e-07 5.56943e-08 -4.29141e-08)
(-1.72093e-07 7.39781e-08 -6.57898e-08)
(-6.34528e-08 4.46682e-08 -4.16905e-08)
(-7.242e-07 -1.36133e-08 8.90299e-08)
(-7.17824e-07 -8.7315e-08 -4.20136e-08)
(-1.93064e-06 3.11139e-07 3.57718e-07)
(-1.15043e-06 -2.52726e-07 2.03754e-08)
(-9.69255e-07 -3.4467e-07 4.7215e-08)
(-7.35636e-07 -2.82178e-09 -5.71614e-08)
(-6.10557e-07 2.1457e-08 -5.49197e-08)
(-2.42522e-07 5.61078e-08 -5.89219e-08)
(-1.05944e-07 2.07084e-08 -5.03554e-08)
(-8.51625e-07 -2.15248e-07 2.29128e-08)
(-9.01038e-07 -1.38883e-07 1.96985e-09)
(-8.82917e-07 -1.33143e-07 -7.71777e-09)
(-8.22704e-07 -1.1581e-08 -3.46254e-08)
(-8.60104e-07 -1.55318e-07 -5.54683e-09)
(-9.17143e-07 -6.3685e-08 -1.23942e-07)
(-6.12917e-07 -5.12429e-08 -1.1714e-07)
(-3.38996e-07 -7.57279e-09 -7.01883e-08)
(-1.53453e-07 1.06388e-08 -6.81163e-08)
(-1.36185e-06 -2.91907e-07 1.99645e-08)
(-1.21945e-06 -2.42394e-07 -1.99792e-08)
(-1.22284e-06 -1.06182e-07 -2.92305e-09)
(-9.81916e-07 -2.44637e-08 -3.40606e-08)
(-9.81122e-07 -9.55346e-08 -5.63368e-08)
(-8.51955e-07 -1.1042e-07 -1.98308e-07)
)
;

boundaryField
{
    inlet
    {
        type            calculated;
        value           nonuniform 0();
    }
    outlet
    {
        type            calculated;
        value           nonuniform List<vector> 
12
(
(-8.58776e-07 2.68124e-07 -6.45751e-08)
(-3.88544e-07 2.49979e-07 -8.94462e-08)
(-3.32337e-07 6.83837e-08 -1.11712e-07)
(-1.81747e-07 1.1585e-07 -5.17703e-08)
(-2.57618e-07 1.13198e-07 -8.88695e-08)
(-2.0881e-07 9.42421e-08 -7.82457e-08)
(-1.04742e-07 6.92935e-08 -3.25403e-08)
(-1.77853e-07 5.87935e-08 -7.08913e-08)
(-2.4958e-07 3.79873e-08 -9.37856e-08)
(-6.34528e-08 4.46682e-08 -4.16905e-08)
(-1.05944e-07 2.07084e-08 -5.03554e-08)
(-1.53453e-07 1.06388e-08 -6.81163e-08)
)
;
    }
    wall
    {
        type            calculated;
        value           nonuniform List<vector> 
66
(
(-3.22092e-07 -5.16958e-08 5.68211e-08)
(-7.242e-07 -1.36133e-08 8.90299e-08)
(-8.51625e-07 -2.15248e-07 2.29128e-08)
(-1.36185e-06 -2.91907e-07 1.99645e-08)
(-4.19581e-07 -2.16793e-08 -1.71721e-08)
(-7.17824e-07 -8.7315e-08 -4.20136e-08)
(-9.01038e-07 -1.38883e-07 1.96985e-09)
(-1.21945e-06 -2.42394e-07 -1.99792e-08)
(-3.5783e-07 3.81279e-08 3.08991e-08)
(-1.93064e-06 3.11139e-07 3.57718e-07)
(-8.82917e-07 -1.33143e-07 -7.71777e-09)
(-1.22284e-06 -1.06182e-07 -2.92305e-09)
(-4.83442e-07 -6.29156e-08 5.94415e-08)
(-1.15043e-06 -2.52726e-07 2.03754e-08)
(-8.22704e-07 -1.1581e-08 -3.46254e-08)
(-9.81916e-07 -2.44637e-08 -3.40606e-08)
(-5.39952e-07 -6.26569e-09 -1.96747e-08)
(-9.69255e-07 -3.4467e-07 4.7215e-08)
(-8.60104e-07 -1.55318e-07 -5.54683e-09)
(-9.81122e-07 -9.55346e-08 -5.63368e-08)
(-4.11495e-07 -1.23413e-08 1.60183e-08)
(-7.35636e-07 -2.82178e-09 -5.71614e-08)
(-9.17143e-07 -6.3685e-08 -1.23942e-07)
(-8.51955e-07 -1.1042e-07 -1.98308e-07)
(-2.75346e-07 5.56943e-08 -4.29141e-08)
(-6.10557e-07 2.1457e-08 -5.49197e-08)
(-6.12917e-07 -5.12429e-08 -1.1714e-07)
(-1.72093e-07 7.39781e-08 -6.57898e-08)
(-2.42522e-07 5.61078e-08 -5.89219e-08)
(-3.38996e-07 -7.57279e-09 -7.01883e-08)
(-6.34528e-08 4.46682e-08 -4.16905e-08)
(-1.05944e-07 2.07084e-08 -5.03554e-08)
(-1.53453e-07 1.06388e-08 -6.81163e-08)
(-8.34987e-07 -9.60596e-09 1.53555e-07)
(-7.40851e-07 2.36957e-08 9.48138e-08)
(-3.22092e-07 -5.16958e-08 5.68211e-08)
(-8.40787e-07 -1.21931e-07 1.33025e-07)
(-6.46156e-07 -8.22894e-08 8.97454e-09)
(-4.19581e-07 -2.16793e-08 -1.71721e-08)
(-9.18142e-07 -1.7594e-08 3.17012e-08)
(-6.18774e-07 -1.64457e-08 -2.05698e-08)
(-3.5783e-07 3.81279e-08 3.08991e-08)
(-1.11619e-06 1.27428e-07 1.01767e-08)
(-6.74463e-07 1.98981e-08 -1.46996e-08)
(-6.14293e-07 -1.13138e-07 9.28952e-08)
(-4.83442e-07 -6.29156e-08 5.94415e-08)
(-9.92219e-07 1.01249e-07 7.33927e-08)
(-6.77919e-07 -2.81845e-09 -1.11624e-07)
(-6.45276e-07 -2.14848e-08 -4.49067e-08)
(-5.39952e-07 -6.26569e-09 -1.96747e-08)
(-1.10081e-06 1.07478e-07 8.85653e-08)
(-6.10215e-07 5.03777e-08 -2.85974e-08)
(-5.97214e-07 6.001e-08 -4.17188e-09)
(-4.11495e-07 -1.23413e-08 1.60183e-08)
(-5.22623e-07 8.5479e-08 -5.67951e-09)
(-4.98329e-07 8.48523e-08 -5.31423e-08)
(-4.11685e-07 7.165e-08 -6.61535e-08)
(-2.75346e-07 5.56943e-08 -4.29141e-08)
(-3.79468e-07 9.46669e-08 -7.21147e-08)
(-2.78317e-07 5.18535e-08 -5.19427e-08)
(-2.79134e-07 8.46157e-08 -7.61938e-08)
(-1.72093e-07 7.39781e-08 -6.57898e-08)
(-8.58776e-07 2.68124e-07 -6.45751e-08)
(-1.81747e-07 1.1585e-07 -5.17703e-08)
(-1.04742e-07 6.92935e-08 -3.25403e-08)
(-6.34528e-08 4.46682e-08 -4.16905e-08)
)
;
    }
    procBoundary5to1
    {
        type            processor;
        value           nonuniform List<vector> 
32
(
(-1.10198e-06 1.21079e-07 -5.10503e-09)
(-1.06296e-06 1.6275e-07 1.26931e-07)
(-1.19661e-06 1.71472e-07 1.08092e-07)
(-6.96207e-07 8.58682e-08 1.54601e-08)
(-3.90385e-07 1.20155e-07 -7.14092e-08)
(-2.1942e-07 1.5674e-07 -3.58877e-08)
(-2.18399e-06 1.29645e-08 8.83871e-08)
(-1.96375e-06 1.12099e-07 8.97986e-09)
(-1.78667e-06 2.87833e-07 7.4365e-08)
(-1.90587e-06 6.63587e-08 2.24385e-07)
(-1.07502e-06 1.27718e-07 -2.41884e-08)
(-6.09741e-07 1.18254e-07 -1.2549e-07)
(-2.69909e-07 1.27462e-07 -4.78719e-08)
(-2.78418e-06 -4.22207e-09 1.16802e-07)
(-2.63756e-06 1.42366e-07 7.866e-08)
(-2.47472e-06 6.99151e-08 2.45561e-08)
(-2.35694e-06 8.36375e-08 2.8645e-08)
(-2.09398e-06 1.24446e-07 2.40919e-08)
(-1.1428e-06 1.6083e-08 -1.46012e-07)
(-7.44938e-07 6.70165e-08 -1.74007e-07)
(-3.70002e-07 4.14612e-08 -6.37501e-08)
(-1.25174e-06 -4.96179e-08 6.23318e-08)
(-9.41731e-07 -2.45391e-07 2.06764e-07)
(-9.57631e-07 -5.09443e-08 8.98592e-08)
(-9.57631e-07 -5.09443e-08 8.98592e-08)
(-9.57631e-07 -5.09443e-08 8.98592e-08)
(-2.12616e-06 -3.36482e-08 4.42353e-08)
(-2.09554e-06 -9.06529e-08 1.16566e-07)
(-2.09554e-06 -9.06529e-08 1.16566e-07)
(-2.09554e-06 -9.06529e-08 1.16566e-07)
(-2.55834e-06 -1.43785e-07 9.98381e-09)
(-2.55834e-06 -1.43785e-07 9.98381e-09)
)
;
    }
    procBoundary5to4
    {
        type            processor;
        value           nonuniform List<vector> 
12
(
(-7.5417e-07 5.30999e-08 5.52137e-08)
(-1.90344e-06 -4.48745e-08 7.98636e-08)
(-2.13356e-06 -1.66948e-07 -8.10982e-08)
(-2.35485e-06 -6.87397e-08 2.85769e-09)
(-6.41765e-07 -3.32754e-08 -1.23736e-08)
(-1.20355e-06 -6.09834e-08 1.19768e-08)
(-1.62652e-06 -2.52133e-07 -9.14654e-08)
(-1.89676e-06 -1.03523e-07 -1.73432e-07)
(-3.4866e-07 -5.03274e-09 2.7455e-08)
(-7.14804e-07 -7.88287e-08 3.81966e-08)
(-8.64579e-07 -2.56508e-07 -4.03793e-08)
(-1.36748e-06 -1.54061e-07 -2.7806e-08)
)
;
    }
    procBoundary5to7
    {
        type            processor;
        value           nonuniform List<vector> 
44
(
(-2.73604e-06 -7.44389e-08 9.12416e-08)
(-2.62004e-06 -4.89406e-08 6.54713e-08)
(-2.45122e-06 -1.35128e-07 1.68498e-08)
(-2.20741e-06 -2.1008e-08 -1.44456e-08)
(-2.06833e-06 8.46076e-08 1.07472e-07)
(-1.33265e-06 -2.00244e-08 -1.09222e-07)
(-8.0894e-07 2.90933e-08 -1.44061e-07)
(-2.80685e-07 6.45541e-08 -1.26992e-07)
(-2.66797e-06 -1.07082e-07 5.83049e-08)
(-2.73604e-06 -7.44389e-08 9.12416e-08)
(-2.38062e-06 -9.0138e-08 1.7821e-08)
(-2.09936e-06 -1.08415e-07 4.39746e-09)
(-1.69761e-06 4.01302e-08 -6.64441e-08)
(-1.72019e-06 -7.99859e-08 -1.24241e-07)
(-1.18185e-06 -2.26094e-08 -1.4061e-07)
(-6.69538e-07 4.8696e-08 -1.54102e-07)
(-2.44476e-07 5.41939e-08 -1.00732e-07)
(-2.34351e-06 -8.86682e-08 5.54781e-08)
(-2.38062e-06 -9.0138e-08 1.7821e-08)
(-2.34537e-06 -1.04179e-08 6.48428e-08)
(-2.38062e-06 -9.0138e-08 1.7821e-08)
(-2.09936e-06 -1.08415e-07 4.39746e-09)
(-1.44945e-06 -7.254e-08 -1.29423e-07)
(-1.33883e-06 -7.60731e-08 -1.92587e-07)
(-8.88529e-07 -2.38143e-08 -1.58709e-07)
(-5.70539e-07 -1.10538e-08 -1.66919e-07)
(-2.08207e-07 1.09783e-08 -7.27303e-08)
(-1.9355e-06 -1.85172e-07 1.47595e-08)
(-2.12088e-06 -3.96654e-08 1.19988e-07)
(-1.90335e-06 7.62227e-08 1.65749e-07)
(-1.44945e-06 -7.254e-08 -1.29423e-07)
(-1.54942e-06 -5.08438e-08 -3.12381e-08)
(-1.44945e-06 -7.254e-08 -1.29423e-07)
(-1.33883e-06 -7.60731e-08 -1.92587e-07)
(-7.17831e-07 -7.65112e-08 -2.3067e-07)
(-5.47764e-07 -1.15057e-08 -1.25888e-07)
(-1.36615e-07 1.74662e-08 -5.02151e-08)
(-1.24969e-06 -3.00382e-07 2.01404e-08)
(-1.30802e-06 -2.2409e-07 -2.3594e-09)
(-1.17376e-06 -7.90494e-08 -6.00338e-09)
(-9.51853e-07 -8.15005e-08 -5.22432e-08)
(-8.96839e-07 -1.27078e-07 -7.01845e-08)
(-7.17831e-07 -7.65112e-08 -2.3067e-07)
(-1.07636e-06 -1.47128e-07 -4.01306e-08)
)
;
    }
}


// ************************************************************************* //
