/*--------------------------------*- C++ -*----------------------------------*\
| =========                 |                                                 |
| \\      /  F ield         | OpenFOAM: The Open Source CFD Toolbox           |
|  \\    /   O peration     | Version:  4.x                                   |
|   \\  /    A nd           | Web:      www.OpenFOAM.org                      |
|    \\/     M anipulation  |                                                 |
\*---------------------------------------------------------------------------*/
FoamFile
{
    version     2.0;
    format      ascii;
    class       volScalarField;
    location    "39";
    object      QWallFluid;
}
// * * * * * * * * * * * * * * * * * * * * * * * * * * * * * * * * * * * * * //

dimensions      [1 -1 -3 0 0 0 0];

internalField   nonuniform List<scalar> 
108
(
8.27334e+08
4.17316e+08
8.36733e+08
4.39475e+08
8.49212e+08
4.54457e+08
8.60265e+08
4.58307e+08
8.72714e+08
0
0
0
0
0
0
0
0
0
0
0
0
0
0
0
0
0
0
0
0
0
0
0
0
0
0
0
8.2633e+08
4.19796e+08
8.37328e+08
4.37147e+08
8.45016e+08
4.50726e+08
8.54965e+08
4.43501e+08
8.53532e+08
0
0
0
0
0
0
0
0
0
0
0
0
0
0
0
0
0
0
0
0
0
0
0
0
0
0
0
1.6582e+09
9.1104e+08
1.72883e+09
1.03756e+09
1.77359e+09
1.10411e+09
1.80559e+09
1.15741e+09
1.85801e+09
8.23983e+08
4.23241e+08
8.37723e+08
4.5813e+08
8.536e+08
4.79794e+08
8.67397e+08
4.96163e+08
8.85757e+08
8.16256e+08
4.00711e+08
8.17517e+08
4.06876e+08
8.25956e+08
4.17584e+08
8.38413e+08
4.31036e+08
8.53856e+08
8.07846e+08
3.94253e+08
8.11364e+08
3.90917e+08
8.16891e+08
4.02165e+08
8.34185e+08
4.27442e+08
8.51979e+08
)
;

boundaryField
{
    inlet
    {
        type            calculated;
        value           uniform 0;
    }
    outlet
    {
        type            calculated;
        value           nonuniform 0();
    }
    wall
    {
        type            calculated;
        value           uniform 0;
    }
    procBoundary4to0
    {
        type            processor;
        value           nonuniform List<scalar> 
36
(
8.34175e+08
4.12776e+08
8.46112e+08
4.38222e+08
8.55789e+08
4.47305e+08
8.6275e+08
4.42494e+08
8.63443e+08
0
0
0
0
0
0
0
0
0
0
0
0
0
0
0
0
0
0
0
0
0
0
0
0
0
0
0
)
;
    }
    procBoundary4to5
    {
        type            processor;
        value           nonuniform List<scalar> 
12
(
4.52432e+08
0
0
0
4.24225e+08
0
0
0
1.22379e+09
5.08857e+08
4.37009e+08
4.29297e+08
)
;
    }
    procBoundary4to6
    {
        type            processor;
        value           nonuniform List<scalar> 
27
(
0
0
0
0
0
0
0
0
0
0
0
0
0
0
0
0
0
0
8.16727e+08
4.09263e+08
8.18623e+08
4.07929e+08
8.19495e+08
4.03945e+08
8.2068e+08
3.86966e+08
8.31825e+08
)
;
    }
}


// ************************************************************************* //
