/*--------------------------------*- C++ -*----------------------------------*\
| =========                 |                                                 |
| \\      /  F ield         | OpenFOAM: The Open Source CFD Toolbox           |
|  \\    /   O peration     | Version:  4.x                                   |
|   \\  /    A nd           | Web:      www.OpenFOAM.org                      |
|    \\/     M anipulation  |                                                 |
\*---------------------------------------------------------------------------*/
FoamFile
{
    version     2.0;
    format      ascii;
    class       volVectorField;
    location    "34.5";
    object      impParticleForces;
}
// * * * * * * * * * * * * * * * * * * * * * * * * * * * * * * * * * * * * * //

dimensions      [1 1 -2 0 0 0 0];

internalField   nonuniform List<vector> 
132
(
(0.00225876 -2.11511e-05 -8.71444e-05)
(0.00227248 -2.09351e-05 -8.6784e-05)
(0.00231411 -1.99955e-05 -8.5435e-05)
(0.00233112 -1.70298e-05 -8.07736e-05)
(0.00237409 -1.29995e-05 -7.57555e-05)
(0.00240236 -6.60166e-06 -6.91057e-05)
(0.00244021 2.62474e-06 -6.22426e-05)
(0.0024141 1.85143e-05 -5.30452e-05)
(0.00240994 4.68732e-05 -4.40288e-05)
(0.00227983 -1.89353e-05 -8.90932e-05)
(0.00230971 -1.91602e-05 -8.98085e-05)
(0.00235715 -1.8552e-05 -8.8805e-05)
(0.00237443 -1.56338e-05 -8.39159e-05)
(0.0024111 -1.18778e-05 -7.8402e-05)
(0.00243874 -6.20057e-06 -7.13098e-05)
(0.00245635 1.81654e-06 -6.33417e-05)
(0.00245174 1.40334e-05 -5.44023e-05)
(0.00247015 3.24812e-05 -4.60467e-05)
(0.00229495 -1.27799e-05 -9.07482e-05)
(0.00233102 -1.30106e-05 -9.19136e-05)
(0.00237666 -1.22992e-05 -9.0865e-05)
(0.00239435 -9.85412e-06 -8.57778e-05)
(0.00244425 -7.11509e-06 -8.07972e-05)
(0.00243888 -2.33464e-06 -7.1982e-05)
(0.00245643 3.46981e-06 -6.36955e-05)
(0.0024535 1.16909e-05 -5.4544e-05)
(0.00248697 2.20981e-05 -4.66847e-05)
(0.00230408 -3.79179e-06 -9.12046e-05)
(0.00232512 -3.3214e-06 -9.15481e-05)
(0.00236281 -2.33103e-06 -9.01824e-05)
(0.00228984 -2.27561e-05 -8.64815e-05)
(0.00232113 -2.32591e-05 -8.73792e-05)
(0.00236733 -2.26158e-05 -8.63886e-05)
(0.00238916 -1.96445e-05 -8.15666e-05)
(0.00242937 -1.57851e-05 -7.62717e-05)
(0.00244039 -9.37065e-06 -6.88128e-05)
(0.00247355 -1.06536e-06 -6.18038e-05)
(0.00244372 1.21553e-05 -5.25979e-05)
(0.00245559 3.12363e-05 -4.42648e-05)
(0.00231881 -2.07902e-05 -8.89797e-05)
(0.00237335 -2.19877e-05 -9.16225e-05)
(0.00241987 -2.15691e-05 -9.0672e-05)
(0.00243742 -1.85021e-05 -8.52117e-05)
(0.00249247 -1.53868e-05 -8.02944e-05)
(0.0024869 -8.93035e-06 -7.1482e-05)
(0.00251781 -1.79448e-06 -6.39317e-05)
(0.00249165 9.18575e-06 -5.42397e-05)
(0.00250528 2.31609e-05 -4.56839e-05)
(0.00233961 -1.40764e-05 -9.10832e-05)
(0.00238966 -1.48918e-05 -9.35499e-05)
(0.00243663 -1.43372e-05 -9.27795e-05)
(0.0024526 -1.1857e-05 -8.69818e-05)
(0.00249846 -9.08018e-06 -8.15405e-05)
(0.00248601 -4.17477e-06 -7.19464e-05)
(0.00252536 1.05401e-06 -6.43109e-05)
(0.0024786 8.82068e-06 -5.36304e-05)
(0.00248997 1.75931e-05 -4.49354e-05)
(0.00236078 -4.08197e-06 -9.2808e-05)
(0.00238528 -3.72241e-06 -9.34274e-05)
(0.0024407 -2.96503e-06 -9.36081e-05)
(0.0024485 -1.26181e-06 -8.70985e-05)
(0.00251268 6.30242e-07 -8.29303e-05)
(0.00230419 -2.45374e-05 -8.03336e-05)
(0.00233443 -2.51236e-05 -8.1162e-05)
(0.00238712 -2.48846e-05 -8.0665e-05)
(0.002395 -2.16954e-05 -7.56188e-05)
(0.00243189 -1.80832e-05 -7.06844e-05)
(0.00243043 -1.20198e-05 -6.35068e-05)
(0.00246002 -5.1583e-06 -5.71953e-05)
(0.00243051 5.00371e-06 -4.89304e-05)
(0.00243024 1.71308e-05 -4.10142e-05)
(0.00234359 -2.2823e-05 -8.31942e-05)
(0.00238695 -2.39242e-05 -8.49544e-05)
(0.00243447 -2.37358e-05 -8.41549e-05)
(0.00244265 -2.05082e-05 -7.87466e-05)
(0.0024877 -1.74306e-05 -7.38633e-05)
(0.00247015 -1.11105e-05 -6.54195e-05)
(0.00250832 -5.20754e-06 -5.90149e-05)
(0.00247439 3.7517e-06 -5.02589e-05)
(0.00247848 1.36407e-05 -4.20988e-05)
(0.00236245 -1.54241e-05 -8.475e-05)
(0.00239904 -1.60072e-05 -8.63834e-05)
(0.00245456 -1.60385e-05 -8.62683e-05)
(0.00246524 -1.35808e-05 -8.07601e-05)
(0.00250605 -1.10468e-05 -7.54301e-05)
(0.00247617 -5.99198e-06 -6.58486e-05)
(0.00250076 -1.29188e-06 -5.83018e-05)
(0.00244492 5.30254e-06 -4.85707e-05)
(0.00244698 1.1965e-05 -4.02977e-05)
(0.00237478 -4.1264e-06 -8.57882e-05)
(0.00240858 -3.93162e-06 -8.73297e-05)
(0.00246795 -3.24709e-06 -8.7503e-05)
(0.00246532 -1.69001e-06 -8.1085e-05)
(0.00249842 -7.50382e-08 -7.53276e-05)
(0.00247601 2.20168e-06 -6.61239e-05)
(0.00249358 4.70263e-06 -5.8139e-05)
(0.00229803 -2.55398e-05 -6.86777e-05)
(0.0023279 -2.62028e-05 -6.91328e-05)
(0.00238574 -2.63376e-05 -6.88362e-05)
(0.00238403 -2.29304e-05 -6.4157e-05)
(0.00242119 -1.96231e-05 -6.00454e-05)
(0.00241936 -1.4342e-05 -5.42527e-05)
(0.00243616 -8.52873e-06 -4.8154e-05)
(0.00240118 -6.69034e-07 -4.09373e-05)
(0.00241565 7.11504e-06 -3.41378e-05)
(0.00234174 -2.39343e-05 -7.08259e-05)
(0.00239273 -2.55572e-05 -7.22385e-05)
(0.00244426 -2.57455e-05 -7.13992e-05)
(0.00244343 -2.2218e-05 -6.66793e-05)
(0.00246064 -1.85371e-05 -6.14288e-05)
(0.00244457 -1.29988e-05 -5.47103e-05)
(0.00247887 -8.08946e-06 -4.89598e-05)
(0.00242947 -6.38363e-07 -4.1299e-05)
(0.00244214 6.53067e-06 -3.44671e-05)
(0.00236151 -1.6318e-05 -7.19107e-05)
(0.00239566 -1.68075e-05 -7.25405e-05)
(0.00246009 -1.71831e-05 -7.24116e-05)
(0.00244474 -1.42144e-05 -6.687e-05)
(0.00246969 -1.16907e-05 -6.18208e-05)
(0.00244685 -7.23221e-06 -5.45541e-05)
(0.00246239 -2.87564e-06 -4.82015e-05)
(0.0024066 2.29576e-06 -4.02524e-05)
(0.00242211 7.35121e-06 -3.34834e-05)
(0.0023599 -4.21691e-06 -7.18406e-05)
(0.0024042 -3.99938e-06 -7.30972e-05)
(0.00246906 -3.40802e-06 -7.29324e-05)
(0.00245759 -1.91104e-06 -6.7675e-05)
(0.00245902 -3.69291e-07 -6.15806e-05)
(0.00244463 1.50958e-06 -5.47125e-05)
(0.00245439 3.70669e-06 -4.80463e-05)
(0.00239715 6.22034e-06 -4.01943e-05)
(0.00239074 8.81413e-06 -3.32815e-05)
)
;

boundaryField
{
    inlet
    {
        type            zeroGradient;
    }
    outlet
    {
        type            zeroGradient;
    }
    wall
    {
        type            zeroGradient;
    }
    procBoundary0to1
    {
        type            processor;
        value           nonuniform List<vector> 
12
(
(0.0024325 0.000107793 -3.47349e-05)
(0.00246613 6.15148e-05 -3.69991e-05)
(0.00246989 3.53511e-05 -3.75703e-05)
(0.00245578 6.06413e-05 -3.58227e-05)
(0.00249936 4.13455e-05 -3.69712e-05)
(0.00248526 2.73516e-05 -3.63457e-05)
(0.00242078 3.15106e-05 -3.35623e-05)
(0.00245401 2.44296e-05 -3.37587e-05)
(0.00244923 1.83996e-05 -3.27243e-05)
(0.00239045 1.53193e-05 -2.70067e-05)
(0.00242283 1.31991e-05 -2.72257e-05)
(0.00240319 1.17456e-05 -2.64919e-05)
)
;
    }
    procBoundary0to2
    {
        type            processor;
        value           nonuniform List<vector> 
44
(
(0.00240256 -7.71359e-07 -8.65408e-05)
(0.00243928 1.08394e-06 -8.08069e-05)
(0.00243697 3.80333e-06 -7.21298e-05)
(0.00247131 7.19886e-06 -6.4435e-05)
(0.00244761 1.19252e-05 -5.45311e-05)
(0.0024595 1.74704e-05 -4.60089e-05)
(0.00231121 6.10723e-06 -9.07955e-05)
(0.00233826 6.98778e-06 -9.17934e-05)
(0.00240256 -7.71359e-07 -8.65408e-05)
(0.00238238 8.11389e-06 -9.07523e-05)
(0.00240256 -7.71359e-07 -8.65408e-05)
(0.00243928 1.08394e-06 -8.08069e-05)
(0.00249982 2.96456e-06 -7.30257e-05)
(0.00253556 6.12055e-06 -6.51522e-05)
(0.00247927 1.04516e-05 -5.38809e-05)
(0.00250002 1.52439e-05 -4.53965e-05)
(0.00233822 6.88732e-06 -9.01723e-05)
(0.00238568 7.90222e-06 -9.26464e-05)
(0.00245075 9.33484e-06 -9.34016e-05)
(0.00246065 1.00482e-05 -8.74578e-05)
(0.00249982 2.96456e-06 -7.30257e-05)
(0.00249621 1.09794e-05 -8.15053e-05)
(0.00249982 2.96456e-06 -7.30257e-05)
(0.00253556 6.12055e-06 -6.51522e-05)
(0.00244357 8.19392e-06 -4.84857e-05)
(0.0024488 1.18551e-05 -4.02555e-05)
(0.00236334 7.81616e-06 -8.43458e-05)
(0.00239382 8.69962e-06 -8.53672e-05)
(0.00244988 1.0056e-05 -8.54765e-05)
(0.00245351 1.04304e-05 -7.99616e-05)
(0.00247571 1.08791e-05 -7.39014e-05)
(0.00246173 1.08489e-05 -6.5518e-05)
(0.00244357 8.19392e-06 -4.84857e-05)
(0.00248814 1.15784e-05 -5.83158e-05)
(0.00244357 8.19392e-06 -4.84857e-05)
(0.0024488 1.18551e-05 -4.02555e-05)
(0.00236644 8.5184e-06 -7.18288e-05)
(0.00241421 9.69141e-06 -7.29933e-05)
(0.00246513 1.11779e-05 -7.27361e-05)
(0.00244453 1.07839e-05 -6.71379e-05)
(0.00246242 1.11125e-05 -6.20371e-05)
(0.00243184 1.05695e-05 -5.47521e-05)
(0.00244906 1.08885e-05 -4.85685e-05)
(0.00240832 1.08492e-05 -4.12448e-05)
)
;
    }
    procBoundary0to4
    {
        type            processor;
        value           nonuniform List<vector> 
36
(
(0.002295 -2.61162e-05 -5.54055e-05)
(0.00232176 -2.66645e-05 -5.53106e-05)
(0.00238028 -2.69852e-05 -5.43281e-05)
(0.00238803 -2.40127e-05 -5.12671e-05)
(0.00241992 -2.07946e-05 -4.75353e-05)
(0.00240154 -1.55771e-05 -4.27075e-05)
(0.00243021 -1.10166e-05 -3.75777e-05)
(0.00239535 -4.85556e-06 -3.16085e-05)
(0.00241118 4.10245e-07 -2.5366e-05)
(0.00234331 -2.46567e-05 -5.62611e-05)
(0.00237795 -2.56245e-05 -5.61102e-05)
(0.00244177 -2.64986e-05 -5.50293e-05)
(0.00244365 -2.32354e-05 -5.19178e-05)
(0.00246248 -1.98191e-05 -4.77055e-05)
(0.00243495 -1.44481e-05 -4.25701e-05)
(0.00245341 -1.00441e-05 -3.72629e-05)
(0.00241129 -4.10048e-06 -3.14541e-05)
(0.00244282 6.2269e-07 -2.55523e-05)
(0.00236461 -1.69349e-05 -5.66527e-05)
(0.00241049 -1.80439e-05 -5.6809e-05)
(0.00245533 -1.80187e-05 -5.49446e-05)
(0.00244561 -1.52733e-05 -5.14204e-05)
(0.00245929 -1.265e-05 -4.68758e-05)
(0.00242345 -8.40748e-06 -4.17549e-05)
(0.00243721 -4.81851e-06 -3.66216e-05)
(0.0024064 -7.73572e-07 -3.11839e-05)
(0.00240842 3.10318e-06 -2.56716e-05)
(0.0023521 -4.34297e-06 -5.63308e-05)
(0.00240261 -4.61435e-06 -5.61398e-05)
(0.00245449 -4.00872e-06 -5.4501e-05)
(0.00243329 -2.83645e-06 -5.08993e-05)
(0.00245544 -1.64868e-06 -4.65596e-05)
(0.0024222 2.58687e-07 -4.17118e-05)
(0.00244503 2.06769e-06 -3.66477e-05)
(0.00238522 3.99621e-06 -3.14593e-05)
(0.0023922 5.79555e-06 -2.63856e-05)
)
;
    }
    procBoundary0to6
    {
        type            processor;
        value           uniform (0.00242178 1.13562e-05 -3.46933e-05);
    }
    procBoundary0to7
    {
        type            processor;
        value           uniform (0.00240009 1.1225e-05 -2.67331e-05);
    }
}


// ************************************************************************* //
