/*--------------------------------*- C++ -*----------------------------------*\
| =========                 |                                                 |
| \\      /  F ield         | OpenFOAM: The Open Source CFD Toolbox           |
|  \\    /   O peration     | Version:  4.x                                   |
|   \\  /    A nd           | Web:      www.OpenFOAM.org                      |
|    \\/     M anipulation  |                                                 |
\*---------------------------------------------------------------------------*/
FoamFile
{
    version     2.0;
    format      ascii;
    class       volScalarField;
    location    "34.5";
    object      magGField;
}
// * * * * * * * * * * * * * * * * * * * * * * * * * * * * * * * * * * * * * //

dimensions      [1 -2 -1 0 0 0 0];

internalField   nonuniform List<scalar> 
132
(
100.366
48.9958
110.7
65.4042
120.041
77.5046
127.694
86.6519
136.031
100.802
46.2246
108.044
58.5559
115.408
68.0466
121.336
75.1716
126.861
101.456
44.632
106.54
54.7777
111.682
62.3632
116.416
66.9361
118.612
101.09
44.6149
106.731
99.289
42.4005
102.917
48.9374
106.647
54.0108
110.17
57.3081
113.311
99.0096
37.6156
100.059
38.6043
100.4
37.5863
101.157
35.4761
102.297
98.2138
34.4402
98.0228
31.898
96.7808
27.1414
95.8383
20.6601
96.2229
97.219
34.8727
97.4801
31.9367
95.9895
97.5177
40.9092
99.9693
45.4791
103.05
49.5496
106.201
52.0469
109.808
96.9657
35.3243
96.6368
33.0371
96.0537
29.7629
96.2619
25.763
97.6906
95.9051
31.593
93.8691
22.9404
91.7646
15.5506
91.4844
11.3673
92.3848
95.3504
29.5207
92.2705
18.8876
89.998
10.8055
89.4064
97.124
40.5964
98.936
43.832
100.436
45.1614
101.586
45.1438
101.995
96.0966
33.1638
93.9789
27.642
92.4601
22.2891
90.9683
15.3661
90.0344
95.2611
29.5868
90.6365
17.1183
87.0874
6.15011
84.7495
3.35659e-05
82.4317
94.8417
28.7296
89.3748
15.1045
86.4828
5.21155
84.9305
0.0112881
84.0936
)
;

boundaryField
{
    inlet
    {
        type            calculated;
        value           uniform 67;
    }
    outlet
    {
        type            calculated;
        value           nonuniform 0();
    }
    wall
    {
        type            calculated;
        value           uniform 0;
    }
    procBoundary0to1
    {
        type            processor;
        value           nonuniform List<scalar> 
12
(
93.125
79.5645
67.8658
58.649
33.2127
12.4258
52.9157
23.7854
8.39816
40.5657
6.77803
3.14354e-05
)
;
    }
    procBoundary0to2
    {
        type            processor;
        value           nonuniform List<scalar> 
44
(
54.7654
111.392
62.9263
116.266
67.7911
120.744
99.1829
42.1688
54.7654
103.837
54.7654
111.392
26.4027
95.3949
21.8607
96.9516
97.6501
34.557
96.8123
30.2156
26.4027
95.5631
26.4027
95.3949
6.4583
89.2362
95.7674
32.6082
93.4692
24.7497
91.706
17.5652
6.4583
90.7509
6.4583
89.2362
94.817
29.3786
90.4759
19.5025
88.1764
12.0212
86.7175
5.99268
)
;
    }
    procBoundary0to4
    {
        type            processor;
        value           nonuniform List<scalar> 
36
(
96.3201
40.8898
97.6519
43.5737
99.4271
45.3913
101.007
45.8198
102.797
94.6808
33.2735
92.4471
25.9598
91.0609
20.8391
91.242
15.9527
91.5604
94.3912
29.7804
89.9823
19.0559
88.0552
11.4462
87.7326
4.25938
88.085
94.3694
29.4707
88.7903
17.2446
85.8129
6.93709
84.4556
0.159407
84.7668
)
;
    }
    procBoundary0to6
    {
        type            processor;
        value           uniform 85.5537;
    }
    procBoundary0to7
    {
        type            processor;
        value           uniform 2.80612e-05;
    }
}


// ************************************************************************* //
