/*--------------------------------*- C++ -*----------------------------------*\
| =========                 |                                                 |
| \\      /  F ield         | OpenFOAM: The Open Source CFD Toolbox           |
|  \\    /   O peration     | Version:  4.x                                   |
|   \\  /    A nd           | Web:      www.OpenFOAM.org                      |
|    \\/     M anipulation  |                                                 |
\*---------------------------------------------------------------------------*/
FoamFile
{
    version     2.0;
    format      ascii;
    class       volScalarField;
    location    "34.5";
    object      p;
}
// * * * * * * * * * * * * * * * * * * * * * * * * * * * * * * * * * * * * * //

dimensions      [1 -1 -2 0 0 0 0];

internalField   nonuniform List<scalar> 
132
(
5742.59
5726.45
5737.18
5705.95
5727.26
5689.27
5721.08
5671.03
5714.58
5742.67
5726.06
5736
5707.42
5728.03
5689.38
5721.3
5670.97
5714.67
5742.75
5725.99
5735.9
5707.96
5728.59
5689.65
5721.63
5671.37
5714.95
5742.75
5725.85
5735.94
3865.28
3848.55
3858.53
3829.8
3850.52
3811.74
3843.77
3793.46
3837.12
3865.55
3848.48
3858.63
3830.17
3851.06
3811.8
3844.08
3793.3
3837.28
3865.8
3848.52
3858.85
3830.49
3851.57
3812.09
3844.47
3793.55
3837.65
3865.83
3848.37
3858.9
3830.5
3851.7
1987.69
1970.49
1980.58
1952.38
1973.04
1934.02
1965.9
1915.42
1959.03
1988.13
1970.66
1981.02
1952.57
1973.54
1934.1
1966.3
1915.38
1959.22
1988.48
1970.83
1981.43
1952.82
1973.91
1934.25
1966.47
1915.59
1959.39
1988.72
1970.97
1981.68
1952.95
1974.17
1934.44
1966.64
110.299
93.0533
103.26
75.1491
95.9523
56.9131
88.6785
38.6557
81.8248
110.87
93.3187
103.755
75.2825
96.3434
57.0629
89.058
38.6315
82.0459
111.3
93.6897
104.284
75.7554
96.8225
57.6405
89.1892
39.677
81.7751
111.479
93.7866
104.414
75.7861
96.7961
57.7495
89.107
39.579
81.7018
)
;

boundaryField
{
    inlet
    {
        type            calculated;
        value           nonuniform List<scalar> 
16
(
5742.59
5742.67
5742.75
5742.75
3865.28
3865.55
3865.8
3865.83
1987.69
1988.13
1988.48
1988.72
110.299
110.87
111.3
111.479
)
;
    }
    outlet
    {
        type            calculated;
        value           nonuniform 0();
    }
    wall
    {
        type            calculated;
        value           nonuniform List<scalar> 
66
(
6681.54
6681.63
6681.71
6681.71
6665.4
6665.02
6664.94
6664.81
6676.13
6674.96
6674.86
6674.9
6644.9
6646.37
6646.92
6666.22
6666.99
6667.54
6628.23
6628.34
6628.61
6660.04
6660.26
6660.59
6609.99
6609.93
6610.32
6653.54
6653.63
6653.9
5742.59
3865.28
1987.69
110.299
5726.45
3848.55
1970.49
93.0533
5737.18
3858.53
1980.58
103.26
5705.95
3829.8
1952.38
75.1491
5727.26
3850.52
1973.04
95.9523
5689.27
3811.74
1934.02
56.9131
5721.08
3843.77
1965.9
88.6785
5671.03
3793.46
1915.42
38.6557
5714.58
3837.12
1959.03
81.8248
)
;
    }
    procBoundary0to1
    {
        type            processor;
        value           nonuniform List<scalar> 
12
(
5652.58
5652.2
5652.67
3774.93
3774.56
3775.15
1896.72
1896.45
1897.19
20.3701
20.4032
22.1665
)
;
    }
    procBoundary0to2
    {
        type            processor;
        value           nonuniform List<scalar> 
44
(
5708.05
5728.72
5689.65
5721.68
5671
5714.93
5742.71
5725.77
5708.05
5735.94
5708.05
5728.72
3811.95
3844.39
3793.08
3837.44
3865.72
3848.41
3858.87
3830.53
3811.95
3851.69
3811.95
3844.39
1915.86
1959.46
1988.49
1970.81
1981.49
1953.02
1974.11
1934.84
1915.86
1966.73
1915.86
1959.46
111.364
93.573
104.181
75.5424
96.6869
57.3895
89.1947
39.2317
)
;
    }
    procBoundary0to4
    {
        type            processor;
        value           nonuniform List<scalar> 
36
(
-1767.49
-1784.88
-1774.63
-1802.77
-1782.07
-1821.03
-1789.43
-1839.59
-1796.56
-1766.85
-1784.58
-1774.02
-1802.55
-1781.61
-1820.95
-1789.07
-1839.45
-1796.23
-1766.38
-1784.26
-1773.65
-1802.22
-1781.33
-1820.5
-1788.87
-1838.79
-1796.27
-1766.19
-1783.98
-1773.39
-1801.85
-1781.03
-1819.99
-1788.76
-1838.25
-1796.33
)
;
    }
    procBoundary0to6
    {
        type            processor;
        value           uniform 81.8716;
    }
    procBoundary0to7
    {
        type            processor;
        value           uniform 22.1519;
    }
}


// ************************************************************************* //
