/*--------------------------------*- C++ -*----------------------------------*\
| =========                 |                                                 |
| \\      /  F ield         | OpenFOAM: The Open Source CFD Toolbox           |
|  \\    /   O peration     | Version:  4.x                                   |
|   \\  /    A nd           | Web:      www.OpenFOAM.org                      |
|    \\/     M anipulation  |                                                 |
\*---------------------------------------------------------------------------*/
FoamFile
{
    version     2.0;
    format      ascii;
    class       volScalarField;
    location    "6.5";
    object      Cs;
}
// * * * * * * * * * * * * * * * * * * * * * * * * * * * * * * * * * * * * * //

dimensions      [1 -3 0 0 0 0 0];

internalField   nonuniform List<scalar> 
114
(
334.864
334.902
334.935
334.99
335.019
335.724
335.119
335.148
335.186
335.182
335.192
335.173
335.201
335.091
335.143
335.181
335.206
335.21
335.188
335.159
335.116
334.893
334.903
334.925
334.943
334.975
334.998
335.026
335.039
335.122
335.076
335.127
335.168
335.174
335.183
335.159
335.15
335.125
335.111
335.05
335.096
335.136
335.163
335.184
335.174
335.137
335.093
335.044
335.034
335.074
334.917
334.924
334.933
334.939
334.95
334.96
334.983
334.993
335.395
335.043
335.084
335.108
335.092
335.091
335.068
335.09
335.077
335.17
335.028
335.054
335.082
335.098
335.133
335.144
335.163
335.146
335.166
335.013
335.057
335.103
335.111
334.907
334.908
334.912
334.916
334.923
334.928
334.942
334.948
337.414
334.928
334.935
334.942
334.948
334.958
334.969
334.987
334.998
335.236
334.918
334.923
334.932
334.943
334.959
334.978
335.003
335.023
335.364
334.921
334.933
334.944
334.958
334.976
334.998
)
;

boundaryField
{
    inlet
    {
        type            calculated;
        value           nonuniform 0();
    }
    outlet
    {
        type            calculated;
        value           uniform 335;
    }
    wall
    {
        type            calculated;
        value           nonuniform List<scalar> 
66
(
334.907
334.928
334.918
334.921
334.908
334.935
334.923
334.933
334.912
334.942
334.932
334.944
334.916
334.948
334.943
334.958
334.923
334.958
334.959
334.976
334.928
334.969
334.978
334.998
334.942
334.987
335.003
334.948
334.998
335.023
337.414
335.236
335.364
334.893
334.917
334.907
334.903
334.924
334.908
334.925
334.933
334.912
334.864
334.943
334.939
334.916
334.902
334.975
334.95
334.923
334.935
334.998
334.96
334.928
334.99
335.026
334.983
334.942
335.019
335.039
334.993
334.948
335.724
335.122
335.395
337.414
)
;
    }
    procBoundary5to1
    {
        type            processor;
        value           nonuniform List<scalar> 
32
(
334.827
334.889
334.942
335.006
335.039
337.141
335.131
335.168
335.21
335.217
335.223
335.196
335.459
335.1
335.163
335.207
335.227
335.226
335.213
335.19
335.336
334.81
334.819
334.84
334.84
334.84
335.012
335.068
335.068
335.068
335.038
335.038
)
;
    }
    procBoundary5to4
    {
        type            processor;
        value           nonuniform List<scalar> 
12
(
334.883
335.011
335.002
334.992
334.913
334.993
334.989
334.974
334.908
334.921
334.915
334.916
)
;
    }
    procBoundary5to7
    {
        type            processor;
        value           nonuniform List<scalar> 
44
(
335.041
335.078
335.119
335.151
335.155
335.108
335.05
335.012
334.994
335.041
335.116
335.16
335.164
335.069
335.019
335.01
335.005
335.067
335.116
335.1
335.116
335.16
335.154
335.162
335.16
335.13
335.113
335.023
335.047
335.083
335.154
335.102
335.154
335.162
335.028
335.047
336.091
334.92
334.943
334.984
335.02
335.047
335.028
335.063
)
;
    }
}


// ************************************************************************* //
