/*--------------------------------*- C++ -*----------------------------------*\
| =========                 |                                                 |
| \\      /  F ield         | OpenFOAM: The Open Source CFD Toolbox           |
|  \\    /   O peration     | Version:  4.x                                   |
|   \\  /    A nd           | Web:      www.OpenFOAM.org                      |
|    \\/     M anipulation  |                                                 |
\*---------------------------------------------------------------------------*/
FoamFile
{
    version     2.0;
    format      ascii;
    class       volScalarField;
    location    "6.5";
    object      Deff;
}
// * * * * * * * * * * * * * * * * * * * * * * * * * * * * * * * * * * * * * //

dimensions      [0 2 -1 0 0 0 0];

internalField   nonuniform List<scalar> 
114
(
9.79818e-08
9.78837e-08
9.78802e-08
9.78376e-08
9.78198e-08
9.78286e-08
9.79854e-08
9.79943e-08
9.79284e-08
9.78462e-08
9.77473e-08
9.77258e-08
9.77936e-08
9.79133e-08
9.79591e-08
9.78497e-08
9.78512e-08
9.78487e-08
9.77469e-08
9.77901e-08
9.77269e-08
9.80604e-08
9.80753e-08
9.79145e-08
9.79124e-08
9.78017e-08
9.77464e-08
9.77308e-08
9.77891e-08
9.78207e-08
9.79455e-08
9.79059e-08
9.77905e-08
9.77815e-08
9.76755e-08
9.7644e-08
9.77077e-08
9.76224e-08
9.77232e-08
9.7863e-08
9.79469e-08
9.77878e-08
9.77046e-08
9.7684e-08
9.76349e-08
9.76008e-08
9.76153e-08
9.76981e-08
9.77846e-08
9.78845e-08
9.79977e-08
9.78757e-08
9.78867e-08
9.77892e-08
9.77374e-08
9.77166e-08
9.76922e-08
9.77033e-08
9.77756e-08
9.79645e-08
9.78176e-08
9.78422e-08
9.7744e-08
9.7642e-08
9.76183e-08
9.75549e-08
9.76486e-08
9.77503e-08
9.78467e-08
9.7826e-08
9.77241e-08
9.76906e-08
9.74958e-08
9.75419e-08
9.75013e-08
9.74988e-08
9.75519e-08
9.79559e-08
9.76948e-08
9.7598e-08
9.76127e-08
9.82423e-08
9.80079e-08
9.80565e-08
9.78465e-08
9.78191e-08
9.78515e-08
9.77513e-08
9.77675e-08
9.7819e-08
9.80208e-08
9.79267e-08
9.79926e-08
9.78419e-08
9.7689e-08
9.77046e-08
9.77723e-08
9.7699e-08
9.77685e-08
9.79309e-08
9.78622e-08
9.76967e-08
9.76951e-08
9.76274e-08
9.75504e-08
9.7634e-08
9.76294e-08
9.76575e-08
9.78971e-08
9.78521e-08
9.76765e-08
9.7684e-08
9.75048e-08
9.75769e-08
)
;

boundaryField
{
    inlet
    {
        type            calculated;
        value           nonuniform 0();
    }
    outlet
    {
        type            calculated;
        value           uniform 0;
    }
    wall
    {
        type            calculated;
        value           uniform 0;
    }
    procBoundary5to1
    {
        type            processor;
        value           uniform 0;
    }
    procBoundary5to4
    {
        type            processor;
        value           uniform 0;
    }
    procBoundary5to7
    {
        type            processor;
        value           uniform 0;
    }
}


// ************************************************************************* //
