/*--------------------------------*- C++ -*----------------------------------*\
| =========                 |                                                 |
| \\      /  F ield         | OpenFOAM: The Open Source CFD Toolbox           |
|  \\    /   O peration     | Version:  4.x                                   |
|   \\  /    A nd           | Web:      www.OpenFOAM.org                      |
|    \\/     M anipulation  |                                                 |
\*---------------------------------------------------------------------------*/
FoamFile
{
    version     2.0;
    format      ascii;
    class       volVectorField;
    location    "6.5";
    object      GField;
}
// * * * * * * * * * * * * * * * * * * * * * * * * * * * * * * * * * * * * * //

dimensions      [1 -2 -1 0 0 0 0];

internalField   nonuniform List<vector> 
114
(
(128.835 2.221 10.33)
(75.1269 -3.40332 2.25414)
(141.185 8.28353 5.07654)
(61.5432 -12.7122 -8.08099)
(173.77 14.5011 -0.286354)
(32.1619 -58.5857 -66.9888)
(17.1079 -0.422022 -3.53062)
(92.5241 3.86959 -6.3859)
(12.1848 -1.42428 -3.75686)
(93.4223 5.26367 -5.69334)
(20.6323 -9.57304 -8.71745)
(92.1546 9.80235 -5.90436)
(27.3389 -63.424 -26.2523)
(87.611 1.7928 -1.092)
(8.97134 -1.16642 -2.23257)
(89.1569 1.72209 -5.81942)
(13.7558 -3.39123 -5.59813)
(92.6028 -1.84924 -8.33692)
(18.0968 -8.67747 -9.33973)
(87.992 0.848202 -5.32292)
(17.6711 -15.3161 -12.8636)
(58.4171 -1.14593 5.34512)
(107.343 0.0949738 9.09538)
(58.0932 -1.26242 4.85325)
(111.839 2.41645 7.66262)
(52.1443 -3.41845 2.12238)
(112.092 7.22697 4.43961)
(40.4231 -8.15211 -1.91479)
(104.88 12.213 0.937701)
(22.5872 -14.7569 -17.7375)
(5.05849 -0.27938 -0.607264)
(78.2367 3.5339 -3.67462)
(2.65258 -0.285028 -0.69896)
(77.6133 4.26984 -2.96466)
(-0.00265558 -0.000178405 -7.32233e-05)
(76.658 2.54604 -3.28197)
(6.24984 -3.70238 -2.15338)
(66.5061 7.78794 -0.784349)
(15.238 -15.8656 -7.38078)
(3.78666 -0.442255 -0.398238)
(79.6532 -0.160812 -2.74154)
(9.82852 -2.09864 -2.34694)
(79.1927 0.998991 -8.74336)
(12.9551 -4.86146 -4.93522)
(75.6374 -0.98061 -6.7154)
(9.88688 -5.30176 -3.66518)
(63.4339 1.78838 -0.965464)
(17.3479 -8.93444 -4.61879)
(6.18449 0.114275 -0.736948)
(73.8716 -1.30401 -4.11886)
(67.669 -2.16068 5.99926)
(113.623 -0.403101 8.09714)
(72.3493 -2.93409 6.70931)
(123.762 3.26873 7.45217)
(72.265 -5.03295 7.8903)
(136.099 9.58764 4.60518)
(59.8891 -13.806 14.0724)
(159.648 17.2138 -5.1472)
(30.559 -50.2475 34.0974)
(5.86999 -0.165526 -0.149384)
(83.3448 0.146716 -1.67349)
(0.396397 -0.0369991 -0.0326234)
(86.8303 1.28946 -3.84648)
(3.40689 -0.790896 -0.171193)
(91.8504 5.86434 -5.82083)
(15.4977 -8.06365 1.45754)
(88.9131 13.5943 -7.52982)
(29.134 -53.7657 11.7428)
(19.0161 -1.79922 0.497332)
(87.0629 -1.01151 -4.29393)
(16.2041 -2.8342 -0.151021)
(88.7562 -0.500241 -7.26438)
(7.70855 -2.73898 0.203161)
(88.8885 -0.779794 -6.70545)
(9.70994 -6.82875 2.0621)
(83.2094 6.25068 -9.39126)
(19.4508 -18.0359 7.60282)
(11.4611 -0.0740592 0.557633)
(72.7437 -1.18896 -0.822227)
(-0.00370435 -0.000265801 -8.21778e-05)
(69.2998 2.11243 -7.22018)
(75.9992 -0.698739 1.42812)
(119.018 1.42209 2.60516)
(82.7014 -1.27482 -0.42902)
(130.66 2.70505 0.831958)
(85.5403 -5.2128 -2.07278)
(150.747 5.31656 -1.19891)
(80.4093 -16.184 -0.867561)
(201.084 10.8351 -3.4949)
(48.4061 -71.9228 2.25052)
(64.6229 -0.429742 0.45376)
(106.885 0.453718 0.725527)
(65.3035 -2.30129 -2.43071)
(110.628 0.31847 -4.41946)
(60.6913 -7.04631 -5.08306)
(112.243 0.462722 -7.87341)
(51.2583 -19.0578 -3.35452)
(110.129 9.82884 -6.72821)
(40.4393 -82.819 1.55936)
(67.049 -3.06918 -0.242461)
(108.354 -2.10007 -0.413076)
(64.9761 -5.53174 -2.00045)
(108.944 -3.03934 -3.10143)
(54.0312 -9.73478 -3.34729)
(104.563 -1.26891 -5.9541)
(35.6076 -13.1263 -2.72054)
(94.9162 4.72194 -3.81323)
(21.0029 -16.3744 -2.05791)
(61.3282 -2.80065 2.81412)
(101.993 -4.00609 1.95999)
(60.2344 -2.98725 0.407514)
(98.1869 -1.03759 -3.53613)
(45.9442 -3.20763 -1.44795)
(89.0385 4.06959 -4.13829)
)
;

boundaryField
{
    inlet
    {
        type            calculated;
        value           nonuniform 0();
    }
    outlet
    {
        type            calculated;
        value           nonuniform List<vector> 
12
(
(70.4172 -128.271 -146.669)
(60.0717 -139.361 -57.6842)
(38.9887 -33.7927 -28.3817)
(49.5649 -32.3822 -38.9228)
(33.6283 -35.0133 -16.2884)
(38.348 -19.7499 -10.21)
(67.1784 -110.46 74.957)
(64.1825 -118.446 25.8695)
(43.3516 -40.1981 16.945)
(105.51 -156.769 4.90543)
(88.9768 -182.223 3.43099)
(46.4935 -36.2476 -4.55554)
)
;
    }
    wall
    {
        type            calculated;
        value           uniform (0 0 0);
    }
    procBoundary5to1
    {
        type            processor;
        value           nonuniform List<vector> 
32
(
(121.297 1.76607 12.3968)
(64.5514 -3.07784 7.22602)
(129.456 6.27559 7.00509)
(54.0876 -10.8845 5.74639)
(161.336 11.7381 -1.01979)
(35.4334 -58.4489 -60.4004)
(13.012 -0.842543 -1.85674)
(92.6667 2.34915 -6.1902)
(8.33234 -1.4521 -1.64337)
(91.2033 2.12335 -2.03307)
(14.614 -7.6854 -2.37602)
(89.0733 9.47081 -4.45424)
(31.5214 -58.3641 -12.5504)
(88.2872 1.85774 -5.6936)
(7.39837 -0.39673 -1.52796)
(87.6149 3.93302 -6.05281)
(7.65186 -0.675528 -1.76052)
(86.8717 0.0415 -4.33448)
(7.40626 -1.26265 -1.06681)
(86.6379 -1.60743 -7.6814)
(20.8528 -5.24016 -2.79027)
(74.348 -1.12446 9.21553)
(121.058 -0.167341 13.3172)
(78.7728 0.0570063 7.69741)
(78.7728 0.0570063 7.69741)
(78.7728 0.0570063 7.69741)
(21.5091 -0.0664601 -1.70065)
(90.2951 0.187095 -2.52002)
(90.2951 0.187095 -2.52002)
(90.2951 0.187095 -2.52002)
(14.9022 -1.04476 -1.78537)
(14.9022 -1.04476 -1.78537)
)
;
    }
    procBoundary5to4
    {
        type            processor;
        value           nonuniform List<vector> 
12
(
(101.14 -1.65802 7.82335)
(78.7407 0.153292 -0.968243)
(80.6116 -0.00357375 -0.0186826)
(75.8985 -0.33465 -0.16429)
(105.835 -3.04663 7.8791)
(83.0241 -0.215372 1.96034)
(85.5744 0.538722 1.97081)
(77.412 -0.542657 2.25678)
(109.008 -0.680986 3.50502)
(102.617 0.0462222 4.10227)
(104.125 -1.17675 1.96931)
(100.39 -3.82351 3.55851)
)
;
    }
    procBoundary5to7
    {
        type            processor;
        value           nonuniform List<vector> 
44
(
(83.3697 1.3727 -3.19573)
(20.6354 1.04026 -6.65226)
(80.3662 -0.703602 -8.28176)
(18.6697 0.896371 -10.5815)
(69.7041 0.358099 -4.03372)
(8.65396 0.984928 -6.89104)
(46.8369 0.113376 3.85306)
(5.28928 0.987455 -5.08935)
(18.5218 0.251988 -2.25223)
(83.3697 1.3727 -3.19573)
(1.7937 0.0863011 -0.508901)
(65.8345 0.32632 -4.07977)
(1.92061 0.139743 -0.892176)
(48.8572 1.49929 -1.24274)
(-0.00237005 -7.2997e-05 -0.000175696)
(31.8825 1.32654 3.78977)
(6.3481 0.273984 -2.52205)
(4.95011 0.471139 -0.654967)
(1.7937 0.0863011 -0.508901)
(80.3153 0.172607 -5.77319)
(1.7937 0.0863011 -0.508901)
(65.8345 0.32632 -4.07977)
(-0.00285437 -0.000221028 -0.000209083)
(66.3462 0.379795 -5.03725)
(1.51483 -0.116804 0.176247)
(57.9401 3.20239 -1.55614)
(17.9674 -2.73224 -0.582115)
(14.0933 1.12559 -0.565171)
(86.0336 3.37375 -5.82076)
(5.494 0.779172 -0.611508)
(-0.00285437 -0.000221028 -0.000209083)
(87.6551 -2.05187 -8.69653)
(-0.00285437 -0.000221028 -0.000209083)
(66.3462 0.379795 -5.03725)
(35.7463 -6.84924 2.3493)
(80.6307 8.47647 -3.4923)
(34.7771 -14.4206 -1.54458)
(33.4688 0.334923 -1.42062)
(89.4454 -1.65355 -1.64407)
(19.5679 0.756224 -2.09139)
(84.9289 -1.2091 -4.96807)
(4.00658 0.466123 -0.747472)
(35.7463 -6.84924 2.3493)
(79.7161 -2.34978 -0.1168)
)
;
    }
}


// ************************************************************************* //
