/*--------------------------------*- C++ -*----------------------------------*\
| =========                 |                                                 |
| \\      /  F ield         | OpenFOAM: The Open Source CFD Toolbox           |
|  \\    /   O peration     | Version:  4.x                                   |
|   \\  /    A nd           | Web:      www.OpenFOAM.org                      |
|    \\/     M anipulation  |                                                 |
\*---------------------------------------------------------------------------*/
FoamFile
{
    version     2.0;
    format      ascii;
    class       volScalarField;
    location    "6.5";
    object      rho;
}
// * * * * * * * * * * * * * * * * * * * * * * * * * * * * * * * * * * * * * //

dimensions      [1 -3 0 0 0 0 0];

internalField   nonuniform List<scalar> 
114
(
6697.28
6698.03
6698.7
6699.81
6700.38
6714.48
6702.38
6702.96
6703.72
6703.63
6703.83
6703.46
6704.01
6701.82
6702.85
6703.62
6704.12
6704.19
6703.76
6703.18
6702.32
6697.85
6698.06
6698.49
6698.86
6699.5
6699.96
6700.51
6700.79
6702.45
6701.52
6702.54
6703.35
6703.48
6703.67
6703.18
6703
6702.49
6702.22
6701
6701.92
6702.72
6703.26
6703.68
6703.48
6702.74
6701.86
6700.88
6700.68
6701.47
6698.35
6698.49
6698.65
6698.77
6698.99
6699.19
6699.67
6699.85
6707.89
6700.86
6701.67
6702.16
6701.84
6701.82
6701.36
6701.79
6701.54
6703.41
6700.56
6701.08
6701.65
6701.95
6702.65
6702.88
6703.26
6702.92
6703.33
6700.26
6701.14
6702.06
6702.22
6698.13
6698.17
6698.23
6698.32
6698.45
6698.55
6698.85
6698.95
6748.29
6698.55
6698.7
6698.83
6698.97
6699.17
6699.38
6699.74
6699.96
6704.72
6698.35
6698.46
6698.63
6698.86
6699.18
6699.55
6700.05
6700.45
6707.28
6698.42
6698.67
6698.88
6699.16
6699.53
6699.96
)
;

boundaryField
{
    inlet
    {
        type            calculated;
        value           nonuniform 0();
    }
    outlet
    {
        type            calculated;
        value           uniform 6700;
    }
    wall
    {
        type            calculated;
        value           nonuniform List<scalar> 
66
(
6698.13
6698.55
6698.35
6698.42
6698.17
6698.7
6698.46
6698.67
6698.23
6698.83
6698.63
6698.88
6698.32
6698.97
6698.86
6699.16
6698.45
6699.17
6699.18
6699.53
6698.55
6699.38
6699.55
6699.96
6698.85
6699.74
6700.05
6698.95
6699.96
6700.45
6748.29
6704.72
6707.28
6697.85
6698.35
6698.13
6698.06
6698.49
6698.17
6698.49
6698.65
6698.23
6697.28
6698.86
6698.77
6698.32
6698.03
6699.5
6698.99
6698.45
6698.7
6699.96
6699.19
6698.55
6699.81
6700.51
6699.67
6698.85
6700.38
6700.79
6699.85
6698.95
6714.48
6702.45
6707.89
6748.29
)
;
    }
    procBoundary5to1
    {
        type            processor;
        value           nonuniform List<scalar> 
32
(
6696.54
6697.77
6698.83
6700.12
6700.77
6742.83
6702.61
6703.36
6704.21
6704.34
6704.47
6703.92
6709.18
6702.01
6703.27
6704.14
6704.54
6704.53
6704.25
6703.81
6706.72
6696.2
6696.38
6696.79
6696.79
6696.79
6700.24
6701.37
6701.37
6701.37
6700.77
6700.77
)
;
    }
    procBoundary5to4
    {
        type            processor;
        value           nonuniform List<scalar> 
12
(
6697.65
6700.22
6700.04
6699.85
6698.26
6699.86
6699.78
6699.47
6698.15
6698.43
6698.31
6698.32
)
;
    }
    procBoundary5to7
    {
        type            processor;
        value           nonuniform List<scalar> 
44
(
6700.81
6701.56
6702.39
6703.02
6703.09
6702.16
6700.99
6700.24
6699.87
6700.81
6702.33
6703.2
6703.28
6701.38
6700.38
6700.2
6700.1
6701.35
6702.33
6701.99
6702.33
6703.2
6703.08
6703.23
6703.21
6702.59
6702.27
6700.46
6700.95
6701.66
6703.08
6702.05
6703.08
6703.23
6700.56
6700.94
6721.83
6698.4
6698.86
6699.67
6700.39
6700.94
6700.56
6701.26
)
;
    }
}


// ************************************************************************* //
