/*--------------------------------*- C++ -*----------------------------------*\
  =========                 |
  \\      /  F ield         | OpenFOAM: The Open Source CFD Toolbox
   \\    /   O peration     | Website:  https://openfoam.org
    \\  /    A nd           | Version:  4.x
     \\/     M anipulation  |
\*---------------------------------------------------------------------------*/
FoamFile
{
    version     2.0;
    format      ascii;
    class       vectorField;
    location    0;
    object      v;
}
// * * * * * * * * * * * * * * * * * * * * * * * * * * * * * * * * * * * * * //

356
(
( 2.17139e-10 -4.69299e-09 -1.06507e-09 )  
( 6.12547e-09 -6.43146e-09 -4.3693e-09 )  
( -7.94203e-10 3.94783e-09 1.74947e-08 )  
( 3.24015e-09 -6.48153e-09 -4.04318e-09 )  
( 1.64898e-11 -4.04435e-09 6.75686e-09 )  
( 1.50681e-09 -1.48467e-09 6.72714e-10 )  
( 8.36486e-09 -3.92053e-09 1.21617e-08 )  
( 4.45381e-09 -6.0533e-10 2.12228e-09 )  
( 2.3722e-09 -1.32226e-09 -4.88455e-10 )  
( 4.31662e-09 -3.30149e-09 -4.40126e-09 )  
( -1.15744e-10 -9.94468e-10 -8.01219e-10 )  
( 8.53734e-10 -2.41176e-10 7.39387e-10 )  
( 7.7897e-09 -1.44834e-09 1.00994e-08 )  
( 8.67206e-09 -2.226e-09 1.50317e-08 )  
( 5.58959e-09 -8.28923e-09 -5.45228e-09 )  
( -4.80526e-10 -2.20556e-09 8.71761e-09 )  
( 8.55176e-09 -1.84415e-09 1.0633e-08 )  
( 8.41737e-09 -2.23799e-09 1.36315e-08 )  
( 7.36989e-09 -1.1202e-08 -3.05294e-09 )  
( 2.4251e-09 1.88204e-09 1.11481e-08 )  
( 7.77447e-09 -2.50009e-09 1.63323e-08 )  
( -3.35386e-09 1.87121e-09 1.01394e-08 )  
( 5.46305e-09 -4.47207e-09 -4.2265e-09 )  
( 5.07978e-09 -5.70882e-09 1.93279e-09 )  
( 6.05933e-09 -4.43618e-10 9.88626e-09 )  
( 6.04986e-09 -4.60125e-09 -2.03894e-09 )  
( 3.46381e-09 -4.50474e-09 -3.23762e-09 )  
( 6.39845e-09 -3.31049e-09 8.12818e-09 )  
( 7.59607e-10 -4.21186e-09 -3.95108e-09 )  
( 4.22887e-09 -1.83924e-09 2.39066e-09 )  
( 3.1736e-09 -2.76257e-09 6.96826e-09 )  
( 5.57168e-09 -9.38047e-09 -2.06075e-10 )  
( 3.01393e-09 2.8266e-09 1.42111e-08 )  
( 1.97219e-09 -2.99166e-09 -3.59361e-09 )  
( 4.81962e-09 -3.9715e-09 2.28335e-09 )  
( 1.42503e-09 -1.53909e-09 1.73156e-10 )  
( 8.20559e-09 -1.22606e-08 -9.57417e-10 )  
( 3.82636e-12 -1.4011e-09 9.07573e-10 )  
( 3.3986e-09 -2.62042e-09 -5.83383e-10 )  
( 1.53581e-09 -1.33442e-09 9.88284e-10 )  
( 3.84329e-09 -2.17099e-09 -1.88575e-10 )  
( 5.90151e-09 -7.95442e-09 -3.17897e-10 )  
( 5.05582e-09 -5.12036e-09 3.65643e-09 )  
( 3.33846e-09 3.43384e-10 1.21583e-08 )  
( 1.00221e-08 -8.64107e-09 1.22475e-08 )  
( 1.38262e-09 -1.03309e-09 -6.08187e-10 )  
( -6.90556e-09 -1.30703e-09 6.96613e-09 )  
( 1.72632e-09 -2.04534e-09 5.59028e-10 )  
( 4.69318e-09 -3.74643e-09 7.14637e-09 )  
( 6.18193e-09 -4.26859e-09 -3.17486e-09 )  
( 6.57101e-09 -1.07952e-08 -4.83124e-09 )  
( 2.04761e-09 -2.8573e-09 1.5139e-09 )  
( 5.84368e-09 7.95784e-10 7.53834e-09 )  
( 6.73866e-09 -9.33138e-09 -3.24463e-11 )  
( 5.49444e-09 -1.00039e-08 -5.81321e-09 )  
( 5.94695e-09 -8.79122e-09 -2.21371e-09 )  
( 6.29691e-09 -6.50658e-09 -4.60325e-09 )  
( 5.92656e-09 -1.07563e-08 5.78733e-09 )  
( 2.93083e-09 -3.71706e-09 -4.13718e-09 )  
( 4.56619e-09 -6.30838e-09 -5.41427e-09 )  
( 3.46519e-09 -2.15723e-09 -2.83785e-09 )  
( 2.6326e-09 -3.04506e-09 3.53603e-09 )  
( -4.04164e-09 -2.52429e-09 -1.24968e-09 )  
( 4.14876e-09 -4.57571e-09 -2.51843e-09 )  
( 3.74074e-09 -2.29687e-09 -1.05126e-09 )  
( 9.10232e-10 -1.507e-09 -2.10291e-09 )  
( 8.93013e-09 6.06038e-09 1.57617e-08 )  
( 5.38239e-09 -2.73258e-09 3.87364e-09 )  
( 4.7928e-09 -1.60957e-09 4.1179e-09 )  
( 4.23371e-09 -6.24628e-10 3.01987e-09 )  
( 9.66638e-09 -8.0583e-09 8.3137e-09 )  
( 8.70209e-09 -3.70103e-09 1.30747e-08 )  
( 5.83424e-09 -1.00455e-08 -5.54771e-10 )  
( 1.30303e-09 -1.04003e-09 6.67919e-09 )  
( 7.10256e-10 -1.72569e-09 -1.26269e-09 )  
( 2.51267e-09 -1.66863e-09 -6.58691e-10 )  
( 2.27646e-09 -5.18476e-10 1.05057e-09 )  
( 6.22613e-09 -5.9843e-09 -3.7408e-09 )  
( 8.99249e-09 -1.0527e-08 8.1759e-09 )  
( 6.65635e-09 -8.62494e-09 1.0651e-09 )  
( 1.38884e-09 -6.88858e-10 -4.94284e-10 )  
( 2.46192e-09 -4.72635e-09 -3.62853e-09 )  
( 4.50643e-09 -7.1163e-09 -4.59077e-09 )  
( 6.45719e-09 -4.84458e-09 -3.11804e-09 )  
( -2.04663e-09 -2.96587e-09 -3.2349e-09 )  
( 2.78287e-09 -2.7305e-09 -6.97779e-10 )  
( 4.097e-09 -5.78447e-09 -5.17943e-09 )  
( 8.66084e-09 -5.80922e-09 9.8658e-09 )  
( -1.30144e-09 3.89172e-10 1.18826e-10 )  
( -9.85169e-10 2.04142e-11 2.73593e-10 )  
( 9.04944e-09 -1.78704e-09 8.6231e-09 )  
( 2.00782e-09 -6.32792e-09 -1.97852e-09 )  
( 1.68141e-10 -7.4453e-11 4.29829e-09 )  
( -8.84452e-10 -9.72546e-11 4.67325e-09 )  
( 2.23744e-09 -3.05951e-09 -8.85209e-10 )  
( 4.4878e-09 -7.60064e-09 -6.13661e-09 )  
( -1.02768e-09 -9.37734e-10 3.97973e-10 )  
( 6.94104e-09 -7.12553e-09 -3.76127e-09 )  
( -5.90331e-10 -2.44135e-09 7.90499e-09 )  
( 4.86369e-09 -2.39845e-09 5.83101e-09 )  
( 7.72884e-09 1.55672e-09 1.51042e-08 )  
( 8.17541e-09 9.63904e-11 1.47752e-08 )  
( 1.64609e-09 -1.18646e-09 -1.41109e-10 )  
( 4.12711e-09 -7.04699e-10 1.92581e-09 )  
( -9.71106e-09 -2.93584e-09 8.19521e-09 )  
( -3.25489e-10 -1.16745e-09 -6.56806e-10 )  
( 6.44033e-09 -1.04925e-08 -4.24872e-09 )  
( 9.97342e-10 9.30248e-10 5.37124e-09 )  
( 5.46233e-09 -6.29164e-09 4.61809e-10 )  
( 2.35956e-09 -2.70182e-10 5.13107e-09 )  
( 9.39312e-10 -1.17722e-09 3.62351e-09 )  
( 2.33846e-09 -1.51953e-09 2.79993e-09 )  
( 7.04012e-09 -5.76988e-09 7.91069e-09 )  
( 1.28257e-09 1.6017e-09 7.29263e-09 )  
( 4.73179e-09 -2.45464e-09 -1.56503e-09 )  
( -1.60992e-09 6.97125e-10 9.10231e-09 )  
( 3.27228e-09 -3.18851e-09 -7.07211e-10 )  
( 6.86622e-09 -4.07716e-09 1.11233e-08 )  
( 5.72346e-09 3.67465e-09 1.61984e-08 )  
( 5.62254e-09 -2.00976e-09 4.98153e-09 )  
( 8.56507e-10 -4.97809e-10 3.46204e-09 )  
( 2.3974e-09 -2.54428e-11 1.68714e-09 )  
( 1.6853e-09 -1.87309e-09 -1.2323e-09 )  
( 1.05924e-08 -7.11965e-09 7.7668e-09 )  
( 2.13983e-09 -3.40126e-09 -1.4691e-09 )  
( -8.28951e-10 -1.34267e-09 -1.36018e-09 )  
( 5.8984e-09 -4.92637e-09 5.06851e-09 )  
( 8.37109e-09 -1.00454e-08 -4.25643e-10 )  
( 5.14639e-09 -7.34382e-09 -7.08937e-11 )  
( 6.98908e-09 -6.49698e-09 -4.78428e-09 )  
( 9.71958e-09 -2.81332e-09 1.23837e-08 )  
( 2.10819e-09 -1.08888e-09 1.76148e-11 )  
( 5.13116e-09 -1.16021e-08 -5.00857e-09 )  
( -7.29266e-10 -1.80624e-09 1.46366e-12 )  
( 2.15112e-09 -1.01157e-09 -3.34031e-10 )  
( 7.74689e-11 -3.21291e-09 2.06401e-10 )  
( 1.91747e-09 -8.22312e-10 2.68759e-09 )  
( 3.6439e-09 -6.59101e-09 -5.45867e-09 )  
( 1.56804e-09 -5.92471e-10 2.28925e-09 )  
( 4.4926e-09 -2.51408e-09 -1.31075e-09 )  
( 3.83583e-11 -1.31391e-09 -1.94488e-09 )  
( 5.43397e-09 -9.72415e-09 -9.00347e-10 )  
( -3.75448e-09 -7.04606e-10 4.73285e-10 )  
( 9.76387e-09 5.21828e-10 7.87352e-09 )  
( 1.86826e-10 -1.23166e-09 -1.92662e-09 )  
( 3.59175e-09 -4.14313e-09 1.61348e-09 )  
( 6.70061e-09 -4.46189e-09 3.0013e-10 )  
( 3.31867e-09 -6.24126e-09 1.04089e-09 )  
( 2.2926e-09 -8.37756e-10 5.19919e-09 )  
( 5.98512e-10 -1.57481e-09 2.17707e-10 )  
( 3.57895e-09 -4.49192e-09 -4.0996e-09 )  
( 5.10837e-09 4.78153e-09 1.29097e-08 )  
( 2.66601e-09 -1.04197e-09 1.79033e-09 )  
( -5.58523e-11 -2.69048e-09 -2.66126e-09 )  
( 8.93809e-09 -1.98298e-09 1.18546e-08 )  
( -4.64782e-10 -7.32183e-09 3.48786e-11 )  
( 8.12556e-09 -3.30067e-09 6.81503e-09 )  
( 1.43814e-09 -5.66107e-09 -5.67821e-09 )  
( 1.28153e-10 -2.70063e-09 -9.62136e-10 )  
( 5.57958e-09 -5.46604e-09 7.06319e-09 )  
( 3.38701e-09 -5.33593e-09 -4.02975e-09 )  
( 4.4379e-09 -9.28093e-09 -2.52166e-10 )  
( 1.71024e-09 -1.72842e-09 -1.20273e-09 )  
( 4.79788e-09 -5.03929e-09 3.02501e-10 )  
( 5.53135e-09 -3.0365e-09 5.26721e-09 )  
( -8.84461e-10 8.85431e-10 1.01882e-08 )  
( 5.42127e-09 -4.12616e-09 -1.6912e-09 )  
( 2.2848e-09 -5.38375e-10 7.28654e-09 )  
( 5.61866e-09 -9.70557e-10 8.37581e-09 )  
( 3.44962e-09 -5.9078e-09 3.35249e-09 )  
( 3.08039e-09 -9.31158e-10 2.88157e-09 )  
( 1.48181e-09 3.77909e-11 2.15699e-09 )  
( 2.66448e-09 -1.72554e-09 6.32013e-09 )  
( 2.25188e-11 3.40229e-10 8.29752e-09 )  
( 8.65403e-10 -1.1731e-09 1.6115e-10 )  
( 7.88272e-09 2.42679e-09 1.1353e-08 )  
( 6.51885e-09 -4.64061e-09 8.2405e-09 )  
( 1.73187e-09 -2.3342e-09 -2.57557e-09 )  
( 2.25307e-09 -4.05049e-10 7.74684e-09 )  
( 2.48808e-09 -3.74503e-09 -3.87653e-09 )  
( 1.58788e-09 6.41638e-10 3.16193e-09 )  
( 3.87732e-10 -9.38215e-10 -6.00877e-11 )  
( 9.13595e-09 -7.78156e-10 1.10519e-08 )  
( 5.60666e-09 -4.95781e-09 -1.39292e-09 )  
( 4.22345e-09 -3.70782e-09 6.45789e-09 )  
( 3.43325e-09 -1.86457e-09 5.748e-10 )  
( 3.79342e-09 -1.90917e-09 4.27127e-09 )  
( 2.46297e-09 -3.55029e-09 -3.81589e-09 )  
( -2.19582e-09 -1.26878e-09 9.15756e-09 )  
( 5.33826e-09 -3.22875e-09 6.06741e-09 )  
( 4.88804e-10 -3.16509e-10 4.15071e-10 )  
( 5.96332e-09 -1.95366e-09 1.1954e-08 )  
( -4.10508e-10 -4.01882e-10 1.27998e-10 )  
( 5.59506e-09 -3.55441e-09 8.73258e-09 )  
( 5.03197e-09 -5.375e-09 1.09578e-10 )  
( 2.97055e-09 -2.22711e-09 7.99891e-09 )  
( 2.61937e-09 2.23569e-10 4.868e-09 )  
( 2.44327e-09 -8.8128e-10 2.8075e-10 )  
( 2.46653e-09 -6.80367e-10 8.19415e-11 )  
( 2.35865e-09 -1.98479e-10 1.43513e-09 )  
( 1.26197e-09 -2.21486e-10 2.72468e-10 )  
( 3.01953e-09 -1.77697e-09 5.8374e-09 )  
( -6.69399e-10 1.29937e-10 8.03522e-11 )  
( -1.148e-10 2.15158e-10 1.07647e-10 )  
( 1.28465e-09 -2.49727e-09 7.16019e-09 )  
( 4.98192e-09 -1.58244e-09 5.63948e-09 )  
( 5.04815e-09 3.36602e-09 1.3071e-08 )  
( 6.57257e-09 -6.18898e-09 2.16965e-09 )  
( -4.49936e-10 -8.13698e-11 -2.64101e-11 )  
( 3.16895e-09 -8.26177e-09 -1.15504e-09 )  
( 1.01909e-09 -6.57577e-10 5.00237e-10 )  
( 2.17372e-09 -4.5834e-09 -3.70397e-09 )  
( 2.88597e-10 -9.71637e-10 -2.05655e-10 )  
( 2.05692e-09 -3.06886e-09 -2.33656e-09 )  
( 1.66089e-09 -1.09917e-09 -2.71323e-10 )  
( 1.85851e-10 -2.5902e-09 -2.57546e-09 )  
( 5.0952e-09 2.95849e-09 1.00778e-08 )  
( 2.81124e-09 -4.47968e-09 -3.20868e-09 )  
( 2.70002e-09 -2.97939e-09 6.51767e-09 )  
( 6.79159e-09 -1.93996e-09 9.07254e-09 )  
( 3.92291e-09 -1.65824e-12 3.45986e-09 )  
( 4.91072e-09 -5.17588e-09 1.51639e-09 )  
( 1.54877e-09 -3.56767e-09 -3.17528e-09 )  
( 3.63904e-10 -1.78334e-10 3.88399e-09 )  
( 6.21911e-09 -7.35125e-09 9.62673e-09 )  
( 4.63278e-09 -8.40353e-09 -6.39946e-09 )  
( 5.21055e-09 -1.20975e-08 5.67965e-10 )  
( 2.30763e-09 -6.07478e-09 -6.49601e-09 )  
( -1.57885e-10 -1.43278e-09 -1.56137e-09 )  
( 3.4272e-09 -8.25462e-09 -6.45991e-09 )  
( 5.65586e-09 -1.26035e-08 -9.99502e-11 )  
( 4.50595e-09 -8.99792e-09 4.4278e-09 )  
( 2.0949e-09 -4.79876e-09 -6.1837e-09 )  
( 4.98002e-09 -8.67687e-09 -1.27875e-09 )  
( 3.12785e-09 -5.99514e-09 -7.2566e-09 )  
( 6.54519e-09 -1.074e-08 -3.12765e-09 )  
( 3.81341e-09 -4.93654e-09 8.2621e-09 )  
( -7.33687e-10 -1.12399e-09 -1.74547e-09 )  
( 8.09272e-10 -5.73685e-09 -5.18934e-09 )  
( 3.03382e-09 -4.56181e-09 -4.83607e-09 )  
( 4.50584e-09 -3.38632e-09 1.14317e-08 )  
( -4.59535e-10 -5.40301e-09 -5.95337e-09 )  
( 6.73194e-10 -7.14836e-09 5.2855e-10 )  
( 1.64544e-10 -5.45257e-09 3.35673e-09 )  
( 9.25716e-10 -7.77306e-09 -2.56818e-09 )  
( 2.274e-09 -6.35908e-09 4.89524e-09 )  
( 2.90985e-09 -4.59145e-09 6.12511e-09 )  
( 1.8431e-09 -2.88554e-09 -3.18212e-09 )  
( 3.37866e-09 -2.4476e-09 3.3192e-09 )  
( 4.01821e-09 -6.51591e-09 -5.46481e-09 )  
( -1.91767e-09 2.23861e-10 1.06076e-10 )  
( 3.71717e-09 -3.08368e-09 -2.50902e-09 )  
( 5.07661e-09 -7.38675e-09 -5.84577e-09 )  
( 2.96159e-09 -2.86354e-09 6.17212e-10 )  
( -1.17839e-10 -8.77726e-10 -2.61739e-09 )  
( 6.64458e-09 -9.97598e-10 1.415e-08 )  
( 1.02621e-08 -7.46666e-09 5.31242e-09 )  
( 1.13153e-09 -1.78258e-09 2.89372e-09 )  
( 2.46996e-09 -5.87933e-09 -5.46051e-09 )  
( 1.13893e-09 -1.67524e-09 -2.12855e-10 )  
( 9.05502e-10 -2.16943e-09 -3.79906e-09 )  
( 5.82337e-09 -1.83111e-09 5.36625e-10 )  
( 3.95928e-09 -5.33364e-09 -3.93529e-09 )  
( 6.07916e-09 -8.1501e-09 -4.58229e-09 )  
( 1.53229e-09 -4.13636e-09 -4.88055e-09 )  
( 2.69487e-09 -2.22037e-09 -1.27144e-09 )  
( 2.98915e-09 5.43152e-09 1.67561e-08 )  
( 6.63813e-09 -7.97644e-09 -6.19417e-09 )  
( 5.06607e-09 -1.80397e-09 -3.05606e-09 )  
( 5.12045e-09 -3.8592e-09 4.73606e-09 )  
( 7.51326e-09 -7.46006e-09 9.41752e-09 )  
( 5.72494e-09 -1.27712e-09 1.23641e-08 )  
( 3.32457e-09 -3.98528e-09 8.44912e-09 )  
( 7.23966e-09 3.23419e-09 1.42187e-08 )  
( 6.12479e-09 -9.92129e-09 1.50746e-09 )  
( 5.95493e-09 -2.32747e-09 2.20275e-10 )  
( 6.24338e-10 -1.24036e-09 7.903e-10 )  
( 3.21484e-09 -3.78488e-09 8.5944e-09 )  
( 8.00391e-09 -4.53852e-09 1.0656e-08 )  
( 3.47763e-09 -1.71054e-09 3.92346e-09 )  
( 3.45811e-09 -7.17722e-09 -6.36424e-09 )  
( -5.16837e-10 -2.74905e-10 6.94786e-11 )  
( 4.30936e-09 -1.87225e-09 6.07705e-09 )  
( 4.05802e-09 -9.63815e-09 2.95197e-10 )  
( 6.13619e-09 -3.48197e-09 -1.88024e-09 )  
( 7.35151e-09 -4.84394e-09 -2.15895e-09 )  
( 7.42187e-09 -4.77479e-09 6.39268e-09 )  
( 2.73613e-09 -3.05056e-09 4.27089e-09 )  
( -3.55663e-10 -1.59975e-10 -4.82151e-11 )  
( 2.68809e-09 -2.82605e-09 -3.09147e-09 )  
( 1.49408e-09 -2.49501e-09 -2.9638e-09 )  
( 6.24086e-09 -4.75316e-09 7.10756e-09 )  
( 4.83734e-09 -8.86864e-09 2.80158e-09 )  
( 1.59806e-11 -1.01434e-09 7.83131e-09 )  
( 2.79155e-09 -8.09033e-10 1.18311e-10 )  
( 4.81891e-09 -5.97686e-09 -5.04389e-09 )  
( 8.15676e-09 3.10419e-09 1.45527e-08 )  
( 2.07855e-09 -2.14066e-09 -1.89524e-09 )  
( -3.2076e-10 -7.959e-10 -7.25688e-10 )  
( 3.36511e-09 -2.16634e-10 1.73719e-09 )  
( 4.476e-09 -4.70111e-09 9.97508e-09 )  
( 2.24513e-09 -7.564e-10 1.80466e-10 )  
( 1.84151e-09 -1.60735e-09 -1.30679e-09 )  
( 5.7916e-09 -5.91698e-09 2.93747e-09 )  
( 8.98944e-09 -4.70203e-09 8.18341e-09 )  
( 7.65145e-09 -4.36439e-09 -2.51262e-09 )  
( -4.18873e-10 -1.62931e-09 -4.17561e-10 )  
( 2.45233e-10 -1.18127e-09 -1.76703e-09 )  
( 5.5344e-09 4.113e-10 8.73628e-10 )  
( 4.35698e-09 -8.3019e-09 -6.65404e-09 )  
( -1.7996e-09 -4.98692e-10 -2.53769e-10 )  
( -1.4142e-09 1.70131e-09 8.39377e-10 )  
( 1.90981e-09 -5.70886e-10 1.18171e-08 )  
( 5.56091e-09 2.82559e-09 1.63716e-08 )  
( 5.82548e-09 -8.54529e-09 -6.4857e-09 )  
( -3.16746e-09 4.23985e-09 1.46833e-09 )  
( -2.58374e-09 -1.42653e-09 1.18412e-10 )  
( 6.09786e-09 -1.2453e-08 -7.72467e-09 )  
( 6.02875e-09 -1.26543e-08 -4.4493e-09 )  
( 6.94289e-09 3.97691e-09 1.09596e-08 )  
( 4.26691e-09 1.26987e-09 7.38075e-09 )  
( 2.43867e-10 -1.21344e-10 4.86986e-09 )  
( 5.78759e-09 -1.09716e-08 -6.06486e-10 )  
( 3.0622e-09 -6.92539e-09 -5.82675e-09 )  
( -8.50137e-10 7.5597e-10 1.15522e-10 )  
( 2.11907e-10 -3.16862e-09 -1.75705e-09 )  
( 4.53522e-09 -1.31902e-08 -3.36476e-09 )  
( 2.73274e-09 1.45157e-09 2.1781e-09 )  
( -3.24146e-09 -4.8067e-09 -1.89471e-09 )  
( 7.01471e-09 -4.33102e-09 -8.96708e-10 )  
( -3.03759e-09 2.86832e-09 5.68857e-09 )  
( 5.16637e-09 -5.15213e-09 5.81673e-09 )  
( 1.74264e-08 2.46436e-09 1.58293e-08 )  
( 2.80457e-08 -1.31259e-08 3.82012e-09 )  
( 6.99826e-09 -6.88361e-09 -4.71428e-09 )  
( -1.39503e-09 -2.35378e-09 -1.5587e-09 )  
( 3.66251e-09 -8.33282e-09 -6.78382e-09 )  
( 1.86259e-09 -6.29197e-09 -6.08617e-09 )  
( 3.17388e-09 -9.52747e-09 -7.96543e-09 )  
( 2.74006e-09 4.01562e-09 8.20578e-09 )  
( -1.6773e-09 -4.97525e-09 -6.02983e-10 )  
( 1.54583e-08 -7.77023e-09 2.13411e-09 )  
( 3.90658e-09 5.66727e-09 1.65961e-08 )  
( -2.07665e-09 -4.15102e-10 1.46299e-10 )  
( 7.924e-09 -1.63475e-08 -1.71471e-09 )  
( -9.2753e-10 5.98834e-09 1.28053e-08 )  
( 3.26467e-09 -9.44288e-09 -8.25778e-09 )  
( -2.38374e-09 -9.02868e-10 -5.00931e-10 )  
( 1.32713e-09 -6.3609e-10 2.35897e-09 )  
( 1.04265e-09 -6.4776e-09 -5.54654e-09 )  
( -2.52222e-09 -1.89085e-09 -1.97849e-09 )  
( 7.94683e-09 3.38296e-09 1.01007e-08 )  
( -1.60752e-09 -8.83248e-09 -5.22577e-09 )  
( -1.69525e-09 -1.40033e-09 -5.67712e-10 )  
( 6.63522e-09 -1.17725e-08 -5.92339e-09 )  
( -2.1374e-09 -5.81672e-10 -7.19945e-10 )  
)
