/*--------------------------------*- C++ -*----------------------------------*\
| =========                 |                                                 |
| \\      /  F ield         | OpenFOAM: The Open Source CFD Toolbox           |
|  \\    /   O peration     | Version:  4.x                                   |
|   \\  /    A nd           | Web:      www.OpenFOAM.org                      |
|    \\/     M anipulation  |                                                 |
\*---------------------------------------------------------------------------*/
FoamFile
{
    version     2.0;
    format      ascii;
    class       volVectorField;
    location    "35";
    object      Urel;
}
// * * * * * * * * * * * * * * * * * * * * * * * * * * * * * * * * * * * * * //

dimensions      [0 1 -1 0 0 0 0];

internalField   nonuniform List<vector> 
114
(
(-0.0217643 -7.14801e-05 9.82349e-05)
(-0.0196979 1.67206e-06 6.70774e-05)
(-0.0209562 8.94245e-06 -0.000108509)
(-0.0184855 0.000224857 -0.000121104)
(-0.0192722 0.000368216 -0.000357272)
(-0.0166129 0.000800129 -0.000122329)
(-0.0188277 8.11258e-06 0.000135325)
(-0.020645 -6.97953e-05 3.29561e-05)
(-0.0184948 6.53028e-06 -1.3927e-05)
(-0.0201383 -4.24644e-05 -0.000206313)
(-0.0177826 0.000197414 -0.000191772)
(-0.0188835 0.000206421 -0.000474016)
(-0.0165155 0.000845765 -8.06296e-05)
(-0.0197788 -1.03352e-05 0.000153608)
(-0.0178033 5.79131e-07 9.6234e-05)
(-0.0196565 -3.30455e-05 8.9385e-06)
(-0.0176025 1.87894e-05 -5.03612e-05)
(-0.019285 3.50671e-05 -0.0002142)
(-0.0171119 0.00016665 -0.000204794)
(-0.0183177 0.000238493 -0.000431075)
(-0.0163805 0.000548685 -0.000121342)
(-0.020632 0.00016443 0.000105479)
(-0.0220722 0.000112272 1.96055e-05)
(-0.0204769 7.95823e-05 -4.86747e-05)
(-0.0219992 1.71266e-05 -0.000156518)
(-0.020125 9.537e-05 -0.000276207)
(-0.0216476 4.1342e-05 -0.000408063)
(-0.0192719 0.000366265 -0.000657953)
(-0.0206378 0.000380134 -0.000730963)
(-0.0172137 0.00135515 -0.00154601)
(-0.019002 0.000144428 9.28863e-05)
(-0.0207883 8.24757e-05 2.54175e-05)
(-0.0187791 6.61897e-05 -1.97263e-05)
(-0.0206941 1.3492e-05 -0.000106782)
(-0.0185658 7.01122e-05 -0.000203318)
(-0.0203923 2.4605e-05 -0.000358305)
(-0.0181316 0.000331307 -0.00057438)
(-0.0194222 0.00029848 -0.000714146)
(-0.0169258 0.00147674 -0.00154157)
(-0.0178257 7.5021e-05 9.68497e-05)
(-0.0197532 3.61023e-05 5.50803e-05)
(-0.0177031 4.11046e-05 -1.58439e-06)
(-0.0196892 2.63333e-05 -9.04129e-05)
(-0.017555 6.28872e-05 -0.000169701)
(-0.0194409 9.669e-05 -0.000340386)
(-0.0171878 0.000221235 -0.000473977)
(-0.0185676 0.000202387 -0.000648174)
(-0.0163111 0.000803094 -0.00114008)
(-0.0174091 3.31382e-05 0.00010882)
(-0.0193314 3.24864e-05 6.85059e-05)
(-0.0210956 0.000163939 -1.17354e-06)
(-0.0225188 0.000122598 -6.74608e-05)
(-0.0210726 8.15061e-05 -0.000108485)
(-0.02258 4.6368e-05 -0.000204796)
(-0.0209068 7.33405e-05 -0.000337507)
(-0.0223817 7.89989e-05 -0.000476817)
(-0.0201752 0.00027849 -0.000807097)
(-0.0212916 0.000424514 -0.000918112)
(-0.0177065 0.000982017 -0.00190257)
(-0.0198133 0.000182592 -1.4981e-05)
(-0.0214634 0.000141177 -6.62088e-05)
(-0.0197216 0.000132138 -0.000101634)
(-0.0214956 7.33601e-05 -0.000161419)
(-0.0195877 0.000139487 -0.000292656)
(-0.0213584 5.76547e-05 -0.000381414)
(-0.0191322 0.000334016 -0.000723204)
(-0.0205195 0.000268566 -0.000829363)
(-0.0173481 0.00116585 -0.00196086)
(-0.0185796 0.0001219 -5.28918e-06)
(-0.0204019 8.83523e-05 -1.99728e-05)
(-0.0184275 9.98713e-05 -7.38654e-05)
(-0.0203513 6.1644e-05 -0.000139552)
(-0.0183329 0.000128476 -0.000251984)
(-0.020156 0.000117634 -0.000388071)
(-0.0180898 0.000299155 -0.000682829)
(-0.0193405 0.000331072 -0.000879885)
(-0.0169984 0.000930989 -0.00208525)
(-0.0181708 7.35071e-05 1.67039e-05)
(-0.0200072 5.94273e-05 1.42349e-05)
(-0.0180547 9.29099e-05 -3.55132e-05)
(-0.0199762 0.000103282 -7.97205e-05)
(-0.0222326 0.000204764 -0.000170914)
(-0.0235962 0.000174926 -0.000222122)
(-0.0224924 0.000152944 -0.000285826)
(-0.0239701 0.000134489 -0.000359605)
(-0.0226339 0.000195076 -0.000577455)
(-0.0242406 0.000207647 -0.00065995)
(-0.0221969 0.000494526 -0.00121757)
(-0.0238608 0.000594619 -0.00120821)
(-0.0191208 0.00158253 -0.00273981)
(-0.0212026 0.000252088 -0.000137425)
(-0.0226342 0.000226738 -0.000175339)
(-0.0213251 0.0002364 -0.000213108)
(-0.0228804 0.000190942 -0.000265016)
(-0.0213607 0.000282455 -0.000429132)
(-0.0229965 0.000212815 -0.000490983)
(-0.0208581 0.000520219 -0.000922518)
(-0.0223111 0.000416859 -0.000949911)
(-0.0182132 0.0014209 -0.0021379)
(-0.0201226 0.000200734 -0.000103866)
(-0.0216072 0.000188136 -0.00012016)
(-0.0201041 0.000217692 -0.000167564)
(-0.021728 0.000191682 -0.000203008)
(-0.0200887 0.000274768 -0.000383014)
(-0.0217947 0.000237193 -0.000406464)
(-0.0197537 0.000455438 -0.00088525)
(-0.0213006 0.000393717 -0.00085301)
(-0.0176617 0.000990538 -0.0022807)
(-0.0196684 0.000147656 -4.56201e-05)
(-0.0211387 0.000159342 -3.50474e-05)
(-0.0195587 0.000205525 -6.5025e-05)
(-0.0211509 0.000223144 -7.03236e-05)
(-0.0194178 0.000311917 -0.000224045)
(-0.0211089 0.000315703 -0.000272625)
)
;

boundaryField
{
    inlet
    {
        type            calculated;
        value           nonuniform 0();
    }
    outlet
    {
        type            calculated;
        value           nonuniform List<vector> 
12
(
(-0.00206951 -0.000278299 1.95362e-05)
(-0.0044216 0.000552859 0.00230114)
(-0.00824766 2.84068e-05 0.000923971)
(-0.00733075 0.0069832 -0.00746738)
(-0.00980039 0.0106126 -0.00862694)
(-0.00560026 0.00269062 -0.00230055)
(-0.00436738 -0.000756125 -0.00344143)
(-0.00568457 0.00362271 -0.00616604)
(-0.00920516 0.00357342 -0.0090063)
(-0.0108691 0.00711661 -0.0121099)
(-0.00648583 0.00627862 -0.00424985)
(-0.00764945 0.0017155 -0.00918323)
)
;
    }
    wall
    {
        type            calculated;
        value           nonuniform List<vector> 
66
(
(-8.8265e-11 -1.74665e-10 7.37023e-10)
(4.67044e-10 -8.37688e-12 1.13785e-09)
(1.01289e-09 -3.27082e-10 7.40562e-10)
(1.92413e-09 -6.71426e-10 8.2781e-10)
(-1.20884e-10 -8.12612e-11 9.53863e-10)
(2.77237e-10 -1.80423e-10 1.49692e-09)
(1.29898e-09 -4.90237e-10 1.07809e-09)
(1.44944e-09 -1.06731e-09 1.13224e-09)
(-5.08926e-10 3.58096e-10 8.50568e-10)
(2.04888e-09 -7.22321e-10 1.06548e-09)
(1.1187e-09 -5.10407e-10 1.24688e-09)
(1.99906e-09 -1.30083e-10 6.62619e-10)
(-1.80415e-09 -1.00848e-09 1.7326e-09)
(-8.65751e-09 -2.21432e-09 1.09621e-09)
(-1.68585e-09 -1.08848e-12 5.18769e-10)
(1.04973e-09 -4.61058e-10 2.97575e-10)
(-1.18836e-09 3.84478e-10 -3.50225e-11)
(2.64295e-10 1.79154e-09 1.89992e-10)
(9.03139e-10 4.30822e-10 -3.58103e-10)
(1.70794e-09 -3.29334e-10 -2.32965e-10)
(-4.47906e-10 2.99381e-10 -1.35879e-10)
(5.6765e-10 2.21908e-10 -5.229e-10)
(1.54898e-09 3.1205e-10 -1.1351e-09)
(1.91017e-09 4.73698e-10 -8.75778e-10)
(-1.15496e-09 5.51211e-10 -7.02396e-10)
(-2.55499e-10 8.67945e-10 -1.72147e-09)
(7.49212e-10 5.62018e-10 -1.52971e-09)
(-7.41724e-10 2.36539e-09 -3.79879e-09)
(1.62801e-10 3.45051e-09 -2.12933e-09)
(2.70668e-10 3.87218e-10 -2.02135e-09)
(2.45601e-09 6.19334e-09 -7.91535e-09)
(2.55641e-09 8.41578e-09 -1.64161e-09)
(6.08833e-10 1.77417e-10 -1.12958e-09)
(-9.46238e-10 2.58239e-10 2.32597e-09)
(-3.23546e-10 -1.33163e-10 1.70437e-09)
(-8.8265e-11 -1.74665e-10 7.37023e-10)
(-6.05284e-10 1.87473e-10 2.53237e-09)
(-2.92978e-10 -1.53771e-10 1.57368e-09)
(-1.20884e-10 -8.12612e-11 9.53863e-10)
(-1.80675e-09 -4.5285e-11 2.88839e-09)
(-7.30647e-10 -5.21106e-10 1.64583e-09)
(-5.08926e-10 3.58096e-10 8.50568e-10)
(-3.04639e-09 1.04134e-09 1.93382e-09)
(-1.87485e-09 1.7554e-10 1.21633e-09)
(-2.22499e-09 -1.70727e-09 2.76545e-09)
(-1.80415e-09 -1.00848e-09 1.7326e-09)
(-2.36046e-09 6.96238e-10 -4.51226e-10)
(-1.86714e-09 5.32998e-10 1.77657e-11)
(-1.08361e-09 5.00153e-10 2.41457e-10)
(-1.18836e-09 3.84478e-10 -3.50225e-11)
(-2.28073e-09 1.34978e-09 -2.38071e-09)
(-1.42601e-09 6.70115e-10 -1.09407e-09)
(-9.57136e-10 5.45198e-10 -1.71865e-10)
(-4.47906e-10 2.99381e-10 -1.35879e-10)
(-1.83819e-09 1.29514e-09 -3.71454e-09)
(-1.71955e-09 8.81832e-10 -2.60114e-09)
(-1.23077e-09 5.70818e-10 -1.40048e-09)
(-1.15496e-09 5.51211e-10 -7.02396e-10)
(-1.7452e-09 1.43328e-09 -3.55709e-09)
(-1.31688e-09 6.54906e-10 -2.6121e-09)
(-8.84441e-10 8.50332e-10 -2.99222e-09)
(-7.41724e-10 2.36539e-09 -3.79879e-09)
(-4.38734e-08 1.98521e-09 -1.35287e-09)
(-1.42132e-09 6.92416e-10 -4.10478e-09)
(1.86265e-09 -8.57313e-10 -8.19288e-09)
(2.45601e-09 6.19334e-09 -7.91535e-09)
)
;
    }
    procBoundary5to1
    {
        type            processor;
        value           nonuniform List<vector> 
32
(
(-0.0233782 -6.3582e-05 0.000379028)
(-0.0215339 2.88342e-06 0.000470409)
(-0.0230588 2.59514e-06 0.000286303)
(-0.0205881 0.000275968 0.000617616)
(-0.0218382 0.000332953 0.000219417)
(-0.0180436 0.00100879 0.00146187)
(-0.0203326 2.36642e-05 0.000332826)
(-0.0221393 -3.82562e-05 0.000213227)
(-0.0201294 6.90674e-05 0.000278721)
(-0.0218879 1.09745e-05 8.02787e-05)
(-0.0195025 0.000362181 0.000368014)
(-0.0208548 0.000266029 6.14881e-06)
(-0.0175871 0.00132905 0.00110181)
(-0.0209487 1.89259e-05 0.000247201)
(-0.0189896 1.56382e-05 0.000225368)
(-0.0209211 -1.74425e-05 9.69524e-05)
(-0.0188411 6.67509e-05 0.000132803)
(-0.0206106 6.6455e-05 -6.5157e-05)
(-0.0183577 0.00031724 0.000173544)
(-0.019581 0.000232646 -0.000109726)
(-0.0171712 0.00114724 0.000836151)
(-0.0207244 0.000117572 0.000321013)
(-0.0221056 4.49549e-05 0.0002437)
(-0.0203912 -2.75814e-06 0.000201791)
(-0.0203912 -2.75814e-06 0.000201791)
(-0.0203912 -2.75814e-06 0.000201791)
(-0.0191029 0.000108852 0.000266518)
(-0.0208515 2.22445e-05 0.00020272)
(-0.0208515 2.22445e-05 0.00020272)
(-0.0208515 2.22445e-05 0.00020272)
(-0.017923 4.69502e-05 0.000213223)
(-0.017923 4.69502e-05 0.000213223)
)
;
    }
    procBoundary5to4
    {
        type            processor;
        value           nonuniform List<vector> 
12
(
(-0.0220906 0.000226769 0.00016601)
(-0.0209038 0.000195948 0.00013475)
(-0.0198739 9.27033e-05 0.000148985)
(-0.0194217 3.63208e-05 0.000149144)
(-0.0224549 0.000217333 6.94094e-06)
(-0.0214684 0.000221126 -1.56671e-05)
(-0.0204823 0.00013025 2.59028e-06)
(-0.0200792 6.96249e-05 2.49765e-05)
(-0.0232959 0.000239945 -0.000156267)
(-0.0224566 0.000262271 -0.000141766)
(-0.0215459 0.000184871 -0.000117761)
(-0.0211456 0.000124078 -6.50824e-05)
)
;
    }
    procBoundary5to7
    {
        type            processor;
        value           nonuniform List<vector> 
44
(
(-0.019468 -2.30959e-05 0.000142902)
(-0.0174619 -1.50931e-05 8.89877e-05)
(-0.0194029 -5.09402e-05 -3.40711e-06)
(-0.0173171 -1.65186e-05 -5.57142e-05)
(-0.0191096 -2.49166e-05 -0.00022766)
(-0.016838 1.43573e-05 -0.000209937)
(-0.0181617 0.000100606 -0.000452772)
(-0.0161159 -0.000102824 -0.000113836)
(-0.0175401 5.58159e-06 0.000202259)
(-0.019468 -2.30959e-05 0.000142902)
(-0.0173198 3.21462e-05 2.45775e-05)
(-0.019281 3.73712e-05 -6.61271e-05)
(-0.0171927 5.56179e-05 -0.00012966)
(-0.0190164 7.97614e-05 -0.00030409)
(-0.0167636 0.000112716 -0.000379691)
(-0.0181368 0.000110497 -0.000575179)
(-0.0160469 0.000275437 -0.00095334)
(-0.0176216 -1.4333e-05 0.000157504)
(-0.0173198 3.21462e-05 2.45775e-05)
(-0.0195253 2.59527e-06 0.000135217)
(-0.0173198 3.21462e-05 2.45775e-05)
(-0.019281 3.73712e-05 -6.61271e-05)
(-0.0180042 0.000159055 -0.000217067)
(-0.0198142 0.000197683 -0.000338108)
(-0.0177564 0.000291943 -0.000649774)
(-0.0190509 0.00031175 -0.000745223)
(-0.0167348 0.000536857 -0.00197449)
(-0.0182199 7.21601e-06 8.33977e-05)
(-0.0200553 2.90202e-05 9.83508e-05)
(-0.0180743 6.11114e-05 6.38319e-05)
(-0.0180042 0.000159055 -0.000217067)
(-0.0199224 0.000109316 3.45526e-05)
(-0.0180042 0.000159055 -0.000217067)
(-0.0198142 0.000197683 -0.000338108)
(-0.0190619 0.000525624 -0.000652891)
(-0.0206164 0.000412211 -0.000735592)
(-0.0171931 0.0010149 -0.00187597)
(-0.0195736 4.81271e-05 2.51593e-05)
(-0.0210362 7.71942e-05 6.67643e-05)
(-0.0193065 0.000128034 4.28286e-05)
(-0.0208622 0.000175598 5.3501e-05)
(-0.018946 0.000242464 -5.36443e-05)
(-0.0190619 0.000525624 -0.000652891)
(-0.0205174 0.000299247 -6.22183e-05)
)
;
    }
}


// ************************************************************************* //
