/*--------------------------------*- C++ -*----------------------------------*\
| =========                 |                                                 |
| \\      /  F ield         | OpenFOAM: The Open Source CFD Toolbox           |
|  \\    /   O peration     | Version:  4.x                                   |
|   \\  /    A nd           | Web:      www.OpenFOAM.org                      |
|    \\/     M anipulation  |                                                 |
\*---------------------------------------------------------------------------*/
FoamFile
{
    version     2.0;
    format      ascii;
    class       volVectorField;
    location    "35";
    object      UsPrev;
}
// * * * * * * * * * * * * * * * * * * * * * * * * * * * * * * * * * * * * * //

dimensions      [0 1 -1 0 0 0 0];

internalField   nonuniform List<vector> 
114
(
(-2.12073e-09 9.94965e-10 1.63598e-09)
(-1.50796e-09 7.58615e-10 -5.0856e-10)
(-1.24297e-09 1.2838e-09 -2.04732e-09)
(1.20504e-10 9.88076e-10 -3.10851e-09)
(1.85318e-11 -7.12147e-10 -2.99235e-09)
(-2.9359e-08 6.32251e-10 -1.42807e-09)
(-5.64045e-10 1.37865e-09 6.98537e-09)
(-1.72101e-09 1.23179e-09 2.07828e-09)
(-1.34866e-09 5.94471e-10 -1.32224e-09)
(-1.05064e-09 1.31397e-09 -4.32152e-09)
(-1.12691e-09 2.10618e-09 -6.98002e-09)
(-2.1671e-09 -6.9718e-10 -6.91467e-09)
(-2.91392e-09 6.16918e-10 -6.17929e-09)
(-9.27982e-10 -1.22574e-09 6.25315e-09)
(-8.07736e-10 6.91977e-10 4.83918e-09)
(-9.68422e-10 5.96161e-10 7.46652e-10)
(-8.84862e-10 4.62356e-10 -2.34567e-09)
(-6.527e-10 1.00437e-09 -4.94612e-09)
(-1.27119e-09 1.32792e-09 -7.03658e-09)
(-1.48785e-09 5.80365e-10 -9.78173e-09)
(-1.48601e-09 -4.05882e-10 -6.56858e-09)
(-9.60232e-10 9.54481e-11 1.85582e-09)
(-4.51958e-10 2.1583e-10 1.94806e-09)
(-1.29844e-09 -9.02292e-11 2.49391e-09)
(-1.69265e-09 2.3992e-10 1.10707e-09)
(-1.54587e-09 6.48659e-10 3.00703e-11)
(-9.96397e-10 6.02431e-10 -1.03195e-09)
(-7.41107e-10 7.02383e-10 -2.51075e-09)
(-7.92501e-10 -3.5164e-10 -4.14998e-09)
(-2.48861e-09 2.25894e-10 -5.31092e-09)
(1.30116e-11 1.2692e-10 2.58214e-09)
(1.97865e-09 1.02439e-09 2.54772e-09)
(5.71987e-11 2.05245e-10 3.7673e-09)
(-1.63929e-09 9.73706e-10 1.69986e-09)
(-1.31128e-09 9.55053e-10 -4.21004e-10)
(-8.54417e-10 1.32375e-09 -2.59235e-09)
(-1.1942e-09 1.02753e-09 -4.36731e-09)
(-1.33555e-09 2.22108e-10 -5.49238e-09)
(5.86336e-10 -3.74207e-11 -5.54297e-09)
(-3.05667e-10 -1.21082e-09 3.71401e-09)
(2.59789e-10 -1.37998e-09 3.89017e-09)
(-1.44684e-10 -2.68748e-10 4.09922e-09)
(-5.1815e-10 7.59963e-10 1.06031e-09)
(-3.3213e-10 9.86491e-10 -1.7108e-09)
(-3.10775e-10 1.29887e-09 -3.7221e-09)
(-9.51029e-10 1.22105e-09 -5.85691e-09)
(-1.12283e-09 9.78022e-10 -6.43632e-09)
(-1.04935e-09 4.59778e-10 -4.10571e-09)
(-1.32829e-09 -2.00086e-09 2.31108e-09)
(-1.49092e-09 -2.06223e-09 2.69982e-09)
(-4.5164e-10 -8.67258e-11 1.39093e-09)
(-4.05241e-10 -1.16857e-10 1.23933e-09)
(-8.47503e-10 -4.49618e-10 1.40677e-09)
(-2.44852e-09 -1.68216e-09 2.74567e-09)
(-1.04771e-09 5.50295e-10 1.53299e-10)
(-9.34945e-10 4.84723e-10 -4.22401e-10)
(-1.20925e-09 5.44453e-10 -1.5749e-09)
(-1.19572e-09 6.44053e-10 -3.66832e-09)
(1.90538e-09 -7.07551e-10 -8.53044e-09)
(1.38662e-10 -2.94223e-10 2.0722e-09)
(1.30762e-10 -3.58042e-10 2.19544e-09)
(-4.62977e-10 -6.61826e-10 2.54775e-09)
(-4.49648e-09 -1.2901e-09 1.63611e-09)
(-2.12823e-10 1.10992e-09 -2.13125e-10)
(-1.31249e-10 9.30346e-10 -1.80204e-09)
(-1.25198e-09 1.25473e-09 -2.70135e-09)
(-1.22281e-09 1.37123e-09 -3.97569e-09)
(-3.42664e-10 7.10303e-10 -4.81084e-09)
(8.10225e-10 -9.77131e-10 2.81709e-09)
(8.41831e-10 -1.13249e-09 2.59878e-09)
(5.11377e-10 -9.30608e-10 2.84625e-09)
(1.42674e-10 -1.13894e-11 8.15104e-10)
(6.4837e-10 8.08234e-10 -7.49896e-10)
(6.43096e-10 8.55965e-10 -2.26343e-09)
(-4.81614e-10 1.09242e-09 -3.54041e-09)
(-4.85956e-10 3.6324e-10 -4.13158e-09)
(-4.15962e-11 5.83643e-11 -3.24424e-09)
(1.69838e-09 -1.19126e-09 1.24594e-09)
(6.58647e-10 -1.44383e-09 2.14181e-09)
(3.96058e-10 -9.54344e-10 1.15435e-09)
(-2.19648e-10 -4.10149e-10 1.61982e-10)
(-1.82229e-10 -1.61976e-10 5.93944e-10)
(-2.78573e-10 -7.64054e-11 7.57399e-10)
(-6.97186e-10 -1.15455e-11 5.93482e-10)
(-2.05664e-09 -1.01033e-09 1.66418e-09)
(-1.28447e-09 3.96302e-10 -1.25891e-10)
(-6.5439e-10 2.60586e-10 -3.54312e-10)
(-1.46622e-09 5.8034e-10 -8.26452e-10)
(-1.30179e-09 2.2914e-09 -3.85465e-09)
(2.1395e-09 6.04386e-09 -7.79249e-09)
(2.851e-10 1.15174e-11 9.52306e-10)
(8.84962e-11 -1.73792e-10 1.20154e-09)
(-5.53634e-10 -3.72921e-11 1.30788e-09)
(-8.72122e-09 -2.17945e-09 9.3664e-10)
(-5.74296e-10 1.08272e-09 1.08281e-10)
(3.28861e-10 3.60109e-10 -6.74482e-10)
(-5.80408e-10 1.01422e-09 -1.9186e-09)
(-2.71329e-10 3.43772e-09 -2.298e-09)
(2.55567e-09 8.20047e-09 -2.01558e-09)
(8.51519e-10 -2.87829e-10 6.63877e-10)
(1.044e-09 -3.7969e-10 9.23573e-10)
(8.49924e-10 -4.12622e-10 1.03676e-09)
(-1.94213e-09 5.07751e-11 3.43241e-10)
(4.14821e-10 3.96677e-10 -4.34357e-10)
(1.15093e-09 4.42542e-10 -1.17248e-09)
(3.63284e-10 6.73149e-10 -1.57367e-09)
(-8.31844e-11 5.31023e-10 -1.99041e-09)
(4.96184e-10 3.2922e-10 -1.29869e-09)
(1.64159e-09 -4.78766e-10 7.37169e-10)
(1.08398e-09 -8.47842e-10 9.87653e-10)
(1.11963e-09 -9.09314e-11 5.55233e-10)
(4.78792e-10 -2.21661e-10 1.60146e-10)
(1.13603e-09 -1.25741e-10 -3.36361e-10)
(1.37738e-09 3.0856e-10 -9.476e-10)
)
;

boundaryField
{
    inlet
    {
        type            calculated;
        value           nonuniform 0();
    }
    outlet
    {
        type            calculated;
        value           uniform (0 0 0);
    }
    wall
    {
        type            calculated;
        value           uniform (0 0 0);
    }
    procBoundary5to1
    {
        type            processor;
        value           uniform (0 0 0);
    }
    procBoundary5to4
    {
        type            processor;
        value           uniform (0 0 0);
    }
    procBoundary5to7
    {
        type            processor;
        value           uniform (0 0 0);
    }
}


// ************************************************************************* //
