/*--------------------------------*- C++ -*----------------------------------*\
  =========                 |
  \\      /  F ield         | OpenFOAM: The Open Source CFD Toolbox
   \\    /   O peration     | Website:  https://openfoam.org
    \\  /    A nd           | Version:  4.x
     \\/     M anipulation  |
\*---------------------------------------------------------------------------*/
FoamFile
{
    version     2.0;
    format      ascii;
    class       Cloud<passiveParticle>;
    location    0;
    object      positions;
}
// * * * * * * * * * * * * * * * * * * * * * * * * * * * * * * * * * * * * * //

348
(
( 0.255971 -0.0172303 0.0199808 ) 39
( 0.253141 -0.00314555 0.0336761 ) 48
( 0.256881 0.0116661 0.0209073 ) 48
( 0.421185 -0.0532319 -0.00937582 ) 10
( 0.328356 -0.0516003 0.0356148 ) 32
( 0.439653 -0.0867385 -0.00616844 ) 3
( 0.479802 -0.0721252 0.0133768 ) 5
( 0.429394 -0.0905597 0.0309654 ) 27
( 0.346567 -0.0575946 0.0231421 ) 33
( 0.469048 -0.0593995 0.0236785 ) 37
( 0.438549 -0.0210167 0.0177777 ) 45
( 0.477611 -0.023142 -0.000288973 ) 20
( 0.344162 -0.0902014 0.00359072 ) 0
( 0.431763 -0.040913 0.011915 ) 18
( 0.456627 -0.0434014 0.00060514 ) 11
( 0.287617 -0.0166764 -0.00535829 ) 13
( 0.373381 -0.0737806 0.00182653 ) 1
( 0.402742 -0.0578061 -0.00412531 ) 9
( 0.280588 -0.0346741 -0.00971461 ) 13
( 0.344926 -0.0182581 0.00427799 ) 15
( 0.392963 -0.0730931 0.00362269 ) 2
( 0.283044 -0.0296769 0.00910246 ) 13
( 0.321735 -0.0256882 -0.00886653 ) 14
( 0.333613 -0.0747246 -0.00339267 ) 0
( 0.363939 -0.0843421 0.0306344 ) 25
( 0.362847 -0.022466 -0.00297162 ) 16
( 0.489646 -0.0448063 0.0248189 ) 38
( 0.435966 -0.0902616 0.0126717 ) 3
( 0.481803 -0.0718442 -0.00617904 ) 5
( 0.37048 -0.0543999 0.00550981 ) 8
( 0.432786 -0.0550124 0.0261007 ) 36
( 0.448792 -0.0717972 0.00271621 ) 4
( 0.312519 -0.0762195 0.0169637 ) 23
( 0.391656 -0.0907098 0.0243207 ) 26
( 0.348532 -0.0717557 0.00937592 ) 0
( 0.418849 -0.0312181 0.0283521 ) 45
( 0.397988 -0.0880352 -0.00878416 ) 2
( 0.421782 -0.0773474 0.0178942 ) 27
( 0.310727 -0.0569977 0.0226861 ) 32
( 0.42513 -0.0298473 -0.00902082 ) 18
( 0.452369 -0.0666483 0.031397 ) 37
( 0.465864 -0.031674 -0.0133206 ) 19
( 0.401527 -0.0262074 0.0156788 ) 44
( 0.340071 -0.0562822 -0.00496791 ) 7
( 0.325259 -0.0242154 0.0106132 ) 14
( 0.36041 -0.0862749 -0.00688089 ) 0
( 0.321932 -0.0622396 0.00676698 ) 6
( 0.384168 -0.0385458 0.0238898 ) 43
( 0.383542 -0.0577494 0.0193499 ) 34
( 0.27794 -0.0599664 0.0190097 ) 31
( 0.322298 -0.0593472 -0.0129839 ) 6
( 0.403692 -0.0434954 0.0245024 ) 35
( 0.346922 -0.0902489 0.0230733 ) 24
( 0.454964 -0.017591 0.0285354 ) 46
( 0.391074 -0.0281234 -0.001091 ) 17
( 0.260467 -0.0718546 0.0226417 ) 21
( 0.454551 -0.0905173 0.006304 ) 4
( 0.384715 -0.0905206 0.00596537 ) 1
( 0.359308 -0.0416591 -0.00406128 ) 15
( 0.49047 -0.0171329 0.0130678 ) 20
( 0.465485 -0.0618129 0.00452102 ) 11
( 0.489111 -0.055704 0.00817004 ) 12
( 0.474662 -0.0904734 0.0200092 ) 29
( 0.490354 -0.0361517 0.00702562 ) 20
( 0.420403 -0.0901688 -0.00420894 ) 3
( 0.45344 -0.0341024 0.0176232 ) 46
( 0.42106 -0.0244983 0.00973715 ) 18
( 0.416996 -0.0534563 0.0141029 ) 10
( 0.356096 -0.0319095 0.0130885 ) 15
( 0.330617 -0.0475212 0.0165358 ) 32
( 0.37638 -0.0211537 0.0283901 ) 43
( 0.272105 -0.0274507 0.0252021 ) 39
( 0.449624 -0.0556245 0.0147367 ) 37
( 0.35696 -0.0205074 0.0288251 ) 42
( 0.265207 -0.0459961 0.0248906 ) 30
( 0.381801 -0.045006 -0.00795247 ) 8
( 0.446919 -0.0263398 0.00049824 ) 19
( 0.403513 -0.0668156 0.0187108 ) 35
( 0.302475 -0.029066 0.00276857 ) 13
( 0.313077 -0.0385701 0.0162942 ) 41
( 0.458164 -0.0850172 -0.0125403 ) 4
( 0.366246 -0.047155 0.024248 ) 34
( 0.364543 -0.0665111 0.0198834 ) 34
( 0.32164 -0.0437976 -0.000807709 ) 6
( 0.473151 -0.0488884 -0.00762792 ) 12
( 0.471767 -0.0294016 0.0248429 ) 46
( 0.479578 -0.0884573 0.0394566 ) 29
( 0.310896 -0.0419945 0.035493 ) 41
( 0.35819 -0.0640494 -0.00604569 ) 7
( 0.458915 -0.0651267 -0.0136862 ) 11
( 0.365493 -0.090051 0.011838 ) 1
( 0.332563 -0.0747119 0.0206904 ) 23
( 0.453768 -0.047274 0.0321682 ) 37
( 0.290921 -0.0718323 0.0280905 ) 22
( 0.3411 -0.0384533 0.00284639 ) 15
( 0.472895 -0.0900596 -0.000565406 ) 5
( 0.490886 -0.0542739 -0.0114807 ) 12
( 0.316004 -0.022434 0.0280492 ) 41
( 0.410477 -0.0901353 0.0279316 ) 26
( 0.411074 -0.039333 0.00141928 ) 17
( 0.432978 -0.060336 0.00495187 ) 10
( 0.489582 -0.0631255 0.0313687 ) 38
( 0.393501 -0.0454461 0.00792252 ) 9
( 0.380758 -0.0749692 0.0276214 ) 25
( 0.473121 -0.0442974 0.011869 ) 12
( 0.339326 -0.0294959 0.0232589 ) 42
( 0.46125 -0.0761903 0.0172437 ) 28
( 0.37456 -0.0346454 0.00734332 ) 16
( 0.268873 -0.0900521 0.0190471 ) 21
( 0.489925 -0.0900072 -0.012006 ) 5
( 0.438361 -0.0440311 -0.00612998 ) 10
( 0.316202 -0.090124 0.0302856 ) 23
( 0.378788 -0.0901217 -0.0130434 ) 1
( 0.293008 -0.0442591 0.0270636 ) 31
( 0.406272 -0.0869483 0.00910039 ) 2
( 0.417244 -0.0710203 -0.000297252 ) 10
( 0.373338 -0.0405897 0.0416369 ) 43
( 0.452895 -0.0904563 0.0274548 ) 28
( 0.472667 -0.0452595 0.0363075 ) 38
( 0.27366 0.00491003 0.0288208 ) 48
( 0.491031 -0.0817007 0.0257245 ) 29
( 0.437714 -0.0363715 0.0299592 ) 45
( 0.490434 -0.0901358 0.00789167 ) 5
( 0.341622 -0.0440589 0.0523877 ) 62
( 0.322581 -0.0609971 0.051895 ) 61
( 0.282048 -0.0108885 0.0551401 ) 78
( 0.26708 -0.089919 0.0394333 ) 21
( 0.382847 -0.0241406 0.04681 ) 72
( 0.398168 -0.0904959 0.0520583 ) 55
( 0.423237 -0.0351604 0.0571876 ) 74
( 0.347816 -0.070759 0.0552253 ) 62
( 0.340466 -0.0903407 0.0570216 ) 53
( 0.489765 -0.0340013 -0.012541 ) 20
( 0.29628 0.00149818 0.0483714 ) 78
( 0.289375 -0.0247765 0.0432563 ) 69
( 0.327583 -0.00948115 0.0489032 ) 79
( 0.485096 -0.0234212 0.0484561 ) 76
( 0.271666 -0.0729562 0.057583 ) 50
( 0.387115 -0.0554011 0.0522396 ) 63
( 0.43932 -0.0685451 0.0540094 ) 65
( 0.265314 -0.0536672 0.0519446 ) 59
( 0.461561 -0.0904503 0.0454251 ) 57
( 0.454232 -0.0170724 0.0576607 ) 75
( 0.490383 -0.0902826 0.0771885 ) 89
( 0.31236 -0.0419424 0.0679219 ) 70
( 0.29893 -0.0581724 0.0590896 ) 60
( 0.362187 -0.0342584 0.0567636 ) 72
( 0.374696 -0.090291 0.058255 ) 54
( 0.420613 -0.0738998 0.0571553 ) 56
( 0.370844 -0.0561717 0.0634517 ) 63
( 0.456223 -0.0596519 0.0490442 ) 66
( 0.285018 -0.0901805 0.0581373 ) 51
( 0.489743 -0.0551632 0.0589797 ) 67
( 0.326356 -0.0777239 0.0614558 ) 52
( 0.348465 0.0104919 0.061797 ) 80
( 0.438553 -0.0481298 0.0575633 ) 65
( 0.471335 -0.0733999 0.0600566 ) 57
( 0.431411 -0.0901131 0.0611586 ) 56
( 0.335328 -0.0241992 0.0598179 ) 71
( 0.462286 -0.0356262 0.0684112 ) 75
( 0.28381 -0.0297726 0.0616238 ) 69
( 0.40109 -0.0432157 0.0580994 ) 64
( 0.368309 -0.0153489 0.0572713 ) 72
( 0.323821 0.0074953 0.0590673 ) 79
( 0.283712 0.00666953 0.063886 ) 78
( 0.386639 -0.0748091 0.0528717 ) 54
( 0.434636 -0.0199444 0.0630945 ) 74
( 0.310381 -0.0258621 0.046751 ) 70
( 0.335411 -0.0570252 0.0662112 ) 62
( 0.380591 -0.0388739 0.0600845 ) 72
( 0.255532 -0.0205435 0.0425342 ) 39
( 0.254465 -0.0417289 0.0408428 ) 39
( 0.265549 -0.0220946 0.0594368 ) 68
( 0.402692 -0.0237551 0.0549744 ) 73
( 0.454969 -0.0398363 0.050485 ) 75
( 0.417454 -0.0902873 0.0467478 ) 56
( 0.310175 -0.00947112 0.0575414 ) 79
( 0.367159 -0.0727406 0.0532227 ) 54
( 0.425383 -0.0572345 0.0466144 ) 65
( 0.33648 -0.0703757 0.0393968 ) 33
( 0.358966 -0.0520145 0.0486991 ) 62
( 0.472285 -0.0687759 0.0408446 ) 38
( 0.25527 -0.075653 0.0469589 ) 50
( 0.373958 -0.06003 0.0383958 ) 34
( 0.296662 -0.0418532 0.0489491 ) 69
( 0.355487 -0.0877814 0.070446 ) 53
( 0.420857 -0.0529444 0.0654746 ) 65
( 0.260499 0.0139311 0.0399301 ) 48
( 0.29762 -0.0256789 0.0215391 ) 40
( 0.299382 -0.0901289 0.0441268 ) 51
( 0.465882 -0.0248321 0.0434498 ) 75
( 0.353748 -0.00778225 0.0729005 ) 111
( 0.406514 -0.06187 0.0505371 ) 64
( 0.412196 -0.0438317 0.0419755 ) 35
( 0.434313 -0.0723214 0.0352807 ) 27
( 0.272037 -0.0695844 0.0381916 ) 30
( 0.317477 -0.0705733 0.035173 ) 32
( 0.473406 -0.0158461 0.0617199 ) 76
( 0.307887 -0.0741205 0.0518822 ) 52
( 0.49015 -0.0739944 0.0479636 ) 58
( 0.38037 -0.0901837 0.0399249 ) 25
( 0.490562 -0.0261526 0.030222 ) 47
( 0.337892 0.00711048 0.0454356 ) 80
( 0.490634 -0.0418324 0.0443633 ) 76
( 0.348923 -0.0255223 0.045929 ) 71
( 0.322422 -0.0412482 0.0514609 ) 70
( 0.288739 -0.0736724 0.0476645 ) 51
( 0.261856 -0.0901552 0.0585699 ) 50
( 0.271923 -0.0335694 0.0439794 ) 68
( 0.412039 -0.0894047 0.0659502 ) 55
( 0.402868 -0.0603521 0.0695606 ) 64
( 0.35006 -0.0416712 0.0344706 ) 42
( 0.398077 -0.077565 0.0371032 ) 26
( 0.392978 -0.0401158 0.0409721 ) 44
( 0.334364 -0.0900743 0.0381747 ) 24
( 0.48429 -0.090183 0.0585306 ) 58
( 0.28039 -0.0551345 0.0640938 ) 60
( 0.284955 -0.0903554 0.0307519 ) 22
( 0.300352 -0.0114022 0.0345239 ) 49
( 0.414363 -0.0164418 0.0690176 ) 73
( 0.357831 -0.0901791 0.0482775 ) 53
( 0.392378 -0.0896304 0.071068 ) 55
( 0.442254 -0.0878756 0.0446853 ) 56
( 0.490812 -0.0350784 0.0637954 ) 76
( 0.35506 -0.0470585 0.0723187 ) 93
( 0.415232 -0.0685818 0.0343493 ) 35
( 0.452276 -0.0818065 0.0599505 ) 57
( 0.407082 0.00550515 0.0731061 ) 113
( 0.302118 0.00740495 0.0290444 ) 49
( 0.315986 -0.0232048 0.073201 ) 101
( 0.281993 -0.0527169 0.0412432 ) 31
( 0.395616 -0.0582908 0.034665 ) 35
( 0.251206 -0.0602049 0.0356533 ) 30
( 0.304486 -0.0901547 0.0636534 ) 51
( 0.294652 -0.0463425 0.074122 ) 91
( 0.386565 -0.0194287 0.0653884 ) 72
( 0.402091 -0.0236045 0.0353524 ) 44
( 0.474416 -0.0392256 0.0543463 ) 76
( 0.441167 -0.0252758 0.0454287 ) 74
( 0.35585 -0.0677305 0.0375143 ) 33
( 0.304059 0.0125884 0.0622016 ) 78
( 0.30133 -0.0597432 0.0397146 ) 31
( 0.272775 -0.0124439 0.0378927 ) 48
( 0.265551 -0.00168996 0.0646483 ) 77
( 0.335652 0.00857323 0.076213 ) 111
( 0.444584 -0.0610179 0.0713456 ) 66
( 0.288763 -0.0129875 0.0903631 ) 109
( 0.490043 -0.0730005 0.0677141 ) 58
( 0.463038 -0.0567323 0.0669231 ) 66
( 0.380057 -0.0729393 0.0714884 ) 85
( 0.328947 -0.00861241 0.0697749 ) 79
( 0.443535 -0.0353694 0.0713102 ) 74
( 0.341307 -0.0745495 0.0730649 ) 84
( 0.419276 -0.0201221 0.0449244 ) 74
( 0.467013 -0.0905396 0.0689659 ) 57
( 0.347866 -0.00761718 0.0541488 ) 80
( 0.427154 -0.069176 0.0750939 ) 96
( 0.318351 -0.0906623 0.0497615 ) 52
( 0.40875 -0.0349895 0.073259 ) 104
( 0.385425 -0.0546156 0.0760879 ) 94
( 0.370748 -0.0280256 0.0735062 ) 103
( 0.251385 -0.0141454 0.0712499 ) 77
( 0.335292 -0.0387412 0.0730953 ) 102
( 0.29433 -0.0272422 0.0781929 ) 100
( 0.478091 -0.0465985 0.0725098 ) 98
( 0.389801 -0.0351031 0.0766175 ) 104
( 0.373446 -0.00841428 0.0751069 ) 112
( 0.288825 -0.073038 0.0672766 ) 51
( 0.425547 -0.0902241 0.0802333 ) 87
( 0.330253 -0.0271422 0.040603 ) 41
( 0.267149 -0.0398408 0.0682064 ) 68
( 0.4265 -0.0298734 0.0780236 ) 105
( 0.311926 -0.000396617 0.0747196 ) 110
( 0.477404 -0.0272904 0.0770301 ) 107
( 0.312618 -0.0670187 0.0695194 ) 61
( 0.35886 -0.0897856 0.0902632 ) 84
( 0.351079 -0.0272598 0.0727378 ) 102
( 0.398533 -0.0692124 0.0893071 ) 95
( 0.382927 0.00871394 0.0784567 ) 112
( 0.362184 -0.0641877 0.0796513 ) 94
( 0.276956 -0.0149625 0.0738384 ) 99
( 0.398774 -0.0179436 0.0807649 ) 104
( 0.295132 -0.0094622 0.0698198 ) 78
( 0.363896 0.00900641 0.0737335 ) 112
( 0.264061 -0.0622573 0.0721071 ) 90
( 0.327921 -0.0731465 0.0900771 ) 83
( 0.321987 -0.0892685 0.0798588 ) 83
( 0.431919 -0.0501674 0.0816148 ) 96
( 0.40645 -0.0905338 0.0850503 ) 86
( 0.270837 -0.0903403 0.0760016 ) 81
( 0.373597 -0.0904668 0.0773335 ) 85
( 0.281362 -0.0625801 0.0823136 ) 91
( 0.37522 -0.0455405 0.0902701 ) 94
( 0.344781 -0.00707684 0.0903438 ) 111
( 0.45928 -0.0735667 0.0758755 ) 88
( 0.415692 0.000586952 0.0900569 ) 113
( 0.454796 -0.0473506 0.0821017 ) 97
( 0.287464 0.00567871 0.0843226 ) 109
( 0.386144 -0.00675246 0.0904518 ) 112
( 0.474123 -0.082286 0.0847554 ) 89
( 0.290455 -0.0900814 0.0774203 ) 82
( 0.380155 -0.0258413 0.090608 ) 103
( 0.413978 -0.0571624 0.0854484 ) 95
( 0.332637 -0.0215496 0.0840709 ) 101
( 0.352284 -0.0386021 0.0901263 ) 102
( 0.251022 -0.0204048 0.0901429 ) 99
( 0.37883 -0.0665755 0.0902959 ) 94
( 0.447542 -0.0194212 0.0823666 ) 106
( 0.438047 -0.0788254 0.0904222 ) 87
( 0.27024 0.0127839 0.0903991 ) 108
( 0.255974 0.00171277 0.082456 ) 108
( 0.490429 -0.0396338 0.0859112 ) 107
( 0.472791 -0.0630607 0.0900758 ) 98
( 0.339015 -0.0901097 0.0901751 ) 84
( 0.307811 -0.0353562 0.0902197 ) 101
( 0.340004 -0.054242 0.0900296 ) 93
( 0.268628 -0.0295172 0.0903479 ) 99
( 0.490375 -0.0588652 0.0815412 ) 98
( 0.395751 -0.0472273 0.0906509 ) 95
( 0.363712 -0.00120018 0.0904648 ) 112
( 0.414411 -0.0385686 0.0909917 ) 104
( 0.300224 -0.0732081 0.0830687 ) 82
( 0.268973 -0.00994055 0.0906692 ) 108
( 0.320003 -0.0553991 0.0831087 ) 92
( 0.279373 -0.0803864 0.0904484 ) 82
( 0.398671 0.0103373 0.0903034 ) 113
( 0.444676 -0.0902997 0.0758615 ) 88
( 0.325269 -0.00270792 0.090075 ) 110
( 0.305198 -0.0903085 0.0905314 ) 82
( 0.347885 -0.0723941 0.0907852 ) 84
( 0.451109 -0.064314 0.0906007 ) 97
( 0.471545 -0.0411514 0.0904087 ) 106
( 0.441793 -0.0358797 0.0908436 ) 105
( 0.267702 -0.0486505 0.0859617 ) 90
( 0.309126 -0.0154058 0.0901405 ) 101
( 0.416109 -0.0190217 0.0906495 ) 104
( 0.386148 -0.0850401 0.09069 ) 85
( 0.490348 -0.0204978 0.0902979 ) 107
( 0.465321 -0.0224054 0.0909419 ) 106
( 0.285182 -0.0401058 0.0902026 ) 100
( 0.306038 0.008874 0.0905725 ) 110
( 0.417367 -0.075535 0.0906623 ) 87
( 0.490823 -0.0761873 0.0908175 ) 89
( 0.327174 -0.0391328 0.0907347 ) 101
( 0.457679 -0.0903191 0.0904631 ) 88
( 0.297561 -0.055529 0.0907639 ) 91
( 0.264485 -0.0674612 0.0908108 ) 90
( 0.360985 -0.0207872 0.0901441 ) 102
)
