/*--------------------------------*- C++ -*----------------------------------*\
  =========                 |
  \\      /  F ield         | OpenFOAM: The Open Source CFD Toolbox
   \\    /   O peration     | Website:  https://openfoam.org
    \\  /    A nd           | Version:  4.x
     \\/     M anipulation  |
\*---------------------------------------------------------------------------*/
FoamFile
{
    version     2.0;
    format      ascii;
    class       Cloud<passiveParticle>;
    location    0;
    object      positions;
}
// * * * * * * * * * * * * * * * * * * * * * * * * * * * * * * * * * * * * * //

354
(
( 0.0733608 -0.0585554 -0.0630853 ) 41
( 0.0861206 -0.0205825 -0.0291001 ) 83
( 0.0502836 -0.0383993 -0.0671477 ) 49
( 0.177316 -0.0798792 -0.0518202 ) 36
( 0.0524429 -0.0752196 -0.0489148 ) 31
( 0.193081 -0.0267643 -0.0537224 ) 54
( 0.14542 -0.0832722 -0.0260685 ) 67
( 0.0553574 -0.0674092 -0.0309931 ) 72
( 0.0535558 -0.0265467 -0.0263349 ) 81
( 0.00979831 -0.0395156 -0.0345261 ) 80
( 0.217769 -0.0898315 -0.0610017 ) 37
( 0.203277 -0.0500913 -0.042381 ) 78
( 0.212119 -0.0255575 -0.0483925 ) 55
( 0.0790269 -0.0210794 -0.05577 ) 50
( 0.176491 -0.0714425 -0.0698423 ) 36
( 0.186428 -0.0423501 -0.0350822 ) 86
( 0.19433 -0.0148364 -0.0696212 ) 54
( 0.109245 -0.0279788 -0.0582542 ) 51
( 0.226158 -0.0496344 -0.0706086 ) 47
( 0.242 -0.0204879 -0.0591393 ) 56
( 0.242215 -0.0704436 -0.0256004 ) 79
( 0.0743418 -0.0367124 -0.0289056 ) 82
( 0.137529 -0.0447387 -0.0393828 ) 75
( 0.204535 -0.0531071 -0.0637289 ) 46
( 0.0958025 -0.0517587 -0.0334815 ) 74
( 0.0620062 -0.0408009 -0.0437233 ) 50
( 0.215604 -0.0645775 -0.0517949 ) 46
( 0.0273045 -0.0143289 -0.0498369 ) 48
( 0.0792638 -0.0730259 -0.050836 ) 32
( 0.204888 -0.0731131 -0.0374779 ) 69
( 0.119556 -0.0384722 -0.0448893 ) 52
( 0.232904 -0.0560314 -0.0474095 ) 47
( 0.0266262 -0.0169482 -0.0301804 ) 80
( 0.138809 -0.0575348 -0.024459 ) 75
( 0.0278935 -0.0766051 -0.0367177 ) 63
( 0.141254 -0.0202018 -0.0702796 ) 53
( 0.0384841 -0.0747709 -0.0629308 ) 31
( 0.108011 -0.0802774 -0.0393575 ) 65
( 0.0731246 -0.076654 -0.0324041 ) 64
( 0.110909 -0.0786537 -0.0197839 ) 65
( 0.135507 -0.0456725 -0.0683784 ) 43
( 0.14949 -0.049211 -0.0545962 ) 44
( 0.240253 -0.0356121 -0.0718311 ) 26
( 0.171254 -0.0274958 -0.0687194 ) 54
( 0.127251 -0.0901767 -0.0207493 ) 66
( 0.233688 -0.0753072 -0.0528032 ) 38
( 0.0365815 -0.0626075 -0.0474419 ) 40
( 0.172285 -0.0571552 -0.0514961 ) 45
( 0.107435 -0.0761371 -0.0662964 ) 33
( 0.0937998 -0.0217285 -0.069005 ) 51
( 0.138359 -0.087832 -0.0550252 ) 34
( 0.188076 -0.0628548 -0.0404925 ) 77
( 0.133321 -0.0181905 -0.0413304 ) 84
( 0.083628 -0.0382924 -0.0647074 ) 51
( 0.112692 -0.0200597 -0.0403911 ) 84
( 0.0985905 -0.0584795 -0.0672447 ) 42
( 0.150588 -0.0110767 -0.0348593 ) 94
( 0.0401858 -0.0265777 -0.0410834 ) 81
( 0.0666489 -0.0217965 -0.0404472 ) 82
( 0.0341254 -0.0348127 -0.0242951 ) 81
( 0.14882 -0.079381 -0.0695825 ) 35
( 0.0114717 -0.0272509 -0.0627467 ) 48
( 0.0977259 -0.066074 -0.0487518 ) 42
( 0.128892 -0.073322 -0.0308495 ) 66
( 0.00964861 -0.00689663 -0.0306549 ) 89
( 0.239811 -0.04322 -0.0281949 ) 79
( 0.150055 -0.0624953 -0.0398078 ) 76
( 0.166825 -0.0709316 -0.0333745 ) 77
( 0.200352 -0.0861069 -0.0517211 ) 37
( 0.160841 -0.0281277 -0.0351364 ) 85
( 0.18933 -0.035314 -0.0713338 ) 54
( 0.121365 -0.00646012 -0.0519887 ) 61
( 0.187546 -0.0824459 -0.0351597 ) 68
( 0.0275189 -0.0474495 -0.0382136 ) 71
( 0.0538787 -0.0580301 -0.0590677 ) 40
( 0.0304706 -0.0900508 -0.0511719 ) 31
( 0.0824 -0.0437149 -0.0456589 ) 41
( 0.157589 -0.0252601 -0.054498 ) 53
( 0.138964 -0.0319581 -0.0544352 ) 53
( 0.0841772 -0.0901737 -0.0421082 ) 65
( 0.0328566 -0.0307841 -0.0595035 ) 49
( 0.049907 -0.00888119 -0.0361539 ) 90
( 0.0910462 -0.036514 -0.0182472 ) 83
( 0.0185974 -0.00911354 -0.0668541 ) 57
( 0.0703928 -0.0585847 -0.0403945 ) 73
( 0.053457 -0.0228804 -0.0552082 ) 49
( 0.174981 -0.0327055 -0.0482069 ) 54
( 0.00991084 -0.0641571 -0.0350972 ) 71
( 0.00989858 -0.0802121 -0.0232345 ) 62
( 0.200447 -0.0502824 -0.0227409 ) 78
( 0.123738 -0.0552392 -0.055613 ) 43
( 0.187113 -0.0901134 -0.0658964 ) 36
( 0.237179 -0.0901032 -0.0656623 ) 38
( 0.114964 -0.0617057 -0.0390443 ) 75
( 0.0654586 -0.0145731 -0.0687841 ) 50
( 0.00990073 -0.0628846 -0.0617898 ) 39
( 0.097791 -0.0329197 -0.0391631 ) 83
( 0.225005 -0.0729814 -0.0351384 ) 70
( 0.177363 -0.0566347 -0.0249823 ) 77
( 0.224427 -0.0262102 -0.0329526 ) 88
( 0.208165 -0.0308417 -0.0670592 ) 55
( 0.043588 -0.0794379 -0.0202943 ) 63
( 0.216755 -0.090078 -0.0411506 ) 69
( 0.243174 -0.0902274 -0.043727 ) 38
( 0.0262312 -0.0614544 -0.0240955 ) 71
( 0.0969123 -0.0142338 -0.0508227 ) 60
( 0.209566 -0.0732574 -0.0685558 ) 37
( 0.126531 -0.0684062 -0.0707308 ) 43
( 0.196589 -0.0903001 -0.0194441 ) 69
( 0.169685 -0.0902754 -0.0311278 ) 68
( 0.15441 -0.0877304 -0.0434288 ) 35
( 0.179983 -0.0233725 -0.029471 ) 86
( 0.192814 -0.0687856 -0.0587976 ) 45
( 0.0796921 -0.0548133 -0.0224495 ) 73
( 0.234031 -0.067907 -0.0712163 ) 47
( 0.121716 -0.0747616 -0.0525223 ) 34
( 0.188324 -0.0460835 -0.0546478 ) 45
( 0.235529 -0.0359446 -0.0462448 ) 56
( 0.16331 -0.0481031 -0.0363289 ) 76
( 0.0584259 -0.0900834 -0.0631347 ) 32
( 0.216388 -0.0900083 -0.0213681 ) 69
( 0.121479 -0.0901234 -0.0651809 ) 34
( 0.15018 -0.0400132 -0.0233576 ) 85
( 0.0434965 -0.0442256 -0.0494222 ) 40
( 0.00989449 -0.0219038 -0.0436817 ) 48
( 0.161474 -0.057503 -0.0681199 ) 44
( 0.121703 -0.0168437 -0.0689956 ) 52
( 0.124563 -0.0296687 -0.0278728 ) 84
( 0.10317 -0.0472043 -0.0516993 ) 42
( 0.203516 -0.0329935 -0.0322323 ) 87
( 0.0446648 -0.0900403 -0.0371111 ) 63
( 0.114554 -0.0438288 -0.0690412 ) 43
( 0.0100174 -0.0448472 -0.0535382 ) 39
( 0.0965409 -0.0902485 -0.0267836 ) 65
( 0.027935 -0.0500827 -0.0603089 ) 40
( 0.0782484 -0.0900559 -0.061086 ) 32
( 0.062374 -0.00559626 -0.0513043 ) 59
( 0.0645042 -0.0902043 -0.0442198 ) 32
( 0.119637 -0.0595195 -0.0199474 ) 75
( 0.00971091 -0.0236678 -0.0203601 ) 80
( 0.117977 -0.00260182 -0.032844 ) 93
( 0.0111322 -0.0824415 -0.0584847 ) 30
( 0.220205 -0.0496515 -0.0320879 ) 78
( 0.00985582 -0.00303908 -0.050095 ) 57
( 0.130949 -0.0422126 0.00675098 ) 118
( 0.110761 -0.0514172 -0.00408051 ) 108
( 0.126421 -0.0173132 0.00199814 ) 118
( 0.170601 -0.0738288 0.00153319 ) 102
( 0.0585549 -0.0722912 0.000504982 ) 98
( 0.0398361 -0.00712156 -0.0191547 ) 90
( 0.226078 -0.0427459 -0.0018973 ) 122
( 0.134067 -0.0624348 0.00509929 ) 109
( 0.021707 -0.0120808 0.00502562 ) 123
( 0.208293 -0.0191109 -0.0169158 ) 87
( 0.12496 0.00569233 0.0017941 ) 127
( 0.190795 -0.0340401 -0.0167163 ) 86
( 0.0608065 -0.0107917 -0.0063866 ) 125
( 0.0199278 -0.0337172 0.00795321 ) 114
( 0.160016 -0.00405402 -0.0129139 ) 128
( 0.0827853 -0.0087607 0.00345634 ) 125
( 0.122434 -0.0127796 -0.0166713 ) 93
( 0.0561751 -0.0564958 0.0138388 ) 107
( 0.110707 -0.035763 0.008059 ) 117
( 0.163322 -0.037554 0.0137206 ) 119
( 0.239628 -0.0566984 0.00089787 ) 113
( 0.091044 -0.0432679 0.000397978 ) 108
( 0.206446 -0.0618391 0.0115106 ) 112
( 0.205943 -0.0496764 -0.00379922 ) 112
( 0.143274 -0.00871797 -0.0035158 ) 128
( 0.150884 -0.07393 0.00330367 ) 101
( 0.162077 -0.0901824 0.00871062 ) 101
( 0.186455 -0.0488525 0.0119184 ) 111
( 0.228316 -0.0763542 0.00990749 ) 104
( 0.0353989 -0.0823357 -0.0015266 ) 97
( 0.235103 -0.0353295 0.0137316 ) 122
( 0.176997 -0.0174483 -0.0101112 ) 120
( 0.038218 -0.0336002 0.000361813 ) 115
( 0.219416 -0.0644027 -0.00282375 ) 112
( 0.0563395 -0.0208785 0.00994859 ) 116
( 0.221795 -0.0902061 -0.0023881 ) 103
( 0.0261528 -0.0647097 -0.00193232 ) 105
( 0.21469 -0.0378707 -0.0169616 ) 87
( 0.0961376 -0.0239772 0.0012825 ) 117
( 0.169134 -0.0182551 0.00814291 ) 120
( 0.101148 -0.0713868 0.00560295 ) 108
( 0.150334 -0.051626 0.00830738 ) 110
( 0.0562912 -0.0306579 -0.00717519 ) 116
( 0.238714 -0.074951 -0.0067112 ) 104
( 0.158455 -0.0399107 -0.0052417 ) 119
( 0.0789625 -0.0902122 -0.0177838 ) 64
( 0.21341 -0.0130417 0.00133741 ) 130
( 0.0715068 -0.0901432 0.000499568 ) 98
( 0.193693 -0.0129671 -0.000542943 ) 129
( 0.118251 -0.0309314 -0.00935756 ) 118
( 0.206267 -0.0784763 -0.00704372 ) 103
( 0.179442 -0.0810124 -0.015159 ) 68
( 0.0950994 -0.0900921 0.0124019 ) 99
( 0.0740812 -0.0715333 -0.0133857 ) 98
( 0.149211 -0.0902562 -0.00778507 ) 101
( 0.118276 -0.0902087 -0.00304271 ) 100
( 0.169412 -0.0540656 0.00338759 ) 111
( 0.0150916 -0.0902362 -0.00693091 ) 96
( 0.00982889 -0.0843255 0.01112 ) 96
( 0.191148 -0.0682707 0.000664645 ) 111
( 0.184108 -0.0318147 0.00184512 ) 120
( 0.247475 -0.0414128 -0.00903683 ) 122
( 0.139282 -0.0238352 -0.0158706 ) 85
( 0.00988158 -0.0510401 0.00242706 ) 105
( 0.110004 -0.00689346 -0.00229967 ) 126
( 0.134741 -0.0900505 0.00825957 ) 100
( 0.0656271 -0.00338432 0.0119073 ) 125
( 0.0529499 -0.0901693 -0.00639655 ) 97
( 0.0710375 -0.0490254 0.00300692 ) 107
( 0.0423088 -0.0707062 0.0130221 ) 106
( 0.0181293 -0.0045208 -0.0129097 ) 123
( 0.23066 -0.0562105 -0.0166221 ) 79
( 0.0745536 -0.0288409 0.00459209 ) 116
( 0.185697 -0.0511308 -0.00779496 ) 111
( 0.203731 -0.0301975 -0.00111424 ) 121
( 0.160356 -0.0758075 -0.0153205 ) 67
( 0.133684 -0.0426394 -0.012719 ) 118
( 0.041437 -0.0134505 -0.000486216 ) 124
( 0.181707 -0.0902917 0.00201713 ) 102
( 0.182129 0.00898772 -0.0387522 ) 95
( 0.0878223 0.0117544 -0.041314 ) 92
( 0.135594 0.0142148 -0.0561608 ) 61
( 0.0586496 0.00900106 -0.024436 ) 91
( 0.0097868 0.0117473 -0.0205187 ) 89
( 0.0781983 0.00487519 -0.0572225 ) 59
( 0.12413 0.00379018 -0.0687544 ) 61
( 0.148164 0.0133774 -0.0310751 ) 94
( 0.043315 0.0103466 -0.0368352 ) 90
( 0.113604 0.0110909 -0.0463085 ) 61
( 0.054951 0.0121089 -0.0563172 ) 58
( 0.105511 -0.000598024 -0.0624016 ) 60
( 0.177147 0.00185645 -0.00489728 ) 129
( 0.0109917 0.0100956 -0.00069283 ) 123
( 0.0869724 0.0111176 -0.00727921 ) 126
( 0.0435525 0.011017 -0.0117287 ) 124
( 0.209601 0.00577903 -0.00264388 ) 130
( 0.0630613 0.00874341 -0.0050115 ) 125
( 0.100217 0.00416842 0.0121162 ) 126
( 0.146114 0.00882119 0.00514615 ) 128
( 0.107759 0.0126888 -0.00533861 ) 126
( 0.153258 0.0142542 -0.0120821 ) 128
( 0.166098 0.00118248 0.0115609 ) 128
( 0.0330741 0.00398023 0.00352924 ) 124
( 0.139916 -0.0676682 -0.0559959 ) 44
( 0.0665977 -0.00904947 -0.0253661 ) 91
( 0.00997744 -0.0901604 -0.0403198 ) 62
( 0.0479105 -0.0486776 -0.0281603 ) 72
( 0.0789918 -0.00610109 -0.0406233 ) 91
( 0.0822195 -0.0656232 0.0034956 ) 107
( 0.00987454 0.0086664 -0.0662037 ) 57
( 0.23523 0.00625229 -0.0136896 ) 131
( 0.153883 -0.0372798 -0.0698948 ) 53
( 0.163257 -0.0902053 -0.061166 ) 35
( 0.0435802 -0.00573967 -0.0574197 ) 58
( 0.125143 -0.090215 -0.0405283 ) 66
( 0.0244196 0.00536455 -0.0342591 ) 89
( 0.0931196 -0.0710217 -0.0300312 ) 74
( 0.0736362 -0.0236237 -0.0141539 ) 116
( 0.105678 0.0116261 -0.0265062 ) 92
( 0.0274861 0.00520754 -0.0537825 ) 57
( 0.0492164 -0.0617648 -0.0131613 ) 106
( 0.249088 -0.0474168 -0.0551275 ) 47
( 0.0973355 -0.00483059 -0.0333369 ) 92
( 0.0997018 -0.090104 -0.054483 ) 33
( 0.150307 -0.0251357 0.0049092 ) 119
( 0.17378 -0.00468753 -0.0269705 ) 95
( 0.218571 -0.0436782 -0.0532369 ) 46
( 0.192457 0.00532114 0.0072396 ) 129
( 0.231578 -0.0204251 0.00180165 ) 122
( 0.135667 0.00154707 -0.0408127 ) 93
( 0.0973367 -0.0636024 -0.0121713 ) 108
( 0.0603285 -0.0898044 -0.024778 ) 64
( 0.213015 -0.0655521 -0.0212796 ) 78
( 0.191827 -0.00846457 -0.0199196 ) 95
( 0.151782 -0.0589164 -0.00983471 ) 110
( 0.0785583 0.00671908 -0.0245918 ) 91
( 0.0270971 -0.0902299 -0.0226132 ) 62
( 0.193018 -0.0685291 -0.0221277 ) 77
( 0.126667 0.0130512 -0.0244618 ) 93
( 0.109422 -0.0428211 -0.0222902 ) 83
( 0.10342 -0.0209142 -0.017784 ) 83
( 0.159102 -0.0233829 -0.0160126 ) 85
( 0.15939 -0.0718927 -0.0545026 ) 35
( 0.00982862 -0.0632488 -0.0130992 ) 105
( 0.0628941 -0.0475478 -0.0150703 ) 73
( 0.0270397 -0.022092 -0.0110305 ) 114
( 0.1707 -0.0386575 -0.0205912 ) 86
( 0.139314 -0.00183873 -0.0215408 ) 94
( 0.236417 -0.0901163 -0.0193049 ) 70
( 0.118463 -0.0704447 -0.00357605 ) 109
( 0.0896998 -0.00689483 -0.0150635 ) 92
( 0.232751 -0.02982 -0.0154564 ) 88
( 0.0343263 -0.0492165 -0.0109002 ) 106
( 0.0106554 -0.0426981 -0.0151877 ) 80
( 0.136503 -0.0750366 -0.0102328 ) 100
( 0.193406 0.00993346 -0.0128119 ) 129
( 0.0988478 -0.0892193 -0.00707581 ) 99
( 0.037559 -0.0518977 0.00857552 ) 106
( 0.144108 -0.061494 -0.0769052 ) 14
( 0.173303 -0.0449938 -0.0780574 ) 15
( 0.0859034 -0.0736456 -0.0694928 ) 33
( 0.00990904 -0.0445398 -0.0734201 ) 9
( 0.0408128 -0.0585635 -0.0740732 ) 10
( 0.055968 -0.0726469 -0.0723665 ) 2
( 0.0673801 -0.0441124 -0.0754697 ) 11
( 0.0422305 -0.0901772 -0.0747604 ) 1
( 0.205266 -0.0901712 -0.0779829 ) 7
( 0.244574 -0.0533319 -0.0797208 ) 17
( 0.224722 -0.0236533 -0.0754291 ) 26
( 0.0774815 -0.0263719 -0.0794489 ) 20
( 0.223821 -0.0831395 -0.078802 ) 8
( 0.0215708 -0.0742377 -0.0732925 ) 0
( 0.0854468 -0.0509251 -0.0800294 ) 12
( 0.109163 -0.0280063 -0.0799085 ) 21
( 0.209866 -0.0448911 -0.0810921 ) 16
( 0.192369 -0.0612193 -0.0772169 ) 15
( 0.17211 -0.0899086 -0.0789736 ) 6
( 0.128686 -0.0315829 -0.0806481 ) 22
( 0.0432918 -0.0193082 -0.0719631 ) 19
( 0.134302 -0.0878925 -0.0802273 ) 4
( 0.0334389 -0.0404151 -0.0775107 ) 19
( 0.11249 -0.0592851 -0.0814569 ) 13
( 0.0701262 -0.089772 -0.0792855 ) 2
( 0.0220734 -0.0242041 -0.079326 ) 18
( 0.0959732 -0.0901357 -0.0744112 ) 3
( 0.188889 -0.0799637 -0.0829761 ) 6
( 0.161297 -0.0710944 -0.0827054 ) 14
( 0.20644 -0.020974 -0.0842746 ) 25
( 0.159314 -0.0247981 -0.0844589 ) 23
( 0.0722078 -0.0657821 -0.0816699 ) 11
( 0.0229144 -0.056587 -0.0824857 ) 9
( 0.0578674 -0.0279685 -0.0823576 ) 20
( 0.0343509 0.000880044 -0.0737505 ) 28
( 0.0545065 -0.00841113 -0.0842942 ) 28
( 0.218693 -0.0632112 -0.0831269 ) 16
( 0.113485 -0.0854981 -0.0828408 ) 4
( 0.144352 -0.0437929 -0.086138 ) 14
( 0.241954 -0.0208178 -0.0850827 ) 26
( 0.0099544 -0.0900489 -0.0768384 ) 0
( 0.0948982 -0.0674347 -0.0861396 ) 12
( 0.228344 -0.03918 -0.0874376 ) 26
( 0.0615932 0.00984663 -0.0878105 ) 29
( 0.0371683 -0.074316 -0.0857326 ) 1
( 0.153382 -0.090061 -0.0857442 ) 5
( 0.0506608 -0.0461615 -0.0860874 ) 10
( 0.0098952 -0.00187343 -0.08318 ) 27
( 0.191361 -0.0449197 -0.088663 ) 15
( 0.0350585 -0.0122905 -0.0887042 ) 28
( 0.00989822 -0.070226 -0.0888869 ) 9
( 0.0928149 -0.0347475 -0.0890569 ) 21
)
