/*--------------------------------*- C++ -*----------------------------------*\
| =========                 |                                                 |
| \\      /  F ield         | OpenFOAM: The Open Source CFD Toolbox           |
|  \\    /   O peration     | Version:  4.x                                   |
|   \\  /    A nd           | Web:      www.OpenFOAM.org                      |
|    \\/     M anipulation  |                                                 |
\*---------------------------------------------------------------------------*/
FoamFile
{
    version     2.0;
    format      ascii;
    class       volVectorField;
    location    "18";
    object      DDtUrel;
}
// * * * * * * * * * * * * * * * * * * * * * * * * * * * * * * * * * * * * * //

dimensions      [0 1 -2 0 0 0 0];

internalField   nonuniform List<vector> 
132
(
(0.0018904 -6.44646e-05 -0.00016436)
(0.00128236 -3.42549e-05 -9.27219e-05)
(0.000916252 -9.61142e-06 -3.57864e-05)
(0.000719539 5.78927e-06 -1.53766e-06)
(0.000593183 1.43796e-05 2.07938e-05)
(0.000523211 1.75993e-05 3.54114e-05)
(0.000456141 1.85604e-05 4.95672e-05)
(0.000417796 2.58269e-05 6.59393e-05)
(0.000328331 2.61371e-05 8.55854e-05)
(0.00185346 -6.91512e-05 -0.000171682)
(0.00123444 -3.45941e-05 -9.47234e-05)
(0.000866041 -1.05291e-05 -3.78794e-05)
(0.000667207 2.14986e-06 -3.41527e-06)
(0.000537459 1.1195e-05 1.96747e-05)
(0.000468682 1.36047e-05 3.63852e-05)
(0.000409766 1.03941e-05 5.34991e-05)
(0.000371865 1.01665e-05 6.97553e-05)
(0.000265413 9.58742e-06 8.68278e-05)
(0.00181815 -5.27614e-05 -0.000172297)
(0.00118928 -2.52956e-05 -9.18406e-05)
(0.000814564 -1.02844e-05 -3.62395e-05)
(0.000607528 4.73202e-07 -2.0196e-06)
(0.0004664 8.35183e-06 1.67113e-05)
(0.000390227 6.06475e-06 2.69994e-05)
(0.000338939 3.39837e-06 4.82685e-05)
(0.000291262 6.01025e-07 6.52915e-05)
(0.000202008 -6.03854e-07 7.86485e-05)
(0.00180651 -2.42971e-05 -0.000172558)
(0.00117699 -8.01472e-06 -9.08583e-05)
(0.000804871 -4.66931e-06 -3.55122e-05)
(0.00182031 -7.108e-05 -0.0001996)
(0.00118648 -3.6443e-05 -0.000102856)
(0.000805331 -1.25821e-05 -3.9653e-05)
(0.000597976 2.05341e-06 -2.11045e-06)
(0.000465701 1.01283e-05 1.75539e-05)
(0.000399418 1.3622e-05 3.64888e-05)
(0.000343778 1.53962e-05 4.74449e-05)
(0.000318746 1.92175e-05 6.42362e-05)
(0.000250848 1.88189e-05 7.26722e-05)
(0.00178135 -7.29263e-05 -0.000206344)
(0.00113663 -3.34463e-05 -0.000102597)
(0.000754682 -1.1154e-05 -3.83862e-05)
(0.000544072 8.90581e-07 5.40134e-07)
(0.000411452 7.21667e-06 1.88201e-05)
(0.000344258 6.1827e-06 3.44961e-05)
(0.000294015 7.7185e-06 4.84917e-05)
(0.000266271 6.05041e-06 6.89045e-05)
(0.000201114 4.52222e-06 7.68607e-05)
(0.00174708 -5.3629e-05 -0.000208592)
(0.00109667 -2.31865e-05 -0.000101326)
(0.000713877 -9.13641e-06 -3.73486e-05)
(0.000500848 -3.60305e-07 2.27195e-06)
(0.000365194 4.69449e-06 1.76968e-05)
(0.000288787 1.36075e-06 2.9838e-05)
(0.000232053 2.03439e-06 4.66467e-05)
(0.000195555 1.71695e-06 7.02792e-05)
(0.00013408 -1.02611e-07 7.15225e-05)
(0.0017362 -2.05478e-05 -0.000210228)
(0.00108393 -8.41062e-06 -0.000100912)
(0.000703169 -3.59958e-06 -3.60581e-05)
(0.000491197 3.97364e-07 3.69795e-07)
(0.000352469 2.8289e-06 1.33803e-05)
(0.00175595 -7.95486e-05 -0.000185613)
(0.00109646 -3.89734e-05 -9.68805e-05)
(0.000703109 -1.28146e-05 -4.0889e-05)
(0.000485964 3.62907e-06 -4.11133e-06)
(0.000347646 7.4957e-06 1.21449e-05)
(0.000283979 3.59287e-06 2.90726e-05)
(0.000244662 6.18032e-06 3.65427e-05)
(0.00023066 1.03717e-05 5.051e-05)
(0.000185537 1.32566e-05 5.39177e-05)
(0.0017144 -8.09546e-05 -0.000192117)
(0.00104685 -3.5822e-05 -9.64581e-05)
(0.000657447 -1.13422e-05 -3.75519e-05)
(0.000440647 2.62071e-06 1.02488e-06)
(0.000310679 5.70952e-06 1.37718e-05)
(0.000244179 4.83393e-07 2.83763e-05)
(0.000200707 3.88228e-06 3.88783e-05)
(0.000184328 8.65333e-06 5.71608e-05)
(0.000162564 5.40189e-06 5.6782e-05)
(0.00167882 -5.83645e-05 -0.00019252)
(0.0010062 -2.47267e-05 -9.56374e-05)
(0.000619413 -8.39942e-06 -3.5566e-05)
(0.000404386 -9.20106e-08 3.90025e-06)
(0.000275952 3.00924e-06 1.58015e-05)
(0.000205755 8.12576e-07 3.21706e-05)
(0.000158177 1.99683e-06 3.91876e-05)
(0.000132728 5.36583e-06 5.52204e-05)
(9.90552e-05 1.06785e-06 5.16866e-05)
(0.00166638 -1.63064e-05 -0.000195547)
(0.00099179 -7.16347e-06 -9.59991e-05)
(0.000607605 -3.55554e-06 -3.45774e-05)
(0.000393973 -8.95292e-07 3.66709e-06)
(0.000263891 6.6515e-07 1.36704e-05)
(0.000187502 -3.11752e-07 3.10341e-05)
(0.000137285 -1.48681e-06 4.00018e-05)
(0.00172704 -9.18052e-05 -0.000148675)
(0.00105651 -4.44322e-05 -8.00079e-05)
(0.000656616 -1.34015e-05 -3.61995e-05)
(0.000434008 5.05567e-06 -5.16873e-06)
(0.000293917 6.75205e-06 6.30951e-06)
(0.000229422 2.59685e-06 1.61158e-05)
(0.00018713 3.04404e-06 2.35737e-05)
(0.000177999 3.85415e-06 3.67907e-05)
(0.000138772 2.59036e-06 3.96544e-05)
(0.0016788 -8.86652e-05 -0.000152897)
(0.000999461 -3.90191e-05 -7.99401e-05)
(0.000604326 -1.11577e-05 -3.33021e-05)
(0.000386424 4.81083e-06 -6.24233e-07)
(0.000256586 5.9774e-06 1.02202e-05)
(0.000192529 3.10907e-06 2.23617e-05)
(0.000147536 2.64588e-06 2.86766e-05)
(0.000134835 3.15639e-06 3.90506e-05)
(0.000101798 5.2926e-07 3.75824e-05)
(0.00164327 -6.17708e-05 -0.000154145)
(0.000959883 -2.63038e-05 -7.81244e-05)
(0.000568092 -8.47501e-06 -3.07792e-05)
(0.000353922 1.22258e-06 2.5741e-06)
(0.00022762 2.92262e-06 1.30108e-05)
(0.000163022 3.23315e-06 2.80127e-05)
(0.000117031 2.04082e-06 3.09377e-05)
(9.89444e-05 2.09586e-06 3.61412e-05)
(6.43925e-05 -2.68175e-06 3.50047e-05)
(0.00163091 -1.75112e-05 -0.000155943)
(0.000942789 -5.72344e-06 -7.96314e-05)
(0.000554787 -2.60971e-06 -3.17879e-05)
(0.000340955 -1.62914e-06 1.1195e-06)
(0.000214735 3.06384e-07 1.2874e-05)
(0.000145333 -1.8632e-07 2.98874e-05)
(9.83875e-05 6.13358e-07 3.29263e-05)
(7.23563e-05 3.12879e-06 3.73819e-05)
(4.51645e-05 -1.19254e-06 3.54048e-05)
)
;

boundaryField
{
    inlet
    {
        type            calculated;
        value           nonuniform List<vector> 
16
(
(0.00418799 -0.000127656 -0.00026621)
(0.00407541 -0.000234109 -0.000335461)
(0.00400099 -0.00017609 -0.000322982)
(0.00402313 -9.87798e-05 -0.000349726)
(0.00397619 -0.000171925 -0.000643281)
(0.00384038 -0.000252525 -0.000706159)
(0.00377417 -0.000182611 -0.000718391)
(0.00378826 -6.92018e-05 -0.000763559)
(0.00391135 -0.000195118 -0.000523447)
(0.00376284 -0.000301673 -0.00059731)
(0.00368729 -0.000231057 -0.00056675)
(0.00365762 -2.90979e-05 -0.00062321)
(0.00397869 -0.000272581 -0.000405416)
(0.00376434 -0.000321535 -0.000453067)
(0.00371722 -0.000226305 -0.000453725)
(0.00371596 -5.43548e-05 -0.000444837)
)
;
    }
    outlet
    {
        type            calculated;
        value           nonuniform 0();
    }
    wall
    {
        type            calculated;
        value           nonuniform List<vector> 
66
(
(0.00418799 -0.000127656 -0.00026621)
(0.00407541 -0.000234109 -0.000335461)
(0.00400099 -0.00017609 -0.000322982)
(0.00402313 -9.87798e-05 -0.000349726)
(0.000938758 -8.49118e-06 -7.78625e-06)
(0.000713773 -3.36564e-05 -2.03338e-05)
(0.00054868 -1.58983e-05 2.35848e-05)
(0.000588259 5.04622e-05 2.28911e-05)
(0.000861604 3.22488e-05 5.58274e-05)
(0.000661503 2.46648e-05 2.45887e-05)
(0.000451745 -1.64481e-05 3.92241e-05)
(0.000529096 -6.27391e-06 3.7397e-05)
(0.00102393 5.04199e-05 4.46152e-05)
(0.000842985 1.17869e-05 1.13077e-05)
(0.000563229 6.46303e-06 4.72054e-05)
(0.000971712 5.45542e-05 5.90747e-05)
(0.000773226 4.38921e-05 4.84839e-05)
(0.000376624 5.22104e-05 4.53858e-05)
(0.00106022 4.92967e-05 3.05945e-05)
(0.000890783 6.54685e-05 7.25002e-05)
(0.000453709 3.17143e-05 -4.0541e-05)
(0.000849308 3.28879e-05 3.67196e-05)
(0.000770772 5.26063e-06 9.95667e-05)
(0.000524103 2.34537e-05 5.37762e-05)
(0.00102762 0.000116593 4.8843e-05)
(0.00102353 5.33348e-06 9.4965e-05)
(0.000534807 -2.31372e-05 3.39588e-05)
(0.000721817 0.00013994 0.000143553)
(0.000361228 2.39384e-05 0.000147602)
(0.000200436 -7.78094e-05 3.92412e-05)
(0.00418799 -0.000127656 -0.00026621)
(0.00397619 -0.000171925 -0.000643281)
(0.00391135 -0.000195118 -0.000523447)
(0.00397869 -0.000272581 -0.000405416)
(0.000938758 -8.49118e-06 -7.78625e-06)
(0.000502602 -9.66673e-06 -4.4275e-05)
(0.00023241 7.01781e-06 -2.55557e-05)
(0.000291232 -1.14758e-05 -1.89349e-05)
(0.000861604 3.22488e-05 5.58274e-05)
(0.000370852 4.46273e-06 3.14613e-05)
(0.000101302 1.52285e-05 -7.05266e-06)
(0.000172913 2.58549e-05 -6.9037e-06)
(0.00102393 5.04199e-05 4.46152e-05)
(0.000490487 1.05995e-05 5.20202e-05)
(0.000185466 4.79119e-05 4.36442e-05)
(0.000240268 6.14509e-05 5.01547e-05)
(0.000971712 5.45542e-05 5.90747e-05)
(0.000389399 2.89393e-05 2.25491e-05)
(2.24123e-05 3.23288e-05 6.28245e-06)
(8.3825e-05 1.95289e-05 -2.8428e-06)
(0.00106022 4.92967e-05 3.05945e-05)
(0.000508326 6.0617e-05 9.43874e-05)
(0.00014046 -3.55396e-05 7.87119e-05)
(0.000202454 -2.4517e-05 -1.36501e-05)
(0.000849308 3.28879e-05 3.67196e-05)
(0.000356531 5.08709e-05 5.2239e-05)
(0.000170056 -1.06259e-05 1.44707e-05)
(0.000137861 8.68982e-07 -2.8143e-05)
(0.00102762 0.000116593 4.8843e-05)
(0.000584924 8.00773e-05 0.000113774)
(0.000365125 1.27405e-05 6.42756e-05)
(0.000374929 1.50449e-05 4.57578e-05)
(0.000721817 0.00013994 0.000143553)
(0.000341831 7.2519e-05 6.5572e-05)
(0.000255275 6.6793e-05 9.73826e-06)
(0.000179615 -3.11282e-05 3.01368e-05)
)
;
    }
    procBoundary0to1
    {
        type            processor;
        value           nonuniform List<vector> 
12
(
(0.000250075 1.38377e-05 9.83764e-05)
(0.000190601 3.29959e-06 0.000103514)
(0.000126736 1.1961e-05 9.87838e-05)
(0.000190245 1.37346e-05 8.48714e-05)
(0.000123121 5.52251e-06 9.1305e-05)
(7.15403e-05 8.02115e-06 8.78268e-05)
(0.000123027 1.19155e-05 6.39585e-05)
(5.50384e-05 1.0078e-05 6.87038e-05)
(3.89487e-05 6.30016e-06 5.58564e-05)
(0.00011062 9.3538e-06 4.59642e-05)
(6.22658e-05 3.46029e-06 4.63335e-05)
(3.31595e-05 -1.45041e-06 3.90793e-05)
)
;
    }
    procBoundary0to2
    {
        type            processor;
        value           nonuniform List<vector> 
44
(
(0.000599371 7.13357e-07 -4.5848e-06)
(0.000457148 5.61255e-06 1.22745e-05)
(0.000366359 -4.71966e-06 2.51939e-05)
(0.000310907 -8.66367e-06 4.73477e-05)
(0.000271102 -4.02845e-06 6.9842e-05)
(0.000192501 -5.72892e-07 8.32252e-05)
(0.00180758 7.50709e-06 -0.000163745)
(0.00117754 4.26434e-06 -8.90816e-05)
(0.000599371 7.13357e-07 -4.5848e-06)
(0.000810979 -1.78329e-06 -3.21892e-05)
(0.000599371 7.13357e-07 -4.5848e-06)
(0.000457148 5.61255e-06 1.22745e-05)
(0.000267001 -2.66117e-06 2.79969e-05)
(0.000205549 -4.36906e-06 4.6342e-05)
(0.000170348 -7.70862e-07 7.21224e-05)
(0.000116223 -1.95102e-07 7.27033e-05)
(0.00174498 1.50774e-05 -0.000199245)
(0.00109187 6.03196e-06 -9.8521e-05)
(0.000714154 1.03552e-06 -3.50116e-05)
(0.000508984 -1.92413e-06 -2.85797e-08)
(0.000267001 -2.66117e-06 2.79969e-05)
(0.000371629 -1.24785e-06 7.31074e-06)
(0.000267001 -2.66117e-06 2.79969e-05)
(0.000205549 -4.36906e-06 4.6342e-05)
(0.000107148 -1.78022e-06 5.50506e-05)
(7.48789e-05 -1.48634e-06 5.17252e-05)
(0.00168318 2.56927e-05 -0.000189183)
(0.0010079 8.76101e-06 -9.26301e-05)
(0.000623427 1.31603e-06 -3.46582e-05)
(0.000411221 -2.87683e-06 3.59842e-07)
(0.000276099 -2.41807e-06 9.96129e-06)
(0.000190668 -6.13347e-06 2.88026e-05)
(0.000107148 -1.78022e-06 5.50506e-05)
(0.000131325 -6.354e-06 4.1723e-05)
(0.000107148 -1.78022e-06 5.50506e-05)
(7.48789e-05 -1.48634e-06 5.17252e-05)
(0.00164521 2.99605e-05 -0.00015943)
(0.000958876 1.23911e-05 -7.94477e-05)
(0.000569741 1.64909e-06 -3.38544e-05)
(0.000356287 -4.26712e-06 -2.72728e-06)
(0.000223504 -2.52836e-06 1.10885e-05)
(0.000150313 -3.59696e-06 3.20841e-05)
(9.75211e-05 -2.3626e-06 3.5454e-05)
(7.4568e-05 -7.33543e-07 4.645e-05)
)
;
    }
    procBoundary0to4
    {
        type            processor;
        value           nonuniform List<vector> 
36
(
(0.00172071 -9.82781e-05 -9.63408e-05)
(0.00103703 -4.87811e-05 -5.68724e-05)
(0.000633067 -1.57874e-05 -3.05215e-05)
(0.000405724 6.05581e-06 -8.18798e-06)
(0.000266074 8.82462e-06 1.24781e-06)
(0.00019712 5.08001e-06 9.01241e-06)
(0.00015025 6.50073e-07 1.61882e-05)
(0.000136057 -3.41886e-06 2.87719e-05)
(0.000104035 -3.44313e-06 2.69232e-05)
(0.00166833 -9.66262e-05 -9.58554e-05)
(0.000976677 -4.20437e-05 -5.63065e-05)
(0.000577616 -1.22434e-05 -2.80183e-05)
(0.000357766 5.98787e-06 -5.27783e-06)
(0.000230282 7.23761e-06 4.89339e-06)
(0.000164328 5.26816e-06 1.53154e-05)
(0.000120086 2.31049e-06 2.14357e-05)
(0.000102613 -4.7181e-07 3.21026e-05)
(7.33182e-05 -1.19619e-06 2.54794e-05)
(0.00163038 -6.63541e-05 -9.78858e-05)
(0.000932927 -2.8502e-05 -5.53746e-05)
(0.000541135 -9.88531e-06 -2.55038e-05)
(0.000325979 -2.54072e-07 -1.73669e-06)
(0.000203825 3.33403e-06 8.19587e-06)
(0.000137738 5.45654e-06 1.98144e-05)
(9.47147e-05 3.93418e-06 2.43798e-05)
(7.19313e-05 2.60762e-06 3.25247e-05)
(4.67998e-05 -1.57158e-06 2.4873e-05)
(0.0016158 -2.24078e-05 -0.000101092)
(0.000914586 -8.55369e-06 -5.61504e-05)
(0.000526038 -5.67792e-06 -2.66972e-05)
(0.000309606 -4.46987e-06 -1.53938e-06)
(0.000187771 1.68734e-07 9.91161e-06)
(0.000119222 5.2905e-06 2.21042e-05)
(8.03652e-05 3.27127e-06 2.53292e-05)
(5.23468e-05 5.7819e-06 3.21187e-05)
(3.15877e-05 -2.41863e-06 2.41473e-05)
)
;
    }
    procBoundary0to6
    {
        type            processor;
        value           uniform (4.6726e-05 6.25673e-07 3.74928e-05);
    }
    procBoundary0to7
    {
        type            processor;
        value           uniform (1.9944e-05 -1.49413e-06 3.63557e-05);
    }
}


// ************************************************************************* //
