/*--------------------------------*- C++ -*----------------------------------*\
| =========                 |                                                 |
| \\      /  F ield         | OpenFOAM: The Open Source CFD Toolbox           |
|  \\    /   O peration     | Version:  4.x                                   |
|   \\  /    A nd           | Web:      www.OpenFOAM.org                      |
|    \\/     M anipulation  |                                                 |
\*---------------------------------------------------------------------------*/
FoamFile
{
    version     2.0;
    format      ascii;
    class       volScalarField;
    location    "18";
    object      KslNext;
}
// * * * * * * * * * * * * * * * * * * * * * * * * * * * * * * * * * * * * * //

dimensions      [1 -3 -1 0 0 0 0];

internalField   nonuniform List<scalar> 
132
(
3396.09
6513.89
3143.59
5048.48
2944.2
4325.08
2801.84
3846.37
2606.8
3417.7
6958.93
3262.73
5633.91
3099.19
4886.92
2954.78
4343.31
2819.82
3438.41
7314.67
3341.53
6226.9
3265.41
5634.43
3148.81
5182.84
3080.3
3456.61
7247.09
3318.75
3447.8
7395.45
3351.61
6528.17
3289.72
5968.29
3218.71
5587.38
3090.07
3482.09
8426.19
3541.06
8363.38
3600.63
8600.58
3589.45
8664.07
3511.08
3538.88
8988.75
3635.21
9537.4
3714.8
10658.3
3758.62
12808
3727.32
3588.48
8901.12
3675.6
9560.84
3780.62
3470.59
7937.66
3476.89
7681.93
3466.65
7632.49
3448.97
7491.77
3351.56
3537.45
9229.44
3678.42
10521.3
3782.85
12275.5
3817.84
14816.2
3778.06
3598.9
10062.4
3820.84
14017.1
3979.03
22115.3
4019.81
50208.1
3971.92
3633.16
10432.8
3887.44
15455.8
4027.62
26639.4
4061.94
3465.66
7605.56
3447.53
7110.18
3393.52
6882.55
3334.69
6573.91
3206.73
3542.11
9387.39
3712.3
11086
3766.7
12907.2
3784.63
15840.6
3711.33
3607.89
9647.11
3811.3
12437.3
3872.24
15693.4
3861.65
18568.3
3764
3604.17
9925.49
3872.39
13756.4
3935.65
18343.4
3941.04
24772.8
3883.78
)
;

boundaryField
{
    inlet
    {
        type            zeroGradient;
    }
    outlet
    {
        type            zeroGradient;
    }
    wall
    {
        type            zeroGradient;
    }
    procBoundary0to1
    {
        type            processor;
        value           uniform 0;
    }
    procBoundary0to2
    {
        type            processor;
        value           uniform 0;
    }
    procBoundary0to4
    {
        type            processor;
        value           uniform 0;
    }
    procBoundary0to6
    {
        type            processor;
        value           uniform 0;
    }
    procBoundary0to7
    {
        type            processor;
        value           uniform 0;
    }
}


// ************************************************************************* //
