/*--------------------------------*- C++ -*----------------------------------*\
| =========                 |                                                 |
| \\      /  F ield         | OpenFOAM: The Open Source CFD Toolbox           |
|  \\    /   O peration     | Version:  4.x                                   |
|   \\  /    A nd           | Web:      www.OpenFOAM.org                      |
|    \\/     M anipulation  |                                                 |
\*---------------------------------------------------------------------------*/
FoamFile
{
    version     2.0;
    format      ascii;
    class       volVectorField;
    location    "18";
    object      Urel;
}
// * * * * * * * * * * * * * * * * * * * * * * * * * * * * * * * * * * * * * //

dimensions      [0 1 -1 0 0 0 0];

internalField   nonuniform List<vector> 
132
(
(-0.0237989 0.000485905 0.00127768)
(-0.0223616 0.000458106 0.0012128)
(-0.0237003 0.000461598 0.00121255)
(-0.0230919 0.000411831 0.00110585)
(-0.0246462 0.000395815 0.00105848)
(-0.0242396 0.000344703 0.000925091)
(-0.0257187 0.000330366 0.000840851)
(-0.0252682 0.000283426 0.000668324)
(-0.0266109 0.000241587 0.000518932)
(-0.0236983 0.000471952 0.00130886)
(-0.0221595 0.000440201 0.00122672)
(-0.0234247 0.000453096 0.00123355)
(-0.0226509 0.00040197 0.00111924)
(-0.0241462 0.000405934 0.00107812)
(-0.0235533 0.000351709 0.000932708)
(-0.0250101 0.000360947 0.000847518)
(-0.0243993 0.000324245 0.000651747)
(-0.0257234 0.000323174 0.00049642)
(-0.0235775 0.000344541 0.00131833)
(-0.0219562 0.000313084 0.00122019)
(-0.0231434 0.00031829 0.00121806)
(-0.022201 0.000287524 0.00109758)
(-0.023614 0.000287764 0.00104944)
(-0.0227877 0.000255759 0.000912919)
(-0.0242006 0.000279199 0.000847736)
(-0.0233915 0.000251495 0.000639558)
(-0.0246804 0.000263859 0.000495015)
(-0.0235079 0.000149994 0.00131675)
(-0.0218798 0.00012167 0.00121548)
(-0.0230337 0.000107657 0.00121617)
(-0.023578 0.000518277 0.00138565)
(-0.0219543 0.000474155 0.0012895)
(-0.0231369 0.000483569 0.00132237)
(-0.022166 0.000429733 0.00117909)
(-0.0235965 0.000424746 0.00115392)
(-0.0227751 0.000370433 0.000991581)
(-0.0242167 0.000368629 0.00091115)
(-0.0233872 0.000316067 0.000718288)
(-0.0247897 0.000291842 0.00056225)
(-0.0234542 0.000498368 0.00141873)
(-0.0216948 0.000443534 0.00129907)
(-0.0227996 0.000457036 0.00133519)
(-0.0216081 0.000398567 0.00116974)
(-0.022998 0.000408192 0.00114108)
(-0.0219009 0.000355237 0.000959675)
(-0.0233691 0.000391004 0.000892769)
(-0.0222445 0.000334772 0.000663452)
(-0.0237026 0.000366314 0.000491442)
(-0.023305 0.000355004 0.00143106)
(-0.0214693 0.000309268 0.00129622)
(-0.0224921 0.000312152 0.00132854)
(-0.0211547 0.000275405 0.0011507)
(-0.0224735 0.000282514 0.00111547)
(-0.0211862 0.000252789 0.000931098)
(-0.0225994 0.000292499 0.000873696)
(-0.0211868 0.000249406 0.000620664)
(-0.0226463 0.000271997 0.000442758)
(-0.0232319 0.000128353 0.00143272)
(-0.0213954 0.00011007 0.00129922)
(-0.022372 9.81865e-05 0.0013315)
(-0.0210158 8.45999e-05 0.00115111)
(-0.0222864 8.07517e-05 0.00112899)
(-0.0233377 0.000559271 0.00124708)
(-0.021559 0.000505742 0.00116267)
(-0.0225733 0.000510741 0.00118017)
(-0.0212983 0.000446417 0.00105077)
(-0.0225843 0.000430951 0.00100922)
(-0.0213941 0.000386172 0.000864298)
(-0.0227962 0.000413253 0.000778892)
(-0.0216631 0.000363706 0.00061577)
(-0.0230978 0.000359722 0.000464113)
(-0.0231847 0.00053473 0.00127753)
(-0.0212599 0.000469354 0.00117366)
(-0.0221908 0.000482868 0.00119146)
(-0.0206845 0.00040993 0.00102946)
(-0.0219478 0.000413296 0.00098002)
(-0.0205118 0.000360852 0.000819853)
(-0.0219293 0.000417179 0.000737534)
(-0.0204433 0.000346663 0.000536114)
(-0.0219614 0.000367583 0.000360206)
(-0.0230175 0.000373259 0.00127988)
(-0.0210071 0.000324772 0.00117099)
(-0.0218466 0.000328915 0.0011807)
(-0.0201702 0.000279499 0.00100325)
(-0.0213887 0.000291856 0.000940389)
(-0.0197282 0.000253626 0.000764361)
(-0.021141 0.000295939 0.000652345)
(-0.0193131 0.00023938 0.000455755)
(-0.0209357 0.000251303 0.000260545)
(-0.0229426 0.00011347 0.00128919)
(-0.0209147 9.77128e-05 0.00118062)
(-0.0217138 8.71081e-05 0.00119118)
(-0.0199963 7.9775e-05 0.00100644)
(-0.0211802 7.99881e-05 0.000948147)
(-0.0194594 8.40518e-05 0.000769377)
(-0.020845 9.3642e-05 0.000655309)
(-0.0231943 0.000614041 0.000991407)
(-0.0213902 0.000553845 0.000934338)
(-0.0223084 0.000563656 0.000939969)
(-0.0209623 0.000481092 0.000845643)
(-0.0221292 0.000464747 0.000794057)
(-0.0208751 0.000413629 0.000695966)
(-0.0221659 0.000438403 0.000628248)
(-0.0209638 0.000391263 0.000507294)
(-0.022341 0.000406912 0.000373264)
(-0.0230215 0.000569906 0.00101402)
(-0.0210333 0.00050101 0.000939547)
(-0.0218672 0.000511344 0.000950326)
(-0.020223 0.000423955 0.000822337)
(-0.0214073 0.000417255 0.000767757)
(-0.0198449 0.000361006 0.0006398)
(-0.021217 0.000391223 0.000555059)
(-0.0196075 0.00033768 0.00040902)
(-0.0211376 0.000359719 0.000273084)
(-0.0228469 0.000388954 0.00102209)
(-0.0207874 0.000342245 0.000942125)
(-0.0215228 0.000341421 0.000939956)
(-0.0197381 0.000289205 0.000801665)
(-0.0208679 0.000289355 0.000729407)
(-0.0191501 0.000255506 0.000592073)
(-0.0204999 0.000267654 0.000468278)
(-0.018729 0.000237215 0.000336106)
(-0.020247 0.000237277 0.00018895)
(-0.0227745 0.000125912 0.00102873)
(-0.0206869 0.000101702 0.00095154)
(-0.0213795 9.17658e-05 0.000951304)
(-0.0195463 8.30272e-05 0.000813788)
(-0.0206345 8.99643e-05 0.000744808)
(-0.0188545 8.46686e-05 0.000595924)
(-0.0201669 9.87995e-05 0.000461018)
(-0.0183271 7.50776e-05 0.000320434)
(-0.0198056 5.68178e-05 0.000169219)
)
;

boundaryField
{
    inlet
    {
        type            calculated;
        value           nonuniform List<vector> 
16
(
(-0.00999867 -8.22559e-07 3.08951e-06)
(-0.00999997 -1.54857e-07 1.70083e-07)
(-0.0100004 2.12599e-07 -4.2501e-07)
(-0.00999997 1.23446e-08 -4.43237e-08)
(-0.0100002 1.73634e-07 4.03508e-07)
(-0.01 3.38205e-08 -3.09054e-08)
(-0.01 9.46456e-09 -6.55288e-08)
(-0.01 -4.75816e-08 -3.85182e-08)
(-0.01 -1.10689e-08 2.36583e-07)
(-0.00999995 -3.20394e-08 8.95712e-08)
(-0.00999994 -7.64575e-08 -7.03046e-08)
(-0.01 -1.06898e-07 1.74416e-08)
(-0.01 -6.32123e-08 1.13161e-07)
(-0.00999997 1.62012e-07 6.68171e-08)
(-0.00999997 -9.80572e-08 3.83484e-08)
(-0.00999998 -1.5782e-07 1.24531e-07)
)
;
    }
    outlet
    {
        type            calculated;
        value           nonuniform 0();
    }
    wall
    {
        type            calculated;
        value           nonuniform List<vector> 
66
(
(1.33142e-06 -8.22559e-07 3.08951e-06)
(3.07014e-08 -1.54857e-07 1.70083e-07)
(-3.6112e-07 2.12599e-07 -4.2501e-07)
(2.80613e-08 1.23446e-08 -4.43237e-08)
(1.50983e-06 1.41828e-07 2.17642e-06)
(-3.8033e-07 5.84664e-07 8.82956e-07)
(-5.39522e-07 1.08296e-07 -1.97536e-07)
(-2.86724e-07 1.29262e-07 -1.27305e-07)
(-1.44995e-07 -5.39032e-07 7.4766e-07)
(-5.96313e-08 9.28328e-08 -6.46351e-07)
(-5.62416e-07 3.21195e-08 -3.85719e-07)
(-5.03433e-07 7.14914e-08 -8.82122e-08)
(-6.28654e-07 -8.9988e-09 8.50804e-08)
(-6.82548e-07 -6.78106e-08 -2.42403e-07)
(-7.24668e-07 -5.73246e-08 -2.44886e-07)
(-8.20776e-07 -1.48008e-07 2.54835e-08)
(-8.26115e-07 -1.74993e-07 -2.02608e-07)
(-8.74225e-07 -1.40108e-07 -2.89332e-07)
(-9.49864e-07 -6.58808e-08 -1.6363e-07)
(-1.01725e-06 -1.53732e-07 -2.69865e-07)
(-1.09821e-06 -2.43005e-07 -2.69344e-07)
(-9.86655e-07 -5.41477e-08 9.20064e-09)
(-1.28191e-06 -1.72311e-08 -8.88513e-08)
(-1.25065e-06 -8.60794e-08 -1.98e-07)
(-1.10032e-06 3.92975e-08 -1.84763e-08)
(-1.34472e-06 4.16146e-09 -6.94768e-08)
(-1.26814e-06 5.01687e-09 -8.02588e-08)
(-1.14427e-06 2.91202e-07 -1.74343e-07)
(-1.30906e-06 8.32677e-08 7.09171e-08)
(-1.5771e-06 1.91595e-07 3.98914e-09)
(1.33142e-06 -8.22559e-07 3.08951e-06)
(-1.6033e-07 1.73634e-07 4.03508e-07)
(-8.87047e-10 -1.10689e-08 2.36583e-07)
(-6.90717e-09 -6.32123e-08 1.13161e-07)
(1.50983e-06 1.41828e-07 2.17642e-06)
(-1.84142e-07 -8.27539e-08 3.3704e-07)
(-1.21632e-07 -4.71105e-08 1.93214e-07)
(-1.0995e-07 -3.22923e-08 8.29911e-08)
(-1.44995e-07 -5.39032e-07 7.4766e-07)
(-3.98518e-07 1.52638e-08 2.33026e-07)
(-2.51635e-07 -9.3831e-08 5.71049e-08)
(7.1501e-08 -1.05203e-08 -2.80494e-08)
(-6.28654e-07 -8.9988e-09 8.50804e-08)
(-5.28791e-07 4.8586e-08 -6.16067e-09)
(-3.85613e-07 8.32526e-08 -5.20915e-08)
(3.01379e-08 -1.00167e-07 -1.12305e-07)
(-8.20776e-07 -1.48008e-07 2.54835e-08)
(-7.71589e-07 5.22047e-08 1.37796e-08)
(-3.56879e-07 9.6472e-09 -5.51766e-08)
(-1.44831e-07 -1.14178e-07 -2.09079e-07)
(-9.49864e-07 -6.58808e-08 -1.6363e-07)
(-8.0923e-07 -8.04438e-08 -1.14861e-07)
(-7.62591e-07 -4.58581e-07 -2.89495e-07)
(-7.19393e-07 -1.01023e-07 -1.31924e-07)
(-9.86655e-07 -5.41477e-08 9.20064e-09)
(-1.05336e-06 1.5341e-07 -2.94151e-08)
(-9.59325e-07 -1.41763e-07 7.71669e-09)
(-9.5074e-07 -3.35615e-08 3.33045e-07)
(-1.10032e-06 3.92975e-08 -1.84763e-08)
(-1.27263e-06 -5.04117e-08 -6.5059e-08)
(-1.05012e-06 -7.61089e-08 -7.27137e-08)
(-1.26027e-06 1.81514e-08 -3.75482e-08)
(-1.14427e-06 2.91202e-07 -1.74343e-07)
(-1.2534e-06 -7.31843e-08 1.19287e-07)
(-1.2727e-06 -2.52883e-08 3.06348e-08)
(-1.33057e-06 3.08534e-08 -7.40561e-08)
)
;
    }
    procBoundary0to1
    {
        type            processor;
        value           nonuniform List<vector> 
12
(
(-0.0260369 0.000188164 0.000282541)
(-0.0249704 0.000275799 0.000244419)
(-0.0236901 0.000223415 0.000237772)
(-0.0238868 0.000236465 0.000341597)
(-0.0224649 0.000301333 0.000240614)
(-0.0210224 0.000210059 0.00020132)
(-0.0219466 0.000294078 0.000281643)
(-0.0204312 0.000300197 0.000167197)
(-0.0190347 0.000188821 0.00010204)
(-0.021131 0.000358379 0.000222977)
(-0.0194688 0.000303195 0.000119952)
(-0.0184015 0.000213016 5.80658e-05)
)
;
    }
    procBoundary0to2
    {
        type            processor;
        value           nonuniform List<vector> 
44
(
(-0.0220756 9.50205e-05 0.00109561)
(-0.023449 8.48173e-05 0.00106287)
(-0.0226104 8.6922e-05 0.000929818)
(-0.0239659 0.000126672 0.000865265)
(-0.0231429 0.00011687 0.00065968)
(-0.0243939 0.000116649 0.000493829)
(-0.0235043 -7.43695e-05 0.00126501)
(-0.0218808 -7.20565e-05 0.00118372)
(-0.0220756 9.50205e-05 0.00109561)
(-0.0230403 -9.15002e-05 0.00118383)
(-0.0220756 9.50205e-05 0.00109561)
(-0.023449 8.48173e-05 0.00106287)
(-0.020965 8.40488e-05 0.000945916)
(-0.0223251 0.000112926 0.000886902)
(-0.0208731 9.84666e-05 0.000633569)
(-0.0222944 8.96311e-05 0.000447104)
(-0.0232679 -0.000112585 0.00138295)
(-0.0214583 -9.56737e-05 0.0012659)
(-0.022453 -0.000116363 0.00129869)
(-0.0211397 -0.000103914 0.0011334)
(-0.020965 8.40488e-05 0.000945916)
(-0.0224335 -0.000110742 0.0011155)
(-0.020965 8.40488e-05 0.000945916)
(-0.0223251 0.000112926 0.000886902)
(-0.018963 8.79413e-05 0.000451161)
(-0.0205585 8.70533e-05 0.000263901)
(-0.0230055 -0.000155273 0.00127231)
(-0.021034 -0.00012858 0.00116247)
(-0.0218518 -0.000144543 0.00117328)
(-0.0202359 -0.000115119 0.00100955)
(-0.0214099 -0.000115505 0.000962396)
(-0.0198257 -8.14216e-05 0.000795911)
(-0.018963 8.79413e-05 0.000451161)
(-0.0211452 -6.71345e-05 0.000683003)
(-0.018963 8.79413e-05 0.000451161)
(-0.0205585 8.70533e-05 0.000263901)
(-0.0228219 -0.000165513 0.00105147)
(-0.020766 -0.00014626 0.000957627)
(-0.0214897 -0.000158704 0.000974172)
(-0.0197234 -0.000119741 0.000840341)
(-0.0208181 -0.000113175 0.000793817)
(-0.019092 -8.77934e-05 0.000629435)
(-0.0203856 -8.35845e-05 0.000493147)
(-0.0185748 -7.66984e-05 0.000340296)
)
;
    }
    procBoundary0to4
    {
        type            processor;
        value           nonuniform List<vector> 
36
(
(-0.0231599 0.000645993 0.000668172)
(-0.0213424 0.000583817 0.000638511)
(-0.0222116 0.000598251 0.000644415)
(-0.0208193 0.000509962 0.000591928)
(-0.0219362 0.000484234 0.000548312)
(-0.0206413 0.000422447 0.000485628)
(-0.0218776 0.000436251 0.000424621)
(-0.0205984 0.00040339 0.000332657)
(-0.0219471 0.000435055 0.000200476)
(-0.0229713 0.000607553 0.00067064)
(-0.0209569 0.000532086 0.000633349)
(-0.0217314 0.000544735 0.00064149)
(-0.0200034 0.000446947 0.000566481)
(-0.0211673 0.000433943 0.000522145)
(-0.0195259 0.000368071 0.000432353)
(-0.0208916 0.00038619 0.000354881)
(-0.0192062 0.000338788 0.000241038)
(-0.020746 0.000367064 9.3016e-05)
(-0.0227973 0.000411059 0.00068239)
(-0.020683 0.000363524 0.000639379)
(-0.0213655 0.000362145 0.000641516)
(-0.0194971 0.000310484 0.000552797)
(-0.0206094 0.000313462 0.000495329)
(-0.0188381 0.000267585 0.000392806)
(-0.0201726 0.000268743 0.000291944)
(-0.0183503 0.000230221 0.000176315)
(-0.0198569 0.000226132 1.80997e-05)
(-0.0227113 0.000148486 0.000699337)
(-0.020572 0.000117247 0.000649155)
(-0.0212021 0.000124665 0.000655482)
(-0.0192936 0.000115296 0.000565678)
(-0.0203373 0.000139165 0.000503352)
(-0.0184759 0.000109578 0.000386341)
(-0.0197835 0.000100175 0.00027591)
(-0.0178942 7.55969e-05 0.000158246)
(-0.0193896 3.2251e-05 1.41754e-07)
)
;
    }
    procBoundary0to6
    {
        type            processor;
        value           uniform (-0.020084 -9.48838e-05 0.000147155);
    }
    procBoundary0to7
    {
        type            processor;
        value           uniform (-0.0179255 5.00711e-05 4.58356e-05);
    }
}


// ************************************************************************* //
