/*--------------------------------*- C++ -*----------------------------------*\
| =========                 |                                                 |
| \\      /  F ield         | OpenFOAM: The Open Source CFD Toolbox           |
|  \\    /   O peration     | Version:  4.x                                   |
|   \\  /    A nd           | Web:      www.OpenFOAM.org                      |
|    \\/     M anipulation  |                                                 |
\*---------------------------------------------------------------------------*/
FoamFile
{
    version     2.0;
    format      ascii;
    class       volVectorField;
    location    "31";
    object      ddtUrel;
}
// * * * * * * * * * * * * * * * * * * * * * * * * * * * * * * * * * * * * * //

dimensions      [0 1 -2 0 0 0 0];

internalField   nonuniform List<vector> 
87
(
(8.94699e-09 -5.09406e-09 -4.63239e-09)
(1.07239e-08 -2.71276e-09 -3.2561e-09)
(1.0673e-08 -4.23926e-09 -4.29972e-09)
(1.05021e-08 -9.73696e-10 -2.19848e-09)
(1.03863e-08 -2.47265e-09 -3.32349e-09)
(9.37794e-09 -3.55344e-09 -4.27329e-09)
(3.96229e-09 3.45346e-10 3.1162e-10)
(5.25647e-09 3.08839e-10 2.79263e-10)
(6.92477e-09 2.65172e-10 2.04599e-10)
(8.33833e-09 2.59957e-10 -2.51661e-11)
(9.46689e-09 3.52555e-10 -5.75854e-10)
(1.08663e-08 1.07678e-10 -1.145e-09)
(1.11842e-08 -6.79259e-10 -1.48926e-09)
(1.10028e-08 -1.24924e-09 -1.91645e-09)
(1.08202e-08 -2.48279e-09 -2.12619e-09)
(4.28927e-09 3.13978e-10 2.35876e-10)
(5.21163e-09 3.10252e-10 2.14391e-10)
(6.61028e-09 3.4042e-10 5.26948e-11)
(8.10709e-09 4.06877e-10 -2.0015e-10)
(9.18391e-09 3.69153e-10 -6.06315e-10)
(1.02966e-08 8.8219e-11 -1.2769e-09)
(1.08357e-08 -7.04091e-10 -1.66693e-09)
(1.11688e-08 -1.88148e-09 -2.28246e-09)
(1.20251e-08 -2.27601e-09 -2.50905e-09)
(4.48424e-09 2.82874e-10 1.48638e-10)
(5.27911e-09 2.83012e-10 1.59949e-10)
(6.56662e-09 3.85319e-10 1.11724e-11)
(8.0416e-09 3.94076e-10 -1.61593e-10)
(8.98432e-09 3.54663e-10 -5.8543e-10)
(9.7704e-09 1.02662e-10 -1.12296e-09)
(1.02662e-08 -5.68263e-10 -1.75067e-09)
(1.01686e-08 -1.41473e-09 -2.39256e-09)
(1.10866e-08 -2.09731e-09 -2.93262e-09)
(3.86212e-09 3.78099e-10 7.54641e-11)
(4.77206e-09 3.70143e-10 5.91175e-11)
(6.1741e-09 3.2632e-10 2.26501e-11)
(7.4445e-09 2.99502e-10 -1.84888e-10)
(8.61263e-09 2.40575e-10 -5.88388e-10)
(9.85207e-09 2.09474e-11 -9.21889e-10)
(1.06239e-08 -2.20458e-10 -1.251e-09)
(1.08991e-08 -4.00317e-10 -1.78304e-09)
(1.12437e-08 -7.80794e-10 -1.13928e-09)
(4.05873e-09 3.22289e-10 3.46047e-11)
(4.81103e-09 2.92423e-10 2.1951e-11)
(6.00319e-09 3.31972e-10 -3.21176e-11)
(7.29012e-09 3.67746e-10 -2.57221e-10)
(8.41312e-09 2.89089e-10 -6.03182e-10)
(9.6385e-09 -2.51909e-11 -1.03336e-09)
(1.00674e-08 -4.42776e-10 -1.38854e-09)
(1.03015e-08 -9.19733e-10 -1.85478e-09)
(1.08171e-08 -9.90738e-10 -1.81247e-09)
(4.23223e-09 2.88413e-10 3.95179e-12)
(4.70092e-09 2.26702e-10 -3.19828e-11)
(5.84195e-09 2.9156e-10 -9.36136e-11)
(6.99563e-09 3.29729e-10 -2.62302e-10)
(8.14583e-09 2.9348e-10 -5.72864e-10)
(9.01411e-09 4.45255e-11 -9.84775e-10)
(9.20611e-09 -3.86981e-10 -1.35108e-09)
(9.17258e-09 -8.3981e-10 -1.80513e-09)
(9.15868e-09 -1.03446e-09 -2.28342e-09)
(3.79498e-09 3.99059e-10 -1.04705e-10)
(4.52976e-09 3.90531e-10 -6.04147e-11)
(5.8303e-09 4.10694e-10 -6.84215e-11)
(7.15951e-09 3.94145e-10 -2.66274e-10)
(8.43537e-09 3.14639e-10 -5.89516e-10)
(9.55585e-09 1.55207e-10 -9.2833e-10)
(1.02079e-08 1.01944e-10 -1.10907e-09)
(1.01121e-08 -1.56105e-10 -1.05744e-09)
(9.90106e-09 -1.73118e-10 -6.84265e-10)
(4.09372e-09 3.88765e-10 -7.59909e-11)
(4.60733e-09 3.22984e-10 -8.6205e-11)
(5.57659e-09 3.10296e-10 -1.43645e-10)
(6.73387e-09 3.7124e-10 -3.68037e-10)
(7.9358e-09 3.01636e-10 -6.5318e-10)
(8.94714e-09 7.60603e-11 -9.8943e-10)
(9.22204e-09 -2.22488e-10 -1.27124e-09)
(9.2869e-09 -7.88687e-10 -1.55936e-09)
(9.86003e-09 -3.66045e-10 -1.41393e-09)
(4.31038e-09 4.1531e-10 -5.22395e-11)
(4.4709e-09 2.84965e-10 -8.70073e-11)
(5.29493e-09 2.7427e-10 -1.66151e-10)
(6.29544e-09 3.4468e-10 -3.85887e-10)
(7.32412e-09 3.18407e-10 -6.17943e-10)
(8.3021e-09 3.29066e-11 -9.1282e-10)
(8.48685e-09 -2.40298e-10 -1.21947e-09)
(8.08065e-09 -6.38139e-10 -1.48498e-09)
(8.25577e-09 -6.87038e-10 -1.69549e-09)
)
;

boundaryField
{
    inlet
    {
        type            calculated;
        value           nonuniform List<vector> 9((2.74302e-09 5.78025e-10 1.69138e-09) (2.91074e-09 6.93034e-10 1.4665e-09) (7.34986e-10 1.24175e-10 4.09808e-10) (9.27176e-10 2.07153e-10 6.33047e-10) (1.71277e-09 2.21859e-10 6.19702e-10) (8.75676e-10 1.63696e-11 2.84187e-10) (8.00071e-10 2.06013e-10 2.04669e-10) (2.75608e-09 6.9856e-10 1.76218e-10) (5.04718e-09 1.33073e-09 1.65253e-10));
    }
    outlet
    {
        type            calculated;
        value           nonuniform 0();
    }
    wall
    {
        type            calculated;
        value           nonuniform List<vector> 
57
(
(6.19261e-10 1.57947e-10 1.64913e-10)
(2.13764e-09 6.39983e-10 1.25121e-10)
(3.9301e-09 1.28631e-09 1.48686e-10)
(1.03224e-09 -2.59407e-10 2.39165e-10)
(9.95573e-10 -9.72541e-11 1.23163e-10)
(9.01673e-10 5.47783e-11 -2.17131e-11)
(3.89555e-09 1.70128e-10 2.29833e-10)
(1.54367e-09 -2.54747e-10 2.07258e-10)
(1.5768e-09 -1.01878e-10 2.20694e-10)
(4.01963e-09 2.77053e-10 2.29142e-10)
(2.94324e-09 4.89142e-10 9.1401e-11)
(2.65427e-09 3.4195e-10 -1.30443e-10)
(6.64232e-09 4.68356e-10 7.65573e-12)
(4.47637e-09 3.36016e-10 -2.91024e-11)
(3.37607e-09 4.05398e-10 -3.26296e-10)
(7.71517e-09 2.57758e-10 -5.85034e-10)
(6.93073e-09 -2.87149e-10 -6.84337e-10)
(4.80533e-09 -5.42162e-11 -4.54223e-10)
(1.087e-08 5.5955e-10 -8.08386e-10)
(1.63382e-09 -2.18753e-10 5.63375e-10)
(1.59012e-09 5.75909e-11 3.53129e-10)
(9.93057e-09 5.16865e-10 1.23168e-09)
(6.30474e-09 -6.37405e-09 -2.39761e-09)
(-3.2026e-09 -3.56144e-10 -9.2551e-11)
(1.53207e-11 1.07585e-09 1.34487e-09)
(2.28937e-08 1.35845e-09 -1.32405e-09)
(1.40133e-08 7.42991e-10 -1.48567e-09)
(3.98635e-10 9.81231e-11 3.15499e-10)
(6.87982e-10 7.50471e-13 2.48347e-10)
(3.14061e-09 1.27217e-09 1.47006e-10)
(2.11533e-09 -1.56569e-10 9.36868e-10)
(-4.42888e-10 -9.02647e-10 1.84386e-10)
(6.71848e-10 4.55246e-11 -1.59119e-11)
(2.08062e-09 1.06698e-10 -1.62955e-10)
(3.18214e-09 -2.19789e-10 5.32663e-10)
(1.85957e-09 -1.03126e-10 2.43183e-10)
(5.87864e-09 3.69531e-10 1.07848e-09)
(3.20018e-09 -6.53008e-11 5.86908e-10)
(2.40262e-09 3.33339e-10 -1.10939e-10)
(7.10844e-09 6.80376e-10 8.27532e-10)
(5.88574e-09 2.03421e-10 6.35454e-11)
(2.52769e-09 3.94895e-10 -2.9389e-10)
(1.06841e-08 2.18269e-10 -3.01627e-10)
(8.80464e-09 1.59171e-10 -2.04468e-10)
(4.58441e-09 -5.38575e-11 -4.4074e-10)
(1.05129e-08 6.81251e-10 -3.24172e-09)
(7.14881e-09 1.05014e-09 -1.148e-09)
(4.09371e-09 -5.37458e-10 7.50851e-11)
(1.40246e-09 4.66863e-11 2.82895e-10)
(1.28423e-08 -1.54912e-09 -4.9071e-09)
(9.60867e-09 2.05953e-10 -2.176e-09)
(1.79253e-09 -5.49432e-10 -7.36817e-10)
(-3.18078e-09 -3.73596e-10 -1.1649e-10)
(7.7531e-09 -1.51493e-09 -7.65623e-09)
(1.53305e-08 -1.41726e-09 -2.32405e-09)
(-7.56647e-09 -6.56422e-10 -3.01101e-09)
(9.29077e-10 -1.34022e-10 -7.00852e-10)
)
;
    }
    procBoundary6to0
    {
        type            processor;
        value           uniform (2.79251e-09 -7.1769e-09 -5.87321e-09);
    }
    procBoundary6to2
    {
        type            processor;
        value           nonuniform List<vector> 
32
(
(-1.4235e-09 -1.03778e-08 -9.04486e-09)
(5.62011e-09 -5.57239e-09 -5.78141e-09)
(5.78923e-09 -6.91846e-09 -6.53234e-09)
(8.43057e-09 -2.70382e-09 -3.26799e-09)
(8.64893e-09 -4.27486e-09 -4.61341e-09)
(8.18237e-09 -5.35336e-09 -5.47832e-09)
(4.59355e-09 2.8855e-10 5.94703e-10)
(5.77459e-09 2.81551e-10 6.59388e-10)
(7.25662e-09 2.46675e-10 5.60624e-10)
(8.34261e-09 1.29018e-10 -3.26879e-11)
(8.83281e-09 -1.45767e-10 -1.09768e-09)
(8.96774e-09 -1.13586e-09 -2.14589e-09)
(8.05161e-09 -3.0943e-09 -3.17969e-09)
(7.47011e-09 -4.53312e-09 -3.60462e-09)
(7.47011e-09 -4.53312e-09 -3.60462e-09)
(7.47011e-09 -4.53312e-09 -3.60462e-09)
(4.59555e-09 2.3986e-10 4.83551e-10)
(5.59065e-09 2.45916e-10 5.33793e-10)
(6.94925e-09 2.67371e-10 4.29457e-10)
(8.21518e-09 2.34733e-10 5.06109e-12)
(9.04742e-09 2.18788e-11 -9.28288e-10)
(9.2229e-09 -6.13155e-10 -1.81875e-09)
(9.12854e-09 -1.89617e-09 -2.74769e-09)
(9.12854e-09 -1.89617e-09 -2.74769e-09)
(9.12854e-09 -1.89617e-09 -2.74769e-09)
(4.87131e-09 2.00479e-10 4.00921e-10)
(5.69673e-09 2.30713e-10 4.32735e-10)
(6.89925e-09 3.15668e-10 3.38707e-10)
(8.13771e-09 2.40723e-10 2.80303e-11)
(9.12109e-09 -1.5219e-11 -6.57532e-10)
(9.60538e-09 -5.08995e-10 -1.36339e-09)
(9.60538e-09 -5.08995e-10 -1.36339e-09)
)
;
    }
    procBoundary6to4
    {
        type            processor;
        value           nonuniform List<vector> 
27
(
(4.01968e-09 3.53892e-10 3.70542e-10)
(5.20833e-09 3.32283e-10 4.40694e-10)
(6.67343e-09 3.21496e-10 3.58464e-10)
(7.89604e-09 2.57217e-10 -6.79311e-11)
(8.7354e-09 6.03762e-11 -6.46573e-10)
(9.65104e-09 -7.53776e-10 -1.06969e-09)
(9.45259e-09 -1.97683e-09 -1.76967e-09)
(9.44047e-09 -2.58727e-09 -2.24741e-09)
(9.85668e-09 -4.06809e-09 -2.7002e-09)
(3.78946e-09 3.64099e-10 1.07508e-10)
(4.73776e-09 3.36307e-10 1.52604e-10)
(6.11096e-09 3.25011e-10 1.57316e-10)
(7.42808e-09 3.00913e-10 -5.35849e-11)
(8.61285e-09 2.48996e-10 -4.28218e-10)
(9.60329e-09 -4.84639e-11 -7.45009e-10)
(9.59226e-09 -6.04927e-10 -1.05825e-09)
(9.51062e-09 -1.27661e-09 -1.48348e-09)
(9.94846e-09 -2.40294e-09 -1.92378e-09)
(3.65934e-09 3.6461e-10 -6.2275e-11)
(4.45348e-09 3.62763e-10 -1.01716e-11)
(5.77723e-09 3.90172e-10 -4.90041e-13)
(7.15662e-09 3.19253e-10 -1.45258e-10)
(8.45638e-09 3.04349e-10 -3.90243e-10)
(9.30628e-09 1.55805e-10 -6.6329e-10)
(9.29022e-09 -3.67958e-11 -8.57857e-10)
(8.3421e-09 -5.22303e-10 -1.30443e-09)
(7.93299e-09 -1.54476e-09 -1.41234e-09)
)
;
    }
    procBoundary6to7
    {
        type            processor;
        value           nonuniform List<vector> 
12
(
(5.06494e-09 -5.80776e-09 -5.29275e-09)
(8.92071e-09 -4.18878e-09 -4.19757e-09)
(9.59151e-09 -3.38207e-09 -4.74062e-09)
(9.63117e-09 -3.66015e-09 -2.45304e-09)
(1.01365e-08 -2.77731e-09 -2.8959e-09)
(1.07541e-08 -2.5191e-09 -3.44858e-09)
(9.37121e-09 -2.81589e-09 -1.84865e-09)
(9.0806e-09 -1.79696e-09 -1.99742e-09)
(8.45951e-09 -1.45459e-09 -2.30126e-09)
(7.55946e-09 -1.95199e-09 -1.60488e-09)
(7.99508e-09 -1.07594e-09 -1.65181e-09)
(6.73068e-09 -9.63709e-10 -1.8208e-09)
)
;
    }
}


// ************************************************************************* //
