/*--------------------------------*- C++ -*----------------------------------*\
| =========                 |                                                 |
| \\      /  F ield         | OpenFOAM: The Open Source CFD Toolbox           |
|  \\    /   O peration     | Version:  4.x                                   |
|   \\  /    A nd           | Web:      www.OpenFOAM.org                      |
|    \\/     M anipulation  |                                                 |
\*---------------------------------------------------------------------------*/
FoamFile
{
    version     2.0;
    format      ascii;
    class       volScalarField;
    location    "31";
    object      KslPrev;
}
// * * * * * * * * * * * * * * * * * * * * * * * * * * * * * * * * * * * * * //

dimensions      [1 -3 -1 0 0 0 0];

internalField   nonuniform List<scalar> 
87
(
3872.18
16845.8
3636.83
3260.54
6840.97
3185.37
3571.98
12009.3
3823.52
22280.6
3920.76
60853.1
3932.41
1e+10
3916.35
3486.04
10646.4
3677.16
15075.8
3763.87
23452.3
3784.69
48902.9
3772.1
3372
8062.19
3384.76
7823.67
3404.15
8009.88
3372.14
8055.69
3332.93
3528.34
10474.5
3717.59
14623.1
3766.76
22161.8
3800.57
43740.7
3770.8
3444.79
9076.13
3569.31
10018.5
3595.16
11044.5
3612.49
12687.8
3561.84
3365.76
7506.37
3306.27
6918.68
3271.06
6621.94
3226.96
6449.54
3160.94
3431.74
8088.79
3466.75
8207.54
3433.61
8435
3439.98
9047.58
3381.11
3371.31
7528.44
3342.82
7017.22
3287.14
6731.24
3251.78
6671.14
3174.82
3319.31
6940.99
3198.89
5988.83
3063.69
5449.07
3007
5180.17
2947.27
)
;

boundaryField
{
    inlet
    {
        type            zeroGradient;
    }
    outlet
    {
        type            zeroGradient;
    }
    wall
    {
        type            zeroGradient;
    }
    procBoundary6to0
    {
        type            processor;
        value           uniform 0;
    }
    procBoundary6to2
    {
        type            processor;
        value           uniform 0;
    }
    procBoundary6to4
    {
        type            processor;
        value           uniform 0;
    }
    procBoundary6to7
    {
        type            processor;
        value           uniform 0;
    }
}


// ************************************************************************* //
