/*--------------------------------*- C++ -*----------------------------------*\
| =========                 |                                                 |
| \\      /  F ield         | OpenFOAM: The Open Source CFD Toolbox           |
|  \\    /   O peration     | Version:  4.x                                   |
|   \\  /    A nd           | Web:      www.OpenFOAM.org                      |
|    \\/     M anipulation  |                                                 |
\*---------------------------------------------------------------------------*/
FoamFile
{
    version     2.0;
    format      ascii;
    class       volScalarField;
    location    "31";
    object      pSmooth;
}
// * * * * * * * * * * * * * * * * * * * * * * * * * * * * * * * * * * * * * //

dimensions      [1 -1 -2 0 0 0 0];

internalField   nonuniform List<scalar> 
87
(
81.9844
38.8768
81.7944
88.672
38.8469
81.6493
111.989
93.7914
104.652
76.2328
97.0042
58.1203
89.359
40.1239
81.8199
111.545
93.7141
104.387
75.9297
96.9084
57.675
89.4232
39.3503
82.0484
110.854
93.3564
103.744
75.7475
96.4186
57.5181
88.9659
39.2562
81.8796
111.877
93.8735
104.517
76.1388
96.972
58.1709
89.4983
40.0233
82.2416
111.366
93.69
104.089
75.9602
96.5893
57.8604
89.1625
39.54
81.9154
110.789
93.387
103.627
75.819
96.2311
57.7099
88.8772
39.5043
81.7532
111.399
93.6959
104.146
76.0642
96.6478
58.0771
89.2206
39.7962
82.0519
111.028
93.5421
103.833
75.9289
96.3897
57.7532
88.9817
39.58
81.8311
110.573
93.3538
103.46
75.7802
96.1316
57.752
88.7722
39.6587
81.7611
)
;

boundaryField
{
    inlet
    {
        type            zeroGradient;
    }
    outlet
    {
        type            fixedValue;
        value           nonuniform 0();
    }
    wall
    {
        type            zeroGradient;
    }
    procBoundary6to0
    {
        type            processor;
        value           uniform 81.9931;
    }
    procBoundary6to2
    {
        type            processor;
        value           nonuniform List<scalar> 
32
(
81.8478
38.4368
81.9111
88.5709
38.4008
81.609
111.417
93.6685
104.21
75.7578
96.742
57.7084
89.2823
39.6169
39.6169
39.6169
111.039
93.4164
103.869
75.5058
96.4309
57.3321
88.9995
88.9995
88.9995
110.408
93.0762
103.321
75.2797
95.9718
57.1478
57.1478
)
;
    }
    procBoundary6to4
    {
        type            processor;
        value           nonuniform List<scalar> 
27
(
111.888
94.133
104.704
76.3771
97.0997
58.3948
89.4029
40.3216
81.8637
111.917
94.0098
104.624
76.2787
96.956
57.9828
89.3272
39.5057
81.9597
111.577
93.6991
104.208
76.0418
96.5671
57.7328
88.946
39.5022
81.7839
)
;
    }
    procBoundary6to7
    {
        type            processor;
        value           nonuniform List<scalar> 
12
(
21.7081
20.322
20.3682
22.2496
21.0086
20.8145
21.914
21.0243
21.1688
21.8356
21.2095
21.3885
)
;
    }
}


// ************************************************************************* //
