/*--------------------------------*- C++ -*----------------------------------*\
| =========                 |                                                 |
| \\      /  F ield         | OpenFOAM: The Open Source CFD Toolbox           |
|  \\    /   O peration     | Version:  4.x                                   |
|   \\  /    A nd           | Web:      www.OpenFOAM.org                      |
|    \\/     M anipulation  |                                                 |
\*---------------------------------------------------------------------------*/
FoamFile
{
    version     2.0;
    format      ascii;
    class       volScalarField;
    location    "10";
    object      nu;
}
// * * * * * * * * * * * * * * * * * * * * * * * * * * * * * * * * * * * * * //

dimensions      [0 2 -1 0 0 0 0];

internalField   nonuniform List<scalar> 
108
(
1.00104e-06
1.00083e-06
1.0005e-06
1.00016e-06
9.99875e-07
9.99668e-07
9.99532e-07
9.99464e-07
9.94991e-07
1.00115e-06
1.00103e-06
1.00076e-06
1.00043e-06
1.00011e-06
9.99848e-07
9.99645e-07
9.99511e-07
9.91398e-07
1.00118e-06
1.00118e-06
1.001e-06
1.00071e-06
1.00036e-06
1.00004e-06
9.99775e-07
9.99554e-07
9.97818e-07
1.00099e-06
1.00116e-06
1.00125e-06
1.00126e-06
1.00116e-06
1.00099e-06
1.00074e-06
1.00056e-06
9.64413e-07
1.00063e-06
1.00041e-06
1.00016e-06
9.99914e-07
9.99712e-07
9.99548e-07
9.99446e-07
9.99386e-07
9.98992e-07
1.0007e-06
1.00051e-06
1.00026e-06
1.00002e-06
9.998e-07
9.99615e-07
9.99477e-07
9.99395e-07
9.98812e-07
1.00082e-06
1.00067e-06
1.0004e-06
1.00013e-06
9.99857e-07
9.99668e-07
9.99515e-07
9.99522e-07
9.97575e-07
1.00088e-06
1.001e-06
1.00106e-06
1.00107e-06
1.00097e-06
1.00086e-06
1.00062e-06
1.00048e-06
9.97162e-07
1.00035e-06
1.0002e-06
1.00005e-06
9.99887e-07
9.99743e-07
9.99611e-07
9.99524e-07
9.99468e-07
9.99417e-07
1.00035e-06
1.00021e-06
1.00005e-06
9.9989e-07
9.99742e-07
9.99613e-07
9.99516e-07
9.99458e-07
9.99183e-07
1.00043e-06
1.00028e-06
1.00008e-06
9.99919e-07
9.99757e-07
9.99694e-07
9.99585e-07
9.99611e-07
9.98337e-07
1.00067e-06
1.00076e-06
1.00081e-06
1.00083e-06
1.00076e-06
1.00069e-06
1.00052e-06
1.00041e-06
9.98059e-07
)
;

boundaryField
{
    inlet
    {
        type            calculated;
        value           nonuniform 0();
    }
    outlet
    {
        type            calculated;
        value           uniform 1e-06;
    }
    wall
    {
        type            calculated;
        value           nonuniform List<scalar> 
63
(
1.00104e-06
1.00115e-06
1.00118e-06
1.00099e-06
1.00083e-06
1.00103e-06
1.00118e-06
1.00116e-06
1.0005e-06
1.00076e-06
1.001e-06
1.00125e-06
1.00016e-06
1.00043e-06
1.00071e-06
1.00126e-06
9.99875e-07
1.00011e-06
1.00036e-06
1.00116e-06
9.99668e-07
9.99848e-07
1.00004e-06
1.00099e-06
9.99532e-07
9.99645e-07
9.99775e-07
1.00074e-06
9.99464e-07
9.99511e-07
9.99554e-07
1.00056e-06
9.94991e-07
9.91398e-07
9.97818e-07
9.64413e-07
1.00099e-06
1.00088e-06
1.00067e-06
1.00116e-06
1.001e-06
1.00076e-06
1.00125e-06
1.00106e-06
1.00081e-06
1.00126e-06
1.00107e-06
1.00083e-06
1.00116e-06
1.00097e-06
1.00076e-06
1.00099e-06
1.00086e-06
1.00069e-06
1.00074e-06
1.00062e-06
1.00052e-06
1.00056e-06
1.00048e-06
1.00041e-06
9.64413e-07
9.97162e-07
9.98059e-07
)
;
    }
    procBoundary3to1
    {
        type            processor;
        value           nonuniform List<scalar> 
27
(
1.0011e-06
1.00094e-06
1.0006e-06
1.00021e-06
9.99875e-07
9.99629e-07
9.99509e-07
9.99472e-07
9.99104e-07
1.00059e-06
1.00036e-06
1.00008e-06
9.99818e-07
9.99607e-07
9.99455e-07
9.9937e-07
9.99366e-07
9.99254e-07
1.00028e-06
1.0001e-06
9.99896e-07
9.99708e-07
9.99545e-07
9.9944e-07
9.99384e-07
9.99395e-07
9.99198e-07
)
;
    }
    procBoundary3to2
    {
        type            processor;
        value           nonuniform List<scalar> 
12
(
1.00106e-06
1.00108e-06
1.00103e-06
1.00078e-06
1.00078e-06
1.00081e-06
1.00086e-06
1.00073e-06
1.00047e-06
1.00046e-06
1.00052e-06
1.00055e-06
)
;
    }
    procBoundary3to7
    {
        type            processor;
        value           nonuniform List<scalar> 
36
(
1.00024e-06
1.00014e-06
1.00002e-06
9.99883e-07
9.99759e-07
9.99658e-07
9.9963e-07
9.99663e-07
9.99753e-07
1.00017e-06
1.00007e-06
9.99957e-07
9.9984e-07
9.99731e-07
9.99636e-07
9.99578e-07
9.99545e-07
9.99408e-07
1.00023e-06
1.00013e-06
1e-06
9.99897e-07
9.99769e-07
9.99719e-07
9.99627e-07
9.99652e-07
9.99388e-07
1.00041e-06
1.00049e-06
1.00053e-06
1.00056e-06
1.00051e-06
1.00048e-06
1.00032e-06
1.00027e-06
9.99053e-07
)
;
    }
}


// ************************************************************************* //
