/*--------------------------------*- C++ -*----------------------------------*\
| =========                 |                                                 |
| \\      /  F ield         | OpenFOAM: The Open Source CFD Toolbox           |
|  \\    /   O peration     | Version:  4.x                                   |
|   \\  /    A nd           | Web:      www.OpenFOAM.org                      |
|    \\/     M anipulation  |                                                 |
\*---------------------------------------------------------------------------*/
FoamFile
{
    version     2.0;
    format      ascii;
    class       volScalarField;
    location    "56.5";
    object      particleRelTemp;
}
// * * * * * * * * * * * * * * * * * * * * * * * * * * * * * * * * * * * * * //

dimensions      [0 0 0 0 0 0 0];

internalField   nonuniform List<scalar> 
132
(
9.55289e-10
-3.65114e-10
-1.46901e-09
-2.07202e-09
-1.9869e-09
-1.47433e-09
-8.95437e-10
-2.26673e-10
-1.8044e-10
1.03848e-10
-5.06237e-10
-1.51547e-09
-1.77797e-09
-1.78538e-09
-1.49315e-09
-1.11484e-09
-7.69822e-10
-5.16626e-10
-6.91241e-10
-8.15923e-10
-1.32383e-09
-1.51433e-09
-1.57013e-09
-1.43413e-09
-1.24112e-09
-9.69227e-10
-8.44722e-10
-6.9649e-10
-9.66889e-10
-1.13518e-09
-1.42612e-09
-1.44165e-09
-1.37505e-09
-1.26923e-09
-1.03449e-09
-9.60545e-10
-2.07515e-09
-2.15127e-09
-1.8056e-09
-1.25208e-09
-6.41524e-10
-9.61859e-11
2.02397e-10
-1.07766e-09
-1.59606e-09
-1.87493e-09
-1.92418e-09
-1.69701e-09
-1.24995e-09
-7.22392e-10
-3.83438e-10
-7.14818e-11
-1.11041e-09
-1.45678e-09
-1.67829e-09
-1.73322e-09
-1.56613e-09
-1.26549e-09
-9.58864e-10
-6.40463e-10
-4.84124e-10
-1.1983e-09
-1.41138e-09
-1.56061e-09
-1.55814e-09
-1.47801e-09
-1.25847e-09
-1.07264e-09
-8.48893e-10
-7.79632e-10
-1.80502e-09
-1.25681e-09
-5.39602e-10
-1.11517e-10
2.99827e-10
-1.59794e-09
-1.96518e-09
-2.16219e-09
-1.96175e-09
-1.67037e-09
-1.17206e-09
-6.25457e-10
-3.07409e-10
-2.67074e-11
-1.49516e-09
-1.79182e-09
-1.89658e-09
-1.79519e-09
-1.56982e-09
-1.17463e-09
-8.36966e-10
-5.59506e-10
-3.86927e-10
-1.47396e-09
-1.60268e-09
-1.69764e-09
-1.6434e-09
-1.47096e-09
-1.15254e-09
-9.31518e-10
-7.3535e-10
-6.01785e-10
-5.25828e-10
-1.29613e-10
2.06133e-10
-1.65244e-09
-2.03755e-09
-2.17951e-09
-1.96079e-09
-1.58688e-09
-1.12346e-09
-7.60426e-10
-3.41094e-10
-6.4635e-11
-1.58949e-09
-1.79718e-09
-1.90952e-09
-1.79974e-09
-1.49528e-09
-1.16422e-09
-8.74549e-10
-5.62988e-10
-3.91808e-10
-1.4207e-09
-1.60889e-09
-1.67169e-09
-1.57955e-09
-1.42878e-09
-1.18377e-09
-9.16238e-10
-7.17723e-10
-6.18302e-10
)
;

boundaryField
{
    inlet
    {
        type            calculated;
        value           nonuniform 0();
    }
    outlet
    {
        type            calculated;
        value           nonuniform List<scalar> 
16
(
-1.8044e-10
-5.16626e-10
-8.44722e-10
-9.60545e-10
2.02397e-10
-7.14818e-11
-4.84124e-10
-7.79632e-10
2.99827e-10
-2.67074e-11
-3.86927e-10
-6.01785e-10
2.06133e-10
-6.4635e-11
-3.91808e-10
-6.18302e-10
)
;
    }
    wall
    {
        type            calculated;
        value           nonuniform List<scalar> 
66
(
-1.65244e-09
-1.58949e-09
-1.4207e-09
-2.03755e-09
-1.79718e-09
-1.60889e-09
-2.17951e-09
-1.90952e-09
-1.67169e-09
-1.96079e-09
-1.79974e-09
-1.57955e-09
-1.58688e-09
-1.49528e-09
-1.42878e-09
-1.12346e-09
-1.16422e-09
-1.18377e-09
-5.25828e-10
-7.60426e-10
-8.74549e-10
-9.16238e-10
-1.29613e-10
-3.41094e-10
-5.62988e-10
-7.17723e-10
2.06133e-10
-6.4635e-11
-3.91808e-10
-6.18302e-10
-6.9649e-10
-1.1983e-09
-1.47396e-09
-1.4207e-09
-9.66889e-10
-1.41138e-09
-1.60268e-09
-1.60889e-09
-1.13518e-09
-1.56061e-09
-1.69764e-09
-1.67169e-09
-1.42612e-09
-1.55814e-09
-1.6434e-09
-1.57955e-09
-1.44165e-09
-1.47801e-09
-1.47096e-09
-1.42878e-09
-1.37505e-09
-1.25847e-09
-1.15254e-09
-1.18377e-09
-1.26923e-09
-1.07264e-09
-9.31518e-10
-9.16238e-10
-1.03449e-09
-8.48893e-10
-7.3535e-10
-7.17723e-10
-9.60545e-10
-7.79632e-10
-6.01785e-10
-6.18302e-10
)
;
    }
    procBoundary7to0
    {
        type            processor;
        value           uniform 2.83694e-09;
    }
    procBoundary7to1
    {
        type            processor;
        value           uniform 2.11676e-09;
    }
    procBoundary7to3
    {
        type            processor;
        value           nonuniform List<scalar> 
36
(
1.95346e-09
7.36075e-10
-1.09537e-09
-2.06877e-09
-2.35627e-09
-2.11852e-09
-1.62342e-09
-8.87308e-10
-5.7514e-10
1.61269e-09
3.97502e-10
-8.28944e-10
-1.58375e-09
-1.79049e-09
-1.80979e-09
-1.50455e-09
-1.22488e-09
-1.08983e-09
4.20245e-10
-5.27668e-11
-8.79918e-10
-1.30604e-09
-1.58884e-09
-1.59346e-09
-1.59906e-09
-1.39937e-09
-1.34759e-09
-5.51283e-11
-4.08079e-10
-8.4404e-10
-1.24439e-09
-1.43245e-09
-1.51738e-09
-1.53555e-09
-1.4284e-09
-1.30162e-09
)
;
    }
    procBoundary7to5
    {
        type            processor;
        value           nonuniform List<scalar> 
44
(
4.89337e-11
-1.88457e-09
-2.36543e-09
-2.215e-09
-1.54994e-09
-8.69409e-10
-3.29805e-10
1.42688e-10
-5.63663e-10
-1.89983e-09
-2.116e-09
-2.27936e-09
-1.81211e-09
-1.20756e-09
-5.34798e-10
2.2527e-11
3.68413e-10
-5.63663e-10
-1.89983e-09
-1.89983e-09
-2.36136e-09
-2.20592e-09
-1.77568e-09
-1.10386e-09
-4.79383e-10
4.15877e-11
3.40076e-10
-1.56102e-09
-2.11082e-09
-2.36136e-09
-2.20592e-09
-2.20592e-09
-1.73833e-09
-1.05816e-09
-5.23362e-10
-6.39867e-11
2.33863e-10
-1.77501e-09
-2.19394e-09
-2.35832e-09
-2.1484e-09
-1.73833e-09
-1.05816e-09
-1.05816e-09
)
;
    }
    procBoundary7to6
    {
        type            processor;
        value           nonuniform List<scalar> 
12
(
1.11624e-09
1.45854e-10
-3.07051e-10
-2.9693e-10
-7.165e-10
-8.37003e-10
-8.90951e-10
-1.08285e-09
-1.08848e-09
-1.1633e-09
-1.23535e-09
-1.16761e-09
)
;
    }
}


// ************************************************************************* //
