/*--------------------------------*- C++ -*----------------------------------*\
| =========                 |                                                 |
| \\      /  F ield         | OpenFOAM: The Open Source CFD Toolbox           |
|  \\    /   O peration     | Version:  4.x                                   |
|   \\  /    A nd           | Web:      www.OpenFOAM.org                      |
|    \\/     M anipulation  |                                                 |
\*---------------------------------------------------------------------------*/
FoamFile
{
    version     2.0;
    format      ascii;
    class       surfaceScalarField;
    location    "56.5";
    object      phi;
}
// * * * * * * * * * * * * * * * * * * * * * * * * * * * * * * * * * * * * * //

dimensions      [0 3 -1 0 0 0 0];

internalField   nonuniform List<scalar> 
308
(
5.73111e-06
4.65872e-08
5.74409e-06
1.06606e-07
5.59354e-06
5.63836e-08
-7.21198e-08
5.55357e-06
1.08977e-07
8.92141e-08
5.25756e-06
5.91796e-08
-2.97088e-08
5.38401e-06
9.65641e-09
2.80929e-07
4.50708e-06
4.06346e-07
-1.68496e-08
5.29535e-06
-7.77553e-07
6.93898e-07
2.10244e-06
-8.62341e-08
5.29547e-06
1.73562e-07
-5.91493e-09
5.34134e-06
1.37005e-07
-2.73803e-08
5.16375e-06
2.33976e-07
-3.79295e-13
5.40338e-06
-8.78379e-09
4.46943e-08
5.02852e-06
4.36298e-07
-1.51429e-08
5.83376e-06
-4.74674e-07
1.85721e-07
5.13166e-06
1.11059e-06
-5.39193e-08
6.31828e-06
-1.55752e-06
3.53398e-07
3.5168e-06
1.4564e-07
7.76615e-06
6.98791e-08
-1.33673e-07
7.8717e-06
2.92594e-08
-6.22108e-08
8.00965e-06
9.83142e-08
-2.17243e-07
8.11183e-06
-1.17609e-07
-3.69015e-08
8.28413e-06
2.29192e-07
-3.61191e-07
8.31101e-06
-4.48466e-07
7.33014e-08
8.59988e-06
5.36189e-07
-5.96305e-07
8.38471e-06
-9.96897e-07
4.8636e-07
1.5526e-06
-8.77369e-07
9.70412e-06
-3.56712e-07
9.74314e-06
-2.71925e-07
9.81219e-06
-4.18127e-07
9.7172e-06
-1.62563e-07
9.74702e-06
-4.97087e-07
9.29529e-06
1.87121e-07
9.49012e-06
-8.17116e-07
8.70807e-06
6.946e-07
-1.49143e-06
5.06657e-06
-1.75056e-12
5.1397e-06
-8.03729e-08
4.95855e-06
-1.46309e-12
1.21192e-07
5.04342e-06
8.59142e-08
1.25472e-07
4.40882e-06
-9.37804e-13
4.18937e-07
5.54826e-06
5.66292e-07
-3.00466e-07
-3.28422e-07
2.34465e-06
4.91831e-06
9.61614e-13
9.98323e-09
4.97881e-06
-1.71015e-07
-7.97462e-09
4.9788e-06
1.26161e-12
3.13839e-12
5.05046e-06
-1.2371e-07
1.63704e-08
5.02504e-06
1.01322e-12
1.02751e-08
5.10797e-06
1.5384e-07
3.48635e-08
4.94189e-06
6.61359e-13
1.12168e-07
5.73619e-06
1.84537e-07
-5.91479e-08
-2.04142e-07
4.36286e-07
5.13475e-06
-2.31401e-08
3.06755e-08
5.19743e-06
-3.02578e-07
6.66586e-09
4.9408e-06
-1.68764e-08
5.62631e-08
5.01489e-06
-2.75353e-07
4.0657e-08
4.45749e-06
5.7488e-11
1.96146e-07
4.54166e-06
6.98184e-08
7.31545e-08
3.45108e-06
-8.98304e-14
4.94276e-07
4.21052e-06
7.0792e-08
-1.59327e-07
-8.11018e-08
1.62226e-06
6.99533e-06
-8.60122e-08
6.33397e-06
8.68577e-08
5.91879e-06
-1.98245e-08
5.34523e-06
1.35648e-07
4.68199e-06
1.66212e-07
4.78705e-06
1.51876e-07
3.64661e-06
3.23327e-07
4.28987e-06
1.22127e-07
1.47149e-06
6.03067e-06
-1.78291e-08
6.55193e-06
-6.92624e-08
6.07611e-06
1.01627e-07
7.14942e-07
7.11895e-06
-5.03355e-07
-7.52613e-07
1.30237e-06
3.20348e-06
5.28075e-06
7.25806e-08
2.8973e-08
5.28887e-06
8.02116e-08
-3.40669e-08
5.1821e-06
9.62956e-08
9.80776e-10
5.33819e-06
-6.23599e-08
-7.49321e-08
5.06714e-06
2.22865e-07
4.06344e-08
5.69469e-06
-4.17107e-07
-2.44837e-07
5.09471e-06
6.78643e-07
1.3513e-07
6.45434e-06
-1.33212e-06
-5.90019e-07
3.07851e-06
5.15902e-07
7.15241e-06
4.0792e-08
-8.18497e-09
7.27115e-06
9.74992e-09
-4.16108e-08
7.52285e-06
-1.4278e-08
-8.48601e-08
7.83317e-06
-1.49774e-07
-1.82255e-07
8.34741e-06
-4.42056e-09
-9.08085e-08
8.72893e-06
-4.38788e-07
-2.86684e-07
9.76208e-06
1.84583e-07
-4.48136e-08
9.59284e-06
-9.01808e-07
-4.20391e-07
1.34059e-06
9.20477e-07
9.44067e-06
-5.04117e-08
9.48337e-06
5.39155e-08
9.52966e-06
-8.03945e-08
9.51099e-06
4.54135e-09
9.8093e-06
-1.36514e-07
9.59589e-06
-7.35023e-08
1.04665e-05
-3.62748e-07
9.65824e-06
2.8623e-08
7.77923e-09
9.82834e-06
-8.78438e-07
9.28517e-06
3.0788e-07
-1.64634e-06
7.90514e-06
-2.54862e-08
7.74404e-06
-2.31023e-08
7.51744e-06
-5.98661e-08
7.32863e-06
-7.58238e-08
7.01837e-06
-1.14344e-07
6.72069e-06
-9.74042e-08
6.10738e-06
-1.29995e-07
5.907e-06
-8.17624e-08
-1.96626e-07
9.18069e-06
-3.54546e-08
9.15716e-06
-4.11764e-08
9.08218e-06
-6.97468e-08
8.90214e-06
-7.8036e-08
8.85268e-06
-1.55696e-07
8.49154e-06
-2.29442e-08
8.58731e-06
-2.70588e-07
7.98186e-06
1.03298e-07
-8.51606e-07
1.03248e-05
1.03376e-05
1.01874e-05
1.01139e-05
9.82173e-06
9.72528e-06
9.09194e-06
9.22387e-06
)
;

boundaryField
{
    inlet
    {
        type            calculated;
        value           nonuniform 0();
    }
    outlet
    {
        type            calculated;
        value           nonuniform List<scalar> 
16
(
1.58216e-06
4.80161e-06
9.02076e-06
9.21711e-06
2.64166e-06
5.32126e-06
1.58785e-06
1.24585e-06
4.35832e-06
4.59859e-06
1.20325e-05
1.24625e-05
1.24604e-05
4.97319e-06
9.55732e-06
8.38004e-06
)
;
    }
    wall
    {
        type            calculated;
        value           nonuniform List<scalar> 
66
(
0
0
0
0
0
0
0
0
0
0
0
0
0
0
0
0
0
0
0
0
0
0
0
0
0
0
0
0
0
0
0
0
0
0
0
0
0
0
0
0
0
-6.16298e-33
0
0
0
0
0
0
0
-1.97215e-31
0
0
0
0
0
0
0
6.16298e-33
0
0
0
0
0
0
0
0
)
;
    }
    procBoundary7to0
    {
        type            processor;
        value           uniform -5.87027e-06;
    }
    procBoundary7to1
    {
        type            processor;
        value           uniform -4.25443e-08;
    }
    procBoundary7to3
    {
        type            processor;
        value           nonuniform List<scalar> 
36
(
1.96871e-07
6.41853e-08
2.24296e-07
-2.35501e-08
2.90886e-07
-3.45503e-07
5.02389e-07
-1.23255e-06
2.01502e-06
4.82884e-09
-4.88849e-08
-1.99214e-12
-1.66565e-07
1.28846e-08
-5.06636e-07
5.17786e-08
-7.6005e-07
-4.33284e-08
1.40126e-07
6.44064e-08
2.14949e-07
4.35523e-08
3.95995e-07
-1.26394e-07
8.81842e-07
-8.3181e-07
2.20552e-06
3.50878e-07
2.62164e-07
4.4739e-07
1.39953e-07
6.96458e-07
-1.83862e-07
1.15848e-06
-9.09453e-07
2.535e-06
)
;
    }
    procBoundary7to5
    {
        type            processor;
        value           nonuniform List<scalar> 
44
(
-1.58299e-07
-5.80092e-08
-1.34668e-07
-2.4343e-08
-7.1541e-08
-1.49543e-08
5.2793e-07
-3.18035e-07
-6.17537e-08
-2.54705e-08
2.16412e-12
2.20818e-08
3.02587e-08
-1.53365e-08
1.98815e-07
-7.11359e-07
8.04129e-07
1.26149e-12
-5.17887e-06
9.11153e-08
4.0184e-08
7.4372e-08
1.84861e-08
-1.61207e-07
7.81867e-08
-8.73414e-08
5.99434e-07
1.51295e-08
-6.22424e-08
9.50153e-09
-6.10811e-06
-2.43404e-09
1.97983e-07
-1.65316e-07
8.92228e-07
-5.17326e-07
1.67457e-06
1.87825e-07
1.50134e-07
2.87454e-07
1.89699e-07
4.65235e-07
-9.12719e-06
1.50251e-07
)
;
    }
    procBoundary7to6
    {
        type            processor;
        value           nonuniform List<scalar> 
12
(
-5.42136e-06
-7.66892e-06
-9.62841e-06
-4.93421e-06
-5.27595e-06
-7.28917e-06
-5.38745e-06
-7.08176e-06
-9.43548e-06
-8.03851e-06
-9.17891e-06
-1.04107e-05
)
;
    }
}


// ************************************************************************* //
