/*--------------------------------*- C++ -*----------------------------------*\
| =========                 |                                                 |
| \\      /  F ield         | OpenFOAM: The Open Source CFD Toolbox           |
|  \\    /   O peration     | Version:  4.x                                   |
|   \\  /    A nd           | Web:      www.OpenFOAM.org                      |
|    \\/     M anipulation  |                                                 |
\*---------------------------------------------------------------------------*/
FoamFile
{
    version     2.0;
    format      ascii;
    class       volScalarField;
    location    "56.5";
    object      QWallFluid;
}
// * * * * * * * * * * * * * * * * * * * * * * * * * * * * * * * * * * * * * //

dimensions      [1 -1 -3 0 0 0 0];

internalField   nonuniform List<scalar> 
132
(
0
0
0
0
0
0
0
0
0
0
0
0
0
0
0
0
0
0
0
0
0
0
0
0
0
0
0
4.98283e+08
9.16765e+08
4.87788e+08
9.39999e+08
4.58931e+08
9.61758e+08
3.89044e+08
1.00621e+09
3.45515e+08
0
0
0
0
0
0
0
0
0
0
0
0
0
0
0
0
0
0
0
0
0
0
0
0
0
2.80802e+08
7.90909e+08
1.56699e+08
7.59108e+08
5.71178e+06
6.98454e+08
3991.31
5.72889e+08
1.17508e+08
0
0
0
0
0
0
0
0
0
0
0
0
0
0
0
0
0
0
0
0
0
0
0
4.95961e+08
8.88109e+08
4.8546e+08
9.08648e+08
4.64785e+08
9.5934e+08
4.17206e+08
1.07382e+09
3.5126e+08
3.89851e+08
1.03675e+09
3.88631e+08
3.66518e+08
8.25151e+08
3.26605e+08
8.15068e+08
2.7851e+08
7.98752e+08
2.08743e+08
7.51073e+08
1.51021e+08
4.7525e+08
8.76926e+08
4.56099e+08
8.84217e+08
4.13999e+08
8.9709e+08
3.48623e+08
9.28606e+08
2.42613e+08
1.15309e+09
1.83007e+09
1.12578e+09
1.82762e+09
1.07346e+09
1.79872e+09
1.02465e+09
1.70095e+09
1.0909e+09
)
;

boundaryField
{
    inlet
    {
        type            calculated;
        value           nonuniform 0();
    }
    outlet
    {
        type            calculated;
        value           uniform 0;
    }
    wall
    {
        type            calculated;
        value           uniform 0;
    }
    procBoundary7to0
    {
        type            processor;
        value           uniform 0;
    }
    procBoundary7to1
    {
        type            processor;
        value           uniform 0;
    }
    procBoundary7to3
    {
        type            processor;
        value           nonuniform List<scalar> 
36
(
0
0
0
0
0
0
0
0
0
0
0
0
0
0
0
0
0
0
0
0
0
0
0
0
0
0
0
4.3671e+08
8.86037e+08
4.05959e+08
8.91897e+08
3.5492e+08
9.12347e+08
2.98861e+08
1.00701e+09
2.98314e+08
)
;
    }
    procBoundary7to5
    {
        type            processor;
        value           nonuniform List<scalar> 
44
(
0
0
0
0
0
0
0
0
0
0
0
0
0
0
0
0
0
0
0
0
0
0
0
0
0
0
0
0
0
0
0
0
4.04638e+08
9.38607e+08
4.05285e+08
1.05421e+09
3.74307e+08
4.41215e+08
8.75534e+08
4.29467e+08
8.97878e+08
4.04638e+08
9.38607e+08
9.38607e+08
)
;
    }
    procBoundary7to6
    {
        type            processor;
        value           nonuniform List<scalar> 
12
(
0
0
8.95148e+08
0
0
8.10911e+08
0
0
8.74613e+08
8.27344e+08
8.63858e+08
1.82343e+09
)
;
    }
}


// ************************************************************************* //
