/*--------------------------------*- C++ -*----------------------------------*\
| =========                 |                                                 |
| \\      /  F ield         | OpenFOAM: The Open Source CFD Toolbox           |
|  \\    /   O peration     | Version:  4.x                                   |
|   \\  /    A nd           | Web:      www.OpenFOAM.org                      |
|    \\/     M anipulation  |                                                 |
\*---------------------------------------------------------------------------*/
FoamFile
{
    version     2.0;
    format      ascii;
    class       volScalarField;
    location    "56.5";
    object      thCond;
}
// * * * * * * * * * * * * * * * * * * * * * * * * * * * * * * * * * * * * * //

dimensions      [1 1 -3 -1 0 0 0];

internalField   nonuniform List<scalar> 
132
(
189.907
189.871
189.934
189.793
189.427
189.382
189.499
189.732
189.556
190.071
189.766
189.861
189.867
189.632
189.701
189.582
189.661
189.586
190.446
190.048
190.036
189.968
189.762
189.605
189.595
189.677
189.645
190.456
190.262
190.016
190.167
189.917
189.825
189.712
189.924
190.186
189.739
189.566
189.509
189.413
189.26
189.318
189.46
190.122
189.672
189.641
189.578
189.391
189.429
189.459
189.375
189.559
190.181
189.767
189.775
189.76
189.503
189.33
189.277
189.439
189.485
190.184
189.897
189.926
189.797
189.654
189.664
189.554
189.566
189.936
189.527
189.486
189.351
189.442
189.558
189.834
189.674
189.607
189.667
189.384
189.455
189.371
189.273
189.439
189.994
189.787
189.685
189.657
189.453
189.422
189.342
189.431
189.483
190.246
189.969
189.83
189.763
189.728
189.74
189.494
189.605
189.901
189.594
189.58
189.674
190
189.912
189.619
189.599
189.687
189.82
189.553
189.556
189.737
190.127
189.986
189.874
189.784
189.648
189.654
189.517
189.622
189.681
190.242
189.954
190.013
189.93
189.766
189.722
189.658
189.809
190.198
)
;

boundaryField
{
    inlet
    {
        type            zeroGradient;
    }
    outlet
    {
        type            zeroGradient;
    }
    wall
    {
        type            zeroGradient;
    }
    procBoundary7to0
    {
        type            processor;
        value           uniform 190.698;
    }
    procBoundary7to1
    {
        type            processor;
        value           uniform 190.307;
    }
    procBoundary7to3
    {
        type            processor;
        value           nonuniform List<scalar> 
36
(
190.37
190.204
190.131
190.119
190.232
190.13
189.936
190.048
190.117
190.362
190.451
190.251
190.516
190.441
190.098
189.985
189.914
190.152
190.678
190.42
190.323
190.488
190.339
190.101
190.125
190.08
190.248
190.645
190.911
190.712
190.623
190.503
190.288
190.265
190.115
190.133
)
;
    }
    procBoundary7to5
    {
        type            processor;
        value           nonuniform List<scalar> 
44
(
190.037
190.127
189.917
189.931
189.924
189.733
189.85
189.712
189.742
189.969
189.798
189.641
189.61
189.509
189.422
189.481
189.645
189.742
189.969
189.969
189.426
189.461
189.249
189.335
189.253
189.254
189.357
190.005
189.587
189.426
189.461
189.461
189.259
189.399
189.512
189.505
189.559
189.951
189.89
189.595
189.609
189.259
189.399
189.399
)
;
    }
    procBoundary7to6
    {
        type            processor;
        value           nonuniform List<scalar> 
12
(
190.369
190.417
190.725
189.978
190.072
190.245
189.937
190.028
190.358
190.299
190.114
190.39
)
;
    }
}


// ************************************************************************* //
