/*--------------------------------*- C++ -*----------------------------------*\
| =========                 |                                                 |
| \\      /  F ield         | OpenFOAM: The Open Source CFD Toolbox           |
|  \\    /   O peration     | Version:  4.x                                   |
|   \\  /    A nd           | Web:      www.OpenFOAM.org                      |
|    \\/     M anipulation  |                                                 |
\*---------------------------------------------------------------------------*/
FoamFile
{
    version     2.0;
    format      ascii;
    class       volScalarField;
    location    "15.5";
    object      ddtVoidfraction;
}
// * * * * * * * * * * * * * * * * * * * * * * * * * * * * * * * * * * * * * //

dimensions      [0 0 -1 0 0 0 0];

internalField   nonuniform List<scalar> 
87
(
-0.0166911
-0.0145868
-0.0122514
-0.0101058
-0.00803881
-0.0064412
-0.00539135
-0.00486997
-0.00458942
-0.020785
-0.0171395
-0.0138872
-0.0109097
-0.00853556
-0.00681759
-0.00571053
-0.00505957
-0.00478732
-0.0285324
-0.0219204
-0.0166266
-0.0125482
-0.00945161
-0.00742209
-0.00616088
-0.0054387
-0.00508979
-0.0154516
-0.0137617
-0.0117657
-0.00965804
-0.00778217
-0.00634341
-0.0054122
-0.00482548
-0.0045314
-0.0189417
-0.0159636
-0.0130971
-0.0104621
-0.00831777
-0.00670574
-0.00567975
-0.00499715
-0.00464208
-0.0254207
-0.020038
-0.0155052
-0.0118037
-0.00908444
-0.00726666
-0.00602918
-0.00517936
-0.00481686
-0.0136897
-0.0123916
-0.0107794
-0.00891559
-0.00740036
-0.00623443
-0.0053721
-0.00470981
-0.00436044
-0.0160765
-0.0140434
-0.0117036
-0.00961823
-0.00784521
-0.00652729
-0.00551951
-0.00478721
-0.00443
-0.0208626
-0.0170815
-0.0135938
-0.0107813
-0.00852263
-0.00696524
-0.00586088
-0.00509102
-0.00453352
-0.0115561
-0.0108151
-0.0093913
-0.0130857
-0.0117963
-0.0162072
)
;

boundaryField
{
    inlet
    {
        type            calculated;
        value           nonuniform 0();
    }
    outlet
    {
        type            calculated;
        value           uniform 0;
    }
    wall
    {
        type            calculated;
        value           nonuniform List<scalar> 
57
(
-0.0166911
-0.020785
-0.0285324
-0.0145868
-0.0171395
-0.0219204
-0.0122514
-0.0138872
-0.0166266
-0.0101058
-0.0109097
-0.0125482
-0.00803881
-0.00853556
-0.00945161
-0.0064412
-0.00681759
-0.00742209
-0.00539135
-0.00571053
-0.00616088
-0.00486997
-0.00505957
-0.0054387
-0.00458942
-0.00478732
-0.00508979
-0.0166911
-0.0154516
-0.0136897
-0.0115561
-0.0145868
-0.0137617
-0.0123916
-0.0108151
-0.0122514
-0.0117657
-0.0107794
-0.0093913
-0.0101058
-0.00965804
-0.00891559
-0.00803881
-0.00778217
-0.00740036
-0.0064412
-0.00634341
-0.00623443
-0.00539135
-0.0054122
-0.0053721
-0.00486997
-0.00482548
-0.00470981
-0.00458942
-0.0045314
-0.00436044
)
;
    }
    procBoundary1to0
    {
        type            processor;
        value           nonuniform List<scalar> 
12
(
-0.0180058
-0.0238515
-0.0365041
-0.0163739
-0.0212557
-0.0315579
-0.0139455
-0.0174288
-0.0244593
-0.0112272
-0.0134013
-0.0178407
)
;
    }
    procBoundary1to3
    {
        type            processor;
        value           nonuniform List<scalar> 
27
(
-0.0408394
-0.0285926
-0.0203016
-0.0146345
-0.0107409
-0.00825685
-0.00667386
-0.00576736
-0.00532976
-0.0355562
-0.025679
-0.0187042
-0.0137414
-0.010307
-0.00799875
-0.00649632
-0.00553541
-0.00510101
-0.0279431
-0.0214359
-0.0162491
-0.0123325
-0.00959127
-0.00766378
-0.00630406
-0.00542461
-0.0048569
)
;
    }
    procBoundary1to5
    {
        type            processor;
        value           nonuniform List<scalar> 
32
(
-0.008073
-0.00688399
-0.00586858
-0.00508267
-0.00445166
-0.00407439
-0.0101419
-0.00863143
-0.00729554
-0.00616573
-0.00524468
-0.00453584
-0.00414945
-0.01394
-0.0115556
-0.00951219
-0.00789468
-0.00656746
-0.00551026
-0.00474127
-0.00433545
-0.00950543
-0.00923151
-0.008073
-0.0101419
-0.008321
-0.0106742
-0.0101419
-0.01394
-0.00998682
-0.01394
-0.0124938
)
;
    }
    procBoundary1to7
    {
        type            processor;
        value           uniform -0.0206987;
    }
}


// ************************************************************************* //
