/*--------------------------------*- C++ -*----------------------------------*\
| =========                 |                                                 |
| \\      /  F ield         | OpenFOAM: The Open Source CFD Toolbox           |
|  \\    /   O peration     | Version:  4.x                                   |
|   \\  /    A nd           | Web:      www.OpenFOAM.org                      |
|    \\/     M anipulation  |                                                 |
\*---------------------------------------------------------------------------*/
FoamFile
{
    version     2.0;
    format      ascii;
    class       volScalarField;
    location    "15.5";
    object      KslNext;
}
// * * * * * * * * * * * * * * * * * * * * * * * * * * * * * * * * * * * * * //

dimensions      [1 -3 -1 0 0 0 0];

internalField   nonuniform List<scalar> 
87
(
3565.44
2527.67
3471.13
2440.46
3581.38
2284.25
4056.35
2144.43
5672.09
4008.41
2731
4115.24
2707.94
4687.19
2646.99
6089.67
2527.28
6815.63
4793.67
3005.91
5545.68
3107.54
8278.32
3396.07
18139.3
4219.06
27992.3
5252.33
2957.48
5136.09
2797.55
5196.07
2455.11
5516.48
1930.89
4038.78
8831.09
3493.64
9677.67
3385.14
11272.7
3218.66
11180.8
3265.02
4248.27
20657.3
3839.44
41530.3
3680.56
91053.2
3577.49
239462
3901.44
3.6343e+06
6960.5
3288.85
7171.75
3144.24
7051.24
2764.7
6924.55
2112.06
6401.89
13804.6
3859.28
16527
3722.31
17283.6
3573.87
10925
3482.01
4492.1
212625
4133.12
302764
4105.86
112648
4083.78
136951
4418.66
23635.8
6247.76
3057.76
6301.46
20581.8
3663.57
19581.8
)
;

boundaryField
{
    inlet
    {
        type            zeroGradient;
    }
    outlet
    {
        type            zeroGradient;
    }
    wall
    {
        type            zeroGradient;
    }
    procBoundary1to0
    {
        type            processor;
        value           uniform 0;
    }
    procBoundary1to3
    {
        type            processor;
        value           uniform 0;
    }
    procBoundary1to5
    {
        type            processor;
        value           uniform 0;
    }
    procBoundary1to7
    {
        type            processor;
        value           uniform 0;
    }
}


// ************************************************************************* //
