/*--------------------------------*- C++ -*----------------------------------*\
| =========                 |                                                 |
| \\      /  F ield         | OpenFOAM: The Open Source CFD Toolbox           |
|  \\    /   O peration     | Version:  4.x                                   |
|   \\  /    A nd           | Web:      www.OpenFOAM.org                      |
|    \\/     M anipulation  |                                                 |
\*---------------------------------------------------------------------------*/
FoamFile
{
    version     2.0;
    format      ascii;
    class       volScalarField;
    location    "15.5";
    object      magGField;
}
// * * * * * * * * * * * * * * * * * * * * * * * * * * * * * * * * * * * * * //

dimensions      [1 -2 -1 0 0 0 0];

internalField   nonuniform List<scalar> 
87
(
100.355
142.244
102.889
147.1
98.1549
152.364
84.4568
157.909
58.8949
90.0608
132.593
87.2817
132.841
75.2162
131.486
55.6808
133.559
47.6057
74.5652
119.231
63.5417
113.475
41.7462
101.069
18.3732
78.0191
11.3949
66.9118
119.27
68.5486
126.389
66.9422
141.048
61.7775
176.396
80.4815
40.2912
101.911
36.4954
105.045
30.9984
107.91
30.3904
103.407
76.082
16.9809
91.8214
8.4017
94.6459
3.76979
95.1243
1.39323
84.2459
0.0880162
48.6925
104.096
47.4441
109.233
48.0925
122.667
48.4446
159.768
50.2161
24.8125
89.096
20.6693
92.4792
19.6398
95.0662
30.4693
95.0471
70.9869
1.52645
82.3544
1.0762
82.289
2.96323
81.352
2.37746
72.8208
13.2329
52.8982
108.392
52.2773
16.2265
91.2351
16.8682
)
;

boundaryField
{
    inlet
    {
        type            calculated;
        value           nonuniform 0();
    }
    outlet
    {
        type            calculated;
        value           nonuniform List<scalar> 9(119.025 98.4592 23.6481 169.904 160.32 0.186254 107.04 151.57 28.3589);
    }
    wall
    {
        type            calculated;
        value           uniform 0;
    }
    procBoundary1to0
    {
        type            processor;
        value           nonuniform List<scalar> 
12
(
135.677
127.735
117.498
112.909
99.6509
92.8367
101.801
86.6111
82.57
104.069
90.8608
89.6232
)
;
    }
    procBoundary1to3
    {
        type            processor;
        value           nonuniform List<scalar> 
27
(
77.877
120.079
71.2832
119.425
58.472
120.315
47.3555
137.51
62.2866
24.0151
89.6995
19.207
92.9595
20.5449
96.9157
27.9221
96.9614
79.56
1.35475
80.3824
0.96896
81.9603
2.88226
82.5197
3.14873
77.5085
12.0909
)
;
    }
    procBoundary1to5
    {
        type            processor;
        value           nonuniform List<scalar> 
32
(
114.044
49.3103
127.176
45.9787
156.707
59.6662
17.925
95.2079
23.7707
98.2507
29.9568
93.3425
59.1899
90.5751
12.2703
92.5922
13.0084
93.2645
9.24921
86.8781
10.7224
47.1976
99.407
114.044
17.925
40.7677
1.50241
17.925
90.5751
81.9981
90.5751
1.42538
)
;
    }
    procBoundary1to7
    {
        type            processor;
        value           uniform 16.0895;
    }
}


// ************************************************************************* //
