/*--------------------------------*- C++ -*----------------------------------*\
| =========                 |                                                 |
| \\      /  F ield         | OpenFOAM: The Open Source CFD Toolbox           |
|  \\    /   O peration     | Version:  4.x                                   |
|   \\  /    A nd           | Web:      www.OpenFOAM.org                      |
|    \\/     M anipulation  |                                                 |
\*---------------------------------------------------------------------------*/
FoamFile
{
    version     2.0;
    format      ascii;
    class       volScalarField;
    location    "15.5";
    object      nu;
}
// * * * * * * * * * * * * * * * * * * * * * * * * * * * * * * * * * * * * * //

dimensions      [0 2 -1 0 0 0 0];

internalField   nonuniform List<scalar> 
87
(
1.00009e-06
1.00013e-06
1.00021e-06
1.00032e-06
1.00046e-06
1.00059e-06
1.0007e-06
1.0008e-06
9.75612e-07
1.00014e-06
1.00021e-06
1.00033e-06
1.00049e-06
1.00064e-06
1.00073e-06
1.00071e-06
1.00065e-06
1.00026e-06
1.00021e-06
1.00033e-06
1.00049e-06
1.00063e-06
1.00069e-06
1.00061e-06
1.00038e-06
1.00008e-06
9.99598e-07
1.00013e-06
1.00021e-06
1.00034e-06
1.00048e-06
1.0006e-06
1.00069e-06
1.00073e-06
1.00079e-06
1.00102e-06
1.00021e-06
1.00034e-06
1.00052e-06
1.00062e-06
1.0006e-06
1.00055e-06
1.00035e-06
1.00027e-06
9.99831e-07
1.00037e-06
1.00049e-06
1.00054e-06
1.00045e-06
1.00021e-06
9.99996e-07
9.99782e-07
9.99729e-07
9.99769e-07
1.00005e-06
1.00014e-06
1.00032e-06
1.00048e-06
1.00058e-06
1.00068e-06
1.00068e-06
1.00074e-06
1.0006e-06
1.00073e-06
1.00078e-06
1.00069e-06
1.00055e-06
1.00036e-06
1.00026e-06
1.00008e-06
1.00008e-06
9.99366e-07
1.00013e-06
1.00026e-06
1.00025e-06
1.00017e-06
1.00001e-06
9.99859e-07
9.99718e-07
9.99654e-07
9.99277e-07
1.00005e-06
1.0001e-06
1.00019e-06
9.99993e-07
1.00011e-06
1.00014e-06
)
;

boundaryField
{
    inlet
    {
        type            calculated;
        value           nonuniform 0();
    }
    outlet
    {
        type            calculated;
        value           uniform 1e-06;
    }
    wall
    {
        type            calculated;
        value           nonuniform List<scalar> 
57
(
1.00009e-06
1.00014e-06
1.00021e-06
1.00013e-06
1.00021e-06
1.00033e-06
1.00021e-06
1.00033e-06
1.00049e-06
1.00032e-06
1.00049e-06
1.00063e-06
1.00046e-06
1.00064e-06
1.00069e-06
1.00059e-06
1.00073e-06
1.00061e-06
1.0007e-06
1.00071e-06
1.00038e-06
1.0008e-06
1.00065e-06
1.00008e-06
9.75612e-07
1.00026e-06
9.99598e-07
1.00009e-06
1.00013e-06
1.00005e-06
1.00005e-06
1.00013e-06
1.00021e-06
1.00014e-06
1.0001e-06
1.00021e-06
1.00034e-06
1.00032e-06
1.00019e-06
1.00032e-06
1.00048e-06
1.00048e-06
1.00046e-06
1.0006e-06
1.00058e-06
1.00059e-06
1.00069e-06
1.00068e-06
1.0007e-06
1.00073e-06
1.00068e-06
1.0008e-06
1.00079e-06
1.00074e-06
9.75612e-07
1.00102e-06
1.0006e-06
)
;
    }
    procBoundary1to0
    {
        type            processor;
        value           nonuniform List<scalar> 
12
(
1.00007e-06
1.0001e-06
1.00013e-06
1.00012e-06
1.00023e-06
1.00029e-06
1.00012e-06
1.00063e-06
1.0002e-06
1.00005e-06
1.00007e-06
1.00013e-06
)
;
    }
    procBoundary1to3
    {
        type            processor;
        value           nonuniform List<scalar> 
27
(
1.00022e-06
1.00035e-06
1.00049e-06
1.00062e-06
1.00069e-06
1.00065e-06
1.00049e-06
1.00031e-06
9.92879e-07
1.00045e-06
1.00055e-06
1.00059e-06
1.00056e-06
1.00044e-06
1.00029e-06
1.00008e-06
9.99919e-07
9.99494e-07
1.00033e-06
1.00037e-06
1.00034e-06
1.00027e-06
1.00015e-06
1.00003e-06
9.99895e-07
9.99765e-07
9.99457e-07
)
;
    }
    procBoundary1to5
    {
        type            processor;
        value           nonuniform List<scalar> 
32
(
1.00031e-06
1.0004e-06
1.0005e-06
1.0005e-06
1.00056e-06
1.0008e-06
1.00019e-06
1.00021e-06
1.00014e-06
1.0001e-06
9.99989e-07
1.00001e-06
9.99486e-07
1.00017e-06
1.00018e-06
1.00013e-06
1.00004e-06
9.99933e-07
9.99814e-07
9.99736e-07
9.99194e-07
1.00006e-06
1.00009e-06
1.00031e-06
1.00019e-06
1.00014e-06
1.00009e-06
1.00019e-06
1.00017e-06
1.00009e-06
1.00017e-06
1.00012e-06
)
;
    }
    procBoundary1to7
    {
        type            processor;
        value           uniform 1.0002e-06;
    }
}


// ************************************************************************* //
