/*--------------------------------*- C++ -*----------------------------------*\
| =========                 |                                                 |
| \\      /  F ield         | OpenFOAM: The Open Source CFD Toolbox           |
|  \\    /   O peration     | Version:  4.x                                   |
|   \\  /    A nd           | Web:      www.OpenFOAM.org                      |
|    \\/     M anipulation  |                                                 |
\*---------------------------------------------------------------------------*/
FoamFile
{
    version     2.0;
    format      ascii;
    class       volVectorField;
    location    "15.5";
    object      UsPrev;
}
// * * * * * * * * * * * * * * * * * * * * * * * * * * * * * * * * * * * * * //

dimensions      [0 1 -1 0 0 0 0];

internalField   nonuniform List<vector> 
87
(
(1.75449e-05 2.16745e-06 -4.97818e-07)
(9.9644e-06 7.70035e-06 -5.99804e-07)
(7.25763e-06 -2.19992e-07 5.97242e-09)
(7.26155e-06 7.82846e-09 -1.22657e-07)
(4.20348e-06 8.31935e-07 2.20597e-07)
(3.70889e-06 2.93376e-07 -2.64798e-07)
(2.77364e-06 8.34639e-08 -1.06406e-07)
(2.85011e-06 4.15252e-08 -9.13382e-09)
(1.09379e-06 -7.389e-08 -8.65496e-08)
(1.97164e-05 2.81525e-06 -1.31486e-06)
(1.91929e-05 2.45016e-06 -1.20537e-06)
(1.21744e-05 2.15759e-06 -6.37587e-07)
(1.07076e-05 1.1302e-06 -5.53468e-07)
(6.66504e-06 -3.63193e-07 7.78005e-07)
(4.44766e-06 4.67584e-07 -6.7198e-07)
(2.26703e-06 1.42641e-07 -6.77004e-08)
(1.99887e-06 4.33715e-08 5.20843e-08)
(2.02058e-07 -2.45352e-07 1.50048e-08)
(1.59003e-05 5.03003e-06 -2.55829e-06)
(1.6332e-05 4.55783e-06 -2.00349e-06)
(7.17848e-06 1.30593e-06 -9.41807e-07)
(7.56823e-06 1.58987e-06 -7.66921e-07)
(4.13146e-06 5.08949e-07 -1.83176e-07)
(4.92606e-06 8.53111e-07 -3.13252e-07)
(2.30938e-06 5.60261e-07 -4.9705e-07)
(1.33998e-06 6.38975e-08 -2.02497e-07)
(2.26842e-08 -1.81674e-07 4.84807e-08)
(1.87854e-05 2.77131e-06 -2.18454e-06)
(1.35357e-05 1.93229e-06 -1.9038e-06)
(1.17393e-05 1.08626e-06 -1.43771e-06)
(8.74421e-06 1.25344e-06 -8.05448e-07)
(4.91449e-06 6.23521e-07 -7.92952e-08)
(3.79261e-06 1.66893e-07 -3.34291e-07)
(2.77338e-06 2.19766e-07 -7.24085e-08)
(2.01528e-06 1.78257e-07 -9.52002e-08)
(5.79565e-07 -4.75309e-09 -8.7157e-08)
(2.60147e-05 4.19271e-06 -3.11056e-06)
(2.02617e-05 2.79464e-06 -2.501e-06)
(1.27424e-05 2.44718e-06 -1.83424e-06)
(1.13476e-05 1.4203e-06 -1.01962e-06)
(7.23831e-06 2.70672e-07 -5.85487e-07)
(5.53929e-06 3.33252e-07 -8.22051e-07)
(3.33127e-06 3.83907e-07 -3.9962e-07)
(2.27122e-06 1.08904e-07 -1.74872e-07)
(4.14341e-07 -2.05695e-07 -5.98446e-08)
(1.77828e-05 5.73312e-06 -4.52312e-06)
(1.73222e-05 4.73973e-06 -3.60803e-06)
(1.08471e-05 2.79212e-06 -1.96022e-06)
(9.39699e-06 2.24683e-06 -1.31203e-06)
(5.08042e-06 5.95935e-07 -9.67319e-07)
(4.45468e-06 6.55534e-07 -6.10155e-07)
(2.7516e-06 7.61397e-07 -6.44872e-07)
(1.6018e-06 2.37016e-07 -1.09994e-07)
(1.01344e-07 -1.98473e-07 -8.61892e-09)
(1.30894e-05 1.34599e-06 -3.4587e-06)
(1.44384e-05 1.28146e-06 -2.03563e-06)
(9.70344e-06 3.37369e-07 -1.18155e-06)
(9.02362e-06 1.088e-06 -1.30476e-06)
(5.05338e-06 4.83974e-07 -7.196e-07)
(4.0063e-06 2.85491e-07 -5.56239e-07)
(3.12172e-06 3.14996e-07 -4.15043e-07)
(2.51622e-06 3.48226e-07 -1.7193e-07)
(7.76284e-07 9.16772e-08 8.40045e-09)
(1.99613e-05 3.62698e-06 -3.97261e-06)
(1.87806e-05 2.79498e-06 -3.30547e-06)
(1.06231e-05 1.77642e-06 -1.98806e-06)
(1.03791e-05 9.92074e-07 -1.96993e-06)
(6.05139e-06 5.97311e-07 -9.65571e-07)
(5.48011e-06 5.70162e-07 -9.81695e-07)
(3.14465e-06 5.39602e-07 -5.03056e-07)
(2.16095e-06 1.56356e-07 -2.80101e-07)
(4.4947e-07 -1.65468e-07 -4.1712e-08)
(1.52053e-05 3.78484e-06 -4.5487e-06)
(1.48103e-05 3.71489e-06 -4.09937e-06)
(8.74467e-06 1.67127e-06 -2.59867e-06)
(8.11876e-06 1.83193e-06 -2.56976e-06)
(4.80781e-06 1.00194e-06 -1.41149e-06)
(4.09613e-06 4.55548e-07 -9.62597e-07)
(2.18188e-06 3.91392e-07 -6.05322e-07)
(1.65604e-06 3.01338e-07 -3.07655e-07)
(2.68037e-07 -1.03892e-07 -1.38501e-07)
(1.24435e-05 5.69758e-07 -2.87474e-06)
(1.18171e-05 -4.31726e-07 -8.2704e-07)
(9.89195e-06 4.9135e-07 -1.39818e-06)
(2.1362e-05 3.68871e-06 -4.08712e-06)
(1.85716e-05 2.04878e-06 -3.01637e-06)
(1.75346e-05 3.88571e-06 -4.63666e-06)
)
;

boundaryField
{
    inlet
    {
        type            calculated;
        value           nonuniform 0();
    }
    outlet
    {
        type            calculated;
        value           uniform (0 0 0);
    }
    wall
    {
        type            calculated;
        value           uniform (0 0 0);
    }
    procBoundary1to0
    {
        type            processor;
        value           uniform (0 0 0);
    }
    procBoundary1to3
    {
        type            processor;
        value           uniform (0 0 0);
    }
    procBoundary1to5
    {
        type            processor;
        value           uniform (0 0 0);
    }
    procBoundary1to7
    {
        type            processor;
        value           uniform (0 0 0);
    }
}


// ************************************************************************* //
