/*--------------------------------*- C++ -*----------------------------------*\
| =========                 |                                                 |
| \\      /  F ield         | OpenFOAM: The Open Source CFD Toolbox           |
|  \\    /   O peration     | Version:  4.x                                   |
|   \\  /    A nd           | Web:      www.OpenFOAM.org                      |
|    \\/     M anipulation  |                                                 |
\*---------------------------------------------------------------------------*/
FoamFile
{
    version     2.0;
    format      ascii;
    class       volScalarField;
    location    "15.5";
    object      voidfractionNext;
}
// * * * * * * * * * * * * * * * * * * * * * * * * * * * * * * * * * * * * * //

dimensions      [0 0 0 0 0 0 0];

internalField   nonuniform List<scalar> 
87
(
0.495091
0.489946
0.489817
0.486426
0.486374
0.483471
0.48051
0.480553
0.482744
0.492479
0.490745
0.487083
0.485334
0.48515
0.481403
0.477373
0.480203
0.483635
0.487678
0.484551
0.48155
0.479649
0.481046
0.481119
0.478444
0.479155
0.481661
0.482222
0.481694
0.479818
0.476398
0.475173
0.471486
0.467685
0.470018
0.474172
0.479113
0.480001
0.477168
0.474312
0.472565
0.471321
0.467454
0.468507
0.474487
0.474481
0.474703
0.473396
0.472494
0.471843
0.468641
0.465822
0.464456
0.472454
0.472976
0.472163
0.467527
0.464977
0.465274
0.460824
0.461338
0.46467
0.469416
0.471077
0.46867
0.468362
0.465677
0.463327
0.4613
0.460661
0.461684
0.46805
0.466347
0.465807
0.465841
0.460411
0.459815
0.458194
0.458657
0.459229
0.466287
0.466716
0.465583
0.460223
0.463283
0.458434
0.461601
)
;

boundaryField
{
    inlet
    {
        type            fixedValue;
        value           nonuniform 0();
    }
    outlet
    {
        type            fixedValue;
        value           uniform 1;
    }
    wall
    {
        type            zeroGradient;
    }
    procBoundary1to0
    {
        type            processor;
        value           nonuniform List<scalar> 
12
(
0.499627
0.492912
0.487011
0.484564
0.480184
0.47911
0.476802
0.470585
0.471617
0.470368
0.466621
0.463834
)
;
    }
    procBoundary1to3
    {
        type            processor;
        value           nonuniform List<scalar> 
27
(
0.481645
0.482926
0.479686
0.482966
0.482151
0.483006
0.479271
0.479065
0.479439
0.471347
0.471335
0.467146
0.467606
0.468895
0.469507
0.467582
0.466545
0.46545
0.462706
0.46034
0.459073
0.458912
0.46042
0.458973
0.456266
0.457769
0.458775
)
;
    }
    procBoundary1to5
    {
        type            processor;
        value           nonuniform List<scalar> 
32
(
0.459721
0.457143
0.457048
0.455968
0.455546
0.455774
0.459857
0.460034
0.458319
0.456152
0.453552
0.453115
0.454904
0.457882
0.459027
0.456161
0.456347
0.456161
0.453237
0.455048
0.453221
0.461692
0.46232
0.459721
0.459857
0.458057
0.458955
0.459857
0.457882
0.457879
0.457882
0.456687
)
;
    }
    procBoundary1to7
    {
        type            processor;
        value           uniform 0.45631;
    }
}


// ************************************************************************* //
