/*--------------------------------*- C++ -*----------------------------------*\
| =========                 |                                                 |
| \\      /  F ield         | OpenFOAM: The Open Source CFD Toolbox           |
|  \\    /   O peration     | Version:  4.x                                   |
|   \\  /    A nd           | Web:      www.OpenFOAM.org                      |
|    \\/     M anipulation  |                                                 |
\*---------------------------------------------------------------------------*/
FoamFile
{
    version     2.0;
    format      ascii;
    class       volScalarField;
    location    "14";
    object      thCond;
}
// * * * * * * * * * * * * * * * * * * * * * * * * * * * * * * * * * * * * * //

dimensions      [1 1 -3 -1 0 0 0];

internalField   nonuniform List<scalar> 
132
(
189.947
189.895
189.951
189.811
189.454
189.388
189.496
189.723
189.546
190.11
189.793
189.883
189.896
189.632
189.7
189.559
189.656
189.57
190.467
190.077
190.056
189.992
189.773
189.613
189.619
189.678
189.64
190.726
190.288
190.039
190.188
189.935
189.825
189.717
189.923
190.18
189.751
189.571
189.489
189.412
189.263
189.314
189.454
190.155
189.689
189.657
189.593
189.39
189.429
189.461
189.366
189.552
190.209
189.761
189.792
189.799
189.508
189.332
189.281
189.437
189.48
190.381
189.902
189.949
189.809
189.661
189.666
189.555
189.565
189.933
189.522
189.484
189.351
189.44
189.555
189.862
189.694
189.619
189.673
189.38
189.452
189.37
189.269
189.435
190.032
189.808
189.701
189.665
189.428
189.417
189.341
189.428
189.479
190.336
190.011
189.851
189.773
189.726
189.738
189.494
189.603
189.898
189.593
189.578
189.671
190.026
189.933
189.628
189.603
189.686
189.818
189.552
189.554
189.734
190.152
190.009
189.888
189.79
189.644
189.651
189.515
189.62
189.678
190.258
189.988
190.032
189.939
189.767
189.72
189.656
189.807
190.196
)
;

boundaryField
{
    inlet
    {
        type            zeroGradient;
    }
    outlet
    {
        type            zeroGradient;
    }
    wall
    {
        type            zeroGradient;
    }
    procBoundary7to0
    {
        type            processor;
        value           uniform 190.758;
    }
    procBoundary7to1
    {
        type            processor;
        value           uniform 190.333;
    }
    procBoundary7to3
    {
        type            processor;
        value           nonuniform List<scalar> 
36
(
190.423
190.24
190.146
190.134
190.244
190.137
189.936
190.045
190.11
190.425
190.487
190.279
190.538
190.451
190.101
189.979
189.905
190.138
190.739
190.472
190.364
190.515
190.352
190.108
190.125
190.074
190.243
191.021
191.055
190.779
190.656
190.516
190.295
190.262
190.109
190.123
)
;
    }
    procBoundary7to5
    {
        type            processor;
        value           nonuniform List<scalar> 
44
(
190.052
190.139
189.933
189.935
189.931
189.734
189.819
189.7
189.784
189.985
189.809
189.648
189.609
189.514
189.45
189.479
189.639
189.784
189.985
189.985
189.433
189.465
189.243
189.335
189.258
189.253
189.354
190.027
189.606
189.433
189.465
189.465
189.256
189.398
189.512
189.503
189.557
189.979
189.921
189.588
189.609
189.256
189.398
189.398
)
;
    }
    procBoundary7to6
    {
        type            processor;
        value           nonuniform List<scalar> 
12
(
190.422
190.464
190.797
190.02
190.118
190.326
189.971
190.066
190.412
190.327
190.14
190.422
)
;
    }
}


// ************************************************************************* //
