/*--------------------------------*- C++ -*----------------------------------*\
| =========                 |                                                 |
| \\      /  F ield         | OpenFOAM: The Open Source CFD Toolbox           |
|  \\    /   O peration     | Version:  4.x                                   |
|   \\  /    A nd           | Web:      www.OpenFOAM.org                      |
|    \\/     M anipulation  |                                                 |
\*---------------------------------------------------------------------------*/
FoamFile
{
    version     2.0;
    format      ascii;
    class       volVectorField;
    location    "14";
    object      U;
}
// * * * * * * * * * * * * * * * * * * * * * * * * * * * * * * * * * * * * * //

dimensions      [0 1 -1 0 0 0 0];

internalField   nonuniform List<vector> 
132
(
(0.00510672 0.000139031 -0.00015383)
(0.0273374 -0.00100641 0.000554004)
(0.0050215 6.07829e-05 -0.000352842)
(0.0265956 -0.000578974 -0.000428208)
(0.00490324 -4.00688e-05 -0.00104418)
(0.0245793 0.000219229 0.000348471)
(0.00460613 0.000137785 -0.00187242)
(0.020786 0.000165415 0.000846523)
(0.00708636 0.000619783 -0.00460585)
(0.00866339 0.000534092 0.00132793)
(0.0292071 -0.000231145 0.00033915)
(0.00792608 0.000666481 -4.49211e-06)
(0.0295931 0.00033372 0.000133857)
(0.00729752 0.00120193 -0.00112418)
(0.0301541 -2.99698e-05 -0.000288343)
(0.00722897 0.00235128 -0.00265861)
(0.0284708 -0.00135794 0.000155087)
(0.00780008 0.00448189 -0.00663911)
(0.00830411 0.000105882 -9.83401e-05)
(0.0287192 0.00011814 -0.000823617)
(0.00859871 0.000502573 -0.000632326)
(0.029671 -4.74516e-05 0.000109138)
(0.00957032 0.000804051 -0.0014001)
(0.0312966 -0.00050213 0.000129918)
(0.0107361 0.00329656 -0.00355521)
(0.0310281 -0.00267611 0.00134031)
(0.0116098 0.0149699 -0.0131883)
(0.0175472 0.000293189 -0.000866907)
(0.0327753 -5.65423e-05 -0.000305024)
(0.0175826 0.000855475 -0.000370673)
(0.0358879 -0.00043926 0.00145653)
(0.0172909 0.0011706 0.000283206)
(0.0409778 -0.0016044 0.00357608)
(0.0158883 0.00359544 -0.00063208)
(0.0509444 -0.00403049 0.00571927)
(0.00980305 0.0130118 -0.00656328)
(-0.000601822 0.000408464 0.000274001)
(0.0238595 0.00010428 -0.000699754)
(-0.000408292 0.000329729 0.000121731)
(0.0227711 0.000582517 -0.000223267)
(0.00243093 -6.76325e-05 -0.000707604)
(0.0205912 0.00104535 0.000325848)
(0.00823243 -4.50361e-05 -0.0032505)
(-0.000520504 0.000172224 4.03439e-05)
(0.0224942 -0.000511739 -0.000301717)
(0.00169688 0.000173931 -0.000202976)
(0.0235789 -0.000241744 -0.000463967)
(0.00259528 0.000301012 -0.000516349)
(0.0233345 -0.000993082 -0.000447135)
(0.00441483 0.000585703 -0.00141448)
(0.0211512 -0.00124557 0.000178179)
(0.00857855 0.000792713 -0.00429895)
(0.00574104 -0.000547507 -0.00013459)
(0.0256494 -0.00165753 0.000116565)
(0.00291599 4.29738e-05 -0.00020826)
(0.0246591 -0.000536357 0.000173115)
(0.002744 0.000183236 -0.000326147)
(0.0237832 -0.000705432 0.000391807)
(0.00240794 0.000273666 -0.000546592)
(0.0204224 -0.00140349 0.00121097)
(0.00419306 0.000462644 -0.00150627)
(0.0157994 0.000583054 -0.000496901)
(0.0295636 0.0003487 0.00015006)
(0.0133317 0.00062528 -0.000369655)
(0.0293382 -0.00048367 0.0011302)
(0.0120957 0.000556197 -0.000234222)
(0.0296273 -0.000985838 0.00255871)
(0.0113511 0.000713806 -0.000712072)
(0.0280077 -0.00162921 0.00375712)
(0.0116367 0.00104828 -0.00207808)
(-0.00044027 0.000218863 0.000241318)
(0.0227861 0.0002693 -0.00150917)
(-0.000327416 0.000120084 0.000147964)
(0.018752 0.00127402 -0.0021957)
(0.00454638 -0.000797641 -8.84184e-05)
(0.00677664 0.000318647 -0.000624835)
(0.0271875 -0.000121213 -0.00171534)
(0.00468384 0.000449884 5.20398e-05)
(0.0272732 0.00081697 -0.000959979)
(0.00341338 0.000653307 0.000241499)
(0.0277997 -0.000487202 -0.00174199)
(0.00287124 0.00098971 0.000140083)
(0.0256545 -0.00209179 -0.00262959)
(0.00469226 0.00270466 -0.00043692)
(0.0079296 0.000181248 0.000433047)
(0.0276029 0.000404061 0.000628498)
(0.00737796 0.000647319 0.000560877)
(0.0280048 4.22008e-05 -0.000206775)
(0.00852926 0.000896277 0.00039029)
(0.0295636 -0.00045151 -0.000399961)
(0.009844 0.00311464 0.000533499)
(0.0297759 -0.00273309 -0.00103468)
(0.0121723 0.0159011 0.00077309)
(0.0181876 0.000452128 0.000254881)
(0.0320701 3.84602e-05 0.000465149)
(0.0185538 0.0011069 0.00131739)
(0.0351996 -0.000506115 0.00102541)
(0.0185584 0.00119965 0.00167401)
(0.0396707 -0.00157764 0.00181766)
(0.017726 0.00356143 0.00298531)
(0.0511975 -0.00375135 0.00133076)
(0.0117404 0.0133122 0.00285757)
(0.0132133 -0.00300873 0.000620165)
(0.0263297 0.00199981 -0.000807798)
(0.0118217 -0.00498198 0.000619203)
(0.0142652 0.000101813 -5.16778e-05)
(0.0291894 -7.43959e-05 0.000273929)
(0.0115317 0.000272804 -0.000334349)
(0.0283078 -0.000149669 -0.00010711)
(0.00897734 0.00025429 -0.000613483)
(0.0267753 -0.000701176 -9.45191e-05)
(0.00581541 0.000273468 -0.00102363)
(0.0223011 -0.00101005 0.00126655)
(0.00636605 0.000610682 -0.00205315)
(0.0176212 -3.47509e-05 -8.86101e-05)
(0.0309264 0.000133884 -3.08834e-05)
(0.0176421 0.000641583 -0.000445299)
(0.0314341 0.000156772 -0.000413584)
(0.0165591 0.000439195 -0.00140293)
(0.0309273 0.000336869 -0.000728722)
(0.0145501 0.00183841 -0.00236271)
(0.028447 -0.000920351 -0.000556957)
(0.0122165 0.00483305 -0.00326257)
(0.0200569 0.000108738 -0.000569719)
(0.0316961 -1.95467e-05 -0.000148819)
(0.0199634 0.000755855 -0.000828315)
(0.0342698 -0.000300747 -6.25887e-05)
(0.0201367 0.000711343 -0.00179198)
(0.0363205 -0.000596638 0.000544767)
(0.021369 0.00195283 -0.00459671)
(0.0392459 -0.00124219 0.00190494)
(0.021026 0.00561745 -0.0155625)
)
;

boundaryField
{
    inlet
    {
        type            fixedValue;
        value           nonuniform 0();
    }
    outlet
    {
        type            zeroGradient;
    }
    wall
    {
        type            fixedValue;
        value           uniform (0 0 0);
    }
    procBoundary7to0
    {
        type            processor;
        value           uniform (0.0267575 0.00049021 -0.00105663);
    }
    procBoundary7to1
    {
        type            processor;
        value           uniform (0.00542773 -0.000558719 -0.0004698);
    }
    procBoundary7to3
    {
        type            processor;
        value           nonuniform List<vector> 
36
(
(-0.00207688 0.000511625 0.000255782)
(0.0257516 0.000677162 0.00088742)
(-0.000522945 0.000737881 0.000227958)
(0.0270849 -0.000466174 0.000162952)
(0.00336377 -0.000190372 -0.000212036)
(0.0273526 -7.72182e-06 -0.000231556)
(0.00370555 0.000201084 -0.00107872)
(0.0257798 0.000738658 -5.84876e-05)
(0.0052972 0.00132437 -0.00401287)
(-0.00125822 0.000504013 0.000134946)
(0.026123 0.00107244 0.000518407)
(0.00283567 0.000226437 6.55669e-05)
(0.0270385 -0.000397253 7.13782e-05)
(0.00324002 0.000233371 -0.000235166)
(0.0280225 -0.000256773 -0.000261881)
(0.00430874 0.000683859 -0.00111272)
(0.0291089 -0.00154128 -0.000954733)
(0.00754598 0.00369907 -0.00617526)
(-0.000773779 0.000186741 7.37001e-05)
(0.026334 -0.00136748 0.00114071)
(0.00295921 0.000216909 0.000209836)
(0.0274977 8.65475e-05 0.00110494)
(0.00443796 0.000318488 0.000103559)
(0.0303435 -0.000315255 0.000891636)
(0.00677075 0.000761321 -0.000522037)
(0.0358482 -0.00230574 0.000471156)
(0.00676487 0.00257148 -0.00425693)
(0.0187747 0.000798323 -0.000240194)
(0.0318037 -0.000328171 0.000367115)
(0.0171528 0.000507843 0.000610815)
(0.0335419 -0.000148311 0.00201959)
(0.0167152 0.000392836 0.00164247)
(0.0358973 -0.000724283 0.00404403)
(0.0157952 0.000355912 0.00159588)
(0.0404064 -0.00199179 0.00568759)
(0.0116649 0.000573963 -0.0060571)
)
;
    }
    procBoundary7to5
    {
        type            processor;
        value           nonuniform List<vector> 
44
(
(0.0288616 -0.0002871 0.000659808)
(0.00512178 -0.00086306 -0.000762789)
(0.0296117 -3.15695e-05 -0.000953028)
(0.00630682 -0.00163439 -0.00151879)
(0.0293248 0.000577885 -0.00137462)
(0.00437933 -0.00187724 -0.00153214)
(0.0260874 0.00248506 -0.000124435)
(0.00598176 -0.00397831 -0.00366755)
(-0.00103213 0.000273428 0.000189361)
(0.0243469 -0.000621615 4.88184e-05)
(0.00176342 -0.000459722 1.54789e-05)
(0.0253195 0.000605778 -0.000943886)
(0.00148684 -0.00038292 -0.00017176)
(0.0235333 0.000971361 -0.000498962)
(0.00178384 -0.000509458 -0.000259806)
(0.0207135 0.00255293 -0.000706564)
(0.00743117 -0.00135713 -0.00188468)
(-0.00103213 0.000273428 0.000189361)
(0.0243469 -0.000621615 4.88184e-05)
(0.0243469 -0.000621615 4.88184e-05)
(0.00312954 -0.000168318 0.000460557)
(0.0244433 -0.000165838 -0.000572628)
(0.00638077 -0.0015271 0.000940542)
(0.0296165 0.000671581 -0.00124368)
(0.00589244 -0.00277041 0.00175397)
(0.0276605 0.00273694 -0.00374574)
(0.00686464 -0.00525186 0.00295374)
(0.00378567 -9.53648e-05 0.00060967)
(0.0252298 -0.000710956 0.000161578)
(0.00312954 -0.000168318 0.000460557)
(0.0244433 -0.000165838 -0.000572628)
(0.0244433 -0.000165838 -0.000572628)
(0.0152818 -0.00146349 0.000500968)
(0.0292084 -0.000233201 -5.76925e-05)
(0.0144537 -0.00421243 -0.00057209)
(0.0332489 0.00151238 -0.000262281)
(0.0100286 -0.00597851 -9.51185e-05)
(0.0164305 -0.000567024 0.000440425)
(0.0301662 -0.000742352 0.000128936)
(0.0158023 -0.000993328 0.00043702)
(0.0300908 -0.000583893 0.000799716)
(0.0152818 -0.00146349 0.000500968)
(0.0292084 -0.000233201 -5.76925e-05)
(0.0292084 -0.000233201 -5.76925e-05)
)
;
    }
    procBoundary7to6
    {
        type            processor;
        value           nonuniform List<vector> 
12
(
(0.027861 0.000583729 0.00259313)
(0.0273929 0.000523691 0.00122593)
(0.0311112 0.000580769 -0.000489173)
(0.0189632 0.00155831 -0.000171036)
(0.0257666 -7.01468e-05 -4.50929e-05)
(0.0297106 0.000890273 -0.000413918)
(0.0265466 0.000257677 7.58235e-05)
(0.0270208 0.000781809 0.00124776)
(0.0304456 0.000787755 0.000632016)
(0.0294693 0.000299142 4.13437e-05)
(0.0299281 0.000614819 0.000321315)
(0.0309627 0.000231389 -0.000395655)
)
;
    }
}


// ************************************************************************* //
