/*--------------------------------*- C++ -*----------------------------------*\
| =========                 |                                                 |
| \\      /  F ield         | OpenFOAM: The Open Source CFD Toolbox           |
|  \\    /   O peration     | Version:  4.x                                   |
|   \\  /    A nd           | Web:      www.OpenFOAM.org                      |
|    \\/     M anipulation  |                                                 |
\*---------------------------------------------------------------------------*/
FoamFile
{
    version     2.0;
    format      ascii;
    class       volVectorField;
    location    "14";
    object      UsPrev;
}
// * * * * * * * * * * * * * * * * * * * * * * * * * * * * * * * * * * * * * //

dimensions      [0 1 -1 0 0 0 0];

internalField   nonuniform List<vector> 
132
(
(-8.08986e-05 1.23834e-05 1.03236e-05)
(-4.54437e-05 3.14447e-05 1.17201e-05)
(-1.51311e-05 2.40341e-05 1.16707e-05)
(-6.9825e-06 7.35838e-06 1.24524e-05)
(-1.53977e-05 -8.34058e-07 1.52844e-06)
(-1.23624e-05 -6.92692e-07 -5.62074e-07)
(-5.26238e-06 1.60647e-06 -1.57214e-06)
(9.36222e-07 5.75804e-07 4.53182e-07)
(1.07342e-06 -6.20533e-07 2.65675e-07)
(-5.82053e-05 7.52368e-06 -9.42139e-07)
(-3.77972e-05 3.41564e-05 3.22635e-06)
(-1.68653e-05 2.07992e-05 8.20797e-06)
(-8.67476e-06 1.63951e-05 6.32849e-06)
(-1.43888e-05 -2.44108e-06 3.44305e-06)
(-1.31199e-05 -1.2571e-06 -4.24858e-07)
(-8.76862e-06 8.2749e-07 -1.97219e-06)
(-3.54133e-06 1.8761e-06 -1.51341e-06)
(-1.84873e-06 7.66751e-07 1.56534e-07)
(-5.31234e-05 2.03989e-06 5.51495e-06)
(-4.67067e-05 1.29469e-05 -2.16406e-06)
(-3.13046e-05 5.14104e-06 1.36994e-06)
(-2.48476e-05 6.37566e-06 1.99392e-06)
(-2.12672e-05 1.58508e-06 -1.44886e-07)
(-1.4596e-05 3.08487e-06 6.75538e-07)
(-1.13719e-05 4.09598e-06 1.35656e-07)
(-7.23592e-06 2.32947e-06 8.18379e-07)
(-3.44324e-06 1.53219e-06 -1.22746e-06)
(-2.89156e-05 -1.1338e-05 1.99279e-07)
(-2.47241e-05 -1.42596e-06 1.86013e-06)
(-1.88721e-05 6.55284e-07 8.85386e-08)
(-1.68774e-05 1.17355e-06 -1.00607e-06)
(-2.30513e-05 -1.43311e-06 -1.93178e-06)
(-1.44622e-05 1.79334e-06 3.30673e-06)
(-1.04414e-05 8.66186e-07 1.37723e-06)
(-7.9964e-06 4.02118e-07 2.00415e-06)
(-2.99e-06 -8.35118e-07 1.64474e-06)
(-2.35886e-05 1.32627e-05 1.3018e-05)
(-1.24095e-05 2.38105e-06 1.10672e-05)
(-1.24097e-05 1.23514e-06 -3.48666e-07)
(-1.32365e-05 4.75812e-07 5.02175e-07)
(-7.74919e-06 -1.64663e-06 -7.46487e-07)
(2.19502e-07 1.29013e-07 8.08749e-07)
(-6.72951e-08 -1.38123e-06 1.93414e-06)
(-4.3812e-05 7.53664e-06 -7.02791e-07)
(-3.32076e-05 1.75443e-05 9.67813e-06)
(-2.31629e-05 5.3097e-06 1.09245e-05)
(-1.58169e-05 1.57565e-06 4.61356e-06)
(-1.08373e-05 -1.26688e-06 2.39112e-06)
(-1.55362e-05 2.9882e-06 -1.03687e-07)
(-1.02719e-05 -7.45698e-07 -9.76786e-07)
(-2.00089e-06 -1.81102e-07 6.08069e-08)
(-7.65857e-08 -6.81512e-07 1.36152e-06)
(-4.79304e-05 1.64816e-06 2.19274e-06)
(-4.09437e-05 -6.39651e-06 6.10744e-06)
(-3.37089e-05 4.65592e-06 8.87136e-06)
(-2.88017e-05 3.42096e-06 -6.72798e-08)
(-2.04252e-05 8.66828e-07 2.99437e-06)
(-1.8018e-05 4.33553e-06 4.98221e-06)
(-1.58122e-05 3.12336e-06 1.89812e-06)
(-6.46136e-06 4.86608e-07 1.57312e-06)
(-3.02234e-06 1.07481e-06 3.79447e-08)
(-1.38707e-05 -3.37945e-06 2.08798e-06)
(-1.82506e-05 -9.62183e-06 7.69058e-06)
(-1.21595e-05 9.74408e-06 1.37535e-06)
(-1.47541e-05 1.59863e-06 1.38487e-06)
(-1.95991e-05 1.01156e-06 4.50957e-06)
(-1.68036e-05 7.208e-08 7.04787e-06)
(-1.45156e-05 3.97255e-06 5.42835e-06)
(-1.03842e-05 -9.19883e-07 2.31206e-06)
(-8.34545e-07 -1.23759e-06 9.87606e-07)
(-1.93281e-05 2.44036e-06 3.06477e-06)
(-1.40154e-05 3.62868e-06 5.89719e-06)
(-7.13394e-06 7.18624e-07 1.78865e-06)
(-1.13829e-06 3.51824e-07 2.15375e-06)
(3.79056e-07 1.1323e-06 1.20542e-06)
(-5.66961e-05 1.03753e-05 1.22619e-06)
(-3.54427e-05 1.49003e-05 7.25852e-06)
(-3.03846e-05 -6.88697e-06 3.50567e-06)
(-2.425e-05 3.23745e-06 -5.66022e-07)
(-2.04415e-05 7.84936e-06 3.59035e-06)
(-1.77253e-05 4.04332e-06 5.38889e-06)
(-8.55082e-06 -9.69364e-08 -8.85245e-08)
(-3.33669e-06 -7.4511e-07 2.50665e-07)
(-2.01115e-07 1.84963e-06 1.02605e-06)
(-6.34864e-05 1.56974e-06 -5.88927e-06)
(-5.76159e-05 -4.29997e-06 5.02289e-06)
(-4.81087e-05 1.10633e-06 1.29174e-07)
(-3.65079e-05 8.30661e-07 3.50784e-06)
(-2.83853e-05 7.79737e-06 5.20514e-06)
(-1.88635e-05 5.72812e-06 4.19478e-06)
(-1.58403e-05 2.95017e-07 4.12002e-07)
(-5.70151e-06 -2.95648e-06 1.13877e-06)
(-2.66542e-06 -3.23769e-07 4.4893e-07)
(-3.68069e-05 8.36275e-06 -2.32796e-06)
(-2.92715e-05 4.28362e-08 5.48005e-06)
(-7.89709e-06 -2.24489e-07 1.20217e-06)
(-3.25749e-05 6.31669e-06 3.99671e-06)
(-2.98152e-05 3.78003e-06 8.89984e-06)
(-1.46013e-05 2.04654e-06 -4.43883e-07)
(-1.28367e-05 -1.0525e-06 2.02909e-07)
(-4.08396e-06 -3.29871e-06 -1.55654e-06)
(-7.76652e-07 -1.81358e-06 -1.10424e-06)
(-2.15812e-06 2.15921e-06 1.24149e-06)
(1.71837e-06 1.44683e-06 1.87115e-06)
(1.42512e-06 1.17334e-06 7.26931e-07)
(-5.11708e-05 1.33404e-05 -5.99248e-06)
(-3.47431e-05 2.09236e-05 -3.28933e-06)
(-3.30184e-05 1.04081e-05 1.34128e-06)
(-2.57959e-05 6.38328e-06 -6.05192e-07)
(-1.88832e-05 2.67242e-06 2.50479e-06)
(-1.85874e-05 5.03435e-06 5.09213e-06)
(-8.80952e-06 3.63556e-06 -6.1102e-07)
(-2.32635e-06 8.29824e-07 2.73855e-06)
(9.76506e-07 5.06446e-07 5.80878e-07)
(-4.73376e-05 4.76883e-06 1.73069e-07)
(-4.53715e-05 3.62617e-06 -1.18084e-06)
(-3.63856e-05 5.43807e-06 5.87038e-06)
(-2.9165e-05 4.06351e-06 3.9401e-06)
(-2.77399e-05 5.61784e-06 2.41528e-06)
(-2.11675e-05 4.91654e-06 1.53661e-06)
(-1.61489e-05 4.56383e-06 3.20873e-07)
(-7.32339e-06 5.2123e-07 3.02509e-07)
(-2.53757e-06 -1.23191e-06 6.45161e-07)
(-2.16701e-05 3.97499e-06 -3.38092e-06)
(-2.05684e-05 4.4137e-06 -4.56468e-07)
(-1.18738e-05 8.32503e-07 -2.04262e-06)
(-2.444e-05 3.93246e-06 5.67155e-06)
(-2.47082e-05 2.71407e-06 7.70923e-06)
(-1.51114e-05 1.42895e-06 -3.42688e-06)
(-1.49121e-05 -1.60293e-06 6.58529e-07)
(-7.65196e-06 -2.10891e-06 -1.64195e-06)
(-2.20772e-06 -2.73013e-07 1.46032e-06)
)
;

boundaryField
{
    inlet
    {
        type            calculated;
        value           nonuniform 0();
    }
    outlet
    {
        type            calculated;
        value           uniform (0 0 0);
    }
    wall
    {
        type            calculated;
        value           uniform (0 0 0);
    }
    procBoundary7to0
    {
        type            processor;
        value           uniform (0 0 0);
    }
    procBoundary7to1
    {
        type            processor;
        value           uniform (0 0 0);
    }
    procBoundary7to3
    {
        type            processor;
        value           uniform (0 0 0);
    }
    procBoundary7to5
    {
        type            processor;
        value           uniform (0 0 0);
    }
    procBoundary7to6
    {
        type            processor;
        value           uniform (0 0 0);
    }
}


// ************************************************************************* //
