/*--------------------------------*- C++ -*----------------------------------*\
| =========                 |                                                 |
| \\      /  F ield         | OpenFOAM: The Open Source CFD Toolbox           |
|  \\    /   O peration     | Version:  4.x                                   |
|   \\  /    A nd           | Web:      www.OpenFOAM.org                      |
|    \\/     M anipulation  |                                                 |
\*---------------------------------------------------------------------------*/
FoamFile
{
    version     2.0;
    format      ascii;
    class       volScalarField;
    location    "43.5";
    object      alpha.iron;
}
// * * * * * * * * * * * * * * * * * * * * * * * * * * * * * * * * * * * * * //

dimensions      [0 0 0 0 0 0 0];

internalField   nonuniform List<scalar> 
108
(
1
1
1
1
1
1
0.999999
0.999999
0.999799
1
1
1
1
1
1
0.999999
0.999999
1
1
1
1
1
1
1
1
0.999999
0.999929
1
1
1
1
1
1
1
1
1.01711
1
1
1
0.999999
0.999998
0.999997
0.999993
0.999992
0.999783
1
1
1
0.999999
0.999999
0.999998
0.999996
0.999995
0.999933
1
1
1
1
0.999999
0.999999
0.999998
0.999998
0.999833
1
1
1
1
1
1
1
1
0.999466
1
0.999999
0.999999
0.999997
0.999993
0.999987
0.999978
0.999972
0.999883
1
1
0.999999
0.999998
0.999996
0.999994
0.999988
0.999981
0.999929
1
1
1
0.999999
0.999998
0.999997
0.999995
0.999993
0.999859
1
1
1
1
1
1
0.999999
0.999999
0.999602
)
;

boundaryField
{
    inlet
    {
        type            fixedValue;
        value           nonuniform 0();
    }
    outlet
    {
        type            fixedValue;
        value           uniform 1;
    }
    wall
    {
        type            zeroGradient;
    }
    procBoundary3to1
    {
        type            processor;
        value           nonuniform List<scalar> 
27
(
1
1
1
1
1
1
0.999999
0.999998
0.999569
1
1
0.999999
0.999998
0.999997
0.999995
0.99999
0.99999
0.999868
1
1
0.999999
0.999998
0.999995
0.999991
0.999984
0.999981
0.999858
)
;
    }
    procBoundary3to2
    {
        type            processor;
        value           nonuniform List<scalar> 
12
(
1
1
1
1
1
1
1
1
1
1
1
1
)
;
    }
    procBoundary3to7
    {
        type            processor;
        value           nonuniform List<scalar> 
36
(
1
1
0.999999
0.999998
0.999995
0.99999
0.999983
0.999971
0.999905
1
1
0.999999
0.999998
0.999997
0.999994
0.999989
0.999985
0.999852
1
1
1
1
0.999999
0.999998
0.999996
0.999994
0.999738
1
1
1
1
1
1
0.999999
0.999999
0.999661
)
;
    }
}


// ************************************************************************* //
