/*--------------------------------*- C++ -*----------------------------------*\
| =========                 |                                                 |
| \\      /  F ield         | OpenFOAM: The Open Source CFD Toolbox           |
|  \\    /   O peration     | Version:  4.x                                   |
|   \\  /    A nd           | Web:      www.OpenFOAM.org                      |
|    \\/     M anipulation  |                                                 |
\*---------------------------------------------------------------------------*/
FoamFile
{
    version     2.0;
    format      ascii;
    class       volVectorField;
    location    "43.5";
    object      Us;
}
// * * * * * * * * * * * * * * * * * * * * * * * * * * * * * * * * * * * * * //

dimensions      [0 1 -1 0 0 0 0];

internalField   nonuniform List<vector> 
108
(
(3.87748e-09 -4.34986e-09 1.8649e-09)
(5.35353e-09 -6.37558e-09 1.94359e-09)
(4.82798e-09 -5.09408e-09 2.83716e-10)
(4.58999e-09 -3.18853e-09 -1.00227e-10)
(4.36795e-09 -2.8335e-09 -1.18852e-09)
(4.78379e-09 -1.69723e-09 -1.66688e-09)
(4.69421e-09 -2.00632e-09 -3.61668e-09)
(9.50331e-09 4.52585e-09 -6.65504e-09)
(-5.27143e-08 -1.09499e-09 -4.25315e-09)
(2.84419e-09 -2.7874e-09 1.27159e-09)
(3.55032e-09 -3.25501e-09 6.32325e-10)
(3.54521e-09 -3.16022e-09 -1.46752e-10)
(3.20537e-09 -2.06049e-09 -3.61813e-10)
(2.60291e-09 -1.67113e-09 -9.55023e-10)
(1.7164e-09 -1.10141e-09 -1.58447e-09)
(2.60536e-10 -3.99284e-10 -3.49415e-09)
(-1.97419e-09 3.94958e-09 -6.49878e-09)
(-8.27068e-08 2.82121e-09 -6.2206e-09)
(2.44884e-09 -3.39357e-09 5.50318e-10)
(4.18234e-09 -2.65697e-09 -1.79999e-11)
(2.96269e-09 -2.32716e-09 -5.34408e-10)
(2.51004e-09 -1.0273e-09 -4.36329e-10)
(2.06601e-09 -9.98618e-10 -7.32806e-10)
(4.82103e-10 -4.97442e-10 -1.38699e-09)
(-2.49389e-10 3.75928e-10 -2.80361e-09)
(-3.6361e-09 1.80456e-10 -7.65466e-09)
(-3.59155e-09 2.00619e-08 -1.18782e-08)
(1.1953e-09 -7.15681e-10 1.33286e-10)
(2.23165e-09 -1.9194e-09 -5.98829e-10)
(1.96319e-09 -3.61289e-09 -2.15644e-10)
(1.23562e-09 -3.76463e-10 -1.73719e-10)
(1.91584e-09 -2.48919e-10 -4.40797e-10)
(1.0556e-09 1.85993e-10 -1.58323e-09)
(8.55712e-09 3.41066e-09 -1.41106e-09)
(8.74338e-09 3.29229e-09 -5.34461e-09)
(-5.75632e-09 7.14443e-07 -3.15069e-08)
(4.39329e-09 -3.24667e-09 1.48543e-09)
(4.98481e-09 -2.70956e-09 1.3778e-09)
(4.86e-09 -2.97073e-09 5.7618e-10)
(5.25485e-09 -2.61257e-09 -2.64378e-10)
(5.25225e-09 -2.36354e-09 -1.28429e-09)
(4.79866e-09 -1.89185e-09 -2.09539e-09)
(4.17379e-09 -7.62469e-10 -4.37693e-09)
(4.53094e-09 5.32257e-10 -5.61776e-09)
(-8.14151e-09 -1.18749e-09 -3.82384e-09)
(3.00087e-09 -1.98914e-09 9.19014e-10)
(3.97675e-09 -2.62228e-09 4.95784e-10)
(3.87425e-09 -2.8926e-09 -6.01427e-10)
(3.94782e-09 -2.14245e-09 -7.01564e-10)
(3.3977e-09 -1.44954e-09 -1.02108e-09)
(2.45409e-09 -1.38571e-09 -1.75539e-09)
(4.21773e-09 1.82119e-09 -3.59687e-09)
(1.05747e-09 -2.04092e-12 -5.66736e-09)
(1.18373e-09 -1.68074e-10 -5.21256e-09)
(2.37043e-09 -1.36488e-09 5.15527e-10)
(2.72466e-09 -1.77818e-09 -1.59146e-10)
(2.75479e-09 -1.87768e-09 -8.88269e-10)
(2.50353e-09 -1.22795e-09 -4.94419e-10)
(1.91201e-09 -8.67231e-10 -6.54204e-10)
(9.08205e-10 -8.21221e-10 -8.66032e-10)
(-6.27141e-10 -4.4624e-10 -2.61865e-09)
(-2.12409e-09 -8.17971e-11 -6.43236e-09)
(-1.39864e-09 -3.94415e-10 -7.5544e-09)
(1.42294e-09 -5.48218e-10 2.30497e-10)
(1.97097e-09 -1.29033e-09 -4.70927e-10)
(1.23525e-09 -8.63641e-10 -5.52497e-10)
(1.34135e-09 -6.91846e-10 -3.45262e-10)
(1.33781e-09 -2.79638e-10 -5.33707e-10)
(1.96633e-09 -4.63927e-10 -7.18866e-10)
(1.56213e-09 5.31502e-10 -1.94039e-09)
(9.24688e-10 6.86015e-10 -5.14023e-09)
(-1.18499e-09 1.06291e-10 -1.88822e-08)
(4.66803e-09 -1.49737e-09 1.58667e-09)
(5.0878e-09 -1.61565e-09 1.66511e-09)
(5.38505e-09 -1.03303e-09 2.07209e-09)
(5.69644e-09 -1.96039e-09 3.07231e-11)
(5.31052e-09 -2.14729e-09 -8.14975e-10)
(4.51046e-09 -1.327e-09 -2.12386e-09)
(3.74849e-09 -8.48534e-10 -3.57029e-09)
(2.87804e-09 -4.18642e-10 -3.88139e-09)
(1.89641e-09 -3.64111e-10 -2.41997e-09)
(3.22165e-09 -1.61806e-09 1.24691e-09)
(4.07021e-09 -2.09088e-09 4.58013e-10)
(4.89447e-09 -2.328e-09 8.53857e-10)
(4.59702e-09 -1.60536e-09 -2.26622e-10)
(3.74781e-09 -1.53225e-09 -1.05821e-09)
(3.0419e-09 -8.72332e-10 -1.63006e-09)
(2.10092e-09 -4.15264e-10 -2.92723e-09)
(1.09308e-09 1.02475e-10 -3.93954e-09)
(-6.23641e-11 -2.28598e-11 -2.60439e-09)
(2.53394e-09 -1.17655e-09 5.92532e-10)
(2.66036e-09 -1.71678e-09 6.58356e-13)
(2.88819e-09 -1.47093e-09 -2.13356e-10)
(2.66752e-09 -1.32977e-09 2.72373e-11)
(1.77015e-09 -1.0259e-09 -3.97337e-10)
(1.02524e-09 -3.53795e-10 -7.12814e-10)
(-2.489e-10 -3.85136e-10 -1.70472e-09)
(-1.10626e-09 -2.66557e-10 -4.03184e-09)
(-8.99161e-10 -1.05686e-09 -4.56613e-09)
(1.12533e-09 -7.17321e-10 4.74826e-10)
(1.0887e-09 -9.28079e-10 9.07887e-11)
(1.06487e-09 -8.22452e-10 1.80772e-10)
(6.75411e-10 -2.29949e-10 7.9383e-11)
(9.24837e-11 -6.57074e-10 -4.28566e-10)
(-4.06219e-10 -1.58231e-10 -2.20597e-10)
(-1.15827e-09 -5.19646e-11 -1.09745e-09)
(-2.56151e-09 -9.68379e-10 -3.19537e-09)
(-1.73369e-09 -2.4849e-09 -6.29197e-09)
)
;

boundaryField
{
    inlet
    {
        type            zeroGradient;
    }
    outlet
    {
        type            zeroGradient;
    }
    wall
    {
        type            zeroGradient;
    }
    procBoundary3to1
    {
        type            processor;
        value           nonuniform List<vector> 
27
(
(5.68704e-09 -7.1257e-09 4.52384e-09)
(4.07821e-09 -1.08583e-08 7.46977e-09)
(4.44336e-09 -6.8704e-09 3.51601e-09)
(3.03449e-09 -3.1757e-09 7.70296e-10)
(3.42884e-09 -2.78089e-09 -7.35401e-10)
(4.33911e-09 -1.89453e-09 -1.54747e-09)
(5.37755e-09 -2.0177e-09 -4.58475e-09)
(3.22094e-09 -5.45764e-09 -1.06104e-08)
(3.60573e-09 -1.63667e-09 -8.19674e-09)
(3.00255e-09 -2.04864e-09 3.81913e-09)
(4.13381e-09 -2.7567e-09 6.6074e-09)
(4.76093e-09 -2.40845e-09 2.80928e-09)
(3.55316e-09 -3.15858e-09 1.12663e-09)
(4.17736e-09 -3.09201e-09 -9.53094e-10)
(4.46732e-09 -2.50596e-09 -2.14339e-09)
(5.29862e-09 -1.32806e-09 -4.83933e-09)
(5.68368e-09 -1.56286e-09 -5.64309e-09)
(1.85514e-09 -3.25316e-09 -8.45333e-09)
(2.5338e-09 -5.77954e-11 3.42151e-09)
(4.1658e-09 3.27841e-10 4.02867e-09)
(4.99827e-09 8.808e-11 4.83678e-09)
(5.11254e-09 -1.11445e-09 1.45215e-09)
(4.71535e-09 -1.67128e-09 -4.9069e-10)
(4.38319e-09 -1.4521e-09 -1.86815e-09)
(4.15512e-09 -4.97081e-10 -3.68084e-09)
(2.75252e-09 -5.13071e-10 -3.98282e-09)
(1.80424e-09 -1.45159e-09 -3.18773e-09)
)
;
    }
    procBoundary3to2
    {
        type            processor;
        value           nonuniform List<vector> 
12
(
(3.15222e-09 -2.74675e-09 2.2365e-09)
(2.16935e-09 -2.25335e-09 1.50744e-09)
(1.80793e-09 -1.69558e-09 1.28144e-09)
(1.54195e-09 -1.13675e-09 8.46564e-10)
(2.81925e-09 -1.6688e-09 2.04997e-09)
(2.58924e-09 -1.59382e-09 1.1769e-09)
(1.72457e-09 -1.26357e-09 7.83841e-10)
(7.52073e-10 -4.74813e-10 3.75196e-10)
(2.91539e-09 -5.20954e-10 1.85106e-09)
(2.21162e-09 -8.02253e-10 8.85446e-10)
(1.77681e-09 -9.30153e-10 5.40738e-10)
(9.66546e-10 -4.55974e-10 4.18028e-10)
)
;
    }
    procBoundary3to7
    {
        type            processor;
        value           nonuniform List<vector> 
36
(
(4.40512e-09 -1.60924e-10 1.2941e-09)
(5.00168e-09 -5.48399e-10 1.09822e-09)
(5.22919e-09 -2.58366e-10 1.42242e-09)
(5.14955e-09 -9.08445e-10 7.23082e-11)
(4.59233e-09 -1.00039e-09 -4.50528e-10)
(3.41141e-09 -1.02438e-09 -1.84618e-09)
(2.10803e-09 -2.83241e-10 -2.27748e-09)
(1.48375e-09 4.76316e-10 -2.54137e-09)
(3.31153e-10 2.38102e-11 -1.25509e-09)
(3.89933e-09 -1.06721e-09 7.60817e-10)
(4.86958e-09 -9.89541e-10 4.30734e-10)
(4.99449e-09 -1.38294e-09 5.11617e-10)
(5.06391e-09 -8.07311e-10 1.73173e-10)
(3.77748e-09 -8.6895e-10 -1.93271e-10)
(2.80818e-09 -6.44057e-10 -1.0082e-09)
(1.88562e-09 -2.36155e-10 -1.56289e-09)
(1.05051e-09 4.03086e-10 -2.45311e-09)
(-6.46386e-12 3.10364e-10 -1.41778e-09)
(3.19637e-09 -9.97195e-10 8.75862e-11)
(3.66015e-09 -1.16515e-09 2.24187e-12)
(3.54281e-09 -7.69873e-10 4.08626e-10)
(3.22876e-09 -4.58666e-10 3.63871e-10)
(2.63239e-09 -7.00161e-10 -5.87699e-11)
(1.48912e-09 -3.59984e-10 -2.36415e-10)
(5.58065e-10 -7.86911e-11 -8.11817e-10)
(4.60659e-10 3.64186e-10 -2.00397e-09)
(-4.60371e-09 -1.29943e-09 -1.2872e-09)
(1.29091e-09 -8.65894e-10 -5.41155e-11)
(1.79064e-09 -8.02242e-10 1.45693e-10)
(1.6584e-09 -1.70408e-10 1.17076e-10)
(1.27374e-09 -7.82027e-11 4.61318e-10)
(8.97691e-10 -2.88303e-10 1.53149e-10)
(6.30956e-10 -3.55565e-11 2.3169e-10)
(-7.26278e-11 -3.32839e-11 -2.53917e-10)
(-2.82451e-10 2.04907e-10 -1.15015e-09)
(-2.87759e-09 -8.45213e-10 1.32837e-10)
)
;
    }
}


// ************************************************************************* //
