/*--------------------------------*- C++ -*----------------------------------*\
  =========                 |
  \\      /  F ield         | OpenFOAM: The Open Source CFD Toolbox
   \\    /   O peration     | Website:  https://openfoam.org
    \\  /    A nd           | Version:  4.x
     \\/     M anipulation  |
\*---------------------------------------------------------------------------*/
FoamFile
{
    version     2.0;
    format      ascii;
    class       vectorField;
    location    0;
    object      v;
}
// * * * * * * * * * * * * * * * * * * * * * * * * * * * * * * * * * * * * * //

313
(
( 3.68309e-09 -2.13334e-09 2.27296e-09 )  
( 1.36349e-09 5.78518e-10 1.70187e-09 )  
( 2.55235e-09 -1.7306e-09 3.59337e-09 )  
( 9.48312e-10 5.27674e-10 2.41226e-09 )  
( 4.05004e-09 -3.73579e-09 3.47966e-09 )  
( 2.03254e-09 -2.80137e-10 2.70434e-09 )  
( 2.20809e-09 -1.97193e-10 8.96276e-10 )  
( 2.66958e-09 -1.07564e-09 3.7267e-09 )  
( 2.11595e-09 -4.97042e-10 1.9117e-09 )  
( 1.27454e-09 9.52002e-11 9.30535e-10 )  
( 6.22937e-10 1.63076e-09 4.00091e-09 )  
( 2.21952e-09 -3.6274e-11 1.1694e-09 )  
( 5.17489e-10 9.05223e-11 5.65421e-11 )  
( 2.09955e-09 -4.30036e-10 1.05392e-09 )  
( 3.40778e-09 -5.71981e-10 1.02619e-09 )  
( 9.39913e-10 -1.79694e-10 2.55258e-10 )  
( 1.46697e-10 -2.40175e-11 1.08748e-10 )  
( 1.83388e-09 -2.88474e-10 1.05797e-09 )  
( 2.62198e-09 -2.38892e-10 1.44623e-09 )  
( 5.49952e-10 9.53656e-11 7.08018e-11 )  
( 8.26348e-10 1.24553e-10 -4.4006e-12 )  
( 3.74808e-10 1.27604e-10 -8.3209e-11 )  
( 2.38458e-09 -1.64883e-10 6.41519e-10 )  
( 1.25922e-09 -2.66688e-10 -5.20684e-10 )  
( 2.58702e-10 1.21583e-10 -8.13424e-11 )  
( 1.34873e-10 -4.85543e-11 1.02248e-11 )  
( 1.81507e-10 -5.63756e-11 -1.04863e-10 )  
( 8.32442e-10 -1.45324e-11 -1.39125e-10 )  
( 7.77207e-10 -2.34733e-10 -5.96125e-11 )  
( 1.58751e-09 -5.77035e-10 2.29829e-10 )  
( 1.88837e-09 -6.00083e-10 6.70291e-10 )  
( 7.12091e-10 1.15455e-10 -4.49654e-11 )  
( 2.4696e-09 3.87802e-10 1.92368e-09 )  
( 2.45728e-10 2.23656e-10 4.07436e-10 )  
( 1.97446e-10 7.99157e-11 3.71611e-10 )  
( 3.38514e-09 -1.53831e-09 2.07189e-09 )  
( 2.08264e-09 -5.19599e-10 3.77639e-10 )  
( 1.41328e-09 -6.34833e-10 6.94034e-10 )  
( 1.53122e-09 -2.45977e-10 7.88776e-10 )  
( 1.39579e-09 -4.16441e-10 4.26223e-10 )  
( 8.84665e-10 7.08139e-11 1.27188e-10 )  
( 1.02014e-09 -3.81645e-10 2.10776e-10 )  
( 1.20623e-09 1.41267e-11 -4.40006e-10 )  
( 8.70495e-10 -1.44552e-10 4.03596e-10 )  
( 1.15692e-09 -5.86544e-10 4.05292e-10 )  
( 2.37032e-09 -5.32392e-10 7.11355e-10 )  
( 1.75713e-10 -3.84528e-11 -6.87187e-11 )  
( 2.57841e-09 -5.01914e-10 8.32553e-10 )  
( 1.37832e-09 -4.86048e-10 7.93484e-10 )  
( 4.20956e-10 -1.6109e-10 2.40127e-10 )  
( 2.91711e-09 -1.52582e-09 1.38849e-09 )  
( 1.3007e-09 -2.94013e-10 4.42189e-10 )  
( 7.58747e-10 4.33436e-11 -5.08725e-10 )  
( 2.88291e-10 1.24518e-10 1.44963e-10 )  
( -2.18407e-11 -2.03888e-10 6.28692e-11 )  
( 8.01439e-10 -4.12761e-10 7.10682e-10 )  
( 2.79953e-09 -7.27768e-10 1.29024e-09 )  
( 2.11009e-09 -1.44071e-11 6.93889e-10 )  
( 2.90832e-09 -1.37418e-09 1.12266e-09 )  
( 2.96158e-10 1.45958e-10 2.39435e-10 )  
( 1.26134e-09 -1.10147e-10 2.39523e-10 )  
( 4.44055e-10 -2.28064e-10 4.02896e-10 )  
( 1.69781e-09 -4.81325e-10 1.37269e-10 )  
( 5.73601e-10 -1.05187e-10 3.21999e-10 )  
( 1.50684e-10 5.71818e-11 1.10701e-10 )  
( 1.53227e-09 -2.11694e-10 2.49105e-10 )  
( 3.92456e-10 -2.72922e-11 -2.42336e-10 )  
( 7.74901e-10 -3.56105e-11 3.17152e-10 )  
( 1.71538e-09 1.55064e-11 7.98731e-11 )  
( 2.30073e-09 -9.42068e-10 1.04858e-09 )  
( 1.20945e-09 -4.29283e-11 6.43262e-10 )  
( 1.49514e-09 -4.1491e-10 8.27976e-10 )  
( 3.35066e-09 -1.49108e-09 1.49764e-09 )  
( 3.76491e-10 1.15002e-10 1.16353e-10 )  
( 7.67423e-10 2.51863e-11 4.56703e-11 )  
( 9.02798e-10 -1.57945e-10 1.65094e-10 )  
( 1.03066e-10 3.65643e-11 3.80697e-10 )  
( 2.15535e-09 -5.23157e-10 6.66836e-10 )  
( 1.94517e-09 -4.20336e-10 8.84512e-10 )  
( 3.25765e-10 8.71166e-11 1.67977e-11 )  
( 1.26651e-09 -5.91653e-10 1.52882e-10 )  
( 3.43196e-10 1.04795e-10 9.38814e-11 )  
( 2.0036e-11 -1.83241e-10 -2.76045e-11 )  
( 1.55939e-09 -3.96562e-10 4.15379e-10 )  
( 1.17349e-10 -4.62596e-11 -7.51612e-11 )  
( 1.67215e-09 1.90367e-10 1.22714e-09 )  
( 6.12285e-10 3.07628e-10 4.40698e-11 )  
( 6.74616e-10 -1.85997e-10 4.87259e-10 )  
( 1.4125e-10 -6.71305e-11 -2.29512e-12 )  
( 2.1254e-10 8.19827e-11 -1.15755e-10 )  
( 1.04582e-09 -3.51347e-10 7.91183e-10 )  
( 4.18008e-10 -5.21868e-11 -1.85056e-10 )  
( 5.98551e-10 -2.63539e-10 -7.70203e-12 )  
( 3.93278e-10 2.41624e-10 -6.64219e-11 )  
( 6.71264e-10 -3.55356e-10 4.89548e-10 )  
( 2.48648e-09 -3.19915e-10 2.06163e-09 )  
( 3.17578e-09 -1.16145e-09 8.13154e-10 )  
( 6.31459e-11 1.46633e-10 2.87732e-10 )  
( 2.36906e-09 -8.5262e-10 1.78604e-09 )  
( 4.81535e-10 3.0365e-12 4.31053e-11 )  
( 1.38505e-09 -3.15824e-10 3.07243e-10 )  
( 6.07126e-10 -2.24231e-10 3.47009e-10 )  
( 3.44363e-09 -2.41147e-09 2.16635e-09 )  
( 3.55482e-09 -2.28405e-09 2.3405e-09 )  
( 1.83601e-09 -6.05981e-10 1.26475e-09 )  
( 2.86535e-09 -4.53989e-10 2.22511e-10 )  
( 5.35114e-10 4.46206e-11 -1.04465e-10 )  
( 3.18419e-09 -1.39198e-09 2.42535e-09 )  
( 1.48614e-09 -5.92585e-10 5.70585e-10 )  
( 1.04656e-09 4.9233e-12 6.30027e-12 )  
( 1.07209e-09 -2.41768e-10 4.12898e-10 )  
( 2.08727e-09 -3.78771e-10 2.9051e-10 )  
( 2.40661e-09 -5.50638e-10 5.5668e-10 )  
( 6.03207e-10 -1.7037e-10 -1.67085e-10 )  
( 1.26496e-09 -8.0512e-11 4.71779e-10 )  
( 1.41259e-09 2.15689e-11 5.65367e-10 )  
( 1.29567e-09 -3.85349e-10 4.38636e-10 )  
( 2.48514e-09 -2.01025e-10 1.28619e-09 )  
( 9.65804e-10 -4.05248e-10 -3.7565e-10 )  
( 6.38385e-10 -2.36051e-11 1.79097e-10 )  
( -5.5201e-11 -1.59918e-10 3.13434e-10 )  
( 5.90216e-10 7.77438e-11 2.32731e-10 )  
( 1.80792e-10 8.43303e-11 2.87882e-11 )  
( 3.76812e-09 -2.50128e-09 2.00067e-09 )  
( 9.30856e-10 -5.2265e-10 -4.35232e-10 )  
( 3.93653e-10 4.47307e-11 -9.95073e-11 )  
( 1.40153e-09 -2.64973e-10 2.69335e-11 )  
( 1.40037e-09 -6.64455e-10 6.83189e-10 )  
( 1.59069e-10 1.66e-10 -8.43138e-11 )  
( 6.83258e-10 -4.70535e-10 5.06158e-10 )  
( 2.18757e-09 -7.21966e-10 1.42944e-09 )  
( 2.90491e-10 -1.05708e-10 -2.26101e-11 )  
( 2.95392e-09 -1.08788e-09 1.54163e-09 )  
( 3.20153e-09 -1.25715e-09 9.53371e-10 )  
( 6.71949e-10 -1.24106e-10 -5.05624e-10 )  
( 5.47854e-11 -1.48605e-10 1.37871e-10 )  
( 3.57023e-10 8.74254e-11 -1.25997e-10 )  
( 3.13813e-09 -1.17355e-09 1.39512e-09 )  
( -3.23126e-12 -5.17729e-11 8.60448e-11 )  
( 1.13885e-09 -2.82195e-10 3.8815e-10 )  
( 2.85948e-10 -1.90437e-10 1.30601e-10 )  
( 2.27343e-10 8.98931e-11 7.74135e-11 )  
( 9.91615e-10 1.11823e-10 2.96309e-10 )  
( 1.6839e-09 -7.06063e-12 1.09685e-10 )  
( 3.63155e-10 3.12323e-11 -1.51756e-10 )  
( 2.81348e-09 -3.97634e-10 7.14351e-10 )  
( 5.88493e-10 -4.06825e-11 1.37724e-10 )  
( 2.37709e-09 -3.9987e-10 1.16895e-09 )  
( 3.6742e-10 -2.27574e-10 2.1939e-10 )  
( 4.63713e-10 -1.33829e-10 4.21071e-10 )  
( 6.49759e-10 -1.03648e-10 3.2359e-10 )  
( 5.39941e-10 8.59189e-11 4.44958e-10 )  
( 6.85607e-10 -1.87287e-10 3.04688e-10 )  
( 3.63105e-09 5.60149e-10 1.01804e-09 )  
( 1.06539e-09 1.21767e-10 4.99198e-10 )  
( 2.95501e-10 -5.83061e-11 3.15286e-10 )  
( 5.07959e-10 -3.79989e-12 3.66657e-10 )  
( 1.56828e-09 1.95976e-11 9.40379e-10 )  
( 1.61851e-09 -1.30397e-10 9.81051e-10 )  
( 9.04921e-10 2.31307e-11 6.10245e-10 )  
( 8.31355e-10 -2.55119e-10 4.42469e-10 )  
( 1.32408e-09 -7.13682e-11 5.07981e-10 )  
( 6.05297e-11 -8.91755e-11 3.97219e-11 )  
( 1.10746e-09 4.79391e-11 6.68204e-10 )  
( 7.18655e-11 1.07489e-10 2.51049e-11 )  
( 8.49198e-11 7.27853e-11 6.61494e-11 )  
( 5.70725e-11 -1.44737e-10 -1.51682e-11 )  
( 1.07717e-09 -1.65528e-10 3.12552e-10 )  
( 1.65978e-09 7.018e-13 8.58943e-10 )  
( 5.35867e-11 -1.30451e-10 9.13093e-12 )  
( 1.44485e-10 6.87638e-11 2.06062e-10 )  
( 8.19322e-11 -9.68044e-11 5.5181e-11 )  
( 1.14679e-09 -2.43037e-10 3.90789e-10 )  
( 1.92015e-10 -8.67478e-11 1.38487e-10 )  
( 2.69454e-09 1.79047e-10 1.1826e-09 )  
( 8.79676e-10 -2.34888e-10 5.68438e-10 )  
( 2.99946e-10 -1.00707e-10 1.81097e-10 )  
( 1.30406e-11 1.13186e-10 3.39849e-11 )  
( 4.54343e-10 -1.83855e-10 2.72954e-10 )  
( 2.02132e-09 -3.36386e-11 7.38657e-10 )  
( 5.68544e-10 -9.8869e-11 2.45386e-10 )  
( 1.90334e-09 1.55991e-10 6.35558e-10 )  
( 2.93744e-10 -1.77065e-10 9.5435e-11 )  
( 9.49519e-10 -2.06778e-10 3.84568e-10 )  
( 5.08676e-10 -3.03368e-11 3.53754e-10 )  
( 1.82645e-10 2.53495e-11 1.77643e-10 )  
( 6.23998e-11 -1.20704e-10 -4.05131e-12 )  
( 5.07304e-10 -2.15941e-10 3.66684e-10 )  
( 3.30551e-10 -2.17447e-10 2.27971e-10 )  
( 4.17838e-10 -1.23717e-10 3.63523e-10 )  
( 3.78756e-10 -1.32399e-10 3.69276e-10 )  
( 2.91106e-10 -1.71014e-10 1.85173e-10 )  
( 4.28444e-10 -2.14258e-11 2.18722e-10 )  
( 1.38673e-09 -9.89477e-11 5.53658e-10 )  
( 3.13756e-09 2.96125e-10 8.54242e-10 )  
( 8.85484e-10 1.66513e-10 4.44024e-10 )  
( 6.74376e-10 -2.39048e-10 3.48605e-10 )  
( 2.75465e-10 -1.18549e-10 1.75317e-10 )  
( 5.44678e-11 -1.47751e-10 4.55004e-11 )  
( 4.97212e-11 -2.20579e-11 1.41387e-10 )  
( 2.19792e-09 1.42166e-10 1.04505e-09 )  
( 3.37633e-10 -1.05083e-10 8.93738e-11 )  
( 1.98434e-09 2.15837e-10 1.13003e-09 )  
( 6.97596e-10 -1.29471e-10 5.36341e-10 )  
( 6.06368e-10 -1.7277e-10 4.26011e-10 )  
( 5.73223e-10 2.85705e-12 3.04024e-10 )  
( 2.23657e-09 6.75538e-10 8.37729e-10 )  
( 3.50013e-10 -7.81481e-12 2.26254e-10 )  
( 1.21872e-09 -1.94255e-10 5.57664e-10 )  
( 1.05118e-10 5.36105e-11 5.43694e-11 )  
( 8.64227e-10 3.74362e-11 1.11005e-10 )  
( 5.01546e-11 1.07981e-11 2.14156e-11 )  
( 1.60267e-09 -1.95537e-10 1.19842e-09 )  
( 6.63613e-10 -3.23678e-11 2.87199e-10 )  
( 7.70785e-10 -1.65307e-10 3.78442e-10 )  
( 1.45786e-10 1.16823e-10 1.44183e-10 )  
( 1.45631e-11 -5.15949e-11 2.68976e-11 )  
( 6.99836e-10 -7.16514e-11 2.97238e-10 )  
( 2.94515e-09 -2.04612e-09 1.90279e-09 )  
( 1.38063e-10 -5.30061e-11 -9.87793e-11 )  
( 2.14533e-09 -2.4501e-10 7.79129e-10 )  
( 1.49187e-10 9.75126e-11 2.19745e-11 )  
( 1.16799e-09 -5.58643e-10 3.32346e-10 )  
( 8.23128e-10 2.86553e-11 8.10929e-11 )  
( 2.88859e-09 -1.37498e-09 2.18292e-09 )  
( 2.76566e-09 4.53186e-10 1.77068e-09 )  
( 2.70726e-09 -2.02443e-10 8.81256e-10 )  
( 3.29334e-10 -4.87094e-11 -3.30782e-10 )  
( 2.32281e-09 -8.81255e-10 1.41337e-09 )  
( 3.62946e-10 8.02669e-11 2.23936e-10 )  
( 1.19839e-09 -8.92143e-11 6.81888e-10 )  
( 7.47557e-10 -4.49714e-10 3.82919e-10 )  
( 1.05809e-09 -1.22281e-10 6.05436e-10 )  
( 3.30184e-09 -4.32168e-10 3.42536e-09 )  
( -2.42207e-10 -3.13877e-11 3.72751e-11 )  
( 3.09128e-10 -7.83552e-11 2.97201e-10 )  
( 9.75101e-10 3.1971e-11 4.29194e-10 )  
( 7.27054e-10 -2.37316e-10 2.32822e-10 )  
( 1.18314e-09 1.44246e-10 5.93323e-10 )  
( 1.47753e-09 -2.83126e-10 1.06437e-09 )  
( 5.30752e-10 -3.20563e-10 1.80422e-10 )  
( 2.31026e-10 -4.98446e-11 4.04158e-10 )  
( 9.6528e-11 -5.80563e-11 1.51157e-10 )  
( 1.46753e-09 -4.97554e-11 1.17401e-09 )  
( 1.19552e-09 -1.45336e-10 7.60347e-10 )  
( 1.40508e-09 -4.66564e-10 9.23084e-10 )  
( 2.38541e-10 2.32596e-10 4.47266e-10 )  
( 2.11441e-10 6.88945e-11 1.41899e-10 )  
( 1.6172e-09 3.46218e-10 1.12603e-09 )  
( 1.36769e-09 2.54933e-10 9.43076e-10 )  
( 2.92103e-10 -1.66834e-10 3.66337e-10 )  
( 2.81888e-10 -1.46219e-10 3.97524e-10 )  
( 9.62287e-11 -6.15482e-11 7.11062e-11 )  
( 5.74259e-11 6.02039e-11 -6.40966e-11 )  
( 6.61349e-10 3.92112e-11 -8.90215e-11 )  
( 3.31786e-09 -6.38144e-10 5.7291e-10 )  
( 4.53781e-10 1.86382e-10 1.0038e-10 )  
( 2.8221e-09 -1.46342e-09 1.96826e-09 )  
( 2.26902e-09 -1.26893e-09 7.3148e-10 )  
( 2.85551e-09 -2.18566e-10 1.06203e-09 )  
( 7.50808e-10 1.35858e-10 -4.23249e-12 )  
( 1.43437e-09 -3.5819e-10 3.55578e-10 )  
( 1.04146e-09 1.4503e-10 1.63465e-10 )  
( 9.14426e-10 8.0715e-12 2.93303e-10 )  
( 2.01256e-09 -7.01653e-10 4.77821e-10 )  
( 2.63353e-09 -2.651e-09 8.09524e-10 )  
( 3.09874e-10 -6.49085e-11 7.83046e-12 )  
( 2.28128e-09 -6.53164e-10 3.95585e-10 )  
( 1.00846e-09 -3.02113e-11 -1.10471e-11 )  
( 3.93141e-10 6.68046e-11 -9.41908e-11 )  
( 3.07992e-09 -5.69804e-10 5.56707e-10 )  
( 5.51518e-10 2.11749e-10 -1.03661e-10 )  
( 5.33754e-11 -4.15961e-11 -6.62944e-12 )  
( 1.27741e-09 -1.09198e-10 2.87071e-10 )  
( 4.05928e-10 -5.35472e-12 8.74276e-10 )  
( 1.70191e-09 -4.5011e-10 5.2897e-10 )  
( 2.07203e-09 -2.73719e-10 8.50253e-10 )  
( 2.15729e-09 -7.40295e-10 3.2754e-10 )  
( 3.32158e-09 -6.63944e-10 1.31968e-09 )  
( 2.03472e-11 -3.57353e-11 8.70155e-11 )  
( 4.59347e-09 -4.48564e-09 2.76256e-09 )  
( 1.0874e-09 -3.39135e-11 2.70284e-10 )  
( 3.82619e-09 -2.52438e-09 1.50576e-09 )  
( 4.04607e-10 2.84004e-10 1.08977e-10 )  
( 2.94006e-09 -1.27874e-09 1.53993e-09 )  
( 7.69942e-10 -1.05308e-10 1.44988e-10 )  
( 1.66108e-09 -9.00637e-10 -1.1775e-10 )  
( 1.31879e-09 -1.71694e-10 1.58688e-10 )  
( 1.06451e-09 -1.27185e-10 2.99735e-11 )  
( 1.84412e-09 -1.5746e-10 8.33076e-10 )  
( 2.16686e-10 1.00169e-10 -5.32233e-12 )  
( 1.99295e-09 -3.23907e-10 8.04284e-10 )  
( 1.41802e-09 -2.34269e-10 4.84061e-10 )  
( 3.95828e-09 -2.32524e-10 1.14831e-09 )  
( 1.84858e-09 -1.36352e-11 3.4305e-10 )  
( 1.02255e-09 -3.66695e-10 -2.8472e-10 )  
( 3.90986e-10 -3.64172e-11 6.13221e-10 )  
( 3.61203e-09 -2.21655e-09 2.47973e-09 )  
( 3.84611e-09 -1.77268e-09 8.1916e-10 )  
( -5.70105e-10 -5.7264e-13 2.96234e-10 )  
( 2.11551e-10 -6.04807e-12 7.86078e-11 )  
( 5.24292e-09 -1.66165e-09 -2.70017e-10 )  
( 4.53652e-10 -2.5521e-12 1.5207e-10 )  
( 3.7118e-09 -1.38123e-09 1.32737e-09 )  
( -2.94014e-10 -5.84128e-11 3.93757e-11 )  
( 1.04175e-09 8.5641e-11 1.2718e-10 )  
( 1.12179e-09 -1.33507e-10 2.71622e-10 )  
( 2.22821e-09 -6.87635e-10 3.85374e-10 )  
( 1.96174e-09 -1.34134e-10 7.39506e-10 )  
( 4.70718e-09 -2.27485e-09 2.22428e-09 )  
( 8.19195e-10 2.00069e-10 5.47698e-10 )  
( 3.63346e-09 -3.10624e-10 1.29349e-09 )  
( 4.90218e-09 -4.03986e-09 3.2725e-09 )  
)
