/*--------------------------------*- C++ -*----------------------------------*\
| =========                 |                                                 |
| \\      /  F ield         | OpenFOAM: The Open Source CFD Toolbox           |
|  \\    /   O peration     | Version:  4.x                                   |
|   \\  /    A nd           | Web:      www.OpenFOAM.org                      |
|    \\/     M anipulation  |                                                 |
\*---------------------------------------------------------------------------*/
FoamFile
{
    version     2.0;
    format      ascii;
    class       volScalarField;
    location    "54.5";
    object      Deff;
}
// * * * * * * * * * * * * * * * * * * * * * * * * * * * * * * * * * * * * * //

dimensions      [0 2 -1 0 0 0 0];

internalField   nonuniform List<scalar> 
108
(
9.87859e-08
9.88684e-08
9.87515e-08
9.88831e-08
9.88523e-08
9.88877e-08
9.87374e-08
9.87202e-08
9.87697e-08
9.8781e-08
9.86496e-08
9.87558e-08
9.87932e-08
9.87658e-08
9.88186e-08
9.86604e-08
9.86481e-08
9.86686e-08
9.87935e-08
9.87335e-08
9.8707e-08
9.88017e-08
9.8775e-08
9.88176e-08
9.86854e-08
9.86613e-08
9.87437e-08
9.89623e-08
9.8944e-08
9.88831e-08
9.87499e-08
9.87706e-08
9.88194e-08
9.88451e-08
9.86999e-08
9.87989e-08
9.84022e-08
9.8411e-08
9.8252e-08
9.82761e-08
9.83291e-08
9.83547e-08
9.82804e-08
9.82404e-08
9.82047e-08
9.8412e-08
9.83815e-08
9.82943e-08
9.83233e-08
9.8348e-08
9.83289e-08
9.81799e-08
9.82027e-08
9.82284e-08
9.83099e-08
9.83515e-08
9.83188e-08
9.83019e-08
9.83361e-08
9.8309e-08
9.82785e-08
9.82359e-08
9.82424e-08
9.8497e-08
9.85586e-08
9.84715e-08
9.8422e-08
9.83315e-08
9.84063e-08
9.83524e-08
9.8301e-08
9.83711e-08
9.80615e-08
9.79807e-08
9.7945e-08
9.79409e-08
9.80011e-08
9.79475e-08
9.78456e-08
9.79039e-08
9.7944e-08
9.8064e-08
9.811e-08
9.80076e-08
9.81449e-08
9.81066e-08
9.79287e-08
9.78698e-08
9.78326e-08
9.79563e-08
9.82277e-08
9.80949e-08
9.80451e-08
9.81302e-08
9.80529e-08
9.79299e-08
9.79419e-08
9.79189e-08
9.80089e-08
9.8211e-08
9.83479e-08
9.82454e-08
9.81994e-08
9.81372e-08
9.80261e-08
9.80139e-08
9.7937e-08
9.7947e-08
)
;

boundaryField
{
    inlet
    {
        type            calculated;
        value           nonuniform 0();
    }
    outlet
    {
        type            calculated;
        value           uniform 0;
    }
    wall
    {
        type            calculated;
        value           uniform 0;
    }
    procBoundary3to1
    {
        type            processor;
        value           uniform 0;
    }
    procBoundary3to2
    {
        type            processor;
        value           uniform 0;
    }
    procBoundary3to7
    {
        type            processor;
        value           uniform 0;
    }
}


// ************************************************************************* //
