/*--------------------------------*- C++ -*----------------------------------*\
| =========                 |                                                 |
| \\      /  F ield         | OpenFOAM: The Open Source CFD Toolbox           |
|  \\    /   O peration     | Version:  4.x                                   |
|   \\  /    A nd           | Web:      www.OpenFOAM.org                      |
|    \\/     M anipulation  |                                                 |
\*---------------------------------------------------------------------------*/
FoamFile
{
    version     2.0;
    format      ascii;
    class       volScalarField;
    location    "54.5";
    object      magGField;
}
// * * * * * * * * * * * * * * * * * * * * * * * * * * * * * * * * * * * * * //

dimensions      [1 -2 -1 0 0 0 0];

internalField   nonuniform List<scalar> 
108
(
73.5116
129.02
76.7921
137.035
74.1027
147.285
61.8276
161.528
51.4024
55.9287
112.69
50.6193
111.711
36.2082
103.043
12.0146
75.5374
0.689049
72.6892
126.844
74.4123
134.8
70.7257
145.982
60.4641
167.023
57.2312
92.0349
139.276
94.268
144.345
90.6976
153.839
80.3107
172.829
52.9224
22.6539
101.82
20.317
106.147
17.58
112.633
17.0803
120.952
38.2399
7.9687
94.0164
1.64414
93.162
2.11569
89.1216
2.15179
76.8226
15.5854
33.1838
106.486
34.4538
115.178
37.2064
129.829
44.3132
153.065
79.4325
65.3155
120.68
65.3653
125.763
60.3591
136.186
51.0765
163.816
66.31
13.7898
94.0033
12.6758
94.8933
13.1434
93.9288
16.15
87.1185
39.4524
3.06069
85.1035
2.63651
84.0686
1.63593
81.4669
3.83324
70.7597
11.6581
2.91959
92.2113
1.81494
94.6357
3.25456
96.2763
17.3167
93.0633
51.316
44.7962
105.114
41.7748
106.553
34.1774
109.469
26.7817
123.995
26.7201
)
;

boundaryField
{
    inlet
    {
        type            calculated;
        value           nonuniform 0();
    }
    outlet
    {
        type            calculated;
        value           nonuniform List<scalar> 
12
(
107.117
1.44346
119.425
108.46
82.1464
33.4355
170.28
141.166
85.9975
25.3942
111.449
58.2387
)
;
    }
    wall
    {
        type            calculated;
        value           uniform 0;
    }
    procBoundary3to1
    {
        type            processor;
        value           nonuniform List<scalar> 
27
(
67.7963
120.4
67.8038
123.566
63.2508
133.389
57.074
157.555
52.5023
9.27157
94.3064
2.06581
93.1303
1.02087
89.7514
7.38058
82.7372
46.5438
8.18745
91.0443
6.90262
90.725
7.261
90.1084
15.201
88.4479
39.0627
)
;
    }
    procBoundary3to2
    {
        type            processor;
        value           nonuniform List<scalar> 
12
(
123.225
112.955
121.655
133.612
98.8988
94.2909
102.965
116.952
93.171
86.0798
90.7841
103.616
)
;
    }
    procBoundary3to7
    {
        type            processor;
        value           nonuniform List<scalar> 
36
(
6.04778
88.6208
5.0708
88.0037
1.04243
86.5138
0.830475
76.2974
12.3716
2.78244
87.1325
2.32294
85.8234
1.0118
82.3538
13.2565
74.2294
42.7472
29.7455
100.031
29.9245
104.933
29.3674
110.565
29.027
120.717
36.3725
52.1816
109.748
51.4542
113.542
46.6611
116.13
37.4814
124.175
32.2078
)
;
    }
}


// ************************************************************************* //
