/*--------------------------------*- C++ -*----------------------------------*\
| =========                 |                                                 |
| \\      /  F ield         | OpenFOAM: The Open Source CFD Toolbox           |
|  \\    /   O peration     | Version:  4.x                                   |
|   \\  /    A nd           | Web:      www.OpenFOAM.org                      |
|    \\/     M anipulation  |                                                 |
\*---------------------------------------------------------------------------*/
FoamFile
{
    version     2.0;
    format      ascii;
    class       volScalarField;
    location    "54.5";
    object      QPartFluid;
}
// * * * * * * * * * * * * * * * * * * * * * * * * * * * * * * * * * * * * * //

dimensions      [1 -1 -3 0 0 0 0];

internalField   nonuniform List<scalar> 
108
(
8.64483e+09
3.91958e+09
6.84501e+09
3.27536e+09
5.14252e+09
3.82421e+09
5.66793e+09
5.30585e+09
2.93097e+09
6.20682e+09
8.80616e+09
4.95538e+09
5.49945e+09
5.93653e+09
4.8729e+09
5.83039e+09
5.48908e+09
3.5939e+09
6.64312e+09
6.80037e+09
7.10433e+09
4.93683e+09
5.88204e+09
5.41059e+09
6.75892e+09
7.13281e+09
4.11773e+09
4.34589e+09
4.30439e+09
4.68147e+09
6.6829e+09
5.53425e+09
5.51859e+09
3.62369e+09
5.56142e+09
4.29668e+09
8.69483e+09
8.18883e+09
1.04577e+10
1.08345e+10
8.70315e+09
8.09467e+09
6.92457e+09
8.66792e+09
7.74883e+09
7.59451e+09
8.00982e+09
8.03476e+09
8.98663e+09
7.45234e+09
7.85319e+09
9.24814e+09
8.65774e+09
5.7526e+09
1.2731e+10
9.88793e+09
9.09253e+09
1.14269e+10
8.56337e+09
1.0245e+10
8.30516e+09
9.9268e+09
7.90944e+09
8.43994e+09
7.16102e+09
7.33521e+09
8.05898e+09
9.18992e+09
7.64334e+09
7.30141e+09
8.6913e+09
5.55689e+09
8.33212e+09
1.1199e+10
9.41941e+09
1.04827e+10
6.71712e+09
7.89771e+09
9.22372e+09
8.51154e+09
7.04687e+09
9.48231e+09
6.1157e+09
8.05914e+09
5.00201e+09
4.32706e+09
9.40211e+09
7.58788e+09
1.05856e+10
5.13529e+09
6.00587e+09
1.0278e+10
9.13209e+09
7.26176e+09
7.35967e+09
9.97062e+09
8.08611e+09
9.31589e+09
5.0271e+09
8.75255e+09
4.85684e+09
5.78463e+09
6.9738e+09
6.41949e+09
8.55243e+09
6.259e+09
9.52777e+09
7.51096e+09
)
;

boundaryField
{
    inlet
    {
        type            calculated;
        value           nonuniform 0();
    }
    outlet
    {
        type            calculated;
        value           uniform 0;
    }
    wall
    {
        type            calculated;
        value           uniform 0;
    }
    procBoundary3to1
    {
        type            processor;
        value           nonuniform List<scalar> 
27
(
4.1533e+09
7.35754e+09
6.53292e+09
9.35153e+09
6.59569e+09
5.88568e+09
5.79163e+09
6.31353e+09
4.31462e+09
8.29583e+09
8.8296e+09
7.4788e+09
7.0731e+09
6.06164e+09
9.4598e+09
9.46084e+09
1.32194e+10
4.49384e+09
9.78933e+09
8.13441e+09
5.71288e+09
1.13939e+10
9.04655e+09
1.07271e+10
7.50067e+09
9.718e+09
3.38787e+09
)
;
    }
    procBoundary3to2
    {
        type            processor;
        value           nonuniform List<scalar> 
12
(
4.67226e+09
4.46985e+09
6.50032e+09
3.98415e+09
1.13468e+10
6.40012e+09
7.67612e+09
4.82543e+09
9.35585e+09
5.71071e+09
1.02027e+10
7.73273e+09
)
;
    }
    procBoundary3to7
    {
        type            processor;
        value           nonuniform List<scalar> 
36
(
1.01587e+10
9.17323e+09
6.51722e+09
7.96976e+09
1.11178e+10
1.25443e+10
8.00606e+09
6.55939e+09
6.16498e+09
7.35564e+09
1.13863e+10
7.30836e+09
8.13966e+09
8.33129e+09
6.96166e+09
7.85754e+09
7.69657e+09
6.85153e+09
5.31599e+09
9.43081e+09
6.9518e+09
9.01412e+09
8.43859e+09
1.05838e+10
8.68314e+09
9.22769e+09
6.9471e+09
7.09325e+09
7.53817e+09
9.02595e+09
5.99103e+09
7.96605e+09
8.06928e+09
8.03709e+09
7.07982e+09
3.64507e+09
)
;
    }
}


// ************************************************************************* //
