/*--------------------------------*- C++ -*----------------------------------*\
| =========                 |                                                 |
| \\      /  F ield         | OpenFOAM: The Open Source CFD Toolbox           |
|  \\    /   O peration     | Version:  4.x                                   |
|   \\  /    A nd           | Web:      www.OpenFOAM.org                      |
|    \\/     M anipulation  |                                                 |
\*---------------------------------------------------------------------------*/
FoamFile
{
    version     2.0;
    format      ascii;
    class       volScalarField;
    location    "54.5";
    object      QWallFluidCoeff;
}
// * * * * * * * * * * * * * * * * * * * * * * * * * * * * * * * * * * * * * //

dimensions      [1 -1 -3 -1 0 0 0];

internalField   nonuniform List<scalar> 
108
(
-2.22219e+06
-3.48517e+06
-2.30118e+06
-3.65733e+06
-2.23648e+06
-3.87458e+06
-1.93483e+06
-4.17153e+06
-1.66911e+06
-1.78569e+06
-3.12757e+06
-1.64873e+06
-3.1058e+06
-1.26108e+06
-2.91148e+06
-521753
-2.27105e+06
-53002.7
-2.20228e+06
-3.43806e+06
-2.24395e+06
-3.60951e+06
-2.15456e+06
-3.84714e+06
-1.90062e+06
-4.28469e+06
-1.81888e+06
-5.31973e+06
-7.41018e+06
-5.42274e+06
-7.62517e+06
-5.2578e+06
-8.02381e+06
-4.7703e+06
-8.80686e+06
-3.41696e+06
0
0
0
0
0
0
0
0
0
0
0
0
0
0
0
0
0
0
0
0
0
0
0
0
0
0
0
-2.02167e+06
-3.30374e+06
-2.0229e+06
-3.4146e+06
-1.89798e+06
-3.63918e+06
-1.66064e+06
-4.21874e+06
-2.04626e+06
0
0
0
0
0
0
0
0
0
0
0
0
0
0
0
0
0
0
0
0
0
0
0
0
0
0
0
-1.49517e+06
-2.95819e+06
-1.41393e+06
-2.99053e+06
-1.20417e+06
-3.05584e+06
-990757
-3.37614e+06
-988935
)
;

boundaryField
{
    inlet
    {
        type            calculated;
        value           nonuniform 0();
    }
    outlet
    {
        type            calculated;
        value           uniform 0;
    }
    wall
    {
        type            calculated;
        value           uniform 0;
    }
    procBoundary3to1
    {
        type            processor;
        value           uniform 0;
    }
    procBoundary3to2
    {
        type            processor;
        value           uniform 0;
    }
    procBoundary3to7
    {
        type            processor;
        value           uniform 0;
    }
}


// ************************************************************************* //
