/*--------------------------------*- C++ -*----------------------------------*\
| =========                 |                                                 |
| \\      /  F ield         | OpenFOAM: The Open Source CFD Toolbox           |
|  \\    /   O peration     | Version:  4.x                                   |
|   \\  /    A nd           | Web:      www.OpenFOAM.org                      |
|    \\/     M anipulation  |                                                 |
\*---------------------------------------------------------------------------*/
FoamFile
{
    version     2.0;
    format      ascii;
    class       volVectorField;
    location    "40.5";
    object      ddtUrel;
}
// * * * * * * * * * * * * * * * * * * * * * * * * * * * * * * * * * * * * * //

dimensions      [0 1 -2 0 0 0 0];

internalField   nonuniform List<vector> 
132
(
(-1.95054e-10 2.17634e-10 1.06485e-10)
(-2.17855e-10 2.24932e-10 1.06479e-10)
(-3.91163e-10 1.76222e-10 5.78581e-11)
(-4.61295e-10 -8.26926e-11 -2.93583e-10)
(-1.36053e-09 -1.32935e-10 -3.86992e-10)
(-2.61203e-09 -1.02397e-10 -3.72997e-10)
(-5.32078e-09 -8.55739e-11 -3.08958e-10)
(-1.12759e-08 -1.01938e-10 -1.83713e-10)
(-2.65286e-08 -2.17603e-10 1.08716e-10)
(-1.32949e-10 2.42952e-10 5.5666e-11)
(-9.38372e-11 2.53443e-10 2.77626e-11)
(-7.54146e-11 1.94156e-10 -6.85305e-11)
(-3.35906e-10 -7.00974e-11 -2.75494e-10)
(-1.05445e-09 -1.17088e-10 -3.84355e-10)
(-2.13451e-09 -8.85288e-11 -4.03413e-10)
(-4.25631e-09 -6.04525e-11 -3.78037e-10)
(-8.36788e-09 -6.40558e-11 -3.04289e-10)
(-1.72262e-08 -1.00888e-10 -1.44136e-10)
(-1.57067e-10 2.3964e-10 -7.55476e-12)
(-1.01682e-10 2.27197e-10 -5.25929e-11)
(-1.34417e-10 1.70723e-10 -1.39608e-10)
(-3.19982e-10 9.39085e-12 -2.66124e-10)
(-8.1195e-10 -5.53271e-11 -3.66469e-10)
(-1.53473e-09 -4.8957e-11 -4.32187e-10)
(-2.95128e-09 -1.98316e-11 -4.46515e-10)
(-5.21691e-09 -1.07145e-11 -4.28134e-10)
(-9.42308e-09 -1.86794e-11 -3.71978e-10)
(-2.52716e-10 2.26109e-10 -5.48806e-11)
(-1.73696e-10 1.92219e-10 -1.04153e-10)
(-2.11954e-10 1.44796e-10 -1.74035e-10)
(-1.19065e-10 1.77563e-10 1.2024e-10)
(-7.24514e-11 1.74952e-10 1.1496e-10)
(-7.79042e-11 1.12998e-10 1.72741e-11)
(-2.50782e-10 -3.61212e-11 -3.23269e-10)
(-9.32762e-10 -7.75882e-11 -4.10972e-10)
(-2.00039e-09 -6.58948e-11 -3.94727e-10)
(-4.00603e-09 -5.82012e-11 -3.43523e-10)
(-8.02258e-09 -6.77492e-11 -2.54546e-10)
(-1.63047e-08 -1.17287e-10 -1.00145e-10)
(-8.29397e-11 1.99776e-10 6.36052e-11)
(-2.53766e-11 2.03536e-10 3.87582e-11)
(-2.65449e-12 1.42584e-10 -6.98995e-11)
(-1.93078e-10 -1.78033e-11 -2.88963e-10)
(-7.56947e-10 -7.37976e-11 -4.0196e-10)
(-1.64592e-09 -5.86737e-11 -4.21007e-10)
(-3.22831e-09 -4.24195e-11 -4.02673e-10)
(-6.10989e-09 -4.11567e-11 -3.49418e-10)
(-1.14022e-08 -6.72405e-11 -2.6214e-10)
(-9.42336e-11 1.96626e-10 -6.30227e-12)
(-3.53628e-11 1.91876e-10 -4.81714e-11)
(-3.84239e-11 1.35852e-10 -1.40425e-10)
(-1.845e-10 3.00634e-11 -2.73555e-10)
(-5.57844e-10 -2.34588e-11 -3.78303e-10)
(-1.15453e-09 -2.46294e-11 -4.3824e-10)
(-2.20385e-09 -8.09192e-12 -4.62905e-10)
(-3.88818e-09 1.47134e-12 -4.53609e-10)
(-6.62888e-09 -1.10601e-12 -4.2784e-10)
(-1.35681e-10 1.84638e-10 -5.87571e-11)
(-8.28194e-11 1.70469e-10 -1.0377e-10)
(-8.35719e-11 1.2775e-10 -1.75395e-10)
(-1.67651e-10 6.98084e-11 -2.74395e-10)
(-3.86959e-10 3.47052e-11 -3.63993e-10)
(-5.18557e-11 1.228e-10 8.40564e-11)
(-1.64498e-11 1.10506e-10 5.70182e-11)
(-2.92389e-11 7.34411e-11 -3.98319e-11)
(-2.04394e-10 7.10517e-12 -2.42219e-10)
(-6.45513e-10 -2.7326e-11 -3.46113e-10)
(-1.38521e-09 -3.2496e-11 -3.66823e-10)
(-2.6499e-09 -2.94235e-11 -3.46568e-10)
(-4.8728e-09 -3.18103e-11 -3.01632e-10)
(-8.65837e-09 -4.61432e-11 -2.41278e-10)
(-3.74456e-11 1.38322e-10 4.46826e-11)
(1.61732e-12 1.29599e-10 1.15821e-11)
(-7.29347e-12 8.99166e-11 -8.57459e-11)
(-1.57662e-10 1.67822e-11 -2.44865e-10)
(-5.33793e-10 -2.20338e-11 -3.57382e-10)
(-1.15493e-09 -2.57208e-11 -3.96039e-10)
(-2.18414e-09 -1.84229e-11 -3.96701e-10)
(-3.8756e-09 -1.19714e-11 -3.69146e-10)
(-6.51863e-09 -2.76547e-11 -3.33709e-10)
(-4.79982e-11 1.41386e-10 -1.31653e-11)
(-1.43604e-11 1.34342e-10 -5.19851e-11)
(-2.35863e-11 9.90675e-11 -1.35312e-10)
(-1.39367e-10 3.94458e-11 -2.50404e-10)
(-3.99129e-10 6.05106e-12 -3.49958e-10)
(-8.36477e-10 -3.41739e-12 -4.1162e-10)
(-1.54696e-09 8.46486e-12 -4.4005e-10)
(-2.58631e-09 1.8258e-11 -4.44334e-10)
(-4.08075e-09 1.45688e-11 -4.37982e-10)
(-6.82045e-11 1.37798e-10 -5.90507e-11)
(-3.97876e-11 1.3204e-10 -9.83958e-11)
(-4.44948e-11 1.05921e-10 -1.66154e-10)
(-1.11716e-10 6.88575e-11 -2.54734e-10)
(-2.6422e-10 4.65166e-11 -3.42439e-10)
(-5.17929e-10 4.45667e-11 -4.15608e-10)
(-9.41354e-10 5.87416e-11 -4.62707e-10)
(-2.54805e-11 8.07047e-11 4.10516e-11)
(-7.13878e-12 6.8899e-11 9.15062e-12)
(-3.71465e-11 4.91802e-11 -6.57452e-11)
(-1.69644e-10 1.59702e-11 -1.83828e-10)
(-4.40334e-10 -3.57843e-12 -2.70264e-10)
(-8.86625e-10 -1.1082e-11 -3.12089e-10)
(-1.61572e-09 -1.0466e-11 -3.22414e-10)
(-2.72156e-09 -5.33232e-12 -3.11049e-10)
(-4.3544e-09 -6.51419e-12 -2.9041e-10)
(-1.97902e-11 8.95638e-11 1.72913e-11)
(-4.06612e-13 7.96097e-11 -1.58707e-11)
(-2.57515e-11 5.75141e-11 -9.23337e-11)
(-1.29974e-10 2.2552e-11 -2.00918e-10)
(-3.6603e-10 1.60024e-12 -2.88041e-10)
(-7.52661e-10 -6.92528e-12 -3.35153e-10)
(-1.36266e-09 -5.07742e-12 -3.54629e-10)
(-2.24974e-09 5.31465e-12 -3.51148e-10)
(-3.47244e-09 2.90431e-12 -3.415e-10)
(-3.28155e-11 9.62952e-11 -2.2419e-11)
(-1.27956e-11 8.80527e-11 -5.77847e-11)
(-3.16403e-11 6.7253e-11 -1.25484e-10)
(-1.11333e-10 3.51192e-11 -2.15293e-10)
(-2.81569e-10 1.96826e-11 -2.96184e-10)
(-5.71797e-10 1.11415e-11 -3.52269e-10)
(-1.0085e-09 1.72212e-11 -3.86564e-10)
(-1.58886e-09 2.64025e-11 -4.00282e-10)
(-2.32792e-09 2.72261e-11 -4.02566e-10)
(-4.64067e-11 9.60533e-11 -5.75942e-11)
(-2.45121e-11 9.3991e-11 -8.91691e-11)
(-3.421e-11 7.82551e-11 -1.46892e-10)
(-8.27559e-11 6.05414e-11 -2.1933e-10)
(-1.87054e-10 4.84996e-11 -2.94688e-10)
(-3.6694e-10 4.78801e-11 -3.59037e-10)
(-6.36175e-10 5.80746e-11 -4.03139e-10)
(-9.62956e-10 6.75184e-11 -4.27901e-10)
(-1.32085e-09 7.68997e-11 -4.52311e-10)
)
;

boundaryField
{
    inlet
    {
        type            calculated;
        value           nonuniform List<vector> 
16
(
(-6.23256e-10 2.40467e-10 2.24018e-10)
(-2.93211e-10 4.35325e-10 1.70695e-10)
(-6.66873e-10 4.52601e-10 1.1406e-10)
(-6.82307e-10 4.1945e-10 4.61489e-11)
(-5.30339e-10 1.68904e-10 4.80403e-10)
(-2.95919e-10 3.30718e-10 2.85247e-10)
(-5.17504e-10 2.88357e-10 1.40281e-10)
(-3.93267e-10 2.90271e-10 4.71092e-11)
(-1.00041e-10 7.73265e-11 3.15691e-10)
(-1.29926e-10 1.72927e-10 2.4403e-10)
(-2.11814e-10 1.61712e-10 1.00311e-10)
(-1.59925e-10 1.82875e-10 2.45672e-11)
(-8.95091e-11 5.86208e-11 1.92732e-10)
(-5.01291e-11 8.18814e-11 1.71353e-10)
(-4.15337e-10 1.18373e-10 1.02977e-10)
(-3.03013e-10 8.69909e-11 1.66495e-11)
)
;
    }
    outlet
    {
        type            calculated;
        value           nonuniform 0();
    }
    wall
    {
        type            calculated;
        value           nonuniform List<vector> 
66
(
(-5.44059e-10 2.39038e-10 2.19614e-10)
(-1.45514e-10 4.29971e-10 1.6189e-10)
(-4.11094e-10 4.44771e-10 9.05267e-11)
(-6.17128e-10 4.17453e-10 3.24725e-11)
(-6.11076e-10 4.73963e-10 4.82729e-10)
(2.50685e-11 8.0641e-10 2.27438e-10)
(-4.32357e-11 5.1117e-10 -7.32762e-12)
(-3.42196e-10 2.79265e-10 -1.19491e-10)
(-2.89372e-09 1.00003e-09 1.56246e-09)
(1.57128e-09 1.14889e-09 1.31764e-10)
(-6.88042e-10 6.41903e-10 -8.38704e-11)
(-1.29613e-09 2.70871e-10 -1.13709e-10)
(9.32075e-10 -9.38984e-10 -1.0831e-09)
(6.39178e-10 -1.12419e-09 -5.05354e-10)
(-2.70959e-10 -2.94339e-10 -2.59112e-10)
(-3.10695e-09 -6.08701e-10 -6.48117e-10)
(-1.75885e-09 -6.06914e-10 -6.20413e-10)
(-1.93621e-09 -4.33591e-10 -3.65842e-10)
(-1.83892e-09 -2.11373e-10 -3.54349e-10)
(-1.53843e-09 -2.37246e-10 -4.64273e-10)
(-1.30694e-09 -3.1555e-10 -5.75705e-10)
(-3.45407e-09 -1.35739e-10 -1.44747e-10)
(-3.7561e-09 -1.80129e-11 -3.84436e-10)
(-4.03525e-09 -6.70348e-11 -4.83132e-10)
(4.1623e-11 -1.3291e-12 -1.41908e-10)
(-2.8178e-09 -1.8029e-12 -3.54795e-10)
(-2.52158e-09 -2.87538e-11 -5.22071e-10)
(-2.96521e-10 -8.02672e-11 -1.19288e-10)
(-1.05556e-08 2.7854e-10 -1.11436e-10)
(-6.76937e-09 4.36094e-11 -2.80546e-10)
(-5.9991e-10 2.3931e-10 2.21948e-10)
(-4.45989e-10 1.65359e-10 4.71326e-10)
(-8.1985e-11 7.58588e-11 3.13422e-10)
(-5.44824e-11 5.67433e-11 1.9049e-10)
(-6.42954e-10 4.73504e-10 4.85187e-10)
(1.69514e-10 3.2395e-10 8.56634e-10)
(1.93156e-10 6.24682e-11 3.96194e-10)
(9.40453e-11 1.09278e-11 1.63994e-10)
(-8.92412e-09 1.02719e-09 1.83969e-09)
(8.85121e-10 2.32423e-10 1.12991e-09)
(5.11544e-10 7.21857e-11 3.49994e-10)
(2.01847e-10 4.47912e-11 1.0227e-10)
(9.50878e-10 -9.41898e-10 -1.08308e-09)
(1.65578e-09 -4.29468e-10 -1.57982e-09)
(4.78332e-10 -2.0037e-11 -4.80534e-10)
(8.85492e-11 -2.08265e-11 -1.67663e-10)
(-3.35152e-09 -6.12631e-10 -6.40157e-10)
(9.41888e-11 -2.44575e-10 -1.04273e-09)
(1.56666e-10 -5.6943e-11 -6.1193e-10)
(7.09554e-11 -1.3075e-11 -3.06902e-10)
(-1.45167e-09 -2.13275e-10 -3.67788e-10)
(-7.52279e-11 -6.6338e-11 -5.80231e-10)
(-1.24547e-10 -4.32281e-11 -4.85245e-10)
(1.99287e-12 -2.7235e-11 -3.61523e-10)
(-2.71483e-09 -1.41854e-10 -1.7204e-10)
(1.10232e-10 -5.57776e-11 -3.85051e-10)
(4.17442e-11 -1.55267e-11 -3.56622e-10)
(-2.83144e-10 -1.85961e-11 -3.76246e-10)
(-3.10458e-10 -7.35878e-12 -1.29069e-10)
(1.62783e-10 -2.58015e-11 -2.46844e-10)
(1.41073e-10 -2.58595e-11 -2.58224e-10)
(3.16527e-10 3.45017e-11 -3.69759e-10)
(1.24587e-10 -7.97285e-11 -1.34093e-10)
(5.04031e-09 1.46567e-10 -3.73965e-10)
(2.52774e-09 8.33488e-11 -5.02154e-10)
(1.11168e-09 3.83067e-11 -5.05756e-10)
)
;
    }
    procBoundary0to1
    {
        type            processor;
        value           nonuniform List<vector> 
12
(
(-6.83999e-08 -5.81063e-10 9.11644e-10)
(-3.41097e-08 -2.11954e-10 1.62839e-10)
(-1.5321e-08 -4.39664e-11 -3.16401e-10)
(-3.26943e-08 -2.61861e-10 2.18945e-10)
(-1.96271e-08 -1.21622e-10 -1.163e-10)
(-1.00195e-08 -4.0224e-12 -4.09782e-10)
(-1.44243e-08 -8.81271e-11 -1.11792e-10)
(-9.93134e-09 -3.72568e-11 -2.66738e-10)
(-5.71835e-09 2.47094e-11 -4.29691e-10)
(-6.36908e-09 -1.14273e-11 -2.30863e-10)
(-4.79283e-09 8.44382e-12 -3.10998e-10)
(-3.03133e-09 4.34422e-11 -4.02503e-10)
)
;
    }
    procBoundary0to2
    {
        type            processor;
        value           nonuniform List<vector> 
44
(
(-3.22e-10 6.95149e-11 -2.70171e-10)
(-6.48259e-10 2.76526e-11 -3.54245e-10)
(-1.05555e-09 3.26522e-11 -4.42805e-10)
(-1.91054e-09 5.4951e-11 -4.85496e-10)
(-3.00877e-09 5.81786e-11 -5.10045e-10)
(-4.86255e-09 5.54112e-11 -5.19964e-10)
(-5.14515e-10 2.29137e-10 -7.24334e-11)
(-2.50192e-10 1.65241e-10 -1.25952e-10)
(-3.22e-10 6.95149e-11 -2.70171e-10)
(-2.53016e-10 1.27292e-10 -1.89535e-10)
(-3.22e-10 6.95149e-11 -2.70171e-10)
(-6.48259e-10 2.76526e-11 -3.54245e-10)
(-7.27151e-10 3.65621e-11 -4.4744e-10)
(-1.33202e-09 5.51538e-11 -4.95599e-10)
(-2.17223e-09 6.18199e-11 -5.21855e-10)
(-3.43065e-09 6.87653e-11 -5.41247e-10)
(-1.95023e-10 1.59719e-10 -9.1265e-11)
(-1.21126e-10 1.43978e-10 -1.30793e-10)
(-1.11544e-10 1.14726e-10 -1.90804e-10)
(-1.42705e-10 8.51579e-11 -2.64176e-10)
(-7.27151e-10 3.65621e-11 -4.4744e-10)
(-2.54012e-10 6.67843e-11 -3.39481e-10)
(-7.27151e-10 3.65621e-11 -4.4744e-10)
(-1.33202e-09 5.51538e-11 -4.95599e-10)
(-1.48866e-09 6.47661e-11 -4.96376e-10)
(-2.2081e-09 7.78351e-11 -5.21157e-10)
(-8.86616e-11 1.20895e-10 -8.85846e-11)
(-5.3933e-11 1.14554e-10 -1.25311e-10)
(-4.83647e-11 9.58058e-11 -1.79546e-10)
(-7.44579e-11 7.78065e-11 -2.46371e-10)
(-1.5251e-10 6.66047e-11 -3.19418e-10)
(-2.72537e-10 7.5628e-11 -3.90222e-10)
(-1.48866e-09 6.47661e-11 -4.96376e-10)
(-4.84042e-10 8.46831e-11 -4.42868e-10)
(-1.48866e-09 6.47661e-11 -4.96376e-10)
(-2.2081e-09 7.78351e-11 -5.21157e-10)
(-5.05585e-11 8.8684e-11 -7.97948e-11)
(-2.7284e-11 8.83889e-11 -1.09939e-10)
(-2.28324e-11 7.77453e-11 -1.57741e-10)
(-4.13601e-11 6.82698e-11 -2.15907e-10)
(-9.29237e-11 6.19364e-11 -2.79601e-10)
(-1.85851e-10 6.82617e-11 -3.36738e-10)
(-3.21413e-10 8.22604e-11 -3.86907e-10)
(-4.80592e-10 1.03599e-10 -4.22113e-10)
)
;
    }
    procBoundary0to4
    {
        type            processor;
        value           nonuniform List<vector> 
36
(
(-1.77081e-11 5.04876e-11 7.33918e-12)
(-1.32494e-11 4.40893e-11 -1.91403e-11)
(-4.85587e-11 3.21943e-11 -7.25144e-11)
(-1.28139e-10 1.57884e-11 -1.45607e-10)
(-3.00904e-10 5.40693e-12 -2.11069e-10)
(-5.45538e-10 3.07437e-12 -2.49271e-10)
(-9.39651e-10 1.91451e-12 -2.69424e-10)
(-1.4775e-09 4.01424e-12 -2.72125e-10)
(-2.17563e-09 1.02496e-11 -2.62178e-10)
(-1.57068e-11 5.71053e-11 -7.43239e-12)
(-7.8182e-12 5.11314e-11 -3.2569e-11)
(-3.26125e-11 3.76147e-11 -8.75449e-11)
(-1.06308e-10 2.08715e-11 -1.60447e-10)
(-2.50945e-10 9.4602e-12 -2.25811e-10)
(-4.74895e-10 5.80865e-12 -2.67969e-10)
(-8.10228e-10 5.47307e-12 -2.93323e-10)
(-1.26232e-09 9.55603e-12 -3.02552e-10)
(-1.80498e-09 1.98778e-11 -3.01735e-10)
(-2.60688e-11 6.36066e-11 -3.23352e-11)
(-1.54885e-11 5.76821e-11 -5.8722e-11)
(-3.27219e-11 4.54152e-11 -1.1e-10)
(-9.36362e-11 3.04853e-11 -1.7494e-10)
(-2.05093e-10 2.20894e-11 -2.36719e-10)
(-3.82149e-10 1.99315e-11 -2.80443e-10)
(-6.2761e-10 2.18014e-11 -3.14617e-10)
(-9.39142e-10 2.57306e-11 -3.32637e-10)
(-1.28651e-09 4.42051e-11 -3.37598e-10)
(-3.31382e-11 6.69395e-11 -5.60795e-11)
(-2.03844e-11 6.604e-11 -7.98377e-11)
(-2.99249e-11 5.80451e-11 -1.25125e-10)
(-7.0305e-11 4.8056e-11 -1.79311e-10)
(-1.45334e-10 4.327e-11 -2.40026e-10)
(-2.634e-10 4.37163e-11 -2.8483e-10)
(-4.24862e-10 5.37347e-11 -3.20919e-10)
(-5.97011e-10 6.44192e-11 -3.42931e-10)
(-7.74159e-10 7.84626e-11 -3.5468e-10)
)
;
    }
    procBoundary0to6
    {
        type            processor;
        value           uniform (-6.51799e-10 1.18729e-10 -4.54254e-10);
    }
    procBoundary0to7
    {
        type            processor;
        value           uniform (-1.64083e-09 1.04957e-10 -4.65534e-10);
    }
}


// ************************************************************************* //
