/*--------------------------------*- C++ -*----------------------------------*\
| =========                 |                                                 |
| \\      /  F ield         | OpenFOAM: The Open Source CFD Toolbox           |
|  \\    /   O peration     | Version:  4.x                                   |
|   \\  /    A nd           | Web:      www.OpenFOAM.org                      |
|    \\/     M anipulation  |                                                 |
\*---------------------------------------------------------------------------*/
FoamFile
{
    version     2.0;
    format      ascii;
    class       volScalarField;
    location    "40.5";
    object      Ksl;
}
// * * * * * * * * * * * * * * * * * * * * * * * * * * * * * * * * * * * * * //

dimensions      [1 -3 -1 0 0 0 0];

internalField   nonuniform List<scalar> 
132
(
3312.95
6852.95
3084.15
5268.4
2902.2
4538.73
2787.11
4092.87
2612.45
3330.3
7335.11
3191.36
5912.94
3046.04
5183.39
2928.22
4714.3
2818.2
3344.87
7681.69
3256.28
6404.69
3183.47
5741.58
3071.73
5393.28
3030.11
3357.28
7599.25
3221.94
3364
7960.6
3293.48
7053.51
3256.65
6517.01
3212.56
6170.58
3110.47
3393.1
9125.95
3461.98
9131.55
3527.96
9613.17
3526.89
10336.9
3477.95
3434.71
10109
3555.53
11405
3668.71
14055.4
3736.59
20160.4
3703.75
3475.35
9820.99
3563.87
10873.8
3657.49
3395.8
8126.1
3372.56
7415.53
3317.59
6885.82
3240.95
6501.16
3105.45
3450.07
9523.45
3547.27
10235.2
3606.15
11237.8
3597.01
12449.6
3484.21
3495.65
10677
3675.66
14503.3
3794.33
20124.2
3795.31
25211.2
3704.23
3518.55
11223.3
3716.65
16237
3788.47
23225.2
3760.2
3380.27
8202.03
3386.34
7703.99
3363.13
7555.87
3348
7666.27
3309.78
3450.19
10247
3618.5
12694.8
3691.57
16431
3748.07
25994.3
3724.08
3507.09
11647.1
3768.82
21303.8
3914.19
70539
4013.38
1e+10
4075.74
3493.78
11577.1
3759.96
20402.3
3820.67
41974.5
3816.61
105625
3764.11
)
;

boundaryField
{
    inlet
    {
        type            zeroGradient;
    }
    outlet
    {
        type            zeroGradient;
    }
    wall
    {
        type            zeroGradient;
    }
    procBoundary0to1
    {
        type            processor;
        value           nonuniform List<scalar> 
12
(
3829.21
4484.18
5372.24
6053.58
11387.9
39658.5
6318.82
12798.1
33230.1
8666.58
66374.5
1e+10
)
;
    }
    procBoundary0to2
    {
        type            processor;
        value           nonuniform List<scalar> 
44
(
6285.56
3140.7
5536.08
3029.02
5097.83
2878.03
3393.29
8105.31
6285.56
3325.38
6285.56
3140.7
13081.4
3674.2
15245.5
3552.79
3435.45
10002.8
3587.85
11962.6
13081.4
3688.29
13081.4
3674.2
29072.3
3661.83
3493.29
10618.4
3696.84
15016.9
3801.22
24594.6
29072.3
3850.01
29072.3
3661.83
3500.7
11601.7
3749.07
18016.7
3825.14
31305.7
3838.28
87971.8
)
;
    }
    procBoundary0to4
    {
        type            processor;
        value           nonuniform List<scalar> 
36
(
3380.15
7964.28
3385.77
7607.1
3367.58
7306.78
3303.93
7151.91
3180
3471.97
9940.09
3649.72
12736.8
3700.73
15489.8
3678.59
19401.3
3605.73
3508.53
11172.2
3758.57
17149.3
3813.55
27212.3
3786.74
67075.6
3729.72
3488.71
11327.5
3787.72
19340.9
3876.7
48879
3895.57
1e+10
3868.13
)
;
    }
    procBoundary0to6
    {
        type            processor;
        value           uniform 3811.39;
    }
    procBoundary0to7
    {
        type            processor;
        value           uniform 1e+10;
    }
}


// ************************************************************************* //
