/*--------------------------------*- C++ -*----------------------------------*\
| =========                 |                                                 |
| \\      /  F ield         | OpenFOAM: The Open Source CFD Toolbox           |
|  \\    /   O peration     | Version:  4.x                                   |
|   \\  /    A nd           | Web:      www.OpenFOAM.org                      |
|    \\/     M anipulation  |                                                 |
\*---------------------------------------------------------------------------*/
FoamFile
{
    version     2.0;
    format      ascii;
    class       volScalarField;
    location    "40.5";
    object      QWallFluid;
}
// * * * * * * * * * * * * * * * * * * * * * * * * * * * * * * * * * * * * * //

dimensions      [1 -1 -3 0 0 0 0];

internalField   nonuniform List<scalar> 
132
(
1.71223e+09
9.61976e+08
1.85155e+09
1.21257e+09
1.97527e+09
1.38922e+09
2.07551e+09
1.51934e+09
2.18379e+09
8.59124e+08
4.59991e+08
9.08708e+08
5.56544e+08
9.58604e+08
6.28241e+08
9.98847e+08
6.81183e+08
1.03672e+09
0
4.45436e+08
8.97033e+08
5.23431e+08
9.30118e+08
5.78671e+08
9.5983e+08
6.09791e+08
9.72489e+08
8.60902e+08
4.48159e+08
9.00381e+08
8.4912e+08
4.26807e+08
8.73123e+08
4.77985e+08
8.9763e+08
5.16427e+08
9.20549e+08
5.40709e+08
9.40719e+08
0
0
0
0
0
0
0
0
0
0
0
0
0
0
0
0
0
0
0
0
0
0
0
8.36048e+08
4.17209e+08
8.53204e+08
4.54811e+08
8.7481e+08
4.88085e+08
8.97083e+08
5.09113e+08
9.22554e+08
0
0
0
0
0
0
0
0
0
0
0
0
0
0
0
0
0
0
0
0
0
0
0
0
0
8.34761e+08
4.1202e+08
8.46604e+08
4.37398e+08
8.56157e+08
4.46194e+08
8.62911e+08
4.40276e+08
8.63134e+08
0
0
0
0
0
0
0
0
0
0
0
0
0
0
0
0
0
0
0
0
0
0
0
0
0
0
0
)
;

boundaryField
{
    inlet
    {
        type            calculated;
        value           uniform 0;
    }
    outlet
    {
        type            calculated;
        value           nonuniform 0();
    }
    wall
    {
        type            calculated;
        value           uniform 0;
    }
    procBoundary0to1
    {
        type            processor;
        value           nonuniform List<scalar> 
12
(
1.61035e+09
7.13874e+08
6.13294e+08
5.50498e+08
0
0
5.17897e+08
0
0
3.93896e+08
0
0
)
;
    }
    procBoundary0to2
    {
        type            processor;
        value           nonuniform List<scalar> 
44
(
5.29971e+08
9.3357e+08
5.94808e+08
9.69004e+08
6.3571e+08
1.00326e+09
8.48314e+08
4.24341e+08
5.29971e+08
8.7857e+08
5.29971e+08
9.3357e+08
0
0
0
0
0
0
0
0
0
0
0
0
0
0
0
0
0
0
0
0
0
0
0
0
0
0
0
0
0
0
0
0
)
;
    }
    procBoundary0to4
    {
        type            processor;
        value           nonuniform List<scalar> 
36
(
8.2772e+08
4.16839e+08
8.37096e+08
4.38979e+08
8.49529e+08
4.53871e+08
8.60522e+08
4.57564e+08
8.72936e+08
0
0
0
0
0
0
0
0
0
0
0
0
0
0
0
0
0
0
0
0
0
0
0
0
0
0
0
)
;
    }
    procBoundary0to6
    {
        type            processor;
        value           uniform 0;
    }
    procBoundary0to7
    {
        type            processor;
        value           uniform 0;
    }
}


// ************************************************************************* //
