/*--------------------------------*- C++ -*----------------------------------*\
| =========                 |                                                 |
| \\      /  F ield         | OpenFOAM: The Open Source CFD Toolbox           |
|  \\    /   O peration     | Version:  4.x                                   |
|   \\  /    A nd           | Web:      www.OpenFOAM.org                      |
|    \\/     M anipulation  |                                                 |
\*---------------------------------------------------------------------------*/
FoamFile
{
    version     2.0;
    format      ascii;
    class       volVectorField;
    location    "40.5";
    object      UsNext;
}
// * * * * * * * * * * * * * * * * * * * * * * * * * * * * * * * * * * * * * //

dimensions      [0 1 -1 0 0 0 0];

internalField   nonuniform List<vector> 
132
(
(-3.64232e-10 2.91859e-10 2.15372e-10)
(-4.40657e-10 6.0765e-10 5.47468e-10)
(4.43753e-09 6.19771e-09 1.42818e-09)
(1.90733e-09 -5.42762e-10 -7.16541e-10)
(-8.84814e-10 4.61633e-11 -2.5116e-10)
(-7.57385e-10 1.54144e-11 2.28773e-10)
(-6.65214e-10 2.91803e-10 7.01993e-10)
(-7.17145e-10 3.16904e-10 -1.85724e-10)
(-5.03304e-10 -9.0991e-11 1.32831e-10)
(-2.04212e-11 4.16742e-10 1.36184e-10)
(3.00415e-10 9.33733e-10 4.67757e-10)
(2.41866e-09 1.04884e-09 3.05159e-10)
(1.54938e-09 -1.11549e-09 3.96889e-11)
(6.52313e-10 -8.50183e-10 1.688e-10)
(-1.69395e-10 -2.07822e-10 5.09899e-10)
(7.25008e-10 -2.99709e-10 9.67807e-10)
(1.33877e-09 -3.34761e-10 1.62088e-09)
(2.35493e-09 -2.7439e-09 3.65451e-09)
(4.81157e-10 6.73704e-10 2.03841e-10)
(7.03222e-10 6.566e-10 4.08928e-10)
(1.36368e-09 6.88328e-10 5.14495e-10)
(1.08859e-09 -1.6119e-10 4.70095e-10)
(1.15486e-09 -4.66574e-10 5.35626e-10)
(4.56632e-10 -5.04799e-11 8.00179e-10)
(1.01393e-09 -4.31444e-10 1.10943e-09)
(1.27474e-09 -1.06117e-09 1.78804e-09)
(2.11674e-09 -2.11182e-09 2.43392e-09)
(3.11668e-10 3.82922e-10 2.24322e-10)
(7.33356e-10 3.60594e-10 3.95399e-10)
(9.72462e-10 7.79492e-11 4.53154e-10)
(-8.74685e-11 2.28598e-10 5.12423e-10)
(1.50051e-10 4.37344e-10 9.95934e-10)
(1.40307e-09 3.91921e-10 1.32944e-09)
(1.86627e-09 -2.62554e-10 -1.13907e-09)
(3.42472e-10 -1.78155e-10 -4.99447e-10)
(-1.87587e-10 -4.92164e-11 1.07893e-10)
(-3.89193e-10 -1.28825e-10 4.84171e-10)
(5.34638e-11 6.21985e-11 -7.14583e-10)
(-1.81691e-09 -1.56465e-09 3.20693e-09)
(1.5902e-10 3.57614e-10 3.06664e-10)
(6.14511e-10 6.7113e-10 7.49456e-10)
(1.97267e-09 2.27751e-10 9.99239e-10)
(1.64442e-09 -2.68546e-10 -2.89528e-11)
(7.13751e-10 -6.06357e-10 -5.23438e-12)
(1.18511e-10 -2.68897e-10 3.56637e-10)
(2.09285e-11 -1.837e-10 8.62703e-10)
(-1.32815e-11 -4.14371e-10 1.52582e-09)
(-9.80106e-10 2.651e-11 4.59776e-09)
(3.15996e-10 3.65689e-10 2.38669e-10)
(7.25736e-10 5.72174e-10 5.34259e-10)
(1.32818e-09 3.55555e-10 5.79067e-10)
(1.41853e-09 -8.01984e-11 4.89065e-10)
(1.19915e-09 -2.62585e-10 5.76834e-10)
(7.76599e-10 -3.35351e-10 6.4635e-10)
(9.6983e-10 -3.41105e-10 1.21665e-09)
(8.35176e-10 -6.18659e-10 1.8571e-09)
(1.2905e-09 -5.99478e-10 2.80049e-09)
(2.85764e-10 3.05245e-10 3.09846e-10)
(6.91432e-10 3.34337e-10 4.95146e-10)
(1.15561e-09 3.29439e-10 6.54151e-10)
(1.28684e-09 -1.12333e-10 7.20815e-10)
(1.36595e-09 -3.04552e-10 9.15205e-10)
(9.46682e-11 1.15153e-10 4.06212e-10)
(2.2356e-10 1.80495e-10 5.53188e-10)
(7.3326e-10 1.16533e-10 5.65421e-10)
(6.19212e-10 5.5246e-11 -5.90605e-11)
(4.60214e-10 -3.5855e-12 -1.60713e-10)
(1.32555e-10 1.34629e-10 2.5805e-10)
(-1.26442e-10 -1.88789e-11 6.3569e-10)
(1.3875e-14 7.8103e-13 4.17353e-10)
(-1.46583e-09 -7.84288e-10 4.28439e-09)
(1.57911e-10 1.81873e-10 3.52482e-10)
(4.13504e-10 2.77003e-10 5.60385e-10)
(1.04318e-09 1.5948e-10 5.7283e-10)
(1.19328e-09 1.72491e-10 4.20155e-10)
(8.4051e-10 -5.19931e-11 1.11803e-10)
(5.76329e-10 -1.29387e-10 5.1443e-10)
(4.44187e-10 -2.29476e-10 9.10249e-10)
(1.86968e-10 -5.16132e-10 1.38323e-09)
(-1.87032e-09 1.49141e-09 4.72494e-09)
(2.11797e-10 2.3721e-10 2.33934e-10)
(6.00935e-10 3.59835e-10 4.73317e-10)
(1.27742e-09 2.95623e-10 5.39386e-10)
(1.43571e-09 2.07673e-10 4.6473e-10)
(1.56096e-09 7.38198e-11 5.54422e-10)
(1.64909e-09 1.25014e-10 6.92772e-10)
(1.36921e-09 -1.63726e-10 1.16178e-09)
(9.11558e-10 1.0088e-10 1.75811e-09)
(1.02102e-10 1.49699e-09 3.24294e-09)
(1.47701e-10 1.1146e-10 2.78993e-10)
(8.61846e-10 -1.52161e-10 5.80754e-10)
(1.399e-09 -7.21161e-11 6.33973e-10)
(1.65786e-09 -1.9308e-10 7.89612e-10)
(1.89641e-09 -3.75309e-10 9.80333e-10)
(1.95023e-09 -1.51467e-10 1.0589e-09)
(2.68061e-09 -9.30256e-11 8.80642e-10)
(7.76477e-11 7.76942e-11 2.45756e-10)
(1.71429e-10 1.26338e-10 2.3875e-10)
(4.76388e-10 7.71322e-11 2.34325e-10)
(2.40673e-10 1.05526e-10 1.12798e-10)
(3.06441e-10 3.27266e-11 1.01102e-11)
(5.91343e-11 1.14697e-10 2.08599e-10)
(-6.34032e-11 1.31413e-10 4.37885e-10)
(-1.00267e-10 -6.47892e-11 1.06469e-09)
(-2.0918e-10 -3.68858e-10 2.98051e-09)
(9.54629e-11 9.01585e-11 1.9227e-10)
(2.76169e-10 1.82373e-10 2.65886e-10)
(6.11177e-10 1.04e-10 1.73013e-10)
(7.12452e-10 3.2959e-10 1.91612e-10)
(7.58091e-10 3.02416e-10 1.13339e-10)
(4.78032e-10 3.03957e-10 3.45133e-10)
(4.19419e-10 2.79656e-10 6.17087e-10)
(7.98114e-11 -9.77385e-11 1.08822e-09)
(-1.39894e-10 1.45396e-10 1.96924e-09)
(3.06555e-10 3.05519e-10 1.94753e-10)
(6.01206e-10 2.86921e-10 2.42028e-10)
(1.16082e-09 3.22617e-10 3.44833e-10)
(1.06506e-09 4.68642e-10 2.31122e-10)
(1.70819e-09 5.30376e-10 4.41263e-10)
(1.52509e-09 4.74604e-10 5.50635e-10)
(1.82955e-09 3.49098e-10 6.82429e-10)
(1.57864e-09 2.13269e-10 1.40649e-09)
(8.50183e-10 3.42076e-10 2.2035e-09)
(1.73067e-10 1.22126e-10 1.29659e-10)
(7.15835e-10 -3.26594e-11 2.0952e-10)
(1.52672e-09 1.32129e-10 1.04984e-10)
(2.2316e-09 3.27413e-10 2.30356e-10)
(3.02178e-09 5.08526e-10 2.91528e-10)
(2.79352e-09 1.31568e-10 7.3975e-10)
(3.18291e-09 2.13721e-10 8.42048e-10)
(2.82975e-09 1.27694e-10 1.11976e-09)
(3.17711e-09 -3.6984e-10 1.70118e-09)
)
;

boundaryField
{
    inlet
    {
        type            calculated;
        value           nonuniform List<vector> 
16
(
(-3.64232e-10 2.91859e-10 2.15372e-10)
(-2.04212e-11 4.16742e-10 1.36184e-10)
(4.81157e-10 6.73704e-10 2.03841e-10)
(3.11668e-10 3.82922e-10 2.24322e-10)
(-8.74685e-11 2.28598e-10 5.12423e-10)
(1.5902e-10 3.57614e-10 3.06664e-10)
(3.15996e-10 3.65689e-10 2.38669e-10)
(2.85764e-10 3.05245e-10 3.09846e-10)
(9.46682e-11 1.15153e-10 4.06212e-10)
(1.57911e-10 1.81873e-10 3.52482e-10)
(2.11797e-10 2.3721e-10 2.33934e-10)
(1.47701e-10 1.1146e-10 2.78993e-10)
(7.76477e-11 7.76942e-11 2.45756e-10)
(9.54629e-11 9.01585e-11 1.9227e-10)
(3.06555e-10 3.05519e-10 1.94753e-10)
(1.73067e-10 1.22126e-10 1.29659e-10)
)
;
    }
    outlet
    {
        type            calculated;
        value           nonuniform 0();
    }
    wall
    {
        type            calculated;
        value           nonuniform List<vector> 
66
(
(-3.64232e-10 2.91859e-10 2.15372e-10)
(-2.04212e-11 4.16742e-10 1.36184e-10)
(4.81157e-10 6.73704e-10 2.03841e-10)
(3.11668e-10 3.82922e-10 2.24322e-10)
(-4.40657e-10 6.0765e-10 5.47468e-10)
(3.00415e-10 9.33733e-10 4.67757e-10)
(7.03222e-10 6.566e-10 4.08928e-10)
(7.33356e-10 3.60594e-10 3.95399e-10)
(4.43753e-09 6.19771e-09 1.42818e-09)
(2.41866e-09 1.04884e-09 3.05159e-10)
(1.36368e-09 6.88328e-10 5.14495e-10)
(9.72462e-10 7.79492e-11 4.53154e-10)
(1.90733e-09 -5.42762e-10 -7.16541e-10)
(1.54938e-09 -1.11549e-09 3.96889e-11)
(1.08859e-09 -1.6119e-10 4.70095e-10)
(-8.84814e-10 4.61633e-11 -2.5116e-10)
(6.52313e-10 -8.50183e-10 1.688e-10)
(1.15486e-09 -4.66574e-10 5.35626e-10)
(-7.57385e-10 1.54144e-11 2.28773e-10)
(-1.69395e-10 -2.07822e-10 5.09899e-10)
(4.56632e-10 -5.04799e-11 8.00179e-10)
(-6.65214e-10 2.91803e-10 7.01993e-10)
(7.25008e-10 -2.99709e-10 9.67807e-10)
(1.01393e-09 -4.31444e-10 1.10943e-09)
(-7.17145e-10 3.16904e-10 -1.85724e-10)
(1.33877e-09 -3.34761e-10 1.62088e-09)
(1.27474e-09 -1.06117e-09 1.78804e-09)
(-5.03304e-10 -9.0991e-11 1.32831e-10)
(2.35493e-09 -2.7439e-09 3.65451e-09)
(2.11674e-09 -2.11182e-09 2.43392e-09)
(-3.64232e-10 2.91859e-10 2.15372e-10)
(-8.74685e-11 2.28598e-10 5.12423e-10)
(9.46682e-11 1.15153e-10 4.06212e-10)
(7.76477e-11 7.76942e-11 2.45756e-10)
(-4.40657e-10 6.0765e-10 5.47468e-10)
(1.50051e-10 4.37344e-10 9.95934e-10)
(2.2356e-10 1.80495e-10 5.53188e-10)
(1.71429e-10 1.26338e-10 2.3875e-10)
(4.43753e-09 6.19771e-09 1.42818e-09)
(1.40307e-09 3.91921e-10 1.32944e-09)
(7.3326e-10 1.16533e-10 5.65421e-10)
(4.76388e-10 7.71322e-11 2.34325e-10)
(1.90733e-09 -5.42762e-10 -7.16541e-10)
(1.86627e-09 -2.62554e-10 -1.13907e-09)
(6.19212e-10 5.5246e-11 -5.90605e-11)
(2.40673e-10 1.05526e-10 1.12798e-10)
(-8.84814e-10 4.61633e-11 -2.5116e-10)
(3.42472e-10 -1.78155e-10 -4.99447e-10)
(4.60214e-10 -3.5855e-12 -1.60713e-10)
(3.06441e-10 3.27266e-11 1.01102e-11)
(-7.57385e-10 1.54144e-11 2.28773e-10)
(-1.87587e-10 -4.92164e-11 1.07893e-10)
(1.32555e-10 1.34629e-10 2.5805e-10)
(5.91343e-11 1.14697e-10 2.08599e-10)
(-6.65214e-10 2.91803e-10 7.01993e-10)
(-3.89193e-10 -1.28825e-10 4.84171e-10)
(-1.26442e-10 -1.88789e-11 6.3569e-10)
(-6.34032e-11 1.31413e-10 4.37885e-10)
(-7.17145e-10 3.16904e-10 -1.85724e-10)
(5.34638e-11 6.21985e-11 -7.14583e-10)
(1.3875e-14 7.8103e-13 4.17353e-10)
(-1.00267e-10 -6.47892e-11 1.06469e-09)
(-5.03304e-10 -9.0991e-11 1.32831e-10)
(-1.81691e-09 -1.56465e-09 3.20693e-09)
(-1.46583e-09 -7.84288e-10 4.28439e-09)
(-2.0918e-10 -3.68858e-10 2.98051e-09)
)
;
    }
    procBoundary0to1
    {
        type            processor;
        value           nonuniform List<vector> 
12
(
(9.6464e-09 7.45252e-09 2.69798e-08)
(2.77643e-09 -5.27874e-09 1.17888e-08)
(3.59169e-09 -6.51294e-09 5.59578e-09)
(-6.43238e-09 4.85813e-09 1.80355e-08)
(-3.84457e-09 3.69881e-10 1.2583e-08)
(1.39687e-09 -1.50255e-09 4.45767e-09)
(-1.17319e-09 5.35177e-11 3.46441e-09)
(-7.81501e-10 4.23288e-10 5.08516e-09)
(1.78297e-09 3.97082e-10 3.14164e-09)
(3.18936e-11 9.97893e-11 2.17997e-09)
(2.03796e-10 1.90405e-10 2.39766e-09)
(1.65102e-09 3.70689e-10 2.14984e-09)
)
;
    }
    procBoundary0to2
    {
        type            processor;
        value           nonuniform List<vector> 
44
(
(1.09254e-09 -1.00783e-10 6.28005e-10)
(1.44128e-09 -2.81035e-10 7.52701e-10)
(1.32779e-09 -7.74558e-10 1.13155e-09)
(1.69752e-09 -1.00052e-09 1.43803e-09)
(2.18735e-09 -1.97126e-09 1.95931e-09)
(2.4458e-09 -2.62816e-09 2.04973e-09)
(3.11451e-09 -9.8599e-10 -4.21776e-11)
(5.09624e-10 -3.74447e-12 3.19608e-10)
(1.09254e-09 -1.00783e-10 6.28005e-10)
(8.52146e-10 -1.57316e-10 4.50833e-10)
(1.09254e-09 -1.00783e-10 6.28005e-10)
(1.44128e-09 -2.81035e-10 7.52701e-10)
(1.53108e-09 -4.98281e-10 1.18949e-09)
(1.5701e-09 -8.05263e-10 1.55244e-09)
(1.82553e-09 -1.20741e-09 1.90767e-09)
(2.20575e-09 -1.55514e-09 1.98709e-09)
(1.92255e-10 4.17229e-11 4.69344e-11)
(4.25871e-10 7.1288e-11 2.79688e-10)
(6.53747e-10 6.75801e-12 4.22074e-10)
(7.46447e-10 -2.24257e-10 5.76559e-10)
(1.53108e-09 -4.98281e-10 1.18949e-09)
(8.35119e-10 -5.11364e-10 6.89994e-10)
(1.53108e-09 -4.98281e-10 1.18949e-09)
(1.5701e-09 -8.05263e-10 1.55244e-09)
(2.65481e-09 -3.09798e-10 1.78391e-09)
(2.60648e-09 -4.38758e-10 1.77955e-09)
(1.48794e-10 -2.71707e-11 1.30652e-10)
(2.59168e-10 -6.22262e-11 3.19277e-10)
(6.95768e-10 -6.76806e-11 4.36689e-10)
(7.07953e-10 -2.22054e-10 6.68267e-10)
(9.01505e-10 -4.67644e-10 8.28724e-10)
(1.00859e-09 -4.74721e-10 8.63391e-10)
(2.65481e-09 -3.09798e-10 1.78391e-09)
(1.31415e-09 -5.97438e-10 1.00883e-09)
(2.65481e-09 -3.09798e-10 1.78391e-09)
(2.60648e-09 -4.38758e-10 1.77955e-09)
(1.41789e-10 3.54696e-11 6.32186e-11)
(4.37515e-10 -1.25248e-10 1.41481e-10)
(9.26017e-10 -2.39968e-10 3.66614e-10)
(9.67577e-10 -1.98422e-10 4.51038e-10)
(1.31889e-09 -1.63449e-10 7.46304e-10)
(1.82118e-09 -2.84518e-10 4.36946e-10)
(2.25577e-09 -2.08651e-10 8.92558e-10)
(2.46711e-09 -4.14934e-10 7.04268e-10)
)
;
    }
    procBoundary0to4
    {
        type            processor;
        value           nonuniform List<vector> 
36
(
(4.6939e-11 3.14533e-11 1.01283e-10)
(8.29025e-11 6.94314e-11 6.15394e-11)
(2.44798e-10 8.05337e-11 6.83503e-11)
(1.13739e-10 9.97071e-11 7.48238e-11)
(6.44575e-11 2.09237e-10 1.2389e-10)
(-1.24453e-10 1.07441e-10 1.73601e-10)
(-8.86485e-11 7.27395e-11 3.87315e-10)
(-4.31387e-10 9.47682e-11 7.04937e-10)
(-5.5528e-10 2.74206e-11 1.07877e-09)
(8.04913e-11 3.37065e-11 7.07611e-11)
(1.93691e-10 9.68173e-11 2.47072e-11)
(3.38997e-10 1.18226e-10 6.94229e-11)
(3.11379e-10 1.68422e-10 6.38218e-11)
(4.08085e-10 2.49715e-10 1.22863e-10)
(3.61258e-10 2.077e-10 2.2688e-10)
(1.84326e-10 1.87692e-10 5.02907e-10)
(-7.20298e-11 2.11987e-10 9.3195e-10)
(-4.15824e-10 2.66962e-10 1.58746e-09)
(1.38001e-10 8.45249e-11 7.70219e-11)
(4.04847e-10 2.46681e-10 1.12084e-10)
(6.28826e-10 2.14081e-10 2.06676e-10)
(8.41314e-10 2.93327e-10 6.38496e-11)
(9.63044e-10 3.5487e-10 2.77542e-10)
(1.19588e-09 3.33703e-10 3.1789e-10)
(1.08139e-09 3.19573e-10 5.57857e-10)
(8.89384e-10 2.4406e-10 9.97976e-10)
(1.43186e-09 -9.18683e-11 1.13382e-09)
(1.39524e-10 5.49669e-11 1.94195e-11)
(3.3952e-10 5.90931e-11 -4.07708e-11)
(7.80204e-10 2.54176e-11 -1.61214e-10)
(8.85114e-10 1.9884e-10 -2.44318e-10)
(1.60973e-09 2.48222e-10 2.52789e-10)
(1.96653e-09 3.02422e-10 3.42974e-10)
(1.86681e-09 2.77371e-10 4.96598e-10)
(1.9422e-09 1.05733e-10 2.48581e-10)
(2.18496e-09 5.91954e-11 7.63697e-10)
)
;
    }
    procBoundary0to6
    {
        type            processor;
        value           uniform (2.78318e-09 1.14795e-10 5.93687e-10);
    }
    procBoundary0to7
    {
        type            processor;
        value           uniform (3.19785e-09 3.35033e-11 1.31738e-09);
    }
}


// ************************************************************************* //
