/*--------------------------------*- C++ -*----------------------------------*\
| =========                 |                                                 |
| \\      /  F ield         | OpenFOAM: The Open Source CFD Toolbox           |
|  \\    /   O peration     | Version:  4.x                                   |
|   \\  /    A nd           | Web:      www.OpenFOAM.org                      |
|    \\/     M anipulation  |                                                 |
\*---------------------------------------------------------------------------*/
FoamFile
{
    version     2.0;
    format      ascii;
    class       surfaceScalarField;
    location    "21";
    object      phi;
}
// * * * * * * * * * * * * * * * * * * * * * * * * * * * * * * * * * * * * * //

dimensions      [0 3 -1 0 0 0 0];

internalField   nonuniform List<scalar> 
308
(
9.08776e-06
-2.68959e-07
-6.55538e-07
9.71818e-06
-1.98294e-07
-4.32122e-07
1.07628e-05
-3.34445e-07
-7.10182e-07
1.13216e-05
-1.6978e-07
-3.88998e-07
1.21457e-05
-2.60388e-07
-5.63771e-07
1.25794e-05
-1.13291e-07
-3.20329e-07
1.32741e-05
-2.05346e-07
-4.89348e-07
1.37289e-05
-1.28433e-07
-3.26385e-07
-1.45366e-07
-4.24444e-07
8.94229e-06
-3.00477e-07
-7.47506e-07
9.3789e-06
-2.13272e-07
-4.21632e-07
1.01891e-05
-3.67032e-07
-7.77567e-07
1.06269e-05
-2.09673e-07
-3.9797e-07
1.13203e-05
-2.89189e-07
-6.64544e-07
1.16621e-05
-1.36724e-07
-3.18393e-07
1.22844e-05
-2.50542e-07
-5.77092e-07
1.26007e-05
-1.68457e-07
-2.76282e-07
-2.45595e-07
-4.33012e-07
8.86661e-06
-2.12414e-07
-7.91407e-07
9.15986e-06
-1.12736e-07
-3.9379e-07
9.80003e-06
-2.02527e-07
-8.04668e-07
1.00801e-05
-3.64424e-07
1.06104e-05
-6.76371e-07
1.08477e-05
-2.90327e-07
1.12543e-05
-5.38947e-07
1.13039e-05
-1.73227e-07
-3.53056e-07
8.85225e-06
-8.45257e-07
9.18443e-06
-4.3269e-07
-8.6574e-07
8.63432e-06
-3.47585e-07
-7.79004e-07
8.86326e-06
-1.70104e-07
-4.90958e-07
9.33245e-06
-3.6134e-07
-8.1804e-07
9.56191e-06
-1.57743e-07
-4.60713e-07
9.9826e-06
-3.21243e-07
-6.63216e-07
1.01902e-05
-1.11026e-07
-4.1688e-07
1.05396e-05
-2.6874e-07
-5.70008e-07
1.07123e-05
-5.73579e-08
-4.41739e-07
-2.00868e-07
-4.90824e-07
8.32348e-06
-3.7322e-07
-8.82089e-07
8.38621e-06
-1.68012e-07
-4.86454e-07
8.53079e-06
-3.83417e-07
-9.00067e-07
8.54315e-06
-1.55091e-07
-4.12979e-07
8.61179e-06
-3.4127e-07
-7.13164e-07
8.63372e-06
-1.09894e-07
-3.41451e-07
8.69456e-06
-2.91915e-07
-6.14755e-07
8.74067e-06
-7.48285e-08
-3.04921e-07
-2.99714e-07
-4.3912e-07
8.09835e-06
-2.0837e-07
-8.91347e-07
8.08929e-06
-9.36554e-08
-4.59086e-07
8.02776e-06
-2.10249e-07
-9.16296e-07
7.9499e-06
-8.07791e-08
-3.60879e-07
7.76731e-06
-1.50417e-07
-6.84637e-07
7.66342e-06
-2.46078e-07
7.40182e-06
-4.66031e-07
7.33993e-06
-1.65361e-07
-1.99981e-07
8.03842e-06
-9.46599e-07
8.03618e-06
-5.10617e-07
7.92576e-06
-9.88766e-07
7.79622e-06
-3.59998e-07
-7.30232e-07
8.36585e-06
-4.03272e-07
-5.78317e-07
8.45176e-06
-1.95708e-07
-3.81163e-07
8.68522e-06
-4.4609e-07
-6.05409e-07
8.7778e-06
-1.79976e-07
-3.73314e-07
8.99227e-06
-3.83369e-07
-4.94314e-07
9.04926e-06
-1.18231e-07
-3.55642e-07
9.1833e-06
-2.86717e-07
-4.17333e-07
9.22015e-06
-8.94075e-08
-3.89182e-07
-1.77927e-07
-3.62138e-07
7.98816e-06
-4.41447e-07
-6.68807e-07
7.89902e-06
-2.12297e-07
-3.8073e-07
7.72739e-06
-4.94553e-07
-6.79975e-07
7.60467e-06
-1.68082e-07
-3.02153e-07
7.39002e-06
-3.87712e-07
-4.94172e-07
7.27682e-06
-9.69274e-08
-2.49557e-07
7.02875e-06
-2.55861e-07
-3.97536e-07
6.93587e-06
-7.46573e-08
-2.26787e-07
-1.75959e-07
-2.91207e-07
7.68172e-06
-2.14815e-07
-6.36435e-07
7.4668e-06
-1.01668e-07
-3.54794e-07
6.88504e-06
-2.22459e-07
-6.06635e-07
6.64998e-06
-6.61862e-08
-2.27715e-07
6.10981e-06
-1.49678e-07
-3.82493e-07
5.95184e-06
-3.88214e-08
-1.46223e-07
5.56974e-06
-9.30344e-08
-2.46758e-07
5.45365e-06
-1.07423e-07
-3.61581e-08
7.56323e-06
-6.48066e-07
7.30486e-06
-3.83788e-07
6.65834e-06
-6.5532e-07
6.44246e-06
-2.33485e-07
5.92462e-06
-4.43797e-07
5.80083e-06
-1.60824e-07
-3.26342e-07
8.41379e-06
-4.39989e-07
8.53687e-06
-2.29663e-07
8.81657e-06
-4.58016e-07
8.92073e-06
-1.82174e-07
9.12796e-06
-3.55531e-07
9.21466e-06
-1.50637e-07
9.42565e-06
-2.96791e-07
9.50441e-06
-1.20403e-07
-2.26488e-07
7.88835e-06
-4.21935e-07
7.7445e-06
-2.23425e-07
7.49937e-06
-4.5472e-07
7.39785e-06
-1.65969e-07
7.21941e-06
-3.32385e-07
7.12493e-06
-1.28188e-07
6.94947e-06
-2.38978e-07
6.90787e-06
-1.29717e-07
-2.44014e-07
7.74462e-06
-2.29992e-07
7.513e-06
-1.10616e-07
7.04168e-06
-2.12194e-07
6.86927e-06
-6.22775e-08
6.51665e-06
-1.24102e-07
6.39878e-06
-4.40165e-08
6.18143e-06
-8.79483e-08
6.07819e-06
-4.6876e-08
-7.73902e-08
7.64905e-06
7.33925e-06
6.73229e-06
6.559e-06
6.17603e-06
6.03524e-06
5.76837e-06
5.6307e-06
)
;

boundaryField
{
    inlet
    {
        type            calculated;
        value           nonuniform List<scalar> 
16
(
-8.16327e-06
-8.16327e-06
-8.16327e-06
-8.16327e-06
-8.16327e-06
-8.16327e-06
-8.16327e-06
-8.16327e-06
-8.16327e-06
-8.16327e-06
-8.16327e-06
-8.16327e-06
-8.16327e-06
-8.16327e-06
-8.16327e-06
-8.16327e-06
)
;
    }
    outlet
    {
        type            calculated;
        value           nonuniform 0();
    }
    wall
    {
        type            calculated;
        value           nonuniform List<scalar> 
66
(
0
0
0
0
0
0
0
0
0
0
0
0
0
0
0
0
0
0
0
0
0
0
0
0
0
0
0
0
0
0
0
0
0
0
0
0
0
0
0
0
0
0
0
0
0
0
0
0
0
0
0
0
0
4.93038e-32
0
0
0
0
0
0
0
0
0
0
0
0
)
;
    }
    procBoundary0to1
    {
        type            processor;
        value           nonuniform List<scalar> 
12
(
1.42987e-05
1.31339e-05
1.14826e-05
1.09795e-05
8.84562e-06
6.94681e-06
9.26939e-06
6.78598e-06
5.17772e-06
9.62149e-06
6.80505e-06
5.86474e-06
)
;
    }
    procBoundary0to2
    {
        type            processor;
        value           nonuniform List<scalar> 
44
(
-1.25321e-07
-1.43141e-07
-8.37147e-08
-1.18158e-07
-4.48032e-08
-7.1264e-08
-5.61367e-08
-1.22296e-08
9.84166e-06
5.98219e-09
3.85572e-07
7.53932e-07
-5.02536e-08
-1.03223e-07
-2.08112e-08
-5.96691e-08
1.78173e-08
-1.34913e-08
2.31998e-08
2.31912e-08
7.53632e-06
8.57759e-08
2.53032e-07
5.42671e-07
-1.65003e-08
-6.38497e-08
8.66845e-08
2.98753e-08
9.06142e-08
2.31858e-08
8.17292e-08
-7.24129e-09
5.49908e-06
-7.61412e-09
1.04113e-07
1.47834e-07
4.3131e-08
4.9562e-08
1.21643e-07
6.00984e-08
1.19853e-07
6.01762e-08
8.53741e-08
6.41475e-08
)
;
    }
    procBoundary0to4
    {
        type            processor;
        value           nonuniform List<scalar> 
36
(
-3.88854e-07
-2.74574e-07
-4.27092e-07
-2.95306e-07
-3.46011e-07
-2.91702e-07
-3.31536e-07
-3.47539e-07
-2.52725e-07
-4.11944e-07
-2.43118e-07
-4.38144e-07
-2.16839e-07
-3.38872e-07
-1.77532e-07
-2.79887e-07
-1.75868e-07
-1.70862e-07
-4.09729e-07
-2.35987e-07
-3.77837e-07
-1.59003e-07
-2.38152e-07
-1.12526e-07
-1.8043e-07
-8.70257e-08
1.06626e-08
-4.06975e-07
-2.34162e-07
-3.82202e-07
-1.82565e-07
-3.04785e-07
-1.24226e-07
-2.32795e-07
-7.74635e-08
-3.926e-08
)
;
    }
    procBoundary0to6
    {
        type            processor;
        value           uniform 1.49643e-07;
    }
    procBoundary0to7
    {
        type            processor;
        value           uniform 5.29509e-06;
    }
}


// ************************************************************************* //
