/*--------------------------------*- C++ -*----------------------------------*\
| =========                 |                                                 |
| \\      /  F ield         | OpenFOAM: The Open Source CFD Toolbox           |
|  \\    /   O peration     | Version:  4.x                                   |
|   \\  /    A nd           | Web:      www.OpenFOAM.org                      |
|    \\/     M anipulation  |                                                 |
\*---------------------------------------------------------------------------*/
FoamFile
{
    version     2.0;
    format      ascii;
    class       volScalarField;
    location    "21";
    object      QWallFluid;
}
// * * * * * * * * * * * * * * * * * * * * * * * * * * * * * * * * * * * * * //

dimensions      [1 -1 -3 0 0 0 0];

internalField   nonuniform List<scalar> 
132
(
1.6719e+09
1.0043e+09
1.81859e+09
1.25541e+09
1.94924e+09
1.43673e+09
2.05752e+09
1.57824e+09
2.17385e+09
8.38655e+08
4.81171e+08
8.9069e+08
5.78447e+08
9.43782e+08
6.5501e+08
9.88336e+08
7.18906e+08
1.03215e+09
0
4.66647e+08
8.78338e+08
5.43385e+08
9.14474e+08
6.01346e+08
9.48057e+08
6.40529e+08
9.63415e+08
8.39988e+08
4.67603e+08
8.80137e+08
8.28724e+08
4.55291e+08
8.57774e+08
5.10616e+08
8.87702e+08
5.55678e+08
9.17911e+08
5.88971e+08
9.46541e+08
0
0
0
0
0
0
0
0
0
0
0
0
0
0
0
0
0
0
0
0
0
0
0
8.17259e+08
4.3149e+08
8.30203e+08
4.57087e+08
8.45514e+08
4.77127e+08
8.5922e+08
4.84233e+08
8.73137e+08
0
0
0
0
0
0
0
0
0
0
0
0
0
0
0
0
0
0
0
0
0
0
0
0
0
8.13511e+08
4.41561e+08
8.30661e+08
4.73086e+08
8.47324e+08
4.92321e+08
8.64439e+08
5.09388e+08
8.82893e+08
0
0
0
0
0
0
0
0
0
0
0
0
0
0
0
0
0
0
0
0
0
0
0
0
0
0
0
)
;

boundaryField
{
    inlet
    {
        type            calculated;
        value           uniform 0;
    }
    outlet
    {
        type            calculated;
        value           nonuniform 0();
    }
    wall
    {
        type            calculated;
        value           uniform 0;
    }
    procBoundary0to1
    {
        type            processor;
        value           nonuniform List<scalar> 
12
(
1.68339e+09
7.68342e+08
6.49496e+08
6.08869e+08
0
0
4.77406e+08
0
0
5.11204e+08
0
0
)
;
    }
    procBoundary0to2
    {
        type            processor;
        value           nonuniform List<scalar> 
44
(
5.46433e+08
9.1403e+08
6.13347e+08
9.51218e+08
6.64096e+08
9.8896e+08
8.26641e+08
4.50417e+08
5.46433e+08
8.60835e+08
5.46433e+08
9.1403e+08
0
0
0
0
0
0
0
0
0
0
0
0
0
0
0
0
0
0
0
0
0
0
0
0
0
0
0
0
0
0
0
0
)
;
    }
    procBoundary0to4
    {
        type            processor;
        value           nonuniform List<scalar> 
36
(
8.09632e+08
4.34024e+08
8.16182e+08
4.49003e+08
8.24204e+08
4.55504e+08
8.28839e+08
4.49027e+08
8.31043e+08
0
0
0
0
0
0
0
0
0
0
0
0
0
0
0
0
0
0
0
0
0
0
0
0
0
0
0
)
;
    }
    procBoundary0to6
    {
        type            processor;
        value           uniform 0;
    }
    procBoundary0to7
    {
        type            processor;
        value           uniform 0;
    }
}


// ************************************************************************* //
