/*--------------------------------*- C++ -*----------------------------------*\
| =========                 |                                                 |
| \\      /  F ield         | OpenFOAM: The Open Source CFD Toolbox           |
|  \\    /   O peration     | Version:  4.x                                   |
|   \\  /    A nd           | Web:      www.OpenFOAM.org                      |
|    \\/     M anipulation  |                                                 |
\*---------------------------------------------------------------------------*/
FoamFile
{
    version     2.0;
    format      ascii;
    class       volVectorField;
    location    "21";
    object      Urel;
}
// * * * * * * * * * * * * * * * * * * * * * * * * * * * * * * * * * * * * * //

dimensions      [0 1 -1 0 0 0 0];

internalField   nonuniform List<vector> 
132
(
(-0.0237386 0.000506223 0.00125119)
(-0.022341 0.000480503 0.00118832)
(-0.0236606 0.000486045 0.00118332)
(-0.023072 0.000430799 0.00107296)
(-0.0245919 0.000406651 0.00101766)
(-0.0241684 0.000341057 0.000893953)
(-0.0256188 0.000309357 0.000829)
(-0.0251639 0.000242959 0.000696377)
(-0.0265146 0.000181587 0.000589196)
(-0.0236373 0.000496454 0.00128257)
(-0.0221304 0.000466793 0.00120184)
(-0.0233745 0.000482105 0.00120362)
(-0.0226164 0.000421989 0.00108862)
(-0.0240778 0.000408304 0.00104293)
(-0.0234813 0.000341549 0.000906123)
(-0.0249069 0.000334198 0.000840941)
(-0.0242921 0.000284228 0.000682975)
(-0.0256268 0.000257786 0.000573198)
(-0.0235136 0.000365521 0.00130133)
(-0.0219132 0.00033631 0.00120435)
(-0.0230756 0.00034843 0.00120584)
(-0.0221525 0.000306019 0.00108265)
(-0.0235307 0.000290664 0.00104126)
(-0.0227477 0.000245162 0.000898475)
(-0.0241179 0.000240247 0.000829875)
(-0.0233079 0.000202207 0.00065315)
(-0.0246018 0.000192223 0.000553797)
(-0.0234443 0.000151712 0.00130899)
(-0.021818 0.000127257 0.00120765)
(-0.0229426 0.000123243 0.00121277)
(-0.0235266 0.000543363 0.0013499)
(-0.0219465 0.000501097 0.00125632)
(-0.0231131 0.00051179 0.00128016)
(-0.0221816 0.000451701 0.00113771)
(-0.0235861 0.000436965 0.00110271)
(-0.0227956 0.000362729 0.000962153)
(-0.024204 0.000338353 0.000914426)
(-0.023386 0.00026105 0.000773187)
(-0.024764 0.000216068 0.000668848)
(-0.0234005 0.000530216 0.00138408)
(-0.0216749 0.000477111 0.00126684)
(-0.0227607 0.000497999 0.00129847)
(-0.0216022 0.00042704 0.00113654)
(-0.0229616 0.000425569 0.00111087)
(-0.0219006 0.000347539 0.000943532)
(-0.0233316 0.000348315 0.00090138)
(-0.0222243 0.000275419 0.00072271)
(-0.0236792 0.000276027 0.000614484)
(-0.0232456 0.000383474 0.00140649)
(-0.0214138 0.000338776 0.00127203)
(-0.0224127 0.000354388 0.00130886)
(-0.0210602 0.000299994 0.0011282)
(-0.0223582 0.000297513 0.00110428)
(-0.021058 0.000241228 0.000916409)
(-0.0224802 0.000241239 0.000862197)
(-0.0210862 0.000192742 0.000664118)
(-0.022586 0.000195357 0.000544919)
(-0.0231686 0.000133868 0.0014156)
(-0.0213112 0.000118216 0.00127958)
(-0.0222586 0.000114738 0.00131628)
(-0.020848 9.33411e-05 0.0011262)
(-0.0221044 8.22174e-05 0.0011088)
(-0.0232966 0.000587994 0.00120416)
(-0.0215708 0.000536854 0.00112245)
(-0.0225757 0.00054971 0.00113481)
(-0.0213751 0.000479176 0.00101411)
(-0.0226358 0.000467185 0.000973084)
(-0.0215462 0.000387893 0.000856004)
(-0.0228705 0.000372771 0.000795934)
(-0.02176 0.000296594 0.000682525)
(-0.023108 0.000265711 0.000572051)
(-0.0231402 0.000573442 0.00123372)
(-0.0212473 0.000509705 0.00113228)
(-0.0221643 0.000538055 0.00114621)
(-0.0206896 0.000450053 0.000995128)
(-0.0219261 0.000450633 0.000955529)
(-0.0205119 0.000359911 0.000815024)
(-0.0219021 0.000359249 0.000758284)
(-0.0204244 0.000286241 0.000608714)
(-0.0219266 0.000277126 0.000492146)
(-0.0229599 0.00040739 0.00123775)
(-0.0209402 0.000358562 0.00112879)
(-0.0217551 0.000377055 0.00113604)
(-0.0200349 0.000305842 0.000966215)
(-0.021244 0.000305025 0.000917121)
(-0.0195343 0.000239332 0.000757398)
(-0.0209888 0.000236295 0.000681674)
(-0.0191983 0.000187164 0.000524001)
(-0.0208178 0.000181506 0.000384942)
(-0.0228789 0.000119471 0.00124779)
(-0.0208134 0.000105021 0.00113606)
(-0.0215861 9.90002e-05 0.00114395)
(-0.0197852 8.28511e-05 0.0009613)
(-0.0209793 7.38559e-05 0.00091601)
(-0.0191905 7.00631e-05 0.000750097)
(-0.0206565 6.70409e-05 0.000682712)
(-0.0231563 0.000636091 0.000943048)
(-0.0214017 0.000578683 0.000888298)
(-0.0223104 0.000591947 0.000895378)
(-0.0210212 0.000509751 0.000810517)
(-0.02217 0.0004964 0.000772933)
(-0.0209869 0.000420743 0.000692052)
(-0.0222165 0.000409712 0.000640571)
(-0.0210351 0.000338269 0.000558192)
(-0.0223294 0.000322379 0.00045437)
(-0.0229773 0.000601379 0.000959371)
(-0.0210265 0.000535005 0.000887267)
(-0.0218416 0.000555126 0.000895073)
(-0.0202317 0.000460922 0.000782552)
(-0.0213825 0.0004537 0.000744347)
(-0.0198452 0.000370661 0.000639484)
(-0.021176 0.000364212 0.000585928)
(-0.0195925 0.000302673 0.000477543)
(-0.0210695 0.000299287 0.000375072)
(-0.0227891 0.000417751 0.000957938)
(-0.0207339 0.000371288 0.000878945)
(-0.021438 0.000383608 0.000870582)
(-0.0196284 0.000313588 0.000749235)
(-0.0207292 0.000306094 0.000698075)
(-0.0189727 0.000249233 0.000588533)
(-0.0203195 0.000238488 0.000521597)
(-0.0185292 0.000204059 0.00040476)
(-0.0200419 0.000200142 0.000282752)
(-0.0227111 0.000127703 0.000957225)
(-0.0205993 0.000103788 0.000879245)
(-0.0212604 9.64754e-05 0.000870781)
(-0.0193569 7.7825e-05 0.000748777)
(-0.0204444 7.06931e-05 0.000703612)
(-0.0185956 6.18282e-05 0.0005836)
(-0.0199548 6.03045e-05 0.000516917)
(-0.018069 4.66388e-05 0.000390944)
(-0.0195917 3.19561e-05 0.00027507)
)
;

boundaryField
{
    inlet
    {
        type            calculated;
        value           nonuniform List<vector> 
16
(
(-0.00999993 -4.19555e-08 1.53169e-07)
(-0.01 -9.61799e-09 6.51112e-09)
(-0.01 8.97105e-09 -2.32733e-08)
(-0.01 -2.18171e-10 -3.68365e-09)
(-0.01 8.03626e-09 1.96604e-08)
(-0.01 3.70637e-10 -2.99552e-09)
(-0.01 -1.11171e-09 -4.90731e-09)
(-0.01 -3.78019e-09 -3.38855e-09)
(-0.01 -8.576e-10 1.14639e-08)
(-0.00999999 -2.73208e-09 3.55953e-09)
(-0.00999999 -5.13641e-09 -4.49114e-09)
(-0.01 -6.19653e-09 -1.25072e-10)
(-0.01 -2.33746e-09 5.32876e-09)
(-0.01 7.36926e-09 3.05552e-09)
(-0.00999999 -6.58797e-09 1.44476e-09)
(-0.00999999 -8.53979e-09 5.63646e-09)
)
;
    }
    outlet
    {
        type            calculated;
        value           nonuniform 0();
    }
    wall
    {
        type            calculated;
        value           nonuniform List<vector> 
66
(
(6.90225e-08 -4.19555e-08 1.53169e-07)
(4.81641e-09 -9.61799e-09 6.51112e-09)
(-1.15179e-08 8.97105e-09 -2.32733e-08)
(3.59004e-09 -2.18171e-10 -3.68365e-09)
(7.86228e-08 5.64615e-09 1.06823e-07)
(-1.4378e-08 2.65066e-08 4.11883e-08)
(-2.24985e-08 2.95915e-09 -1.31363e-08)
(-1.00781e-08 4.80737e-09 -9.20249e-09)
(-2.57267e-09 -3.50719e-08 3.57461e-08)
(-8.31357e-10 -6.95637e-10 -3.66435e-08)
(-2.6735e-08 -2.34446e-09 -2.39809e-08)
(-2.30694e-08 1.09346e-09 -8.59766e-09)
(-3.16731e-08 -3.02434e-09 2.41783e-09)
(-3.55657e-08 -8.91809e-09 -1.6875e-08)
(-3.87931e-08 -9.28947e-09 -1.80367e-08)
(-4.54649e-08 -1.19288e-08 1.74496e-09)
(-4.80382e-08 -1.62693e-08 -1.39657e-08)
(-5.302e-08 -1.56461e-08 -2.19495e-08)
(-5.85805e-08 -6.65087e-09 -8.78821e-09)
(-6.68095e-08 -1.55617e-08 -1.62176e-08)
(-7.68185e-08 -1.98452e-08 -1.70259e-08)
(-6.3433e-08 -6.23568e-09 -1.88803e-09)
(-9.16529e-08 -5.85822e-09 -6.10323e-09)
(-9.33449e-08 -9.32095e-09 -1.1559e-08)
(-7.6577e-08 2.1338e-09 -2.96861e-09)
(-1.04011e-07 1.37295e-09 -3.71911e-09)
(-1.0463e-07 -2.90088e-09 -5.75584e-09)
(-8.75764e-08 2.19925e-08 -1.29884e-08)
(-1.06784e-07 7.17016e-09 3.98212e-09)
(-1.26859e-07 1.20722e-08 -2.14226e-09)
(6.90225e-08 -4.19555e-08 1.53169e-07)
(-4.2602e-09 8.03626e-09 1.96604e-08)
(3.08922e-09 -8.576e-10 1.14639e-08)
(2.12511e-09 -2.33746e-09 5.32876e-09)
(7.86228e-08 5.64615e-09 1.06823e-07)
(-4.65144e-09 -5.03118e-09 1.53207e-08)
(-1.03818e-09 -3.61716e-09 8.66844e-09)
(-9.56992e-10 -2.21565e-09 3.58956e-09)
(-2.57267e-09 -3.50719e-08 3.57461e-08)
(-1.71464e-08 -1.22761e-09 1.0418e-08)
(-8.42453e-09 -6.29727e-09 2.38351e-09)
(8.01491e-09 -1.92628e-09 -1.80852e-09)
(-3.16731e-08 -3.02434e-09 2.41783e-09)
(-2.77217e-08 -2.53557e-10 -2.00069e-09)
(-1.91288e-08 1.3237e-09 -4.08444e-09)
(2.96501e-09 -7.50047e-09 -6.70642e-09)
(-4.54649e-08 -1.19288e-08 1.74496e-09)
(-4.31587e-08 -1.38201e-09 3.04206e-10)
(-2.02588e-08 -2.57771e-09 -4.24997e-09)
(-7.97411e-09 -7.39282e-09 -1.27255e-08)
(-5.85805e-08 -6.65087e-09 -8.78821e-09)
(-4.92305e-08 -9.47826e-09 -6.52643e-09)
(-4.48205e-08 -2.79543e-08 -1.66303e-08)
(-4.14582e-08 -8.67988e-09 -8.53129e-09)
(-6.3433e-08 -6.23568e-09 -1.88803e-09)
(-6.52703e-08 6.48008e-09 -4.61079e-09)
(-5.70215e-08 -1.12527e-08 -3.54919e-09)
(-5.59967e-08 -4.69681e-09 1.626e-08)
(-7.6577e-08 2.1338e-09 -2.96861e-09)
(-8.59818e-08 -2.64285e-09 -5.98451e-09)
(-6.64763e-08 -3.43219e-09 -6.24893e-09)
(-8.05592e-08 4.6376e-10 -3.46965e-09)
(-8.75764e-08 2.19925e-08 -1.29884e-08)
(-8.6169e-08 -7.71129e-09 6.94553e-09)
(-8.57954e-08 -1.86761e-09 2.12755e-09)
(-8.8272e-08 2.16096e-09 -3.86041e-09)
)
;
    }
    procBoundary0to1
    {
        type            processor;
        value           nonuniform List<vector> 
12
(
(-0.0259834 8.92425e-05 0.000401594)
(-0.0249396 0.000187442 0.000372165)
(-0.0236751 0.000146318 0.000350516)
(-0.0238777 0.000132757 0.000499017)
(-0.0224929 0.000203031 0.000416141)
(-0.021029 0.000140011 0.000348556)
(-0.0219409 0.000192743 0.000431788)
(-0.020382 0.000217282 0.000329051)
(-0.0189484 0.000131194 0.00023667)
(-0.0211027 0.000270798 0.000334995)
(-0.0194314 0.00025536 0.00024525)
(-0.0181979 0.000172035 0.000169434)
)
;
    }
    procBoundary0to2
    {
        type            processor;
        value           nonuniform List<vector> 
44
(
(-0.0219747 0.000106065 0.00108552)
(-0.023312 9.66433e-05 0.0010529)
(-0.0224888 9.2522e-05 0.000904381)
(-0.0238309 9.04716e-05 0.000837763)
(-0.0230079 7.61027e-05 0.000667269)
(-0.0243015 5.9351e-05 0.00056389)
(-0.023444 -0.000104518 0.0012631)
(-0.021817 -9.8201e-05 0.00118126)
(-0.0219747 0.000106065 0.00108552)
(-0.0229407 -0.000113708 0.00118371)
(-0.0219747 0.000106065 0.00108552)
(-0.023312 9.66433e-05 0.0010529)
(-0.0207378 7.74524e-05 0.000914203)
(-0.022145 7.35885e-05 0.000865332)
(-0.0207082 6.27154e-05 0.000666789)
(-0.0222019 4.10786e-05 0.000552004)
(-0.0232053 -0.000138298 0.00136877)
(-0.0213712 -0.000118167 0.00124867)
(-0.0223307 -0.000136585 0.00128195)
(-0.0209491 -0.000121437 0.00110588)
(-0.0207378 7.74524e-05 0.000914203)
(-0.0222223 -0.000128101 0.00108348)
(-0.0207378 7.74524e-05 0.000914203)
(-0.022145 7.35885e-05 0.000865332)
(-0.0187987 5.57912e-05 0.000515829)
(-0.0204337 4.70796e-05 0.000393516)
(-0.0229405 -0.000179343 0.0012291)
(-0.0209342 -0.000150891 0.00111564)
(-0.0217189 -0.000168965 0.00111855)
(-0.0200237 -0.000137755 0.000956885)
(-0.0211927 -0.000143432 0.000911874)
(-0.0195352 -9.75714e-05 0.000758234)
(-0.0187987 5.57912e-05 0.000515829)
(-0.020932 -8.43489e-05 0.000690064)
(-0.0187987 5.57912e-05 0.000515829)
(-0.0204337 4.70796e-05 0.000393516)
(-0.0227615 -0.000192923 0.000972351)
(-0.020685 -0.000173231 0.000877142)
(-0.021378 -0.000191553 0.000880892)
(-0.0195543 -0.000152437 0.000760504)
(-0.0206485 -0.000156478 0.000722361)
(-0.0188876 -0.000119252 0.000598048)
(-0.0202249 -0.000116875 0.00052959)
(-0.0184238 -9.66037e-05 0.000419304)
)
;
    }
    procBoundary0to4
    {
        type            processor;
        value           nonuniform List<vector> 
36
(
(-0.0231261 0.000657225 0.00061052)
(-0.0213542 0.000597094 0.00058284)
(-0.0222137 0.000613687 0.000587749)
(-0.0208652 0.000528723 0.000547668)
(-0.0219629 0.000514432 0.000516585)
(-0.0207152 0.000433409 0.0004728)
(-0.0219047 0.000424026 0.000430224)
(-0.0206487 0.000368267 0.000372441)
(-0.0219212 0.000365587 0.000269612)
(-0.0229358 0.000625784 0.000602302)
(-0.0209616 0.000552606 0.000567312)
(-0.021723 0.000572485 0.000566963)
(-0.0200345 0.000471802 0.000513392)
(-0.0211606 0.000463756 0.000485132)
(-0.0195239 0.000376777 0.000421814)
(-0.0208531 0.000372565 0.000376743)
(-0.019166 0.000311564 0.000296593)
(-0.0206709 0.000305905 0.000195158)
(-0.0227538 0.000426722 0.000600238)
(-0.0206555 0.000379747 0.000558466)
(-0.0213169 0.000387467 0.000549313)
(-0.0194409 0.000323041 0.000483601)
(-0.0205219 0.000318441 0.000446773)
(-0.0186965 0.000258509 0.000375429)
(-0.0200326 0.000246236 0.000320201)
(-0.0181561 0.000204682 0.000233522)
(-0.0197 0.000191058 0.000127109)
(-0.0226662 0.000138582 0.000604056)
(-0.0205251 0.000108071 0.000554627)
(-0.0211339 0.00011366 0.000547286)
(-0.0191853 9.65963e-05 0.000483655)
(-0.0202256 0.0001003 0.000448528)
(-0.0183058 7.95697e-05 0.000368575)
(-0.0196417 7.07307e-05 0.000315993)
(-0.017683 6.05748e-05 0.000224716)
(-0.019242 3.85215e-05 0.000126808)
)
;
    }
    procBoundary0to6
    {
        type            processor;
        value           uniform (-0.0199411 -0.000112533 0.000289928);
    }
    procBoundary0to7
    {
        type            processor;
        value           uniform (-0.0176638 2.60879e-05 0.000159725);
    }
}


// ************************************************************************* //
