/*--------------------------------*- C++ -*----------------------------------*\
| =========                 |                                                 |
| \\      /  F ield         | OpenFOAM: The Open Source CFD Toolbox           |
|  \\    /   O peration     | Version:  4.x                                   |
|   \\  /    A nd           | Web:      www.OpenFOAM.org                      |
|    \\/     M anipulation  |                                                 |
\*---------------------------------------------------------------------------*/
FoamFile
{
    version     2.0;
    format      ascii;
    class       volScalarField;
    location    "24.5";
    object      Cs;
}
// * * * * * * * * * * * * * * * * * * * * * * * * * * * * * * * * * * * * * //

dimensions      [1 -3 0 0 0 0 0];

internalField   nonuniform List<scalar> 
87
(
334.991
334.99
334.99
334.989
334.988
334.987
334.984
334.982
338.717
334.998
334.997
334.995
334.993
334.99
334.986
334.976
334.97
334.317
334.998
334.996
334.994
334.99
334.984
334.973
334.955
334.931
334.84
334.998
334.996
334.994
334.99
334.985
334.98
334.968
334.962
334.205
334.993
334.987
334.977
334.968
334.951
334.944
334.921
334.922
334.684
334.987
334.976
334.958
334.938
334.914
334.903
334.89
334.894
334.877
334.997
334.994
334.99
334.985
334.976
334.967
334.95
334.94
334.527
334.986
334.969
334.943
334.913
334.884
334.869
334.866
334.875
334.844
334.978
334.964
334.95
334.937
334.928
334.921
334.93
334.926
334.973
334.998
334.997
334.995
334.993
334.989
334.989
)
;

boundaryField
{
    inlet
    {
        type            calculated;
        value           nonuniform 0();
    }
    outlet
    {
        type            calculated;
        value           uniform 335;
    }
    wall
    {
        type            calculated;
        value           nonuniform List<scalar> 
57
(
334.991
334.998
334.998
334.99
334.997
334.996
334.99
334.995
334.994
334.989
334.993
334.99
334.988
334.99
334.984
334.987
334.986
334.973
334.984
334.976
334.955
334.982
334.97
334.931
338.717
334.317
334.84
334.991
334.998
334.997
334.998
334.99
334.996
334.994
334.997
334.99
334.994
334.99
334.995
334.989
334.99
334.985
334.988
334.985
334.976
334.987
334.98
334.967
334.984
334.968
334.95
334.982
334.962
334.94
338.717
334.205
334.527
)
;
    }
    procBoundary1to0
    {
        type            processor;
        value           nonuniform List<scalar> 
12
(
334.993
334.999
334.999
334.999
334.996
334.994
334.999
334.994
334.989
334.999
334.997
334.995
)
;
    }
    procBoundary1to3
    {
        type            processor;
        value           nonuniform List<scalar> 
27
(
334.998
334.996
334.994
334.992
334.986
334.98
334.966
334.953
335.947
334.987
334.976
334.957
334.935
334.908
334.893
334.875
334.88
334.839
334.975
334.957
334.936
334.917
334.902
334.893
334.896
334.898
334.943
)
;
    }
    procBoundary1to5
    {
        type            processor;
        value           nonuniform List<scalar> 
32
(
334.993
334.988
334.983
334.975
334.962
334.672
334.983
334.973
334.965
334.95
334.946
334.933
334.943
334.982
334.973
334.962
334.955
334.949
334.952
334.953
335.021
334.998
334.997
334.993
334.983
334.995
334.992
334.983
334.982
334.986
334.982
334.989
)
;
    }
    procBoundary1to7
    {
        type            processor;
        value           uniform 334.987;
    }
}


// ************************************************************************* //
