/*--------------------------------*- C++ -*----------------------------------*\
| =========                 |                                                 |
| \\      /  F ield         | OpenFOAM: The Open Source CFD Toolbox           |
|  \\    /   O peration     | Version:  4.x                                   |
|   \\  /    A nd           | Web:      www.OpenFOAM.org                      |
|    \\/     M anipulation  |                                                 |
\*---------------------------------------------------------------------------*/
FoamFile
{
    version     2.0;
    format      ascii;
    class       volVectorField;
    location    "24.5";
    object      DDtUrel;
}
// * * * * * * * * * * * * * * * * * * * * * * * * * * * * * * * * * * * * * //

dimensions      [0 1 -2 0 0 0 0];

internalField   nonuniform List<vector> 
87
(
(0.000285463 4.69472e-05 5.09066e-05)
(0.000197022 3.36185e-05 4.33054e-05)
(0.000175164 2.55002e-05 4.32845e-05)
(8.48249e-06 -7.90925e-07 2.91e-05)
(-3.78948e-05 -2.84919e-05 5.39469e-06)
(-0.00045325 -9.84796e-05 -0.00010671)
(-0.000702065 -0.00017816 -0.000291173)
(-0.00215684 -0.000404015 -0.000869438)
(-0.00385423 -0.000489068 -0.00122448)
(0.000252569 3.13922e-05 5.32376e-05)
(0.00016694 1.4208e-05 4.98257e-05)
(0.000138736 5.67395e-06 5.13198e-05)
(-3.71311e-05 -3.60971e-05 3.24308e-05)
(-9.01477e-05 -4.58905e-05 9.65205e-06)
(-0.000494872 -0.000153364 -0.000121583)
(-0.000704763 -0.000159836 -0.000271136)
(-0.00203145 -0.000554021 -0.000697395)
(-0.00350369 -0.00089587 -0.00105372)
(0.000179494 2.68835e-05 4.89577e-05)
(8.93023e-05 2.10695e-05 4.89593e-05)
(2.58349e-05 1.6356e-05 5.32752e-05)
(-0.00013808 -8.67129e-06 2.60544e-05)
(-0.000288485 -1.40144e-05 -8.79957e-06)
(-0.000585043 -5.82803e-05 -0.000137558)
(-0.00097529 -8.53974e-05 -0.000322178)
(-0.00168957 -0.000230687 -0.000655652)
(-0.0025296 -0.000429166 -0.000958465)
(0.000208096 3.83825e-05 4.0124e-05)
(0.000133402 2.74098e-05 2.72916e-05)
(0.000120967 1.98328e-05 3.57639e-05)
(-2.37217e-05 -9.14115e-06 8.96724e-06)
(-6.18462e-05 -3.32996e-05 5.98133e-06)
(-0.000421961 -0.000122609 -0.000119785)
(-0.000642645 -0.00020748 -0.000234893)
(-0.00187777 -0.000471999 -0.000835249)
(-0.00330474 -0.000601728 -0.0013203)
(0.000174692 2.45506e-05 4.60903e-05)
(0.000105458 1.35486e-05 3.67247e-05)
(8.78742e-05 8.66005e-06 4.61547e-05)
(-5.6335e-05 -2.66926e-05 1.20045e-05)
(-0.000113417 -3.79134e-05 2.72663e-06)
(-0.000455229 -0.000137418 -0.000142072)
(-0.000704597 -0.000184283 -0.000254699)
(-0.0017724 -0.000573534 -0.000781674)
(-0.00291938 -0.00089077 -0.00125961)
(0.000116175 1.89133e-05 4.9209e-05)
(5.20009e-05 1.43766e-05 3.9602e-05)
(4.80181e-06 1.29341e-05 4.08532e-05)
(-0.00011684 -4.10811e-06 1.1749e-05)
(-0.000244494 -1.22063e-05 -2.41722e-05)
(-0.000506881 -5.56369e-05 -0.000147321)
(-0.000862143 -9.42091e-05 -0.00030886)
(-0.00148131 -0.000284442 -0.000686865)
(-0.00219327 -0.000459213 -0.00105728)
(0.000114236 2.89678e-05 3.19341e-05)
(5.03391e-05 1.66629e-05 2.49967e-05)
(2.34793e-05 7.17322e-06 2.8143e-05)
(-8.5929e-05 -2.95872e-05 6.52056e-06)
(-0.000165614 -5.95942e-05 -4.31556e-06)
(-0.000430264 -0.000151437 -8.49309e-05)
(-0.000727588 -0.000243694 -0.000156743)
(-0.00152794 -0.000473948 -0.000438367)
(-0.00248717 -0.0006554 -0.00073039)
(9.03727e-05 2.28237e-05 3.64904e-05)
(3.86631e-05 8.15011e-06 3.04982e-05)
(6.77595e-06 -3.24751e-06 3.41618e-05)
(-9.48579e-05 -3.27982e-05 4.85414e-06)
(-0.000194359 -6.06566e-05 -1.59058e-05)
(-0.000437052 -0.000146901 -0.000120871)
(-0.000761726 -0.000216288 -0.000219068)
(-0.00139551 -0.000513365 -0.0005886)
(-0.00211579 -0.000778507 -0.000906221)
(5.43737e-05 1.46161e-05 3.59779e-05)
(1.59702e-05 8.03955e-06 2.85905e-05)
(-3.50273e-05 2.10439e-06 2.68611e-05)
(-0.000119853 -1.254e-05 6.21497e-07)
(-0.000245938 -3.19029e-05 -3.58045e-05)
(-0.000451596 -6.89232e-05 -0.00012475)
(-0.000771967 -0.000118179 -0.000254805)
(-0.00120303 -0.000259389 -0.000535587)
(-0.00173298 -0.000385817 -0.00077749)
(8.1607e-05 1.84668e-05 2.96091e-05)
(2.39173e-05 6.58685e-06 2.46532e-05)
(-1.34536e-06 -6.1144e-06 2.97671e-05)
(5.48955e-05 1.19261e-05 2.91287e-05)
(1.08368e-05 1.58981e-07 2.42303e-05)
(2.7115e-05 9.32668e-06 2.50303e-05)
)
;

boundaryField
{
    inlet
    {
        type            calculated;
        value           nonuniform 0();
    }
    outlet
    {
        type            calculated;
        value           nonuniform List<vector> 9((-0.0121103 0.000826373 -0.00260414) (-0.0119734 -0.00469459 -0.0013462) (-0.00263975 -0.00145482 -0.000520749) (-0.00992912 -0.000318623 -0.00517867) (-0.00835077 -0.00445362 -0.00495427) (-0.00281492 -0.00211955 -0.00214407) (-0.00549204 -0.000463844 -0.00137962) (-0.00324846 -0.00284663 -0.00349991) (-0.00171051 -0.000813575 -0.00113747));
    }
    wall
    {
        type            calculated;
        value           nonuniform List<vector> 
57
(
(0.000859876 0.000165155 0.000102667)
(0.000861906 7.94667e-05 0.000120466)
(0.000335896 0.00010706 6.34217e-05)
(0.000268303 9.52278e-05 4.78402e-05)
(0.000314671 -9.2211e-05 9.66699e-05)
(-0.000176279 3.83802e-05 7.9903e-05)
(0.000921977 0.000162389 8.76104e-05)
(0.00100711 1.0738e-05 0.000151777)
(-2.64256e-05 8.68873e-05 0.000210293)
(-0.000143096 0.000137421 0.000111314)
(-0.000206816 -0.000360727 0.000137256)
(-0.0006344 -0.000124047 9.06971e-05)
(0.00139111 0.000176311 0.000277032)
(0.00156836 9.52276e-05 0.000451856)
(-0.000745607 4.95826e-05 0.000292398)
(-0.000961374 0.000174926 0.000213206)
(-0.00109814 -0.000988865 3.93806e-06)
(-0.00087455 -0.000193673 0.000132437)
(0.00303272 0.000328594 0.000751326)
(0.00373356 0.000999508 0.000793075)
(-0.00159325 0.000119963 7.24114e-05)
(-0.00261059 -0.0001921 -0.00222466)
(-0.00301672 -0.00211276 -0.000267221)
(-0.000896576 -6.71626e-05 0.000155771)
(-0.0121103 0.000826373 -0.00260414)
(-0.0119734 -0.00469459 -0.0013462)
(-0.00263975 -0.00145482 -0.000520749)
(0.000859876 0.000165155 0.000102667)
(0.000582502 0.000124802 6.67737e-05)
(0.000161401 9.64011e-05 3.76867e-05)
(0.000290663 9.08164e-05 6.94724e-05)
(0.000268303 9.52278e-05 4.78402e-05)
(7.682e-05 7.2706e-05 -0.00011263)
(-0.000207259 3.14978e-05 -3.04686e-05)
(-0.000114816 4.99297e-05 -1.27179e-05)
(0.000921977 0.000162389 8.76104e-05)
(0.000783593 0.000144725 0.000118503)
(0.000119746 0.000129237 6.16663e-05)
(0.00020041 0.000138512 6.99143e-05)
(-0.000143096 0.000137421 0.000111314)
(-0.000177195 6.58392e-05 -0.000131731)
(-0.000289878 -3.30179e-05 -7.28388e-05)
(0.00139111 0.000176311 0.000277032)
(0.00138407 0.000257556 0.000447069)
(0.000255113 0.000160196 0.000133595)
(-0.000961374 0.000174926 0.000213206)
(-0.00064995 -7.76656e-05 -0.000232829)
(-0.000366119 -0.000103067 -0.000164323)
(0.00303272 0.000328594 0.000751326)
(0.00327619 0.000325122 0.0013312)
(0.000689888 0.000225883 0.000451591)
(-0.00261059 -0.0001921 -0.00222466)
(-0.00179564 -0.000799253 -0.00248406)
(-0.00104453 -0.000201433 4.4546e-05)
(-0.0121103 0.000826373 -0.00260414)
(-0.00992912 -0.000318623 -0.00517867)
(-0.00549204 -0.000463844 -0.00137962)
)
;
    }
    procBoundary1to0
    {
        type            processor;
        value           nonuniform List<vector> 
12
(
(0.000300955 4.65692e-05 5.05453e-05)
(0.000261764 2.97384e-05 4.89226e-05)
(0.000200578 1.75822e-05 4.40344e-05)
(0.000214403 3.65674e-05 3.6653e-05)
(0.000178936 2.18733e-05 3.79331e-05)
(0.000132869 1.39014e-05 3.75648e-05)
(0.000128233 2.73273e-05 2.7273e-05)
(0.00010289 1.67686e-05 2.84408e-05)
(7.8324e-05 1.10362e-05 2.99265e-05)
(8.95394e-05 1.59124e-05 2.61099e-05)
(6.43904e-05 9.32336e-06 2.2875e-05)
(4.2537e-05 6.80252e-06 2.25393e-05)
)
;
    }
    procBoundary1to3
    {
        type            processor;
        value           nonuniform List<vector> 
27
(
(0.000192213 1.99567e-05 4.49702e-05)
(0.000107556 2.7792e-05 4.27624e-05)
(5.74746e-05 2.8961e-05 4.97455e-05)
(-0.000112449 3.10587e-05 2.09745e-05)
(-0.000226995 3.65303e-05 -1.07479e-05)
(-0.000559893 6.00419e-05 -0.000172768)
(-0.000813548 5.57549e-05 -0.000357747)
(-0.00168175 0.000149162 -0.000880227)
(-0.00274455 0.000192409 -0.0012273)
(0.000116513 1.38738e-05 4.30678e-05)
(5.18485e-05 1.63574e-05 3.58007e-05)
(6.78306e-06 1.71549e-05 3.96406e-05)
(-0.000115645 2.07817e-05 4.67663e-06)
(-0.000232756 2.38516e-05 -3.20997e-05)
(-0.00049386 4.48484e-05 -0.00017572)
(-0.000804093 5.69736e-05 -0.000350952)
(-0.00142084 0.000166793 -0.000882398)
(-0.00214096 0.000225933 -0.00127099)
(5.3115e-05 7.77336e-06 3.49945e-05)
(1.26382e-05 9.04114e-06 2.63984e-05)
(-3.79593e-05 1.12917e-05 2.30462e-05)
(-0.000120718 1.13673e-05 -5.10025e-06)
(-0.000241408 1.62792e-05 -4.4068e-05)
(-0.000440766 1.99876e-05 -0.000141733)
(-0.000740165 2.7535e-05 -0.000286715)
(-0.00115863 7.11892e-05 -0.000602036)
(-0.00168679 0.00012393 -0.000893368)
)
;
    }
    procBoundary1to5
    {
        type            processor;
        value           nonuniform List<vector> 
32
(
(-0.000103762 -5.31117e-05 2.02334e-05)
(-0.000182328 -9.11969e-05 2.57543e-05)
(-0.000417993 -0.000200032 2.46273e-06)
(-0.000708921 -0.000314703 6.82033e-06)
(-0.00130038 -0.000577469 -3.80565e-05)
(-0.00207478 -0.000840609 -6.14929e-05)
(-2.23131e-05 -1.03619e-05 2.87815e-05)
(-0.000105715 -4.70624e-05 1.10419e-05)
(-0.00020877 -8.16578e-05 1.62279e-06)
(-0.000409997 -0.000174028 -4.46843e-05)
(-0.000720992 -0.000268732 -8.34467e-05)
(-0.00116129 -0.000536422 -0.000216058)
(-0.00171582 -0.000787496 -0.000346764)
(-5.56158e-06 2.36367e-06 2.13108e-05)
(-4.84618e-05 -5.74941e-06 2.06624e-05)
(-0.000118241 -2.3766e-05 3.33707e-06)
(-0.000233839 -4.66691e-05 -1.66389e-05)
(-0.000402853 -9.33387e-05 -6.98126e-05)
(-0.000684578 -0.000156257 -0.000145636)
(-0.00101863 -0.00029741 -0.000277338)
(-0.00150416 -0.000423712 -0.000391596)
(5.97898e-05 6.36153e-06 2.37776e-05)
(2.16675e-05 -1.03896e-05 2.63428e-05)
(-0.000103762 -5.31117e-05 2.02334e-05)
(-2.23131e-05 -1.03619e-05 2.87815e-05)
(1.10324e-05 -2.65224e-05 3.48041e-05)
(3.26221e-05 5.08926e-06 1.98252e-05)
(-2.23131e-05 -1.03619e-05 2.87815e-05)
(-5.56158e-06 2.36367e-06 2.13108e-05)
(8.16668e-06 -9.26207e-06 2.03154e-05)
(-5.56158e-06 2.36367e-06 2.13108e-05)
(1.41032e-05 1.50453e-06 1.49527e-05)
)
;
    }
    procBoundary1to7
    {
        type            processor;
        value           uniform (2.0325e-05 3.96875e-06 2.28014e-05);
    }
}


// ************************************************************************* //
