/*--------------------------------*- C++ -*----------------------------------*\
| =========                 |                                                 |
| \\      /  F ield         | OpenFOAM: The Open Source CFD Toolbox           |
|  \\    /   O peration     | Version:  4.x                                   |
|   \\  /    A nd           | Web:      www.OpenFOAM.org                      |
|    \\/     M anipulation  |                                                 |
\*---------------------------------------------------------------------------*/
FoamFile
{
    version     2.0;
    format      ascii;
    class       volVectorField;
    location    "24.5";
    object      GField;
}
// * * * * * * * * * * * * * * * * * * * * * * * * * * * * * * * * * * * * * //

dimensions      [1 -2 -1 0 0 0 0];

internalField   nonuniform List<vector> 
87
(
(96.1405 1.65662 -0.0742899)
(139.158 1.78398 -0.75969)
(98.0727 2.63068 0.255664)
(145.914 3.39362 -0.0482362)
(95.7106 4.1293 1.1093)
(156.205 5.00327 2.3725)
(82.9852 6.12292 2.66268)
(177.603 6.97514 8.85524)
(40.7494 4.45771 -20.4104)
(85.274 -1.22322 -0.401304)
(132.735 -1.54347 -0.83113)
(88.3569 -2.14688 0.447899)
(140.451 -1.24608 0.60981)
(86.3685 -5.72818 1.62571)
(152.31 -0.124064 4.97429)
(72.5881 -16.2274 0.893931)
(178.029 8.33203 11.8815)
(34.5571 -45.0173 -5.18636)
(70.603 -0.442615 -0.254837)
(118.724 0.166526 -1.59159)
(66.8981 0.132451 0.692178)
(117.841 1.37921 0.878491)
(56.5925 -1.58522 1.70107)
(110.767 2.42808 5.02349)
(37.3642 -5.6542 3.03701)
(88.862 7.95748 8.00828)
(18.0633 -10.786 4.02658)
(64.7425 1.10129 -3.76653)
(117.962 1.43186 -3.63672)
(65.1992 2.02486 -5.30786)
(123.833 3.17631 -2.30292)
(61.6376 2.95491 -7.22452)
(134.319 5.95639 2.62938)
(51.6456 2.19889 -11.0552)
(158.771 7.94126 15.6932)
(28.3565 -7.62593 -42.8413)
(42.9895 -0.817152 -3.00377)
(106.672 -2.20517 -2.88597)
(43.4188 -1.26184 -3.49529)
(113.42 -0.486422 0.835165)
(41.5095 -3.91716 -5.18249)
(124.34 3.06318 8.56665)
(38.7275 -11.4857 -11.8886)
(143.04 12.0449 21.9866)
(27.1275 -44.2761 -40.7645)
(19.969 -0.191845 -2.06949)
(94.7956 -0.719185 0.489937)
(11.2869 -0.180037 -1.5495)
(95.5544 1.16442 3.39653)
(4.29674 -0.379442 -0.920731)
(94.3289 4.47753 8.78299)
(5.79206 -1.81336 -1.64854)
(85.3808 12.9359 17.9827)
(18.9864 -22.4773 -6.32316)
(49.9886 0.529059 -3.55583)
(104.155 0.585349 -2.5968)
(44.6427 1.05146 -4.18414)
(103.988 2.54057 -1.66865)
(37.2061 0.612164 -5.86165)
(104.895 4.70184 0.487016)
(28.3855 -0.993138 -9.70836)
(110.09 6.73 8.78987)
(14.9798 -5.8151 -12.3936)
(21.1718 -1.27291 -2.15498)
(91.995 0.648793 -1.24408)
(17.7317 -1.67874 -1.91163)
(93.6108 0.567832 2.02031)
(16.427 -3.43389 -3.3859)
(94.2643 1.57376 6.21735)
(23.8148 -9.742 -10.7836)
(90.1339 9.70824 14.9256)
(36.7518 -28.1738 -40.1511)
(0.000669447 -1.80113e-05 -0.000100345)
(82.2868 0.248062 1.24159)
(4.63535e-05 1.1136e-05 7.80603e-07)
(80.1721 0.853379 3.47957)
(5.17399e-05 2.7455e-06 -1.75374e-05)
(77.1271 -0.439861 3.98218)
(2.36714 -0.593238 -1.05641)
(68.6763 3.46091 8.67179)
(22.2711 -5.74235 -10.8938)
(52.3012 -0.436925 -2.22915)
(105.618 0.162296 -1.43065)
(48.9562 0.25661 -2.29909)
(22.2778 -2.14997 -1.78957)
(90.4838 -1.58826 -1.0717)
(4.2977 -0.58304 -0.395166)
)
;

boundaryField
{
    inlet
    {
        type            calculated;
        value           nonuniform 0();
    }
    outlet
    {
        type            calculated;
        value           nonuniform List<vector> 9((83.4902 9.13325 -41.8183) (71.6031 -93.2767 -10.7462) (37.5224 -22.4054 8.36428) (59.9475 -16.1217 -90.5693) (57.2292 -93.4067 -85.9983) (40.2038 -47.5957 -13.3893) (31.9581 -12.406 -26.4407) (78.561 -60.2245 -85.8274) (47.7687 -12.3166 -23.3657));
    }
    wall
    {
        type            calculated;
        value           uniform (0 0 0);
    }
    procBoundary1to0
    {
        type            processor;
        value           nonuniform List<vector> 
12
(
(133.939 0.102286 -1.83025)
(125.471 -2.53459 -2.13057)
(115.914 -1.23853 -2.37812)
(112.968 -0.178563 -4.48008)
(101.815 -2.81451 -4.60572)
(94.3515 -1.54684 -3.30021)
(103.125 -0.854454 -3.15364)
(90.8489 -1.9667 -2.80487)
(84.2589 -0.83659 -0.991329)
(103.482 -1.08972 -2.57752)
(90.2868 -2.5565 -2.65104)
(83.2494 -1.55601 -0.512863)
)
;
    }
    procBoundary1to3
    {
        type            processor;
        value           nonuniform List<vector> 
27
(
(76.7234 0.126377 -0.646789)
(125.551 1.22429 -1.82636)
(79.7169 1.91385 -0.573872)
(132.024 2.50597 0.163152)
(77.9163 3.48147 -0.173462)
(138.786 2.81631 5.64909)
(65.4938 7.96293 -3.39921)
(153.731 -1.17492 13.478)
(34.6839 21.4692 -33.0869)
(23.0085 0.384559 -2.36025)
(95.3847 1.75353 -2.17454)
(17.9905 0.954859 -2.32499)
(97.0335 1.56295 2.00474)
(15.0243 1.73896 -3.01868)
(99.0969 -0.372373 7.83362)
(18.5202 4.90801 -7.78477)
(96.641 -5.5188 20.7579)
(30.1561 29.329 -51.9872)
(2.93246 -0.0156583 -0.661934)
(84.7985 -0.219438 0.901211)
(0.000139465 8.00737e-06 -3.3148e-05)
(83.5791 0.626239 3.17704)
(5.87655e-05 -4.72276e-06 -1.71539e-05)
(81.8651 1.79651 5.22985)
(5.82244e-05 -8.75304e-06 -2.88525e-05)
(74.7522 -0.68357 12.1777)
(10.7883 2.3745 -7.00303)
)
;
    }
    procBoundary1to5
    {
        type            processor;
        value           nonuniform List<vector> 
32
(
(106.298 2.11424 -0.206468)
(40.6023 -0.960633 -2.7271)
(106.396 4.65069 2.5561)
(26.9876 -2.64728 -2.61078)
(101.939 9.34853 9.64799)
(9.12689 -2.74823 0.380908)
(18.652 -2.62794 -1.88126)
(91.0336 0.297106 1.44555)
(16.7667 -4.18817 -2.63806)
(89.344 2.12962 3.31234)
(17.5518 -7.87645 -5.00946)
(79.1912 11.0391 8.72814)
(24.9757 -16.8482 -10.1463)
(82.7635 0.15996 0.377322)
(3.78026e-05 3.01988e-06 1.17168e-06)
(81.2271 1.18628 2.17062)
(3.61996e-05 -2.41453e-06 -7.54326e-06)
(78.3502 2.10628 4.08567)
(3.1997e-05 -1.26263e-05 -8.29668e-06)
(71.0446 6.96079 4.97604)
(23.7052 -4.75047 -2.54389)
(42.8737 -1.17451 -1.31989)
(98.0928 -0.98283 0.242869)
(106.298 2.11424 -0.206468)
(18.652 -2.62794 -1.88126)
(38.4028 -1.44904 -0.293555)
(5.99111 -0.706565 -0.368132)
(18.652 -2.62794 -1.88126)
(82.7635 0.15996 0.377322)
(83.4814 0.774299 0.494326)
(82.7635 0.15996 0.377322)
(3.33647e-05 2.07493e-06 8.21851e-06)
)
;
    }
    procBoundary1to7
    {
        type            processor;
        value           uniform (1.55688 0.119798 -0.244264);
    }
}


// ************************************************************************* //
