/*--------------------------------*- C++ -*----------------------------------*\
| =========                 |                                                 |
| \\      /  F ield         | OpenFOAM: The Open Source CFD Toolbox           |
|  \\    /   O peration     | Version:  4.x                                   |
|   \\  /    A nd           | Web:      www.OpenFOAM.org                      |
|    \\/     M anipulation  |                                                 |
\*---------------------------------------------------------------------------*/
FoamFile
{
    version     2.0;
    format      ascii;
    class       volScalarField;
    location    "24.5";
    object      QWallFluidCoeff;
}
// * * * * * * * * * * * * * * * * * * * * * * * * * * * * * * * * * * * * * //

dimensions      [1 -1 -3 -1 0 0 0];

internalField   nonuniform List<scalar> 
87
(
-5.5094e+06
-7.40574e+06
-5.59876e+06
-7.69308e+06
-5.49341e+06
-8.12648e+06
-4.90963e+06
-9.01542e+06
-3.04344e+06
-2.50259e+06
-3.56546e+06
-2.57511e+06
-3.73021e+06
-2.53283e+06
-3.98168e+06
-2.2433e+06
-4.52107e+06
-1.8127e+06
-2.15162e+06
-3.26106e+06
-2.06086e+06
-3.24166e+06
-1.80384e+06
-3.08792e+06
-1.30832e+06
-2.60287e+06
-828629
-2.01042e+06
-3.24551e+06
-2.02491e+06
-3.37397e+06
-1.94239e+06
-3.60259e+06
-1.7069e+06
-4.1346e+06
-1.68302e+06
0
0
0
0
0
0
0
0
0
0
0
0
0
0
0
0
0
0
-1.63565e+06
-2.93734e+06
-1.49662e+06
-2.93381e+06
-1.30165e+06
-2.95565e+06
-1.08538e+06
-3.08209e+06
-793555
0
0
0
0
0
0
0
0
0
0
0
0
0
0
0
0
0
0
-1.69369e+06
-2.96975e+06
-1.60669e+06
0
0
0
)
;

boundaryField
{
    inlet
    {
        type            calculated;
        value           nonuniform 0();
    }
    outlet
    {
        type            calculated;
        value           uniform 0;
    }
    wall
    {
        type            calculated;
        value           uniform 0;
    }
    procBoundary1to0
    {
        type            processor;
        value           uniform 0;
    }
    procBoundary1to3
    {
        type            processor;
        value           uniform 0;
    }
    procBoundary1to5
    {
        type            processor;
        value           uniform 0;
    }
    procBoundary1to7
    {
        type            processor;
        value           uniform 0;
    }
}


// ************************************************************************* //
