/*--------------------------------*- C++ -*----------------------------------*\
| =========                 |                                                 |
| \\      /  F ield         | OpenFOAM: The Open Source CFD Toolbox           |
|  \\    /   O peration     | Version:  4.x                                   |
|   \\  /    A nd           | Web:      www.OpenFOAM.org                      |
|    \\/     M anipulation  |                                                 |
\*---------------------------------------------------------------------------*/
FoamFile
{
    version     2.0;
    format      ascii;
    class       volVectorField;
    location    "24.5";
    object      U;
}
// * * * * * * * * * * * * * * * * * * * * * * * * * * * * * * * * * * * * * //

dimensions      [0 1 -1 0 0 0 0];

internalField   nonuniform List<vector> 
87
(
(0.0289878 0.000499245 -2.25365e-05)
(0.0423994 0.000543393 -0.000231536)
(0.0298888 0.000801411 7.77192e-05)
(0.0447784 0.00104134 -1.48728e-05)
(0.0293745 0.00126731 0.000340329)
(0.0482285 0.00154475 0.000732427)
(0.0257795 0.00190211 0.000826903)
(0.0551678 0.00216663 0.00275057)
(0.0124613 0.00136331 -0.00624127)
(0.0258453 -0.000370924 -0.000121559)
(0.0403757 -0.000469639 -0.000252787)
(0.0270787 -0.000658187 0.00013732)
(0.0431991 -0.000383318 0.000187546)
(0.0265746 -0.00176251 0.00050012)
(0.0472284 -3.83826e-05 0.00154234)
(0.0226986 -0.00507431 0.000279369)
(0.0553429 0.00259018 0.00369341)
(0.0106873 -0.0139218 -0.00160404)
(0.0216137 -0.000135377 -7.798e-05)
(0.0365775 5.13427e-05 -0.00049031)
(0.0207382 4.12114e-05 0.000214584)
(0.0366757 0.000429331 0.000273414)
(0.0175623 -0.0004918 0.000527954)
(0.0343689 0.000753633 0.00155863)
(0.0116589 -0.00176379 0.000947682)
(0.0276881 0.00247956 0.00249524)
(0.00560068 -0.00334412 0.00124834)
(0.0200428 0.00034089 -0.00116614)
(0.0365575 0.000443695 -0.00112712)
(0.0202843 0.000629907 -0.00165154)
(0.0388024 0.000995255 -0.000721688)
(0.0193634 0.000928332 -0.00226967)
(0.0425262 0.00188584 0.000832306)
(0.0164848 0.000701974 -0.00352889)
(0.0504265 0.00252217 0.00498396)
(0.00894769 -0.00240588 -0.013517)
(0.0133952 -0.000254636 -0.000935827)
(0.0331768 -0.000685861 -0.000897541)
(0.0135842 -0.000394804 -0.00109345)
(0.0356987 -0.000153064 0.000262818)
(0.0131138 -0.00123734 -0.00163734)
(0.0393853 0.000970392 0.00271329)
(0.0123695 -0.00366813 -0.00379736)
(0.0455824 0.00383841 0.00700609)
(0.00854203 -0.013941 -0.0128356)
(0.00628378 -6.03104e-05 -0.000651127)
(0.0298152 -0.000226144 0.000154133)
(0.00355995 -5.67241e-05 -0.000488667)
(0.0301954 0.000368029 0.00107327)
(0.0013599 -0.000119998 -0.000291357)
(0.030054 0.0014266 0.0027982)
(0.00185689 -0.000581339 -0.000528559)
(0.0274478 0.00415849 0.0057807)
(0.00600086 -0.00710388 -0.00199838)
(0.0157785 0.000167 -0.00112243)
(0.0329309 0.000185073 -0.000821108)
(0.0142545 0.000335746 -0.00133617)
(0.0333851 0.000815664 -0.000535891)
(0.0119373 0.000196454 -0.00188098)
(0.03398 0.00152315 0.000157334)
(0.00918557 -0.000321368 -0.00314236)
(0.0353705 0.00216216 0.00282332)
(0.00477058 -0.00185196 -0.00394701)
(0.0067101 -0.000403389 -0.000682987)
(0.029306 0.000206691 -0.000396379)
(0.00565269 -0.000535132 -0.000609486)
(0.0300152 0.000182123 0.000647588)
(0.00529426 -0.00110659 -0.0010915)
(0.0305138 0.000509592 0.00201214)
(0.00771986 -0.00315778 -0.00349644)
(0.0291514 0.00313984 0.00482595)
(0.011726 -0.0089889 -0.0128093)
(2.15528e-07 -3.84816e-09 -3.13699e-08)
(0.0263767 7.95108e-05 0.000398023)
(1.48983e-08 3.66167e-09 2.23374e-10)
(0.0259989 0.000276807 0.00112828)
(1.67375e-08 1.05077e-09 -6.02504e-09)
(0.0251318 -0.000143226 0.00129728)
(0.000770862 -0.000193094 -0.000344664)
(0.0223269 0.00112526 0.0028185)
(0.00713004 -0.00183834 -0.00348745)
(0.0167296 -0.000139738 -0.000713034)
(0.0338651 5.20487e-05 -0.000458729)
(0.0158794 8.32582e-05 -0.000745796)
(0.00717904 -0.000692832 -0.000576689)
(0.0294658 -0.000517112 -0.000349052)
(0.00138985 -0.000188506 -0.000127805)
)
;

boundaryField
{
    inlet
    {
        type            fixedValue;
        value           nonuniform 0();
    }
    outlet
    {
        type            zeroGradient;
    }
    wall
    {
        type            fixedValue;
        value           uniform (0 0 0);
    }
    procBoundary1to0
    {
        type            processor;
        value           nonuniform List<vector> 
12
(
(0.0400187 3.05065e-05 -0.000546862)
(0.0379772 -0.000767189 -0.00064484)
(0.0355355 -0.000379619 -0.000729018)
(0.0348056 -5.50221e-05 -0.00138029)
(0.0316544 -0.000875006 -0.00143184)
(0.0294042 -0.00048199 -0.00102843)
(0.0322915 -0.000267542 -0.000987463)
(0.0288245 -0.000623969 -0.000889885)
(0.0266792 -0.000264846 -0.000313861)
(0.0328463 -0.00034587 -0.000818075)
(0.028889 -0.000817967 -0.000848215)
(0.0267992 -0.000500843 -0.000165054)
)
;
    }
    procBoundary1to3
    {
        type            processor;
        value           nonuniform List<vector> 
27
(
(0.0237856 3.927e-05 -0.000200484)
(0.0388106 0.000378546 -0.000564515)
(0.0248054 0.000595627 -0.000178552)
(0.0408095 0.000774687 5.04319e-05)
(0.0241254 0.00107816 -5.37458e-05)
(0.0428947 0.000870834 0.00174569)
(0.0204001 0.00248181 -0.00105935)
(0.0479058 -0.00036577 0.00419975)
(0.0107677 0.00666526 -0.0102719)
(0.00728933 0.00012188 -0.000747664)
(0.0302188 0.000555578 -0.000688914)
(0.00575149 0.000305329 -0.00074328)
(0.0309862 0.000499157 0.000640122)
(0.00478494 0.00055382 -0.000961474)
(0.0315166 -0.000118544 0.00249103)
(0.00591483 0.0015664 -0.00248681)
(0.0309304 -0.00176649 0.00664325)
(0.00967548 0.00940986 -0.0166796)
(0.000946602 -5.08103e-06 -0.00021365)
(0.0275122 -7.11759e-05 0.000292351)
(4.55133e-08 2.91494e-09 -1.08243e-08)
(0.0271953 0.000203817 0.00103366)
(1.8957e-08 -1.45599e-09 -5.76361e-09)
(0.0266332 0.00058441 0.00170132)
(1.93913e-08 -3.08049e-09 -9.45731e-09)
(0.0243814 -0.000222841 0.00397177)
(0.00351064 0.000772564 -0.00227871)
)
;
    }
    procBoundary1to5
    {
        type            processor;
        value           nonuniform List<vector> 
32
(
(0.034516 0.000686555 -6.71048e-05)
(0.0132575 -0.000313615 -0.000890654)
(0.0347481 0.00151897 0.000834526)
(0.0088345 -0.000866613 -0.00085541)
(0.033404 0.00306281 0.00316017)
(0.00299234 -0.00089964 0.000125206)
(0.00605504 -0.000853134 -0.000610791)
(0.0295412 9.6506e-05 0.000468977)
(0.00546084 -0.00136407 -0.000859427)
(0.0292393 0.000697136 0.00108373)
(0.00577613 -0.00259226 -0.00164953)
(0.0260932 0.00363708 0.00287022)
(0.00819635 -0.00552826 -0.00334833)
(0.0269863 5.22423e-05 0.000123016)
(1.21701e-08 1.11998e-09 3.12283e-10)
(0.0265843 0.00038837 0.000710331)
(1.14598e-08 -5.35705e-10 -2.74214e-09)
(0.0256411 0.000689569 0.00133681)
(9.96926e-09 -3.20372e-09 -4.32745e-09)
(0.023307 0.00228445 0.00163054)
(0.00780755 -0.00156524 -0.000839765)
(0.0138635 -0.000379773 -0.000426755)
(0.0316744 -0.000317369 7.84354e-05)
(0.034516 0.000686555 -6.71048e-05)
(0.00605504 -0.000853134 -0.000610791)
(0.0125154 -0.000472227 -9.56499e-05)
(0.0019489 -0.000229828 -0.000119745)
(0.00605504 -0.000853134 -0.000610791)
(0.0269863 5.22423e-05 0.000123016)
(0.0272188 0.000252475 0.000161163)
(0.0269863 5.22423e-05 0.000123016)
(1.08168e-08 7.64935e-10 2.69169e-09)
)
;
    }
    procBoundary1to7
    {
        type            processor;
        value           uniform (0.00050944 3.92244e-05 -7.99672e-05);
    }
}


// ************************************************************************* //
