/*--------------------------------*- C++ -*----------------------------------*\
| =========                 |                                                 |
| \\      /  F ield         | OpenFOAM: The Open Source CFD Toolbox           |
|  \\    /   O peration     | Version:  4.x                                   |
|   \\  /    A nd           | Web:      www.OpenFOAM.org                      |
|    \\/     M anipulation  |                                                 |
\*---------------------------------------------------------------------------*/
FoamFile
{
    version     2.0;
    format      ascii;
    class       volScalarField;
    location    "21.5";
    object      Sm;
}
// * * * * * * * * * * * * * * * * * * * * * * * * * * * * * * * * * * * * * //

dimensions      [1 -3 -1 0 0 0 0];

internalField   nonuniform List<scalar> 
87
(
6.7423e-65
6.04489e-65
7.12983e-65
5.11496e-65
5.81243e-65
4.95992e-65
1.03851e-64
7.59506e-65
4.96002e-65
7.43999e-65
9.37742e-65
6.12241e-65
7.36237e-65
6.50984e-65
8.52476e-65
5.81256e-65
7.90507e-65
6.43253e-65
8.835e-65
7.05247e-65
7.82742e-65
7.0524e-65
8.60234e-65
7.59483e-65
4.96006e-65
7.20757e-65
5.42504e-65
6.12252e-65
7.595e-65
8.75745e-65
6.50994e-65
6.66492e-65
7.51739e-65
7.67259e-65
7.67257e-65
7.75004e-65
7.6725e-65
5.34747e-65
7.05243e-65
6.27742e-65
5.88989e-65
7.90481e-65
5.65756e-65
7.28507e-65
6.82005e-65
6.89751e-65
5.9675e-65
5.57996e-65
7.74992e-65
5.73492e-65
7.74985e-65
5.19256e-65
6.74257e-65
5.58004e-65
7.59504e-65
7.28501e-65
5.96749e-65
6.66497e-65
5.96745e-65
5.65745e-65
5.03756e-65
5.27005e-65
6.12254e-65
6.89752e-65
6.51e-65
6.43246e-65
8.67992e-65
8.75738e-65
3.79745e-65
6.04507e-65
5.50256e-65
6.82006e-65
5.65753e-65
8.60251e-65
6.35499e-65
6.19996e-65
5.57994e-65
7.82741e-65
4.41756e-65
6.27757e-65
6.12256e-65
6.43254e-65
4.96002e-65
8.21501e-65
4.805e-65
5.19249e-65
6.04497e-65
)
;

boundaryField
{
    inlet
    {
        type            calculated;
        value           uniform 0;
    }
    outlet
    {
        type            calculated;
        value           nonuniform 0();
    }
    wall
    {
        type            calculated;
        value           uniform 0;
    }
    procBoundary6to0
    {
        type            processor;
        value           uniform 2.32492e-65;
    }
    procBoundary6to2
    {
        type            processor;
        value           nonuniform List<scalar> 
32
(
4.88237e-65
7.43988e-65
8.36982e-65
8.29245e-65
4.95994e-65
6.66491e-65
4.80505e-65
8.13756e-65
8.37003e-65
6.58749e-65
6.81995e-65
5.88992e-65
6.27738e-65
7.74979e-65
7.74979e-65
7.74979e-65
6.89758e-65
6.89756e-65
8.37005e-65
5.81251e-65
7.20747e-65
6.89743e-65
8.36989e-65
8.36989e-65
8.36989e-65
5.27006e-65
6.51006e-65
6.27754e-65
7.13002e-65
5.5025e-65
6.35496e-65
6.35496e-65
)
;
    }
    procBoundary6to4
    {
        type            processor;
        value           nonuniform List<scalar> 
27
(
4.34005e-65
5.73505e-65
7.59503e-65
5.19249e-65
7.36244e-65
6.35491e-65
9.22231e-65
5.96734e-65
5.96732e-65
6.66508e-65
7.20756e-65
5.96752e-65
8.525e-65
8.44745e-65
6.74243e-65
9.60984e-65
7.90483e-65
6.81983e-65
7.44009e-65
7.05257e-65
5.81254e-65
7.67251e-65
6.97499e-65
9.22243e-65
4.49496e-65
4.88243e-65
6.35489e-65
)
;
    }
    procBoundary6to7
    {
        type            processor;
        value           nonuniform List<scalar> 
12
(
7.67224e-65
4.80487e-65
6.50987e-65
3.95236e-65
5.50236e-65
6.74237e-65
8.05979e-65
7.05236e-65
5.57993e-65
6.89736e-65
5.96742e-65
6.04496e-65
)
;
    }
}


// ************************************************************************* //
