/*--------------------------------*- C++ -*----------------------------------*\
| =========                 |                                                 |
| \\      /  F ield         | OpenFOAM: The Open Source CFD Toolbox           |
|  \\    /   O peration     | Version:  4.x                                   |
|   \\  /    A nd           | Web:      www.OpenFOAM.org                      |
|    \\/     M anipulation  |                                                 |
\*---------------------------------------------------------------------------*/
FoamFile
{
    version     2.0;
    format      ascii;
    class       volVectorField;
    location    "21.5";
    object      Urel;
}
// * * * * * * * * * * * * * * * * * * * * * * * * * * * * * * * * * * * * * //

dimensions      [0 1 -1 0 0 0 0];

internalField   nonuniform List<vector> 
87
(
(-0.0199278 -0.000115407 0.000301339)
(-0.0193348 -0.000204035 0.000491629)
(-0.0207886 -0.000212095 0.000399303)
(-0.0219508 -0.000340897 0.000645416)
(-0.0207424 -0.000280576 0.00059055)
(-0.0220085 -0.000275504 0.000516408)
(-0.0226919 -0.000205211 0.000588437)
(-0.0205521 -0.000184663 0.000542699)
(-0.0211909 -0.000195822 0.000541149)
(-0.0192435 -0.000152097 0.000480371)
(-0.0203364 -0.00015186 0.000453518)
(-0.0183961 -0.000111983 0.00037933)
(-0.0197831 -0.000107225 0.000336305)
(-0.017828 -8.04501e-05 0.000256016)
(-0.0194213 -7.93779e-05 0.000187188)
(-0.0228756 -0.00047701 0.000573597)
(-0.0208703 -0.000400864 0.000543712)
(-0.0215966 -0.000425848 0.000543757)
(-0.019871 -0.0003356 0.000504072)
(-0.0209584 -0.000337305 0.000479078)
(-0.0192625 -0.000264504 0.000426439)
(-0.020554 -0.000265805 0.000389419)
(-0.0188154 -0.000204659 0.000332756)
(-0.0202863 -0.000187214 0.000273925)
(-0.0230847 -0.000538959 0.000580501)
(-0.0212809 -0.00048006 0.000559457)
(-0.022094 -0.000492608 0.000568589)
(-0.0206929 -0.000413635 0.000545728)
(-0.0217408 -0.000405755 0.000525993)
(-0.0204017 -0.000343064 0.000488774)
(-0.0215462 -0.000346641 0.000454362)
(-0.0202188 -0.000284989 0.000428742)
(-0.0214439 -0.000279376 0.000372712)
(-0.0227808 -0.00022956 0.000195428)
(-0.0207676 -0.000197017 0.000220464)
(-0.0214304 -0.000213423 0.000188215)
(-0.0196674 -0.000163071 0.00020556)
(-0.0207029 -0.000162136 0.000165479)
(-0.0189793 -0.000113967 0.000171785)
(-0.0202368 -0.000108344 0.000123758)
(-0.0184861 -7.44741e-05 0.000112337)
(-0.0199376 -7.26145e-05 7.23309e-05)
(-0.0229683 -0.000475093 0.000205547)
(-0.021083 -0.000404671 0.000228836)
(-0.0218373 -0.000420578 0.000204133)
(-0.0202862 -0.000337767 0.000226596)
(-0.0213326 -0.000335785 0.000191949)
(-0.0198287 -0.000272676 0.00020331)
(-0.0210053 -0.000270209 0.000157959)
(-0.019472 -0.000215347 0.000168681)
(-0.0207931 -0.000217275 0.000118174)
(-0.0231561 -0.000532948 0.000231758)
(-0.02145 -0.000478511 0.000251226)
(-0.022299 -0.00048585 0.000233455)
(-0.021023 -0.000414445 0.000248547)
(-0.0220708 -0.000405294 0.000223154)
(-0.0208586 -0.000349417 0.000240467)
(-0.0219525 -0.000345053 0.000212739)
(-0.0207496 -0.000294564 0.000232149)
(-0.0219154 -0.00028899 0.00020104)
(-0.0229321 -0.00023718 6.92029e-05)
(-0.0210897 -0.00019645 9.83332e-05)
(-0.0218049 -0.000206519 9.01384e-05)
(-0.0202959 -0.000158316 0.000110873)
(-0.021283 -0.000148297 9.64277e-05)
(-0.0198394 -0.000102652 9.69823e-05)
(-0.0209506 -8.45767e-05 7.00801e-05)
(-0.0195043 -5.43389e-05 6.27285e-05)
(-0.0207288 -4.49393e-05 3.39742e-05)
(-0.0231024 -0.000455966 8.26427e-05)
(-0.0213783 -0.000395918 0.000109948)
(-0.0221882 -0.000412042 0.000104285)
(-0.0208769 -0.000341565 0.000128327)
(-0.0218991 -0.00033359 0.000117767)
(-0.020649 -0.000273201 0.000123942)
(-0.021708 -0.000261719 0.000105295)
(-0.0204583 -0.000198977 0.000120269)
(-0.0215889 -0.000191412 0.000101377)
(-0.0232607 -0.000510157 0.000111032)
(-0.0216659 -0.00046202 0.000135404)
(-0.022578 -0.000470105 0.000131309)
(-0.0214806 -0.000412368 0.000148048)
(-0.0225589 -0.000398559 0.000145426)
(-0.0215423 -0.00034166 0.000160739)
(-0.022582 -0.000329118 0.000154828)
(-0.0215614 -0.000276036 0.000185496)
(-0.0226088 -0.000258542 0.000186933)
)
;

boundaryField
{
    inlet
    {
        type            calculated;
        value           nonuniform List<vector> 9((-0.01 6.18223e-10 4.26484e-09) (-0.01 -4.6091e-10 3.77421e-09) (-0.01 6.08025e-11 2.57036e-10) (-0.01 -2.94945e-09 3.59874e-09) (-0.01 4.85871e-10 3.88621e-09) (-0.00999999 -7.63355e-10 -3.38438e-09) (-0.01 -7.47413e-09 2.4539e-09) (-0.00999998 1.81224e-09 1.41078e-09) (-0.00999995 1.28205e-08 1.08795e-09));
    }
    outlet
    {
        type            calculated;
        value           nonuniform 0();
    }
    wall
    {
        type            calculated;
        value           nonuniform List<vector> 
57
(
(2.10748e-09 -7.47413e-09 2.4539e-09)
(1.55603e-08 1.81224e-09 1.41078e-09)
(4.61786e-08 1.28205e-08 1.08795e-09)
(3.16681e-09 -2.29885e-09 1.58792e-09)
(4.37248e-09 -2.07384e-09 1.72924e-09)
(2.73387e-09 -3.01468e-10 5.75085e-10)
(4.24203e-11 -7.53994e-09 2.71497e-09)
(3.07559e-09 3.68559e-10 1.45744e-09)
(1.16148e-09 -3.40105e-10 1.89646e-09)
(-5.11317e-09 -5.92634e-09 1.49375e-09)
(-3.21496e-09 -2.64291e-09 1.541e-09)
(-2.42e-09 -8.58155e-10 5.82371e-10)
(-1.11201e-08 -5.31514e-09 2.88259e-09)
(-1.09074e-08 -9.75155e-10 1.88883e-09)
(-4.30405e-09 -1.11608e-09 1.04388e-09)
(-1.71814e-08 -5.89289e-09 3.7507e-09)
(-1.68013e-08 -1.15683e-09 5.4781e-09)
(-7.69505e-09 -1.03023e-10 2.12848e-09)
(-3.0009e-08 -1.39126e-08 1.69239e-09)
(-2.03314e-08 -6.58831e-09 9.08085e-10)
(-8.96586e-09 -1.66771e-09 7.3639e-10)
(-2.93522e-08 -1.83137e-08 1.74245e-09)
(-1.66671e-08 1.36112e-08 6.44052e-09)
(-7.45443e-09 -2.61349e-09 3.50939e-09)
(-5.71006e-08 -3.93699e-08 -1.08414e-08)
(-6.54118e-08 -4.56073e-08 5.62063e-09)
(2.40321e-08 -8.09598e-09 9.09345e-10)
(2.96573e-10 6.08025e-11 2.57036e-10)
(9.71494e-09 -7.63355e-10 -3.38438e-09)
(4.61786e-08 1.28205e-08 1.08795e-09)
(3.64237e-09 2.35752e-09 1.49057e-09)
(1.97417e-08 4.97312e-09 -3.55981e-09)
(2.73387e-09 -3.01468e-10 5.75085e-10)
(-1.73588e-09 2.05407e-09 2.3854e-09)
(6.15489e-10 -6.51544e-10 3.74486e-09)
(1.16148e-09 -3.40105e-10 1.89646e-09)
(-7.78467e-09 2.81251e-09 2.38984e-09)
(-1.87746e-09 6.32402e-10 2.14598e-09)
(-2.42e-09 -8.58155e-10 5.82371e-10)
(-1.33018e-08 1.30044e-09 2.16693e-09)
(-7.06731e-09 6.95499e-10 1.3724e-09)
(-4.30405e-09 -1.11608e-09 1.04388e-09)
(-2.73932e-08 1.95882e-10 4.95582e-09)
(-1.38732e-08 6.81254e-10 3.56187e-09)
(-7.69505e-09 -1.03023e-10 2.12848e-09)
(-3.68233e-08 1.34927e-09 1.24688e-08)
(-4.1402e-08 -4.73688e-09 1.35202e-08)
(-1.2358e-08 -2.83658e-09 4.23136e-09)
(-8.96586e-09 -1.66771e-09 7.3639e-10)
(-1.17249e-07 -6.28949e-09 1.35377e-08)
(-6.03049e-08 -9.01289e-09 3.84818e-08)
(-1.18695e-08 -5.18125e-10 1.74201e-08)
(-7.45443e-09 -2.61349e-09 3.50939e-09)
(-2.76865e-07 -3.69953e-08 1.32947e-07)
(-2.24077e-07 2.57449e-08 5.052e-08)
(3.04107e-08 3.94351e-08 3.74108e-07)
(2.40321e-08 -8.09598e-09 9.09345e-10)
)
;
    }
    procBoundary6to0
    {
        type            processor;
        value           uniform (-0.0195686 2.7599e-05 0.000285358);
    }
    procBoundary6to2
    {
        type            processor;
        value           nonuniform List<vector> 
32
(
(-0.0207273 -5.77937e-05 0.0004305)
(-0.0200302 -0.00018417 0.000596866)
(-0.0215606 -0.000188494 0.000492958)
(-0.0226534 -0.000329812 0.000778432)
(-0.0215387 -0.000261615 0.000685456)
(-0.022847 -0.000264238 0.000600407)
(-0.0227543 -0.000196855 0.000965465)
(-0.0206792 -0.000177202 0.000870187)
(-0.0213684 -0.000196218 0.000872675)
(-0.0195429 -0.00015684 0.000753138)
(-0.0206347 -0.000161518 0.000714868)
(-0.0188732 -0.000123495 0.00059367)
(-0.0202104 -0.000121283 0.000529252)
(-0.0184126 -0.000100038 0.000423797)
(-0.0184126 -0.000100038 0.000423797)
(-0.0184126 -0.000100038 0.000423797)
(-0.0229232 -0.00044351 0.000942111)
(-0.0209636 -0.000383647 0.000863484)
(-0.0217268 -0.000402692 0.000867362)
(-0.0200875 -0.000326497 0.000773414)
(-0.0211958 -0.000330306 0.000739007)
(-0.0196273 -0.000259642 0.000634868)
(-0.0209312 -0.000263971 0.000577053)
(-0.0209312 -0.000263971 0.000577053)
(-0.0209312 -0.000263971 0.000577053)
(-0.0231187 -0.000520993 0.000930026)
(-0.0213479 -0.00046849 0.000871991)
(-0.0222036 -0.000483791 0.000886668)
(-0.0208691 -0.000413075 0.000818857)
(-0.0219732 -0.00041087 0.00079068)
(-0.0207527 -0.000344274 0.000697596)
(-0.0207527 -0.000344274 0.000697596)
)
;
    }
    procBoundary6to4
    {
        type            processor;
        value           nonuniform List<vector> 
27
(
(-0.0226599 0.000136078 0.00059576)
(-0.0205208 0.000105709 0.000546206)
(-0.0211263 0.000110901 0.000537544)
(-0.0191758 9.3861e-05 0.000475171)
(-0.0202141 9.64929e-05 0.00044091)
(-0.0182909 7.64759e-05 0.000364015)
(-0.0196274 6.74966e-05 0.000315681)
(-0.0176649 5.78377e-05 0.000228332)
(-0.0192271 3.63353e-05 0.000137359)
(-0.0227364 0.000126924 0.000229072)
(-0.020679 0.000100243 0.000223556)
(-0.0213141 0.000101554 0.000192951)
(-0.0194797 9.18005e-05 0.000199547)
(-0.020513 9.33092e-05 0.000153172)
(-0.0187182 8.9017e-05 0.000148129)
(-0.0200136 9.11737e-05 8.42893e-05)
(-0.0182018 8.85854e-05 7.97442e-05)
(-0.0196993 0.000100583 7.83657e-06)
(-0.022864 0.000111788 8.52543e-05)
(-0.0209671 0.000102388 9.26626e-05)
(-0.021661 0.000114584 7.162e-05)
(-0.0200798 0.000106932 8.70413e-05)
(-0.0210866 0.000113176 6.2088e-05)
(-0.019601 0.000109634 6.1838e-05)
(-0.0207626 0.000118291 2.03382e-05)
(-0.0193288 0.000120785 2.48137e-05)
(-0.0205872 0.000137657 -1.83401e-05)
)
;
    }
    procBoundary6to7
    {
        type            processor;
        value           nonuniform List<vector> 
12
(
(-0.0181205 -0.000106931 0.000227427)
(-0.0191855 -0.000184123 0.000330777)
(-0.0207912 -0.000250682 0.000478081)
(-0.0175394 -6.86064e-05 0.000124543)
(-0.0185291 -0.000171342 0.000217235)
(-0.0200974 -0.000250079 0.000353844)
(-0.0181561 -6.09434e-05 4.99839e-05)
(-0.019245 -0.000190843 0.000121526)
(-0.020732 -0.000265995 0.000213204)
(-0.0192778 -3.36876e-05 4.27857e-05)
(-0.0203479 -0.000174179 0.000126188)
(-0.0215737 -0.000237922 0.000225734)
)
;
    }
}


// ************************************************************************* //
