/*--------------------------------*- C++ -*----------------------------------*\
  =========                 |
  \\      /  F ield         | OpenFOAM: The Open Source CFD Toolbox
   \\    /   O peration     | Website:  https://openfoam.org
    \\  /    A nd           | Version:  4.x
     \\/     M anipulation  |
\*---------------------------------------------------------------------------*/
FoamFile
{
    version     2.0;
    format      ascii;
    class       vectorField;
    location    0;
    object      v;
}
// * * * * * * * * * * * * * * * * * * * * * * * * * * * * * * * * * * * * * //

312
(
( -1.68212e-08 5.12343e-09 1.36865e-08 )  
( -1.5552e-08 4.61019e-09 1.16129e-08 )  
( -1.70868e-08 4.9215e-09 1.24647e-08 )  
( -1.52084e-08 5.01728e-09 8.54034e-09 )  
( -9.01989e-09 3.44365e-09 1.78872e-08 )  
( -1.1168e-08 3.22871e-09 7.89109e-09 )  
( -1.68295e-08 4.41649e-09 1.33899e-08 )  
( -9.82923e-09 7.38205e-09 4.99834e-09 )  
( -1.3921e-08 5.37219e-09 1.07241e-08 )  
( -1.54903e-08 3.28151e-09 1.05976e-08 )  
( -1.86994e-08 7.32949e-09 1.09504e-08 )  
( -1.23743e-08 2.12006e-09 5.34185e-09 )  
( -3.64545e-09 1.5919e-09 2.67466e-09 )  
( -1.34197e-08 1.05501e-09 6.32903e-09 )  
( -1.85076e-08 1.60263e-09 1.16858e-08 )  
( -9.61809e-09 2.00203e-09 6.26694e-09 )  
( -3.70712e-11 6.69473e-10 2.34649e-09 )  
( -1.24809e-08 1.87947e-10 6.43342e-09 )  
( -1.24193e-08 1.67377e-09 7.35989e-09 )  
( -6.5564e-09 3.12029e-09 4.51717e-09 )  
( -6.03756e-09 2.37452e-09 4.14805e-09 )  
( -1.64451e-09 1.63227e-09 1.33494e-09 )  
( -1.71801e-08 1.79999e-09 1.14528e-08 )  
( -9.40827e-09 2.58326e-09 6.52511e-09 )  
( -1.24017e-09 1.56898e-09 1.5311e-09 )  
( 3.68745e-10 2.98358e-10 1.0953e-09 )  
( -1.77795e-10 8.92148e-10 1.10884e-09 )  
( -4.5373e-09 2.55135e-09 3.54761e-09 )  
( -3.88956e-09 1.38838e-09 2.57495e-09 )  
( -1.19164e-08 3.36981e-09 5.68772e-09 )  
( -1.48977e-08 2.47163e-09 8.24462e-09 )  
( -3.83937e-09 1.29214e-09 3.15802e-09 )  
( -1.33581e-08 3.1843e-09 6.89032e-09 )  
( -7.00542e-09 2.377e-09 4.5895e-09 )  
( -6.03413e-09 3.14439e-09 4.01256e-09 )  
( -1.37177e-08 -4.6746e-11 6.91506e-09 )  
( -1.3706e-08 3.36557e-09 6.12047e-09 )  
( -5.26005e-09 5.28517e-10 4.42273e-09 )  
( -4.36785e-09 -8.76814e-10 2.10586e-09 )  
( -1.24546e-08 2.97501e-09 6.90613e-09 )  
( -4.6711e-09 2.25021e-09 2.62214e-09 )  
( -9.72046e-09 2.45217e-09 5.55773e-09 )  
( -7.80022e-09 1.58675e-09 4.46591e-09 )  
( -1.18696e-08 2.7332e-09 5.82473e-09 )  
( -1.49451e-08 3.22879e-09 7.2574e-09 )  
( -1.21645e-08 -3.25665e-10 7.5915e-09 )  
( 2.79501e-10 6.02671e-10 8.82511e-10 )  
( -1.73971e-08 1.0456e-09 9.86039e-09 )  
( -4.65516e-09 -6.83703e-10 1.35521e-09 )  
( -2.6593e-09 8.67462e-10 3.63968e-09 )  
( -1.3635e-08 -5.50157e-10 9.90522e-09 )  
( -1.12824e-08 2.11494e-09 7.40135e-09 )  
( -2.85945e-09 6.90667e-10 3.8582e-09 )  
( -5.2763e-09 3.02171e-09 3.91038e-09 )  
( -2.20262e-09 2.0937e-09 2.58039e-09 )  
( -1.44164e-08 2.79859e-09 7.63309e-09 )  
( -1.63879e-08 1.00521e-09 8.79235e-09 )  
( -1.48078e-08 1.37242e-09 1.14698e-08 )  
( -1.55281e-08 2.05946e-09 8.17999e-09 )  
( -6.66589e-10 7.44809e-10 1.67853e-09 )  
( -9.20379e-09 2.56239e-09 5.8224e-09 )  
( -9.18185e-09 3.22806e-09 5.05045e-09 )  
( -1.3192e-08 3.32239e-09 5.80238e-09 )  
( -8.0226e-09 1.92486e-09 5.67338e-09 )  
( 6.81453e-11 1.97389e-10 1.14574e-09 )  
( -1.07643e-08 4.24454e-09 3.35449e-09 )  
( -1.92673e-09 1.35456e-09 2.37009e-09 )  
( -1.00492e-08 3.00026e-09 5.54656e-09 )  
( -1.71161e-08 7.87529e-10 1.08686e-08 )  
( -9.85175e-09 -1.09838e-09 5.38835e-09 )  
( -1.5372e-08 2.09959e-09 1.00525e-08 )  
( -1.67749e-08 7.73822e-10 9.60537e-09 )  
( -1.6869e-08 1.87301e-09 1.06739e-08 )  
( -6.13964e-09 2.82923e-09 3.88471e-09 )  
( -4.28311e-09 2.12037e-09 1.61504e-09 )  
( -1.03092e-08 2.63895e-09 6.16455e-09 )  
( -5.02867e-09 2.53325e-09 3.40328e-09 )  
( -1.37912e-08 3.10578e-10 8.36101e-09 )  
( -6.39962e-09 1.64628e-10 2.77171e-09 )  
( -2.22587e-09 1.57322e-09 1.55935e-09 )  
( -6.21724e-09 2.85788e-10 4.10833e-09 )  
( -5.37096e-09 2.6765e-09 3.92627e-09 )  
( -1.44688e-09 1.37622e-09 1.7985e-09 )  
( -1.32344e-08 2.9221e-09 6.25683e-09 )  
( 1.82318e-11 7.44674e-10 6.08474e-10 )  
( -1.61412e-08 1.92509e-09 7.0663e-09 )  
( -2.79599e-09 9.42404e-10 2.19569e-09 )  
( -1.21065e-08 2.919e-09 7.13023e-09 )  
( -2.03879e-10 4.69124e-10 7.11241e-10 )  
( -1.01596e-09 1.01266e-09 1.00323e-09 )  
( -1.54895e-08 1.24166e-09 7.12961e-09 )  
( -6.02871e-10 1.48552e-09 1.92406e-09 )  
( -1.66361e-09 -4.12708e-10 2.15767e-09 )  
( -1.83171e-09 1.27179e-09 1.58199e-09 )  
( -1.24062e-08 2.80286e-09 6.87934e-09 )  
( -9.32611e-09 3.0508e-09 6.08933e-09 )  
( -6.93905e-09 3.40395e-09 1.47183e-09 )  
( 1.11218e-09 1.29882e-09 2.77205e-09 )  
( -6.89111e-09 -6.88286e-10 3.32331e-09 )  
( -1.04455e-09 5.05854e-10 1.0833e-09 )  
( -8.98974e-09 1.40183e-09 5.90834e-09 )  
( -3.23899e-09 1.07352e-09 3.87564e-09 )  
( -1.59136e-08 1.55128e-09 7.60005e-09 )  
( -1.25109e-08 3.69705e-09 5.36148e-09 )  
( -1.45177e-08 9.75562e-10 7.58893e-09 )  
( -1.92447e-08 2.09096e-09 1.2627e-08 )  
( -3.90934e-09 2.34142e-09 3.53313e-09 )  
( -7.32697e-09 8.34241e-09 -5.22077e-10 )  
( -1.12066e-08 1.47532e-09 7.6622e-09 )  
( -8.42106e-09 3.2865e-09 4.29242e-09 )  
( -7.18548e-09 1.3793e-09 5.32788e-09 )  
( -1.69351e-08 1.26336e-09 1.06164e-08 )  
( -1.48318e-08 9.39461e-10 8.19836e-09 )  
( -4.38971e-09 1.24294e-09 3.5839e-09 )  
( -3.54731e-09 -1.29561e-10 1.64512e-09 )  
( -1.58736e-08 1.1956e-09 9.66363e-09 )  
( -4.44491e-09 -3.87973e-10 3.89506e-09 )  
( -1.60479e-08 3.20786e-09 1.15444e-08 )  
( -4.58517e-09 1.70907e-09 5.56592e-09 )  
( -4.82601e-09 1.8135e-09 3.76589e-09 )  
( -2.42041e-09 3.44446e-09 4.97441e-09 )  
( -7.80474e-09 3.42927e-09 4.42483e-09 )  
( -1.72461e-10 6.55512e-10 4.50519e-10 )  
( -1.48306e-08 2.17573e-09 1.01532e-08 )  
( -3.10609e-09 5.70116e-10 3.22806e-09 )  
( -2.54858e-09 2.21366e-09 2.15303e-09 )  
( -4.44453e-09 5.02889e-10 5.63191e-09 )  
( -1.33152e-08 6.69339e-10 6.55571e-09 )  
( -7.30421e-10 5.72772e-10 8.62097e-10 )  
( -2.22592e-09 1.26503e-09 2.02057e-09 )  
( -1.49267e-08 -4.29735e-11 7.16752e-09 )  
( -2.15858e-09 1.35244e-09 6.65473e-10 )  
( -1.23194e-08 2.40748e-09 5.56174e-09 )  
( -1.76111e-08 1.40962e-09 1.07117e-08 )  
( -3.96842e-09 9.95694e-10 3.80865e-09 )  
( 2.75989e-10 1.66109e-09 3.73051e-09 )  
( 8.25149e-11 1.19554e-09 1.27729e-09 )  
( -1.23025e-08 -3.90137e-10 6.46225e-09 )  
( 4.66845e-10 3.26691e-10 8.01283e-10 )  
( -3.90583e-09 -5.82183e-10 1.67989e-09 )  
( -2.2288e-09 8.71461e-10 1.64093e-09 )  
( -3.76329e-10 3.74361e-10 1.32887e-09 )  
( -1.51395e-08 4.96366e-10 8.60019e-09 )  
( -1.49364e-08 1.13823e-09 9.63452e-09 )  
( -1.89934e-09 1.91907e-09 1.73513e-09 )  
( -1.69932e-08 2.84291e-09 1.25147e-08 )  
( -1.65434e-09 -1.02464e-09 3.36183e-09 )  
( -1.57969e-08 2.057e-09 1.0314e-08 )  
( -2.78741e-09 1.34501e-09 2.41539e-09 )  
( -2.78517e-09 2.10642e-09 4.32656e-09 )  
( -6.46462e-09 2.53551e-09 5.03472e-09 )  
( -4.46612e-09 3.30279e-09 4.58666e-09 )  
( -4.04278e-09 3.56861e-09 5.01085e-09 )  
( -1.28441e-08 3.75673e-09 3.2104e-09 )  
( -9.03138e-09 2.6467e-09 5.86101e-09 )  
( -1.45116e-09 1.81778e-09 4.04816e-09 )  
( -8.99007e-09 2.931e-09 6.15418e-09 )  
( -1.46008e-08 1.74255e-09 6.54421e-09 )  
( -1.15987e-08 2.1614e-09 5.38975e-09 )  
( -4.07677e-09 1.1143e-09 4.92177e-09 )  
( -8.56992e-09 3.1552e-09 5.87866e-09 )  
( -1.12509e-08 3.10399e-09 7.15464e-09 )  
( 4.07779e-11 1.25634e-09 2.12547e-09 )  
( -1.2034e-08 3.09462e-09 6.45167e-09 )  
( -5.18526e-10 2.72226e-10 1.17386e-09 )  
( 3.52863e-12 5.1727e-10 7.19057e-10 )  
( -2.92899e-11 8.04915e-10 2.06455e-09 )  
( -6.92473e-09 3.35696e-09 5.95051e-09 )  
( -8.60226e-09 1.1112e-09 4.45675e-09 )  
( 5.92263e-10 8.10424e-10 2.14908e-09 )  
( -1.22894e-09 1.80959e-09 2.82572e-09 )  
( 2.55275e-10 1.29461e-09 2.3632e-09 )  
( -6.57527e-09 2.0217e-09 5.23477e-09 )  
( -1.33141e-09 2.60009e-09 3.40918e-09 )  
( -1.12338e-08 3.97626e-09 2.6056e-09 )  
( -1.12748e-08 3.1868e-09 7.02515e-09 )  
( -1.56302e-09 2.64244e-09 3.47004e-09 )  
( 2.39208e-10 2.67603e-10 6.97476e-10 )  
( -5.65347e-09 1.68357e-09 4.08482e-09 )  
( -4.61915e-09 4.71374e-10 1.68943e-09 )  
( -3.11192e-09 1.88877e-09 4.15841e-09 )  
( -1.43836e-08 2.31826e-09 7.3207e-09 )  
( -9.08314e-10 8.22708e-10 1.85955e-09 )  
( -7.33659e-09 2.86978e-09 5.60505e-09 )  
( -3.63592e-09 3.13768e-09 3.28517e-09 )  
( -4.16199e-11 4.9558e-10 1.71486e-09 )  
( -4.07621e-10 1.31615e-09 2.35936e-09 )  
( -4.58721e-09 2.59533e-09 5.51978e-09 )  
( -2.67911e-09 4.04443e-09 4.4347e-09 )  
( -2.49262e-09 2.82494e-09 3.96106e-09 )  
( -5.41492e-09 2.71177e-09 3.599e-09 )  
( -9.45007e-10 6.63435e-10 1.50045e-09 )  
( -6.9149e-10 1.3154e-09 2.87365e-09 )  
( -1.24724e-08 3.00148e-09 7.19271e-09 )  
( -1.08196e-08 4.75095e-09 2.83059e-09 )  
( -1.05529e-08 2.16194e-09 5.87876e-09 )  
( -7.83962e-09 3.06874e-09 5.33676e-09 )  
( -1.53941e-09 3.79117e-09 4.08522e-09 )  
( 1.05744e-10 2.84254e-10 5.65825e-10 )  
( -1.25674e-10 1.25587e-09 3.11594e-09 )  
( -1.27272e-08 2.90911e-09 4.12828e-09 )  
( -2.35824e-09 1.0419e-09 1.87129e-09 )  
( -9.16347e-09 2.86112e-09 2.27154e-09 )  
( -1.09463e-08 2.69829e-09 6.36167e-09 )  
( -6.71549e-09 3.05939e-09 5.69162e-09 )  
( -4.74401e-09 3.69121e-09 4.78674e-09 )  
( -1.52591e-08 3.30117e-09 5.04685e-09 )  
( -8.08263e-10 2.14076e-09 3.50314e-09 )  
( -6.26651e-09 1.00771e-09 4.91727e-09 )  
( -9.45847e-11 4.8036e-10 1.21939e-09 )  
( -6.00376e-09 1.7592e-09 3.81647e-09 )  
( 2.79207e-10 3.09315e-10 4.32731e-10 )  
( -1.01828e-08 1.96237e-09 3.45227e-09 )  
( -9.10799e-09 2.60776e-09 6.1045e-09 )  
( -3.03304e-09 1.49303e-09 4.83045e-09 )  
( -2.70932e-10 3.15277e-10 1.28712e-09 )  
( 2.52012e-10 1.85112e-10 4.55028e-10 )  
( -5.96164e-09 1.85029e-09 5.56365e-09 )  
( -1.65293e-08 3.81817e-10 8.35709e-09 )  
( -7.68219e-10 7.2157e-10 2.14159e-09 )  
( -1.51123e-08 3.38226e-09 1.28656e-08 )  
( -5.32752e-10 8.29873e-10 6.16881e-10 )  
( -3.53688e-09 -4.67397e-10 3.1283e-09 )  
( -7.99232e-09 2.96242e-09 4.01912e-09 )  
( -1.17655e-08 4.0121e-09 9.17649e-09 )  
( -1.31744e-08 2.91602e-09 5.20971e-09 )  
( -8.50013e-09 2.14128e-09 1.82939e-09 )  
( -1.69202e-09 7.47801e-10 1.87062e-09 )  
( -7.53666e-09 3.7443e-09 -8.78335e-10 )  
( -5.87827e-09 2.06136e-09 4.17376e-09 )  
( -1.48299e-08 3.10435e-09 9.62819e-09 )  
( -3.29569e-09 -1.22015e-09 2.74868e-09 )  
( -1.37905e-08 3.03101e-09 7.12004e-09 )  
( -2.67285e-09 1.06365e-08 -4.13031e-09 )  
( -3.82571e-10 6.55322e-10 1.90029e-09 )  
( -8.99097e-09 2.30063e-09 6.5971e-09 )  
( -7.36226e-09 2.91454e-09 5.46016e-09 )  
( -6.27269e-09 2.3175e-09 4.97527e-09 )  
( -1.47264e-08 1.54932e-09 7.72004e-09 )  
( -1.48704e-08 1.47153e-09 6.69626e-09 )  
( -4.08678e-09 3.34111e-09 4.49231e-09 )  
( -1.6052e-09 1.73529e-09 3.26644e-09 )  
( 1.85037e-10 1.51817e-09 2.8156e-09 )  
( -1.82164e-08 1.52946e-09 6.82778e-09 )  
( -6.56867e-09 1.49297e-09 4.02682e-09 )  
( -1.24319e-08 2.26551e-09 5.58977e-09 )  
( -7.15355e-09 2.9051e-09 4.46732e-09 )  
( -2.94549e-09 2.39334e-09 3.23392e-09 )  
( -1.36004e-08 2.66791e-09 3.1869e-09 )  
( -7.46987e-09 1.01071e-09 4.30229e-09 )  
( -3.96771e-09 2.61287e-09 5.03405e-09 )  
( -2.16562e-09 2.54476e-09 4.19669e-09 )  
( -8.6622e-10 1.27875e-09 2.04997e-09 )  
( 1.95579e-10 6.29627e-10 6.79063e-10 )  
( -1.88784e-09 3.81292e-10 3.4218e-09 )  
( -2.25227e-08 7.30345e-10 1.13036e-08 )  
( -1.34691e-09 1.15481e-09 1.18168e-09 )  
( -5.46723e-09 -2.40548e-09 6.40076e-09 )  
( -5.78883e-09 -1.25661e-08 1.09227e-08 )  
( -1.80016e-08 3.15237e-09 1.33687e-08 )  
( -3.29911e-09 1.32925e-09 3.45219e-09 )  
( -1.0535e-08 1.61104e-09 6.09948e-09 )  
( -4.99294e-09 8.90683e-11 3.53642e-09 )  
( -4.64498e-09 2.78572e-09 2.612e-09 )  
( -1.2862e-08 4.69819e-09 5.45592e-09 )  
( -5.79195e-09 -1.17065e-08 1.13781e-08 )  
( -1.03329e-09 1.47485e-09 1.02048e-09 )  
( -1.51854e-08 2.46806e-09 8.7541e-09 )  
( -6.02364e-09 3.35577e-09 2.78787e-09 )  
( -2.75868e-10 1.15385e-09 2.09353e-09 )  
( -1.97949e-08 4.22574e-09 1.29047e-08 )  
( -2.17537e-09 1.16685e-09 2.79756e-09 )  
( 1.36125e-09 1.30594e-09 1.27346e-09 )  
( -5.88054e-09 1.49782e-09 3.84307e-09 )  
( -3.55772e-10 1.42504e-09 -1.90339e-09 )  
( -1.26278e-08 1.93874e-09 7.72718e-09 )  
( -1.17738e-08 2.85414e-09 8.74123e-09 )  
( -1.07701e-08 3.32508e-09 5.86595e-09 )  
( -1.84355e-08 2.61782e-09 1.21976e-08 )  
( 1.24075e-09 6.97671e-10 8.0159e-10 )  
( -1.41256e-08 -1.53058e-09 1.03122e-08 )  
( -3.98348e-09 1.09078e-09 4.37844e-09 )  
( -1.86985e-08 2.4651e-09 1.07565e-08 )  
( -1.02737e-09 5.12786e-10 1.05216e-09 )  
( -1.85975e-08 4.77647e-09 9.55826e-09 )  
( -1.76452e-09 7.82203e-10 5.39348e-10 )  
( -6.08464e-09 5.59094e-10 3.69546e-09 )  
( -8.05555e-09 2.16478e-09 4.75787e-09 )  
( -5.53803e-09 2.43012e-09 2.83846e-09 )  
( -1.01832e-08 3.57445e-09 2.197e-09 )  
( 5.02238e-10 1.2573e-09 2.0988e-09 )  
( -8.06472e-09 -2.7283e-09 4.90442e-09 )  
( -7.20205e-09 4.51238e-09 1.11523e-09 )  
( -2.54484e-08 -6.04306e-09 1.11e-08 )  
( -9.85783e-09 2.02026e-09 7.0899e-09 )  
( -2.15909e-09 1.97124e-10 3.94025e-09 )  
( -4.09873e-10 1.12293e-09 -1.43535e-09 )  
( -2.19478e-08 7.80475e-10 7.64224e-09 )  
( -2.1694e-08 6.93173e-09 1.18226e-08 )  
( 1.49963e-08 -1.97759e-08 -1.22533e-09 )  
( -5.93409e-10 9.76577e-10 8.10658e-10 )  
( -7.06567e-09 3.55093e-09 1.00068e-09 )  
( -1.07386e-09 1.41687e-09 2.00384e-09 )  
( -1.91325e-08 4.00959e-09 1.20712e-08 )  
( 3.58037e-09 1.34631e-09 1.00608e-09 )  
( -5.47984e-09 3.74957e-09 2.59116e-09 )  
( -5.97282e-09 1.5443e-09 3.75824e-09 )  
( -1.48447e-08 3.31086e-09 7.32667e-09 )  
( -1.05517e-08 2.29672e-09 6.48696e-09 )  
( -1.74555e-08 7.14015e-10 1.06167e-08 )  
( -1.50988e-09 9.04066e-10 8.52533e-11 )  
( -2.13732e-08 -4.36248e-09 8.10587e-09 )  
)
