/*--------------------------------*- C++ -*----------------------------------*\
| =========                 |                                                 |
| \\      /  F ield         | OpenFOAM: The Open Source CFD Toolbox           |
|  \\    /   O peration     | Version:  4.x                                   |
|   \\  /    A nd           | Web:      www.OpenFOAM.org                      |
|    \\/     M anipulation  |                                                 |
\*---------------------------------------------------------------------------*/
FoamFile
{
    version     2.0;
    format      ascii;
    class       volScalarField;
    location    "33";
    object      Deff;
}
// * * * * * * * * * * * * * * * * * * * * * * * * * * * * * * * * * * * * * //

dimensions      [0 2 -1 0 0 0 0];

internalField   nonuniform List<scalar> 
108
(
9.87832e-08
9.88635e-08
9.87482e-08
9.88803e-08
9.88499e-08
9.88858e-08
9.8736e-08
9.87191e-08
9.87686e-08
9.878e-08
9.86475e-08
9.87538e-08
9.87913e-08
9.87642e-08
9.88173e-08
9.86593e-08
9.86471e-08
9.86677e-08
9.8793e-08
9.87324e-08
9.87057e-08
9.88003e-08
9.87738e-08
9.88165e-08
9.86844e-08
9.86604e-08
9.87428e-08
9.8962e-08
9.89433e-08
9.88821e-08
9.87488e-08
9.87695e-08
9.88184e-08
9.88442e-08
9.86991e-08
9.87981e-08
9.84004e-08
9.84077e-08
9.8249e-08
9.82735e-08
9.8327e-08
9.8353e-08
9.8279e-08
9.82393e-08
9.82037e-08
9.84112e-08
9.83798e-08
9.82925e-08
9.83215e-08
9.83465e-08
9.83276e-08
9.81788e-08
9.82017e-08
9.82275e-08
9.83094e-08
9.83505e-08
9.83176e-08
9.83007e-08
9.8335e-08
9.8308e-08
9.82775e-08
9.82351e-08
9.82416e-08
9.84967e-08
9.85579e-08
9.84706e-08
9.8421e-08
9.83306e-08
9.84054e-08
9.83516e-08
9.83002e-08
9.83703e-08
9.80605e-08
9.79786e-08
9.79427e-08
9.79389e-08
9.79994e-08
9.79461e-08
9.78444e-08
9.79028e-08
9.79431e-08
9.80635e-08
9.81088e-08
9.80062e-08
9.81435e-08
9.81053e-08
9.79276e-08
9.78688e-08
9.78317e-08
9.79555e-08
9.82274e-08
9.80941e-08
9.80441e-08
9.81291e-08
9.80519e-08
9.79289e-08
9.7941e-08
9.79181e-08
9.80081e-08
9.82108e-08
9.83473e-08
9.82446e-08
9.81986e-08
9.81363e-08
9.80252e-08
9.80131e-08
9.79363e-08
9.79463e-08
)
;

boundaryField
{
    inlet
    {
        type            calculated;
        value           nonuniform 0();
    }
    outlet
    {
        type            calculated;
        value           uniform 0;
    }
    wall
    {
        type            calculated;
        value           uniform 0;
    }
    procBoundary3to1
    {
        type            processor;
        value           uniform 0;
    }
    procBoundary3to2
    {
        type            processor;
        value           uniform 0;
    }
    procBoundary3to7
    {
        type            processor;
        value           uniform 0;
    }
}


// ************************************************************************* //
