/*--------------------------------*- C++ -*----------------------------------*\
| =========                 |                                                 |
| \\      /  F ield         | OpenFOAM: The Open Source CFD Toolbox           |
|  \\    /   O peration     | Version:  4.x                                   |
|   \\  /    A nd           | Web:      www.OpenFOAM.org                      |
|    \\/     M anipulation  |                                                 |
\*---------------------------------------------------------------------------*/
FoamFile
{
    version     2.0;
    format      ascii;
    class       volVectorField;
    location    "44";
    object      Us;
}
// * * * * * * * * * * * * * * * * * * * * * * * * * * * * * * * * * * * * * //

dimensions      [0 1 -1 0 0 0 0];

internalField   nonuniform List<vector> 
132
(
(-3.81307e-10 2.73528e-10 3.03618e-10)
(-4.23425e-10 5.45415e-10 6.78827e-10)
(3.81105e-09 4.32809e-09 1.52999e-09)
(1.73062e-09 -6.61536e-10 -7.13247e-10)
(-1.09162e-09 -9.49261e-11 -2.68452e-10)
(-7.38867e-10 -3.70419e-11 2.32388e-10)
(-7.57524e-10 2.58917e-10 8.30537e-10)
(-5.38447e-10 3.65541e-10 4.31445e-11)
(-1.60699e-10 -5.98042e-11 4.43272e-10)
(-5.16252e-11 4.23929e-10 2.9963e-10)
(3.41057e-10 8.3293e-10 5.96081e-10)
(2.11837e-09 1.1254e-09 5.52651e-10)
(1.40217e-09 -1.12009e-09 6.32501e-11)
(4.43504e-10 -7.04393e-10 6.27963e-11)
(-1.00628e-11 -2.23115e-10 4.43068e-10)
(8.12251e-10 -2.3303e-10 9.818e-10)
(1.87057e-09 -4.35362e-10 1.73209e-09)
(3.26707e-09 -2.65932e-09 3.88695e-09)
(3.1305e-10 5.10296e-10 3.15719e-10)
(6.10121e-10 5.21017e-10 4.92479e-10)
(1.10878e-09 6.24484e-10 5.34587e-10)
(8.51024e-10 -2.47592e-10 5.28441e-10)
(7.95786e-10 -4.23325e-10 5.19688e-10)
(9.99669e-10 -3.26099e-10 5.68823e-10)
(1.1754e-09 -4.02496e-10 9.99909e-10)
(2.12815e-09 -1.19605e-09 1.84202e-09)
(2.39229e-09 -2.30973e-09 2.55642e-09)
(1.80021e-10 3.55496e-10 2.25511e-10)
(5.56967e-10 2.11373e-10 4.09481e-10)
(5.32855e-10 4.72424e-11 4.99873e-10)
(-1.88221e-10 2.02813e-10 5.46115e-10)
(1.99463e-10 3.81896e-10 1.07899e-09)
(1.22268e-09 3.28085e-10 1.37213e-09)
(1.7572e-09 -3.18905e-10 -1.15279e-09)
(1.69712e-10 -1.64117e-10 -5.5066e-10)
(-2.97394e-10 -7.98747e-11 9.43158e-11)
(-4.9132e-10 -1.48069e-10 5.78813e-10)
(2.77252e-10 2.26845e-11 -5.04891e-10)
(-1.42031e-09 -1.34092e-09 3.19728e-09)
(5.69616e-11 3.24877e-10 3.83358e-10)
(5.07072e-10 6.39477e-10 8.20396e-10)
(1.42543e-09 4.24871e-10 9.47675e-10)
(1.41393e-09 -3.46429e-10 -6.41427e-11)
(4.01392e-10 -5.24205e-10 -1.23513e-10)
(-2.66016e-11 -2.54727e-10 2.87216e-10)
(-6.37016e-11 -1.85098e-10 8.08973e-10)
(2.47582e-10 -4.49944e-10 1.61107e-09)
(-3.38215e-10 2.69301e-11 4.68123e-09)
(1.16643e-10 3.10143e-10 2.78366e-10)
(5.49054e-10 4.87863e-10 5.60236e-10)
(9.15045e-10 3.0519e-10 5.6903e-10)
(9.72278e-10 -1.19305e-10 4.55766e-10)
(7.6696e-10 -2.93307e-10 4.34558e-10)
(7.28508e-10 -3.75388e-10 5.31547e-10)
(9.72321e-10 -3.92836e-10 1.0346e-09)
(9.95421e-10 -6.94437e-10 1.82028e-09)
(1.56211e-09 -8.87277e-10 3.07941e-09)
(1.3341e-10 2.7551e-10 2.81583e-10)
(4.1888e-10 2.67286e-10 4.52987e-10)
(6.1759e-10 2.14396e-10 6.65981e-10)
(7.22009e-10 -1.21521e-10 6.33826e-10)
(7.46714e-10 -3.53421e-10 8.13556e-10)
(6.58605e-11 9.08303e-11 4.20559e-10)
(2.56422e-10 1.08635e-10 6.25419e-10)
(5.98603e-10 6.41672e-11 6.21195e-10)
(5.70066e-10 -8.16412e-12 -3.50161e-11)
(2.69001e-10 -1.48308e-11 -1.5231e-10)
(-8.72163e-11 8.64481e-11 3.52447e-10)
(-3.72752e-10 -5.53269e-11 7.65497e-10)
(-3.30443e-11 -4.36904e-11 5.50637e-10)
(-1.39615e-09 -7.77161e-10 4.19102e-09)
(1.06163e-10 1.4819e-10 4.23649e-10)
(3.5812e-10 2.0562e-10 6.66811e-10)
(7.01107e-10 7.84297e-11 6.95967e-10)
(9.08519e-10 6.05249e-11 4.71e-10)
(4.31146e-10 -1.00072e-10 1.13111e-10)
(1.99112e-10 -1.75805e-10 4.58208e-10)
(3.86399e-11 -2.67017e-10 8.5125e-10)
(-3.48667e-11 -4.74447e-10 1.46192e-09)
(-1.75286e-09 1.41449e-09 4.71315e-09)
(1.06692e-10 1.90056e-10 3.06014e-10)
(3.73503e-10 2.59269e-10 5.41941e-10)
(7.3843e-10 1.63257e-10 6.18317e-10)
(8.16825e-10 4.03683e-11 5.59233e-10)
(8.78625e-10 -4.10412e-11 5.33929e-10)
(1.09387e-09 -9.42371e-11 7.58362e-10)
(5.89209e-10 -2.40297e-10 8.58602e-10)
(6.31987e-10 9.34413e-11 1.72724e-09)
(1.45748e-10 1.51161e-09 3.19899e-09)
(5.27606e-11 9.00892e-11 3.27203e-10)
(4.77414e-10 -8.3708e-11 6.09128e-10)
(6.62913e-10 -6.80914e-11 7.28451e-10)
(8.77521e-10 -2.04628e-10 8.16165e-10)
(1.06217e-09 -3.92869e-10 9.22854e-10)
(1.35964e-09 -2.50811e-10 9.0304e-10)
(1.87717e-09 -8.94137e-11 9.21898e-10)
(5.80858e-11 6.41309e-11 2.60879e-10)
(1.98281e-10 7.00814e-11 3.32373e-10)
(3.044e-10 1.02233e-11 3.34321e-10)
(2.61306e-10 6.9843e-11 1.84266e-10)
(2.03093e-10 1.86989e-11 1.11437e-10)
(-8.56626e-12 6.22259e-11 3.40449e-10)
(-1.75513e-10 1.12078e-10 5.40001e-10)
(-1.82048e-11 -9.15172e-11 1.21125e-09)
(-1.16972e-10 -3.3544e-10 2.93306e-09)
(7.26486e-11 6.7421e-11 2.70227e-10)
(2.53831e-10 1.40042e-10 4.00319e-10)
(3.73928e-10 1.17887e-10 4.22491e-10)
(6.23487e-10 2.23981e-10 3.61948e-10)
(5.00683e-10 2.28235e-10 2.69581e-10)
(3.24611e-10 2.15338e-10 4.97888e-10)
(1.65995e-10 1.21277e-10 7.03465e-10)
(1.26112e-10 -6.08569e-12 1.23194e-09)
(-1.38866e-10 3.16299e-10 1.97668e-09)
(2.13753e-10 2.27312e-10 3.32441e-10)
(4.20636e-10 1.87894e-10 3.95361e-10)
(6.8828e-10 2.05801e-10 4.79442e-10)
(9.1908e-10 2.62359e-10 4.10688e-10)
(1.20809e-09 3.67832e-10 5.39071e-10)
(1.24757e-09 3.09825e-10 6.61308e-10)
(1.4187e-09 3.21046e-10 6.926e-10)
(1.3335e-09 2.41654e-10 1.41904e-09)
(1.09989e-09 6.99695e-10 2.06674e-09)
(9.61362e-11 9.7547e-11 2.51466e-10)
(5.61007e-10 -3.60985e-11 4.11579e-10)
(9.31532e-10 2.05179e-11 3.35461e-10)
(1.79803e-09 1.84339e-10 5.06944e-10)
(2.31562e-09 3.85089e-10 6.02586e-10)
(2.37021e-09 4.30587e-11 8.07737e-10)
(2.70799e-09 2.41866e-10 8.37669e-10)
(2.6178e-09 1.27576e-10 1.08666e-09)
(3.37252e-09 -4.9807e-10 1.43309e-09)
)
;

boundaryField
{
    inlet
    {
        type            zeroGradient;
    }
    outlet
    {
        type            zeroGradient;
    }
    wall
    {
        type            zeroGradient;
    }
    procBoundary0to1
    {
        type            processor;
        value           nonuniform List<vector> 
12
(
(1.03654e-08 7.16902e-09 2.60446e-08)
(4.24773e-09 -5.68055e-09 1.14822e-08)
(5.55834e-09 -7.25366e-09 4.50185e-09)
(-5.23294e-09 4.55845e-09 1.75835e-08)
(-2.46272e-09 2.22146e-10 1.20612e-08)
(2.92823e-09 -2.1063e-09 3.78867e-09)
(-6.63771e-10 3.77675e-11 3.39654e-09)
(-1.98448e-10 4.57519e-10 4.8281e-09)
(2.52065e-09 -1.55367e-10 3.36399e-09)
(2.81561e-10 1.47257e-10 2.15445e-09)
(7.29369e-10 4.30756e-10 2.19482e-09)
(2.4763e-09 2.34048e-10 1.83531e-09)
)
;
    }
    procBoundary0to2
    {
        type            processor;
        value           nonuniform List<vector> 
44
(
(7.5036e-10 -1.52777e-10 5.51963e-10)
(8.26714e-10 -2.7877e-10 7.55959e-10)
(1.32552e-09 -6.7219e-10 7.43876e-10)
(1.65492e-09 -7.6683e-10 1.0863e-09)
(2.69047e-09 -1.89637e-09 1.79985e-09)
(3.12983e-09 -2.84746e-09 2.02992e-09)
(3.99844e-10 2.40083e-11 1.53568e-10)
(3.44843e-10 -4.36431e-12 3.84743e-10)
(7.5036e-10 -1.52777e-10 5.51963e-10)
(4.25704e-10 -1.74674e-10 5.39084e-10)
(7.5036e-10 -1.52777e-10 5.51963e-10)
(8.26714e-10 -2.7877e-10 7.55959e-10)
(1.13543e-09 -4.80853e-10 8.05706e-10)
(1.40654e-09 -5.76999e-10 1.17077e-09)
(2.18149e-09 -1.19938e-09 1.51822e-09)
(2.75502e-09 -1.75688e-09 1.85802e-09)
(1.00157e-10 5.67658e-11 7.08653e-11)
(2.60194e-10 5.7644e-11 2.98836e-10)
(3.44043e-10 -6.47073e-11 4.83261e-10)
(3.94513e-10 -2.42755e-10 5.57318e-10)
(1.13543e-09 -4.80853e-10 8.05706e-10)
(4.26234e-10 -5.5025e-10 5.97558e-10)
(1.13543e-09 -4.80853e-10 8.05706e-10)
(1.40654e-09 -5.76999e-10 1.17077e-09)
(2.39088e-09 -3.29048e-10 1.46595e-09)
(2.79514e-09 -6.11481e-10 1.69419e-09)
(1.00702e-10 -3.65301e-11 2.03846e-10)
(1.79171e-10 -8.70028e-11 3.80631e-10)
(3.37485e-10 -1.3112e-10 5.38263e-10)
(4.30141e-10 -2.67682e-10 7.37883e-10)
(4.75483e-10 -4.98442e-10 8.01e-10)
(8.81613e-10 -3.6915e-10 6.69017e-10)
(2.39088e-09 -3.29048e-10 1.46595e-09)
(1.16735e-09 -5.93544e-10 7.75934e-10)
(2.39088e-09 -3.29048e-10 1.46595e-09)
(2.79514e-09 -6.11481e-10 1.69419e-09)
(1.1679e-10 5.02521e-12 1.49112e-10)
(4.04568e-10 -1.37491e-10 3.03137e-10)
(6.53825e-10 -2.63887e-10 4.98865e-10)
(8.22087e-10 -2.11103e-10 5.10382e-10)
(1.11383e-09 -1.61392e-10 7.22101e-10)
(1.70342e-09 -2.42287e-10 4.1491e-10)
(2.07167e-09 -2.60986e-10 7.03767e-10)
(2.80719e-09 -4.49436e-10 5.59088e-10)
)
;
    }
    procBoundary0to4
    {
        type            processor;
        value           nonuniform List<vector> 
36
(
(3.75484e-11 2.90251e-11 1.34104e-10)
(1.44546e-10 5.43181e-11 1.25171e-10)
(1.78348e-10 5.46566e-11 1.3181e-10)
(2.03952e-10 7.18447e-11 1.46103e-10)
(1.85891e-10 1.60622e-10 1.1911e-10)
(9.89132e-11 1.0507e-10 2.17248e-10)
(8.69303e-11 3.56788e-11 4.18436e-10)
(8.15941e-11 1.04947e-10 6.63825e-10)
(-1.26435e-10 -1.72158e-11 9.6547e-10)
(6.54878e-11 2.16424e-11 1.4616e-10)
(2.42694e-10 1.84639e-11 1.49935e-10)
(3.15383e-10 7.07655e-11 2.21584e-10)
(3.94724e-10 8.62747e-11 2.40472e-10)
(4.78427e-10 1.56298e-10 2.69809e-10)
(5.4707e-10 1.33461e-10 3.521e-10)
(3.87122e-10 9.12968e-11 6.05166e-10)
(2.34123e-10 1.08901e-10 9.10711e-10)
(3.47689e-10 1.64892e-10 1.32762e-09)
(1.04847e-10 6.26111e-11 1.48561e-10)
(3.51926e-10 1.34153e-10 2.45148e-10)
(5.44556e-10 1.28318e-10 3.09884e-10)
(7.90288e-10 1.14314e-10 2.37607e-10)
(9.2486e-10 2.14384e-10 3.86006e-10)
(1.23518e-09 2.17835e-10 4.22294e-10)
(1.15933e-09 2.07914e-10 5.43494e-10)
(1.14588e-09 6.78339e-11 7.96808e-10)
(2.21039e-09 -7.76871e-11 7.86423e-10)
(1.22514e-10 3.65184e-11 1.20928e-10)
(3.88977e-10 -3.21234e-11 1.35475e-10)
(6.82182e-10 -8.76959e-11 3.84629e-11)
(9.09671e-10 2.66131e-12 -2.85472e-11)
(1.38706e-09 1.28827e-10 3.2941e-10)
(1.98516e-09 1.85864e-10 4.81029e-10)
(1.90216e-09 2.75473e-10 4.73447e-10)
(2.5992e-09 -1.03323e-10 1.49967e-10)
(3.25898e-09 -2.23571e-10 4.30778e-10)
)
;
    }
    procBoundary0to6
    {
        type            processor;
        value           uniform (3.18537e-09 -2.10934e-10 4.40045e-10);
    }
    procBoundary0to7
    {
        type            processor;
        value           uniform (4.2933e-09 -3.32002e-10 1.15002e-09);
    }
}


// ************************************************************************* //
