/*--------------------------------*- C++ -*----------------------------------*\
| =========                 |                                                 |
| \\      /  F ield         | OpenFOAM: The Open Source CFD Toolbox           |
|  \\    /   O peration     | Version:  4.x                                   |
|   \\  /    A nd           | Web:      www.OpenFOAM.org                      |
|    \\/     M anipulation  |                                                 |
\*---------------------------------------------------------------------------*/
FoamFile
{
    version     2.0;
    format      ascii;
    class       volVectorField;
    location    "17.5";
    object      impParticleForces;
}
// * * * * * * * * * * * * * * * * * * * * * * * * * * * * * * * * * * * * * //

dimensions      [1 1 -2 0 0 0 0];

internalField   nonuniform List<vector> 
132
(
(0.0022594 -2.47682e-05 -9.60481e-05)
(0.0022752 -2.48223e-05 -9.59538e-05)
(0.00231786 -2.45747e-05 -9.47281e-05)
(0.00233782 -2.29664e-05 -9.02393e-05)
(0.00238294 -2.10757e-05 -8.46889e-05)
(0.00241584 -1.80027e-05 -7.66187e-05)
(0.00245511 -1.36337e-05 -6.7247e-05)
(0.00243145 -5.62327e-06 -5.40409e-05)
(0.00242638 8.63745e-06 -4.01203e-05)
(0.00228114 -2.26745e-05 -9.79473e-05)
(0.00231349 -2.3126e-05 -9.898e-05)
(0.00236223 -2.31137e-05 -9.81961e-05)
(0.00238283 -2.15231e-05 -9.34943e-05)
(0.00242162 -1.97825e-05 -8.76439e-05)
(0.00245434 -1.7266e-05 -7.94115e-05)
(0.00247299 -1.35747e-05 -6.89033e-05)
(0.00247027 -7.62157e-06 -5.56256e-05)
(0.00248785 1.35181e-06 -4.16588e-05)
(0.00229697 -1.708e-05 -9.93509e-05)
(0.00233598 -1.74862e-05 -0.000100834)
(0.00238312 -1.72692e-05 -9.9828e-05)
(0.00240458 -1.59648e-05 -9.49679e-05)
(0.00245607 -1.4892e-05 -8.95672e-05)
(0.00245617 -1.27357e-05 -8.01165e-05)
(0.00247402 -1.02485e-05 -6.97418e-05)
(0.00247019 -6.28032e-06 -5.60814e-05)
(0.00250063 -1.34481e-06 -4.24453e-05)
(0.00230613 -9.04225e-06 -9.95882e-05)
(0.00233103 -8.78655e-06 -0.000100291)
(0.00237107 -8.19031e-06 -9.91184e-05)
(0.00228912 -2.62387e-05 -9.62723e-05)
(0.00232287 -2.69063e-05 -9.75563e-05)
(0.00236934 -2.68424e-05 -9.69755e-05)
(0.00239427 -2.52475e-05 -9.22761e-05)
(0.00243436 -2.34208e-05 -8.66249e-05)
(0.00244845 -2.02791e-05 -7.76037e-05)
(0.00248253 -1.65134e-05 -6.84641e-05)
(0.00245573 -9.89173e-06 -5.45981e-05)
(0.00246721 -5.59014e-07 -4.08772e-05)
(0.00231921 -2.42563e-05 -9.87534e-05)
(0.00237646 -2.55505e-05 -0.000101892)
(0.00242314 -2.55211e-05 -0.000101407)
(0.00244416 -2.3858e-05 -9.61222e-05)
(0.0024992 -2.26392e-05 -9.10905e-05)
(0.00249886 -1.95137e-05 -8.08209e-05)
(0.00252926 -1.66765e-05 -7.08403e-05)
(0.00250584 -1.12485e-05 -5.63387e-05)
(0.00251792 -4.68078e-06 -4.16566e-05)
(0.00234115 -1.81581e-05 -0.000100666)
(0.00239507 -1.90691e-05 -0.000103601)
(0.00244306 -1.88495e-05 -0.000103085)
(0.00246246 -1.75369e-05 -9.74618e-05)
(0.00250684 -1.63569e-05 -9.16528e-05)
(0.00250718 -1.43444e-05 -8.15553e-05)
(0.00254168 -1.25392e-05 -7.1651e-05)
(0.00249397 -8.36883e-06 -5.58185e-05)
(0.00250104 -4.13626e-06 -4.09991e-05)
(0.00236269 -9.2823e-06 -0.000102198)
(0.00239201 -9.09635e-06 -0.000103304)
(0.00244899 -8.65267e-06 -0.000103848)
(0.00246247 -7.70695e-06 -9.77425e-05)
(0.00252908 -6.82216e-06 -9.38259e-05)
(0.00230213 -2.78457e-05 -9.06955e-05)
(0.00233393 -2.85308e-05 -9.18615e-05)
(0.00238561 -2.86911e-05 -9.15685e-05)
(0.00239471 -2.67245e-05 -8.63858e-05)
(0.00243073 -2.49537e-05 -8.07481e-05)
(0.00243037 -2.20042e-05 -7.1797e-05)
(0.00245893 -1.9271e-05 -6.27765e-05)
(0.00243165 -1.43568e-05 -5.01062e-05)
(0.0024328 -8.80646e-06 -3.69303e-05)
(0.00234264 -2.60304e-05 -9.37303e-05)
(0.00238815 -2.71174e-05 -9.59505e-05)
(0.00243569 -2.71846e-05 -9.54301e-05)
(0.00244569 -2.52476e-05 -8.99027e-05)
(0.00249018 -2.39052e-05 -8.43988e-05)
(0.00247539 -2.08306e-05 -7.42592e-05)
(0.00251082 -1.90349e-05 -6.49464e-05)
(0.00247838 -1.45568e-05 -5.12878e-05)
(0.00248228 -1.0173e-05 -3.72683e-05)
(0.00236335 -1.92582e-05 -9.52639e-05)
(0.00240343 -1.98988e-05 -9.73794e-05)
(0.00246013 -2.00877e-05 -9.75186e-05)
(0.00247521 -1.87681e-05 -9.20548e-05)
(0.00251522 -1.77487e-05 -8.58244e-05)
(0.00249095 -1.535e-05 -7.47489e-05)
(0.00251163 -1.37824e-05 -6.39961e-05)
(0.00245451 -1.0046e-05 -4.94371e-05)
(0.00245301 -6.88643e-06 -3.55093e-05)
(0.00237645 -9.22815e-06 -9.63406e-05)
(0.00241527 -9.18816e-06 -9.84913e-05)
(0.00247658 -8.79944e-06 -9.90243e-05)
(0.00248068 -7.97068e-06 -9.29035e-05)
(0.00251455 -7.27321e-06 -8.65573e-05)
(0.00249624 -6.42992e-06 -7.57386e-05)
(0.00250931 -5.37414e-06 -6.46524e-05)
(0.00229425 -2.90631e-05 -7.99495e-05)
(0.0023258 -2.98308e-05 -8.07835e-05)
(0.00238217 -3.03572e-05 -8.06237e-05)
(0.00238161 -2.79943e-05 -7.5672e-05)
(0.00241741 -2.63702e-05 -7.06511e-05)
(0.00241658 -2.37181e-05 -6.30684e-05)
(0.00243258 -2.14118e-05 -5.42491e-05)
(0.00240018 -1.763e-05 -4.29181e-05)
(0.00241629 -1.47783e-05 -3.15952e-05)
(0.00233912 -2.72005e-05 -8.25364e-05)
(0.00239228 -2.87782e-05 -8.45597e-05)
(0.00244346 -2.90686e-05 -8.41064e-05)
(0.00244456 -2.67375e-05 -7.90082e-05)
(0.00246162 -2.46527e-05 -7.27538e-05)
(0.00244819 -2.18523e-05 -6.39964e-05)
(0.00248058 -2.02796e-05 -5.52584e-05)
(0.00243287 -1.65639e-05 -4.29626e-05)
(0.00244553 -1.40612e-05 -3.0758e-05)
(0.00236094 -2.02067e-05 -8.40353e-05)
(0.00239907 -2.07707e-05 -8.53178e-05)
(0.00246511 -2.12219e-05 -8.56987e-05)
(0.00245493 -1.94198e-05 -7.98489e-05)
(0.00248063 -1.82306e-05 -7.36132e-05)
(0.00246294 -1.61078e-05 -6.41369e-05)
(0.00247494 -1.43349e-05 -5.39317e-05)
(0.00241782 -1.14992e-05 -4.13831e-05)
(0.00243079 -9.61283e-06 -2.90429e-05)
(0.0023608 -9.48169e-06 -8.42789e-05)
(0.00240972 -9.48496e-06 -8.63229e-05)
(0.00247725 -9.32076e-06 -8.68819e-05)
(0.00247358 -8.46701e-06 -8.14894e-05)
(0.00247422 -7.8354e-06 -7.3941e-05)
(0.00246539 -6.93963e-06 -6.47622e-05)
(0.00246978 -5.97186e-06 -5.40986e-05)
(0.00241003 -4.13333e-06 -4.13444e-05)
(0.00239748 -2.32143e-06 -2.87627e-05)
)
;

boundaryField
{
    inlet
    {
        type            zeroGradient;
    }
    outlet
    {
        type            zeroGradient;
    }
    wall
    {
        type            zeroGradient;
    }
    procBoundary0to1
    {
        type            processor;
        value           nonuniform List<vector> 
12
(
(0.00245033 3.96545e-05 -2.54264e-05)
(0.00248442 1.62785e-05 -2.61166e-05)
(0.00248304 6.04631e-06 -2.65161e-05)
(0.00246939 1.40655e-05 -2.61891e-05)
(0.00251358 4.69901e-06 -2.60555e-05)
(0.00249723 1.21893e-06 -2.51875e-05)
(0.00242563 -1.98487e-06 -2.34328e-05)
(0.002458 -4.55536e-06 -2.25786e-05)
(0.00244737 -3.31579e-06 -2.13115e-05)
(0.00239626 -1.1178e-05 -1.95326e-05)
(0.00242922 -1.0952e-05 -1.83978e-05)
(0.00240975 -7.08007e-06 -1.69665e-05)
)
;
    }
    procBoundary0to2
    {
        type            processor;
        value           nonuniform List<vector> 
44
(
(0.00241584 -7.35336e-06 -9.57965e-05)
(0.00245453 -6.53734e-06 -8.99845e-05)
(0.00245662 -5.57325e-06 -8.08588e-05)
(0.00249019 -4.28459e-06 -7.12832e-05)
(0.00246163 -1.85681e-06 -5.67958e-05)
(0.00246745 1.23166e-06 -4.23455e-05)
(0.00231347 -4.29132e-07 -9.89813e-05)
(0.00234452 1.63312e-07 -0.000100314)
(0.00241584 -7.35336e-06 -9.57965e-05)
(0.00239091 9.03768e-07 -9.93908e-05)
(0.00241584 -7.35336e-06 -9.57965e-05)
(0.00245453 -6.53734e-06 -8.99845e-05)
(0.00252206 -6.21644e-06 -8.31933e-05)
(0.00255415 -5.15072e-06 -7.34645e-05)
(0.00249622 -2.64783e-06 -5.66993e-05)
(0.00251104 -2.54302e-08 -4.19817e-05)
(0.00234066 3.07639e-07 -9.94743e-05)
(0.00239267 9.84186e-07 -0.000102425)
(0.00246015 1.94996e-06 -0.000103606)
(0.00247684 2.36324e-06 -9.82188e-05)
(0.00252206 -6.21644e-06 -8.31933e-05)
(0.00251441 2.8388e-06 -9.24415e-05)
(0.00252206 -6.21644e-06 -8.31933e-05)
(0.00255415 -5.15072e-06 -7.34645e-05)
(0.00245704 -3.38059e-06 -4.99641e-05)
(0.00245698 -1.16104e-06 -3.58153e-05)
(0.00236493 1.21765e-06 -9.49875e-05)
(0.00239996 1.77141e-06 -9.6643e-05)
(0.00245859 2.62948e-06 -9.72456e-05)
(0.00246796 2.74491e-06 -9.19346e-05)
(0.00249164 2.89536e-06 -8.54483e-05)
(0.00248166 2.66548e-06 -7.55625e-05)
(0.00245704 -3.38059e-06 -4.99641e-05)
(0.00250542 3.17303e-06 -6.56138e-05)
(0.00245704 -3.38059e-06 -4.99641e-05)
(0.00245698 -1.16104e-06 -3.58153e-05)
(0.00236636 1.71575e-06 -8.45171e-05)
(0.00241923 2.46301e-06 -8.66762e-05)
(0.00247242 3.30387e-06 -8.69942e-05)
(0.00245731 2.8359e-06 -8.10695e-05)
(0.00247539 2.83071e-06 -7.48383e-05)
(0.00244716 2.5346e-06 -6.48779e-05)
(0.00246115 3.03288e-06 -5.49386e-05)
(0.0024189 3.69415e-06 -4.24403e-05)
)
;
    }
    procBoundary0to4
    {
        type            processor;
        value           nonuniform List<vector> 
36
(
(0.00228879 -3.0096e-05 -6.7647e-05)
(0.00231679 -3.08393e-05 -6.79232e-05)
(0.00237295 -3.15813e-05 -6.72505e-05)
(0.00238076 -2.95071e-05 -6.37565e-05)
(0.00240989 -2.76693e-05 -5.9147e-05)
(0.00239145 -2.45983e-05 -5.22457e-05)
(0.00241711 -2.28412e-05 -4.46205e-05)
(0.00238473 -1.99765e-05 -3.47142e-05)
(0.00240149 -1.84572e-05 -2.46365e-05)
(0.00233772 -2.83782e-05 -6.92305e-05)
(0.00237386 -2.94305e-05 -6.96782e-05)
(0.00243543 -3.03978e-05 -6.93006e-05)
(0.00243838 -2.81084e-05 -6.56285e-05)
(0.00245534 -2.59745e-05 -6.03465e-05)
(0.00242764 -2.28036e-05 -5.26502e-05)
(0.00244278 -2.09869e-05 -4.43666e-05)
(0.00240297 -1.81244e-05 -3.39242e-05)
(0.00243422 -1.71436e-05 -2.34113e-05)
(0.00236031 -2.11168e-05 -7.04639e-05)
(0.00240934 -2.22471e-05 -7.15434e-05)
(0.00245368 -2.23381e-05 -7.04262e-05)
(0.00244779 -2.06292e-05 -6.62448e-05)
(0.00245972 -1.91349e-05 -6.03167e-05)
(0.0024257 -1.66461e-05 -5.204e-05)
(0.00243669 -1.5007e-05 -4.31014e-05)
(0.00240715 -1.3074e-05 -3.27047e-05)
(0.00240386 -1.14095e-05 -2.15409e-05)
(0.00234927 -9.77089e-06 -7.05642e-05)
(0.00240254 -1.02282e-05 -7.14587e-05)
(0.00245527 -1.00508e-05 -7.08903e-05)
(0.00243799 -9.42082e-06 -6.62875e-05)
(0.00245994 -9.04359e-06 -6.06393e-05)
(0.00242835 -7.79328e-06 -5.22665e-05)
(0.00244803 -6.78208e-06 -4.31023e-05)
(0.00238647 -5.22929e-06 -3.23542e-05)
(0.00238808 -3.67075e-06 -2.15253e-05)
)
;
    }
    procBoundary0to6
    {
        type            processor;
        value           uniform (0.00242649 5.01734e-06 -2.98598e-05);
    }
    procBoundary0to7
    {
        type            processor;
        value           uniform (0.00240711 -6.18543e-07 -1.69274e-05);
    }
}


// ************************************************************************* //
