/*--------------------------------*- C++ -*----------------------------------*\
| =========                 |                                                 |
| \\      /  F ield         | OpenFOAM: The Open Source CFD Toolbox           |
|  \\    /   O peration     | Version:  4.x                                   |
|   \\  /    A nd           | Web:      www.OpenFOAM.org                      |
|    \\/     M anipulation  |                                                 |
\*---------------------------------------------------------------------------*/
FoamFile
{
    version     2.0;
    format      ascii;
    class       volScalarField;
    location    "17.5";
    object      particleRelTemp;
}
// * * * * * * * * * * * * * * * * * * * * * * * * * * * * * * * * * * * * * //

dimensions      [0 0 0 0 0 0 0];

internalField   nonuniform List<scalar> 
132
(
-1.36832e-07
-1.22653e-07
-1.08733e-07
-8.11002e-08
-6.82212e-08
-4.61126e-08
-2.03452e-08
5.49653e-09
2.15934e-08
-1.33837e-07
-1.08685e-07
-8.58411e-08
-6.82744e-08
-3.59889e-08
-9.66875e-09
3.92612e-08
5.88348e-08
8.63727e-08
-1.24504e-07
-1.02396e-07
-7.39799e-08
-4.01886e-08
-6.37675e-09
3.10166e-08
6.69047e-08
1.04398e-07
1.15513e-07
-1.4022e-07
-1.03751e-07
-8.57003e-08
-1.39204e-07
-1.15386e-07
-9.30155e-08
-6.88786e-08
-4.45247e-08
-1.29887e-08
5.46188e-09
3.97936e-08
5.96452e-08
-1.35455e-07
-1.08812e-07
-7.34656e-08
-4.50333e-08
-1.76826e-08
1.2134e-08
5.22502e-08
9.1739e-08
1.12761e-07
-1.32407e-07
-9.86359e-08
-6.04964e-08
-2.50763e-08
1.47374e-08
4.43334e-08
9.46334e-08
1.29366e-07
1.53042e-07
-1.28556e-07
-9.39285e-08
-5.27074e-08
2.15128e-10
4.37605e-08
-1.35653e-07
-1.16426e-07
-8.83818e-08
-5.83649e-08
-3.22169e-08
3.22843e-09
3.21207e-08
6.22334e-08
8.41394e-08
-1.32079e-07
-1.05531e-07
-7.33405e-08
-4.37777e-08
-6.85454e-09
3.41588e-08
6.68013e-08
1.02399e-07
1.26733e-07
-1.3119e-07
-1.00824e-07
-5.99616e-08
-1.99638e-08
2.52155e-08
6.9721e-08
1.05801e-07
1.49532e-07
1.62311e-07
-1.28366e-07
-8.97261e-08
-4.84626e-08
-3.65726e-09
4.91252e-08
8.49952e-08
1.42286e-07
-1.40305e-07
-1.14979e-07
-9.32611e-08
-6.79372e-08
-3.7873e-08
-4.45323e-09
1.74959e-08
6.37464e-08
7.8121e-08
-1.35868e-07
-1.13081e-07
-8.54176e-08
-4.7442e-08
-1.36072e-08
2.45952e-08
6.11632e-08
8.96823e-08
1.24994e-07
-1.25015e-07
-1.01402e-07
-7.20488e-08
-2.28879e-08
1.34698e-08
5.99283e-08
1.044e-07
1.4277e-07
1.45424e-07
-1.30715e-07
-1.01976e-07
-6.55954e-08
-1.18375e-08
2.76008e-08
7.90881e-08
1.28308e-07
1.46952e-07
1.76863e-07
)
;

boundaryField
{
    inlet
    {
        type            calculated;
        value           nonuniform List<scalar> 
16
(
-1.36832e-07
-1.33837e-07
-1.24504e-07
-1.4022e-07
-1.39204e-07
-1.35455e-07
-1.32407e-07
-1.28556e-07
-1.35653e-07
-1.32079e-07
-1.3119e-07
-1.28366e-07
-1.40305e-07
-1.35868e-07
-1.25015e-07
-1.30715e-07
)
;
    }
    outlet
    {
        type            calculated;
        value           nonuniform 0();
    }
    wall
    {
        type            calculated;
        value           nonuniform List<scalar> 
66
(
-1.36832e-07
-1.33837e-07
-1.24504e-07
-1.4022e-07
-1.22653e-07
-1.08685e-07
-1.02396e-07
-1.03751e-07
-1.08733e-07
-8.58411e-08
-7.39799e-08
-8.57003e-08
-8.11002e-08
-6.82744e-08
-4.01886e-08
-6.82212e-08
-3.59889e-08
-6.37675e-09
-4.61126e-08
-9.66875e-09
3.10166e-08
-2.03452e-08
3.92612e-08
6.69047e-08
5.49653e-09
5.88348e-08
1.04398e-07
2.15934e-08
8.63727e-08
1.15513e-07
-1.36832e-07
-1.39204e-07
-1.35653e-07
-1.40305e-07
-1.22653e-07
-1.15386e-07
-1.16426e-07
-1.14979e-07
-1.08733e-07
-9.30155e-08
-8.83818e-08
-9.32611e-08
-8.11002e-08
-6.88786e-08
-5.83649e-08
-6.79372e-08
-6.82212e-08
-4.45247e-08
-3.22169e-08
-3.7873e-08
-4.61126e-08
-1.29887e-08
3.22843e-09
-4.45323e-09
-2.03452e-08
5.46188e-09
3.21207e-08
1.74959e-08
5.49653e-09
3.97936e-08
6.22334e-08
6.37464e-08
2.15934e-08
5.96452e-08
8.41394e-08
7.8121e-08
)
;
    }
    procBoundary0to1
    {
        type            processor;
        value           nonuniform List<scalar> 
12
(
4.3477e-08
9.6856e-08
1.25191e-07
7.40017e-08
1.01171e-07
1.63298e-07
9.3859e-08
1.38061e-07
1.74976e-07
9.25538e-08
1.23999e-07
1.62887e-07
)
;
    }
    procBoundary0to2
    {
        type            processor;
        value           nonuniform List<scalar> 
44
(
-3.12858e-08
3.46506e-09
7.18847e-08
9.41277e-08
1.30651e-07
1.32224e-07
-1.32531e-07
-1.0378e-07
-3.12858e-08
-6.63307e-08
-3.12858e-08
3.46506e-09
8.02919e-08
1.18513e-07
1.52454e-07
1.61728e-07
-1.34875e-07
-1.03586e-07
-5.73227e-08
-5.76345e-09
8.02919e-08
4.57979e-08
8.02919e-08
1.18513e-07
1.68979e-07
1.79166e-07
-1.28995e-07
-1.00128e-07
-5.47726e-08
-3.66282e-09
5.41682e-08
1.04633e-07
1.68979e-07
1.33053e-07
1.68979e-07
1.79166e-07
-1.2968e-07
-9.65649e-08
-5.70781e-08
-1.6607e-08
3.48882e-08
7.59748e-08
1.19935e-07
1.31427e-07
)
;
    }
    procBoundary0to4
    {
        type            processor;
        value           nonuniform List<scalar> 
36
(
-1.39567e-07
-1.23849e-07
-1.02664e-07
-7.95515e-08
-5.83465e-08
-3.66458e-08
1.85158e-10
3.09545e-08
4.74761e-08
-1.36863e-07
-1.19185e-07
-9.11772e-08
-6.38658e-08
-3.21137e-08
-5.42885e-09
2.44598e-08
5.89391e-08
8.60872e-08
-1.35548e-07
-1.10643e-07
-7.6221e-08
-4.43823e-08
-9.44974e-09
2.00044e-08
5.73723e-08
9.09784e-08
1.00212e-07
-1.34538e-07
-1.11385e-07
-7.59171e-08
-4.28922e-08
5.29996e-09
4.24932e-08
7.60666e-08
9.40387e-08
1.20808e-07
)
;
    }
    procBoundary0to6
    {
        type            processor;
        value           uniform 1.43522e-07;
    }
    procBoundary0to7
    {
        type            processor;
        value           uniform 1.60943e-07;
    }
}


// ************************************************************************* //
