/*--------------------------------*- C++ -*----------------------------------*\
| =========                 |                                                 |
| \\      /  F ield         | OpenFOAM: The Open Source CFD Toolbox           |
|  \\    /   O peration     | Version:  4.x                                   |
|   \\  /    A nd           | Web:      www.OpenFOAM.org                      |
|    \\/     M anipulation  |                                                 |
\*---------------------------------------------------------------------------*/
FoamFile
{
    version     2.0;
    format      ascii;
    class       volScalarField;
    location    "17.5";
    object      Sm;
}
// * * * * * * * * * * * * * * * * * * * * * * * * * * * * * * * * * * * * * //

dimensions      [1 -3 -1 0 0 0 0];

internalField   nonuniform List<scalar> 
132
(
5.50253e-65
4.41748e-65
3.09996e-65
2.8674e-65
3.79735e-65
4.02972e-65
4.72714e-65
3.48719e-65
1.70485e-65
4.88251e-65
4.72742e-65
4.57234e-65
5.11471e-65
3.17724e-65
5.81193e-65
4.41695e-65
4.95929e-65
3.95179e-65
2.71249e-65
5.34736e-65
4.72729e-65
4.72714e-65
4.26208e-65
4.33945e-65
3.25447e-65
4.49418e-65
6.89618e-65
2.86751e-65
4.4174e-65
3.25489e-65
4.18501e-65
6.6649e-65
8.05975e-65
7.05215e-65
6.81954e-65
7.12935e-65
5.73436e-65
6.4316e-65
6.19908e-65
5.42499e-65
7.98234e-65
6.27723e-65
7.20697e-65
7.28428e-65
7.12914e-65
7.0514e-65
7.74857e-65
6.97354e-65
5.88999e-65
8.13728e-65
6.81959e-65
6.2769e-65
6.66417e-65
6.58652e-65
8.29093e-65
6.04371e-65
4.95884e-65
8.05996e-65
6.12233e-65
6.1221e-65
4.72695e-65
8.98867e-65
5.96751e-65
6.81992e-65
7.28475e-65
6.74209e-65
6.58702e-65
5.19193e-65
7.05156e-65
6.89641e-65
4.7267e-65
6.43249e-65
7.05238e-65
6.4322e-65
5.96705e-65
7.36175e-65
5.73421e-65
7.36124e-65
8.83331e-65
8.29074e-65
7.67247e-65
6.27735e-65
6.58712e-65
8.21421e-65
7.82648e-65
7.36125e-65
7.43851e-65
6.1985e-65
4.57136e-65
7.28497e-65
7.59473e-65
7.67195e-65
8.13661e-65
8.21373e-65
7.1287e-65
7.12836e-65
4.57253e-65
4.88243e-65
5.73484e-65
5.34721e-65
6.12205e-65
7.43927e-65
4.80445e-65
4.10688e-65
4.95923e-65
5.50251e-65
8.13736e-65
7.28471e-65
6.74204e-65
5.81192e-65
5.96671e-65
8.36869e-65
6.58628e-65
5.50133e-65
4.57248e-65
4.95984e-65
7.28462e-65
5.73448e-65
7.28411e-65
8.05867e-65
6.74117e-65
5.11379e-65
8.05809e-65
5.26999e-65
5.88984e-65
7.82705e-65
9.2216e-65
4.49441e-65
9.14338e-65
7.12847e-65
5.42375e-65
2.32436e-65
)
;

boundaryField
{
    inlet
    {
        type            calculated;
        value           uniform 0;
    }
    outlet
    {
        type            calculated;
        value           nonuniform 0();
    }
    wall
    {
        type            calculated;
        value           uniform 0;
    }
    procBoundary0to1
    {
        type            processor;
        value           nonuniform List<scalar> 
12
(
3.7196e-65
3.64184e-65
3.4868e-65
6.66393e-65
7.20608e-65
8.13551e-65
7.05121e-65
5.57867e-65
7.90294e-65
6.58629e-65
7.05096e-65
5.73358e-65
)
;
    }
    procBoundary0to2
    {
        type            processor;
        value           nonuniform List<scalar> 
44
(
6.50948e-65
4.88201e-65
2.55704e-65
4.88165e-65
2.24702e-65
2.63444e-65
5.73499e-65
6.50985e-65
6.50948e-65
5.11475e-65
6.50948e-65
4.88201e-65
8.44595e-65
9.76294e-65
5.73363e-65
9.22021e-65
5.42498e-65
6.81982e-65
7.67197e-65
7.82663e-65
8.44595e-65
6.97392e-65
8.44595e-65
9.76294e-65
7.59306e-65
8.13539e-65
7.28497e-65
4.95986e-65
5.50211e-65
6.04432e-65
5.5791e-65
7.12856e-65
7.59306e-65
8.36815e-65
7.59306e-65
8.13539e-65
4.80497e-65
8.13726e-65
8.36948e-65
6.58686e-65
6.81905e-65
5.88895e-65
6.27617e-65
7.74827e-65
)
;
    }
    procBoundary0to4
    {
        type            processor;
        value           nonuniform List<scalar> 
36
(
5.19252e-65
7.36245e-65
7.51734e-65
5.57978e-65
5.96713e-65
5.65707e-65
7.59422e-65
6.74163e-65
8.91124e-65
7.75001e-65
6.35492e-65
7.36223e-65
8.60201e-65
8.2143e-65
7.51672e-65
6.35418e-65
5.42412e-65
9.06585e-65
6.97499e-65
8.75733e-65
6.66471e-65
8.44692e-65
6.66431e-65
5.96674e-65
6.12153e-65
9.68574e-65
5.6564e-65
4.33999e-65
5.73489e-65
7.59464e-65
5.19211e-65
7.36167e-65
6.35412e-65
9.22094e-65
5.96642e-65
5.96629e-65
)
;
    }
    procBoundary0to6
    {
        type            processor;
        value           uniform 6.74097e-65;
    }
    procBoundary0to7
    {
        type            processor;
        value           uniform 9.91756e-65;
    }
}


// ************************************************************************* //
