/*--------------------------------*- C++ -*----------------------------------*\
| =========                 |                                                 |
| \\      /  F ield         | OpenFOAM: The Open Source CFD Toolbox           |
|  \\    /   O peration     | Version:  4.x                                   |
|   \\  /    A nd           | Web:      www.OpenFOAM.org                      |
|    \\/     M anipulation  |                                                 |
\*---------------------------------------------------------------------------*/
FoamFile
{
    version     2.0;
    format      ascii;
    class       volScalarField;
    location    "17.5";
    object      thCond;
}
// * * * * * * * * * * * * * * * * * * * * * * * * * * * * * * * * * * * * * //

dimensions      [1 1 -3 -1 0 0 0];

internalField   nonuniform List<scalar> 
132
(
193.199
193.206
193.288
193.258
193.084
192.905
192.852
193.048
193.274
193.214
193.049
192.994
192.869
192.918
192.61
192.671
192.661
192.762
193.381
192.925
192.829
192.678
192.652
192.597
192.616
192.531
192.27
193.221
192.903
192.831
192.856
192.394
192.11
192.09
192.027
191.956
192.023
192.01
192.081
192.595
192.163
192.118
191.951
191.837
191.753
191.695
191.658
191.742
192.394
192.03
191.976
191.858
191.671
191.579
191.418
191.646
191.654
192.115
192.076
191.944
191.811
191.35
192.229
191.878
191.602
191.539
191.469
191.518
191.336
191.332
191.479
191.977
191.686
191.541
191.42
191.229
191.265
191.038
190.93
191.003
191.717
191.611
191.369
191.069
190.932
190.894
190.85
191.013
191.077
191.597
191.443
191.186
190.935
190.797
190.742
190.691
192.086
191.749
191.417
191.316
191.143
190.982
191.105
191.163
190.988
191.763
191.321
191.099
190.994
190.939
190.836
190.631
190.743
190.704
191.715
191.399
190.949
190.814
190.633
190.466
190.53
190.685
190.492
191.559
191.227
190.751
190.495
190.668
190.286
190.367
190.612
190.727
)
;

boundaryField
{
    inlet
    {
        type            zeroGradient;
    }
    outlet
    {
        type            zeroGradient;
    }
    wall
    {
        type            zeroGradient;
    }
    procBoundary0to1
    {
        type            processor;
        value           nonuniform List<scalar> 
12
(
192.913
192.709
192.324
191.901
191.661
191.301
191.189
191.044
190.682
190.714
190.456
190.328
)
;
    }
    procBoundary0to2
    {
        type            processor;
        value           nonuniform List<scalar> 
44
(
192.415
192.388
192.565
192.332
192.577
192.394
192.797
192.538
192.415
192.55
192.415
192.388
191.282
191.103
191.48
191.212
192.246
191.962
191.719
191.577
191.282
191.487
191.282
191.103
190.781
190.702
191.65
191.608
191.336
191.114
191.043
190.836
190.781
190.616
190.781
190.702
191.415
190.989
190.717
190.662
190.579
190.536
190.421
190.378
)
;
    }
    procBoundary0to4
    {
        type            processor;
        value           nonuniform List<scalar> 
36
(
191.739
191.3
190.986
190.963
190.856
190.803
190.592
190.489
190.148
191.323
191.124
190.808
190.535
190.482
190.49
190.473
190.41
190.055
191.252
190.864
190.677
190.377
190.377
190.381
190.29
190.054
190.206
191.305
190.973
190.608
190.482
190.242
190.203
189.953
190.203
190.198
)
;
    }
    procBoundary0to6
    {
        type            processor;
        value           uniform 190.395;
    }
    procBoundary0to7
    {
        type            processor;
        value           uniform 189.931;
    }
}


// ************************************************************************* //
