/*--------------------------------*- C++ -*----------------------------------*\
| =========                 |                                                 |
| \\      /  F ield         | OpenFOAM: The Open Source CFD Toolbox           |
|  \\    /   O peration     | Version:  4.x                                   |
|   \\  /    A nd           | Web:      www.OpenFOAM.org                      |
|    \\/     M anipulation  |                                                 |
\*---------------------------------------------------------------------------*/
FoamFile
{
    version     2.0;
    format      ascii;
    class       volVectorField;
    location    "17.5";
    object      U;
}
// * * * * * * * * * * * * * * * * * * * * * * * * * * * * * * * * * * * * * //

dimensions      [0 1 -1 0 0 0 0];

internalField   nonuniform List<vector> 
132
(
(0.0293516 -0.000524124 -0.00106457)
(0.0153473 -0.000368999 -0.000730536)
(0.0324916 -0.000621778 -0.00115794)
(0.0203797 -0.00029675 -0.000642885)
(0.0356844 -0.000418365 -0.00096911)
(0.0246836 -0.000152207 -0.000534796)
(0.0386896 -0.000219039 -0.00088065)
(0.0279355 -4.29035e-05 -0.000512904)
(0.0410404 0.000134935 -0.000712141)
(0.0294184 -0.000864978 -0.00130698)
(0.014596 -0.000640206 -0.000783175)
(0.0318897 -0.00106857 -0.00141645)
(0.0186031 -0.000583561 -0.000830767)
(0.0344329 -0.000915243 -0.00133808)
(0.0221639 -0.000474088 -0.000725091)
(0.0369399 -0.000796458 -0.00111917)
(0.0250945 -0.000569935 -0.000492343)
(0.0389249 -0.000716093 -0.000755197)
(0.029436 -0.00065685 -0.00133312)
(0.0140205 -0.000427863 -0.00066899)
(0.0314134 -0.000739294 -0.00124727)
(0.0168972 -0.000492681 -0.000630954)
(0.0331008 -0.000595804 -0.00108059)
(0.0189802 -0.000369344 -0.000529534)
(0.0344996 -0.000561665 -0.00107785)
(0.0209061 -0.000363701 -0.000353959)
(0.0357664 -0.000592281 -0.000963412)
(0.0293692 -0.000414064 -0.00145866)
(0.014156 -0.00013282 -0.000717735)
(0.0314562 -0.000149932 -0.00137892)
(0.0292127 -0.000713584 -0.0023446)
(0.0137237 -0.000359998 -0.00145934)
(0.0310879 -0.00076275 -0.00258762)
(0.0160521 -0.000375458 -0.00141044)
(0.0325571 -0.000693619 -0.00228202)
(0.0179868 -0.000278837 -0.00138473)
(0.0339244 -0.000459248 -0.00202693)
(0.0192645 -0.00011184 -0.0012906)
(0.0351234 -0.000104201 -0.00144339)
(0.0292602 -0.00105858 -0.00262505)
(0.0122912 -0.000488428 -0.00142082)
(0.0300443 -0.00103311 -0.002774)
(0.0126965 -0.00042445 -0.00131218)
(0.0304812 -0.000937397 -0.00236815)
(0.0125734 -0.000344576 -0.00107473)
(0.0309187 -0.000981589 -0.00205692)
(0.0126116 -0.000339934 -0.000863541)
(0.0315018 -0.00117331 -0.00115419)
(0.0290324 -0.000781515 -0.00270456)
(0.0116662 -0.000315294 -0.0013331)
(0.0294942 -0.000671118 -0.00279008)
(0.0113418 -0.000314688 -0.0012128)
(0.0296589 -0.000617957 -0.00229655)
(0.0104058 -0.000252484 -0.000926924)
(0.0297574 -0.000703209 -0.00199147)
(0.00864123 -0.000265617 -0.000642026)
(0.0294762 -0.000795174 -0.00099721)
(0.0288661 -0.000232916 -0.00282992)
(0.0117974 -0.000128754 -0.00147983)
(0.0292205 -0.00016776 -0.00294568)
(0.0114094 -5.25241e-05 -0.00126951)
(0.0293944 -7.34298e-06 -0.00256674)
(0.0292217 -0.000786762 -0.00177424)
(0.0128323 -0.000384228 -0.00110216)
(0.0302043 -0.000776386 -0.00190097)
(0.0134927 -0.000341328 -0.00106323)
(0.0308364 -0.000596143 -0.00162676)
(0.0135983 -0.000189887 -0.000974238)
(0.031284 -0.00058967 -0.0012545)
(0.0139675 -0.000224949 -0.00089702)
(0.0319439 -0.000523039 -0.000868809)
(0.0291111 -0.00121082 -0.00206234)
(0.0112875 -0.000545858 -0.00114648)
(0.0290877 -0.00122171 -0.00212126)
(0.0101045 -0.000460621 -0.000886935)
(0.0289474 -0.000988376 -0.00160123)
(0.00879525 -0.000286464 -0.000738823)
(0.0289554 -0.00108882 -0.00137066)
(0.00734462 -0.000347486 -0.000514351)
(0.0289524 -0.00100426 -0.000323975)
(0.0288663 -0.000898154 -0.00192364)
(0.0105074 -0.000431427 -0.00105304)
(0.0283197 -0.000888982 -0.00198885)
(0.00790082 -0.000301053 -0.000693908)
(0.0278726 -0.000756108 -0.00133337)
(0.00520827 -0.000192286 -0.000380424)
(0.0276161 -0.000684582 -0.000623749)
(0.00220346 -0.000104586 -0.000126989)
(0.0273124 -0.000521192 0.000446905)
(0.0287271 -0.000127153 -0.00206697)
(0.0102284 -4.26374e-05 -0.0011985)
(0.027992 -3.36926e-05 -0.00220105)
(0.00728004 -2.98544e-05 -0.000714885)
(0.0274754 1.64422e-05 -0.00145571)
(0.00439435 -7.71463e-05 -0.000455231)
(0.0271759 -1.36838e-05 -0.000875301)
(0.029181 -0.00103238 -0.0012945)
(0.0133833 -0.000559386 -0.000907385)
(0.0304422 -0.00108946 -0.00139313)
(0.0146292 -0.000474415 -0.000919541)
(0.0313776 -0.000843289 -0.00116372)
(0.0152483 -0.000413512 -0.000919203)
(0.0320885 -0.000878774 -0.00113829)
(0.015923 -0.000388972 -0.00107772)
(0.0331822 -0.000719731 -0.00100807)
(0.0290833 -0.00123989 -0.00152126)
(0.0111282 -0.000590393 -0.000879067)
(0.0289773 -0.00122406 -0.00163954)
(0.00960227 -0.000395078 -0.000728145)
(0.0287929 -0.000862009 -0.00119188)
(0.00824016 -0.000242591 -0.000579143)
(0.0288966 -0.000759667 -0.000876222)
(0.00660623 -0.000212495 -0.000489319)
(0.0290556 -0.000684626 -0.000463721)
(0.0288225 -0.00081884 -0.00149799)
(0.010914 -0.000457303 -0.000868078)
(0.0285141 -0.000819472 -0.0014353)
(0.0087183 -0.000329801 -0.000608966)
(0.0282978 -0.000561674 -0.000875459)
(0.00698594 -0.000292971 -0.000464892)
(0.0283823 -0.000390932 -0.000452951)
(0.00584076 -0.000346398 -0.000370499)
(0.0287117 -0.00047138 -0.000136139)
(0.0288408 -0.000283638 -0.00139741)
(0.0107261 -5.79534e-05 -0.000907411)
(0.0281965 -4.94451e-05 -0.00146963)
(0.0080941 4.91539e-05 -0.000678397)
(0.0277362 -1.02325e-05 -0.001091)
(0.00615616 3.37417e-05 -0.000538626)
(0.0276463 -0.000246711 -0.000590247)
(0.00455603 1.36653e-05 -0.000353845)
(0.0272546 7.79234e-05 -0.000238414)
)
;

boundaryField
{
    inlet
    {
        type            fixedValue;
        value           uniform (0.01 0 0);
    }
    outlet
    {
        type            zeroGradient;
    }
    wall
    {
        type            fixedValue;
        value           uniform (0 0 0);
    }
    procBoundary0to1
    {
        type            processor;
        value           nonuniform List<vector> 
12
(
(0.0301351 0.000407272 -7.31311e-05)
(0.0270707 -0.000377207 -8.63878e-05)
(0.0217708 -0.000498403 -0.000256122)
(0.0201428 0.000116513 -0.000971197)
(0.0123044 -0.000553827 -0.000354833)
(0.00547444 -0.000298176 -0.000411189)
(0.0145125 -0.000141042 -0.000704622)
(0.00608646 -0.000465522 -0.000126943)
(-4.05883e-07 3.04563e-08 -5.01524e-08)
(0.0165623 -0.000543402 -0.000772837)
(0.0054057 -0.000324945 -0.000266238)
(0.00468755 -0.000550701 -0.000230932)
)
;
    }
    procBoundary0to2
    {
        type            processor;
        value           nonuniform List<vector> 
44
(
(0.0173437 -0.000104722 -0.00072655)
(0.0333508 -1.61329e-05 -0.00138433)
(0.0198835 -8.40571e-05 -0.000716905)
(0.035009 -0.0001595 -0.00130295)
(0.0221492 -8.62887e-05 -0.00067657)
(0.0367133 -9.99063e-05 -0.000975042)
(0.0291269 7.46476e-05 -0.00111525)
(0.0137324 4.02442e-05 -0.000658116)
(0.0173437 -0.000104722 -0.00072655)
(0.0309148 0.000260361 -0.00124134)
(0.0173437 -0.000104722 -0.00072655)
(0.0333508 -1.61329e-05 -0.00138433)
(0.0101987 -3.62029e-05 -0.00104835)
(0.0293495 -0.000113136 -0.00218459)
(0.00845723 7.25735e-06 -0.000817836)
(0.0290525 0.00016213 -0.00110779)
(0.0289435 0.000300931 -0.00241628)
(0.0119367 5.13706e-05 -0.00129411)
(0.0293576 0.000355674 -0.00265083)
(0.0114701 0.000207548 -0.00116299)
(0.0101987 -3.62029e-05 -0.00104835)
(0.029533 0.000482414 -0.00226677)
(0.0101987 -3.62029e-05 -0.00104835)
(0.0293495 -0.000113136 -0.00218459)
(0.00177009 -2.34028e-05 -0.000175375)
(0.0270756 -1.13348e-05 -5.77454e-06)
(0.028899 0.000554262 -0.00197167)
(0.0111305 0.000193909 -0.00104322)
(0.0284554 0.000498489 -0.00188667)
(0.00918857 0.000168187 -0.000698095)
(0.0281789 0.000403531 -0.00139495)
(0.00726009 3.63502e-05 -0.000481335)
(0.00177009 -2.34028e-05 -0.000175375)
(0.0280408 -4.20412e-05 -0.000950339)
(0.00177009 -2.34028e-05 -0.000175375)
(0.0270756 -1.13348e-05 -5.77454e-06)
(0.0288754 0.000452769 -0.00185657)
(0.0108971 0.000286367 -0.000902965)
(0.028496 0.000620557 -0.00180659)
(0.00902035 0.000238118 -0.00078837)
(0.0283835 0.000448557 -0.00143461)
(0.00743478 0.000223833 -0.000551126)
(0.0285001 0.000298465 -0.000571007)
(0.00539729 0.000200253 -0.000401)
)
;
    }
    procBoundary0to4
    {
        type            processor;
        value           nonuniform List<vector> 
36
(
(0.0292759 -0.00104417 -0.000780435)
(0.0133527 -0.000546644 -0.000565509)
(0.0301815 -0.00115225 -0.000930224)
(0.0140314 -0.000531517 -0.000674707)
(0.0306727 -0.000840241 -0.000747782)
(0.0141963 -0.000329823 -0.000666471)
(0.0310983 -0.000659059 -0.000838791)
(0.0139811 -0.000396282 -0.000846488)
(0.0316477 -0.000826209 -0.00047865)
(0.0290209 -0.00143824 -0.000765127)
(0.0109364 -0.000653179 -0.000464565)
(0.0284877 -0.00137049 -0.000973008)
(0.00827201 -0.000429091 -0.000472806)
(0.0280453 -0.000887606 -0.000788172)
(0.00632891 -0.000248049 -0.000355964)
(0.0278865 -0.000791208 -0.00060903)
(0.00445493 -0.000247664 -0.000305201)
(0.0280007 -0.000830537 0.000159732)
(0.0289865 -0.000794292 -0.000842003)
(0.0104202 -0.00048026 -0.000508938)
(0.0280156 -0.000758048 -0.000964838)
(0.00748189 -0.00034549 -0.000404449)
(0.0275576 -0.000717578 -0.000653959)
(0.00562099 -0.000312236 -0.000290524)
(0.0273591 -0.00052426 -0.000429341)
(0.00340887 -0.000181825 -0.000174326)
(0.0271956 -0.000371364 0.000396373)
(0.0289371 -0.000504672 -0.000943578)
(0.0105861 -9.43527e-05 -0.000485255)
(0.027858 -0.000430802 -0.000965546)
(0.0076695 -0.000173215 -0.000492745)
(0.0272447 -0.000523263 -0.000767274)
(0.00494728 -0.000113048 -0.000276158)
(0.0268509 -6.18138e-05 -0.000402594)
(0.00270068 -5.84154e-05 -0.000137152)
(0.0265195 0.000527737 0.000418759)
)
;
    }
    procBoundary0to6
    {
        type            processor;
        value           uniform (0.0286214 0.000389856 0.000411057);
    }
    procBoundary0to7
    {
        type            processor;
        value           uniform (0.00285445 6.32253e-05 -0.000230712);
    }
}


// ************************************************************************* //
