/*--------------------------------*- C++ -*----------------------------------*\
| =========                 |                                                 |
| \\      /  F ield         | OpenFOAM: The Open Source CFD Toolbox           |
|  \\    /   O peration     | Version:  4.x                                   |
|   \\  /    A nd           | Web:      www.OpenFOAM.org                      |
|    \\/     M anipulation  |                                                 |
\*---------------------------------------------------------------------------*/
FoamFile
{
    version     2.0;
    format      ascii;
    class       volScalarField;
    location    "36";
    object      Ksl;
}
// * * * * * * * * * * * * * * * * * * * * * * * * * * * * * * * * * * * * * //

dimensions      [1 -3 -1 0 0 0 0];

internalField   nonuniform List<scalar> 
114
(
3523.24
23229.3
3984.45
1e+10
5551.33
99475.2
1e+10
3794.65
1e+10
3924.14
465830
4431.95
17669.8
4108.22
1e+10
4152.99
1e+10
4253.43
205498
4607.32
12749.6
7143.26
3063.16
7365.96
2926.28
7975.59
2754.38
9451.21
2406.89
7721.51
32731.4
3541.45
66733.8
3475.39
67450.6
3434.06
21744.4
3472.34
5957.26
645634
3675.93
1e+10
3623.58
3.05334e+06
3525.35
55523
3648.67
13999.6
1e+10
3793.3
7599.16
3201.47
8109.73
3123.61
8960.69
3071.41
11259.2
3083.71
16585.4
14705.5
3467.47
17384.2
3340.97
21034.5
3221.56
20006.8
2984.02
10421.7
75579.1
3655.56
1e+10
3687.33
1e+10
3858.34
34427.9
4171.13
7204.8
41633.1
3605.48
49890.5
3505.43
4848.32
2731.51
4616.49
2536.1
4550.94
2258.17
4764.8
1783.4
5346.19
6098.18
2975.79
5984.94
2790.53
6132.8
2572.03
7040.67
2283.23
9419.54
7453.37
3127.26
7657.58
2976.36
7675.42
2755.33
7794.9
2320.84
7701.68
7427.32
3112.64
7730.49
2994.77
8271.23
2777.81
)
;

boundaryField
{
    inlet
    {
        type            zeroGradient;
    }
    outlet
    {
        type            zeroGradient;
    }
    wall
    {
        type            zeroGradient;
    }
    procBoundary5to1
    {
        type            processor;
        value           nonuniform List<scalar> 
32
(
2897.18
7120.52
2672.67
7911.49
2447.46
7986.4
14308.3
3244.58
14294.8
3031.77
11772.7
2760.71
7871.09
3656.65
34910.7
3606.47
28224.9
3561.02
16279.7
3647.86
7587.14
8248.79
3307.54
10916.4
10916.4
10916.4
57541.2
3749.48
3749.48
3749.48
1e+10
1e+10
)
;
    }
    procBoundary5to4
    {
        type            processor;
        value           nonuniform List<scalar> 
12
(
3181.86
3609.83
3728.94
3832.81
3254.38
3536.15
3688.87
3660.25
2903.03
3079.24
3218.86
3202.96
)
;
    }
    procBoundary5to7
    {
        type            processor;
        value           nonuniform List<scalar> 
44
(
3857.1
1e+10
3802.01
1e+10
3803.55
1e+10
4135.5
19147
1e+10
3857.1
1e+10
3748.72
1e+10
3750.65
1e+10
4065.09
14258.2
1e+10
1e+10
3889.75
1e+10
3748.72
30865.4
3423.16
16169.9
3510.49
6350.58
9.51638e+06
3755.4
1e+10
30865.4
3754.9
30865.4
3423.16
8380.57
2379.77
8505.71
9516.14
3293.02
11164.2
3245.83
12884.1
8380.57
3143.06
)
;
    }
}


// ************************************************************************* //
