/*--------------------------------*- C++ -*----------------------------------*\
| =========                 |                                                 |
| \\      /  F ield         | OpenFOAM: The Open Source CFD Toolbox           |
|  \\    /   O peration     | Version:  4.x                                   |
|   \\  /    A nd           | Web:      www.OpenFOAM.org                      |
|    \\/     M anipulation  |                                                 |
\*---------------------------------------------------------------------------*/
FoamFile
{
    version     2.0;
    format      ascii;
    class       volScalarField;
    location    "55.5";
    object      QPartFluid;
}
// * * * * * * * * * * * * * * * * * * * * * * * * * * * * * * * * * * * * * //

dimensions      [1 -1 -3 0 0 0 0];

internalField   nonuniform List<scalar> 
108
(
4.92353e+09
7.11105e+09
8.42623e+09
5.98255e+09
7.15753e+09
5.99667e+09
8.94506e+09
6.87796e+09
9.65614e+09
7.01748e+09
7.30118e+09
9.38846e+09
1.00455e+10
1.01158e+10
8.59841e+09
8.14384e+09
5.78542e+09
1.11132e+10
6.68803e+09
1.02822e+10
8.31601e+09
9.38157e+09
8.12817e+09
6.31392e+09
7.31276e+09
1.03082e+10
6.74442e+09
3.45913e+09
6.739e+09
9.4082e+09
5.72753e+09
8.82497e+09
6.72192e+09
1.10641e+10
6.03842e+09
7.08763e+09
5.0629e+09
5.49059e+09
8.05422e+09
8.33629e+09
8.5271e+09
5.4637e+09
5.57759e+09
7.53764e+09
9.58574e+09
6.24603e+09
7.60328e+09
7.55591e+09
7.59705e+09
7.74224e+09
6.81886e+09
8.50743e+09
9.27552e+09
1.05042e+10
4.19481e+09
7.32578e+09
1.0028e+10
8.28891e+09
9.67777e+09
8.24767e+09
8.18071e+09
7.14104e+09
8.62668e+09
6.20515e+09
8.58864e+09
7.54666e+09
9.65898e+09
1.05309e+10
7.61816e+09
1.18499e+10
8.48379e+09
8.1437e+09
4.55198e+09
6.30253e+09
4.44502e+09
6.05629e+09
6.35114e+09
8.0172e+09
8.0217e+09
6.52048e+09
8.20921e+09
4.87498e+09
9.01298e+09
7.12755e+09
5.85106e+09
7.47221e+09
7.71578e+09
7.38667e+09
6.23184e+09
8.58667e+09
5.23283e+09
7.46419e+09
8.4619e+09
7.17215e+09
6.7119e+09
6.92837e+09
7.36849e+09
7.93212e+09
7.04749e+09
7.25265e+09
7.01609e+09
6.70219e+09
7.98512e+09
8.44553e+09
9.54551e+09
4.97452e+09
5.18524e+09
7.09493e+09
)
;

boundaryField
{
    inlet
    {
        type            calculated;
        value           uniform 0;
    }
    outlet
    {
        type            calculated;
        value           nonuniform 0();
    }
    wall
    {
        type            calculated;
        value           uniform 0;
    }
    procBoundary4to0
    {
        type            processor;
        value           nonuniform List<scalar> 
36
(
4.35327e+09
4.98958e+09
6.76786e+09
5.18681e+09
7.08361e+09
7.77259e+09
5.90191e+09
4.32979e+09
6.04156e+09
5.13573e+09
9.59676e+09
9.09093e+09
8.08474e+09
7.19765e+09
6.62432e+09
1.04272e+10
7.18069e+09
6.92989e+09
5.18802e+09
5.58585e+09
9.05226e+09
6.10359e+09
8.69549e+09
8.40912e+09
8.24719e+09
4.94908e+09
9.33814e+09
4.82828e+09
6.74019e+09
9.84185e+09
1.02555e+10
5.52522e+09
9.88296e+09
8.59223e+09
5.62073e+09
2.6266e+09
)
;
    }
    procBoundary4to5
    {
        type            processor;
        value           nonuniform List<scalar> 
12
(
6.65384e+09
8.21128e+09
8.51817e+09
1.03745e+10
7.26531e+09
6.11544e+09
7.39937e+09
5.22168e+09
2.49011e+09
6.97482e+09
6.07588e+09
7.22247e+09
)
;
    }
    procBoundary4to6
    {
        type            processor;
        value           nonuniform List<scalar> 
27
(
9.95372e+09
8.95701e+09
6.08348e+09
7.98941e+09
1.10822e+10
6.09123e+09
8.7153e+09
6.67739e+09
9.9725e+09
7.34877e+09
9.0053e+09
9.65992e+09
8.64124e+09
6.67092e+09
7.89925e+09
7.93248e+09
6.12272e+09
9.57426e+09
4.91223e+09
5.41244e+09
7.43529e+09
7.03714e+09
7.17525e+09
6.52133e+09
1.03085e+10
8.71925e+09
4.5385e+09
)
;
    }
}


// ************************************************************************* //
