/*--------------------------------*- C++ -*----------------------------------*\
| =========                 |                                                 |
| \\      /  F ield         | OpenFOAM: The Open Source CFD Toolbox           |
|  \\    /   O peration     | Version:  4.x                                   |
|   \\  /    A nd           | Web:      www.OpenFOAM.org                      |
|    \\/     M anipulation  |                                                 |
\*---------------------------------------------------------------------------*/
FoamFile
{
    version     2.0;
    format      ascii;
    class       volVectorField;
    location    "54";
    object      impParticleForces;
}
// * * * * * * * * * * * * * * * * * * * * * * * * * * * * * * * * * * * * * //

dimensions      [1 1 -2 0 0 0 0];

internalField   nonuniform List<vector> 
87
(
(0.00243758 0.000165414 -3.44494e-05)
(0.00247989 0.000403249 -1.95146e-05)
(0.00247153 0.000171114 -2.6113e-05)
(0.00251191 8.59212e-05 -2.80058e-05)
(0.00246629 4.84829e-05 -2.88076e-05)
(0.00246764 2.90978e-05 -2.99245e-05)
(0.00245443 1.71074e-05 -3.64459e-05)
(0.00243851 7.69552e-06 -4.00083e-05)
(0.00231424 -3.93064e-06 -5.6441e-05)
(0.00247174 9.44177e-05 -3.80077e-05)
(0.00250028 0.000146078 -3.08013e-05)
(0.00250698 9.90339e-05 -2.91575e-05)
(0.00253717 6.21467e-05 -2.77758e-05)
(0.00250068 3.83202e-05 -2.76161e-05)
(0.00251202 2.48073e-05 -2.77765e-05)
(0.00248545 1.33654e-05 -3.44182e-05)
(0.0024857 9.11934e-06 -3.79045e-05)
(0.00233423 -8.57026e-06 -6.12455e-05)
(0.00247591 5.29206e-05 -3.91039e-05)
(0.00251443 6.73644e-05 -3.33344e-05)
(0.00249999 5.66955e-05 -2.89349e-05)
(0.0025337 4.19165e-05 -2.58642e-05)
(0.00249129 2.90013e-05 -2.46669e-05)
(0.00249948 1.9863e-05 -2.47209e-05)
(0.00245739 1.16527e-05 -3.24942e-05)
(0.0024496 7.64517e-06 -3.70707e-05)
(0.00232087 -1.66266e-06 -6.14728e-05)
(0.00246219 9.45569e-05 -3.66669e-05)
(0.0024793 0.000146769 -2.93929e-05)
(0.00248303 0.000100729 -2.74942e-05)
(0.00251408 6.38383e-05 -2.61852e-05)
(0.00247728 4.09235e-05 -2.54259e-05)
(0.00248273 2.66265e-05 -2.55591e-05)
(0.00245927 1.65696e-05 -2.99164e-05)
(0.00243206 7.63167e-06 -3.29867e-05)
(0.0023038 -2.29753e-06 -4.84184e-05)
(0.00250569 6.43627e-05 -3.83372e-05)
(0.00251624 8.58664e-05 -3.1748e-05)
(0.00251294 6.97601e-05 -2.8068e-05)
(0.00255718 4.99412e-05 -2.56884e-05)
(0.00252492 3.40395e-05 -2.4034e-05)
(0.00252684 2.40004e-05 -2.2843e-05)
(0.00249645 1.42107e-05 -2.80281e-05)
(0.00248592 9.95793e-06 -3.18557e-05)
(0.00232492 -5.56571e-06 -5.27857e-05)
(0.00249226 4.11168e-05 -3.81965e-05)
(0.00252814 5.00036e-05 -3.19804e-05)
(0.00250596 4.49752e-05 -2.73794e-05)
(0.00252902 3.55569e-05 -2.35891e-05)
(0.00249086 2.5984e-05 -2.14751e-05)
(0.00251285 1.84274e-05 -2.06689e-05)
(0.00247463 1.18422e-05 -2.58118e-05)
(0.00247048 6.46265e-06 -3.10223e-05)
(0.00232562 2.34883e-07 -5.5733e-05)
(0.00242934 5.10888e-05 -3.49925e-05)
(0.00246042 6.67098e-05 -2.97673e-05)
(0.00246003 5.74864e-05 -2.61297e-05)
(0.00249047 4.37842e-05 -2.3349e-05)
(0.00244086 3.09205e-05 -2.00816e-05)
(0.00244716 2.16403e-05 -1.8378e-05)
(0.00240111 1.31553e-05 -1.99633e-05)
(0.00237913 6.36796e-06 -1.73033e-05)
(0.00226178 -3.27489e-06 -2.76775e-05)
(0.00246385 3.91266e-05 -3.545e-05)
(0.00249482 4.89164e-05 -2.99885e-05)
(0.00247346 4.46105e-05 -2.54032e-05)
(0.00251165 3.62272e-05 -2.16244e-05)
(0.00247488 2.64062e-05 -1.92726e-05)
(0.00248461 1.98958e-05 -1.65728e-05)
(0.00242785 1.15229e-05 -1.86475e-05)
(0.00241323 7.66485e-06 -1.92251e-05)
(0.00228272 -5.20104e-06 -3.26998e-05)
(0.00246053 2.81263e-05 -3.48876e-05)
(0.00249111 3.36153e-05 -2.88714e-05)
(0.00246223 3.2165e-05 -2.42196e-05)
(0.00250659 2.77082e-05 -2.02486e-05)
(0.00246178 2.13159e-05 -1.75952e-05)
(0.00247603 1.65648e-05 -1.51894e-05)
(0.00241534 1.1178e-05 -1.72301e-05)
(0.00239707 8.52966e-06 -2.02866e-05)
(0.00228554 -3.31467e-07 -3.52414e-05)
(0.00239947 2.72959e-05 -2.85711e-05)
(0.00240793 3.44996e-05 -2.30532e-05)
(0.00240467 3.35259e-05 -1.86737e-05)
(0.00243362 2.28732e-05 -2.90279e-05)
(0.00246872 2.89534e-05 -2.39764e-05)
(0.00241716 1.84886e-05 -2.87372e-05)
)
;

boundaryField
{
    inlet
    {
        type            zeroGradient;
    }
    outlet
    {
        type            zeroGradient;
    }
    wall
    {
        type            zeroGradient;
    }
    procBoundary1to0
    {
        type            processor;
        value           nonuniform List<vector> 
12
(
(0.00241388 7.48552e-05 -4.39938e-05)
(0.0024738 5.22091e-05 -4.63971e-05)
(0.00249059 3.45395e-05 -4.7195e-05)
(0.00246023 5.18248e-05 -4.44252e-05)
(0.00250944 3.86249e-05 -4.60154e-05)
(0.00249489 2.79185e-05 -4.55538e-05)
(0.00243676 3.10491e-05 -4.14266e-05)
(0.00248578 2.45742e-05 -4.25837e-05)
(0.00245574 1.96007e-05 -4.1141e-05)
(0.00242307 1.66796e-05 -3.46147e-05)
(0.00245103 1.43115e-05 -3.51276e-05)
(0.00243345 1.27822e-05 -3.43535e-05)
)
;
    }
    procBoundary1to3
    {
        type            processor;
        value           nonuniform List<vector> 
27
(
(0.00249583 3.19194e-05 -3.96723e-05)
(0.00248999 3.70693e-05 -3.31752e-05)
(0.0024927 3.41411e-05 -2.81523e-05)
(0.00248484 2.8144e-05 -2.41015e-05)
(0.00246914 2.12059e-05 -2.22803e-05)
(0.00245526 1.69515e-05 -2.22228e-05)
(0.0024205 1.22544e-05 -2.91032e-05)
(0.00237755 1.24444e-05 -3.8145e-05)
(0.00228859 1.10786e-05 -5.6427e-05)
(0.00249899 2.73457e-05 -3.86957e-05)
(0.00252776 3.12199e-05 -3.24682e-05)
(0.00251247 2.94954e-05 -2.7486e-05)
(0.00252933 2.50207e-05 -2.28217e-05)
(0.00248651 2.01146e-05 -2.03268e-05)
(0.00248861 1.62136e-05 -1.857e-05)
(0.00243654 1.36435e-05 -2.44793e-05)
(0.00242425 1.16949e-05 -3.01325e-05)
(0.00232028 1.10444e-05 -5.71822e-05)
(0.00246018 2.0934e-05 -3.50357e-05)
(0.00250147 2.34701e-05 -2.94808e-05)
(0.00247016 2.28882e-05 -2.47541e-05)
(0.00249404 2.02824e-05 -2.02135e-05)
(0.0024486 1.7343e-05 -1.72522e-05)
(0.0024614 1.49226e-05 -1.45333e-05)
(0.00240495 1.3365e-05 -1.83196e-05)
(0.00237716 1.40711e-05 -2.2898e-05)
(0.00229252 1.18637e-05 -4.09649e-05)
)
;
    }
    procBoundary1to5
    {
        type            processor;
        value           nonuniform List<vector> 
32
(
(0.00242517 2.90442e-05 -1.40129e-05)
(0.00238359 2.18359e-05 -9.90809e-06)
(0.00238482 1.54905e-05 -5.49566e-06)
(0.00232923 7.81687e-06 -3.16023e-06)
(0.00230709 4.90411e-07 -4.03393e-07)
(0.00222515 -8.44645e-06 -2.31873e-06)
(0.00242781 2.84403e-05 -1.88015e-05)
(0.00244516 2.54857e-05 -1.42347e-05)
(0.00240494 1.96685e-05 -9.98974e-06)
(0.00241924 1.52085e-05 -5.01104e-06)
(0.00236224 7.89626e-06 -3.89873e-06)
(0.0023454 2.30463e-06 -1.16708e-06)
(0.00225362 -8.23183e-06 -6.4845e-06)
(0.00245128 2.24962e-05 -2.37057e-05)
(0.00241476 2.22271e-05 -1.89067e-05)
(0.00243987 2.0181e-05 -1.44266e-05)
(0.00240205 1.64361e-05 -1.05542e-05)
(0.00240101 1.29616e-05 -6.57203e-06)
(0.00235206 8.60301e-06 -5.19284e-06)
(0.00232223 4.5441e-06 -5.15528e-06)
(0.002248 -1.30398e-06 -1.0018e-05)
(0.00239267 1.36818e-05 -2.07583e-05)
(0.00239991 1.80657e-05 -1.55155e-05)
(0.00242517 2.90442e-05 -1.40129e-05)
(0.00242781 2.84403e-05 -1.88015e-05)
(0.00239295 1.91453e-05 -1.06275e-05)
(0.00242027 1.19793e-05 -2.1161e-05)
(0.00242781 2.84403e-05 -1.88015e-05)
(0.00245128 2.24962e-05 -2.37057e-05)
(0.00243234 1.59644e-05 -1.63198e-05)
(0.00245128 2.24962e-05 -2.37057e-05)
(0.00239948 1.09971e-05 -2.18537e-05)
)
;
    }
    procBoundary1to7
    {
        type            processor;
        value           uniform (0.00241807 1.54665e-05 -2.94547e-05);
    }
}


// ************************************************************************* //
