/*--------------------------------*- C++ -*----------------------------------*\
| =========                 |                                                 |
| \\      /  F ield         | OpenFOAM: The Open Source CFD Toolbox           |
|  \\    /   O peration     | Version:  4.x                                   |
|   \\  /    A nd           | Web:      www.OpenFOAM.org                      |
|    \\/     M anipulation  |                                                 |
\*---------------------------------------------------------------------------*/
FoamFile
{
    version     2.0;
    format      ascii;
    class       volScalarField;
    location    "54";
    object      Qsource;
}
// * * * * * * * * * * * * * * * * * * * * * * * * * * * * * * * * * * * * * //

dimensions      [1 -1 -3 0 0 0 0];

internalField   nonuniform List<scalar> 
87
(
5.90825e+09
9.30729e+09
5.833e+09
8.91438e+09
5.98838e+09
7.44168e+09
6.73032e+09
9.61565e+09
5.02637e+09
5.25164e+09
5.51479e+09
6.57291e+09
6.883e+09
5.11001e+09
7.89147e+09
8.29746e+09
8.12458e+09
4.57377e+09
4.56347e+09
8.09418e+09
6.83348e+09
9.98514e+09
6.88279e+09
6.90832e+09
6.32201e+09
7.54415e+09
4.83188e+09
7.97682e+09
7.55239e+09
6.68514e+09
8.55698e+09
6.87399e+09
8.8305e+09
9.47723e+09
9.93336e+09
5.6158e+09
9.0174e+09
6.72047e+09
7.56536e+09
9.42746e+09
9.20434e+09
7.72978e+09
9.41846e+09
1.05807e+10
4.73276e+09
7.91437e+09
8.48526e+09
7.18794e+09
6.8079e+09
5.80286e+09
9.32667e+09
9.48088e+09
1.32259e+10
4.49883e+09
7.6315e+09
7.948e+09
8.71409e+09
1.05769e+10
6.54024e+09
1.06538e+10
7.95635e+09
8.43567e+09
3.5477e+09
6.47867e+09
8.8588e+09
6.49713e+09
8.10709e+09
8.19121e+09
9.09267e+09
7.63997e+09
9.46362e+09
3.7101e+09
9.42634e+09
7.86578e+09
5.46015e+09
1.11341e+10
8.86669e+09
1.07175e+10
7.51352e+09
9.70934e+09
3.39112e+09
6.85175e+09
6.37428e+09
7.86651e+09
7.861e+09
1.22045e+10
5.90243e+09
)
;

boundaryField
{
    inlet
    {
        type            calculated;
        value           nonuniform 0();
    }
    outlet
    {
        type            calculated;
        value           uniform 0;
    }
    wall
    {
        type            calculated;
        value           uniform 0;
    }
    procBoundary1to0
    {
        type            processor;
        value           nonuniform List<scalar> 
12
(
4.19898e+09
6.28148e+09
9.4782e+09
8.19875e+09
8.96801e+09
6.34551e+09
6.33563e+09
1.0138e+10
5.39083e+09
6.89829e+09
6.92801e+09
9.33326e+09
)
;
    }
    procBoundary1to3
    {
        type            processor;
        value           nonuniform List<scalar> 
27
(
9.15413e+09
4.90452e+09
7.41406e+09
4.33907e+09
5.68421e+09
4.97056e+09
6.22946e+09
6.56497e+09
3.42526e+09
8.56715e+09
8.10235e+09
1.02999e+10
1.06815e+10
8.56845e+09
8.0326e+09
6.90617e+09
8.66898e+09
7.75189e+09
8.27484e+09
1.1044e+10
9.30502e+09
1.04076e+10
6.66131e+09
7.89381e+09
9.23208e+09
8.51063e+09
7.04604e+09
)
;
    }
    procBoundary1to5
    {
        type            processor;
        value           nonuniform List<scalar> 
32
(
8.64808e+09
7.35712e+09
7.73249e+09
5.72161e+09
8.4259e+09
5.94712e+09
7.27737e+09
7.0585e+09
5.9206e+09
8.28381e+09
8.51572e+09
1.01473e+10
6.55414e+09
9.95887e+09
6.15362e+09
8.72056e+09
5.89289e+09
5.32132e+09
7.46767e+09
6.26171e+09
6.65213e+09
7.10739e+09
6.59924e+09
8.64808e+09
7.27737e+09
8.02177e+09
8.12e+09
7.27737e+09
9.95887e+09
8.24824e+09
9.95887e+09
8.52058e+09
)
;
    }
    procBoundary1to7
    {
        type            processor;
        value           uniform 1.01797e+10;
    }
}


// ************************************************************************* //
