/*--------------------------------*- C++ -*----------------------------------*\
| =========                 |                                                 |
| \\      /  F ield         | OpenFOAM: The Open Source CFD Toolbox           |
|  \\    /   O peration     | Version:  4.x                                   |
|   \\  /    A nd           | Web:      www.OpenFOAM.org                      |
|    \\/     M anipulation  |                                                 |
\*---------------------------------------------------------------------------*/
FoamFile
{
    version     2.0;
    format      ascii;
    class       volScalarField;
    location    "9.5";
    object      SPartFluid;
}
// * * * * * * * * * * * * * * * * * * * * * * * * * * * * * * * * * * * * * //

dimensions      [1 -3 -1 0 0 0 0];

internalField   nonuniform List<scalar> 
132
(
9.91853e-65
7.82632e-65
6.43151e-65
6.74142e-65
1.03058e-64
1.03831e-64
7.98084e-65
5.6562e-65
8.36795e-65
7.67143e-65
9.45366e-65
7.28392e-65
6.74146e-65
8.44612e-65
5.65651e-65
7.51607e-65
6.35369e-65
8.0582e-65
5.50185e-65
7.36164e-65
6.19925e-65
7.12908e-65
7.43898e-65
8.05884e-65
7.51631e-65
7.20625e-65
8.60087e-65
5.11453e-65
7.28437e-65
8.75667e-65
5.50195e-65
7.20675e-65
6.81925e-65
7.90403e-65
5.88929e-65
4.33945e-65
6.43153e-65
7.36136e-65
6.74138e-65
6.89626e-65
8.60079e-65
8.44565e-65
7.36078e-65
3.95195e-65
8.52384e-65
7.43895e-65
7.5164e-65
8.13623e-65
7.05132e-65
5.65642e-65
7.74843e-65
5.73374e-65
5.81188e-65
8.52404e-65
6.97417e-65
5.73428e-65
7.36151e-65
8.60131e-65
8.91111e-65
7.05135e-65
7.98106e-65
5.65702e-65
8.44678e-65
5.88945e-65
7.28431e-65
7.36172e-65
6.19936e-65
6.5867e-65
7.98152e-65
5.34679e-65
5.0367e-65
5.81154e-65
7.36118e-65
6.04383e-65
5.81123e-65
8.0591e-65
7.36162e-65
6.81917e-65
5.19181e-65
8.52381e-65
7.05142e-65
7.12878e-65
8.75592e-65
7.51598e-65
7.05184e-65
7.3618e-65
7.51672e-65
6.97423e-65
8.29151e-65
7.59408e-65
7.67147e-65
7.05149e-65
7.74878e-65
5.34715e-65
6.27704e-65
7.05194e-65
6.89693e-65
6.12196e-65
5.26955e-65
7.59423e-65
7.05184e-65
5.81185e-65
5.50166e-65
6.43148e-65
6.12147e-65
6.89684e-65
5.81197e-65
7.67171e-65
7.43922e-65
5.19188e-65
3.87453e-65
6.89648e-65
6.66399e-65
5.42409e-65
5.96707e-65
6.04457e-65
6.04453e-65
6.1995e-65
6.89683e-65
6.35438e-65
7.20664e-65
6.4318e-65
7.2841e-65
6.27717e-65
7.36212e-65
5.65718e-65
5.81217e-65
6.58706e-65
6.50956e-65
6.50946e-65
6.35453e-65
4.10724e-65
)
;

boundaryField
{
    inlet
    {
        type            calculated;
        value           nonuniform 0();
    }
    outlet
    {
        type            calculated;
        value           uniform 0;
    }
    wall
    {
        type            calculated;
        value           uniform 0;
    }
    procBoundary7to0
    {
        type            processor;
        value           uniform 2.32464e-65;
    }
    procBoundary7to1
    {
        type            processor;
        value           uniform 5.73419e-65;
    }
    procBoundary7to3
    {
        type            processor;
        value           nonuniform List<scalar> 
36
(
7.67142e-65
8.98872e-65
8.83369e-65
8.52372e-65
6.12149e-65
6.27638e-65
8.52333e-65
6.81848e-65
7.74819e-65
8.98883e-65
5.1143e-65
7.74892e-65
4.33936e-65
4.64925e-65
7.90368e-65
7.28368e-65
8.83324e-65
6.12118e-65
5.65691e-65
8.29162e-65
8.21404e-65
5.81176e-65
6.81906e-65
7.98137e-65
6.66402e-65
7.20627e-65
5.42407e-65
5.73453e-65
3.8747e-65
5.42456e-65
6.12197e-65
5.57945e-65
7.12929e-65
6.19931e-65
7.90408e-65
8.52382e-65
)
;
    }
    procBoundary7to5
    {
        type            processor;
        value           nonuniform List<scalar> 
44
(
8.44629e-65
6.04414e-65
7.43887e-65
5.81158e-65
4.57172e-65
6.97367e-65
5.73379e-65
8.67795e-65
9.99611e-65
4.41686e-65
7.284e-65
7.59392e-65
6.19905e-65
7.05135e-65
7.12869e-65
6.89611e-65
5.57882e-65
9.99611e-65
4.41686e-65
4.41686e-65
8.9889e-65
7.98147e-65
1.01511e-64
7.36145e-65
8.21367e-65
8.91092e-65
8.67834e-65
3.56455e-65
9.37636e-65
8.9889e-65
7.98147e-65
7.98147e-65
9.68631e-65
7.749e-65
6.50915e-65
6.74155e-65
6.81896e-65
7.20682e-65
5.50197e-65
7.28425e-65
5.6569e-65
9.68631e-65
7.749e-65
7.749e-65
)
;
    }
    procBoundary7to6
    {
        type            processor;
        value           nonuniform List<scalar> 
12
(
6.74159e-65
7.12921e-65
4.9596e-65
8.52392e-65
7.59421e-65
7.5169e-65
7.90412e-65
7.74926e-65
5.65714e-65
3.7972e-65
7.82695e-65
6.04471e-65
)
;
    }
}


// ************************************************************************* //
