/*--------------------------------*- C++ -*----------------------------------*\
  =========                 |
  \\      /  F ield         | OpenFOAM: The Open Source CFD Toolbox
   \\    /   O peration     | Website:  https://openfoam.org
    \\  /    A nd           | Version:  4.x
     \\/     M anipulation  |
\*---------------------------------------------------------------------------*/
FoamFile
{
    version     2.0;
    format      ascii;
    class       Cloud<passiveParticle>;
    location    0;
    object      positions;
}
// * * * * * * * * * * * * * * * * * * * * * * * * * * * * * * * * * * * * * //

348
(
( 0.255969 -0.0172306 0.0199818 ) 39
( 0.253139 -0.0031456 0.033677 ) 48
( 0.25688 0.0116659 0.0209081 ) 48
( 0.421184 -0.0532318 -0.00937634 ) 10
( 0.328355 -0.0516006 0.0356157 ) 32
( 0.439652 -0.0867384 -0.00616883 ) 3
( 0.479802 -0.072125 0.0133761 ) 5
( 0.429394 -0.0905596 0.0309652 ) 27
( 0.346565 -0.0575947 0.0231425 ) 33
( 0.469048 -0.0593993 0.0236777 ) 37
( 0.438548 -0.0210163 0.0177767 ) 45
( 0.477611 -0.0231419 -0.000290065 ) 20
( 0.344161 -0.0902014 0.00359099 ) 0
( 0.431762 -0.0409126 0.011914 ) 18
( 0.456626 -0.0434011 0.000603835 ) 11
( 0.287616 -0.0166766 -0.00535584 ) 13
( 0.37338 -0.0737804 0.0018269 ) 1
( 0.402741 -0.057806 -0.0041255 ) 9
( 0.280587 -0.0346744 -0.009712 ) 13
( 0.344924 -0.0182584 0.00427886 ) 15
( 0.392961 -0.0730928 0.00362279 ) 2
( 0.283042 -0.029677 0.00910463 ) 13
( 0.321733 -0.0256884 -0.00886498 ) 14
( 0.333611 -0.0747245 -0.00339187 ) 0
( 0.363938 -0.0843421 0.0306344 ) 25
( 0.362845 -0.0224662 -0.00297137 ) 16
( 0.489646 -0.0448062 0.0248185 ) 38
( 0.435966 -0.0902616 0.0126715 ) 3
( 0.481803 -0.0718479 -0.00617981 ) 5
( 0.370479 -0.0543999 0.00550996 ) 8
( 0.432786 -0.0550121 0.0260999 ) 36
( 0.448791 -0.0717972 0.00271564 ) 4
( 0.312518 -0.0762198 0.0169646 ) 23
( 0.391656 -0.0907098 0.0243206 ) 26
( 0.348531 -0.0717557 0.00937628 ) 0
( 0.418848 -0.0312179 0.0283514 ) 45
( 0.397986 -0.0880349 -0.008784 ) 2
( 0.421781 -0.0773473 0.0178939 ) 27
( 0.310726 -0.0569979 0.0226871 ) 32
( 0.425128 -0.029847 -0.00902228 ) 18
( 0.452369 -0.0666481 0.0313965 ) 37
( 0.465863 -0.0316739 -0.0133221 ) 19
( 0.401526 -0.0262073 0.0156781 ) 44
( 0.340069 -0.0562824 -0.00496701 ) 7
( 0.325258 -0.0242156 0.0106144 ) 14
( 0.360408 -0.0862748 -0.00688081 ) 0
( 0.32193 -0.0622396 0.00676815 ) 6
( 0.384167 -0.0385458 0.0238897 ) 43
( 0.383541 -0.0577494 0.0193497 ) 34
( 0.277933 -0.0599717 0.0190114 ) 31
( 0.322295 -0.0593473 -0.0129823 ) 6
( 0.403691 -0.0434953 0.0245019 ) 35
( 0.346922 -0.0902489 0.0230734 ) 24
( 0.454964 -0.0175906 0.0285344 ) 46
( 0.391072 -0.0281231 -0.00109143 ) 17
( 0.260465 -0.071854 0.0226422 ) 21
( 0.454551 -0.0905172 0.0063036 ) 4
( 0.384714 -0.0905207 0.00596563 ) 1
( 0.359306 -0.0416593 -0.00406074 ) 15
( 0.49047 -0.0171328 0.0130672 ) 20
( 0.465485 -0.0618127 0.00452003 ) 11
( 0.48911 -0.0557038 0.00816925 ) 12
( 0.474662 -0.0904733 0.0200088 ) 29
( 0.490354 -0.0361516 0.00702506 ) 20
( 0.420402 -0.0901686 -0.00420913 ) 3
( 0.453439 -0.034102 0.0176221 ) 46
( 0.421059 -0.024498 0.00973615 ) 18
( 0.416995 -0.0534561 0.0141022 ) 10
( 0.356095 -0.0319096 0.013089 ) 15
( 0.330615 -0.0475214 0.0165368 ) 32
( 0.376379 -0.0211537 0.0283901 ) 43
( 0.272103 -0.0274507 0.0252035 ) 39
( 0.449624 -0.0556243 0.0147358 ) 37
( 0.356959 -0.0205075 0.0288256 ) 42
( 0.265206 -0.0459963 0.0248917 ) 30
( 0.381799 -0.0450057 -0.0079526 ) 8
( 0.446918 -0.0263396 0.000496912 ) 19
( 0.403512 -0.0668155 0.0187106 ) 35
( 0.302474 -0.029066 0.00277058 ) 13
( 0.313076 -0.0385704 0.0162957 ) 41
( 0.458163 -0.085017 -0.012541 ) 4
( 0.366245 -0.0471551 0.0242482 ) 34
( 0.364541 -0.0665112 0.0198835 ) 34
( 0.321638 -0.0437976 -0.000806372 ) 6
( 0.47315 -0.0488882 -0.00762934 ) 12
( 0.471767 -0.0294012 0.0248422 ) 46
( 0.479577 -0.0884569 0.0394564 ) 29
( 0.310896 -0.0419947 0.0354941 ) 41
( 0.358188 -0.0640493 -0.00604541 ) 7
( 0.458914 -0.0651265 -0.0136873 ) 11
( 0.365492 -0.0900509 0.0118379 ) 1
( 0.332562 -0.0747122 0.0206909 ) 23
( 0.453768 -0.0472736 0.0321673 ) 37
( 0.29092 -0.0718323 0.0280914 ) 22
( 0.341098 -0.0384535 0.00284736 ) 15
( 0.472894 -0.0900594 -0.000565766 ) 5
( 0.490886 -0.0542737 -0.0114814 ) 12
( 0.316003 -0.0224342 0.0280504 ) 41
( 0.410477 -0.0901353 0.0279315 ) 26
( 0.411072 -0.0393328 0.00141854 ) 17
( 0.432977 -0.060336 0.00495124 ) 10
( 0.489583 -0.0631252 0.0313683 ) 38
( 0.3935 -0.0454459 0.00792217 ) 9
( 0.380757 -0.0749692 0.0276212 ) 25
( 0.473121 -0.0442972 0.0118682 ) 12
( 0.339325 -0.0294961 0.0232598 ) 42
( 0.46125 -0.0761901 0.0172431 ) 28
( 0.374558 -0.0346454 0.00734341 ) 16
( 0.268872 -0.0900521 0.0190478 ) 21
( 0.489921 -0.0900073 -0.012006 ) 5
( 0.438359 -0.0440307 -0.0061312 ) 10
( 0.316202 -0.0901241 0.0302859 ) 23
( 0.378787 -0.0901215 -0.0130431 ) 1
( 0.293007 -0.0442593 0.0270649 ) 31
( 0.406271 -0.0869483 0.00910029 ) 2
( 0.417243 -0.0710202 -0.000297481 ) 10
( 0.373337 -0.0405897 0.0416369 ) 43
( 0.452895 -0.0904562 0.0274545 ) 28
( 0.472667 -0.0452592 0.0363068 ) 38
( 0.273659 0.00490983 0.0288217 ) 48
( 0.491031 -0.0817005 0.0257242 ) 29
( 0.437714 -0.0363711 0.0299582 ) 45
( 0.490434 -0.0901358 0.00789153 ) 5
( 0.341621 -0.0440594 0.0523882 ) 62
( 0.32258 -0.0609974 0.0518957 ) 61
( 0.282046 -0.0108887 0.0551405 ) 78
( 0.26708 -0.0899191 0.0394336 ) 21
( 0.382846 -0.0241406 0.0468098 ) 72
( 0.398167 -0.0904958 0.0520582 ) 55
( 0.423236 -0.0351602 0.0571872 ) 74
( 0.347815 -0.0707594 0.0552256 ) 62
( 0.340465 -0.0903408 0.0570218 ) 53
( 0.489764 -0.0340037 -0.0125421 ) 20
( 0.296279 0.00149821 0.0483721 ) 78
( 0.289374 -0.0247768 0.0432571 ) 69
( 0.327582 -0.00948147 0.0489038 ) 79
( 0.485096 -0.023421 0.0484557 ) 76
( 0.271666 -0.0729562 0.0575833 ) 50
( 0.387114 -0.0554011 0.0522394 ) 63
( 0.439319 -0.0685448 0.054009 ) 65
( 0.265313 -0.053667 0.0519452 ) 59
( 0.461561 -0.0904502 0.0454251 ) 57
( 0.454232 -0.0170722 0.0576602 ) 75
( 0.490383 -0.0902825 0.0771883 ) 89
( 0.31236 -0.0419427 0.0679225 ) 70
( 0.298929 -0.0581728 0.05909 ) 60
( 0.362186 -0.0342585 0.0567639 ) 72
( 0.374696 -0.0902909 0.0582549 ) 54
( 0.420612 -0.0738996 0.0571551 ) 56
( 0.370843 -0.0561718 0.0634516 ) 63
( 0.456222 -0.0596516 0.0490439 ) 66
( 0.285017 -0.0901806 0.0581375 ) 51
( 0.489743 -0.0551629 0.0589794 ) 67
( 0.326355 -0.077724 0.0614562 ) 52
( 0.348463 0.0104917 0.0617973 ) 80
( 0.438552 -0.0481296 0.0575629 ) 65
( 0.471334 -0.0733997 0.0600562 ) 57
( 0.43141 -0.090113 0.0611584 ) 56
( 0.335327 -0.0241995 0.0598185 ) 71
( 0.462285 -0.0356261 0.068411 ) 75
( 0.283808 -0.0297727 0.0616243 ) 69
( 0.401089 -0.0432156 0.058099 ) 64
( 0.368308 -0.015349 0.0572713 ) 72
( 0.323819 0.00749508 0.0590679 ) 79
( 0.283711 0.00666933 0.0638861 ) 78
( 0.386638 -0.0748091 0.0528715 ) 54
( 0.434635 -0.0199444 0.063094 ) 74
( 0.31038 -0.0258623 0.0467518 ) 70
( 0.335411 -0.0570257 0.0662114 ) 62
( 0.38059 -0.038874 0.0600844 ) 72
( 0.25553 -0.0205435 0.042535 ) 39
( 0.254464 -0.041729 0.0408435 ) 39
( 0.265547 -0.0220944 0.0594374 ) 68
( 0.402691 -0.023755 0.054974 ) 73
( 0.454969 -0.0398361 0.0504846 ) 75
( 0.417454 -0.0902873 0.0467477 ) 56
( 0.310173 -0.00947123 0.0575418 ) 79
( 0.367158 -0.0727407 0.0532226 ) 54
( 0.425382 -0.0572342 0.046614 ) 65
( 0.336479 -0.0703759 0.0393972 ) 33
( 0.358965 -0.0520146 0.0486993 ) 62
( 0.472285 -0.0687757 0.040844 ) 38
( 0.255269 -0.0756529 0.0469593 ) 50
( 0.373957 -0.06003 0.0383958 ) 34
( 0.296661 -0.0418534 0.0489501 ) 69
( 0.355485 -0.0877827 0.0704473 ) 53
( 0.420856 -0.0529441 0.0654744 ) 65
( 0.260497 0.013931 0.0399307 ) 48
( 0.297619 -0.0256791 0.0215408 ) 40
( 0.299382 -0.090129 0.044127 ) 51
( 0.465882 -0.0248319 0.0434494 ) 75
( 0.353747 -0.00778233 0.0729007 ) 111
( 0.406513 -0.0618697 0.0505368 ) 64
( 0.412195 -0.0438315 0.0419751 ) 35
( 0.434312 -0.0723211 0.0352803 ) 27
( 0.272036 -0.069584 0.038192 ) 30
( 0.317476 -0.0705737 0.0351736 ) 32
( 0.473406 -0.015846 0.0617197 ) 76
( 0.307886 -0.0741208 0.0518826 ) 52
( 0.49015 -0.0739941 0.0479633 ) 58
( 0.38037 -0.0901837 0.0399248 ) 25
( 0.490562 -0.0261524 0.0302216 ) 47
( 0.337891 0.0071102 0.0454361 ) 80
( 0.490634 -0.0418323 0.044363 ) 76
( 0.348922 -0.0255225 0.0459296 ) 71
( 0.322422 -0.0412486 0.0514617 ) 70
( 0.288738 -0.0736726 0.0476649 ) 51
( 0.261856 -0.0901551 0.0585701 ) 50
( 0.271922 -0.0335698 0.0439803 ) 68
( 0.412038 -0.0894046 0.0659502 ) 55
( 0.402866 -0.0603517 0.0695604 ) 64
( 0.350059 -0.0416713 0.034471 ) 42
( 0.398076 -0.0775649 0.037103 ) 26
( 0.392977 -0.0401158 0.0409718 ) 44
( 0.334363 -0.0900743 0.0381749 ) 24
( 0.48429 -0.0901829 0.0585303 ) 58
( 0.280389 -0.0551345 0.064094 ) 60
( 0.284955 -0.0903555 0.0307523 ) 22
( 0.300351 -0.0114023 0.0345252 ) 49
( 0.414362 -0.0164417 0.0690172 ) 73
( 0.35783 -0.0901791 0.0482776 ) 53
( 0.392377 -0.0896303 0.0710681 ) 55
( 0.442254 -0.0878754 0.0446851 ) 56
( 0.490812 -0.0350783 0.0637952 ) 76
( 0.355036 -0.0470671 0.0723195 ) 93
( 0.415232 -0.0685816 0.034349 ) 35
( 0.452275 -0.0818065 0.0599504 ) 57
( 0.407082 0.00550505 0.0731058 ) 113
( 0.302116 0.00740476 0.0290452 ) 49
( 0.315985 -0.0232051 0.0732015 ) 101
( 0.281992 -0.0527169 0.041244 ) 31
( 0.395615 -0.0582907 0.0346647 ) 35
( 0.251205 -0.0602049 0.0356541 ) 30
( 0.304485 -0.0901548 0.0636535 ) 51
( 0.294651 -0.0463428 0.0741221 ) 91
( 0.386564 -0.0194287 0.0653882 ) 72
( 0.40209 -0.0236045 0.0353518 ) 44
( 0.474416 -0.0392254 0.0543459 ) 76
( 0.441167 -0.0252755 0.045428 ) 74
( 0.355849 -0.0677306 0.0375145 ) 33
( 0.304058 0.0125884 0.0622019 ) 78
( 0.301329 -0.0597434 0.0397154 ) 31
( 0.272773 -0.0124439 0.0378936 ) 48
( 0.26555 -0.00169012 0.064648 ) 77
( 0.335651 0.0085731 0.0762131 ) 111
( 0.444583 -0.0610177 0.0713453 ) 66
( 0.288762 -0.0129877 0.0903632 ) 109
( 0.490043 -0.0730003 0.0677139 ) 58
( 0.463037 -0.0567321 0.0669228 ) 66
( 0.380056 -0.0729392 0.0714883 ) 85
( 0.328945 -0.00861265 0.0697754 ) 79
( 0.443535 -0.0353693 0.0713098 ) 74
( 0.341306 -0.0745498 0.0730652 ) 84
( 0.419275 -0.020122 0.0449238 ) 74
( 0.467012 -0.0905395 0.0689657 ) 57
( 0.347865 -0.00761737 0.0541493 ) 80
( 0.427153 -0.0691757 0.0750936 ) 96
( 0.318351 -0.0906624 0.0497617 ) 52
( 0.408749 -0.0349895 0.0732587 ) 104
( 0.385423 -0.0546154 0.0760879 ) 94
( 0.370747 -0.0280257 0.0735063 ) 103
( 0.251384 -0.0141457 0.0712499 ) 77
( 0.335291 -0.0387418 0.0730954 ) 102
( 0.294329 -0.0272424 0.078193 ) 100
( 0.478091 -0.0465984 0.0725095 ) 98
( 0.389801 -0.0351032 0.0766174 ) 104
( 0.373445 -0.00841436 0.0751068 ) 112
( 0.288825 -0.0730382 0.0672769 ) 51
( 0.425546 -0.0902241 0.0802333 ) 87
( 0.330252 -0.0271426 0.0406038 ) 41
( 0.267148 -0.0398405 0.0682069 ) 68
( 0.4265 -0.0298733 0.0780232 ) 105
( 0.311925 -0.00039668 0.0747198 ) 110
( 0.477403 -0.0272903 0.0770299 ) 107
( 0.312617 -0.067019 0.0695199 ) 61
( 0.35886 -0.0897857 0.0902631 ) 84
( 0.351078 -0.0272599 0.0727382 ) 102
( 0.398532 -0.0692125 0.089307 ) 95
( 0.382926 0.00871385 0.0784567 ) 112
( 0.362183 -0.0641872 0.0796517 ) 94
( 0.276955 -0.0149624 0.0738385 ) 99
( 0.398773 -0.0179437 0.0807646 ) 104
( 0.295131 -0.0094623 0.06982 ) 78
( 0.363895 0.00900632 0.0737335 ) 112
( 0.26406 -0.0622572 0.0721073 ) 90
( 0.32792 -0.0731463 0.0900772 ) 83
( 0.321986 -0.0892685 0.0798589 ) 83
( 0.431918 -0.0501672 0.0816146 ) 96
( 0.40645 -0.0905338 0.0850504 ) 86
( 0.270837 -0.0903403 0.0760017 ) 81
( 0.373596 -0.0904668 0.0773335 ) 85
( 0.281362 -0.0625801 0.0823137 ) 91
( 0.375212 -0.0455487 0.0902703 ) 94
( 0.34478 -0.00707686 0.090344 ) 111
( 0.459279 -0.0735666 0.0758752 ) 88
( 0.415691 0.000586937 0.0900565 ) 113
( 0.454795 -0.0473505 0.0821015 ) 97
( 0.287463 0.0056783 0.0843226 ) 109
( 0.386144 -0.00675253 0.0904517 ) 112
( 0.474123 -0.0822857 0.0847551 ) 89
( 0.290455 -0.0900814 0.0774204 ) 82
( 0.380154 -0.0258413 0.0906079 ) 103
( 0.413977 -0.0571623 0.0854483 ) 95
( 0.332637 -0.02155 0.084071 ) 101
( 0.352282 -0.0386016 0.0901262 ) 102
( 0.251022 -0.0204051 0.0901429 ) 99
( 0.378829 -0.0665754 0.0902959 ) 94
( 0.447541 -0.0194211 0.0823663 ) 106
( 0.438047 -0.0788253 0.0904222 ) 87
( 0.270239 0.0127834 0.090399 ) 108
( 0.255973 0.00171226 0.0824563 ) 108
( 0.490429 -0.0396338 0.085911 ) 107
( 0.472791 -0.0630601 0.0900758 ) 98
( 0.339015 -0.0901096 0.0901753 ) 84
( 0.307811 -0.0353555 0.0902198 ) 101
( 0.340003 -0.0542424 0.0900296 ) 93
( 0.268628 -0.0295173 0.090348 ) 99
( 0.490375 -0.0588651 0.0815411 ) 98
( 0.39575 -0.0472274 0.0906507 ) 95
( 0.363711 -0.00120021 0.0904648 ) 112
( 0.414411 -0.0385685 0.0909915 ) 104
( 0.300223 -0.0732083 0.0830688 ) 82
( 0.268972 -0.00994057 0.0906693 ) 108
( 0.319986 -0.0553941 0.0831134 ) 92
( 0.279372 -0.0803865 0.0904485 ) 82
( 0.39867 0.0103372 0.0903033 ) 113
( 0.444675 -0.0902996 0.0758614 ) 88
( 0.325268 -0.00270863 0.0900752 ) 110
( 0.305198 -0.0903084 0.0905315 ) 82
( 0.347885 -0.0723943 0.0907853 ) 84
( 0.451109 -0.0643139 0.0906006 ) 97
( 0.471545 -0.0411513 0.0904085 ) 106
( 0.441793 -0.0358796 0.0908434 ) 105
( 0.267701 -0.0486506 0.085962 ) 90
( 0.309125 -0.0154057 0.0901407 ) 101
( 0.416108 -0.0190217 0.0906494 ) 104
( 0.386148 -0.0850399 0.0906898 ) 85
( 0.490348 -0.0204978 0.0902978 ) 107
( 0.465321 -0.0224053 0.0909418 ) 106
( 0.285182 -0.0401059 0.0902027 ) 100
( 0.306037 0.00887402 0.0905726 ) 110
( 0.417367 -0.0755349 0.0906622 ) 87
( 0.490823 -0.0761871 0.0908174 ) 89
( 0.327173 -0.039133 0.0907348 ) 101
( 0.457678 -0.090319 0.090463 ) 88
( 0.297561 -0.0555291 0.0907639 ) 91
( 0.264485 -0.0674613 0.0908109 ) 90
( 0.360985 -0.0207872 0.0901442 ) 102
)
