/*--------------------------------*- C++ -*----------------------------------*\
| =========                 |                                                 |
| \\      /  F ield         | OpenFOAM: The Open Source CFD Toolbox           |
|  \\    /   O peration     | Version:  4.x                                   |
|   \\  /    A nd           | Web:      www.OpenFOAM.org                      |
|    \\/     M anipulation  |                                                 |
\*---------------------------------------------------------------------------*/
FoamFile
{
    version     2.0;
    format      ascii;
    class       volVectorField;
    location    "28";
    object      DDtUrel;
}
// * * * * * * * * * * * * * * * * * * * * * * * * * * * * * * * * * * * * * //

dimensions      [0 1 -2 0 0 0 0];

internalField   nonuniform List<vector> 
87
(
(0.000267995 5.86879e-05 3.95309e-05)
(0.000163665 4.90047e-05 2.98688e-05)
(0.000128996 3.47128e-05 3.65806e-05)
(-4.27907e-05 9.17009e-06 2.23333e-05)
(-9.58131e-05 -1.73468e-05 2.45264e-05)
(-0.000516583 -7.2674e-05 -6.6163e-05)
(-0.000777219 -0.000132521 -0.000153858)
(-0.00223207 -0.000307199 -0.000618859)
(-0.00397839 -0.000407352 -0.00100524)
(0.000260498 4.58166e-05 3.95012e-05)
(0.000154193 3.1302e-05 3.61789e-05)
(0.000105189 2.23965e-05 4.57781e-05)
(-7.79186e-05 -1.57e-05 3.36573e-05)
(-0.000145713 -2.29308e-05 3.71204e-05)
(-0.000557457 -0.000103788 -5.60051e-05)
(-0.000813837 -9.84367e-05 -0.000126805)
(-0.00211631 -0.000382845 -0.000456679)
(-0.00365005 -0.000651191 -0.000793274)
(0.000219352 3.08664e-05 4.39174e-05)
(0.000114532 3.77527e-05 4.69712e-05)
(3.48335e-05 3.40956e-05 5.81542e-05)
(-0.000151154 -3.6463e-06 3.4618e-05)
(-0.000295737 -1.98379e-05 2.75966e-05)
(-0.000640581 -6.94876e-05 -6.5932e-05)
(-0.00101578 -8.5777e-05 -0.000149827)
(-0.00187081 -0.000248815 -0.000441043)
(-0.00289471 -0.000426049 -0.000738266)
(0.000201463 5.19152e-05 3.87326e-05)
(0.000106958 4.47949e-05 2.75016e-05)
(6.75614e-05 3.18603e-05 3.2826e-05)
(-8.12874e-05 8.0572e-06 1.55607e-05)
(-0.000146871 -1.47645e-05 2.66507e-05)
(-0.000499655 -7.44559e-05 -6.40899e-05)
(-0.000781873 -0.000140411 -0.000119146)
(-0.00194963 -0.000308611 -0.000549053)
(-0.00332031 -0.000401102 -0.000951086)
(0.000188661 4.60078e-05 5.0004e-05)
(0.000104821 3.34065e-05 3.95158e-05)
(5.48637e-05 2.50612e-05 4.02587e-05)
(-0.000104389 -9.18158e-06 2.25282e-05)
(-0.000182528 -1.83036e-05 3.47258e-05)
(-0.000526222 -9.26917e-05 -6.06974e-05)
(-0.000828303 -0.000110097 -0.000116733)
(-0.0018541 -0.0003997 -0.000462931)
(-0.00301913 -0.000656481 -0.000819738)
(0.000160752 2.2131e-05 5.1471e-05)
(8.42895e-05 2.50656e-05 4.26916e-05)
(-4.07212e-06 2.74004e-05 4.33225e-05)
(-0.000154613 1.905e-06 2.69734e-05)
(-0.000302124 -1.33657e-05 1.87541e-05)
(-0.000579304 -4.63316e-05 -6.46938e-05)
(-0.00096913 -7.89932e-05 -0.000161633)
(-0.00163845 -0.000218092 -0.000444518)
(-0.0024026 -0.000358829 -0.000710229)
(0.000134225 5.79952e-05 2.30718e-05)
(3.96402e-05 4.89073e-05 1.99083e-05)
(-2.28132e-05 2.80446e-05 2.77219e-05)
(-0.000150574 -1.67537e-06 1.20054e-05)
(-0.000249424 -2.05108e-05 1.70047e-05)
(-0.000527053 -7.68555e-05 -4.02058e-05)
(-0.000870303 -0.000140244 -5.94971e-05)
(-0.00163708 -0.000273357 -0.000293524)
(-0.00258405 -0.000392666 -0.000561138)
(0.000135449 4.76866e-05 2.62508e-05)
(5.92837e-05 3.55556e-05 2.48624e-05)
(-3.01048e-05 2.25915e-05 3.48112e-05)
(-0.000157268 -5.02502e-06 1.97266e-05)
(-0.000252054 -2.1026e-05 1.80615e-05)
(-0.000517188 -8.25888e-05 -5.15725e-05)
(-0.000849574 -0.000117316 -8.56607e-05)
(-0.00155186 -0.000319164 -0.00032988)
(-0.00239788 -0.000524889 -0.000577415)
(0.000105851 2.51845e-05 2.55528e-05)
(4.66598e-05 1.86133e-05 2.22772e-05)
(-6.42109e-05 1.09785e-05 2.75846e-05)
(-0.000195481 -5.30584e-06 1.65136e-05)
(-0.000305174 -2.10826e-05 4.96766e-06)
(-0.000537566 -5.04393e-05 -5.89506e-05)
(-0.000878956 -7.50446e-05 -0.000123992)
(-0.00137082 -0.000229167 -0.000346183)
(-0.00201488 -0.000344622 -0.000536836)
(7.46445e-05 3.01887e-05 2.06681e-05)
(5.38302e-06 2.9672e-05 2.3741e-05)
(-5.99538e-05 2.28557e-05 3.60939e-05)
(6.42748e-05 2.29693e-05 6.72569e-06)
(1.10302e-05 2.04308e-05 1.81869e-05)
(3.39651e-05 8.29665e-06 5.00802e-06)
)
;

boundaryField
{
    inlet
    {
        type            calculated;
        value           nonuniform 0();
    }
    outlet
    {
        type            calculated;
        value           nonuniform List<vector> 9((-0.0126579 -4.2069e-06 -0.00307209) (-0.0118596 -0.00294089 -0.001322) (-0.00554775 -0.00191251 -0.00159325) (-0.00892273 7.37772e-05 -0.0036848) (-0.00772974 -0.00360127 -0.00273178) (-0.00257426 -0.00123451 -0.00137964) (-0.00534721 -0.000201763 -0.00190407) (-0.00507998 -0.00187735 -0.00218361) (-0.00276075 -0.00157949 -0.00127586));
    }
    wall
    {
        type            calculated;
        value           nonuniform List<vector> 
57
(
(0.000698709 0.00017246 8.61699e-05)
(0.000873998 0.000127198 2.48454e-05)
(0.000497803 8.45422e-05 0.000178181)
(0.000140687 0.000131096 -3.51507e-05)
(0.00021239 -6.71436e-05 -2.963e-05)
(-0.000183645 0.000170078 9.32535e-05)
(0.000834153 0.000117692 8.77965e-05)
(0.000836356 3.5262e-05 0.00012341)
(0.000142227 0.000226029 0.000209054)
(-0.000202149 9.18964e-05 -4.48656e-05)
(-0.000253977 -0.000248647 4.89845e-05)
(-0.000534095 -0.000118011 -7.04274e-05)
(0.00140498 8.51212e-05 0.000280369)
(0.00138832 0.00017491 0.000425242)
(-6.6588e-05 -1.98217e-05 0.000247251)
(-0.00096211 4.28608e-05 -0.000113326)
(-0.0010268 -0.000617405 -5.23617e-05)
(-0.000885215 -0.000386389 -0.000151343)
(0.00321932 0.000158932 0.000879691)
(0.00312626 0.00094153 0.000835456)
(-0.000106222 0.000140207 0.000527949)
(-0.00250845 -0.000312348 -0.00158433)
(-0.00256767 -0.00102509 3.30862e-05)
(-0.00141433 -0.000693371 -0.000320901)
(-0.0126579 -4.2069e-06 -0.00307209)
(-0.0118596 -0.00294089 -0.001322)
(-0.00554775 -0.00191251 -0.00159325)
(0.000698709 0.00017246 8.61699e-05)
(0.000469498 8.07687e-05 9.73381e-05)
(0.000334295 0.000295091 -1.09997e-05)
(0.000111051 4.43753e-05 4.01473e-05)
(0.000140687 0.000131096 -3.51507e-05)
(-3.27253e-05 7.30894e-05 -4.69028e-05)
(-0.000225889 0.000199555 -6.5751e-05)
(-0.000164275 6.71091e-05 1.77418e-05)
(0.000834153 0.000117692 8.77965e-05)
(0.000549976 9.09824e-05 8.74799e-05)
(4.80261e-05 7.76478e-05 4.10071e-05)
(-0.000156119 9.28223e-05 0.000117664)
(-0.000202149 9.18964e-05 -4.48656e-05)
(-0.000186104 8.39911e-05 -0.000107568)
(-0.000364938 -4.45832e-05 -0.000141569)
(0.00140498 8.51212e-05 0.000280369)
(0.00105094 0.00014103 0.000368049)
(0.000183477 0.000119124 0.000145098)
(-0.00096211 4.28608e-05 -0.000113326)
(-0.000510648 3.31393e-06 -0.000256909)
(-0.000455831 -2.37243e-05 -0.000246431)
(0.00321932 0.000158932 0.000879691)
(0.00248613 7.35765e-05 0.00101169)
(0.000238471 7.51317e-05 0.000658814)
(-0.00250845 -0.000312348 -0.00158433)
(-0.00167666 -0.000386825 -0.00147174)
(-0.00103013 -2.00185e-05 -0.000239034)
(-0.0126579 -4.2069e-06 -0.00307209)
(-0.00892273 7.37772e-05 -0.0036848)
(-0.00534721 -0.000201763 -0.00190407)
)
;
    }
    procBoundary1to0
    {
        type            processor;
        value           nonuniform List<vector> 
12
(
(0.000309453 5.18484e-05 3.56018e-05)
(0.000277007 3.70105e-05 3.32076e-05)
(0.00023596 2.00108e-05 2.564e-05)
(0.00022591 4.36183e-05 3.52955e-05)
(0.000199263 2.90322e-05 3.36961e-05)
(0.000173133 1.74568e-05 3.22222e-05)
(0.000158725 3.57575e-05 2.12697e-05)
(0.000140594 2.73999e-05 2.32449e-05)
(0.000159582 1.73372e-05 2.53349e-05)
(9.48356e-05 2.23739e-05 2.16414e-05)
(7.87473e-05 1.60915e-05 1.63932e-05)
(6.93513e-05 1.06784e-05 1.48459e-05)
)
;
    }
    procBoundary1to3
    {
        type            processor;
        value           nonuniform List<vector> 
27
(
(0.00023938 1.13459e-05 1.29751e-05)
(0.000176113 2.49089e-05 3.83371e-05)
(8.09467e-05 2.59467e-05 7.28323e-05)
(-0.000139671 1.74557e-05 6.00198e-05)
(-0.000302465 1.22948e-05 4.67828e-05)
(-0.000673162 9.67803e-06 -5.94188e-05)
(-0.00105351 1.6145e-06 -0.000163027)
(-0.0018281 1.46901e-05 -0.000454902)
(-0.00284799 2.98359e-05 -0.000746535)
(0.00017153 4.5121e-06 2.20131e-05)
(0.000132206 1.24671e-05 4.67799e-05)
(1.8812e-05 1.31783e-05 6.66436e-05)
(-0.00016707 1.17761e-05 3.29632e-05)
(-0.000296738 1.04831e-05 1.87892e-05)
(-0.000585572 1.6158e-05 -7.83304e-05)
(-0.000920529 1.02711e-05 -0.000163986)
(-0.00159125 7.76511e-05 -0.000508497)
(-0.00243412 0.000128739 -0.00080874)
(0.000112797 9.81631e-06 2.35019e-05)
(0.000202212 -2.90023e-06 1.6468e-05)
(-6.73087e-05 -8.75157e-06 1.54107e-05)
(-0.000292685 2.93764e-06 9.7082e-06)
(-0.000316682 3.82082e-06 -1.78739e-08)
(-0.000539016 8.54314e-06 -7.49733e-05)
(-0.00085549 1.26554e-05 -0.000156339)
(-0.00134175 5.21549e-05 -0.000430585)
(-0.00195049 8.08606e-05 -0.000624853)
)
;
    }
    procBoundary1to5
    {
        type            processor;
        value           nonuniform List<vector> 
32
(
(-0.000173361 -5.69321e-06 2.89814e-05)
(-0.000301619 -3.16472e-05 3.02621e-05)
(-0.000517924 -8.33695e-05 2.21881e-05)
(-0.000893618 -0.000159551 1.86743e-05)
(-0.0014174 -0.000289829 1.58081e-05)
(-0.00213359 -0.000440552 4.23191e-07)
(-5.9624e-05 1.84184e-05 4.28893e-05)
(-0.00016471 -6.36681e-06 2.59156e-05)
(-0.000279895 -2.63874e-05 1.94146e-05)
(-0.000496086 -7.51331e-05 1.7159e-06)
(-0.000841101 -0.000124486 -2.77316e-06)
(-0.00134232 -0.000296597 -6.87749e-05)
(-0.00199271 -0.000481769 -0.000129402)
(6.95603e-06 4.79872e-06 8.02718e-06)
(-8.65071e-05 4.83617e-06 2.23605e-05)
(-0.000178939 -8.18206e-06 1.65463e-05)
(-0.000297325 -2.1867e-05 8.84687e-06)
(-0.000485503 -4.96795e-05 -1.83983e-05)
(-0.000819049 -8.66318e-05 -5.64867e-05)
(-0.00121537 -0.000204207 -0.000139597)
(-0.00174643 -0.000294715 -0.000195349)
(6.53791e-05 1.38112e-05 2.16146e-05)
(1.69692e-05 1.41649e-05 2.53229e-05)
(-0.000173361 -5.69321e-06 2.89814e-05)
(-5.9624e-05 1.84184e-05 4.28893e-05)
(-1.43487e-05 2.20794e-05 3.16803e-05)
(4.40876e-05 1.39139e-05 1.33682e-05)
(-5.9624e-05 1.84184e-05 4.28893e-05)
(6.95603e-06 4.79872e-06 8.02718e-06)
(1.36496e-05 7.86744e-06 1.47913e-05)
(6.95603e-06 4.79872e-06 8.02718e-06)
(2.11818e-05 7.36983e-06 7.44125e-06)
)
;
    }
    procBoundary1to7
    {
        type            processor;
        value           uniform (5.46809e-05 6.70867e-06 2.05264e-05);
    }
}


// ************************************************************************* //
