/*--------------------------------*- C++ -*----------------------------------*\
| =========                 |                                                 |
| \\      /  F ield         | OpenFOAM: The Open Source CFD Toolbox           |
|  \\    /   O peration     | Version:  4.x                                   |
|   \\  /    A nd           | Web:      www.OpenFOAM.org                      |
|    \\/     M anipulation  |                                                 |
\*---------------------------------------------------------------------------*/
FoamFile
{
    version     2.0;
    format      ascii;
    class       volVectorField;
    location    "28";
    object      ddtUrel;
}
// * * * * * * * * * * * * * * * * * * * * * * * * * * * * * * * * * * * * * //

dimensions      [0 1 -2 0 0 0 0];

internalField   nonuniform List<vector> 
87
(
(-4.73734e-08 -1.30727e-07 -1.6741e-07)
(-5.21519e-08 2.45284e-08 -1.47341e-07)
(1.39459e-07 6.90129e-08 -1.36304e-07)
(8.59542e-08 2.49079e-08 -1.22679e-07)
(-4.11713e-08 -1.45562e-08 -1.60128e-07)
(-1.47196e-07 -1.5025e-08 -1.44218e-07)
(-3.19096e-07 1.10786e-08 -9.00647e-08)
(-4.0487e-07 2.41321e-08 -5.83284e-08)
(-2.93193e-07 1.65568e-08 -3.69809e-08)
(-1.15249e-07 -2.7602e-07 -2.28357e-07)
(4.0316e-09 -6.84087e-08 -1.83478e-07)
(8.85578e-08 -1.10411e-08 -1.54669e-07)
(3.07941e-08 1.27e-08 -1.23698e-07)
(-3.15666e-08 -3.19994e-08 -1.35704e-07)
(-1.78094e-07 -1.97065e-08 -1.32203e-07)
(-3.4406e-07 2.0412e-08 -1.02243e-07)
(-4.57656e-07 2.10195e-08 -6.97894e-08)
(-3.48113e-07 1.94749e-08 -4.83838e-08)
(-4.15467e-07 -4.8426e-07 -3.93228e-07)
(-5.80886e-08 -1.95579e-07 -2.19195e-07)
(1.05397e-07 -9.27808e-08 -1.64711e-07)
(-7.7009e-09 -3.4904e-08 -1.35185e-07)
(-6.67051e-08 -1.38466e-08 -1.34927e-07)
(-1.15243e-07 3.62183e-09 -1.21737e-07)
(-3.18908e-07 2.25887e-08 -1.02998e-07)
(-4.72054e-07 1.89397e-08 -1.01138e-07)
(-3.64533e-07 1.91996e-08 -8.38137e-08)
(4.32447e-08 -1.12099e-07 -1.40194e-07)
(7.27803e-08 -3.86943e-08 -1.19212e-07)
(1.67082e-07 6.35519e-09 -9.99681e-08)
(1.12713e-07 4.19914e-09 -1.07114e-07)
(4.466e-08 -1.03974e-08 -1.35963e-07)
(-2.58356e-08 -5.95652e-09 -1.28901e-07)
(-2.18064e-07 8.36497e-09 -8.15066e-08)
(-3.28569e-07 1.71842e-08 -5.53935e-08)
(-2.79233e-07 1.99482e-08 -3.92352e-08)
(1.55959e-08 -2.18021e-07 -1.90253e-07)
(8.38761e-08 -1.01987e-07 -1.65753e-07)
(1.61504e-07 -3.68989e-08 -1.25101e-07)
(9.51396e-08 -2.33863e-10 -1.24529e-07)
(3.47459e-08 -2.29706e-08 -1.3769e-07)
(-5.29572e-08 -8.74589e-09 -1.19959e-07)
(-2.61897e-07 1.80938e-08 -8.63068e-08)
(-4.03708e-07 2.05543e-08 -5.77073e-08)
(-3.30415e-07 2.33794e-08 -4.38975e-08)
(-7.6187e-08 -3.41992e-07 -2.45839e-07)
(7.02894e-08 -1.64925e-07 -2.25622e-07)
(1.63315e-07 -1.02881e-07 -1.98407e-07)
(6.82746e-08 -4.49576e-08 -1.51352e-07)
(1.08144e-08 -1.29785e-08 -1.41092e-07)
(-4.93495e-08 1.5723e-08 -1.07676e-07)
(-3.05173e-07 3.20583e-08 -8.3038e-08)
(-4.81728e-07 2.91057e-08 -7.99678e-08)
(-3.66216e-07 2.77305e-08 -6.63625e-08)
(1.44106e-07 -8.66596e-08 -1.19532e-07)
(1.44097e-07 -5.60975e-08 -9.78877e-08)
(1.99724e-07 -9.87533e-09 -8.88901e-08)
(1.72628e-07 -6.62812e-09 -8.5181e-08)
(1.03913e-07 -1.29216e-08 -9.64189e-08)
(1.76584e-08 -5.26252e-09 -8.9326e-08)
(-1.68625e-07 9.34372e-09 -5.96312e-08)
(-2.89681e-07 1.83401e-08 -4.57971e-08)
(-2.4097e-07 2.45131e-08 -2.51973e-08)
(1.03123e-07 -1.31221e-07 -1.61206e-07)
(1.61242e-07 -9.94608e-08 -1.31885e-07)
(2.2271e-07 -6.31635e-08 -1.17665e-07)
(1.42836e-07 -1.57427e-08 -1.04109e-07)
(1.07974e-07 -3.18627e-08 -9.3032e-08)
(1.35986e-08 -3.48614e-09 -9.01864e-08)
(-2.30028e-07 1.94149e-08 -6.51689e-08)
(-3.82727e-07 2.32253e-08 -4.06696e-08)
(-3.0056e-07 2.74622e-08 -2.72546e-08)
(3.98661e-08 -2.19421e-07 -2.10583e-07)
(8.46984e-08 -1.04003e-07 -1.84394e-07)
(2.64249e-07 -1.97863e-08 -1.6492e-07)
(1.75539e-07 -3.43757e-08 -1.27362e-07)
(1.13665e-07 -5.38409e-08 -1.01532e-07)
(1.27186e-08 6.65466e-09 -8.23219e-08)
(-2.62593e-07 1.91334e-08 -7.34241e-08)
(-4.258e-07 1.89428e-08 -5.69477e-08)
(-3.53668e-07 2.7281e-08 -2.86718e-08)
(1.67939e-07 -7.13215e-08 -1.03804e-07)
(2.18608e-07 -5.19612e-08 -6.75323e-08)
(2.59996e-07 -2.60021e-08 -6.33559e-08)
(1.90206e-07 -9.84121e-08 -1.28724e-07)
(1.99987e-07 -8.96853e-08 -8.36878e-08)
(1.52935e-07 -1.34891e-07 -1.75587e-07)
)
;

boundaryField
{
    inlet
    {
        type            calculated;
        value           nonuniform 0();
    }
    outlet
    {
        type            calculated;
        value           nonuniform List<vector> 9((3.41064e-08 -1.89276e-09 -3.99941e-08) (2.05071e-08 1.4672e-10 -1.47795e-08) (-4.09919e-08 -8.04426e-08 -8.79069e-08) (6.16425e-08 1.07073e-08 -2.12029e-08) (1.34516e-09 3.25872e-09 -3.66132e-08) (-6.4074e-10 1.14529e-08 -7.1482e-08) (8.48434e-08 -2.28414e-09 -8.05186e-10) (5.32291e-08 2.16845e-08 -2.74473e-08) (8.04027e-08 7.66197e-09 -6.87788e-08));
    }
    wall
    {
        type            calculated;
        value           nonuniform List<vector> 
57
(
(-7.95937e-07 1.63318e-07 1.65653e-07)
(3.20506e-07 5.13943e-08 1.77666e-07)
(-8.33619e-07 -2.47701e-07 -1.17583e-07)
(-1.83277e-06 9.95589e-07 -7.2234e-08)
(-3.63755e-07 6.73274e-07 -2.10531e-07)
(2.38849e-08 2.51275e-07 1.7627e-07)
(1.008e-06 7.13129e-07 -1.31483e-07)
(-1.99931e-07 2.72056e-07 -3.69164e-07)
(1.24547e-06 6.84011e-08 1.7235e-08)
(2.58314e-07 1.34683e-07 -2.49049e-08)
(1.56296e-07 3.1983e-07 6.62732e-08)
(-1.19659e-07 9.85323e-08 2.48097e-07)
(-1.26307e-06 -1.43961e-07 -5.10015e-07)
(7.69105e-07 -2.99278e-07 -1.01808e-07)
(-3.10304e-07 -9.91538e-08 -1.50658e-07)
(-7.55618e-07 -1.43822e-07 -3.26389e-07)
(-1.30668e-06 -2.54829e-07 -2.17208e-07)
(6.62274e-08 -1.15347e-07 -1.81294e-07)
(-7.50785e-07 8.10796e-08 1.00456e-08)
(-1.21815e-06 1.78886e-07 -1.78811e-07)
(-8.15636e-07 -4.97682e-08 -1.57782e-07)
(-1.16529e-06 6.92196e-08 6.9626e-08)
(-1.49254e-06 1.06353e-08 -1.96024e-08)
(-1.8036e-06 -1.08702e-07 -2.08099e-07)
(2.46594e-07 -1.2208e-09 6.99001e-08)
(-3.03076e-07 3.39291e-08 8.77041e-08)
(-2.66764e-07 -3.55339e-08 -6.99679e-08)
(-6.42265e-07 7.8855e-08 2.26591e-07)
(-4.92593e-07 -4.31054e-08 2.16898e-07)
(2.43383e-08 -7.56049e-08 3.30035e-09)
(3.23734e-07 4.52611e-08 -1.61301e-07)
(-1.48851e-06 7.27743e-07 -9.91563e-08)
(1.86975e-07 2.76284e-08 1.25117e-07)
(-8.01603e-08 -2.3829e-08 3.53732e-08)
(4.76e-07 -4.33376e-08 8.33713e-08)
(2.29325e-06 7.58039e-07 -7.58516e-08)
(7.91894e-07 1.05397e-07 1.75107e-07)
(5.00546e-07 3.10982e-07 4.38222e-08)
(3.94552e-07 -1.5618e-08 3.64321e-08)
(3.95543e-07 1.5681e-07 -1.10697e-08)
(5.1879e-08 2.59637e-08 4.12264e-10)
(2.18936e-07 -7.29393e-09 2.50182e-09)
(-3.95199e-07 -8.24941e-08 -4.53613e-07)
(9.48175e-08 -1.29554e-08 -3.50134e-07)
(-2.85703e-08 -9.24834e-08 -1.21813e-07)
(1.78514e-07 -1.8216e-07 -4.42886e-07)
(6.37689e-07 -3.07309e-08 -3.33534e-07)
(1.99341e-07 1.39553e-08 -1.07891e-07)
(-6.92755e-07 8.33089e-08 6.87644e-09)
(-4.71752e-07 -1.7288e-08 1.54038e-08)
(-5.12442e-07 -3.0013e-09 -5.68202e-10)
(-1.13716e-06 1.15955e-07 5.95403e-08)
(-7.789e-07 3.10718e-08 -5.3322e-08)
(-9.84391e-07 3.47694e-08 -6.6234e-08)
(2.80034e-07 1.05729e-08 6.32643e-08)
(-2.43468e-08 1.97553e-08 -1.87601e-08)
(-8.14731e-09 -7.07694e-09 3.14665e-08)
)
;
    }
    procBoundary1to0
    {
        type            processor;
        value           nonuniform List<vector> 
12
(
(1.46314e-08 -2.23044e-07 -2.26551e-07)
(-1.24568e-07 -3.74885e-07 -3.49724e-07)
(-9.26026e-07 -7.96515e-07 -7.33187e-07)
(1.61862e-07 -1.54818e-07 -1.71635e-07)
(5.88757e-08 -2.46603e-07 -2.42378e-07)
(-2.01768e-07 -4.36022e-07 -4.05153e-07)
(2.01453e-07 -1.02835e-07 -1.31279e-07)
(1.8713e-07 -1.53703e-07 -1.79219e-07)
(9.68701e-08 -2.46134e-07 -2.62474e-07)
(1.82967e-07 -6.10035e-08 -1.01062e-07)
(2.16267e-07 -9.12474e-08 -1.41386e-07)
(1.99632e-07 -1.30455e-07 -1.83802e-07)
)
;
    }
    procBoundary1to3
    {
        type            processor;
        value           nonuniform List<vector> 
27
(
(-9.42986e-07 -7.21648e-07 -6.19696e-07)
(-1.0493e-07 -2.896e-07 -3.02086e-07)
(7.62912e-08 -1.60308e-07 -2.26274e-07)
(-2.17316e-08 -8.31062e-08 -1.85042e-07)
(-3.04785e-09 3.09142e-08 -1.26342e-07)
(-4.89167e-08 5.1025e-08 -1.04995e-07)
(-3.0457e-07 5.36403e-08 -1.05475e-07)
(-4.38578e-07 4.42005e-08 -1.29113e-07)
(-3.99793e-07 3.08736e-08 -1.01496e-07)
(-1.9979e-07 -4.22643e-07 -3.6925e-07)
(6.37652e-08 -2.1534e-07 -2.4839e-07)
(1.84531e-07 -1.45571e-07 -1.26142e-07)
(1.00467e-07 -7.20972e-08 -1.53498e-07)
(5.63637e-08 1.71e-08 -1.58438e-07)
(-1.7767e-08 4.25832e-08 -9.51294e-08)
(-2.71287e-07 5.46375e-08 -1.05453e-07)
(-4.4566e-07 4.61526e-08 -1.11848e-07)
(-3.74032e-07 4.18834e-08 -8.3486e-08)
(3.17628e-08 -2.56209e-07 -2.59801e-07)
(1.91754e-07 -1.3043e-07 -2.1828e-07)
(2.4401e-07 -8.43938e-08 -1.70118e-07)
(8.44789e-08 -3.75044e-08 -1.1826e-07)
(1.20195e-07 2.02669e-09 -9.64167e-08)
(1.34695e-08 2.70612e-08 -8.52602e-08)
(-2.79023e-07 4.35691e-08 -7.73518e-08)
(-4.09452e-07 3.89242e-08 -7.12209e-08)
(-3.35682e-07 4.09143e-08 -4.79109e-08)
)
;
    }
    procBoundary1to5
    {
        type            processor;
        value           nonuniform List<vector> 
32
(
(1.88722e-07 -1.57873e-08 -6.24181e-08)
(1.17224e-07 -7.59272e-09 -5.93935e-08)
(1.92165e-08 -9.46617e-09 -5.0099e-08)
(-1.51382e-07 -2.65334e-09 -3.09498e-08)
(-2.53208e-07 1.2957e-08 -1.83599e-08)
(-2.32423e-07 2.2929e-08 -6.05432e-09)
(2.39555e-07 -5.33516e-08 -7.28419e-08)
(1.91485e-07 -2.03697e-08 -6.6331e-08)
(1.13894e-07 -2.61956e-08 -6.44917e-08)
(7.58192e-09 -8.7392e-09 -5.90895e-08)
(-1.98651e-07 2.53518e-09 -5.01918e-08)
(-3.09305e-07 1.70973e-08 -2.63871e-08)
(-2.77664e-07 3.09512e-08 -6.56611e-09)
(1.67038e-07 -9.13044e-08 -1.05853e-07)
(2.5958e-07 -5.43061e-08 -9.24634e-08)
(2.08506e-07 -2.81219e-08 -7.71144e-08)
(1.08996e-07 -2.64307e-08 -5.86206e-08)
(-3.17502e-08 4.71043e-09 -5.52884e-08)
(-2.43416e-07 1.84855e-08 -4.60643e-08)
(-3.4318e-07 1.60297e-08 -3.29009e-08)
(-2.87323e-07 3.33872e-08 -1.54615e-08)
(1.57076e-07 -4.12246e-08 -5.77076e-08)
(1.97808e-07 -4.17645e-08 -4.08535e-08)
(1.88722e-07 -1.57873e-08 -6.24181e-08)
(2.39555e-07 -5.33516e-08 -7.28419e-08)
(2.20104e-07 -1.82733e-08 -3.22436e-08)
(2.03265e-07 -5.91591e-08 -7.80128e-08)
(2.39555e-07 -5.33516e-08 -7.28419e-08)
(1.67038e-07 -9.13044e-08 -1.05853e-07)
(2.01373e-07 -5.94821e-08 -5.70776e-08)
(1.67038e-07 -9.13044e-08 -1.05853e-07)
(2.27475e-07 -8.4133e-08 -9.65056e-08)
)
;
    }
    procBoundary1to7
    {
        type            processor;
        value           uniform (2.11043e-07 -1.29352e-07 -1.61491e-07);
    }
}


// ************************************************************************* //
