/*--------------------------------*- C++ -*----------------------------------*\
| =========                 |                                                 |
| \\      /  F ield         | OpenFOAM: The Open Source CFD Toolbox           |
|  \\    /   O peration     | Version:  4.x                                   |
|   \\  /    A nd           | Web:      www.OpenFOAM.org                      |
|    \\/     M anipulation  |                                                 |
\*---------------------------------------------------------------------------*/
FoamFile
{
    version     2.0;
    format      ascii;
    class       volScalarField;
    location    "28";
    object      Sm;
}
// * * * * * * * * * * * * * * * * * * * * * * * * * * * * * * * * * * * * * //

dimensions      [1 -3 -1 0 0 0 0];

internalField   nonuniform List<scalar> 
87
(
3.72001e-65
5.89002e-65
3.79751e-65
5.11502e-65
3.95252e-65
4.18503e-65
4.41753e-65
5.03754e-65
4.80504e-65
3.64249e-65
3.255e-65
4.64999e-65
4.185e-65
3.41e-65
5.03752e-65
6.58753e-65
4.57253e-65
3.95253e-65
3.48748e-65
5.57998e-65
5.73498e-65
7.12998e-65
5.5025e-65
4.34001e-65
4.96002e-65
4.57253e-65
4.49502e-65
6.66499e-65
5.65749e-65
5.34749e-65
6.2e-65
5.8125e-65
6.58752e-65
8.37004e-65
7.28504e-65
6.35504e-65
7.20747e-65
5.11496e-65
6.35497e-65
6.97498e-65
7.28499e-65
5.6575e-65
7.51752e-65
7.59503e-65
5.50252e-65
7.12994e-65
6.58745e-65
6.19995e-65
5.26997e-65
5.26998e-65
7.3625e-65
8.06001e-65
1.03075e-64
4.88251e-65
7.05247e-65
5.73498e-65
7.67247e-65
7.98248e-65
5.735e-65
8.44751e-65
7.05252e-65
5.73503e-65
4.18502e-65
5.57995e-65
7.05244e-65
5.65746e-65
6.12247e-65
6.97498e-65
6.975e-65
6.58751e-65
7.20752e-65
4.41751e-65
8.91241e-65
6.35493e-65
5.11495e-65
9.06743e-65
8.29246e-65
8.75748e-65
6.82e-65
7.90501e-65
3.48751e-65
6.58747e-65
5.26999e-65
8.05997e-65
7.05245e-65
9.99743e-65
5.73494e-65
)
;

boundaryField
{
    inlet
    {
        type            calculated;
        value           nonuniform 0();
    }
    outlet
    {
        type            calculated;
        value           uniform 0;
    }
    wall
    {
        type            calculated;
        value           uniform 0;
    }
    procBoundary1to0
    {
        type            processor;
        value           nonuniform List<scalar> 
12
(
1.70501e-65
3.95249e-65
6.89748e-65
6.2e-65
6.97496e-65
4.95996e-65
4.72749e-65
8.29245e-65
4.57246e-65
4.95999e-65
5.50246e-65
8.05993e-65
)
;
    }
    procBoundary1to3
    {
        type            processor;
        value           nonuniform List<scalar> 
27
(
6.97496e-65
3.25498e-65
5.73498e-65
2.5575e-65
4.1075e-65
3.02251e-65
4.72752e-65
4.57253e-65
3.87502e-65
7.51744e-65
6.27744e-65
9.06743e-65
8.52496e-65
7.59497e-65
6.2775e-65
6.04501e-65
6.58752e-65
8.91253e-65
7.67242e-65
9.06741e-65
8.75742e-65
8.52494e-65
6.12247e-65
6.27749e-65
8.525e-65
7.13001e-65
7.44002e-65
)
;
    }
    procBoundary1to5
    {
        type            processor;
        value           nonuniform List<scalar> 
32
(
6.81999e-65
8.05999e-65
6.35501e-65
6.74252e-65
7.59503e-65
8.44754e-65
6.81996e-65
5.65747e-65
5.81248e-65
6.665e-65
8.21501e-65
8.52502e-65
7.90502e-65
8.44742e-65
6.04495e-65
7.51746e-65
5.73498e-65
4.57249e-65
7.285e-65
5.42501e-65
8.68002e-65
6.35499e-65
4.805e-65
6.81999e-65
6.81996e-65
6.97499e-65
7.05247e-65
6.81996e-65
8.44742e-65
6.81998e-65
8.44742e-65
8.21496e-65
)
;
    }
    procBoundary1to7
    {
        type            processor;
        value           uniform 9.91991e-65;
    }
}


// ************************************************************************* //
