/*--------------------------------*- C++ -*----------------------------------*\
| =========                 |                                                 |
| \\      /  F ield         | OpenFOAM: The Open Source CFD Toolbox           |
|  \\    /   O peration     | Version:  4.x                                   |
|   \\  /    A nd           | Web:      www.OpenFOAM.org                      |
|    \\/     M anipulation  |                                                 |
\*---------------------------------------------------------------------------*/
FoamFile
{
    version     2.0;
    format      ascii;
    class       volVectorField;
    location    "4";
    object      GField;
}
// * * * * * * * * * * * * * * * * * * * * * * * * * * * * * * * * * * * * * //

dimensions      [1 -2 -1 0 0 0 0];

internalField   nonuniform List<vector> 
114
(
(24.8993 0.171115 0.702123)
(98.6797 0.593954 3.56973)
(7.49971 -0.183736 0.255396)
(96.1905 0.885948 3.12198)
(-0.0193914 -0.000358148 -0.000647229)
(96.3697 0.71223 3.04595)
(106.165 4.55633 -8.6375)
(43.6881 3.28259 -3.89609)
(112.298 6.43296 -1.7315)
(40.0776 4.24757 1.67721)
(107.147 3.8245 5.22462)
(20.6983 1.83754 1.37872)
(103.93 2.07268 1.50439)
(13.4957 0.71855 -0.0951437)
(106.655 4.17621 -2.80852)
(107.534 5.38928 -8.78819)
(47.1552 2.7786 -3.94172)
(116.652 7.06345 -2.35263)
(50.4138 3.84503 1.93548)
(114.09 7.53654 4.5977)
(32.796 2.60224 2.09709)
(108.438 4.48186 4.77843)
(13.4408 0.375701 -0.615303)
(106.697 1.0417 5.05715)
(107.563 4.59569 -7.58068)
(55.3106 3.11084 -3.82171)
(123.059 6.56802 -2.11436)
(72.4772 5.09946 1.85053)
(129.226 9.21762 5.13622)
(74.3106 7.16873 5.15394)
(129.446 11.3433 7.35976)
(69.6477 8.25686 4.948)
(129.793 12.7587 7.10387)
(3.68657 -0.139884 -0.107013)
(87.6437 0.366108 0.315386)
(2.94442 -0.185003 -0.848682)
(88.5402 1.23864 -10.5649)
(102.053 4.86411 -13.9006)
(27.2122 2.23541 -4.59305)
(99.2194 4.49624 -1.88371)
(19.1584 2.0815 0.87144)
(98.9058 1.85375 6.56357)
(13.5338 0.943889 0.689194)
(99.8488 0.89267 0.652358)
(10.6624 -0.204547 -1.03885)
(101.872 2.77707 -3.9547)
(103.055 5.91057 -12.7934)
(30.7013 2.33538 -4.86446)
(101.761 6.79988 -1.95846)
(26.3502 2.02394 0.724705)
(101.198 5.09278 6.8893)
(17.8417 0.757913 -0.130941)
(97.9991 1.84884 4.14859)
(11.2272 -0.333479 -3.12409)
(90.9388 0.624904 -3.19912)
(103.643 5.54956 -12.3112)
(42.6909 3.24949 -5.86423)
(109.702 7.45052 -2.71491)
(55.4633 4.53367 1.62989)
(116.938 8.71733 8.51025)
(65.2532 6.00793 5.84714)
(122.173 7.85153 11.6046)
(68.1774 7.55506 5.33535)
(125.586 5.96224 10.2836)
(4.40258 -0.472459 0.150613)
(91.9523 3.11813 -0.345857)
(99.4054 4.4422 -10.1035)
(23.2002 1.71412 -2.88325)
(95.5557 3.39281 -0.976194)
(14.7347 1.0333 0.903201)
(95.7459 1.22829 4.81607)
(10.7421 0.173633 1.00576)
(96.9323 1.9274 1.36822)
(6.73471 -0.443202 -0.0384314)
(98.1721 4.50861 -2.01085)
(100.344 6.37249 -9.48375)
(27.4125 2.18524 -3.16691)
(96.8708 7.04783 -1.62449)
(22.1528 1.54664 1.00133)
(94.62 4.64134 5.29406)
(15.6275 -0.0325261 1.77068)
(88.31 1.00116 3.0346)
(6.11226 -0.545732 0.744677)
(75.1729 -3.29759 0.515172)
(101.148 4.8459 -9.03133)
(37.8709 2.89459 -3.99879)
(103.78 6.78364 -1.76179)
(49.0447 4.29216 1.88421)
(110.846 7.80934 7.70713)
(62.3595 6.39519 7.97377)
(116.957 7.1931 12.4513)
(68.5264 11.2163 10.6174)
(124.068 9.20734 14.105)
(98.6575 3.15934 -8.34015)
(19.5879 1.18083 -2.0406)
(94.1323 2.94559 -0.537623)
(9.57163 0.41621 0.0765562)
(94.7785 0.733006 4.8547)
(8.25899 0.188719 0.417851)
(96.8999 0.0164279 2.3282)
(8.0676 0.215318 -0.305281)
(99.3328 6.64167 -7.01217)
(24.9619 2.19972 -2.01619)
(95.2135 6.69746 -0.689276)
(16.7404 0.920466 0.627843)
(92.8438 3.5564 5.88021)
(10.002 -0.00526064 1.37047)
(90.5609 1.16787 7.14418)
(100.688 5.81018 -6.47595)
(39.4424 3.23339 -3.01017)
(103.853 7.72986 -1.10767)
(50.7815 4.16932 1.08231)
(110.261 8.00994 6.13317)
(63.778 5.06596 7.24491)
)
;

boundaryField
{
    inlet
    {
        type            calculated;
        value           uniform (67 0 0);
    }
    outlet
    {
        type            calculated;
        value           nonuniform 0();
    }
    wall
    {
        type            calculated;
        value           uniform (0 0 0);
    }
    procBoundary2to0
    {
        type            processor;
        value           nonuniform List<vector> 
44
(
(36.7189 -4.41388 1.46166)
(106.275 -3.81526 4.71159)
(16.2892 -2.04864 0.99123)
(101.985 -0.966179 1.76348)
(5.46587 -1.08172 -0.0215662)
(101.743 -1.15886 -3.90267)
(106.895 -0.580711 -9.75578)
(38.7692 0.141445 -3.75132)
(107.258 0.517141 -1.14574)
(107.258 0.517141 -1.14574)
(9.48185 -0.0478161 0.353708)
(89.3591 0.0404411 5.4687)
(10.0795 -1.11502 0.64364)
(99.5164 1.0652 0.567671)
(8.99267 -1.00077 -0.452304)
(101.81 3.16153 -6.70358)
(99.0958 -0.202233 -12.9965)
(21.648 -0.0513528 -3.60311)
(93.0364 0.0150837 0.777814)
(9.48185 -0.0478161 0.353708)
(89.3591 0.0404411 5.4687)
(89.3591 0.0404411 5.4687)
(10.3363 -0.514048 1.34965)
(92.0197 0.118857 2.48411)
(5.59381 -1.4998 -0.359522)
(98.6002 23.8659 -6.8721)
(97.8213 0.43028 -7.75997)
(20.185 0.264166 -1.83063)
(93.2289 0.429154 0.872251)
(13.0458 -0.00215624 1.51127)
(92.2139 -0.0347649 5.14215)
(10.3363 -0.514048 1.34965)
(92.0197 0.118857 2.48411)
(92.0197 0.118857 2.48411)
(10.3249 -0.227742 -0.30815)
(97.0502 3.59128 -4.71504)
(98.8895 -1.3251 -5.77782)
(20.6031 -0.242847 -1.78384)
(94.2318 -0.258982 0.749649)
(10.3336 -0.0686956 0.213336)
(94.474 0.708278 5.40071)
(9.04694 -0.16737 0.238113)
(95.909 1.17387 4.24727)
(10.3249 -0.227742 -0.30815)
)
;
    }
    procBoundary2to3
    {
        type            processor;
        value           nonuniform List<vector> 
12
(
(0.435214 -0.0346232 -0.0290165)
(17.6385 1.93123 -2.18729)
(1.19457 -0.0167795 -0.391572)
(64.0682 9.66035 2.17356)
(4.635 -0.430168 -3.46229)
(8.409 -2.22387 -2.30165)
(10.6081 -0.935056 -10.1372)
(65.7454 13.8246 2.03496)
(15.6953 -0.759385 -0.695264)
(10.3258 -2.74343 -0.789091)
(0.38733 -0.0660337 0.132057)
(69.9068 27.0392 12.0333)
)
;
    }
    procBoundary2to6
    {
        type            processor;
        value           nonuniform List<vector> 
32
(
(98.6445 2.93616 -3.26844)
(1.4787 -0.0595242 0.254622)
(87.2291 -0.357138 -3.85101)
(119.32 7.79935 11.9162)
(74.7921 5.3188 10.4881)
(128.813 5.6399 12.7834)
(93.3474 3.07931 -2.05968)
(18.784 1.58363 -0.137144)
(87.5874 2.80563 1.6529)
(4.48917 0.46343 0.226046)
(85.561 1.43753 2.19138)
(1.67963 0.231754 0.0847897)
(86.3713 4.17246 0.0134446)
(98.6445 2.93616 -3.26844)
(1.4787 -0.0595242 0.254622)
(3.00373 0.497432 -0.107124)
(98.0601 8.02426 -2.38171)
(24.326 2.43279 -0.472521)
(93.9055 7.08424 1.2821)
(13.6445 0.960791 0.640942)
(90.3119 2.77634 3.76561)
(8.98732 0.0191745 0.665101)
(1.4787 -0.0595242 0.254622)
(119.32 7.79935 11.9162)
(87.9757 0.850689 2.43386)
(100.08 5.40203 -3.08474)
(40.3853 3.05782 -1.3062)
(102.792 6.9752 0.284434)
(50.2338 3.74882 1.31859)
(106.62 5.66118 4.7758)
(119.32 7.79935 11.9162)
(58.6595 3.94246 5.107)
)
;
    }
}


// ************************************************************************* //
