/*--------------------------------*- C++ -*----------------------------------*\
| =========                 |                                                 |
| \\      /  F ield         | OpenFOAM: The Open Source CFD Toolbox           |
|  \\    /   O peration     | Version:  4.x                                   |
|   \\  /    A nd           | Web:      www.OpenFOAM.org                      |
|    \\/     M anipulation  |                                                 |
\*---------------------------------------------------------------------------*/
FoamFile
{
    version     2.0;
    format      ascii;
    class       volScalarField;
    location    "4";
    object      KslPrev;
}
// * * * * * * * * * * * * * * * * * * * * * * * * * * * * * * * * * * * * * //

dimensions      [1 -3 -1 0 0 0 0];

internalField   nonuniform List<scalar> 
114
(
14059.6
3570.49
46677.6
3643.35
6.75113e+07
3582.71
3271.95
7945.13
3153.29
8761.89
3304.62
16860.3
3372.21
25485.3
3229.85
3222.88
7376.34
3043.82
7006.34
3134.87
10738.9
3251.92
25840.5
3255.83
3190.71
6236.22
2866.48
4852.88
2749.39
4732.68
2713.74
4974.85
2677.95
94684.9
4028.31
112427
3895.41
3369.35
12659.2
3588.7
18381.3
3608.08
25941.9
3542.41
32438.6
3415.65
3339.27
11244.4
3519.4
13505.5
3546.68
19989.7
3650.63
30165
3865.39
3276.83
8019.8
3226.79
6349.17
3026.53
5411.35
2898.94
5127
2785.59
78305.9
3790.29
3455.05
14877.3
3703.94
23820.2
3713.73
32629.2
3656.48
51770.2
3567.04
3415.03
12573.7
3665.14
15937.8
3781.48
22610.1
4066.3
57192.3
4713.6
3358.52
8993.2
3380.11
7141.68
3183.65
5627.58
3048.91
5070.08
2830.57
3479.28
17580.1
3743.47
36586.6
3742.3
42537.3
3675.06
43372.9
3426
13741.4
3704.29
20996.3
3846.23
35157.4
3962.41
3346.24
8588.31
3360.36
6865.38
3222.01
5522.22
)
;

boundaryField
{
    inlet
    {
        type            zeroGradient;
    }
    outlet
    {
        type            zeroGradient;
    }
    wall
    {
        type            zeroGradient;
    }
    procBoundary2to0
    {
        type            processor;
        value           uniform 0;
    }
    procBoundary2to3
    {
        type            processor;
        value           uniform 0;
    }
    procBoundary2to6
    {
        type            processor;
        value           uniform 0;
    }
}


// ************************************************************************* //
