/*--------------------------------*- C++ -*----------------------------------*\
| =========                 |                                                 |
| \\      /  F ield         | OpenFOAM: The Open Source CFD Toolbox           |
|  \\    /   O peration     | Version:  4.x                                   |
|   \\  /    A nd           | Web:      www.OpenFOAM.org                      |
|    \\/     M anipulation  |                                                 |
\*---------------------------------------------------------------------------*/
FoamFile
{
    version     2.0;
    format      ascii;
    class       volScalarField;
    location    "4";
    object      Qsource;
}
// * * * * * * * * * * * * * * * * * * * * * * * * * * * * * * * * * * * * * //

dimensions      [1 -1 -3 0 0 0 0];

internalField   nonuniform List<scalar> 
114
(
6.8022e+09
6.04665e+09
2.80357e+09
6.1379e+09
2.39009e+09
3.50981e+09
6.76442e+09
7.34379e+09
7.10851e+09
4.60662e+09
7.96486e+09
4.7508e+09
7.73172e+09
5.81818e+09
4.96149e+09
4.85169e+09
6.69714e+09
4.4572e+09
6.07123e+09
5.97829e+09
5.89533e+09
4.13215e+09
4.65656e+09
4.37905e+09
4.03845e+09
5.1258e+09
6.59786e+09
5.96162e+09
6.07775e+09
5.38244e+09
5.05901e+09
5.94113e+09
5.91409e+09
8.81771e+09
1.15321e+10
5.84177e+09
1.06367e+10
4.75102e+09
7.79969e+09
9.4225e+09
8.68646e+09
8.40458e+09
6.89748e+09
1.0616e+10
8.07737e+09
6.04601e+09
5.91477e+09
9.91036e+09
1.06801e+10
9.05106e+09
9.26138e+09
8.66e+09
8.90094e+09
7.84101e+09
7.65052e+09
5.98439e+09
5.82706e+09
9.38085e+09
6.62504e+09
8.68539e+09
7.21915e+09
7.70477e+09
7.6775e+09
5.86935e+09
7.83264e+09
9.18262e+09
6.82769e+09
5.58657e+09
6.62636e+09
6.19397e+09
7.06237e+09
7.56031e+09
9.75849e+09
7.13826e+09
5.69757e+09
5.00875e+09
6.82153e+09
9.04753e+09
1.03455e+10
9.16586e+09
6.91329e+09
9.42096e+09
8.40526e+09
1.01481e+10
5.90105e+09
7.94449e+09
7.9036e+09
8.08287e+09
5.78054e+09
7.65942e+09
1.09942e+10
6.35351e+09
1.10953e+10
4.88647e+09
9.2178e+09
1.0157e+10
6.95971e+09
7.80028e+09
6.61593e+09
7.6968e+09
7.72555e+09
5.87305e+09
7.68323e+09
1.04837e+10
6.39941e+09
9.12338e+09
7.41441e+09
1.04745e+10
5.14443e+09
6.66958e+09
8.44792e+09
7.88196e+09
7.83888e+09
7.45845e+09
)
;

boundaryField
{
    inlet
    {
        type            calculated;
        value           uniform 0;
    }
    outlet
    {
        type            calculated;
        value           nonuniform 0();
    }
    wall
    {
        type            calculated;
        value           uniform 0;
    }
    procBoundary2to0
    {
        type            processor;
        value           nonuniform List<scalar> 
44
(
5.05874e+09
6.16703e+09
4.31488e+09
4.48534e+09
3.87169e+09
8.92843e+09
3.01441e+09
4.84942e+09
4.35607e+09
4.35607e+09
4.90335e+09
1.08879e+10
6.89505e+09
9.7393e+09
6.28825e+09
6.01241e+09
7.92727e+09
6.75178e+09
7.53395e+09
4.90335e+09
1.08879e+10
1.08879e+10
7.88249e+09
8.73814e+09
6.43729e+09
5.35793e+09
6.86301e+09
8.31955e+09
9.36039e+09
8.39844e+09
9.98059e+09
7.88249e+09
8.73814e+09
8.73814e+09
5.68687e+09
2.72709e+09
4.79399e+09
6.50835e+09
9.53287e+09
1.01252e+10
5.44073e+09
9.88463e+09
8.73214e+09
5.68687e+09
)
;
    }
    procBoundary2to3
    {
        type            processor;
        value           nonuniform List<scalar> 
12
(
6.39313e+09
5.18022e+09
5.56235e+09
5.18632e+09
7.71989e+09
6.90268e+09
1.1618e+10
8.74132e+09
8.59983e+09
9.61749e+09
6.65794e+09
7.02424e+09
)
;
    }
    procBoundary2to6
    {
        type            processor;
        value           nonuniform List<scalar> 
32
(
8.3309e+09
6.58226e+09
8.97871e+09
6.93729e+09
7.29305e+09
7.00016e+09
9.86926e+09
8.77347e+09
5.99196e+09
7.71583e+09
1.09896e+10
6.04143e+09
8.76563e+09
8.3309e+09
6.58226e+09
6.76018e+09
6.30877e+09
9.05949e+09
8.15196e+09
9.69721e+09
9.2522e+09
8.76679e+09
6.58226e+09
6.93729e+09
8.89148e+09
5.5715e+09
7.98892e+09
6.89885e+09
6.80694e+09
9.83149e+09
6.93729e+09
1.05991e+10
)
;
    }
}


// ************************************************************************* //
