/*--------------------------------*- C++ -*----------------------------------*\
| =========                 |                                                 |
| \\      /  F ield         | OpenFOAM: The Open Source CFD Toolbox           |
|  \\    /   O peration     | Version:  4.x                                   |
|   \\  /    A nd           | Web:      www.OpenFOAM.org                      |
|    \\/     M anipulation  |                                                 |
\*---------------------------------------------------------------------------*/
FoamFile
{
    version     2.0;
    format      ascii;
    class       volVectorField;
    location    "4";
    object      UsNext;
}
// * * * * * * * * * * * * * * * * * * * * * * * * * * * * * * * * * * * * * //

dimensions      [0 1 -1 0 0 0 0];

internalField   nonuniform List<vector> 
114
(
(-3.47079e-06 -6.73413e-08 -7.06601e-07)
(-4.66104e-06 7.31243e-08 -7.11849e-07)
(-5.89262e-06 -4.13309e-08 -1.53781e-07)
(-6.64183e-06 2.67018e-09 -2.79222e-07)
(-7.06485e-06 1.71699e-07 -8.56267e-08)
(-7.69012e-06 1.95758e-07 -1.38765e-07)
(-1.94961e-06 4.07794e-07 -2.0929e-07)
(-2.16897e-06 1.57574e-07 -5.76707e-07)
(-2.99982e-06 1.22456e-07 -5.74987e-07)
(-3.63669e-06 2.19102e-08 -4.68192e-07)
(-4.78641e-06 1.24795e-08 -2.55777e-07)
(-6.04666e-06 2.20337e-07 1.75113e-08)
(-6.69428e-06 2.79166e-07 -5.88871e-08)
(-6.9324e-06 6.22276e-09 -1.60066e-07)
(-7.01741e-06 -1.17225e-07 -2.38197e-07)
(-7.86588e-07 1.212e-07 -3.02403e-08)
(-1.46588e-06 -3.23179e-11 -3.0382e-07)
(-3.06792e-06 6.72182e-07 -3.62861e-08)
(-4.4308e-06 1.11662e-06 -6.30081e-07)
(-4.48466e-06 1.62557e-07 -4.70699e-07)
(-5.05106e-06 5.22067e-07 8.98256e-08)
(-5.30068e-06 -2.63834e-07 1.1384e-08)
(-6.26086e-06 -4.87854e-08 -1.25598e-07)
(-6.22451e-06 -1.21829e-07 -5.78133e-07)
(-5.15861e-07 7.85342e-08 -1.70801e-07)
(-9.52049e-07 1.06249e-07 -3.91183e-07)
(-1.10545e-06 1.46303e-07 -3.67315e-07)
(-1.7384e-06 2.08347e-08 4.04521e-08)
(-2.66408e-06 4.27225e-07 4.51797e-07)
(-2.63038e-06 3.34136e-07 3.40618e-07)
(-3.53497e-06 -4.26692e-07 -5.09875e-07)
(-3.86862e-06 4.65436e-07 -2.5666e-07)
(-3.70375e-06 9.84863e-07 -6.86872e-07)
(-5.63665e-06 -1.82894e-07 -1.69266e-07)
(-6.29644e-06 -1.73244e-07 -2.04038e-07)
(-7.01894e-06 1.00099e-07 -3.41858e-08)
(-7.34451e-06 2.83788e-07 1.40983e-09)
(-6.57387e-07 1.42966e-07 -1.39642e-07)
(-1.91257e-06 1.13829e-07 -5.25054e-07)
(-2.7491e-06 -4.48414e-08 -5.16623e-07)
(-3.58052e-06 5.05917e-08 -4.43427e-07)
(-4.20769e-06 3.50505e-08 -2.91577e-07)
(-5.68688e-06 -6.84607e-08 6.19175e-08)
(-6.36595e-06 -1.6516e-07 -6.01267e-08)
(-6.6851e-06 -1.21541e-07 -1.15741e-07)
(-7.11398e-06 -2.14933e-08 -4.34905e-08)
(-8.66968e-07 1.45452e-07 -1.08176e-07)
(-1.4769e-06 1.83695e-07 -3.89702e-07)
(-2.44079e-06 1.01534e-07 -1.95734e-07)
(-3.09656e-06 -6.34484e-08 -3.55259e-07)
(-3.68474e-06 3.10858e-07 4.23804e-07)
(-4.47102e-06 4.39026e-07 5.99273e-08)
(-5.1545e-06 1.59336e-07 3.35788e-08)
(-5.55752e-06 -1.54909e-07 -2.08453e-07)
(-5.83193e-06 -1.61549e-07 -4.18305e-07)
(-3.47711e-07 8.27865e-08 -1.10333e-07)
(-7.17748e-07 1.44799e-07 -2.48789e-07)
(-1.2447e-06 1.07207e-07 -1.10089e-07)
(-1.87838e-06 -1.09378e-07 7.67652e-08)
(-2.19562e-06 7.49013e-08 8.7849e-07)
(-2.20147e-06 3.0754e-07 1.24489e-07)
(-2.78778e-06 1.58585e-07 -4.52173e-07)
(-3.21853e-06 -7.25109e-08 -2.21029e-07)
(-2.85124e-06 -4.87789e-08 -5.22404e-07)
(-6.67876e-06 -1.01671e-07 1.17255e-07)
(-7.08968e-06 6.2165e-08 1.51066e-07)
(-5.00431e-07 -3.73439e-08 -1.52876e-07)
(-1.33596e-06 1.35014e-07 -3.21298e-07)
(-2.52853e-06 1.06267e-08 -3.13102e-07)
(-3.35456e-06 3.81642e-09 -3.75742e-07)
(-4.28633e-06 7.33617e-09 -2.19361e-07)
(-5.18011e-06 -3.3699e-07 -1.25851e-07)
(-5.67765e-06 -2.88062e-07 -1.57773e-07)
(-6.22241e-06 -2.79498e-07 -1.13052e-07)
(-6.65658e-06 -1.48892e-07 3.71761e-08)
(-4.65108e-07 6.36441e-08 -7.38573e-08)
(-1.36235e-06 2.04055e-07 4.70128e-08)
(-2.40193e-06 3.86663e-08 -2.29479e-07)
(-2.81063e-06 -1.76738e-07 -2.91659e-07)
(-3.73735e-06 -1.87831e-08 8.52551e-08)
(-4.2479e-06 1.10918e-07 -9.5748e-08)
(-4.79102e-06 1.56089e-07 -2.37002e-07)
(-5.10134e-06 -2.83173e-07 -2.60056e-07)
(-5.59438e-06 -3.24706e-07 -1.67785e-07)
(-2.61784e-07 7.81401e-08 -6.98633e-08)
(-6.94386e-07 8.52052e-08 -1.38599e-08)
(-1.0632e-06 7.58326e-08 4.45999e-08)
(-1.94324e-06 8.70844e-08 2.77902e-08)
(-2.19996e-06 3.22571e-07 1.77163e-07)
(-1.99356e-06 2.55174e-07 -6.91614e-08)
(-2.43032e-06 1.48769e-07 5.66943e-08)
(-2.75655e-06 1.26299e-07 -4.07445e-07)
(-3.4665e-06 -2.21361e-08 -6.11288e-07)
(-4.44487e-07 -5.77406e-08 -3.03213e-08)
(-1.32661e-06 3.7274e-08 1.22012e-08)
(-2.21836e-06 1.58509e-08 -8.8174e-08)
(-3.04771e-06 -9.52603e-08 -1.10528e-07)
(-3.89297e-06 -1.40451e-07 -1.73228e-07)
(-4.8589e-06 -1.4977e-07 2.39234e-09)
(-5.6083e-06 -3.5781e-07 -2.11723e-07)
(-6.02816e-06 -4.15803e-07 -9.15392e-08)
(-3.48439e-07 -2.65648e-08 -3.60208e-08)
(-1.35297e-06 1.47003e-07 1.03486e-07)
(-1.95749e-06 1.14359e-07 -1.32328e-07)
(-2.6805e-06 5.39199e-08 -1.48496e-07)
(-3.43018e-06 1.18622e-07 -7.44831e-08)
(-3.84438e-06 -3.1551e-08 -1.57004e-07)
(-4.16553e-06 -1.78007e-07 -2.42773e-07)
(-2.54397e-07 4.91278e-08 -7.00853e-08)
(-6.4059e-07 1.89249e-07 3.179e-08)
(-1.26086e-06 4.55398e-08 7.12975e-09)
(-1.26517e-06 1.64349e-07 1.62364e-08)
(-2.04255e-06 1.58876e-07 -1.20421e-07)
(-1.72113e-06 9.60894e-08 -3.88126e-08)
)
;

boundaryField
{
    inlet
    {
        type            calculated;
        value           nonuniform List<vector> 
12
(
(-1.94961e-06 4.07794e-07 -2.0929e-07)
(-7.86588e-07 1.212e-07 -3.02403e-08)
(-5.15861e-07 7.85342e-08 -1.70801e-07)
(-6.57387e-07 1.42966e-07 -1.39642e-07)
(-8.66968e-07 1.45452e-07 -1.08176e-07)
(-3.47711e-07 8.27865e-08 -1.10333e-07)
(-5.00431e-07 -3.73439e-08 -1.52876e-07)
(-4.65108e-07 6.36441e-08 -7.38573e-08)
(-2.61784e-07 7.81401e-08 -6.98633e-08)
(-4.44487e-07 -5.77406e-08 -3.03213e-08)
(-3.48439e-07 -2.65648e-08 -3.60208e-08)
(-2.54397e-07 4.91278e-08 -7.00853e-08)
)
;
    }
    outlet
    {
        type            calculated;
        value           nonuniform 0();
    }
    wall
    {
        type            calculated;
        value           nonuniform List<vector> 
66
(
(-1.94961e-06 4.07794e-07 -2.0929e-07)
(-7.86588e-07 1.212e-07 -3.02403e-08)
(-5.15861e-07 7.85342e-08 -1.70801e-07)
(-2.16897e-06 1.57574e-07 -5.76707e-07)
(-1.46588e-06 -3.23179e-11 -3.0382e-07)
(-9.52049e-07 1.06249e-07 -3.91183e-07)
(-2.99982e-06 1.22456e-07 -5.74987e-07)
(-3.06792e-06 6.72182e-07 -3.62861e-08)
(-1.10545e-06 1.46303e-07 -3.67315e-07)
(-3.47079e-06 -6.73413e-08 -7.06601e-07)
(-3.63669e-06 2.19102e-08 -4.68192e-07)
(-4.4308e-06 1.11662e-06 -6.30081e-07)
(-1.7384e-06 2.08347e-08 4.04521e-08)
(-4.66104e-06 7.31243e-08 -7.11849e-07)
(-4.78641e-06 1.24795e-08 -2.55777e-07)
(-4.48466e-06 1.62557e-07 -4.70699e-07)
(-2.66408e-06 4.27225e-07 4.51797e-07)
(-5.89262e-06 -4.13309e-08 -1.53781e-07)
(-6.04666e-06 2.20337e-07 1.75113e-08)
(-5.05106e-06 5.22067e-07 8.98256e-08)
(-2.63038e-06 3.34136e-07 3.40618e-07)
(-6.64183e-06 2.67018e-09 -2.79222e-07)
(-6.69428e-06 2.79166e-07 -5.88871e-08)
(-5.30068e-06 -2.63834e-07 1.1384e-08)
(-3.53497e-06 -4.26692e-07 -5.09875e-07)
(-7.06485e-06 1.71699e-07 -8.56267e-08)
(-6.9324e-06 6.22276e-09 -1.60066e-07)
(-6.26086e-06 -4.87854e-08 -1.25598e-07)
(-3.86862e-06 4.65436e-07 -2.5666e-07)
(-7.69012e-06 1.95758e-07 -1.38765e-07)
(-7.01741e-06 -1.17225e-07 -2.38197e-07)
(-6.22451e-06 -1.21829e-07 -5.78133e-07)
(-3.70375e-06 9.84863e-07 -6.86872e-07)
(-5.15861e-07 7.85342e-08 -1.70801e-07)
(-3.47711e-07 8.27865e-08 -1.10333e-07)
(-2.61784e-07 7.81401e-08 -6.98633e-08)
(-2.54397e-07 4.91278e-08 -7.00853e-08)
(-9.52049e-07 1.06249e-07 -3.91183e-07)
(-7.17748e-07 1.44799e-07 -2.48789e-07)
(-6.94386e-07 8.52052e-08 -1.38599e-08)
(-6.4059e-07 1.89249e-07 3.179e-08)
(-1.10545e-06 1.46303e-07 -3.67315e-07)
(-1.2447e-06 1.07207e-07 -1.10089e-07)
(-1.0632e-06 7.58326e-08 4.45999e-08)
(-1.26086e-06 4.55398e-08 7.12975e-09)
(-1.7384e-06 2.08347e-08 4.04521e-08)
(-1.87838e-06 -1.09378e-07 7.67652e-08)
(-1.94324e-06 8.70844e-08 2.77902e-08)
(-1.26517e-06 1.64349e-07 1.62364e-08)
(-2.66408e-06 4.27225e-07 4.51797e-07)
(-2.19562e-06 7.49013e-08 8.7849e-07)
(-2.19996e-06 3.22571e-07 1.77163e-07)
(-2.04255e-06 1.58876e-07 -1.20421e-07)
(-2.63038e-06 3.34136e-07 3.40618e-07)
(-2.20147e-06 3.0754e-07 1.24489e-07)
(-1.99356e-06 2.55174e-07 -6.91614e-08)
(-1.72113e-06 9.60894e-08 -3.88126e-08)
(-3.53497e-06 -4.26692e-07 -5.09875e-07)
(-2.78778e-06 1.58585e-07 -4.52173e-07)
(-2.43032e-06 1.48769e-07 5.66943e-08)
(-3.86862e-06 4.65436e-07 -2.5666e-07)
(-3.21853e-06 -7.25109e-08 -2.21029e-07)
(-2.75655e-06 1.26299e-07 -4.07445e-07)
(-3.70375e-06 9.84863e-07 -6.86872e-07)
(-2.85124e-06 -4.87789e-08 -5.22404e-07)
(-3.4665e-06 -2.21361e-08 -6.11288e-07)
)
;
    }
    procBoundary2to0
    {
        type            processor;
        value           nonuniform List<vector> 
44
(
(-3.61227e-06 -1.97485e-07 -7.25063e-07)
(-4.26575e-06 -1.28031e-07 -8.97119e-07)
(-5.57327e-06 -7.21799e-08 -2.99775e-07)
(-6.05553e-06 8.9009e-08 2.39984e-09)
(-6.76306e-06 1.14639e-07 6.52433e-08)
(-7.16262e-06 4.06522e-07 -6.41035e-08)
(-6.68491e-07 -8.65099e-08 -3.90205e-08)
(-2.47631e-06 -9.50041e-08 -5.89992e-07)
(-3.09852e-06 6.58054e-08 -6.64889e-07)
(-3.09852e-06 6.58054e-08 -6.64889e-07)
(-3.90427e-06 2.49537e-09 -5.46568e-07)
(-4.55454e-06 -1.91879e-07 -2.31074e-07)
(-5.56147e-06 -1.41363e-07 -3.86136e-07)
(-6.15384e-06 1.11119e-08 -4.58748e-08)
(-6.45508e-06 3.60314e-07 1.19584e-07)
(-6.72239e-06 6.72609e-07 1.1894e-07)
(-9.08267e-07 -9.41093e-08 -1.52469e-07)
(-2.08466e-06 -6.93195e-08 -6.24914e-07)
(-2.82455e-06 -1.75748e-07 -5.54945e-07)
(-3.90427e-06 2.49537e-09 -5.46568e-07)
(-4.55454e-06 -1.91879e-07 -2.31074e-07)
(-4.55454e-06 -1.91879e-07 -2.31074e-07)
(-5.36719e-06 -2.91888e-07 -1.34899e-07)
(-6.06722e-06 -2.90003e-07 -7.02851e-08)
(-6.19901e-06 5.60085e-08 1.53326e-07)
(-6.46568e-06 2.08471e-07 2.32854e-07)
(-4.74861e-07 -3.74597e-08 -1.48796e-07)
(-1.82717e-06 2.64932e-07 -4.46931e-07)
(-2.77807e-06 -8.71714e-08 -4.13587e-07)
(-3.67774e-06 1.35224e-08 -4.48986e-07)
(-4.78864e-06 -1.49814e-07 -1.69468e-07)
(-5.36719e-06 -2.91888e-07 -1.34899e-07)
(-6.06722e-06 -2.90003e-07 -7.02851e-08)
(-6.06722e-06 -2.90003e-07 -7.02851e-08)
(-6.2425e-06 -2.12842e-07 6.96972e-08)
(-6.75619e-06 -4.36455e-08 7.30362e-09)
(-4.45643e-07 -2.00051e-08 -9.54253e-08)
(-1.32508e-06 1.68747e-07 -1.16851e-07)
(-2.25229e-06 -2.20548e-08 -6.69771e-08)
(-3.23427e-06 -1.72252e-07 -1.96707e-07)
(-4.34662e-06 -4.83022e-07 -2.19395e-07)
(-5.31149e-06 -3.34205e-07 -1.3475e-07)
(-6.02042e-06 -3.57949e-07 -4.39043e-09)
(-6.2425e-06 -2.12842e-07 6.96972e-08)
)
;
    }
    procBoundary2to3
    {
        type            processor;
        value           nonuniform List<vector> 
12
(
(-8.15528e-06 1.20406e-07 1.551e-07)
(-7.32081e-06 4.09402e-08 -9.8762e-08)
(-5.87667e-06 -7.68499e-07 9.42205e-08)
(-2.86941e-06 -2.57885e-07 3.98036e-07)
(-8.05099e-06 2.94789e-07 3.31004e-07)
(-7.26798e-06 -1.93915e-08 6.55171e-08)
(-6.00851e-06 -3.35914e-07 -1.48162e-07)
(-3.85548e-06 -2.34654e-07 -3.35797e-07)
(-7.39178e-06 2.87101e-07 2.60185e-07)
(-7.03496e-06 1.61384e-07 6.96706e-08)
(-6.07485e-06 1.45416e-07 2.19315e-07)
(-4.02367e-06 4.83849e-07 -7.33957e-08)
)
;
    }
    procBoundary2to6
    {
        type            processor;
        value           nonuniform List<vector> 
32
(
(-6.29223e-06 -2.56112e-07 5.54167e-08)
(-5.02614e-06 -6.6942e-07 -1.71897e-07)
(-5.65567e-06 -1.98593e-07 -1.02296e-07)
(-1.78445e-06 -7.93904e-08 1.11201e-09)
(-2.63129e-06 -3.31237e-07 -3.11985e-07)
(-2.02926e-06 -1.08111e-07 -3.88817e-07)
(-5.89871e-07 -2.88228e-08 5.23963e-09)
(-1.12974e-06 1.23106e-07 7.77335e-09)
(-1.95012e-06 3.36251e-09 1.76399e-07)
(-2.54045e-06 -6.65005e-08 3.62831e-08)
(-3.70924e-06 -2.33687e-08 -1.15414e-07)
(-4.79185e-06 -3.91227e-07 1.61471e-07)
(-5.25156e-06 -6.2066e-07 3.10825e-08)
(-6.29223e-06 -2.56112e-07 5.54167e-08)
(-5.02614e-06 -6.6942e-07 -1.71897e-07)
(-5.50823e-06 -6.28081e-07 4.1071e-08)
(-7.05189e-07 -9.08362e-08 5.68722e-08)
(-1.0906e-06 1.29808e-07 4.03794e-08)
(-1.78166e-06 4.5716e-08 8.31775e-08)
(-2.40344e-06 -5.81006e-09 -1.1926e-07)
(-2.87911e-06 1.48863e-07 -3.41195e-07)
(-3.60931e-06 -7.97645e-08 -9.61251e-08)
(-5.02614e-06 -6.6942e-07 -1.71897e-07)
(-1.78445e-06 -7.93904e-08 1.11201e-09)
(-4.47773e-06 -5.81545e-07 -1.92377e-07)
(-1.87517e-07 1.05147e-09 -2.83378e-08)
(-8.29882e-07 1.79888e-07 7.56395e-08)
(-7.16763e-07 -2.08833e-08 1.13712e-07)
(-1.18456e-06 2.09256e-07 -2.5779e-08)
(-1.21998e-06 1.85556e-07 -8.16025e-08)
(-1.78445e-06 -7.93904e-08 1.11201e-09)
(-1.93264e-06 6.73681e-08 -5.69042e-08)
)
;
    }
}


// ************************************************************************* //
