/*--------------------------------*- C++ -*----------------------------------*\
| =========                 |                                                 |
| \\      /  F ield         | OpenFOAM: The Open Source CFD Toolbox           |
|  \\    /   O peration     | Version:  4.x                                   |
|   \\  /    A nd           | Web:      www.OpenFOAM.org                      |
|    \\/     M anipulation  |                                                 |
\*---------------------------------------------------------------------------*/
FoamFile
{
    version     2.0;
    format      ascii;
    class       volScalarField;
    location    "18";
    object      Cs;
}
// * * * * * * * * * * * * * * * * * * * * * * * * * * * * * * * * * * * * * //

dimensions      [1 -3 0 0 0 0 0];

internalField   nonuniform List<scalar> 
114
(
334.956
334.934
334.904
334.888
334.859
334.523
334.959
334.936
334.936
334.934
334.96
334.955
335.108
334.949
334.943
334.942
334.954
334.976
335.008
335.033
335.221
334.986
334.98
334.973
334.961
334.946
334.924
334.909
334.885
334.86
334.97
334.967
334.969
334.975
334.996
335.006
335.033
335.008
335.074
334.964
334.959
334.962
334.974
334.998
335.026
335.058
335.068
335.383
334.958
334.953
334.991
334.987
334.982
334.974
334.966
334.955
334.95
334.941
334.949
334.978
334.972
334.969
334.971
334.976
334.984
334.997
334.995
335.087
334.975
334.968
334.965
334.966
334.973
334.984
335.003
335.01
335.102
334.968
334.96
334.959
334.967
334.992
334.989
334.985
334.979
334.972
334.965
334.957
334.951
337.96
334.99
334.985
334.979
334.973
334.966
334.959
334.953
334.948
334.947
334.987
334.982
334.975
334.969
334.961
334.954
334.949
334.944
334.965
334.983
334.977
334.97
334.963
334.957
334.951
)
;

boundaryField
{
    inlet
    {
        type            calculated;
        value           nonuniform 0();
    }
    outlet
    {
        type            calculated;
        value           uniform 335;
    }
    wall
    {
        type            calculated;
        value           nonuniform List<scalar> 
66
(
334.992
334.99
334.987
334.983
334.989
334.985
334.982
334.977
334.985
334.979
334.975
334.97
334.979
334.973
334.969
334.963
334.972
334.966
334.961
334.957
334.965
334.959
334.954
334.951
334.957
334.953
334.949
334.951
334.948
334.944
337.96
334.947
334.965
334.986
334.991
334.992
334.98
334.987
334.989
334.973
334.982
334.985
334.956
334.961
334.974
334.979
334.934
334.946
334.966
334.972
334.904
334.924
334.955
334.965
334.888
334.909
334.95
334.957
334.859
334.885
334.941
334.951
334.523
334.86
334.949
337.96
)
;
    }
    procBoundary5to1
    {
        type            processor;
        value           nonuniform List<scalar> 
32
(
334.926
334.891
334.857
334.835
334.811
334.448
334.775
334.78
334.809
334.837
334.894
334.901
335.067
334.926
334.918
334.915
334.941
334.978
335.027
335.052
335.163
334.984
334.98
334.972
334.972
334.972
334.976
334.968
334.968
334.968
334.958
334.958
)
;
    }
    procBoundary5to4
    {
        type            processor;
        value           nonuniform List<scalar> 
12
(
334.99
334.976
334.973
334.969
334.994
334.985
334.982
334.978
334.995
334.993
334.992
334.989
)
;
    }
    procBoundary5to7
    {
        type            processor;
        value           nonuniform List<scalar> 
44
(
334.933
334.926
334.926
334.941
334.966
335
335.035
335.283
334.948
334.933
334.958
334.973
334.999
335.028
335.058
335.076
335.421
334.954
334.958
334.955
334.958
334.973
334.985
335.012
335.042
335.054
335.175
334.972
334.966
334.963
334.985
334.966
334.985
335.012
334.948
334.945
335.013
334.985
334.978
334.97
334.961
334.952
334.948
334.946
)
;
    }
}


// ************************************************************************* //
