/*--------------------------------*- C++ -*----------------------------------*\
| =========                 |                                                 |
| \\      /  F ield         | OpenFOAM: The Open Source CFD Toolbox           |
|  \\    /   O peration     | Version:  4.x                                   |
|   \\  /    A nd           | Web:      www.OpenFOAM.org                      |
|    \\/     M anipulation  |                                                 |
\*---------------------------------------------------------------------------*/
FoamFile
{
    version     2.0;
    format      ascii;
    class       volScalarField;
    location    "18";
    object      p_rgh;
}
// * * * * * * * * * * * * * * * * * * * * * * * * * * * * * * * * * * * * * //

dimensions      [1 -1 -2 0 0 0 0];

internalField   nonuniform List<scalar> 
114
(
66.4404
-17.2378
60.8456
-39.2672
57.8263
-64.7436
3.23068
66.0058
-16.0752
59.5648
-35.7796
54.0435
-52.7287
73.3616
4.45163
66.5361
-13.9611
60.2198
-32.015
54.3302
-47.6288
22.6182
73.2888
4.31413
66.378
-14.7067
59.8395
-33.932
53.923
-47.2173
22.9917
73.3446
5.09629
66.0097
-12.5497
59.2101
-29.6452
49.0884
-56.2343
23.8403
72.9794
6.38748
66.1848
-11.1196
59.6557
-28.587
51.3751
-44.4556
24.3083
73.0098
22.5239
72.9524
3.50049
65.9564
-16.9228
59.7348
-40.1172
56.7862
-68.7482
22.8638
72.7868
4.28662
65.3605
-14.5989
58.4028
-33.968
52.1551
-49.8932
23.0003
72.8791
4.57354
65.8127
-14.0815
59.3192
-32.8121
53.9082
-48.3177
24.1155
72.9451
6.35481
65.3543
22.8418
72.9801
4.093
66.0223
-16.268
59.8604
-40.0906
57.2864
-26.5441
23.1829
72.882
4.71983
65.5236
-14.3626
58.3327
-34.1686
52.3913
-53.3193
23.3553
73.0027
5.01544
65.7715
-13.9701
58.9419
-33.4295
53.2879
-51.4169
23.9804
72.8019
6.08863
65.1849
-11.8736
57.5135
)
;

boundaryField
{
    inlet
    {
        type            fixedFluxPressure;
        gradient        nonuniform 0();
        value           nonuniform 0();
    }
    outlet
    {
        type            fixedValue;
        value           uniform 0;
    }
    wall
    {
        type            fixedFluxPressure;
        gradient        nonuniform List<scalar> 
66
(
5.24912e-05
0.00010677
-1.05597e-05
-6.71853e-05
-1.33981e-05
-4.19787e-05
-3.86804e-05
-1.422e-05
7.34518e-05
0.000143582
7.04501e-05
-2.02144e-05
0.000175802
0.000130919
5.18976e-05
-3.93308e-05
-6.22538e-05
7.10471e-05
-8.42957e-05
-0.000221049
1.07389e-05
-4.40293e-05
-8.62458e-05
-6.53201e-05
5.34534e-06
-5.56947e-05
-0.000128384
-2.90794e-05
-4.04297e-05
-2.60082e-05
-0.000112573
-4.47614e-05
-0.000129372
-2.3405e-05
-4.50163e-05
4.44757e-05
6.88276e-05
3.96124e-05
-9.9581e-06
-4.72399e-05
-3.10885e-05
-3.35267e-05
-0.000149864
-3.75651e-05
0.000165537
4.93964e-05
-0.000318742
-8.75705e-05
2.88474e-05
-6.45716e-05
-9.57312e-05
-7.0809e-05
-6.15955e-05
-2.315e-05
-0.000100844
-0.000148397
-5.05734e-05
-2.45218e-05
-3.22267e-05
-4.30512e-05
-2.72762e-05
-2.79567e-05
-0.000531693
-0.00070967
-6.05082e-05
-0.000109451
)
;
        value           nonuniform List<scalar> 
66
(
22.8418
23.1829
23.3553
23.9803
72.9801
72.882
73.0027
72.8019
4.093
4.71984
5.01544
6.08863
66.0223
65.5236
65.7715
65.1849
-16.268
-14.3626
-13.9701
-11.8736
59.8604
58.3327
58.9419
57.5135
-40.0906
-34.1686
-33.4295
57.2864
52.3913
53.2879
-26.5441
-53.3193
-51.4169
22.6182
22.5239
22.8418
73.2888
72.9524
72.9801
4.31413
3.50049
4.093
66.4404
66.378
65.9564
66.0223
-17.2378
-14.7067
-16.9228
-16.268
60.8456
59.8394
59.7348
59.8604
-39.2672
-33.932
-40.1172
-40.0906
57.8263
53.923
56.7862
57.2864
-64.7436
-47.2173
-68.7482
-26.5441
)
;
    }
    procBoundary5to1
    {
        type            processor;
        value           nonuniform List<scalar> 
32
(
66.682
-15.7752
61.3178
-36.6083
57.7658
-60.2412
4.85547
67.1902
-14.2922
60.4467
-33.5506
55.0702
-51.9893
73.3139
5.65304
66.8377
-12.3985
60.479
-30.1721
53.666
-49.8235
21.9032
73.0477
2.95626
2.95626
2.95626
22.1815
73.0861
73.0861
73.0861
22.7513
22.7513
)
;
    }
    procBoundary5to4
    {
        type            processor;
        value           nonuniform List<scalar> 
12
(
80.4833
80.8096
80.7435
80.8896
80.2259
80.432
80.3573
80.5782
80.1177
80.3532
80.3556
80.4269
)
;
    }
    procBoundary5to7
    {
        type            processor;
        value           nonuniform List<scalar> 
44
(
73.2687
5.82626
65.9235
-11.8798
59.1659
-29.467
52.6166
-45.5865
23.7601
73.2687
6.90867
65.825
-10.6949
58.7983
-28.4645
51.6798
-44.4206
24.2878
6.90867
72.9352
6.90867
65.825
-10.8251
58.4397
-26.97
50.9042
-40.1954
23.6665
72.978
5.47894
-10.8251
65.8495
-10.8251
58.4397
-29.3655
50.2406
-44.122
23.9547
72.9914
5.91739
65.6424
-12.3077
-29.3655
58.4015
)
;
    }
}


// ************************************************************************* //
