/*--------------------------------*- C++ -*----------------------------------*\
| =========                 |                                                 |
| \\      /  F ield         | OpenFOAM: The Open Source CFD Toolbox           |
|  \\    /   O peration     | Version:  4.x                                   |
|   \\  /    A nd           | Web:      www.OpenFOAM.org                      |
|    \\/     M anipulation  |                                                 |
\*---------------------------------------------------------------------------*/
FoamFile
{
    version     2.0;
    format      ascii;
    class       volScalarField;
    location    "18";
    object      Sm;
}
// * * * * * * * * * * * * * * * * * * * * * * * * * * * * * * * * * * * * * //

dimensions      [1 -3 -1 0 0 0 0];

internalField   nonuniform List<scalar> 
114
(
6.81917e-65
8.05907e-65
6.3544e-65
6.74192e-65
7.59449e-65
8.44693e-65
6.81887e-65
5.65663e-65
5.81167e-65
6.66421e-65
8.2141e-65
8.52427e-65
7.90435e-65
8.44585e-65
6.04389e-65
7.51624e-65
5.73411e-65
4.5719e-65
7.28419e-65
5.42448e-65
8.67921e-65
6.35421e-65
4.80448e-65
6.97412e-65
5.42438e-65
6.43181e-65
6.8194e-65
7.12942e-65
5.65715e-65
5.96711e-65
7.05146e-65
6.81901e-65
8.52373e-65
7.12902e-65
8.36892e-65
8.1366e-65
5.26949e-65
8.6018e-65
6.89697e-65
8.21365e-65
4.57174e-65
7.28379e-65
7.59383e-65
6.19916e-65
7.05168e-65
7.12926e-65
6.89689e-65
5.57953e-65
9.99579e-65
4.33925e-65
6.66432e-65
8.21421e-65
6.74182e-65
7.36183e-65
6.9744e-65
6.89704e-65
6.66458e-65
7.28466e-65
6.58717e-65
5.42434e-65
8.36897e-65
6.04426e-65
7.1292e-65
7.12926e-65
7.05182e-65
9.14432e-65
6.43209e-65
5.50217e-65
6.89649e-65
6.35411e-65
6.89658e-65
6.04428e-65
1.00738e-64
7.36175e-65
8.21427e-65
8.91181e-65
8.67937e-65
4.80432e-65
9.37622e-65
8.98882e-65
7.98151e-65
2.63485e-65
6.89707e-65
4.57224e-65
7.12957e-65
6.04465e-65
4.95976e-65
6.97471e-65
6.27731e-65
6.04482e-65
6.35442e-65
6.58694e-65
4.3396e-65
5.65706e-65
7.43943e-65
6.50954e-65
4.57222e-65
7.05216e-65
6.04472e-65
6.12183e-65
6.43185e-65
8.52409e-65
6.97433e-65
5.88947e-65
8.05936e-65
6.50952e-65
6.74209e-65
6.81962e-65
7.3617e-65
5.65689e-65
7.12922e-65
5.57946e-65
9.68656e-65
7.74938e-65
)
;

boundaryField
{
    inlet
    {
        type            calculated;
        value           nonuniform 0();
    }
    outlet
    {
        type            calculated;
        value           uniform 0;
    }
    wall
    {
        type            calculated;
        value           uniform 0;
    }
    procBoundary5to1
    {
        type            processor;
        value           nonuniform List<scalar> 
32
(
7.98152e-65
5.73436e-65
8.44669e-65
7.05192e-65
5.73464e-65
4.18472e-65
5.65658e-65
6.12157e-65
6.97405e-65
6.9742e-65
6.58686e-65
7.20688e-65
4.41714e-65
6.35374e-65
5.11403e-65
9.06592e-65
8.29122e-65
8.75636e-65
6.81927e-65
7.90424e-65
3.4872e-65
6.58657e-65
5.26933e-65
8.05892e-65
8.05892e-65
8.05892e-65
7.0513e-65
9.9958e-65
9.9958e-65
9.9958e-65
5.73387e-65
5.73387e-65
)
;
    }
    procBoundary5to4
    {
        type            processor;
        value           nonuniform List<scalar> 
12
(
8.9115e-65
9.06617e-65
5.65659e-65
5.96649e-65
8.21428e-65
8.13659e-65
6.81911e-65
6.81911e-65
7.20709e-65
7.59434e-65
6.2769e-65
6.35435e-65
)
;
    }
    procBoundary5to7
    {
        type            processor;
        value           nonuniform List<scalar> 
44
(
7.82595e-65
6.4313e-65
6.74136e-65
1.03059e-64
1.03837e-64
7.98162e-65
5.65696e-65
8.36925e-65
9.91801e-65
7.82595e-65
6.43142e-65
7.36136e-65
6.74155e-65
6.89666e-65
8.60159e-65
8.44674e-65
7.36189e-65
3.95183e-65
6.43142e-65
8.52364e-65
6.43142e-65
7.36136e-65
5.03686e-65
5.81189e-65
7.36185e-65
6.04452e-65
5.81207e-65
8.05899e-65
7.36152e-65
6.81914e-65
5.03686e-65
5.1919e-65
5.03686e-65
5.81189e-65
5.5021e-65
6.43211e-65
6.12217e-65
6.89679e-65
5.81195e-65
7.67172e-65
7.43933e-65
5.19207e-65
5.5021e-65
3.87474e-65
)
;
    }
}


// ************************************************************************* //
