/*--------------------------------*- C++ -*----------------------------------*\
  =========                 |
  \\      /  F ield         | OpenFOAM: The Open Source CFD Toolbox
   \\    /   O peration     | Website:  https://openfoam.org
    \\  /    A nd           | Version:  4.x
     \\/     M anipulation  |
\*---------------------------------------------------------------------------*/
FoamFile
{
    version     2.0;
    format      ascii;
    class       Cloud<passiveParticle>;
    location    0;
    object      positions;
}
// * * * * * * * * * * * * * * * * * * * * * * * * * * * * * * * * * * * * * //

258
(
( 0.0238622 0.0373642 0.0153883 ) 6
( 0.248348 0.0516092 -0.00685321 ) 2
( 0.0274311 0.0279941 0.0324864 ) 6
( 0.032615 0.0721906 0.017557 ) 25
( 0.242094 0.0712194 0.000342797 ) 2
( 0.19683 0.0712786 0.00281768 ) 1
( 0.225474 0.039916 -0.0103958 ) 0
( 0.105941 0.0456266 0.0369989 ) 18
( 0.167534 0.0195619 0.0187526 ) 12
( 0.131306 0.0344907 0.015192 ) 10
( 0.068286 0.0675186 0.0308734 ) 17
( 0.219025 0.0674845 0.00877213 ) 1
( 0.0543094 0.0347428 0.0266359 ) 7
( 0.139652 0.0400192 0.0351776 ) 11
( 0.0875734 0.0459142 0.0297709 ) 18
( 0.11105 0.0900188 0.014758 ) 27
( 0.0346826 0.0152654 0.0196078 ) 7
( 0.0645633 0.0900805 0.0200293 ) 26
( 0.179002 0.0835079 0.0156278 ) 30
( 0.163791 0.0745239 0.0244753 ) 29
( 0.0484409 0.0728134 0.0304843 ) 25
( 0.240303 0.0901647 0.0189168 ) 32
( 0.229702 0.0220728 -0.00342662 ) 0
( 0.108649 0.061983 0.0224931 ) 18
( 0.0963099 0.0291523 0.0242403 ) 9
( 0.189654 0.0509898 0.0147658 ) 21
( 0.132488 0.014879 0.0178144 ) 10
( 0.214537 0.0717164 -0.00990029 ) 4
( 0.139601 0.0520574 0.0197306 ) 20
( 0.0153737 0.0178819 0.017182 ) 6
( 0.117345 0.0783723 0.0295065 ) 28
( 0.131598 0.0203077 0.0365543 ) 10
( 0.203314 0.0368699 0.0171684 ) 13
( 0.213626 0.0533921 0.0213352 ) 22
( 0.00975772 0.0744938 0.0216392 ) 24
( 0.205975 0.0518285 0.00320512 ) 1
( 0.0985445 0.0899638 0.030002 ) 27
( 0.110393 0.0153305 0.0251194 ) 9
( 0.200772 0.0269588 0.0339951 ) 13
( 0.239155 0.0358934 0.0164237 ) 14
( 0.145841 0.0730788 0.0167041 ) 29
( 0.0913937 0.0633207 0.0383088 ) 18
( 0.190978 0.0902209 0.00135883 ) 3
( 0.159434 0.0557215 0.0209072 ) 20
( 0.0195853 0.0901915 0.0281086 ) 24
( 0.215965 0.0868498 0.0210923 ) 31
( 0.231422 0.0529311 0.00299415 ) 2
( 0.224062 0.0278297 0.0261774 ) 14
( 0.130306 0.090093 0.0197332 ) 28
( 0.173168 0.0901642 -0.0075477 ) 3
( 0.00980416 0.019378 0.0360184 ) 6
( 0.231176 0.0491403 0.0302113 ) 23
( 0.196552 0.0901814 0.0218505 ) 31
( 0.037251 0.0513409 0.0195778 ) 16
( 0.0682241 0.0502419 0.0210056 ) 17
( 0.0796772 0.0838148 0.0312279 ) 26
( 0.240153 0.0165966 0.0122685 ) 0
( 0.195043 0.0703257 0.0223685 ) 22
( 0.149167 0.0902447 0.0258424 ) 29
( 0.150592 0.0257951 0.0271325 ) 11
( 0.208118 0.0902263 -0.00850001 ) 4
( 0.242993 0.0903802 -0.00375599 ) 5
( 0.0919359 0.072418 0.0206792 ) 27
( 0.0387324 0.0897011 0.0242726 ) 25
( 0.0186072 0.0568417 0.0224633 ) 15
( 0.22754 0.0748765 0.0316564 ) 32
( 0.00988366 0.0380691 0.0291727 ) 6
( 0.224523 0.0900818 0.00349421 ) 5
( 0.236065 0.0641036 0.0181813 ) 23
( 0.12712 0.0670092 0.017486 ) 19
( 0.19764 0.0504824 0.0326749 ) 22
( 0.184992 0.0289288 0.0172612 ) 12
( 0.0761843 0.0319889 0.0213811 ) 8
( 0.247831 0.0753715 0.0296543 ) 32
( 0.0515301 0.0534987 0.0329352 ) 16
( 0.166621 0.0381065 0.0255423 ) 11
( 0.0535971 0.0151906 0.0535803 ) 34
( 0.0882565 0.0319279 0.057346 ) 36
( 0.167083 0.0675898 0.0422973 ) 21
( 0.113079 0.0418127 0.0190545 ) 10
( 0.0489473 0.0320145 0.0627305 ) 34
( 0.208072 0.0547591 0.0520718 ) 49
( 0.0289357 0.059543 0.0546016 ) 43
( 0.124539 0.055842 0.0552312 ) 46
( 0.181362 0.0274529 0.0571532 ) 39
( 0.175533 0.0900127 0.0532052 ) 57
( 0.0314061 0.0403539 0.0591737 ) 34
( 0.0713023 0.059645 0.0589259 ) 44
( 0.10471 0.0219706 0.0623815 ) 36
( 0.107964 0.0804544 0.0593201 ) 54
( 0.105713 0.0594833 0.0601493 ) 45
( 0.055266 0.0890392 0.0560951 ) 52
( 0.150253 0.0695977 0.0569346 ) 47
( 0.131978 0.0399044 0.0639614 ) 37
( 0.0208289 0.0793691 0.0569438 ) 51
( 0.17961 0.0552343 0.0554173 ) 48
( 0.139552 0.0214817 0.0647938 ) 38
( 0.0701324 0.0399441 0.0586927 ) 35
( 0.134384 0.0900921 0.0589174 ) 55
( 0.238098 0.0470304 0.0496607 ) 50
( 0.00987723 0.0170806 0.0644141 ) 33
( 0.22869 0.0874562 0.0564947 ) 59
( 0.207374 0.0760501 0.0524499 ) 58
( 0.0839781 0.0891599 0.0658734 ) 54
( 0.148842 0.0490437 0.0575152 ) 47
( 0.158862 0.0901126 0.067436 ) 56
( 0.00971673 0.0635598 0.0595195 ) 42
( 0.0954569 0.0379395 0.0743981 ) 63
( 0.249221 0.0175936 0.0549522 ) 41
( 0.192258 0.0653261 0.0445746 ) 48
( 0.0446632 0.0527102 0.0697081 ) 43
( 0.0843061 0.0736607 0.0535444 ) 54
( 0.225187 0.06101 0.0449095 ) 50
( 0.112963 0.0906116 0.0436083 ) 55
( 0.196917 0.0514001 0.0679686 ) 49
( 0.129641 0.0724685 0.0458628 ) 55
( 0.166237 0.0903853 0.0356952 ) 29
( 0.0615 0.016865 0.0732743 ) 62
( 0.0380602 0.0831263 0.0468846 ) 52
( 0.229261 0.0181108 0.0603858 ) 41
( 0.199219 0.0203001 0.0523373 ) 40
( 0.211811 0.0352355 0.054928 ) 40
( 0.164654 0.0372349 0.0612742 ) 38
( 0.105938 0.0260183 0.0412621 ) 9
( 0.021557 0.0251664 0.0509414 ) 33
( 0.0135991 0.03957 0.0678734 ) 33
( 0.166449 0.0246484 0.0444883 ) 38
( 0.0439101 0.0708421 0.0614409 ) 43
( 0.249502 0.0572986 0.0374482 ) 23
( 0.0569441 0.0665082 0.0471878 ) 44
( 0.11092 0.064213 0.0419005 ) 18
( 0.00975629 0.0903037 0.0449866 ) 51
( 0.216741 0.089799 0.040734 ) 31
( 0.0941077 0.0902502 0.0491093 ) 54
( 0.249017 0.0459597 0.0690017 ) 50
( 0.170999 0.0719358 0.0607708 ) 57
( 0.0311179 0.0651343 0.0358696 ) 16
( 0.178759 0.0560309 0.0314055 ) 21
( 0.151984 0.0549132 0.0390793 ) 20
( 0.0737353 0.0901372 0.0489847 ) 53
( 0.0637636 0.0297512 0.0431062 ) 35
( 0.0260338 0.046415 0.0391465 ) 15
( 0.0431279 0.0320819 0.0438681 ) 34
( 0.122872 0.033684 0.0479177 ) 37
( 0.148342 0.0306088 0.0499594 ) 38
( 0.151587 0.0902398 0.0490035 ) 56
( 0.182506 0.0332988 0.0363278 ) 12
( 0.125853 0.0729085 0.0652874 ) 55
( 0.209345 0.0666714 0.0352412 ) 22
( 0.0886565 0.0515556 0.0540816 ) 45
( 0.196966 0.0900747 0.041711 ) 31
( 0.106165 0.0404133 0.0559105 ) 36
( 0.116764 0.047241 0.0742416 ) 73
( 0.246984 0.0787362 0.0562698 ) 59
( 0.0859711 0.0707787 0.0730823 ) 72
( 0.246242 0.0372627 0.034664 ) 14
( 0.0123328 0.0605857 0.0405314 ) 15
( 0.215212 0.0641016 0.0725866 ) 76
( 0.228549 0.0304902 0.0452858 ) 41
( 0.121499 0.0252343 0.07216 ) 64
( 0.0831757 0.0277808 0.0390351 ) 8
( 0.193472 0.0707922 0.0657104 ) 48
( 0.134403 0.0903052 0.0390163 ) 28
( 0.182038 0.0788693 0.0346885 ) 30
( 0.236439 0.0905744 0.0384457 ) 32
( 0.0274957 0.0631816 0.0738286 ) 69
( 0.180184 0.0153635 0.0733949 ) 66
( 0.0533997 0.0474463 0.0514575 ) 43
( 0.0537243 0.0904717 0.0367144 ) 25
( 0.0638051 0.0502739 0.0743173 ) 71
( 0.0725751 0.0512265 0.0412801 ) 17
( 0.0490706 0.0166328 0.0330442 ) 7
( 0.241193 0.0175047 0.0370634 ) 14
( 0.0348074 0.0902448 0.0651905 ) 52
( 0.214357 0.0412031 0.0367153 ) 13
( 0.158133 0.0589886 0.0717494 ) 74
( 0.127512 0.0556515 0.0353419 ) 19
( 0.148901 0.0743184 0.0376659 ) 29
( 0.210094 0.0837977 0.0703413 ) 58
( 0.134846 0.0572197 0.0734172 ) 73
( 0.0105202 0.0900345 0.0702572 ) 51
( 0.00967409 0.040843 0.0486793 ) 33
( 0.027456 0.0230499 0.0733978 ) 60
( 0.193739 0.0900728 0.0611669 ) 57
( 0.238281 0.0744248 0.076079 ) 86
( 0.143206 0.0790983 0.072853 ) 83
( 0.100901 0.0206473 0.0816416 ) 63
( 0.16829 0.0444722 0.0436785 ) 48
( 0.148968 0.0366654 0.072683 ) 65
( 0.0659898 0.0745164 0.0704543 ) 53
( 0.101895 0.0900233 0.0759529 ) 81
( 0.211699 0.0361042 0.0741664 ) 67
( 0.0865028 0.0310935 0.0905481 ) 63
( 0.193364 0.0417251 0.0506191 ) 39
( 0.175105 0.048871 0.073049 ) 75
( 0.0727556 0.0192754 0.0572055 ) 35
( 0.00952308 0.0563076 0.0774632 ) 69
( 0.165832 0.0755677 0.0789741 ) 83
( 0.188674 0.034519 0.0740521 ) 66
( 0.0930709 0.0552365 0.0830036 ) 72
( 0.244396 0.0429269 0.0903169 ) 77
( 0.121636 0.0901575 0.0740361 ) 82
( 0.0771983 0.0292028 0.0735691 ) 62
( 0.0426836 0.0732254 0.0810206 ) 79
( 0.0510393 0.0371136 0.0814388 ) 61
( 0.109167 0.0703276 0.0756884 ) 72
( 0.229121 0.0402948 0.065849 ) 41
( 0.0226484 0.0734469 0.0901399 ) 78
( 0.169663 0.0309911 0.0795157 ) 66
( 0.0296804 0.0433801 0.0787471 ) 70
( 0.11044 0.0370212 0.0901253 ) 63
( 0.201927 0.0578327 0.0860822 ) 76
( 0.235846 0.0628245 0.0608901 ) 50
( 0.0765243 0.0738962 0.0901922 ) 80
( 0.16503 0.014991 0.09035 ) 65
( 0.19833 0.0771724 0.0846146 ) 85
( 0.00974301 0.026129 0.0817873 ) 60
( 0.227589 0.0905333 0.0760159 ) 86
( 0.183211 0.0647997 0.0815396 ) 75
( 0.147865 0.0528584 0.0877331 ) 74
( 0.233952 0.0546989 0.0785533 ) 77
( 0.0516908 0.0903164 0.075159 ) 79
( 0.130617 0.0672035 0.0901234 ) 73
( 0.060273 0.0611911 0.0902433 ) 71
( 0.233273 0.0280258 0.0808331 ) 68
( 0.0711466 0.0904688 0.0804969 ) 80
( 0.140593 0.0900615 0.0901053 ) 83
( 0.0100286 0.0900253 0.0901332 ) 78
( 0.135411 0.0289997 0.0858463 ) 64
( 0.201311 0.020438 0.079906 ) 67
( 0.180625 0.0438453 0.0906857 ) 75
( 0.177916 0.0902345 0.0728856 ) 84
( 0.201312 0.0386423 0.09047 ) 67
( 0.0746088 0.0470306 0.0903465 ) 71
( 0.149844 0.0724757 0.0902621 ) 83
( 0.0399051 0.055878 0.0902317 ) 70
( 0.115066 0.0813993 0.0905313 ) 82
( 0.223879 0.066778 0.0903216 ) 77
( 0.111428 0.0573757 0.0903287 ) 73
( 0.0373962 0.0900356 0.0901481 ) 79
( 0.0359544 0.0285205 0.0904108 ) 61
( 0.185338 0.0242264 0.0904866 ) 66
( 0.211959 0.0901926 0.090287 ) 85
( 0.153908 0.0342828 0.0908849 ) 65
( 0.118177 0.0187139 0.0905984 ) 64
( 0.249896 0.0705598 0.090822 ) 77
( 0.160626 0.0901321 0.0905225 ) 83
( 0.128871 0.0473024 0.0901256 ) 73
( 0.0662531 0.0283706 0.0903317 ) 62
( 0.243156 0.0900375 0.0901483 ) 86
( 0.221407 0.040642 0.0904482 ) 67
( 0.217821 0.0208686 0.0907998 ) 67
( 0.166706 0.0585866 0.0902464 ) 75
( 0.0138172 0.0429808 0.0907363 ) 69
( 0.0578082 0.0808344 0.0908194 ) 80
( 0.0882107 0.0902253 0.0902835 ) 81
( 0.180211 0.0821863 0.0905611 ) 84
( 0.0971778 0.072707 0.0906695 ) 81
)
