/*--------------------------------*- C++ -*----------------------------------*\
| =========                 |                                                 |
| \\      /  F ield         | OpenFOAM: The Open Source CFD Toolbox           |
|  \\    /   O peration     | Version:  4.x                                   |
|   \\  /    A nd           | Web:      www.OpenFOAM.org                      |
|    \\/     M anipulation  |                                                 |
\*---------------------------------------------------------------------------*/
FoamFile
{
    version     2.0;
    format      ascii;
    class       volScalarField;
    location    "46.5";
    object      QPartFluidCoeff;
}
// * * * * * * * * * * * * * * * * * * * * * * * * * * * * * * * * * * * * * //

dimensions      [1 -1 -3 -1 0 0 0];

internalField   nonuniform List<scalar> 
114
(
-2.37846e+07
-1.86446e+07
-1.01756e+07
-1.99035e+07
-1.21227e+07
-1.5331e+07
-1.93871e+07
-2.31034e+07
-2.04428e+07
-1.45873e+07
-2.44583e+07
-1.66362e+07
-2.33264e+07
-2.2372e+07
-1.49047e+07
-1.29298e+07
-2.05557e+07
-1.69862e+07
-1.79765e+07
-1.93726e+07
-1.74852e+07
-2.26741e+07
-1.80052e+07
-2.17092e+07
-1.32886e+07
-1.33527e+07
-1.72021e+07
-1.514e+07
-1.31938e+07
-1.36549e+07
-1.02013e+07
-1.7806e+07
-1.32701e+07
-3.28292e+07
-4.10149e+07
-2.20434e+07
-3.74293e+07
-1.57749e+07
-2.64519e+07
-3.19738e+07
-3.05718e+07
-2.96025e+07
-2.32682e+07
-3.71585e+07
-2.89684e+07
-2.13492e+07
-1.95355e+07
-3.33805e+07
-3.55404e+07
-3.06185e+07
-3.1408e+07
-2.95769e+07
-3.05757e+07
-2.96798e+07
-2.5642e+07
-1.68818e+07
-1.7936e+07
-2.78625e+07
-2.00927e+07
-2.53327e+07
-2.17751e+07
-2.23987e+07
-2.36746e+07
-1.60688e+07
-2.69056e+07
-3.09954e+07
-2.28697e+07
-1.91182e+07
-2.24865e+07
-2.28568e+07
-2.25166e+07
-2.55616e+07
-3.27197e+07
-2.39841e+07
-1.91178e+07
-1.66388e+07
-2.31747e+07
-3.02962e+07
-3.48948e+07
-3.05953e+07
-2.33484e+07
-3.15587e+07
-2.82436e+07
-3.40985e+07
-1.66978e+07
-2.53351e+07
-2.32738e+07
-2.49536e+07
-1.59345e+07
-2.27838e+07
-3.23163e+07
-1.78064e+07
-2.57904e+07
-1.63293e+07
-3.16187e+07
-3.43392e+07
-2.38571e+07
-2.74712e+07
-2.09246e+07
-2.52951e+07
-2.50112e+07
-1.95736e+07
-2.63765e+07
-3.50967e+07
-2.20665e+07
-3.04209e+07
-2.57349e+07
-3.43859e+07
-1.41972e+07
-2.10153e+07
-2.50466e+07
-2.41781e+07
-2.25209e+07
-2.16792e+07
)
;

boundaryField
{
    inlet
    {
        type            calculated;
        value           uniform 0;
    }
    outlet
    {
        type            calculated;
        value           nonuniform 0();
    }
    wall
    {
        type            calculated;
        value           uniform 0;
    }
    procBoundary2to0
    {
        type            processor;
        value           nonuniform List<scalar> 
44
(
382.699
420.589
369.49
300.828
390.775
642.857
225.158
342.619
265.222
265.222
416.586
855.534
509.254
794.81
520.871
479.629
601.978
531.885
589.327
416.586
855.534
855.534
607.774
663.597
487.148
407.806
521.986
655.407
723.831
680.448
754.133
607.774
663.597
663.597
419.804
197.996
364.936
508.833
743.24
773.089
416.679
742.078
647.385
419.804
)
;
    }
    procBoundary2to3
    {
        type            processor;
        value           nonuniform List<scalar> 
12
(
641.843
467.7
501.885
327.956
646.992
574.83
963.128
637.079
624.186
722.072
456.058
661.719
)
;
    }
    procBoundary2to6
    {
        type            processor;
        value           nonuniform List<scalar> 
32
(
613.255
515.01
678.143
431.11
471.283
425.328
752.334
676.828
459.872
604.022
836.785
459.929
657.912
613.255
515.01
503.965
476.449
696.633
618.098
772.244
669.152
660.03
515.01
431.11
661.485
353.67
573.163
450.56
464.378
658.054
431.11
714.982
)
;
    }
}


// ************************************************************************* //
