/*--------------------------------*- C++ -*----------------------------------*\
| =========                 |                                                 |
| \\      /  F ield         | OpenFOAM: The Open Source CFD Toolbox           |
|  \\    /   O peration     | Version:  4.x                                   |
|   \\  /    A nd           | Web:      www.OpenFOAM.org                      |
|    \\/     M anipulation  |                                                 |
\*---------------------------------------------------------------------------*/
FoamFile
{
    version     2.0;
    format      ascii;
    class       volVectorField;
    location    "46.5";
    object      Urel;
}
// * * * * * * * * * * * * * * * * * * * * * * * * * * * * * * * * * * * * * //

dimensions      [0 1 -1 0 0 0 0];

internalField   nonuniform List<vector> 
114
(
(-0.0218842 0.000103235 0.00106626)
(-0.0232825 0.000102464 0.00102626)
(-0.0222972 9.23265e-05 0.000856745)
(-0.023707 9.57076e-05 0.000781083)
(-0.022702 7.63875e-05 0.000621092)
(-0.0241078 7.51405e-05 0.000549022)
(-0.0236559 -0.000113149 0.00127323)
(-0.0218129 -0.000105888 0.00117666)
(-0.0229906 -0.000118524 0.00118359)
(-0.0218192 -0.000106078 0.0010317)
(-0.0232302 -9.47804e-05 0.0009844)
(-0.0221846 -5.74887e-05 0.000818808)
(-0.0236182 -3.3463e-05 0.00074745)
(-0.0225271 1.71208e-06 0.000584143)
(-0.0239544 1.13124e-05 0.000512044)
(-0.0237771 -0.000357498 0.00123781)
(-0.0220365 -0.000315219 0.00114658)
(-0.0232869 -0.000343173 0.00114554)
(-0.0222757 -0.000297614 0.0010021)
(-0.0237362 -0.00029879 0.000944652)
(-0.0228739 -0.000223601 0.000790199)
(-0.0243283 -0.000201892 0.00071231)
(-0.0234357 -0.000119647 0.000566836)
(-0.0248661 -0.000103285 0.00049333)
(-0.0239076 -0.000390258 0.00119987)
(-0.0223049 -0.00035397 0.00111997)
(-0.0236281 -0.000359643 0.00111162)
(-0.022825 -0.000315207 0.000986799)
(-0.0243404 -0.00029478 0.00092536)
(-0.0237108 -0.000220328 0.000786409)
(-0.0251811 -0.000174084 0.000704499)
(-0.0245278 -7.94982e-05 0.000571039)
(-0.0259115 -2.91179e-05 0.000500639)
(-0.0205551 6.96132e-05 0.000794511)
(-0.0220963 6.98639e-05 0.000722548)
(-0.0205074 5.38667e-05 0.000566933)
(-0.0221842 4.52523e-05 0.000490434)
(-0.0234169 -0.000152961 0.00133949)
(-0.0213441 -0.000130002 0.00120036)
(-0.022374 -0.000148267 0.00122336)
(-0.0207596 -0.000128575 0.00102573)
(-0.0221393 -0.000132232 0.000982652)
(-0.020575 -8.31954e-05 0.000792504)
(-0.0221356 -6.60982e-05 0.000716856)
(-0.0204709 -2.74713e-05 0.000561129)
(-0.0221758 -1.96803e-05 0.000466216)
(-0.0235578 -0.000398391 0.00131208)
(-0.0216065 -0.000346776 0.00118732)
(-0.0227091 -0.000385623 0.00121197)
(-0.0213031 -0.000318304 0.0010314)
(-0.0227171 -0.000334144 0.000991996)
(-0.0214138 -0.000239285 0.000818243)
(-0.0229342 -0.000233134 0.000756542)
(-0.0215723 -0.000131695 0.000611918)
(-0.0231793 -0.000119734 0.000542461)
(-0.0237122 -0.000431745 0.00127883)
(-0.0219397 -0.000388144 0.00117162)
(-0.0231248 -0.00040112 0.00118687)
(-0.022021 -0.000341163 0.00104091)
(-0.0234482 -0.000325667 0.000993026)
(-0.0224956 -0.000240233 0.000852596)
(-0.0239363 -0.00020035 0.000775759)
(-0.0229593 -0.000100723 0.00065754)
(-0.0243862 -4.90368e-05 0.000588611)
(-0.0189268 7.52373e-05 0.000473403)
(-0.0206559 6.29275e-05 0.000400887)
(-0.0231467 -0.000177702 0.00118956)
(-0.0209159 -0.00014733 0.00105631)
(-0.021772 -0.000155369 0.00105165)
(-0.0198611 -0.000124174 0.0008671)
(-0.0211513 -0.0001118 0.000807988)
(-0.0192698 -7.05278e-05 0.000642065)
(-0.0208417 -3.37757e-05 0.000562543)
(-0.0188823 -2.03123e-05 0.000443779)
(-0.0206651 1.09882e-05 0.000363475)
(-0.0233125 -0.00043068 0.00115884)
(-0.0212034 -0.00036972 0.00104038)
(-0.0221468 -0.000406184 0.0010388)
(-0.0204371 -0.00032511 0.000880471)
(-0.0217565 -0.000332397 0.000825409)
(-0.0201084 -0.000232251 0.00067447)
(-0.0216305 -0.000211522 0.000600214)
(-0.0198998 -0.000121914 0.000491411)
(-0.0216019 -7.19469e-05 0.000420436)
(-0.0234915 -0.000468583 0.00113696)
(-0.0215717 -0.000421824 0.00103833)
(-0.0226078 -0.000440468 0.00104067)
(-0.0212402 -0.00036783 0.000913867)
(-0.0225471 -0.000353519 0.000857271)
(-0.0213187 -0.000257725 0.000729042)
(-0.0226853 -0.00022517 0.000650478)
(-0.0214249 -0.000124415 0.000567098)
(-0.0228342 -6.55553e-05 0.000496637)
(-0.0229728 -0.000212409 0.00090331)
(-0.02065 -0.000186716 0.000790538)
(-0.0214287 -0.000210323 0.000778736)
(-0.0193635 -0.00015783 0.000642764)
(-0.0206123 -0.000162749 0.000586518)
(-0.0186119 -0.000105341 0.000465883)
(-0.0201663 -9.31775e-05 0.00039072)
(-0.0181482 -4.87778e-05 0.000324231)
(-0.0231586 -0.000479925 0.000880535)
(-0.021003 -0.000409715 0.000787614)
(-0.0218573 -0.000445183 0.000781712)
(-0.0200686 -0.000346389 0.000672712)
(-0.0213021 -0.000356361 0.00062856)
(-0.0196114 -0.000252875 0.000517913)
(-0.0210595 -0.000239065 0.000460191)
(-0.0233613 -0.000504952 0.000865923)
(-0.0214039 -0.000447309 0.00079473)
(-0.0223472 -0.000455586 0.000796266)
(-0.020884 -0.000374475 0.000715655)
(-0.0220969 -0.000353136 0.000673364)
(-0.0207697 -0.00026176 0.000574199)
)
;

boundaryField
{
    inlet
    {
        type            calculated;
        value           nonuniform List<vector> 
12
(
(-0.01 -3.55578e-10 8.38195e-11)
(-0.01 -6.02332e-11 1.16263e-10)
(-0.01 -7.69029e-11 1.15516e-10)
(-0.01 -9.44768e-11 4.37588e-11)
(-0.01 -6.26008e-11 1.58631e-11)
(-0.01 -5.25949e-11 1.23913e-11)
(-0.01 -1.41119e-10 1.43288e-10)
(-0.01 -3.79248e-11 7.52876e-11)
(-0.01 -8.49429e-11 6.03708e-11)
(-0.01 -8.48532e-11 1.20837e-10)
(-0.01 -8.6285e-12 5.30162e-11)
(-0.01 -8.55244e-11 5.81568e-11)
)
;
    }
    outlet
    {
        type            calculated;
        value           nonuniform 0();
    }
    wall
    {
        type            calculated;
        value           nonuniform List<vector> 
66
(
(7.15483e-10 -3.55578e-10 8.38195e-11)
(7.14791e-11 -6.02332e-11 1.16263e-10)
(5.06745e-11 -7.69029e-11 1.15516e-10)
(2.04574e-10 -2.02604e-10 2.10533e-10)
(1.50363e-10 -1.22718e-10 1.50986e-10)
(1.63223e-12 -8.59053e-11 1.58599e-10)
(2.86617e-10 -3.21721e-10 3.46828e-10)
(2.77372e-10 -1.11816e-10 4.21278e-10)
(1.19403e-10 -7.21937e-11 5.43287e-10)
(4.12222e-10 -2.19617e-10 4.35121e-10)
(3.15979e-10 -3.80565e-10 4.0595e-10)
(4.05471e-10 -2.7745e-10 4.25744e-10)
(4.49694e-11 -4.73018e-10 1.84326e-10)
(6.13931e-10 -2.25021e-10 6.66419e-10)
(4.62288e-10 -6.33964e-10 4.41321e-10)
(5.05431e-10 -5.20052e-10 4.90051e-10)
(3.82388e-10 -5.79864e-10 4.22336e-11)
(1.0471e-09 -4.72843e-10 6.22924e-10)
(9.53594e-10 -7.23361e-10 3.8077e-10)
(8.01785e-10 -6.82657e-10 2.8349e-10)
(5.41399e-10 -2.94587e-10 -7.96401e-11)
(1.41836e-09 -5.33109e-10 8.82015e-10)
(1.44611e-09 -1.16135e-09 5.97506e-10)
(1.10351e-09 -6.21571e-10 5.48503e-10)
(7.39192e-10 -5.3605e-10 3.42399e-10)
(2.26766e-09 -1.64121e-09 1.48756e-09)
(1.68563e-09 -1.49835e-09 7.84376e-10)
(1.45705e-09 -1.31326e-09 6.5055e-10)
(1.03658e-09 -1.06202e-09 5.65257e-10)
(2.64293e-09 -2.4766e-09 1.69268e-09)
(1.86529e-09 -1.85256e-09 1.10821e-09)
(1.47446e-09 -1.3417e-09 8.90956e-10)
(1.13289e-09 -8.7966e-10 5.22071e-10)
(5.06745e-11 -7.69029e-11 1.15516e-10)
(4.19483e-12 -5.25949e-11 1.23913e-11)
(1.24607e-11 -8.49429e-11 6.03708e-11)
(-2.10504e-12 -8.55244e-11 5.81568e-11)
(1.63223e-12 -8.59053e-11 1.58599e-10)
(4.5994e-11 -9.1422e-11 5.27262e-11)
(-1.80746e-11 -8.50336e-11 1.277e-10)
(9.35018e-12 -8.84489e-11 1.23598e-10)
(1.19403e-10 -7.21937e-11 5.43287e-10)
(7.74698e-11 -1.46213e-10 2.98732e-11)
(-9.54375e-11 -1.43343e-10 1.09397e-10)
(-3.65237e-11 -1.10074e-10 2.06685e-10)
(4.49694e-11 -4.73018e-10 1.84326e-10)
(1.78971e-10 -1.06068e-10 3.8638e-11)
(-1.14138e-10 -1.72525e-10 1.44858e-10)
(3.79705e-12 -1.53557e-10 1.54945e-10)
(3.82388e-10 -5.79864e-10 4.22336e-11)
(3.04633e-10 -2.1258e-10 -2.13531e-10)
(1.38185e-10 -1.7196e-10 1.12894e-10)
(1.50861e-10 -1.9283e-10 2.10813e-10)
(5.41399e-10 -2.94587e-10 -7.96401e-11)
(2.83796e-10 -2.99394e-10 4.15935e-11)
(1.03232e-10 -2.08992e-10 1.55241e-10)
(2.00166e-10 -1.58088e-10 1.71936e-10)
(7.39192e-10 -5.3605e-10 3.42399e-10)
(4.13782e-10 -3.81554e-10 1.7436e-10)
(2.00661e-10 -2.38821e-10 2.32998e-10)
(1.03658e-09 -1.06202e-09 5.65257e-10)
(5.27503e-10 -3.93007e-10 8.54154e-11)
(3.08897e-10 -3.5143e-10 2.7829e-10)
(1.13289e-09 -8.7966e-10 5.22071e-10)
(4.90538e-10 -3.8813e-10 1.79577e-10)
(6.23045e-10 -3.93126e-10 2.39421e-10)
)
;
    }
    procBoundary2to0
    {
        type            processor;
        value           nonuniform List<vector> 
44
(
(-0.0220484 0.000281112 0.00108411)
(-0.0234835 0.000260413 0.00104644)
(-0.0225355 0.000207691 0.000885437)
(-0.0239617 0.000193035 0.000824679)
(-0.0229718 0.000145175 0.000669516)
(-0.0243625 0.000123411 0.000614285)
(-0.0236518 0.000147106 0.0013219)
(-0.0218332 0.000121487 0.00120657)
(-0.0230097 0.000123593 0.00121392)
(-0.0230097 0.000123593 0.00121392)
(-0.0207332 8.44264e-05 0.00103844)
(-0.0220926 7.92291e-05 0.000994743)
(-0.0208047 0.000198331 0.000798839)
(-0.0223562 0.000177154 0.000724965)
(-0.0207547 0.000126018 0.000576061)
(-0.0224361 0.000100415 0.000500469)
(-0.0233775 0.000124073 0.00137912)
(-0.0213076 0.000108237 0.00122501)
(-0.0223253 0.000108008 0.00124574)
(-0.0207332 8.44264e-05 0.00103844)
(-0.0220926 7.92291e-05 0.000994743)
(-0.0220926 7.92291e-05 0.000994743)
(-0.0192078 8.70532e-05 0.000658408)
(-0.020787 9.70367e-05 0.000588536)
(-0.0192691 0.000140061 0.000492331)
(-0.020978 0.000118248 0.000398443)
(-0.023092 0.000128028 0.00120636)
(-0.0208422 0.000111381 0.0010782)
(-0.0216964 0.000117768 0.00107992)
(-0.0197665 9.44426e-05 0.000880596)
(-0.0210706 0.000101409 0.000824776)
(-0.0192078 8.70532e-05 0.000658408)
(-0.020787 9.70367e-05 0.000588536)
(-0.020787 9.70367e-05 0.000588536)
(-0.0179605 3.98878e-05 0.000326994)
(-0.0197031 3.96342e-05 0.000262924)
(-0.0229233 0.000112449 0.000895674)
(-0.0205868 8.93193e-05 0.000800533)
(-0.0213366 7.73769e-05 0.00078756)
(-0.0192235 6.33898e-05 0.000645439)
(-0.0204655 5.12202e-05 0.000601579)
(-0.0184232 4.9643e-05 0.000472686)
(-0.0199914 5.21116e-05 0.00042344)
(-0.0179605 3.98878e-05 0.000326994)
)
;
    }
    procBoundary2to3
    {
        type            processor;
        value           nonuniform List<vector> 
12
(
(-0.0230335 7.16731e-05 0.000433327)
(-0.0227681 3.95879e-05 0.00038549)
(-0.0239061 -5.11324e-05 0.000373171)
(-0.0251862 6.8775e-05 0.000392621)
(-0.0205288 3.67575e-05 0.000398658)
(-0.0204287 4.30395e-06 0.000374684)
(-0.0217517 -4.94503e-05 0.000451303)
(-0.0233486 5.18873e-05 0.000517694)
(-0.0187728 5.8394e-05 0.000338724)
(-0.0187244 1.31861e-05 0.000296655)
(-0.0198049 -2.43718e-05 0.000362425)
(-0.0215091 2.11384e-05 0.000459096)
)
;
    }
    procBoundary2to6
    {
        type            processor;
        value           nonuniform List<vector> 
32
(
(-0.0199204 -4.04752e-05 0.00026937)
(-0.0193668 -0.000145453 0.00039749)
(-0.0209667 -0.000106874 0.000346056)
(-0.0220728 -0.000217134 0.000518277)
(-0.020751 -0.000113201 0.000477314)
(-0.0221041 -4.75118e-05 0.000434581)
(-0.0229151 -0.000204736 0.000486336)
(-0.020562 -0.000181386 0.000433442)
(-0.0212885 -0.000186875 0.00040803)
(-0.0191552 -0.000140114 0.000348951)
(-0.0204027 -0.000125698 0.000305583)
(-0.0183088 -8.1467e-05 0.000250774)
(-0.0198884 -4.87757e-05 0.000214565)
(-0.0199204 -4.04752e-05 0.00026937)
(-0.0193668 -0.000145453 0.00039749)
(-0.0178573 -1.87739e-05 0.000177991)
(-0.0231169 -0.000496542 0.000486216)
(-0.0209144 -0.000411011 0.000448049)
(-0.0217373 -0.000439285 0.000431934)
(-0.0198483 -0.000332279 0.000387552)
(-0.021084 -0.00031942 0.000353244)
(-0.0192286 -0.000223573 0.000305087)
(-0.0193668 -0.000145453 0.00039749)
(-0.0220728 -0.000217134 0.000518277)
(-0.0207049 -0.000176584 0.000277761)
(-0.023333 -0.000524494 0.000495024)
(-0.0213541 -0.000459358 0.000465605)
(-0.0222565 -0.000468162 0.000458189)
(-0.0207372 -0.000375584 0.000429392)
(-0.0219002 -0.00035146 0.000397058)
(-0.0220728 -0.000217134 0.000518277)
(-0.020451 -0.00026026 0.000361359)
)
;
    }
}


// ************************************************************************* //
