/*--------------------------------*- C++ -*----------------------------------*\
| =========                 |                                                 |
| \\      /  F ield         | OpenFOAM: The Open Source CFD Toolbox           |
|  \\    /   O peration     | Version:  4.x                                   |
|   \\  /    A nd           | Web:      www.OpenFOAM.org                      |
|    \\/     M anipulation  |                                                 |
\*---------------------------------------------------------------------------*/
FoamFile
{
    version     2.0;
    format      ascii;
    class       volVectorField;
    location    "46.5";
    object      Us;
}
// * * * * * * * * * * * * * * * * * * * * * * * * * * * * * * * * * * * * * //

dimensions      [0 1 -1 0 0 0 0];

internalField   nonuniform List<vector> 
114
(
(6.00677e-10 -2.9946e-10 3.12087e-10)
(7.89203e-10 -4.18469e-10 5.39902e-10)
(1.17037e-09 -6.15409e-10 4.40988e-10)
(1.46609e-09 -6.03814e-10 6.97271e-10)
(2.19011e-09 -1.61164e-09 1.26776e-09)
(2.54351e-09 -2.40901e-09 1.48776e-09)
(2.22793e-10 -1.54038e-11 4.14836e-11)
(2.17045e-10 -1.12029e-10 1.30519e-10)
(3.3978e-10 -2.82922e-10 2.20517e-10)
(4.26936e-10 -4.03943e-10 2.62752e-10)
(5.84493e-10 -6.86666e-10 3.15072e-10)
(1.08071e-09 -7.83561e-10 2.36809e-10)
(1.58498e-09 -1.17775e-09 4.19688e-10)
(1.76694e-09 -1.50453e-09 5.76262e-10)
(1.84254e-09 -1.77718e-09 9.2715e-10)
(4.51241e-11 -3.37548e-11 5.27799e-11)
(1.52198e-10 -9.20677e-11 6.78924e-11)
(2.9668e-10 -1.0139e-10 2.91029e-10)
(4.66627e-10 -2.73842e-10 3.11005e-10)
(5.73737e-10 -5.56113e-10 3.7215e-10)
(8.71121e-10 -6.99396e-10 1.72075e-10)
(1.08542e-09 -6.56462e-10 4.23002e-10)
(1.58492e-09 -1.38485e-09 5.66419e-10)
(1.57796e-09 -1.27181e-09 7.67194e-10)
(-4.78696e-11 -6.12102e-11 6.7396e-11)
(2.35611e-11 -7.04575e-11 9.77537e-11)
(1.2516e-10 -6.6077e-11 4.33624e-10)
(1.99054e-10 -6.26009e-10 9.71144e-11)
(4.05191e-10 -5.29693e-10 -2.13691e-11)
(5.57965e-10 -2.90406e-10 -1.34838e-10)
(7.59971e-10 -5.04543e-10 2.89691e-10)
(1.10307e-09 -9.78249e-10 4.43181e-10)
(1.25583e-09 -7.94518e-10 4.30455e-10)
(8.37031e-10 -4.65142e-10 4.85455e-10)
(1.0665e-09 -3.7176e-10 7.3633e-10)
(1.68448e-09 -9.2857e-10 1.05962e-09)
(2.06157e-09 -1.33036e-09 1.37154e-09)
(7.90322e-11 2.2228e-12 -1.21978e-11)
(1.67996e-10 -6.57856e-11 6.54547e-11)
(1.8618e-10 -1.65131e-10 1.53235e-10)
(2.53684e-10 -3.00433e-10 2.53575e-10)
(3.21563e-10 -5.38693e-10 2.98871e-10)
(7.03472e-10 -5.34507e-10 1.15919e-10)
(1.10458e-09 -6.11939e-10 3.50776e-10)
(1.39488e-09 -8.69826e-10 4.10522e-10)
(1.93571e-09 -1.22257e-09 6.4932e-10)
(2.6275e-11 -3.8734e-11 -4.80506e-11)
(1.00268e-10 -1.10131e-10 -2.46842e-11)
(1.27593e-10 -1.80093e-10 8.30262e-11)
(2.07848e-10 -2.3002e-10 1.73848e-10)
(2.97608e-10 -3.96099e-10 5.06774e-11)
(4.97035e-10 -5.09552e-10 1.24191e-10)
(7.20693e-10 -6.22506e-10 2.501e-10)
(9.70233e-10 -7.44702e-10 4.2627e-10)
(1.33798e-09 -9.50357e-10 3.90326e-10)
(-1.48447e-12 -4.85192e-11 -2.18852e-11)
(5.2228e-11 -8.78643e-11 4.1933e-12)
(8.59112e-11 -1.38623e-10 -2.33679e-11)
(1.95441e-10 -1.06846e-10 -1.48644e-11)
(3.2228e-10 -2.04902e-10 -2.65619e-10)
(3.03546e-10 -3.0352e-10 1.37122e-12)
(4.22206e-10 -3.74965e-10 1.44972e-10)
(5.83446e-10 -3.76217e-10 8.45462e-11)
(5.95406e-10 -3.30585e-10 1.38778e-10)
(1.5097e-09 -1.14711e-10 1.05911e-09)
(1.87455e-09 -2.75682e-10 1.3661e-09)
(8.38685e-11 -5.93653e-11 9.8775e-11)
(8.67871e-11 -1.39431e-10 1.76376e-10)
(1.02982e-10 -2.12351e-10 2.47558e-10)
(5.31001e-11 -3.08775e-10 3.72653e-10)
(1.38187e-10 -4.86085e-10 4.58519e-10)
(4.0773e-10 -3.25082e-10 3.16835e-10)
(6.41276e-10 -3.89161e-10 4.91849e-10)
(1.11411e-09 -2.9359e-10 4.7055e-10)
(1.38326e-09 -5.64474e-10 4.28444e-10)
(1.60017e-11 -5.26867e-12 3.4811e-11)
(-3.35439e-11 -1.17693e-10 2.15078e-10)
(-1.07808e-10 -1.35348e-10 2.24455e-10)
(-1.16319e-10 -1.54145e-10 2.98822e-10)
(-4.72452e-11 -3.18555e-10 3.12871e-10)
(1.72344e-10 -3.45689e-10 2.20252e-10)
(2.94115e-10 -5.17839e-10 3.87582e-10)
(6.31546e-10 -3.10551e-10 4.62075e-10)
(1.10436e-09 -6.69467e-10 1.87663e-10)
(6.30028e-12 -7.11642e-11 2.11594e-11)
(-4.88271e-12 -8.07728e-11 7.40735e-11)
(-7.36934e-11 -1.39441e-10 6.20014e-11)
(-7.08074e-11 -1.66239e-10 6.58532e-11)
(1.23894e-10 -1.63856e-10 3.63711e-11)
(9.99502e-11 -2.08687e-10 9.43018e-11)
(1.83017e-10 -2.49908e-10 1.78198e-10)
(3.3877e-10 -3.38539e-10 2.16665e-10)
(6.15207e-10 -3.36943e-10 1.6611e-10)
(6.59349e-11 -4.15998e-11 1.03457e-10)
(2.25295e-10 -2.17725e-10 2.5378e-10)
(2.74564e-10 -3.20244e-10 3.2791e-10)
(3.11619e-10 -3.28397e-10 3.42128e-10)
(4.16905e-10 -2.63519e-10 4.45053e-10)
(8.42552e-10 -2.73762e-10 3.68651e-10)
(1.05964e-09 -1.3841e-10 4.84926e-10)
(1.8635e-09 -1.89001e-10 4.47001e-10)
(-1.25607e-12 9.03433e-12 3.41684e-11)
(1.40576e-10 -1.45436e-10 2.30179e-10)
(6.96911e-11 -1.5218e-10 2.61578e-10)
(1.47959e-10 -1.94499e-10 2.75404e-10)
(1.68716e-10 -3.49026e-10 3.19321e-10)
(4.21331e-10 -2.04656e-10 3.10397e-10)
(5.5147e-10 -2.69083e-10 4.42571e-10)
(-7.94206e-12 -7.44707e-11 3.51553e-11)
(1.30291e-11 -8.48896e-11 8.69734e-11)
(-4.35157e-11 -1.20383e-10 1.55398e-10)
(-9.3153e-12 -1.51405e-10 1.18234e-10)
(8.37194e-11 -2.04073e-10 1.48568e-10)
(1.54822e-10 -1.61084e-10 1.35406e-10)
)
;

boundaryField
{
    inlet
    {
        type            zeroGradient;
    }
    outlet
    {
        type            zeroGradient;
    }
    wall
    {
        type            zeroGradient;
    }
    procBoundary2to0
    {
        type            processor;
        value           nonuniform List<vector> 
44
(
(8.63384e-10 -4.33302e-10 3.31756e-10)
(8.20936e-10 -6.12628e-10 3.56981e-10)
(9.94576e-10 -4.85189e-10 4.04549e-10)
(1.18425e-09 -4.04684e-10 7.44983e-10)
(1.98777e-09 -1.17069e-09 1.55495e-09)
(2.13212e-09 -2.12797e-09 2.25544e-09)
(1.52168e-10 2.88916e-10 1.53546e-10)
(4.25657e-10 7.00659e-11 2.49599e-10)
(4.55325e-10 -1.01063e-10 2.62732e-10)
(4.55325e-10 -1.01063e-10 2.62732e-10)
(5.2053e-10 -2.70058e-10 3.61232e-10)
(5.62811e-10 -4.35741e-10 4.96543e-10)
(7.20354e-10 -4.51608e-10 3.70505e-10)
(8.25336e-10 -3.64555e-10 7.48896e-10)
(7.83464e-10 -4.98706e-10 1.57497e-09)
(1.19312e-09 -5.12159e-10 2.77901e-09)
(1.51835e-10 2.0076e-10 1.63154e-10)
(2.95833e-10 1.42246e-10 2.20394e-10)
(3.56901e-10 4.96027e-11 3.54844e-10)
(5.2053e-10 -2.70058e-10 3.61232e-10)
(5.62811e-10 -4.35741e-10 4.96543e-10)
(5.62811e-10 -4.35741e-10 4.96543e-10)
(8.17181e-10 -3.16251e-10 5.87432e-10)
(1.13732e-09 -1.01033e-11 6.94338e-10)
(2.2984e-10 3.0265e-10 1.52918e-09)
(-2.8201e-10 1.75477e-09 3.06448e-09)
(5.84473e-11 5.32787e-11 2.02918e-10)
(2.68248e-10 -9.67418e-11 3.21007e-10)
(3.29299e-10 -1.70885e-10 4.07349e-10)
(4.54725e-10 -3.03955e-10 4.54525e-10)
(6.33023e-10 -4.4958e-10 5.93408e-10)
(8.17181e-10 -3.16251e-10 5.87432e-10)
(1.13732e-09 -1.01033e-11 6.94338e-10)
(1.13732e-09 -1.01033e-11 6.94338e-10)
(1.70785e-09 2.53616e-10 9.20117e-10)
(2.17597e-09 1.53156e-11 9.85173e-10)
(7.01399e-11 2.46033e-11 2.03982e-10)
(3.79498e-10 -1.15974e-10 3.17786e-10)
(6.42524e-10 -1.39417e-10 2.39775e-10)
(1.23241e-09 -1.75237e-10 4.69561e-10)
(1.5763e-09 -4.59481e-13 6.75673e-10)
(1.60042e-09 -1.28691e-10 6.44228e-10)
(1.81244e-09 2.31981e-10 6.65755e-10)
(1.70785e-09 2.53616e-10 9.20117e-10)
)
;
    }
    procBoundary2to3
    {
        type            processor;
        value           nonuniform List<vector> 
12
(
(2.92039e-09 -3.83367e-09 1.33879e-09)
(2.20311e-09 -1.95861e-09 6.74026e-10)
(2.10877e-09 -1.155e-09 2.20467e-10)
(1.06377e-09 -4.08644e-10 6.61052e-11)
(3.10471e-09 -2.61367e-09 1.04162e-09)
(2.27273e-09 -1.39398e-09 4.1099e-10)
(1.85043e-09 -8.42347e-10 2.61102e-10)
(1.15025e-09 -3.17487e-10 1.65988e-10)
(3.10669e-09 -8.22065e-10 1.0695e-09)
(2.42186e-09 -9.08035e-10 4.27333e-10)
(1.7619e-09 -7.41056e-10 1.21903e-10)
(8.00603e-10 -4.90913e-10 1.3469e-10)
)
;
    }
    procBoundary2to6
    {
        type            processor;
        value           nonuniform List<vector> 
32
(
(1.96673e-09 -3.61342e-12 2.70483e-10)
(1.19283e-09 -3.7956e-11 3.91774e-10)
(1.58866e-09 -4.64386e-10 1.52625e-10)
(1.33613e-10 -9.22125e-11 1.46174e-10)
(4.6552e-10 -7.17114e-11 2.23446e-10)
(3.88282e-10 -2.10809e-10 5.9862e-11)
(1.09024e-10 -1.14977e-10 1.03822e-10)
(2.5022e-10 -2.69981e-10 2.0526e-10)
(3.3394e-10 -3.19831e-10 1.89082e-10)
(5.37718e-10 -2.90218e-10 2.74396e-10)
(9.3924e-10 -3.10829e-10 4.42665e-10)
(1.22291e-09 -2.33105e-10 2.56458e-10)
(1.39559e-09 -1.45353e-10 2.75611e-10)
(1.96673e-09 -3.61342e-12 2.70483e-10)
(1.19283e-09 -3.7956e-11 3.91774e-10)
(1.74213e-09 -2.94214e-10 3.50919e-10)
(3.12659e-11 -3.28696e-11 -1.58296e-11)
(4.32496e-11 -1.23567e-10 1.50538e-10)
(1.50224e-10 -1.64991e-10 1.28033e-10)
(1.844e-10 -2.33327e-10 1.9218e-10)
(2.7826e-10 -3.89323e-10 2.66387e-10)
(4.6567e-10 -3.02872e-10 2.51672e-10)
(1.19283e-09 -3.7956e-11 3.91774e-10)
(1.33613e-10 -9.22125e-11 1.46174e-10)
(9.61987e-10 -3.66856e-10 2.71064e-10)
(1.06561e-11 -2.69011e-11 3.73143e-11)
(1.00117e-10 -5.86027e-11 9.55806e-11)
(8.58432e-12 -9.18017e-11 3.97391e-11)
(1.60873e-11 -1.39823e-10 8.81453e-11)
(3.15815e-11 -1.50167e-10 8.91002e-11)
(1.33613e-10 -9.22125e-11 1.46174e-10)
(1.11482e-10 -2.2693e-10 1.32033e-10)
)
;
    }
}


// ************************************************************************* //
