/*--------------------------------*- C++ -*----------------------------------*\
| =========                 |                                                 |
| \\      /  F ield         | OpenFOAM: The Open Source CFD Toolbox           |
|  \\    /   O peration     | Version:  4.x                                   |
|   \\  /    A nd           | Web:      www.OpenFOAM.org                      |
|    \\/     M anipulation  |                                                 |
\*---------------------------------------------------------------------------*/
FoamFile
{
    version     2.0;
    format      ascii;
    class       volScalarField;
    location    "59.5";
    object      KslPrev;
}
// * * * * * * * * * * * * * * * * * * * * * * * * * * * * * * * * * * * * * //

dimensions      [1 -3 -1 0 0 0 0];

internalField   nonuniform List<scalar> 
87
(
3795.99
2510.38
3709.49
2389.92
3737.66
2110.37
4097.6
1682.24
6038.2
4457.21
2685.5
4396.02
2548.75
4512.55
2294.46
5064.8
1937
5812.88
5381.92
2966.69
5502.99
2870.06
5760.12
2647.52
6130.59
2197.86
6221.54
6029.25
3030.37
6107.29
2973.02
6501.57
2838.68
7938.05
2715.8
12298.8
11550.6
3395.37
13027.9
3283.39
15742
3042.71
16679.2
2789.45
9846.7
42537.4
3731.14
277454
3733.74
9.75479e+09
3852.55
41160.9
4080.31
6775.1
6398.94
3033.43
6759.43
2943.19
7501.32
2763.63
8965.55
2605.98
9336.4
12147.1
3351.04
12209.4
3196.05
12282.4
2982.78
11306.9
2709.34
7775.92
57772.6
3762.54
80402.8
3726.31
51725.3
3661.62
21173.9
3716.1
8070.15
8942.83
3367.4
13328.9
56824.1
3716.04
1e+10
)
;

boundaryField
{
    inlet
    {
        type            zeroGradient;
    }
    outlet
    {
        type            zeroGradient;
    }
    wall
    {
        type            zeroGradient;
    }
    procBoundary1to0
    {
        type            processor;
        value           uniform 0;
    }
    procBoundary1to3
    {
        type            processor;
        value           uniform 0;
    }
    procBoundary1to5
    {
        type            processor;
        value           uniform 0;
    }
    procBoundary1to7
    {
        type            processor;
        value           uniform 0;
    }
}


// ************************************************************************* //
