/*--------------------------------*- C++ -*----------------------------------*\
| =========                 |                                                 |
| \\      /  F ield         | OpenFOAM: The Open Source CFD Toolbox           |
|  \\    /   O peration     | Version:  4.x                                   |
|   \\  /    A nd           | Web:      www.OpenFOAM.org                      |
|    \\/     M anipulation  |                                                 |
\*---------------------------------------------------------------------------*/
FoamFile
{
    version     2.0;
    format      ascii;
    class       volScalarField;
    location    "59.5";
    object      Qsource;
}
// * * * * * * * * * * * * * * * * * * * * * * * * * * * * * * * * * * * * * //

dimensions      [1 -1 -3 0 0 0 0];

internalField   nonuniform List<scalar> 
87
(
3.45681e+09
8.97148e+09
5.85318e+09
8.93362e+09
6.01422e+09
7.0926e+09
6.75144e+09
9.63323e+09
5.01674e+09
5.25056e+09
5.51663e+09
6.57075e+09
6.88593e+09
5.11362e+09
7.89923e+09
8.30811e+09
8.13247e+09
4.58722e+09
4.56037e+09
8.09121e+09
6.82398e+09
9.98244e+09
6.88269e+09
6.90922e+09
6.32865e+09
7.55854e+09
4.84799e+09
7.88507e+09
7.54581e+09
6.68546e+09
8.55574e+09
6.8733e+09
9.19072e+09
9.46548e+09
9.91198e+09
5.60724e+09
9.11097e+09
6.81198e+09
7.56371e+09
9.42797e+09
9.20402e+09
7.73104e+09
9.41819e+09
1.05813e+10
4.7417e+09
8.97489e+09
8.38887e+09
7.18693e+09
6.808e+09
5.8041e+09
9.15149e+09
9.31193e+09
1.32475e+10
4.52051e+09
7.62198e+09
7.93864e+09
8.69923e+09
1.05619e+10
6.52627e+09
1.09757e+10
7.58727e+09
8.4033e+09
3.5379e+09
6.57007e+09
8.9525e+09
6.48958e+09
8.09939e+09
8.17909e+09
9.08434e+09
7.62457e+09
9.45441e+09
3.70165e+09
8.18068e+09
7.77166e+09
5.46277e+09
1.11337e+10
8.87104e+09
1.09003e+10
7.69588e+09
9.71166e+09
3.39283e+09
6.84947e+09
6.37232e+09
7.85311e+09
7.85697e+09
1.22057e+10
5.90292e+09
)
;

boundaryField
{
    inlet
    {
        type            calculated;
        value           nonuniform 0();
    }
    outlet
    {
        type            calculated;
        value           uniform 0;
    }
    wall
    {
        type            calculated;
        value           uniform 0;
    }
    procBoundary1to0
    {
        type            processor;
        value           nonuniform List<scalar> 
12
(
6.76281e+09
6.29012e+09
9.48504e+09
8.30239e+09
9.07671e+09
6.3532e+09
6.34208e+09
1.00533e+10
5.39551e+09
6.90439e+09
6.93332e+09
9.33936e+09
)
;
    }
    procBoundary1to3
    {
        type            processor;
        value           nonuniform List<scalar> 
27
(
9.14995e+09
4.89881e+09
7.50628e+09
4.33894e+09
5.68096e+09
4.97379e+09
6.22936e+09
6.12502e+09
3.88676e+09
8.57918e+09
8.10468e+09
1.02073e+10
1.06883e+10
8.57608e+09
8.03888e+09
6.90789e+09
8.67637e+09
8.13653e+09
8.28093e+09
1.10454e+10
9.30562e+09
1.0417e+10
6.66658e+09
7.9016e+09
9.22797e+09
8.51165e+09
7.05899e+09
)
;
    }
    procBoundary1to5
    {
        type            processor;
        value           nonuniform List<scalar> 
32
(
8.65364e+09
7.34887e+09
7.74413e+09
5.72639e+09
8.42603e+09
5.9404e+09
7.27559e+09
7.05453e+09
5.91615e+09
8.28302e+09
8.48595e+09
1.01348e+10
6.52663e+09
9.96119e+09
6.15508e+09
8.72346e+09
5.89183e+09
5.31977e+09
7.14752e+09
6.26256e+09
6.66108e+09
7.10253e+09
6.59623e+09
8.65364e+09
7.27559e+09
8.01254e+09
8.21479e+09
7.27559e+09
9.96119e+09
8.25323e+09
9.96119e+09
8.52189e+09
)
;
    }
    procBoundary1to7
    {
        type            processor;
        value           uniform 1.02029e+10;
    }
}


// ************************************************************************* //
