/*--------------------------------*- C++ -*----------------------------------*\
| =========                 |                                                 |
| \\      /  F ield         | OpenFOAM: The Open Source CFD Toolbox           |
|  \\    /   O peration     | Version:  4.x                                   |
|   \\  /    A nd           | Web:      www.OpenFOAM.org                      |
|    \\/     M anipulation  |                                                 |
\*---------------------------------------------------------------------------*/
FoamFile
{
    version     2.0;
    format      ascii;
    class       volScalarField;
    location    "59.5";
    object      QWallFluid;
}
// * * * * * * * * * * * * * * * * * * * * * * * * * * * * * * * * * * * * * //

dimensions      [1 -1 -3 0 0 0 0];

internalField   nonuniform List<scalar> 
87
(
1.61875e+09
2.26005e+09
1.65358e+09
2.37094e+09
1.63444e+09
2.57156e+09
1.4989e+09
3.04027e+09
1.04771e+09
7.17412e+08
1.08222e+09
7.27305e+08
1.13314e+09
7.09282e+08
1.21573e+09
6.35669e+08
1.37829e+09
5.47241e+08
6.12945e+08
9.94215e+08
6.01082e+08
1.01975e+09
5.77746e+08
1.07928e+09
5.41623e+08
1.22921e+09
5.14431e+08
5.52302e+08
9.61482e+08
5.48156e+08
9.79696e+08
5.16841e+08
9.98607e+08
4.32629e+08
1.0154e+09
2.92562e+08
0
0
0
0
0
0
0
0
0
0
0
0
0
0
0
0
0
0
5.13144e+08
9.40405e+08
4.9151e+08
9.61327e+08
4.47857e+08
9.89879e+08
3.80836e+08
1.02148e+09
3.56406e+08
0
0
0
0
0
0
0
0
0
0
0
0
0
0
0
0
0
0
3.84741e+08
8.41127e+08
2.76949e+08
0
0
0
)
;

boundaryField
{
    inlet
    {
        type            calculated;
        value           nonuniform 0();
    }
    outlet
    {
        type            calculated;
        value           uniform 0;
    }
    wall
    {
        type            calculated;
        value           uniform 0;
    }
    procBoundary1to0
    {
        type            processor;
        value           nonuniform List<scalar> 
12
(
2.17006e+09
1.03731e+09
9.71832e+08
9.39822e+08
0
0
9.19855e+08
0
0
8.60973e+08
0
0
)
;
    }
    procBoundary1to3
    {
        type            processor;
        value           nonuniform List<scalar> 
27
(
6.59393e+08
1.04631e+09
6.73972e+08
1.10056e+09
6.59407e+08
1.1649e+09
5.76322e+08
1.25272e+09
4.93355e+08
0
0
0
0
0
0
0
0
0
0
0
0
0
0
0
0
0
0
)
;
    }
    procBoundary1to5
    {
        type            processor;
        value           nonuniform List<scalar> 
32
(
7.89705e+08
1.12061e+08
7.00055e+08
5013.82
5.31493e+08
8.08376e+07
0
0
0
0
0
0
0
0
0
0
0
0
0
0
0
4.51152e+08
8.95433e+08
7.89705e+08
0
4.37517e+08
0
0
0
0
0
0
)
;
    }
    procBoundary1to7
    {
        type            processor;
        value           uniform 0;
    }
}


// ************************************************************************* //
