/*--------------------------------*- C++ -*----------------------------------*\
| =========                 |                                                 |
| \\      /  F ield         | OpenFOAM: The Open Source CFD Toolbox           |
|  \\    /   O peration     | Version:  4.x                                   |
|   \\  /    A nd           | Web:      www.OpenFOAM.org                      |
|    \\/     M anipulation  |                                                 |
\*---------------------------------------------------------------------------*/
FoamFile
{
    version     2.0;
    format      ascii;
    class       volVectorField;
    location    "59.5";
    object      UsNext;
}
// * * * * * * * * * * * * * * * * * * * * * * * * * * * * * * * * * * * * * //

dimensions      [0 1 -1 0 0 0 0];

internalField   nonuniform List<vector> 
87
(
(4.23196e-10 -3.26547e-10 -3.25901e-11)
(2.22804e-10 -1.78058e-10 -8.11813e-12)
(4.97234e-10 -4.93827e-11 5.23226e-10)
(7.38105e-10 -3.33586e-11 4.10254e-10)
(7.65378e-10 4.61871e-11 2.87378e-11)
(1.05055e-09 8.78314e-10 -2.76917e-10)
(1.82489e-09 7.89591e-11 -6.19662e-10)
(7.35702e-08 1.42147e-09 -4.35546e-09)
(3.78286e-08 -3.19136e-09 -6.98169e-09)
(7.10821e-10 -4.4545e-10 -1.33601e-10)
(2.7184e-10 -3.68307e-10 -6.3481e-11)
(3.37671e-10 -1.40949e-10 5.15555e-10)
(3.58392e-10 -2.37068e-10 5.17216e-10)
(5.35638e-10 -9.9e-11 2.58499e-10)
(7.2948e-10 -3.27168e-10 -2.86085e-10)
(7.51835e-10 -6.23834e-10 -7.93954e-10)
(-2.99502e-10 -1.20315e-09 -8.81637e-10)
(-6.1267e-10 -5.03536e-09 -1.97745e-09)
(3.70749e-10 -4.34704e-10 1.79093e-10)
(3.36844e-10 -4.44469e-10 2.41766e-10)
(2.12498e-10 -6.80802e-10 1.19068e-09)
(-4.61406e-10 -3.15594e-10 5.83076e-10)
(-3.69074e-10 -3.91335e-10 2.63388e-10)
(2.03253e-11 -8.52449e-10 -8.58353e-11)
(6.52817e-11 -6.09298e-10 3.54236e-10)
(-1.2564e-10 -3.4046e-10 -4.81833e-10)
(1.01269e-09 6.74652e-10 3.69942e-10)
(3.52507e-10 -3.44559e-10 -1.46113e-10)
(2.65859e-10 -2.27141e-10 3.77481e-11)
(9.56307e-11 -2.4026e-10 2.26923e-10)
(-3.75537e-10 -7.37745e-11 3.14618e-10)
(1.39637e-10 -9.47627e-11 -4.00994e-11)
(4.99629e-10 8.94715e-11 -2.8126e-10)
(8.59068e-10 -9.36353e-11 -4.80334e-10)
(1.0908e-09 -3.81214e-10 -1.06024e-09)
(3.77955e-10 -1.36408e-09 -2.14448e-09)
(5.39588e-10 -4.76928e-10 -8.84798e-11)
(3.99435e-10 -4.36777e-10 6.6816e-11)
(4.99624e-11 -3.62309e-10 3.18573e-10)
(1.69452e-10 -1.99438e-10 3.39226e-10)
(5.51039e-10 -3.63185e-10 1.71484e-10)
(9.73018e-10 -3.45171e-10 -2.55455e-10)
(8.23695e-10 -2.90076e-10 -6.62213e-10)
(5.70409e-10 -2.66594e-10 -7.25284e-10)
(1.66645e-09 -1.30854e-09 -1.15884e-09)
(3.68538e-10 -4.01353e-10 1.21863e-10)
(3.33402e-10 -4.64062e-10 2.96606e-10)
(-5.18174e-11 -2.90447e-10 8.52871e-10)
(-4.79378e-10 -2.48107e-10 4.20254e-10)
(4.86127e-11 -4.37041e-10 2.38997e-10)
(4.0476e-10 -6.48221e-10 -1.79592e-10)
(4.57373e-10 -6.96992e-10 -3.51085e-10)
(1.57223e-10 -4.53918e-10 -3.19411e-10)
(1.0173e-10 -5.14101e-10 -1.8408e-10)
(1.95531e-10 -1.08937e-10 -9.38618e-11)
(1.2053e-10 -1.42481e-10 1.92742e-11)
(-6.40994e-12 -7.14728e-11 -1.23477e-10)
(-8.2454e-11 -4.64029e-11 3.84735e-11)
(-1.23547e-11 -3.19731e-11 -9.94692e-11)
(1.09988e-10 -4.22007e-11 -2.56545e-10)
(1.51877e-10 6.48806e-11 -2.46165e-10)
(-6.87937e-11 -3.19299e-11 -3.42294e-10)
(2.96883e-10 -4.54629e-10 -6.49877e-10)
(3.64452e-10 -2.98655e-10 6.52037e-11)
(1.53336e-10 -2.887e-10 1.6166e-10)
(-1.26723e-11 -8.93477e-11 2.14459e-10)
(-2.08905e-11 -1.14815e-10 1.39409e-10)
(1.15137e-10 -1.60006e-10 -1.34399e-10)
(4.01143e-10 -6.04912e-11 -5.23887e-10)
(2.96047e-10 -3.30958e-11 -4.65089e-10)
(3.26849e-10 -1.37488e-10 -5.81021e-10)
(1.0884e-10 -2.56632e-10 1.9249e-10)
(3.8391e-10 -3.47015e-10 -3.32095e-11)
(2.2309e-10 -2.78666e-10 4.51647e-10)
(1.29044e-11 -2.31326e-10 2.54852e-10)
(-2.0662e-10 -2.28055e-10 2.12389e-10)
(5.50431e-11 -1.56844e-10 -4.79165e-11)
(2.47633e-10 -3.21901e-10 -2.71116e-10)
(3.15714e-10 -2.26771e-10 -3.74569e-10)
(2.26781e-10 -1.70125e-10 -2.83764e-10)
(1.86706e-10 -2.62511e-10 3.50925e-10)
(1.7168e-10 -8.33717e-11 -3.84323e-11)
(3.31182e-10 8.64373e-11 5.748e-11)
(-2.04633e-11 -8.70478e-11 3.12318e-10)
(3.74455e-10 -2.04818e-10 6.24716e-11)
(4.53317e-10 -1.80191e-10 2.89474e-10)
(4.50408e-10 -1.93161e-10 1.86347e-11)
)
;

boundaryField
{
    inlet
    {
        type            calculated;
        value           nonuniform 0();
    }
    outlet
    {
        type            calculated;
        value           nonuniform List<vector> 9((3.78286e-08 -3.19136e-09 -6.98169e-09) (-6.1267e-10 -5.03536e-09 -1.97745e-09) (1.01269e-09 6.74652e-10 3.69942e-10) (3.77955e-10 -1.36408e-09 -2.14448e-09) (1.66645e-09 -1.30854e-09 -1.15884e-09) (1.0173e-10 -5.14101e-10 -1.8408e-10) (2.96883e-10 -4.54629e-10 -6.49877e-10) (1.0884e-10 -2.56632e-10 1.9249e-10) (1.86706e-10 -2.62511e-10 3.50925e-10));
    }
    wall
    {
        type            calculated;
        value           nonuniform List<vector> 
57
(
(4.23196e-10 -3.26547e-10 -3.25901e-11)
(7.10821e-10 -4.4545e-10 -1.33601e-10)
(3.70749e-10 -4.34704e-10 1.79093e-10)
(2.22804e-10 -1.78058e-10 -8.11813e-12)
(2.7184e-10 -3.68307e-10 -6.3481e-11)
(3.36844e-10 -4.44469e-10 2.41766e-10)
(4.97234e-10 -4.93827e-11 5.23226e-10)
(3.37671e-10 -1.40949e-10 5.15555e-10)
(2.12498e-10 -6.80802e-10 1.19068e-09)
(7.38105e-10 -3.33586e-11 4.10254e-10)
(3.58392e-10 -2.37068e-10 5.17216e-10)
(-4.61406e-10 -3.15594e-10 5.83076e-10)
(7.65378e-10 4.61871e-11 2.87378e-11)
(5.35638e-10 -9.9e-11 2.58499e-10)
(-3.69074e-10 -3.91335e-10 2.63388e-10)
(1.05055e-09 8.78314e-10 -2.76917e-10)
(7.2948e-10 -3.27168e-10 -2.86085e-10)
(2.03253e-11 -8.52449e-10 -8.58353e-11)
(1.82489e-09 7.89591e-11 -6.19662e-10)
(7.51835e-10 -6.23834e-10 -7.93954e-10)
(6.52817e-11 -6.09298e-10 3.54236e-10)
(7.35702e-08 1.42147e-09 -4.35546e-09)
(-2.99502e-10 -1.20315e-09 -8.81637e-10)
(-1.2564e-10 -3.4046e-10 -4.81833e-10)
(3.78286e-08 -3.19136e-09 -6.98169e-09)
(-6.1267e-10 -5.03536e-09 -1.97745e-09)
(1.01269e-09 6.74652e-10 3.69942e-10)
(4.23196e-10 -3.26547e-10 -3.25901e-11)
(3.52507e-10 -3.44559e-10 -1.46113e-10)
(1.95531e-10 -1.08937e-10 -9.38618e-11)
(1.7168e-10 -8.33717e-11 -3.84323e-11)
(2.22804e-10 -1.78058e-10 -8.11813e-12)
(2.65859e-10 -2.27141e-10 3.77481e-11)
(1.2053e-10 -1.42481e-10 1.92742e-11)
(3.31182e-10 8.64373e-11 5.748e-11)
(4.97234e-10 -4.93827e-11 5.23226e-10)
(9.56307e-11 -2.4026e-10 2.26923e-10)
(-6.40994e-12 -7.14728e-11 -1.23477e-10)
(-2.04633e-11 -8.70478e-11 3.12318e-10)
(7.38105e-10 -3.33586e-11 4.10254e-10)
(-3.75537e-10 -7.37745e-11 3.14618e-10)
(-8.2454e-11 -4.64029e-11 3.84735e-11)
(7.65378e-10 4.61871e-11 2.87378e-11)
(1.39637e-10 -9.47627e-11 -4.00994e-11)
(-1.23547e-11 -3.19731e-11 -9.94692e-11)
(1.05055e-09 8.78314e-10 -2.76917e-10)
(4.99629e-10 8.94715e-11 -2.8126e-10)
(1.09988e-10 -4.22007e-11 -2.56545e-10)
(1.82489e-09 7.89591e-11 -6.19662e-10)
(8.59068e-10 -9.36353e-11 -4.80334e-10)
(1.51877e-10 6.48806e-11 -2.46165e-10)
(7.35702e-08 1.42147e-09 -4.35546e-09)
(1.0908e-09 -3.81214e-10 -1.06024e-09)
(-6.87937e-11 -3.19299e-11 -3.42294e-10)
(3.78286e-08 -3.19136e-09 -6.98169e-09)
(3.77955e-10 -1.36408e-09 -2.14448e-09)
(2.96883e-10 -4.54629e-10 -6.49877e-10)
)
;
    }
    procBoundary1to0
    {
        type            processor;
        value           nonuniform List<vector> 
12
(
(5.63285e-10 -4.63191e-10 -2.86443e-10)
(7.11965e-10 -4.35889e-10 -3.82946e-10)
(9.35171e-10 -4.05626e-10 -3.68359e-10)
(4.10144e-10 -1.15283e-10 -2.82084e-10)
(5.27974e-10 -4.27139e-10 -3.03613e-10)
(6.86445e-10 -3.43217e-10 -2.32468e-10)
(2.82376e-10 -8.63882e-11 -2.02399e-10)
(4.66715e-10 -3.29491e-10 -2.09718e-10)
(5.40123e-10 -3.20021e-10 -2.01949e-10)
(2.91093e-10 -5.08491e-11 -1.38811e-10)
(4.47489e-10 -1.68026e-10 -1.06001e-10)
(4.92235e-10 -1.57164e-10 -1.23633e-10)
)
;
    }
    procBoundary1to3
    {
        type            processor;
        value           nonuniform List<vector> 
27
(
(4.6762e-10 -5.67831e-10 1.22462e-10)
(1.2691e-10 -2.81177e-10 4.22282e-10)
(-3.85353e-09 8.24011e-09 1.33973e-09)
(-1.55732e-09 1.43408e-09 5.95401e-10)
(-1.05309e-09 -3.21532e-10 2.76196e-10)
(-9.57865e-10 -3.23417e-10 -1.84515e-10)
(-1.40852e-10 -6.08149e-10 -6.17312e-11)
(-8.31548e-10 -2.03325e-10 8.35197e-10)
(4.12055e-09 1.83037e-10 9.9319e-10)
(2.31993e-10 -4.53533e-10 1.75779e-10)
(4.63589e-12 -3.50485e-10 4.99037e-10)
(-3.88064e-10 -3.94265e-10 6.62724e-10)
(-5.67166e-10 -3.02985e-10 3.99853e-10)
(-7.18834e-10 -3.17319e-10 1.5449e-10)
(-7.81415e-10 -4.11443e-10 -6.00152e-11)
(-1.48659e-10 -4.2904e-10 -6.22628e-11)
(5.82782e-10 -3.84802e-10 1.60774e-10)
(1.47405e-09 -1.4419e-10 6.93861e-10)
(2.42634e-10 -2.91492e-10 1.21846e-10)
(3.39873e-11 -3.14034e-10 3.98429e-10)
(-1.68358e-10 -4.29839e-10 6.43938e-10)
(-2.40284e-10 -4.68993e-10 2.26962e-10)
(-2.13923e-10 -2.55645e-10 1.1621e-10)
(-1.2184e-10 -2.95661e-10 7.18616e-11)
(8.50707e-11 -2.34689e-10 -4.91961e-12)
(2.44816e-10 -1.38247e-10 1.25263e-10)
(3.29098e-10 -8.80271e-11 2.44767e-10)
)
;
    }
    procBoundary1to5
    {
        type            processor;
        value           nonuniform List<vector> 
32
(
(-2.95815e-10 -9.63075e-11 4.06102e-11)
(-1.13252e-10 5.33201e-12 -1.85075e-11)
(-2.24078e-11 -1.95099e-11 -1.56434e-10)
(-2.0952e-11 4.86687e-11 -1.24161e-10)
(6.1813e-11 5.78151e-11 -1.07647e-10)
(5.26219e-09 -9.64463e-11 -6.92244e-10)
(1.55366e-10 -3.51993e-10 3.8751e-10)
(-1.91993e-10 -1.83416e-10 1.23733e-10)
(-6.4664e-11 -1.09615e-10 7.60191e-12)
(2.27387e-11 -9.40578e-12 -2.23023e-10)
(-9.4096e-12 1.08467e-10 -1.81925e-10)
(3.55939e-11 2.64168e-10 -1.35156e-10)
(7.59031e-11 1.61387e-10 -5.05828e-11)
(3.29423e-10 -2.17431e-10 2.07406e-10)
(1.46214e-10 -2.95306e-10 3.5598e-10)
(-1.39372e-10 -2.20386e-10 8.00927e-11)
(-5.74381e-11 -1.00776e-10 -6.59904e-11)
(4.14013e-12 -2.13851e-11 -1.40641e-10)
(4.07323e-11 1.23443e-10 -7.60951e-11)
(1.08999e-10 1.88335e-10 -7.47158e-11)
(9.10651e-11 3.91536e-11 1.64523e-10)
(2.64645e-10 -6.33955e-12 -7.72205e-11)
(4.26148e-10 1.10815e-11 5.19598e-11)
(-2.95815e-10 -9.63075e-11 4.06102e-11)
(1.55366e-10 -3.51993e-10 3.8751e-10)
(8.63588e-11 -2.1349e-10 1.70527e-10)
(1.13077e-09 3.80296e-10 -1.12369e-10)
(1.55366e-10 -3.51993e-10 3.8751e-10)
(3.29423e-10 -2.17431e-10 2.07406e-10)
(2.34793e-09 1.11568e-09 -4.0987e-11)
(3.29423e-10 -2.17431e-10 2.07406e-10)
(4.75613e-10 -1.11496e-10 -7.00244e-11)
)
;
    }
    procBoundary1to7
    {
        type            processor;
        value           uniform (3.91056e-10 -1.79164e-10 3.32676e-11);
    }
}


// ************************************************************************* //
