/*--------------------------------*- C++ -*----------------------------------*\
  =========                 |
  \\      /  F ield         | OpenFOAM: The Open Source CFD Toolbox
   \\    /   O peration     | Website:  https://openfoam.org
    \\  /    A nd           | Version:  4.x
     \\/     M anipulation  |
\*---------------------------------------------------------------------------*/
FoamFile
{
    version     2.0;
    format      ascii;
    class       Cloud<passiveParticle>;
    location    0;
    object      positions;
}
// * * * * * * * * * * * * * * * * * * * * * * * * * * * * * * * * * * * * * //

325
(
( 0.0388653 -0.081182 0.0295065 ) 1
( 0.0913107 -0.07336 0.0223473 ) 3
( 0.244275 -0.029709 0.0296453 ) 26
( 0.104058 -0.0622526 0.0322832 ) 12
( 0.121274 -0.0409381 0.0239768 ) 22
( 0.0693549 -0.0265408 0.0234483 ) 20
( 0.0144378 -0.0313828 0.0342942 ) 18
( 0.00978939 -0.0204788 0.0185371 ) 18
( 0.229641 -0.0151769 0.0288032 ) 26
( 0.0184081 -0.06241 0.0159926 ) 9
( 0.241524 -0.00397324 0.0176458 ) 35
( 0.204861 -0.0421472 0.0146942 ) 25
( 0.179729 -0.0292834 0.0209615 ) 24
( 0.247277 -0.051287 0.0183786 ) 17
( 0.238985 -0.0713451 0.0254768 ) 17
( 0.126464 -0.0523446 0.0392992 ) 13
( 0.118015 -0.074428 0.0484092 ) 40
( 0.0664884 -0.0449497 0.0295883 ) 11
( 0.0817361 -0.0414126 0.0178229 ) 20
( 0.138696 -0.00767212 0.0335508 ) 31
( 0.122615 -0.0693887 0.0297648 ) 13
( 0.169717 -0.0153847 0.0308702 ) 24
( 0.210711 -0.00892203 0.0297705 ) 34
( 0.124063 -0.0216169 0.020863 ) 22
( 0.0608565 -0.0900887 0.0331749 ) 2
( 0.202085 -0.0201947 0.015976 ) 25
( 0.0345588 -0.0220885 0.0162381 ) 19
( 0.231813 -0.0461802 0.0298138 ) 17
( 0.0976436 -0.0115417 0.0332088 ) 30
( 0.197744 -0.0680317 0.0276025 ) 16
( 0.124111 -0.0284558 0.0393297 ) 22
( 0.0770886 -0.00603489 0.0280486 ) 29
( 0.193407 -0.0835751 0.0163934 ) 6
( 0.0536614 -0.0306959 0.0347764 ) 19
( 0.0763971 -0.0602128 0.021444 ) 11
( 0.0506452 -0.0900271 0.016089 ) 1
( 0.0599195 -0.0673918 0.0300387 ) 11
( 0.153257 -0.0453032 0.0287507 ) 14
( 0.136557 -0.0531312 0.0221854 ) 13
( 0.180713 -0.0681622 0.0174756 ) 15
( 0.0315784 -0.062152 0.0306696 ) 10
( 0.048498 -0.0108279 0.0249381 ) 28
( 0.0293311 -0.0417762 0.0234994 ) 19
( 0.0874945 -0.0203871 0.0188338 ) 21
( 0.13949 -0.0768765 0.0224013 ) 5
( 0.184201 -0.0540454 0.0308584 ) 15
( 0.140915 -0.03191 0.0211054 ) 23
( 0.113523 -0.0820342 0.0173024 ) 4
( 0.157539 -0.0838242 0.0270978 ) 5
( 0.0887082 -0.0435224 0.0384709 ) 12
( 0.0678382 -0.0791267 0.0163414 ) 2
( 0.106237 -0.0144842 0.0156261 ) 21
( 0.15112 -0.0227798 0.0355377 ) 23
( 0.189406 -0.00732054 0.0363665 ) 33
( 0.212094 -0.090175 0.0161804 ) 7
( 0.0962795 -0.0548571 0.015636 ) 12
( 0.135792 -0.00516592 0.0144166 ) 31
( 0.00979345 -0.0747444 0.0283303 ) 0
( 0.184902 -0.0101207 0.0172386 ) 33
( 0.00973836 -0.0568981 0.0369949 ) 9
( 0.0815079 -0.0225743 0.0382678 ) 20
( 0.103565 -0.0901044 0.0325706 ) 3
( 0.0284142 -0.0173946 0.0353789 ) 19
( 0.196498 -0.0316668 0.031074 ) 25
( 0.0475265 -0.0369728 0.0172578 ) 19
( 0.216582 -0.0774635 0.0307371 ) 7
( 0.216802 -0.0301049 0.0251233 ) 25
( 0.164462 -0.0591069 0.036985 ) 14
( 0.225496 -0.0573508 0.0148166 ) 17
( 0.0840414 -0.0627825 0.0393429 ) 12
( 0.0477752 -0.0508656 0.0310776 ) 10
( 0.118793 -0.00367614 0.0266913 ) 31
( 0.176007 -0.0902568 0.0229682 ) 6
( 0.108709 -0.0441673 0.0386486 ) 12
( 0.0584711 -2.14664e-06 0.0382949 ) 29
( 0.153924 -0.0122324 0.0193576 ) 32
( 0.249269 -0.0872315 0.0176671 ) 8
( 0.228229 0.00821732 0.0256252 ) 35
( 0.065943 0.0126432 0.0236103 ) 29
( 0.188671 0.0101694 0.0260739 ) 33
( 0.0921131 0.00913898 0.029611 ) 30
( 0.203811 0.00192734 0.0461289 ) 70
( 0.14941 0.00634383 0.0242943 ) 32
( 0.208587 0.010294 0.0273553 ) 34
( 0.170287 0.00446806 0.0314489 ) 33
( 0.0353135 0.00431028 0.0404955 ) 28
( 0.211839 -0.0541203 0.0288393 ) 16
( 0.0194382 -0.0902701 0.0354992 ) 0
( 0.0993269 -0.0353904 0.023935 ) 21
( 0.230544 -0.0903331 0.0233085 ) 8
( 0.0283229 -0.0901055 0.0153125 ) 1
( 0.0799588 -0.0877572 0.0289784 ) 2
( 0.15858 -0.0655631 0.0194678 ) 14
( 0.00959818 -0.000938615 0.0156815 ) 27
( 0.0099106 -0.0453008 0.0211996 ) 9
( 0.115967 -0.057906 0.0149125 ) 13
( 0.0257863 -0.0467261 0.0422949 ) 9
( 0.0289022 -0.00366837 0.021336 ) 28
( 0.221467 0.0104191 0.0440923 ) 70
( 0.131665 -0.0558601 0.0577889 ) 49
( 0.140707 -0.0729245 0.0543251 ) 41
( 0.168724 -0.0901482 0.0422329 ) 6
( 0.154747 -0.00709134 0.0546056 ) 68
( 0.0334878 -0.0272336 0.0518907 ) 55
( 0.127604 -0.0900617 0.0562852 ) 40
( 0.0426114 -0.0769884 0.0597574 ) 37
( 0.167507 -0.0420943 0.0591629 ) 60
( 0.125854 -0.00919529 0.0692117 ) 67
( 0.230586 -0.0234945 0.0596117 ) 62
( 0.0466415 -0.0574607 0.0615784 ) 46
( 0.116036 -0.0443551 0.0603936 ) 49
( 0.0859164 -0.0775284 0.062155 ) 39
( 0.242442 -0.0904387 0.0561128 ) 44
( 0.210213 -0.0331397 0.0605847 ) 61
( 0.246299 -0.0571018 0.0544582 ) 53
( 0.0741984 0.000230116 0.0625806 ) 65
( 0.0648588 -0.038067 0.0655937 ) 56
( 0.203261 -0.0901139 0.0601541 ) 43
( 0.00989608 -0.0828577 0.0715179 ) 72
( 0.168247 0.0100075 0.0581472 ) 69
( 0.0718746 -0.0639084 0.0605039 ) 47
( 0.186775 -0.0730468 0.0627503 ) 42
( 0.234154 -0.0727679 0.0540609 ) 44
( 0.148226 -0.090497 0.0575231 ) 41
( 0.0900651 -0.0188638 0.0612365 ) 57
( 0.229389 -0.0473599 0.0515338 ) 53
( 0.209083 0.0097598 0.0654765 ) 70
( 0.17551 -0.0069746 0.0677173 ) 69
( 0.00967698 -0.0104049 0.0627316 ) 63
( 0.0663456 -0.0173369 0.0680588 ) 56
( 0.0269929 -0.060495 0.0716195 ) 81
( 0.194749 -0.014512 0.0547651 ) 61
( 0.149581 -0.0370885 0.0663922 ) 59
( 0.0639189 -0.0902106 0.0565853 ) 38
( 0.16626 -0.0655519 0.0621044 ) 50
( 0.188389 -0.0334767 0.0595449 ) 60
( 0.104887 -0.0726518 0.0653858 ) 39
( 0.223105 -0.0906662 0.0613682 ) 44
( 0.249319 -0.00224042 0.0534614 ) 71
( 0.115352 -0.0247638 0.0589254 ) 58
( 0.0308584 0.00970627 0.0591166 ) 64
( 0.19075 0.00379453 0.0612128 ) 69
( 0.0881448 0.0130166 0.0685869 ) 66
( 0.0877222 -0.0529096 0.0558644 ) 48
( 0.102148 -0.00180873 0.056346 ) 66
( 0.118646 0.00796603 0.0612771 ) 67
( 0.210903 -0.0568305 0.050582 ) 52
( 0.0168541 -0.0267497 0.0715616 ) 90
( 0.0296042 -0.0851887 0.0724964 ) 73
( 0.0266301 -0.00861783 0.0529441 ) 63
( 0.107641 -0.0899695 0.0555019 ) 39
( 0.151003 -0.0560696 0.0553021 ) 50
( 0.204517 -0.0900423 0.0403306 ) 7
( 0.214874 -0.0757315 0.0525754 ) 43
( 0.142103 -0.0876325 0.0389755 ) 5
( 0.062974 -0.021387 0.0492873 ) 56
( 0.0754991 0.00958112 0.040326 ) 29
( 0.0096317 -0.0454721 0.0630855 ) 45
( 0.0994308 -0.0309744 0.0493472 ) 57
( 0.182357 -0.0245157 0.0430339 ) 60
( 0.125268 -0.0733417 0.0668463 ) 40
( 0.0628344 -0.0553653 0.0455859 ) 47
( 0.0466815 -0.0304121 0.0679598 ) 55
( 0.22761 -0.0893465 0.0425466 ) 8
( 0.070176 -0.0756661 0.0447272 ) 38
( 0.193684 -0.0476584 0.0469637 ) 51
( 0.0179602 -0.061183 0.0543724 ) 45
( 0.215622 -0.00747223 0.0592522 ) 70
( 0.159077 -0.0198305 0.069083 ) 59
( 0.134328 -0.0120394 0.0519681 ) 67
( 0.2109 -0.0395392 0.0419206 ) 25
( 0.0853623 -0.00566202 0.0474111 ) 66
( 0.133615 -0.0314883 0.0562995 ) 58
( 0.106015 -0.0588977 0.0515105 ) 48
( 0.150903 -0.0736378 0.0714388 ) 77
( 0.0456278 -0.0902922 0.0457085 ) 37
( 0.228337 -0.0304621 0.0412861 ) 26
( 0.0826477 -0.0905417 0.0479409 ) 38
( 0.17759 -0.0901448 0.0599497 ) 42
( 0.226362 -0.0625285 0.0393116 ) 17
( 0.143485 -0.0623325 0.0380362 ) 14
( 0.164013 -0.024563 0.0504354 ) 59
( 0.13636 0.00760601 0.0511308 ) 67
( 0.179744 -0.0614251 0.0487 ) 51
( 0.0803009 -0.0345371 0.053968 ) 56
( 0.0102567 0.00459643 0.049191 ) 63
( 0.0556938 -0.00394917 0.0578472 ) 65
( 0.181448 -0.0761652 0.0356984 ) 6
( 0.0460175 -0.0656431 0.0438014 ) 46
( 0.0443516 -0.0687998 0.0774203 ) 82
( 0.0219527 -0.090472 0.0552401 ) 36
( 0.00982779 -0.0130992 0.0404112 ) 27
( 0.123418 -0.0899811 0.0327245 ) 4
( 0.231356 -0.00782194 0.0472102 ) 71
( 0.231072 -0.00848805 0.0722968 ) 107
( 0.114171 -0.011938 0.0440674 ) 67
( 0.116845 -0.0901244 0.0731116 ) 76
( 0.145198 -0.00477361 0.0715851 ) 104
( 0.211642 -0.0205394 0.0454075 ) 61
( 0.0289079 -0.0750311 0.0454701 ) 37
( 0.0455355 -0.013722 0.0441528 ) 64
( 0.106729 -0.0129081 0.0716016 ) 102
( 0.182876 0.0119495 0.0448965 ) 69
( 0.00984224 -0.028362 0.0531799 ) 54
( 0.172381 -0.0412927 0.0401535 ) 24
( 0.24655 -0.0901668 0.0368626 ) 8
( 0.0616059 -0.0554409 0.0746577 ) 83
( 0.0805074 -0.0483713 0.0734421 ) 83
( 0.197146 -0.0705666 0.0466792 ) 52
( 0.22624 -0.0404613 0.0695374 ) 62
( 0.0490596 -0.0901677 0.079119 ) 73
( 0.20421 -0.0738802 0.0716131 ) 79
( 0.173443 -0.00619481 0.0480238 ) 69
( 0.249697 -0.0737717 0.0658889 ) 44
( 0.0290936 -0.0437574 0.0614039 ) 46
( 0.247852 -0.0416722 0.0727561 ) 98
( 0.0094412 -0.0774415 0.04762 ) 36
( 0.0401994 -0.0115379 0.0671247 ) 64
( 0.18187 -0.0238878 0.075727 ) 96
( 0.0981721 -0.0348643 0.0700648 ) 57
( 0.0868784 -0.0665386 0.0783748 ) 84
( 0.117029 0.00827532 0.0420528 ) 31
( 0.156554 -0.0548002 0.0757341 ) 86
( 0.216938 -0.0590394 0.0692265 ) 52
( 0.0806805 -0.027821 0.0760972 ) 92
( 0.236335 -0.0591498 0.0713339 ) 53
( 0.0968184 -0.0766573 0.0454945 ) 39
( 0.149289 -0.0386281 0.0467845 ) 59
( 0.0505158 -0.0408195 0.0514978 ) 55
( 0.155918 0.0141624 0.0729645 ) 104
( 0.131715 -0.0428103 0.072361 ) 94
( 0.0409005 0.00853869 0.0760575 ) 100
( 0.0925192 0.013827 0.0493049 ) 66
( 0.141218 -0.090137 0.0766782 ) 77
( 0.198307 -0.0534236 0.0656165 ) 52
( 0.154696 0.00876433 0.0430453 ) 68
( 0.198525 -0.0347486 0.076284 ) 97
( 0.0756878 -0.0900931 0.075104 ) 74
( 0.221849 -0.0803379 0.0776309 ) 79
( 0.193173 0.00257213 0.0814073 ) 105
( 0.120815 -0.0259007 0.0778366 ) 94
( 0.0146863 -0.0711935 0.0874252 ) 81
( 0.202347 -0.0128058 0.0729505 ) 106
( 0.174818 -0.0722199 0.0778314 ) 78
( 0.0234486 -0.00782707 0.0766419 ) 99
( 0.0663383 -0.037921 0.085278 ) 92
( 0.109693 -0.0723601 0.0843091 ) 75
( 0.181186 -0.0476446 0.073648 ) 87
( 0.0657128 -0.00208299 0.0804983 ) 101
( 0.194461 -0.0899199 0.0779736 ) 79
( 0.0402399 -0.0468207 0.0769057 ) 82
( 0.00977657 0.00628715 0.0807322 ) 99
( 0.00990992 -0.0523549 0.083145 ) 81
( 0.163134 -0.00315756 0.0825717 ) 104
( 0.224546 0.00930691 0.0771493 ) 107
( 0.131106 0.00828172 0.0762908 ) 103
( 0.136783 -0.0612345 0.0774219 ) 85
( 0.142931 -0.0274954 0.0823684 ) 95
( 0.0613347 -0.0768723 0.0709362 ) 38
( 0.0775667 0.0130205 0.0852922 ) 101
( 0.161721 -0.0902544 0.0716923 ) 77
( 0.248006 -0.0321161 0.0562303 ) 62
( 0.160089 -0.0681511 0.0901983 ) 86
( 0.0969913 -0.0902211 0.072279 ) 75
( 0.245112 -0.0902174 0.075597 ) 80
( 0.0580378 -0.0763637 0.0903075 ) 74
( 0.231456 -0.0176778 0.0901215 ) 98
( 0.106217 -0.0305965 0.0902684 ) 93
( 0.0358429 -0.0808208 0.0905003 ) 73
( 0.0733115 -0.0556734 0.0904253 ) 83
( 0.242549 0.00728052 0.0698215 ) 71
( 0.228975 -0.067242 0.090341 ) 89
( 0.0858089 -0.040287 0.0904388 ) 93
( 0.0327796 -0.0245624 0.0829864 ) 91
( 0.208716 -0.0703454 0.0903587 ) 88
( 0.111887 0.00443618 0.0790198 ) 103
( 0.22539 -0.0481958 0.0875015 ) 89
( 0.165481 -0.0363629 0.077784 ) 95
( 0.126677 -0.0900267 0.090242 ) 76
( 0.0881103 -0.00556898 0.0752613 ) 102
( 0.111341 -0.0463449 0.0793689 ) 85
( 0.026909 0.0101799 0.0901037 ) 99
( 0.184997 -0.0368264 0.0903604 ) 96
( 0.126962 -0.00530746 0.0901386 ) 103
( 0.206153 -0.0516742 0.08404 ) 88
( 0.0521059 -0.0173453 0.0818038 ) 91
( 0.126478 -0.0392824 0.0906756 ) 94
( 0.0542087 0.0104368 0.0904376 ) 100
( 0.00984425 -0.0304823 0.0897085 ) 90
( 0.218847 -0.0233155 0.0757491 ) 97
( 0.210207 -0.0901438 0.0901873 ) 79
( 0.0315447 -0.0613868 0.0905226 ) 82
( 0.146322 -0.00981077 0.0904781 ) 104
( 0.18813 -0.0564824 0.0901023 ) 87
( 0.14659 -0.04548 0.0901535 ) 86
( 0.248563 -0.0572831 0.0865039 ) 89
( 0.176036 -0.0904646 0.0850786 ) 78
( 0.180576 -0.00973848 0.0901326 ) 105
( 0.143813 0.0116467 0.0905232 ) 104
( 0.0506021 -0.0559476 0.0907212 ) 82
( 0.14175 -0.0755241 0.0902307 ) 77
( 0.094625 0.00435696 0.0905905 ) 102
( 0.0860911 -0.0824524 0.0901853 ) 75
( 0.122312 -0.0585917 0.0904254 ) 85
( 0.107826 -0.0106151 0.0907073 ) 102
( 0.247221 -0.0768443 0.0901322 ) 80
( 0.232589 -0.0900652 0.0906494 ) 80
( 0.0699266 -0.0188998 0.0902457 ) 92
( 0.169352 -0.050538 0.0904914 ) 87
( 0.0256747 -0.0424096 0.0901431 ) 90
( 0.00986969 -0.010659 0.0904692 ) 99
( 0.0981049 -0.0558172 0.0903704 ) 84
( 0.155693 -0.0897811 0.090339 ) 77
( 0.104514 -0.0902021 0.090442 ) 75
( 0.0378223 -0.00679237 0.0903064 ) 100
( 0.216738 -0.00347103 0.0901619 ) 106
( 0.0898057 -0.0181309 0.0904706 ) 93
( 0.187908 -0.0761571 0.0909544 ) 78
( 0.212046 -0.0340405 0.0905504 ) 97
( 0.0476189 -0.0351604 0.0905994 ) 91
( 0.00984554 -0.0901543 0.0900716 ) 72
( 0.242486 -0.0392096 0.0908711 ) 98
( 0.241528 0.0125756 0.0902519 ) 107
( 0.197174 -0.0208305 0.0902962 ) 97
( 0.164683 -0.0214138 0.0903794 ) 95
)
