/*--------------------------------*- C++ -*----------------------------------*\
| =========                 |                                                 |
| \\      /  F ield         | OpenFOAM: The Open Source CFD Toolbox           |
|  \\    /   O peration     | Version:  4.x                                   |
|   \\  /    A nd           | Web:      www.OpenFOAM.org                      |
|    \\/     M anipulation  |                                                 |
\*---------------------------------------------------------------------------*/
FoamFile
{
    version     2.0;
    format      ascii;
    class       volScalarField;
    location    "16.5";
    object      KslPrev;
}
// * * * * * * * * * * * * * * * * * * * * * * * * * * * * * * * * * * * * * //

dimensions      [1 -3 -1 0 0 0 0];

internalField   nonuniform List<scalar> 
114
(
6228.61
3236.2
5593.08
3181.77
4863.32
2931.43
3505.89
7598.03
3412.32
6390.16
3309.28
5623.81
3168.73
5059.89
2989.31
3461.01
7353.73
3358.31
6080.76
3294.05
5291.31
3076.57
4678.21
2930.57
3380.16
6880.34
3223.12
5745.27
3116.86
4974.21
2894.96
4206.2
2708.9
10303.3
3815.11
12731
3762.28
3567.93
8766.62
3685.98
9145.77
3730.47
9684.76
3738.65
11703.3
3649.6
3533.58
8442.95
3634.11
8308.46
3600.52
8127.38
3601.94
9095.62
3599.51
3438.25
7377.47
3403.14
6490.06
3261.58
5846.51
3156.26
5437.65
3023.21
60020.2
4022.39
3612.99
9400.57
3804.76
11244.5
3887.18
13466.4
3932.91
21208.3
3900.37
3558.94
9012.04
3748.27
10467.3
3808.24
12615.5
3889.26
22078.5
3896.25
3461.4
7813.41
3479.71
7360.98
3385.5
6954.52
3398.72
6903.35
3326.57
3609.39
9713.48
3806.22
11460.2
3813.55
13633
3777.58
19950.8
3565.42
9119.22
3757.39
10366.6
3790.53
11942.8
3755.15
3433.32
7731.62
3467.29
7559.88
3419.7
7538.46
)
;

boundaryField
{
    inlet
    {
        type            zeroGradient;
    }
    outlet
    {
        type            zeroGradient;
    }
    wall
    {
        type            zeroGradient;
    }
    procBoundary2to0
    {
        type            processor;
        value           uniform 0;
    }
    procBoundary2to3
    {
        type            processor;
        value           uniform 0;
    }
    procBoundary2to6
    {
        type            processor;
        value           uniform 0;
    }
}


// ************************************************************************* //
