/*--------------------------------*- C++ -*----------------------------------*\
| =========                 |                                                 |
| \\      /  F ield         | OpenFOAM: The Open Source CFD Toolbox           |
|  \\    /   O peration     | Version:  4.x                                   |
|   \\  /    A nd           | Web:      www.OpenFOAM.org                      |
|    \\/     M anipulation  |                                                 |
\*---------------------------------------------------------------------------*/
FoamFile
{
    version     2.0;
    format      ascii;
    class       volScalarField;
    location    "16.5";
    object      QWallFluid;
}
// * * * * * * * * * * * * * * * * * * * * * * * * * * * * * * * * * * * * * //

dimensions      [1 -1 -3 0 0 0 0];

internalField   nonuniform List<scalar> 
114
(
5.0688e+08
8.725e+08
5.11281e+08
8.14429e+08
4.36367e+08
7.87806e+08
8.26801e+08
4.34663e+08
8.42964e+08
4.8464e+08
8.44911e+08
4.95016e+08
8.20262e+08
4.65097e+08
8.19091e+08
8.29245e+08
4.39795e+08
8.42532e+08
4.93961e+08
8.39318e+08
5.19481e+08
8.495e+08
5.391e+08
8.64018e+08
1.67028e+09
9.14704e+08
1.71819e+09
1.01619e+09
1.72916e+09
1.08626e+09
1.77554e+09
1.2097e+09
1.86249e+09
0
0
0
0
0
0
0
0
0
0
0
0
0
0
0
0
0
0
0
0
0
0
8.2085e+08
4.32194e+08
8.24899e+08
4.55223e+08
8.25393e+08
4.62909e+08
8.17668e+08
4.60544e+08
8.3144e+08
0
0
0
0
0
0
0
0
0
0
0
0
0
0
0
0
0
0
0
0
8.13646e+08
4.07745e+08
8.01205e+08
4.00697e+08
7.88393e+08
3.8084e+08
7.53481e+08
3.48084e+08
7.49236e+08
0
0
0
0
0
0
0
0
0
0
0
0
0
0
0
8.10291e+08
4.062e+08
7.94878e+08
3.84299e+08
7.74638e+08
3.44145e+08
)
;

boundaryField
{
    inlet
    {
        type            calculated;
        value           uniform 0;
    }
    outlet
    {
        type            calculated;
        value           nonuniform 0();
    }
    wall
    {
        type            calculated;
        value           uniform 0;
    }
    procBoundary2to0
    {
        type            processor;
        value           nonuniform List<scalar> 
44
(
5.07325e+08
8.87581e+08
5.08993e+08
8.12696e+08
3.16575e+08
6.7845e+08
8.41782e+08
4.53811e+08
8.67636e+08
8.67636e+08
0
0
0
0
0
0
0
0
0
0
0
0
0
0
0
0
0
0
0
0
0
0
0
0
0
0
0
0
0
0
0
0
0
0
)
;
    }
    procBoundary2to3
    {
        type            processor;
        value           nonuniform List<scalar> 
12
(
5.286e+08
5.08742e+08
5.68239e+08
1.34471e+09
0
0
0
4.84284e+08
0
0
0
3.36714e+08
)
;
    }
    procBoundary2to6
    {
        type            processor;
        value           nonuniform List<scalar> 
32
(
0
0
0
7.49504e+08
3.32453e+08
7.57086e+08
0
0
0
0
0
0
0
0
0
0
0
0
0
0
0
0
0
7.49504e+08
0
8.08976e+08
3.90988e+08
7.80644e+08
3.46218e+08
7.41088e+08
7.49504e+08
2.77637e+08
)
;
    }
}


// ************************************************************************* //
