/*--------------------------------*- C++ -*----------------------------------*\
| =========                 |                                                 |
| \\      /  F ield         | OpenFOAM: The Open Source CFD Toolbox           |
|  \\    /   O peration     | Version:  4.x                                   |
|   \\  /    A nd           | Web:      www.OpenFOAM.org                      |
|    \\/     M anipulation  |                                                 |
\*---------------------------------------------------------------------------*/
FoamFile
{
    version     2.0;
    format      ascii;
    class       volScalarField;
    location    "16.5";
    object      SPartFluid;
}
// * * * * * * * * * * * * * * * * * * * * * * * * * * * * * * * * * * * * * //

dimensions      [1 -3 -1 0 0 0 0];

internalField   nonuniform List<scalar> 
114
(
6.48482e-65
4.8569e-65
2.54319e-65
4.83786e-65
2.2346e-65
2.64865e-65
5.72598e-65
6.49834e-65
5.10374e-65
3.78612e-65
6.17697e-65
4.39869e-65
5.86623e-65
6.10604e-65
3.96236e-65
4.02443e-65
5.64871e-65
4.56372e-65
4.94891e-65
4.483e-65
4.55846e-65
5.33323e-65
4.41084e-65
5.27181e-65
4.41182e-65
4.25658e-65
4.64231e-65
4.56385e-65
3.32573e-65
3.78922e-65
2.70774e-65
4.80009e-65
3.10015e-65
8.39616e-65
9.70028e-65
5.7193e-65
9.25025e-65
5.41669e-65
6.80814e-65
7.65587e-65
7.80655e-65
6.95186e-65
6.25399e-65
8.95897e-65
7.57932e-65
5.19686e-65
6.03684e-65
8.58935e-65
8.27775e-65
7.57887e-65
7.42119e-65
7.26619e-65
7.03641e-65
7.43106e-65
5.96787e-65
5.88248e-65
5.18507e-65
6.96357e-65
5.80174e-65
6.88343e-65
5.87762e-65
5.87924e-65
6.5036e-65
4.26239e-65
7.57716e-65
8.14636e-65
7.27459e-65
4.95195e-65
5.49179e-65
6.03126e-65
5.56551e-65
7.1092e-65
8.34914e-65
6.5769e-65
4.88487e-65
5.3405e-65
6.03644e-65
7.11836e-65
9.05054e-65
7.26982e-65
6.41962e-65
7.50369e-65
7.43177e-65
8.36986e-65
5.34078e-65
7.50746e-65
6.03611e-65
6.96362e-65
4.64255e-65
6.49949e-65
8.28087e-65
4.95558e-65
6.66407e-65
4.79842e-65
8.12547e-65
8.35589e-65
6.57504e-65
6.80598e-65
5.87781e-65
6.26583e-65
7.74154e-65
6.88882e-65
6.88829e-65
8.35803e-65
5.80335e-65
7.19557e-65
6.8865e-65
8.3588e-65
5.26356e-65
6.50171e-65
6.26906e-65
7.12043e-65
5.49507e-65
6.3469e-65
)
;

boundaryField
{
    inlet
    {
        type            calculated;
        value           uniform 0;
    }
    outlet
    {
        type            calculated;
        value           nonuniform 0();
    }
    wall
    {
        type            calculated;
        value           uniform 0;
    }
    procBoundary2to0
    {
        type            processor;
        value           nonuniform List<scalar> 
44
(
4.70403e-65
4.23122e-65
4.28277e-65
3.16753e-65
4.33071e-65
7.09968e-65
2.86237e-65
4.40804e-65
3.24644e-65
3.24644e-65
4.71086e-65
8.94789e-65
6.52563e-65
8.18394e-65
5.96854e-65
5.0345e-65
8.04609e-65
6.11021e-65
6.10661e-65
4.71086e-65
8.94789e-65
8.94789e-65
7.10233e-65
7.10173e-65
6.17796e-65
4.59392e-65
7.2736e-65
7.58096e-65
7.6547e-65
8.11368e-65
8.18432e-65
7.10233e-65
7.10173e-65
7.10173e-65
5.41556e-65
2.32571e-65
5.26245e-65
5.88029e-65
7.8125e-65
9.20172e-65
4.48312e-65
9.11988e-65
7.11171e-65
5.41556e-65
)
;
    }
    procBoundary2to3
    {
        type            processor;
        value           nonuniform List<scalar> 
12
(
7.03077e-65
5.21056e-65
5.51085e-65
4.65444e-65
7.55787e-65
6.68279e-65
1.03971e-64
7.75618e-65
7.69401e-65
9.08239e-65
5.1187e-65
8.52908e-65
)
;
    }
    procBoundary2to6
    {
        type            processor;
        value           nonuniform List<scalar> 
32
(
6.74309e-65
6.0406e-65
7.12908e-65
5.11018e-65
5.80887e-65
4.95933e-65
1.03726e-64
7.58534e-65
4.95332e-65
7.42946e-65
9.3639e-65
6.11427e-65
7.35386e-65
6.74309e-65
6.0406e-65
6.506e-65
5.80581e-65
7.8956e-65
6.42469e-65
8.82424e-65
7.04412e-65
7.81902e-65
6.0406e-65
5.11018e-65
7.04666e-65
4.95446e-65
7.19923e-65
5.41888e-65
6.11589e-65
7.58739e-65
5.11018e-65
8.74931e-65
)
;
    }
}


// ************************************************************************* //
