/*--------------------------------*- C++ -*----------------------------------*\
| =========                 |                                                 |
| \\      /  F ield         | OpenFOAM: The Open Source CFD Toolbox           |
|  \\    /   O peration     | Version:  4.x                                   |
|   \\  /    A nd           | Web:      www.OpenFOAM.org                      |
|    \\/     M anipulation  |                                                 |
\*---------------------------------------------------------------------------*/
FoamFile
{
    version     2.0;
    format      ascii;
    class       volVectorField;
    location    "56";
    object      GField;
}
// * * * * * * * * * * * * * * * * * * * * * * * * * * * * * * * * * * * * * //

dimensions      [1 -2 -1 0 0 0 0];

internalField   nonuniform List<vector> 
132
(
(100.162 -1.21461 -4.34216)
(48.9271 -0.741532 -3.05188)
(110.428 -1.37143 -5.15358)
(65.2644 -0.369263 -2.97695)
(119.702 -0.728483 -4.47658)
(77.2447 0.153452 -2.57972)
(127.096 -0.232481 -3.96508)
(86.2092 0.656344 -2.80054)
(134.809 0.218267 -3.84171)
(100.478 -3.31335 -4.9384)
(46.3131 -2.4056 -2.94794)
(107.798 -4.228 -5.41742)
(58.7264 -2.23871 -3.11778)
(115.342 -3.60685 -5.07487)
(68.3222 -1.76847 -2.73571)
(121.501 -3.3086 -4.52024)
(75.5636 -2.57669 -2.7246)
(127.476 -3.51131 -3.98116)
(101.248 -1.93022 -5.50217)
(44.4095 -1.13904 -2.85479)
(106.158 -2.14539 -5.78175)
(54.3198 -1.17702 -3.00051)
(111.078 -1.35049 -5.41655)
(61.5942 -0.35268 -2.78921)
(115.527 -0.918627 -4.75153)
(65.7661 0.0124585 -1.90873)
(117.501 -0.670421 -3.52203)
(100.695 -1.58061 -5.37869)
(44.9554 -0.544559 -2.60888)
(106.604 -1.18469 -5.31529)
(98.9935 -1.76411 -6.84389)
(42.0878 -0.684448 -3.87448)
(102.522 -1.67499 -6.66422)
(48.4978 -0.63392 -3.13864)
(106.225 -1.39588 -4.57824)
(53.4137 -0.197342 -2.12763)
(109.636 -0.926843 -3.20492)
(56.543 0.39124 -1.50355)
(112.728 -0.177821 -1.96507)
(98.5033 -4.2067 -7.69472)
(37.3136 -1.98273 -3.68386)
(99.4871 -4.65779 -7.25719)
(38.0123 -1.82363 -2.93941)
(99.8814 -4.2134 -5.24293)
(36.5932 -1.34303 -1.7993)
(100.662 -3.68034 -3.72197)
(33.8793 -0.982536 -1.05305)
(101.91 -2.88682 -1.89583)
(97.8195 -2.23331 -8.42414)
(33.727 -0.662325 -3.56475)
(97.2934 -1.94325 -8.14385)
(30.4199 -0.518288 -2.79433)
(95.8224 -1.26993 -5.70448)
(24.6894 -0.0105463 -1.55657)
(94.6422 -0.190101 -3.20723)
(16.9643 0.423124 -0.648722)
(94.7859 0.31911 -1.31306)
(96.5473 -0.586454 -8.90109)
(35.0097 -0.255804 -4.15308)
(96.962 -0.604115 -8.70684)
(32.4108 -0.00910944 -3.09589)
(95.9162 -0.125062 -6.32405)
(97.1381 -2.13154 -5.86039)
(40.8858 -0.895261 -3.53504)
(99.5862 -2.11174 -6.10279)
(45.4923 -0.801374 -3.45891)
(102.774 -1.79172 -4.99996)
(49.6467 -0.35774 -3.285)
(106.046 -1.23425 -4.0606)
(52.1832 0.199345 -3.7201)
(109.782 -0.1849 -4.09569)
(96.3949 -4.8207 -6.54302)
(35.644 -2.30041 -3.48998)
(96.2586 -5.58264 -6.5575)
(33.9176 -2.17208 -2.76233)
(96.1403 -4.69565 -4.81727)
(31.4327 -1.51643 -2.45289)
(96.903 -3.33492 -3.94211)
(28.6036 -1.42978 -2.35909)
(99.0069 -2.42436 -3.15579)
(95.3793 -3.20529 -6.81594)
(31.3628 -1.44283 -3.5557)
(93.0216 -3.44182 -7.14177)
(22.7963 -0.908251 -2.43041)
(90.7158 -2.27363 -4.70929)
(15.4836 -0.421758 -1.69435)
(90.1293 -1.18329 -1.79955)
(10.8773 -0.314076 -1.59544)
(90.6912 -1.0998 0.0509867)
(94.7451 -1.1249 -6.49999)
(30.417 -0.586922 -3.45166)
(92.1006 -1.45448 -6.53351)
(21.8863 -0.61782 -1.90327)
(90.7269 -1.5699 -3.80137)
(16.4223 -0.904223 -1.43352)
(91.2442 -1.56401 -2.52555)
(97.032 -2.54178 -4.22536)
(40.3498 -1.11481 -2.70058)
(98.7586 -2.40273 -4.37222)
(43.4745 -0.780896 -2.57974)
(100.211 -1.69001 -3.40538)
(44.4819 -0.587284 -2.36595)
(101.176 -1.46892 -2.67637)
(43.4132 0.0538232 -2.45429)
(101.087 -0.196577 -1.86702)
(95.8539 -5.18838 -4.79913)
(32.7782 -2.55036 -2.49094)
(93.5785 -5.87016 -4.8211)
(26.5362 -2.01654 -1.83383)
(92.0381 -4.55002 -3.24729)
(20.0733 -1.5314 -1.25373)
(90.7358 -2.24795 -2.29192)
(12.5462 -1.16476 -1.03114)
(90.4526 0.100678 -2.18885)
(95.1444 -2.2816 -4.86057)
(28.6959 -0.994393 -2.35157)
(90.1493 -2.11919 -4.14749)
(15.3738 -0.341356 -1.11243)
(86.3958 -0.529825 -2.35739)
(4.29267 -0.0320487 -0.325117)
(83.7978 0.856398 -1.66946)
(5.8706e-05 -1.95126e-06 -1.22351e-05)
(81.0975 0.934236 -0.383789)
(94.9418 -0.428106 -4.41003)
(30.6804 0.127622 -2.52761)
(90.9772 0.578673 -4.46094)
(20.7402 0.438339 -1.69019)
(89.7684 0.937576 -3.58272)
(14.7764 0.479722 -1.38391)
(89.36 -0.0552603 -2.6991)
(11.1032 0.61519 -1.30354)
(89.2187 -0.0579981 -1.30849)
)
;

boundaryField
{
    inlet
    {
        type            calculated;
        value           uniform (67 0 0);
    }
    outlet
    {
        type            calculated;
        value           nonuniform 0();
    }
    wall
    {
        type            calculated;
        value           uniform (0 0 0);
    }
    procBoundary0to1
    {
        type            processor;
        value           nonuniform List<vector> 
12
(
(93.1753 1.90572 -3.14166)
(80.2736 -2.61248 -3.02983)
(66.0128 0.466949 -2.26273)
(57.9158 1.31988 -1.03169)
(30.7485 -1.0498 -0.494144)
(8.66896 0.421489 -0.56544)
(52.8331 1.43006 -4.6216)
(27.9951 -2.18741 -3.0565)
(6.13634 -0.346416 -1.34617)
(37.1255 0.497577 -1.39128)
(5.78884 -0.865358 -0.544272)
(6.65276e-05 -6.35993e-06 -2.04632e-05)
)
;
    }
    procBoundary0to2
    {
        type            processor;
        value           nonuniform List<vector> 
44
(
(55.3937 -0.62627 -2.6814)
(111.677 -1.05747 -5.03236)
(64.0312 -0.71814 -2.40827)
(117.227 -1.13765 -3.70638)
(69.7198 -0.374471 -1.39495)
(122.713 -0.839616 -2.3705)
(99.1262 0.176089 -4.31836)
(41.814 0.0519401 -2.44882)
(55.3937 -0.62627 -2.6814)
(103.511 0.465592 -5.09481)
(55.3937 -0.62627 -2.6814)
(111.677 -1.05747 -5.03236)
(27.3847 0.0353495 -1.96797)
(95.9189 -0.185092 -3.95735)
(23.9275 0.212194 -1.44931)
(98.2527 0.16753 -2.2471)
(97.4554 1.20148 -8.04411)
(34.0655 0.266222 -3.85741)
(96.385 1.26474 -8.49954)
(28.9535 0.664995 -3.13048)
(27.3847 0.0353495 -1.96797)
(94.8587 1.60678 -6.42511)
(27.3847 0.0353495 -1.96797)
(95.9189 -0.185092 -3.95735)
(14.3826 -1.03611 -1.56883)
(92.4815 -0.293756 -2.03924)
(95.3845 1.19403 -6.68295)
(30.9468 0.156095 -3.16786)
(92.0587 0.410844 -5.98221)
(20.4656 -0.0277589 -1.77015)
(89.2344 -0.431425 -3.64508)
(10.169 -0.283618 -0.813828)
(14.3826 -1.03611 -1.56883)
(87.0252 -1.76173 -1.52144)
(14.3826 -1.03611 -1.56883)
(92.4815 -0.293756 -2.03924)
(94.6662 1.83022 -5.59419)
(29.0586 0.977932 -2.27077)
(90.3102 2.52563 -4.44818)
(18.9989 0.663485 -1.54696)
(88.26 2.00735 -2.3579)
(11.2864 0.460673 -0.804359)
(87.3542 1.53824 -0.219939)
(4.79296 0.25869 -0.490376)
)
;
    }
    procBoundary0to4
    {
        type            processor;
        value           nonuniform List<vector> 
36
(
(96.0966 -2.81071 -1.81043)
(41.0086 -1.25807 -1.16184)
(97.463 -2.9178 -1.7261)
(43.7498 -1.15256 -1.30386)
(99.3224 -2.14553 -0.856214)
(45.6428 -0.602305 -0.934479)
(100.952 -1.48481 -0.687518)
(46.113 -0.567172 -0.913649)
(102.755 -1.44331 0.626987)
(94.328 -5.42673 -1.48373)
(33.6082 -2.5948 -0.776978)
(92.2084 -5.62673 -1.09929)
(26.6572 -1.96661 -0.750962)
(90.9875 -4.19257 -0.383815)
(21.9401 -1.42757 -0.433692)
(91.2785 -3.15747 0.0362017)
(17.4662 -1.33928 -0.396769)
(91.7612 -1.88433 0.836881)
(94.1218 -2.85274 -1.33994)
(29.8475 -1.5462 -0.616095)
(89.602 -3.14709 -0.587438)
(19.2853 -1.01684 -0.185963)
(87.6511 -2.71625 0.142148)
(11.7304 -0.704301 0.141728)
(87.3519 -1.64939 -0.583703)
(4.06403 -0.260307 0.163953)
(87.5822 -0.0924799 -0.668115)
(94.4393 -1.95 -2.18428)
(30.3415 -0.524206 -0.841973)
(89.4877 -1.80651 -1.61623)
(19.2613 -0.746623 -0.793292)
(86.9549 -1.46062 -1.22367)
(9.67884 -0.514887 -0.272121)
(85.4727 0.175517 -0.82241)
(2.52261 -0.223935 -0.0536537)
(85.0797 -0.122127 0.272067)
)
;
    }
    procBoundary0to6
    {
        type            processor;
        value           uniform (87.3216 1.85525 -0.633354);
    }
    procBoundary0to7
    {
        type            processor;
        value           uniform (6.22174 0.716097 -1.04432);
    }
}


// ************************************************************************* //
