/*--------------------------------*- C++ -*----------------------------------*\
| =========                 |                                                 |
| \\      /  F ield         | OpenFOAM: The Open Source CFD Toolbox           |
|  \\    /   O peration     | Version:  4.x                                   |
|   \\  /    A nd           | Web:      www.OpenFOAM.org                      |
|    \\/     M anipulation  |                                                 |
\*---------------------------------------------------------------------------*/
FoamFile
{
    version     2.0;
    format      ascii;
    class       volScalarField;
    location    "56";
    object      Qsource;
}
// * * * * * * * * * * * * * * * * * * * * * * * * * * * * * * * * * * * * * //

dimensions      [1 -1 -3 0 0 0 0];

internalField   nonuniform List<scalar> 
132
(
6.89268e+09
5.22133e+09
5.54715e+09
4.17686e+09
6.28966e+09
5.8737e+09
7.945e+09
5.45749e+09
6.75628e+09
5.50646e+09
5.56373e+09
6.43151e+09
6.15301e+09
4.79615e+09
7.34354e+09
6.31267e+09
6.47749e+09
6.28654e+09
3.11675e+09
6.32054e+09
6.64226e+09
5.58831e+09
6.49312e+09
5.46989e+09
4.93882e+09
5.78216e+09
9.47991e+09
3.83657e+09
4.98401e+09
4.40715e+09
5.11484e+09
7.40265e+09
9.50776e+09
8.04878e+09
8.64096e+09
8.11632e+09
8.03908e+09
7.31709e+09
8.29762e+09
4.98168e+09
9.45807e+09
8.0153e+09
8.4987e+09
9.60261e+09
8.61413e+09
9.20157e+09
9.19852e+09
9.07427e+09
5.30106e+09
9.44929e+09
8.40809e+09
7.53132e+09
9.07266e+09
6.74195e+09
1.05187e+10
6.89839e+09
6.35062e+09
7.96264e+09
7.03854e+09
7.79488e+09
5.51122e+09
1.13157e+10
6.42e+09
7.38934e+09
8.98884e+09
7.42427e+09
8.36354e+09
6.16011e+09
8.95362e+09
7.57573e+09
6.34034e+09
6.24705e+09
8.28173e+09
7.98769e+09
6.9234e+09
9.27839e+09
6.71941e+09
9.45438e+09
1.01878e+10
1.00523e+10
6.70857e+09
7.20593e+09
8.09134e+09
9.29961e+09
9.8313e+09
8.07188e+09
9.20177e+09
6.42248e+09
5.39535e+09
6.9047e+09
8.67105e+09
9.57344e+09
9.00031e+09
9.97529e+09
8.04481e+09
8.77981e+09
5.18719e+09
5.40226e+09
7.61369e+09
5.62477e+09
7.93906e+09
8.21866e+09
6.7636e+09
4.76757e+09
6.90237e+09
5.13614e+09
9.5962e+09
9.09138e+09
8.08464e+09
7.19804e+09
6.62359e+09
1.04285e+10
7.18045e+09
6.93074e+09
5.18844e+09
5.58514e+09
9.05329e+09
6.10243e+09
8.69627e+09
8.40712e+09
8.24833e+09
4.94906e+09
9.33828e+09
4.82852e+09
6.73982e+09
9.84272e+09
1.02559e+10
5.52582e+09
9.88301e+09
8.59251e+09
5.62067e+09
2.62628e+09
)
;

boundaryField
{
    inlet
    {
        type            calculated;
        value           uniform 0;
    }
    outlet
    {
        type            calculated;
        value           nonuniform 0();
    }
    wall
    {
        type            calculated;
        value           uniform 0;
    }
    procBoundary0to1
    {
        type            processor;
        value           nonuniform List<scalar> 
12
(
3.44895e+09
5.2461e+09
4.55833e+09
7.87951e+09
9.10755e+09
8.98335e+09
7.62271e+09
6.57082e+09
8.19133e+09
6.85262e+09
7.85581e+09
5.90254e+09
)
;
    }
    procBoundary0to2
    {
        type            processor;
        value           nonuniform List<scalar> 
44
(
7.66887e+09
6.52678e+09
3.65126e+09
6.94281e+09
4.27608e+09
5.59994e+09
6.66336e+09
7.35761e+09
7.66887e+09
7.01069e+09
7.66887e+09
6.52678e+09
9.84945e+09
1.23044e+10
6.61581e+09
1.12335e+10
4.73213e+09
7.93711e+09
9.59123e+09
9.17238e+09
9.84945e+09
8.87823e+09
9.84945e+09
1.23044e+10
8.07953e+09
9.30955e+09
6.86037e+09
5.73292e+09
6.74274e+09
6.84632e+09
6.7473e+09
7.6444e+09
8.07953e+09
9.80726e+09
8.07953e+09
9.30955e+09
4.8978e+09
9.48886e+09
1.03019e+10
7.1591e+09
8.2401e+09
6.28264e+09
7.5897e+09
7.53922e+09
)
;
    }
    procBoundary0to4
    {
        type            processor;
        value           nonuniform List<scalar> 
36
(
5.75058e+09
7.52826e+09
9.26281e+09
6.42221e+09
8.00665e+09
6.45126e+09
9.80535e+09
7.33654e+09
1.05281e+10
7.01782e+09
7.30029e+09
9.38917e+09
1.00447e+10
1.01162e+10
8.59772e+09
8.14496e+09
5.78473e+09
1.11146e+10
6.6886e+09
1.02815e+10
8.31668e+09
9.38016e+09
8.12952e+09
6.31257e+09
7.31513e+09
1.03062e+10
6.7483e+09
3.4592e+09
6.73882e+09
9.40934e+09
5.72774e+09
8.82614e+09
6.72253e+09
1.10655e+10
6.03776e+09
7.08851e+09
)
;
    }
    procBoundary0to6
    {
        type            processor;
        value           uniform 8.12227e+09;
    }
    procBoundary0to7
    {
        type            processor;
        value           uniform 1.02029e+10;
    }
}


// ************************************************************************* //
