/*--------------------------------*- C++ -*----------------------------------*\
| =========                 |                                                 |
| \\      /  F ield         | OpenFOAM: The Open Source CFD Toolbox           |
|  \\    /   O peration     | Version:  4.x                                   |
|   \\  /    A nd           | Web:      www.OpenFOAM.org                      |
|    \\/     M anipulation  |                                                 |
\*---------------------------------------------------------------------------*/
FoamFile
{
    version     2.0;
    format      ascii;
    class       volScalarField;
    location    "43";
    object      magGField;
}
// * * * * * * * * * * * * * * * * * * * * * * * * * * * * * * * * * * * * * //

dimensions      [1 -2 -1 0 0 0 0];

internalField   nonuniform List<scalar> 
132
(
0.892036
87.6546
0.937078
87.7751
4.45124e-05
85.0195
3.93025e-05
73.405
11.8492
4.47053e-05
86.3955
4.64906e-05
84.6503
2.47796
81.5174
15.2552
73.5756
42.5784
24.9989
98.2087
24.6889
102.491
25.9189
107.654
28.4684
115.613
35.4185
49.4027
108.009
47.5321
111.258
44.0879
115.048
37.4671
122.35
33.4623
4.29136e-05
84.2451
3.80744e-05
82.9749
3.29473e-05
74.4666
19.715
4.07944e-05
82.5584
4.25636e-05
83.6481
3.99605e-05
84.6616
3.57226e-05
83.134
10.2433
4.08071e-05
84.6384
3.88678e-05
81.8569
3.78092e-05
74.5396
3.50437e-05
59.0886
12.1964
32.1645
93.6082
22.4709
89.7615
11.3072
82.0806
5.04581
67.0467
13.4076
6.80301
91.471
14.3886
86.7658
42.6233
0.857236
86.6037
4.16413e-05
85.9195
0.0679019
83.17
7.66033
76.4298
37.5322
20.0992
93.8603
18.3694
98.9075
19.6957
107.849
24.1457
125.04
37.6536
49.724
104.376
47.4409
106.091
43.5168
110.7
35.4315
122.925
28.2803
35.1765
124.121
32.573
36.645
97.9069
33.4107
98.5347
30.9759
100.756
26.9269
104.023
18.2233
47.6815
103.126
45.1726
104.183
40.2775
106.053
33.3263
110.105
19.8731
61.8378
109.603
59.5321
109.057
54.8648
105.641
50.209
95.341
51.238
)
;

boundaryField
{
    inlet
    {
        type            calculated;
        value           nonuniform 0();
    }
    outlet
    {
        type            calculated;
        value           nonuniform List<scalar> 
16
(
26.2732
94.3516
78.3404
72.8444
43.8405
22.7141
27.1015
29.394
94.4993
83.517
83.6936
62.2611
72.0076
40.2105
43.9461
111.527
)
;
    }
    wall
    {
        type            calculated;
        value           uniform 0;
    }
    procBoundary7to0
    {
        type            processor;
        value           uniform 87.8726;
    }
    procBoundary7to1
    {
        type            processor;
        value           uniform 3.71489e-05;
    }
    procBoundary7to3
    {
        type            processor;
        value           nonuniform List<scalar> 
36
(
10.4649
92.9235
7.90711
93.3168
8.63294
92.1091
13.1505
84.8586
35.9244
4.19517e-05
85.5744
4.55608e-05
84.9502
4.03128e-05
82.9758
3.6084e-05
71.6733
10.0987
6.41034
92.699
2.60887
95.155
6.73767
97.2399
20.9227
94.8954
54.7003
45.9882
106.59
43.2281
108.489
37.8606
113.195
32.6421
131.556
29.4247
)
;
    }
    procBoundary7to5
    {
        type            processor;
        value           nonuniform List<scalar> 
44
(
79.5465
4.35938e-05
78.1521
4.22344e-05
75.2806
3.92402e-05
64.7281
20.199
3.99395e-05
84.0671
4.37156e-05
88.3908
2.51302
90.341
9.9656
86.0437
24.2541
3.99395e-05
84.0671
84.0671
4.02437
90.477
3.77844e-05
82.4897
8.75473
75.2845
41.9725
6.45412
89.0215
4.02437
90.477
90.477
37.1321
110.195
41.3992
134.957
40.4028
42.3524
102.137
40.4826
104.9
37.1321
110.195
110.195
)
;
    }
    procBoundary7to6
    {
        type            processor;
        value           nonuniform List<scalar> 
12
(
87.4936
95.2021
105.32
81.7579
86.1559
95.6423
86.5595
91.6198
102.828
97.2316
101.324
109.099
)
;
    }
}


// ************************************************************************* //
