/*--------------------------------*- C++ -*----------------------------------*\
| =========                 |                                                 |
| \\      /  F ield         | OpenFOAM: The Open Source CFD Toolbox           |
|  \\    /   O peration     | Version:  4.x                                   |
|   \\  /    A nd           | Web:      www.OpenFOAM.org                      |
|    \\/     M anipulation  |                                                 |
\*---------------------------------------------------------------------------*/
FoamFile
{
    version     2.0;
    format      ascii;
    class       volScalarField;
    location    "43";
    object      QPartFluidCoeff;
}
// * * * * * * * * * * * * * * * * * * * * * * * * * * * * * * * * * * * * * //

dimensions      [1 -1 -3 -1 0 0 0];

internalField   nonuniform List<scalar> 
132
(
-3.34265e+07
-3.04677e+07
-2.1452e+07
-2.65892e+07
-3.70025e+07
-4.17364e+07
-2.66615e+07
-2.17591e+07
-2.04461e+07
-2.48874e+07
-3.80795e+07
-2.47644e+07
-2.72126e+07
-2.79323e+07
-2.31826e+07
-2.63096e+07
-2.55905e+07
-2.27929e+07
-1.76932e+07
-3.15102e+07
-2.319e+07
-3.00545e+07
-2.80168e+07
-3.5223e+07
-2.89813e+07
-3.0621e+07
-2.31895e+07
-2.35795e+07
-2.51191e+07
-2.99244e+07
-1.9968e+07
-2.64865e+07
-2.69049e+07
-2.68921e+07
-2.35841e+07
-1.22471e+07
-2.18309e+07
-2.88279e+07
-2.33304e+07
-2.74041e+07
-2.94316e+07
-3.30281e+07
-2.03919e+07
-1.28215e+07
-3.36838e+07
-2.44133e+07
-2.95935e+07
-2.88271e+07
-2.77224e+07
-1.89792e+07
-3.02208e+07
-1.53183e+07
-2.00227e+07
-3.37833e+07
-2.50853e+07
-2.43452e+07
-2.73089e+07
-3.49801e+07
-3.16154e+07
-2.78033e+07
-2.0661e+07
-2.23455e+07
-2.87802e+07
-2.00167e+07
-2.66809e+07
-2.2944e+07
-2.2033e+07
-1.9568e+07
-2.81209e+07
-1.37362e+07
-1.67738e+07
-2.4305e+07
-2.76108e+07
-2.55968e+07
-1.55972e+07
-2.85469e+07
-3.05296e+07
-2.36284e+07
-2.17753e+07
-3.05203e+07
-2.95448e+07
-2.61973e+07
-3.60009e+07
-2.31439e+07
-2.72824e+07
-3.16659e+07
-2.87276e+07
-3.00634e+07
-3.09232e+07
-3.31237e+07
-2.96209e+07
-3.12219e+07
-2.29003e+07
-2.01035e+07
-2.4433e+07
-2.39742e+07
-2.70416e+07
-2.15039e+07
-2.27697e+07
-2.70565e+07
-2.75517e+07
-1.7081e+07
-1.96344e+07
-2.70779e+07
-1.62386e+07
-2.44354e+07
-2.34297e+07
-2.5247e+07
-2.90012e+07
-1.75205e+07
-1.66004e+07
-2.35012e+07
-2.63499e+07
-1.46668e+07
-2.11242e+07
-2.26638e+07
-2.11761e+07
-2.60151e+07
-2.45001e+07
-2.39628e+07
-2.53392e+07
-2.57695e+07
-1.98948e+07
-2.03111e+07
-2.76256e+07
-1.96706e+07
-2.38513e+07
-2.43598e+07
-2.33022e+07
-2.16206e+07
-2.34738e+07
-1.19884e+07
)
;

boundaryField
{
    inlet
    {
        type            calculated;
        value           nonuniform 0();
    }
    outlet
    {
        type            calculated;
        value           uniform 0;
    }
    wall
    {
        type            calculated;
        value           uniform 0;
    }
    procBoundary7to0
    {
        type            processor;
        value           uniform 197.444;
    }
    procBoundary7to1
    {
        type            processor;
        value           uniform 445.361;
    }
    procBoundary7to3
    {
        type            processor;
        value           nonuniform List<scalar> 
36
(
622.16
832.816
698.211
783.322
499.209
592.066
690.853
637.829
526.42
721.812
464.506
616.057
379.078
330.868
712.564
575.747
800.103
385.715
456.842
780.625
696.801
551.144
562.309
757.314
615.597
706.834
383.633
663.803
368.903
438.588
528.658
488.625
651.81
483.325
726.692
572.941
)
;
    }
    procBoundary7to5
    {
        type            processor;
        value           nonuniform List<scalar> 
44
(
752.368
464.483
658.738
444.722
401.846
563.648
472.264
502.48
775.978
383.146
550.732
690.01
469.019
639.031
554.757
616.051
342.121
775.978
383.146
383.146
722.638
754.321
859.48
701.751
687.175
833.402
628.359
400.947
886.964
722.638
754.321
754.321
787.63
646.897
533.255
624.043
490.386
543.853
490.128
554.471
509.852
787.63
646.897
646.897
)
;
    }
    procBoundary7to6
    {
        type            processor;
        value           nonuniform List<scalar> 
12
(
612.576
677.32
424.941
752.753
709.798
662.945
723.414
754.147
519.949
343.664
640.978
543.471
)
;
    }
}


// ************************************************************************* //
