/*--------------------------------*- C++ -*----------------------------------*\
| =========                 |                                                 |
| \\      /  F ield         | OpenFOAM: The Open Source CFD Toolbox           |
|  \\    /   O peration     | Version:  4.x                                   |
|   \\  /    A nd           | Web:      www.OpenFOAM.org                      |
|    \\/     M anipulation  |                                                 |
\*---------------------------------------------------------------------------*/
FoamFile
{
    version     2.0;
    format      ascii;
    class       volVectorField;
    location    "43";
    object      U;
}
// * * * * * * * * * * * * * * * * * * * * * * * * * * * * * * * * * * * * * //

dimensions      [0 1 -1 0 0 0 0];

internalField   nonuniform List<vector> 
132
(
(0.000284201 3.41742e-05 -5.92515e-05)
(0.0287366 0.000318496 -4.19789e-05)
(0.000284895 6.39213e-05 -9.41528e-05)
(0.0288343 0.000481533 3.10554e-05)
(1.4008e-08 1.96676e-09 -4.46761e-09)
(0.0282591 0.000769878 0.000778307)
(1.0491e-08 3.45849e-09 -7.12753e-09)
(0.023879 -0.00124068 0.00348177)
(0.00332859 0.00135679 -0.00156738)
(1.46295e-08 5.78856e-10 -2.94874e-10)
(0.0284118 0.000103972 -6.43916e-05)
(1.53693e-08 8.40583e-10 -6.50504e-10)
(0.027751 4.94953e-05 0.000319583)
(0.000771208 0.000260733 -8.13527e-05)
(0.0268371 -0.000419945 0.000959698)
(0.00439827 0.00245511 -0.00026812)
(0.0240588 -0.00267841 0.00170453)
(0.00953555 0.0102879 0.00124217)
(0.00799718 0.000703948 -0.000700771)
(0.0320243 0.000392359 -0.000207309)
(0.00790934 0.0010236 -0.00112518)
(0.0334967 -0.000132272 -0.000602411)
(0.00805357 0.00194875 -0.00200203)
(0.0355222 -0.0018094 -0.000562775)
(0.00782227 0.00387483 -0.00351313)
(0.0377285 -0.00511453 0.00187042)
(0.0055373 0.00900969 -0.00498814)
(0.0158666 -0.000464424 -0.00121959)
(0.0349869 -0.000358832 -0.000986663)
(0.0154019 -0.0007005 -0.00173591)
(0.036139 -0.000653479 -0.000916628)
(0.0141343 -0.000846211 -0.00279725)
(0.0377607 -0.000654159 -0.00024568)
(0.0113245 -0.000702747 -0.00485366)
(0.0399526 -4.40851e-05 0.00273014)
(0.00597355 3.0724e-05 -0.009084)
(1.39853e-08 -2.27009e-09 4.97103e-10)
(0.0278692 -0.000354325 0.000407351)
(1.24933e-08 -2.39974e-09 6.07326e-10)
(0.0275623 -0.00021131 0.000934748)
(1.08812e-08 -1.99241e-09 -5.839e-10)
(0.0247302 0.00179836 0.00110254)
(0.0061791 -0.00139944 0.00163566)
(1.34004e-08 -7.22624e-11 4.21658e-12)
(0.0272256 -8.28465e-05 5.06985e-05)
(1.41063e-08 -3.58995e-10 -3.4583e-10)
(0.0276643 -2.9807e-05 -2.34884e-05)
(1.35544e-08 4.18185e-10 2.42783e-12)
(0.0281234 0.000340425 4.12531e-05)
(1.18257e-08 6.45887e-10 -1.53271e-09)
(0.0276475 0.000760351 0.000432136)
(0.00334131 -0.000538938 0.000195398)
(1.33024e-08 6.09948e-10 -1.10145e-09)
(0.0278261 -0.000559529 -0.0001691)
(1.28906e-08 7.90791e-10 -1.16092e-09)
(0.0269152 -0.000641495 0.000150196)
(1.28108e-08 2.00805e-09 -1.41935e-09)
(0.0248259 -0.000107188 0.000743186)
(1.14847e-08 1.15658e-09 -1.73333e-09)
(0.0195457 0.00025216 0.001721)
(0.00399523 -0.000623745 9.96522e-05)
(0.0104175 -1.00814e-05 -0.000784366)
(0.0306538 -0.000599036 -0.000393922)
(0.00729771 -5.16356e-05 -0.000908787)
(0.0294769 -0.000862718 -0.000254874)
(0.00366703 6.11362e-05 -0.000682549)
(0.027069 -0.000427268 0.000291575)
(0.00161106 6.43163e-05 -0.000432837)
(0.0221148 2.83015e-05 0.00169439)
(0.00436379 0.000313471 0.000322798)
(0.00216098 -0.000130578 0.00062587)
(0.030335 7.57068e-05 3.6942e-05)
(0.00423793 -0.00029426 0.00221485)
(0.0287147 -9.62819e-05 -0.0023388)
(0.00905499 -0.0008285 0.0107821)
(0.000279587 2.26455e-06 3.18426e-05)
(0.028558 8.28594e-05 -4.45053e-05)
(1.35043e-08 6.12202e-10 2.25245e-09)
(0.0283377 -0.000201107 0.000204216)
(2.19126e-05 1.73451e-06 5.35922e-06)
(0.0275979 -0.000649873 0.000377268)
(0.00235226 0.0006182 0.000764171)
(0.025379 -0.00236983 -0.00103441)
(0.00911459 0.00669476 0.00524283)
(0.00655717 0.000298096 0.000123817)
(0.0308466 9.85096e-05 -3.64094e-05)
(0.00604097 0.000347892 0.0002314)
(0.0326303 -0.000296705 -0.000181221)
(0.00643468 0.000795688 0.000845077)
(0.0357885 -0.00181938 -0.000262839)
(0.00747679 0.00195726 0.00222322)
(0.0412318 -0.00446387 -0.00226678)
(0.00667193 0.00694503 0.0079558)
(0.0161215 -1.7559e-06 7.08129e-05)
(0.034114 -6.55805e-05 0.000433401)
(0.0155654 -0.000340009 0.000257107)
(0.0348833 -0.000534294 0.000514576)
(0.0142841 -0.0008457 0.00070921)
(0.0364194 -0.000859861 0.000387316)
(0.0115764 -0.0014973 0.00131685)
(0.0406067 -0.000453245 -0.000870692)
(0.00665447 -0.00158633 0.00628952)
(0.0111282 -0.0029062 0.00170392)
(0.0409771 0.00126024 -0.00193444)
(0.00722295 -0.00562667 0.00562842)
(0.0119626 -0.000265633 0.000216914)
(0.0320579 -0.000196114 2.79978e-05)
(0.0110239 -0.000476009 0.000208997)
(0.032565 -0.000321179 -0.000177141)
(0.0101545 -0.000812703 0.000693834)
(0.0330529 -0.000430098 -0.00126973)
(0.00872219 -0.00143392 0.0011305)
(0.0342763 1.90132e-05 -0.00316205)
(0.00509314 -0.00193611 0.00251591)
(0.0155129 6.37086e-05 -0.000118532)
(0.0336917 -2.75406e-05 -0.000130896)
(0.0147956 -0.000103022 -0.000581589)
(0.034232 -0.000413424 -0.000711402)
(0.0132279 -0.000514182 -0.00119716)
(0.0349683 -0.000628398 -0.00109417)
(0.01075 -0.000969999 -0.00232656)
(0.0363565 -0.00035387 -0.000644119)
(0.00587801 -0.00172221 -0.00234691)
(0.0200468 -0.000228783 -0.000367127)
(0.0358397 -0.000207377 -0.000287031)
(0.0194176 -0.000401215 -0.000698631)
(0.0356825 -0.000340095 -0.000556384)
(0.0179687 -0.000877877 -0.00136455)
(0.0347812 -0.000186374 -0.000500546)
(0.0161815 -0.00185607 -0.00301613)
(0.0312941 0.000912985 0.000544394)
(0.0151049 -0.00498699 -0.00490554)
)
;

boundaryField
{
    inlet
    {
        type            fixedValue;
        value           nonuniform 0();
    }
    outlet
    {
        type            zeroGradient;
    }
    wall
    {
        type            fixedValue;
        value           uniform (0 0 0);
    }
    procBoundary7to0
    {
        type            processor;
        value           uniform (0.0281224 -9.9218e-05 -0.000175206);
    }
    procBoundary7to1
    {
        type            processor;
        value           uniform (1.20132e-08 1.55102e-10 1.08487e-09);
    }
    procBoundary7to3
    {
        type            processor;
        value           nonuniform List<vector> 
36
(
(0.0032989 -0.000295149 -0.000686251)
(0.030172 -0.00012267 -5.98534e-05)
(0.00245005 -0.000346638 -0.000704553)
(0.0303639 -0.00037907 0.000367905)
(0.0024743 -0.000666047 -0.0011288)
(0.0299302 -0.000552797 0.00130367)
(0.00338172 -0.00137644 -0.00227753)
(0.0273624 0.000954658 0.00402437)
(0.00747179 -0.00383326 -0.0081319)
(1.3597e-08 -2.24522e-09 3.96014e-10)
(0.0275785 -0.000177175 0.000470164)
(1.4604e-08 -3.24955e-09 -1.19002e-10)
(0.0273179 0.000150989 0.000763066)
(1.27965e-08 -2.21081e-09 -2.65138e-09)
(0.0269306 0.000719594 0.00208244)
(1.07846e-08 -5.21044e-10 -5.09961e-09)
(0.023289 0.000692918 0.00281231)
(0.00325404 0.000136567 -0.000417607)
(0.00204156 0.000174798 -0.000121745)
(0.0299037 -0.000125991 -9.87472e-05)
(0.000831183 0.000117985 -8.64892e-05)
(0.0306331 -0.000227066 0.000389705)
(0.00205976 0.000580872 -0.000408202)
(0.0316373 -0.000188014 0.00125954)
(0.00574239 0.00305762 -0.00200603)
(0.0306775 -0.00202463 0.00327834)
(0.0102847 0.0126619 -0.00695665)
(0.0147187 -3.54488e-05 -0.000780715)
(0.033905 -0.000133278 -0.000384177)
(0.0137949 -0.000292203 -0.000924784)
(0.0347799 -0.00102107 5.12344e-05)
(0.0120995 -0.000179442 -0.00142702)
(0.0366218 -0.00140342 0.000796116)
(0.0102971 0.000614289 -0.00234223)
(0.0427081 -0.00153646 0.00266174)
(0.0067094 0.00461521 -0.00503717)
)
;
    }
    procBoundary7to5
    {
        type            processor;
        value           nonuniform List<vector> 
44
(
(0.0259471 0.000698747 9.46472e-05)
(1.41797e-08 1.79788e-10 1.1126e-09)
(0.0255789 0.00038653 0.000380817)
(1.36633e-08 -1.43557e-09 -1.727e-09)
(0.0246222 -0.000319966 0.000842216)
(1.25111e-08 -1.85382e-10 -3.41999e-09)
(0.0211457 -0.00135756 0.00138454)
(0.0066392 0.00015469 -0.000417435)
(1.31769e-08 -1.04149e-09 6.856e-10)
(0.0274786 -0.000199917 -0.000141636)
(1.36918e-08 -2.27002e-09 3.79392e-09)
(0.0291742 0.000256561 0.000318438)
(0.000753734 -0.000255836 0.000236565)
(0.0299247 7.84414e-05 0.000774267)
(0.00280175 -0.00127399 0.0012144)
(0.0284496 0.00207418 -0.000689086)
(0.00654477 -0.00328983 0.00322806)
(1.31769e-08 -1.04149e-09 6.856e-10)
(0.0274786 -0.000199917 -0.000141636)
(0.0274786 -0.000199917 -0.000141636)
(0.00131698 -5.22566e-05 0.000224397)
(0.0300288 0.000106386 -8.91723e-05)
(1.25271e-08 -1.19745e-09 1.73969e-09)
(0.0274694 0.000714137 -0.000269601)
(0.00268941 -0.000461089 0.00104908)
(0.025072 0.000752601 -0.00169609)
(0.00900387 -0.00339587 0.0101322)
(0.00209787 -7.98563e-05 0.000189091)
(0.0294324 0.000285174 -8.942e-06)
(0.00131698 -5.22566e-05 0.000224397)
(0.0300288 0.000106386 -8.91723e-05)
(0.0300288 0.000106386 -8.91723e-05)
(0.0123074 -0.00140104 0.000581021)
(0.0366303 -0.00026055 -0.000804778)
(0.0130066 -0.00177462 0.0039796)
(0.0445213 0.00151203 -0.00400026)
(0.00808854 -0.00263403 0.0103229)
(0.0138376 -0.000579848 0.000270203)
(0.0334648 -0.000412408 0.000201661)
(0.0133527 -0.000862209 0.000272186)
(0.0346562 -0.000482784 -0.000395575)
(0.0123074 -0.00140104 0.000581021)
(0.0366303 -0.00026055 -0.000804778)
(0.0366303 -0.00026055 -0.000804778)
)
;
    }
    procBoundary7to6
    {
        type            processor;
        value           nonuniform List<vector> 
12
(
(0.028261 0.000521285 8.54722e-06)
(0.0306995 0.000844217 -0.000371007)
(0.0336701 -4.556e-05 -0.000783259)
(0.0267119 -0.000453317 -0.000109698)
(0.0280712 -0.00023394 -0.000403955)
(0.031006 9.61636e-05 -0.000436806)
(0.0283199 6.71193e-05 -9.04218e-06)
(0.0298835 0.000717319 0.000404108)
(0.0332267 0.000285015 0.000355566)
(0.0314696 -0.000232516 0.000621347)
(0.0329765 0.000207538 0.000238908)
(0.0352239 3.42696e-05 -2.71138e-05)
)
;
    }
}


// ************************************************************************* //
