/*--------------------------------*- C++ -*----------------------------------*\
| =========                 |                                                 |
| \\      /  F ield         | OpenFOAM: The Open Source CFD Toolbox           |
|  \\    /   O peration     | Version:  4.x                                   |
|   \\  /    A nd           | Web:      www.OpenFOAM.org                      |
|    \\/     M anipulation  |                                                 |
\*---------------------------------------------------------------------------*/
FoamFile
{
    version     2.0;
    format      ascii;
    class       volScalarField;
    location    "27.5";
    object      SPartFluid;
}
// * * * * * * * * * * * * * * * * * * * * * * * * * * * * * * * * * * * * * //

dimensions      [1 -3 -1 0 0 0 0];

internalField   nonuniform List<scalar> 
114
(
6.51003e-65
4.88251e-65
2.55749e-65
4.88248e-65
3.02247e-65
4.10746e-65
5.73507e-65
6.51006e-65
5.11504e-65
3.79752e-65
6.20002e-65
4.41749e-65
5.88998e-65
6.12246e-65
3.95247e-65
4.03005e-65
5.65756e-65
4.57254e-65
4.96003e-65
4.49502e-65
4.57251e-65
5.3475e-65
4.41749e-65
5.26998e-65
4.41756e-65
4.26255e-65
4.65005e-65
4.57254e-65
3.33253e-65
3.79752e-65
2.71251e-65
4.80501e-65
3.10001e-65
8.44746e-65
9.76492e-65
5.73493e-65
9.22237e-65
5.42506e-65
6.82006e-65
7.67254e-65
7.82752e-65
6.975e-65
6.27748e-65
8.98995e-65
7.59493e-65
5.19245e-65
6.04507e-65
8.60258e-65
8.29256e-65
7.59504e-65
7.44002e-65
7.28501e-65
7.05248e-65
7.43997e-65
5.96746e-65
5.89007e-65
5.19256e-65
6.97506e-65
5.81254e-65
6.89754e-65
5.89002e-65
5.89001e-65
6.51e-65
4.2625e-65
7.59489e-65
8.13737e-65
7.28508e-65
4.96004e-65
5.50253e-65
6.12252e-65
5.58e-65
7.12997e-65
8.36995e-65
6.58743e-65
4.88244e-65
5.34756e-65
6.04506e-65
7.13005e-65
9.06754e-65
7.28501e-65
6.43249e-65
7.51747e-65
7.43996e-65
8.36994e-65
5.34756e-65
7.51758e-65
6.04505e-65
6.97504e-65
4.65002e-65
6.51002e-65
8.29251e-65
4.95999e-65
6.66499e-65
4.80505e-65
8.13757e-65
8.37005e-65
6.51002e-65
6.82e-65
5.88998e-65
6.27746e-65
7.74993e-65
6.89758e-65
6.89757e-65
8.37006e-65
5.81253e-65
7.20751e-65
6.89749e-65
8.36998e-65
5.27006e-65
6.51007e-65
6.27755e-65
7.13004e-65
5.50252e-65
6.35502e-65
)
;

boundaryField
{
    inlet
    {
        type            calculated;
        value           uniform 0;
    }
    outlet
    {
        type            calculated;
        value           nonuniform 0();
    }
    wall
    {
        type            calculated;
        value           uniform 0;
    }
    procBoundary2to0
    {
        type            processor;
        value           nonuniform List<scalar> 
44
(
4.72752e-65
4.26251e-65
4.33999e-65
3.25498e-65
4.49496e-65
6.89743e-65
2.86754e-65
4.41754e-65
3.25503e-65
3.25503e-65
4.7275e-65
8.98999e-65
5.88998e-65
8.29243e-65
6.04493e-65
4.95992e-65
8.06009e-65
6.12255e-65
6.12253e-65
4.7275e-65
8.98999e-65
8.98999e-65
7.12997e-65
7.12993e-65
6.19991e-65
4.57242e-65
7.28508e-65
7.59506e-65
7.67253e-65
8.13751e-65
8.21498e-65
7.12997e-65
7.12993e-65
7.12993e-65
5.42494e-65
2.32496e-65
5.27006e-65
5.89005e-65
7.98254e-65
9.06752e-65
4.495e-65
9.14496e-65
7.12994e-65
5.42494e-65
)
;
    }
    procBoundary2to3
    {
        type            processor;
        value           nonuniform List<scalar> 
12
(
6.97491e-65
5.19245e-65
5.50248e-65
4.65001e-65
7.51738e-65
6.66492e-65
1.03849e-64
7.74998e-65
7.67237e-65
9.06738e-65
5.11497e-65
8.52497e-65
)
;
    }
    procBoundary2to6
    {
        type            processor;
        value           nonuniform List<scalar> 
32
(
6.74243e-65
6.04498e-65
7.12996e-65
5.11501e-65
5.8125e-65
4.96e-65
1.03851e-64
7.59507e-65
4.96004e-65
7.44003e-65
9.37751e-65
6.1225e-65
7.36248e-65
6.74243e-65
6.04498e-65
6.50997e-65
5.81257e-65
7.90508e-65
6.43255e-65
8.83505e-65
7.05252e-65
7.82751e-65
6.04498e-65
5.11501e-65
7.0525e-65
4.96006e-65
7.20758e-65
5.42505e-65
6.12254e-65
7.59505e-65
5.11501e-65
8.75753e-65
)
;
    }
}


// ************************************************************************* //
