/*--------------------------------*- C++ -*----------------------------------*\
  =========                 |
  \\      /  F ield         | OpenFOAM: The Open Source CFD Toolbox
   \\    /   O peration     | Website:  https://openfoam.org
    \\  /    A nd           | Version:  4.x
     \\/     M anipulation  |
\*---------------------------------------------------------------------------*/
FoamFile
{
    version     2.0;
    format      ascii;
    class       vectorField;
    location    0;
    object      v;
}
// * * * * * * * * * * * * * * * * * * * * * * * * * * * * * * * * * * * * * //

325
(
( 3.70449e-10 9.55209e-11 3.27513e-10 )  
( 6.17667e-10 1.23429e-10 4.25124e-10 )  
( 3.71076e-09 3.6653e-10 2.205e-09 )  
( 7.11014e-10 3.45674e-11 2.78568e-10 )  
( 1.1463e-09 1.83361e-10 6.6825e-10 )  
( 1.08637e-09 3.0002e-10 4.48907e-10 )  
( 1.65234e-10 8.17149e-11 2.65131e-10 )  
( 1.13712e-10 1.15269e-10 2.566e-10 )  
( 4.37354e-09 -1.16231e-10 1.50154e-09 )  
( 1.51491e-10 3.86386e-11 3.37096e-10 )  
( 4.73939e-09 6.95366e-10 1.81331e-09 )  
( 1.22773e-10 1.0542e-09 2.30799e-09 )  
( 1.81424e-09 1.59057e-10 1.12251e-09 )  
( 1.45761e-09 -7.9756e-11 2.43174e-09 )  
( -3.35304e-10 8.70885e-10 4.22221e-09 )  
( 9.33693e-10 -4.6437e-12 4.5451e-10 )  
( 7.54005e-10 8.2207e-11 2.07823e-10 )  
( 7.42837e-10 1.29863e-10 3.47842e-10 )  
( 8.96369e-10 1.74507e-10 4.85622e-10 )  
( 3.11557e-09 1.90109e-10 7.6984e-10 )  
( 7.49384e-10 9.79017e-11 2.00432e-10 )  
( 2.69916e-09 4.10795e-10 9.60693e-10 )  
( 4.26816e-09 7.26088e-10 1.25584e-09 )  
( 1.99572e-09 1.31625e-10 6.48143e-10 )  
( 2.88591e-10 3.59149e-11 8.43848e-11 )  
( 1.7583e-09 1.55854e-09 2.2651e-09 )  
( 5.82509e-10 2.30276e-10 4.36898e-10 )  
( 1.58261e-09 1.47464e-10 2.28068e-09 )  
( 1.82906e-09 3.49759e-11 3.06263e-10 )  
( 3.2786e-10 7.68521e-11 1.17605e-09 )  
( 1.42564e-09 1.10357e-10 4.04592e-10 )  
( 1.63485e-09 -9.06539e-11 2.79511e-11 )  
( 2.29489e-10 2.27414e-10 5.51971e-10 )  
( 8.02926e-10 1.78354e-10 3.49118e-10 )  
( 6.84482e-10 1.1151e-10 3.41836e-10 )  
( 2.14896e-10 8.33044e-11 1.87643e-10 )  
( 6.25042e-10 -3.13306e-11 3.50776e-10 )  
( 1.24761e-09 9.73431e-11 7.01703e-10 )  
( 9.9462e-10 1.4887e-10 5.15995e-10 )  
( 1.8885e-10 1.05761e-10 1.20902e-09 )  
( 4.6268e-10 1.44816e-11 2.6275e-10 )  
( 8.42901e-10 3.65962e-11 2.74231e-10 )  
( 3.21001e-10 2.15402e-10 3.93073e-10 )  
( 1.51735e-09 2.32779e-10 4.44082e-10 )  
( 4.68218e-10 9.20513e-11 6.68965e-11 )  
( 8.11858e-10 7.72343e-11 1.0807e-09 )  
( 1.99131e-09 5.35987e-10 7.91966e-10 )  
( 5.01659e-10 2.40412e-10 1.78791e-10 )  
( 3.6997e-10 1.45542e-10 4.34744e-10 )  
( 8.4772e-10 3.23819e-11 3.64338e-10 )  
( 5.19802e-10 7.91622e-11 2.26882e-10 )  
( 2.08508e-09 -2.17624e-11 5.37128e-10 )  
( 2.20365e-09 1.29017e-10 7.08026e-10 )  
( 4.3676e-09 -7.13303e-10 1.14201e-09 )  
( 1.38742e-10 2.39733e-10 1.18336e-09 )  
( 7.29628e-10 5.76068e-11 3.86375e-10 )  
( 3.11983e-09 1.14937e-12 9.42002e-10 )  
( 5.79688e-11 4.33591e-11 2.35626e-10 )  
( 3.93811e-09 4.58405e-10 1.15543e-09 )  
( 6.69672e-11 4.29575e-11 2.17731e-10 )  
( 1.23469e-09 -8.7485e-11 2.4139e-10 )  
( 4.24788e-10 7.86893e-11 1.09381e-10 )  
( 3.91603e-10 4.7714e-11 2.71923e-10 )  
( 1.78901e-09 7.80625e-10 1.33004e-09 )  
( 6.07884e-10 2.14137e-10 4.23836e-10 )  
( 2.66934e-11 2.92327e-10 1.35254e-09 )  
( 1.89445e-09 5.85237e-10 1.46897e-09 )  
( 1.10233e-09 9.45383e-11 6.62068e-10 )  
( -3.82584e-10 8.54055e-10 2.83436e-09 )  
( 6.43149e-10 1.84477e-11 1.93768e-10 )  
( 5.51202e-10 7.98794e-12 2.32821e-10 )  
( 2.22303e-09 1.37486e-11 2.20417e-10 )  
( 2.30338e-10 1.21905e-11 5.09877e-10 )  
( 9.12881e-10 2.34525e-11 4.54224e-10 )  
( 1.08803e-09 -4.04424e-10 9.57384e-11 )  
( 2.97682e-09 3.23601e-10 9.34233e-10 )  
( -3.36167e-10 5.53325e-11 1.8214e-09 )  
( 4.58183e-09 7.59782e-10 8.22538e-10 )  
( 9.20127e-10 -2.7619e-10 2.2919e-10 )  
( 4.11801e-09 2.80775e-10 9.57553e-10 )  
( 1.77809e-09 -4.99165e-10 1.92019e-10 )  
( 4.4284e-09 -3.19433e-11 3.29826e-10 )  
( 3.10319e-09 8.00905e-11 8.44921e-10 )  
( 4.50019e-09 4.04738e-10 1.02721e-09 )  
( 3.66329e-09 4.56864e-10 5.6967e-10 )  
( 7.33224e-10 -3.95381e-10 2.04845e-10 )  
( 1.4612e-10 7.93032e-10 1.92654e-09 )  
( 7.27599e-11 4.82304e-11 2.76749e-10 )  
( 9.66018e-10 3.64119e-11 4.48116e-10 )  
( -6.39821e-10 -4.30773e-10 2.06091e-09 )  
( 1.63762e-10 9.75582e-11 2.12325e-10 )  
( 3.58432e-10 1.33889e-10 2.40621e-10 )  
( 6.36654e-10 -1.4997e-11 6.12465e-10 )  
( 1.23723e-10 3.50675e-11 1.96221e-10 )  
( 1.09441e-10 4.63101e-11 1.98671e-10 )  
( 7.6817e-10 1.76636e-10 3.41794e-10 )  
( 1.53406e-10 2.24504e-11 3.12913e-10 )  
( 3.58111e-10 -8.89852e-12 3.32166e-10 )  
( 3.80495e-09 1.34606e-09 6.04748e-11 )  
( 8.62566e-10 2.15412e-11 3.99458e-10 )  
( 7.43141e-10 9.99925e-11 2.67598e-10 )  
( 1.10539e-10 8.77631e-11 3.53449e-10 )  
( 2.74589e-09 6.12606e-11 3.10473e-10 )  
( 2.91049e-10 2.08291e-11 1.90577e-10 )  
( 4.02462e-10 5.96764e-11 1.35312e-10 )  
( 2.84842e-10 4.47198e-11 1.83649e-10 )  
( 5.87344e-10 7.13848e-11 3.63876e-10 )  
( 1.00734e-09 -1.5537e-10 -8.20042e-11 )  
( 1.40537e-09 2.50011e-10 1.04161e-09 )  
( 3.02689e-10 5.46775e-11 1.1333e-10 )  
( 7.72521e-10 -2.73572e-11 1.92485e-10 )  
( 4.54763e-10 1.5329e-11 9.58643e-11 )  
( 6.04852e-10 1.32262e-10 4.41359e-10 )  
( 1.75916e-09 8.32984e-10 6.67758e-10 )  
( 1.66168e-09 -4.15566e-10 1.63132e-09 )  
( 8.04784e-10 -1.64008e-10 -3.09731e-11 )  
( 4.57794e-10 1.71845e-10 1.86224e-10 )  
( 1.58406e-10 6.09714e-11 4.67927e-10 )  
( 4.44639e-11 1.43704e-10 4.01869e-11 )  
( 2.65015e-09 8.4283e-10 -8.03962e-11 )  
( 4.77088e-10 -4.75186e-12 1.67941e-10 )  
( 5.53926e-10 -7.17709e-11 5.75702e-10 )  
( 9.96867e-10 6.98828e-11 6.67801e-10 )  
( 3.15096e-10 3.47332e-11 8.01175e-11 )  
( 8.20857e-10 -2.34269e-11 2.49953e-10 )  
( 1.51692e-09 -4.47694e-11 1.47856e-09 )  
( 2.71117e-09 -1.02761e-10 4.20975e-10 )  
( 2.14005e-09 6.23012e-10 6.15983e-10 )  
( 1.05248e-10 3.61544e-11 3.70955e-11 )  
( 5.09231e-10 6.56717e-11 1.42655e-10 )  
( 1.8148e-10 1.04854e-11 8.18547e-11 )  
( 1.96236e-09 1.12172e-10 4.62429e-10 )  
( 8.09204e-10 2.50729e-10 3.97455e-10 )  
( 2.68024e-10 5.17232e-11 1.36201e-10 )  
( 6.70259e-10 -6.32828e-12 3.2317e-10 )  
( 1.0741e-09 3.72215e-10 7.82712e-10 )  
( 5.57029e-10 -2.95389e-11 1.36548e-10 )  
( 1.24445e-10 -6.93043e-11 7.58994e-10 )  
( 4.65865e-09 -2.67584e-10 1.39508e-09 )  
( 9.53234e-10 -7.42498e-11 1.56823e-10 )  
( 2.21092e-10 -1.257e-10 5.52144e-11 )  
( 2.62296e-09 1.09116e-10 6.1623e-10 )  
( 8.72824e-10 -1.99834e-10 -2.02357e-11 )  
( 6.28889e-10 -9.68414e-11 2.26208e-10 )  
( 1.18281e-09 -1.18742e-10 1.08267e-10 )  
( 1.28996e-09 -2.67323e-10 9.92489e-11 )  
( 9.5446e-10 3.56242e-10 1.08598e-09 )  
( 7.39644e-11 1.11204e-10 7.53033e-11 )  
( 1.25278e-10 9.50425e-11 3.11772e-11 )  
( 2.82307e-10 -1.34974e-11 1.20795e-10 )  
( 4.23764e-10 1.39869e-10 8.66165e-11 )  
( 7.56711e-10 1.07062e-10 4.78268e-10 )  
( 2.29035e-10 4.95446e-10 8.82047e-10 )  
( 7.58879e-10 2.64839e-10 8.49484e-10 )  
( 2.44684e-10 3.49884e-10 2.39554e-10 )  
( 6.47886e-10 1.89328e-10 2.32142e-10 )  
( 1.22448e-09 -3.67021e-10 -1.22692e-11 )  
( 5.78787e-11 1.53868e-11 1.44711e-10 )  
( 8.09503e-10 -6.35633e-11 3.9903e-10 )  
( 1.71153e-09 8.68008e-11 9.42435e-10 )  
( 6.10354e-10 8.72659e-11 1.77492e-10 )  
( 4.99008e-10 -2.18687e-12 2.04203e-10 )  
( 3.93436e-10 1.27024e-10 1.44998e-10 )  
( 2.89688e-10 -1.05142e-09 1.51684e-09 )  
( 5.15018e-10 5.40089e-11 2.39704e-10 )  
( 1.02558e-09 3.53863e-10 1.17542e-09 )  
( 1.34152e-10 6.87252e-11 2.19801e-10 )  
( 3.42234e-09 1.27278e-11 1.32669e-09 )  
( 1.65514e-09 1.47968e-10 5.11133e-10 )  
( 1.73458e-09 -9.12529e-11 3.40588e-10 )  
( 1.47182e-09 5.95895e-10 1.20523e-09 )  
( 1.36172e-09 -1.72326e-10 6.37598e-11 )  
( 9.55649e-10 4.82145e-11 3.4817e-10 )  
( 7.62303e-10 -3.64318e-11 2.43244e-10 )  
( 5.1227e-10 -2.07446e-11 6.96027e-11 )  
( 1.8848e-10 5.78974e-11 9.9608e-11 )  
( 2.49351e-09 -1.97269e-10 1.54359e-09 )  
( 2.28343e-10 9.35749e-12 1.40314e-10 )  
( 3.66393e-10 -6.75838e-11 1.22106e-10 )  
( 7.15497e-10 2.74389e-10 1.09617e-09 )  
( 9.51452e-10 2.25729e-10 4.43067e-10 )  
( 1.71333e-09 2.41216e-10 6.72129e-10 )  
( 2.1902e-09 -3.12127e-10 4.46449e-10 )  
( 9.78127e-10 1.75588e-10 7.7995e-10 )  
( 7.23995e-10 8.4329e-11 3.39426e-10 )  
( 1.72279e-11 -5.75533e-11 1.11877e-10 )  
( 6.56458e-10 -9.59185e-11 3.02682e-11 )  
( 4.67607e-10 -8.53436e-11 8.30523e-10 )  
( 4.2697e-10 -2.8592e-11 2.38021e-10 )  
( 2.33306e-10 2.13696e-11 7.60815e-11 )  
( 6.94835e-11 6.04355e-11 1.25444e-10 )  
( 1.43803e-10 8.82537e-12 1.149e-10 )  
( 4.8437e-10 2.69521e-10 6.65289e-11 )  
( 4.31916e-09 -6.83892e-10 2.27659e-09 )  
( 1.99578e-09 3.33287e-10 7.05417e-10 )  
( 1.56454e-09 1.07093e-10 3.21628e-10 )  
( 2.2954e-10 3.95436e-11 6.95676e-11 )  
( 1.24344e-09 -2.52344e-10 -1.31439e-10 )  
( 3.36773e-09 6.98163e-10 9.24214e-10 )  
( 2.50769e-10 6.75956e-11 2.12501e-10 )  
( 5.56613e-10 -1.0299e-10 2.16237e-10 )  
( 9.3684e-10 -6.91861e-11 3.19988e-11 )  
( 3.31584e-09 1.25402e-10 6.18875e-10 )  
( 6.88363e-11 7.57813e-11 1.68065e-10 )  
( 1.02891e-09 3.44754e-10 6.69697e-10 )  
( -8.05816e-11 6.48215e-10 9.41826e-10 )  
( 3.61025e-10 2.38059e-11 7.56185e-11 )  
( 4.26769e-10 -9.93629e-11 9.13559e-11 )  
( 7.43271e-10 2.30271e-11 8.65335e-10 )  
( 1.05602e-09 1.13418e-10 1.07588e-09 )  
( 1.38077e-10 4.01937e-11 3.9735e-11 )  
( 3.43388e-10 -3.89701e-11 5.66619e-10 )  
( 3.49615e-09 5.85246e-10 6.63148e-10 )  
( 1.31793e-09 -9.00851e-11 4.70682e-10 )  
( 2.15881e-10 4.90996e-12 1.58788e-10 )  
( 1.32288e-09 2.2099e-10 6.98205e-10 )  
( 7.26372e-11 2.69506e-11 1.18664e-10 )  
( 3.7804e-10 1.07278e-10 7.38152e-11 )  
( 1.50339e-09 6.10736e-10 5.6078e-10 )  
( 6.67701e-10 2.43602e-10 2.41421e-10 )  
( 5.28752e-10 -5.75418e-12 5.03441e-11 )  
( 1.93337e-09 -1.54659e-10 1.641e-10 )  
( 5.23702e-10 -3.37545e-10 2.98848e-10 )  
( 7.55576e-10 -5.45475e-10 6.82844e-10 )  
( 3.92251e-10 1.87896e-11 8.2983e-11 )  
( 6.47834e-10 -8.12067e-10 8.3411e-10 )  
( 5.16652e-10 5.86289e-11 1.0577e-10 )  
( 1.1188e-09 2.02363e-10 6.26013e-10 )  
( 5.56164e-10 1.49411e-10 2.36399e-10 )  
( 1.8749e-09 -4.9256e-11 -2.63157e-10 )  
( 7.08147e-10 6.73252e-11 2.86272e-10 )  
( 3.55759e-10 -3.14915e-10 -8.70781e-11 )  
( 1.10972e-09 -3.2364e-10 1.36064e-10 )  
( 1.82929e-10 6.31785e-11 2.38271e-11 )  
( 8.09834e-10 -2.65367e-10 6.55245e-10 )  
( 3.09574e-09 -7.51985e-11 5.63114e-10 )  
( 1.19789e-09 5.19713e-10 2.84379e-10 )  
( 2.14864e-10 5.98857e-11 -2.1639e-11 )  
( 2.40458e-10 -1.25736e-10 3.39824e-10 )  
( 1.44567e-09 -7.4904e-11 2.04454e-10 )  
( 8.11004e-10 -2.78795e-11 7.30896e-11 )  
( 5.69844e-11 -2.17457e-11 -2.37008e-11 )  
( 1.6573e-09 2.27412e-10 2.186e-10 )  
( 2.86893e-10 -1.97652e-10 2.38614e-10 )  
( 1.92579e-10 3.88208e-11 1.19737e-11 )  
( 2.55986e-10 4.96771e-11 7.40624e-11 )  
( 4.33888e-10 -5.56558e-11 6.59726e-11 )  
( 5.84958e-10 -4.46699e-10 1.78974e-10 )  
( 6.27984e-10 7.49429e-11 3.40896e-11 )  
( 2.09082e-10 1.64429e-11 3.74873e-10 )  
( 2.73699e-10 2.0569e-11 4.60456e-11 )  
( 2.71017e-11 -5.64572e-11 -2.69176e-11 )  
( 4.17976e-11 -1.27758e-11 -1.31686e-12 )  
( 8.91537e-10 -1.027e-10 4.51268e-11 )  
( 2.59472e-09 3.26451e-10 5.92651e-10 )  
( 1.14879e-09 -3.32008e-10 -8.23163e-12 )  
( 5.85515e-10 4.21994e-11 1.79543e-10 )  
( 6.88293e-10 -5.0292e-11 1.97848e-10 )  
( 2.74436e-10 5.74912e-11 1.22821e-10 )  
( 5.99042e-10 5.57175e-12 -5.5272e-11 )  
( 2.55132e-10 -1.23267e-11 6.52725e-11 )  
( 1.69502e-09 1.15266e-09 1.61143e-09 )  
( 2.56394e-10 -1.07015e-10 9.01181e-11 )  
( 2.8557e-10 7.22952e-11 2.57757e-11 )  
( 3.87008e-10 -5.87178e-11 2.83969e-10 )  
( 1.0206e-10 4.62684e-11 3.9908e-11 )  
( 6.24909e-10 3.64757e-10 1.20478e-10 )  
( 4.54031e-10 7.84099e-11 2.84667e-12 )  
( 1.30806e-10 4.63089e-11 2.28739e-11 )  
( 1.99152e-10 -1.06162e-12 4.8455e-11 )  
( 2.67667e-09 3.10762e-10 7.14552e-10 )  
( 2.94047e-10 -3.6061e-11 5.37267e-11 )  
( 1.68207e-10 -1.46231e-11 2.41764e-11 )  
( 2.22946e-10 7.79019e-11 -1.70262e-11 )  
( 3.12104e-10 -3.10638e-11 3.42723e-10 )  
( 8.96194e-10 -1.64621e-10 1.37928e-11 )  
( 4.08572e-10 -1.16337e-10 4.79749e-10 )  
( 7.5974e-10 -1.52348e-10 2.51026e-10 )  
( 1.74086e-10 3.49967e-11 1.17269e-11 )  
( 5.78175e-10 -8.15451e-11 7.87776e-11 )  
( 5.74746e-10 7.28198e-11 1.13918e-10 )  
( 1.63455e-10 -2.31187e-10 -6.13767e-11 )  
( 6.33046e-10 7.29377e-11 1.66695e-11 )  
( 5.49755e-10 -2.06564e-10 -5.36961e-11 )  
( 6.51651e-10 -7.50363e-11 2.7088e-10 )  
( 3.24358e-10 1.53394e-10 7.10184e-11 )  
( 3.06156e-10 1.26886e-11 1.19358e-10 )  
( 2.18022e-10 -7.38056e-11 -5.45513e-11 )  
( 3.04259e-11 3.13515e-11 3.4397e-11 )  
( 1.38105e-09 4.67511e-10 6.68288e-10 )  
( 1.38797e-10 9.34684e-11 2.35363e-10 )  
( 1.15349e-10 4.35276e-12 8.39016e-12 )  
( 5.0268e-10 -1.93842e-10 3.91149e-12 )  
( 3.91235e-10 -8.77256e-11 6.90932e-11 )  
( 3.51212e-10 -1.37091e-10 8.81544e-11 )  
( 5.6985e-10 -3.06261e-10 4.10257e-10 )  
( 1.33501e-10 -6.61727e-11 1.50963e-10 )  
( 6.28579e-10 4.1233e-11 -7.88744e-11 )  
( 7.06341e-10 -5.01306e-10 1.06204e-10 )  
( 1.52438e-10 3.87713e-12 2.86707e-11 )  
( 2.30737e-10 2.07696e-11 2.01368e-11 )  
( 3.97921e-10 -1.39068e-10 5.40764e-11 )  
( 3.13363e-10 8.79599e-12 -2.95929e-11 )  
( 3.99077e-10 -4.46642e-11 4.08501e-11 )  
( 3.59391e-10 -4.85132e-11 1.94683e-11 )  
( 4.57854e-10 -1.14392e-10 3.02129e-11 )  
( 1.17907e-10 7.64321e-11 1.15786e-10 )  
( 2.47661e-10 4.99403e-11 2.75254e-11 )  
( 3.21536e-10 -1.15213e-10 6.27421e-11 )  
( 2.56388e-11 1.90276e-11 -8.36187e-12 )  
( 4.89099e-11 -2.62638e-11 1.7224e-12 )  
( 3.56482e-10 6.38725e-11 2.71945e-11 )  
( 1.43262e-10 3.0877e-12 1.54455e-11 )  
( 2.09457e-10 1.10654e-11 4.28174e-11 )  
( 1.57076e-10 6.10469e-11 2.49542e-13 )  
( 1.11495e-08 -5.68008e-09 -1.15418e-10 )  
( 2.47646e-10 -7.54129e-13 2.8323e-11 )  
( 1.53398e-10 -1.20623e-10 1.36065e-10 )  
( 6.45997e-10 1.80842e-10 3.44059e-10 )  
( 1.64551e-10 3.83134e-11 1.28787e-11 )  
( 3.94248e-11 1.39044e-11 2.96048e-11 )  
( 3.19073e-10 -4.79672e-10 2.72885e-10 )  
( 2.20335e-09 -1.56918e-10 -1.09382e-10 )  
( 6.39295e-10 1.63172e-10 9.32596e-11 )  
( 6.18276e-10 -1.01677e-10 -6.44488e-11 )  
)
