/*--------------------------------*- C++ -*----------------------------------*\
| =========                 |                                                 |
| \\      /  F ield         | OpenFOAM: The Open Source CFD Toolbox           |
|  \\    /   O peration     | Version:  4.x                                   |
|   \\  /    A nd           | Web:      www.OpenFOAM.org                      |
|    \\/     M anipulation  |                                                 |
\*---------------------------------------------------------------------------*/
FoamFile
{
    version     2.0;
    format      ascii;
    class       volScalarField;
    location    "11.5";
    object      Cs;
}
// * * * * * * * * * * * * * * * * * * * * * * * * * * * * * * * * * * * * * //

dimensions      [1 -3 0 0 0 0 0];

internalField   nonuniform List<scalar> 
87
(
334.916
334.92
334.906
334.966
334.947
334.925
335
335
334.998
334.992
334.98
334.962
334.946
334.94
334.947
335
335
334.998
334.994
334.984
334.97
334.953
334.942
334.941
335
335
334.999
334.997
334.992
334.985
334.973
334.959
334.943
335
335
334.998
334.994
334.986
334.974
334.959
334.949
334.947
335
335
334.999
334.996
334.989
334.978
334.964
334.954
334.949
335
335
334.999
334.997
334.994
334.988
334.979
334.97
334.958
335
335
334.999
334.997
334.992
334.984
334.973
334.961
334.948
335
335
334.999
334.997
334.993
334.987
334.977
334.968
334.956
335
335
334.999
334.998
334.994
334.989
334.982
334.972
334.961
)
;

boundaryField
{
    inlet
    {
        type            calculated;
        value           uniform 335;
    }
    outlet
    {
        type            calculated;
        value           nonuniform 0();
    }
    wall
    {
        type            calculated;
        value           nonuniform List<scalar> 
57
(
335
335
335
335
335
335
334.999
334.999
334.999
334.997
334.997
334.998
334.992
334.993
334.994
334.984
334.987
334.989
334.973
334.977
334.982
334.961
334.968
334.972
334.948
334.956
334.961
335
335
335
335
335
335
334.999
334.999
334.999
334.997
334.997
334.998
334.992
334.994
334.994
334.985
334.988
334.989
334.966
334.973
334.979
334.982
334.947
334.959
334.97
334.972
334.925
334.943
334.958
334.961
)
;
    }
    procBoundary6to0
    {
        type            processor;
        value           uniform 334.896;
    }
    procBoundary6to2
    {
        type            processor;
        value           nonuniform List<scalar> 
32
(
334.845
334.862
334.836
334.942
334.908
334.864
335
335
334.998
334.992
334.98
334.962
334.94
334.924
334.924
334.924
335
335
334.998
334.993
334.982
334.964
334.941
334.941
334.941
335
335
334.999
334.996
334.99
334.981
334.981
)
;
    }
    procBoundary6to4
    {
        type            processor;
        value           nonuniform List<scalar> 
27
(
335
335
334.998
334.992
334.98
334.961
334.941
334.931
334.934
335
335
334.998
334.995
334.986
334.973
334.957
334.945
334.94
335
335
334.999
334.996
334.991
334.983
334.972
334.961
334.949
)
;
    }
    procBoundary6to7
    {
        type            processor;
        value           nonuniform List<scalar> 
12
(
334.927
334.912
334.899
334.972
334.954
334.927
334.956
334.957
334.947
334.937
334.946
334.95
)
;
    }
}


// ************************************************************************* //
