/*--------------------------------*- C++ -*----------------------------------*\
| =========                 |                                                 |
| \\      /  F ield         | OpenFOAM: The Open Source CFD Toolbox           |
|  \\    /   O peration     | Version:  4.x                                   |
|   \\  /    A nd           | Web:      www.OpenFOAM.org                      |
|    \\/     M anipulation  |                                                 |
\*---------------------------------------------------------------------------*/
FoamFile
{
    version     2.0;
    format      ascii;
    class       volScalarField;
    location    "11.5";
    object      Deff;
}
// * * * * * * * * * * * * * * * * * * * * * * * * * * * * * * * * * * * * * //

dimensions      [0 2 -1 0 0 0 0];

internalField   nonuniform List<scalar> 
87
(
9.81018e-08
9.81734e-08
9.81244e-08
9.83219e-08
9.8315e-08
9.82976e-08
9.82726e-08
9.82886e-08
9.82928e-08
9.81008e-08
9.79611e-08
9.80316e-08
9.79539e-08
9.79784e-08
9.78947e-08
9.85347e-08
9.83465e-08
9.82932e-08
9.81023e-08
9.80474e-08
9.80038e-08
9.79968e-08
9.79501e-08
9.79457e-08
9.87184e-08
9.84759e-08
9.84311e-08
9.82527e-08
9.81019e-08
9.80108e-08
9.81129e-08
9.80966e-08
9.80535e-08
9.83306e-08
9.82617e-08
9.81618e-08
9.80513e-08
9.8044e-08
9.79731e-08
9.79335e-08
9.7959e-08
9.78726e-08
9.85471e-08
9.8363e-08
9.82554e-08
9.81136e-08
9.80864e-08
9.8072e-08
9.79754e-08
9.80322e-08
9.79181e-08
9.8707e-08
9.84809e-08
9.83878e-08
9.8162e-08
9.80885e-08
9.80908e-08
9.81017e-08
9.81271e-08
9.80952e-08
9.8548e-08
9.84372e-08
9.82703e-08
9.80885e-08
9.80086e-08
9.79524e-08
9.78527e-08
9.78821e-08
9.80585e-08
9.86163e-08
9.85012e-08
9.83048e-08
9.81933e-08
9.80054e-08
9.80598e-08
9.8013e-08
9.80628e-08
9.79566e-08
9.87888e-08
9.85492e-08
9.83912e-08
9.82387e-08
9.81902e-08
9.80313e-08
9.81968e-08
9.82098e-08
9.81006e-08
)
;

boundaryField
{
    inlet
    {
        type            calculated;
        value           uniform 0;
    }
    outlet
    {
        type            calculated;
        value           nonuniform 0();
    }
    wall
    {
        type            calculated;
        value           uniform 0;
    }
    procBoundary6to0
    {
        type            processor;
        value           uniform 0;
    }
    procBoundary6to2
    {
        type            processor;
        value           uniform 0;
    }
    procBoundary6to4
    {
        type            processor;
        value           uniform 0;
    }
    procBoundary6to7
    {
        type            processor;
        value           uniform 0;
    }
}


// ************************************************************************* //
