/*--------------------------------*- C++ -*----------------------------------*\
| =========                 |                                                 |
| \\      /  F ield         | OpenFOAM: The Open Source CFD Toolbox           |
|  \\    /   O peration     | Version:  4.x                                   |
|   \\  /    A nd           | Web:      www.OpenFOAM.org                      |
|    \\/     M anipulation  |                                                 |
\*---------------------------------------------------------------------------*/
FoamFile
{
    version     2.0;
    format      ascii;
    class       volVectorField;
    location    "11.5";
    object      GField;
}
// * * * * * * * * * * * * * * * * * * * * * * * * * * * * * * * * * * * * * //

dimensions      [1 -2 -1 0 0 0 0];

internalField   nonuniform List<vector> 
87
(
(88.3819 1.81806 1.43453)
(16.056 0.479562 -0.187104)
(88.8286 2.06863 0.975089)
(100.479 3.35039 -2.92883)
(50.2663 1.30775 -1.79847)
(103.734 2.29426 0.0777028)
(90.7799 1.6694 -3.29411)
(28.826 1.15699 -1.49467)
(85.9105 2.33776 -3.15778)
(15.4992 0.785872 -0.932691)
(82.3302 1.52707 -1.84865)
(6.45757 0.509818 -0.29029)
(80.6754 0.00708167 0.0908004)
(2.24432 0.235505 -0.115185)
(79.6762 6.17287 0.567218)
(92.9167 4.59596 -2.87112)
(31.2291 1.62905 -1.66781)
(88.6548 4.44959 -2.91491)
(20.724 1.18171 -1.28944)
(85.5124 2.80669 -2.01322)
(11.1027 0.763648 -0.482522)
(83.7754 1.90893 -0.556542)
(2.01481 0.212744 -0.0672336)
(83.1204 3.40419 0.119275)
(94.8727 3.67662 -3.0396)
(40.699 2.04907 -2.17352)
(95.164 4.384 -3.5645)
(42.029 1.83432 -2.76667)
(94.7676 3.71909 -3.3265)
(41.1121 1.55968 -2.29737)
(95.1234 3.79653 -2.11903)
(41.3882 1.37357 -1.4551)
(95.9283 3.27895 0.17827)
(91.0554 2.11418 2.19345)
(32.6967 0.995456 0.513571)
(87.8312 2.45569 2.16517)
(24.0491 0.790991 0.620749)
(86.4633 1.64788 2.08214)
(17.8854 0.140323 0.803143)
(85.8156 1.0325 2.39544)
(13.7309 -0.263987 1.53697)
(85.4353 1.22147 4.69196)
(93.2217 4.25097 1.87318)
(35.4403 1.75318 0.67321)
(90.6573 3.85587 2.28441)
(29.8934 1.08089 0.433484)
(89.1866 2.80554 2.59898)
(24.507 0.893614 0.67826)
(87.9341 2.1899 3.63565)
(19.0323 0.638464 0.855477)
(87.372 1.78798 4.55963)
(94.5404 3.35157 0.832945)
(43.3076 1.98025 0.00785392)
(96.6681 3.73576 0.630487)
(46.7961 1.72624 -0.0761511)
(97.8341 3.46173 0.808198)
(49.3332 1.70215 -0.126967)
(99.9263 3.49037 1.17859)
(52.0674 1.27753 0.449762)
(102.665 3.00251 2.74741)
(93.3873 2.47734 1.48408)
(40.383 1.00248 0.414796)
(93.0523 2.21949 0.74808)
(38.8598 0.763178 0.00141338)
(92.5141 1.3281 0.27731)
(37.1487 -0.00584674 0.073657)
(92.2241 0.29646 0.407765)
(35.6269 -0.584296 0.552472)
(93.8098 1.29995 0.325605)
(94.0957 3.26072 1.18316)
(42.5644 1.53753 0.453028)
(95.2072 3.19488 0.864516)
(44.4997 1.36281 0.09013)
(95.8224 2.37414 0.729858)
(45.8108 1.10537 0.381947)
(97.0706 2.07346 1.28289)
(47.5905 0.253963 0.461506)
(98.8718 1.56712 1.36162)
(95.1746 2.60051 0.419809)
(45.5607 1.45216 -0.154758)
(98.3911 2.73757 -0.187315)
(51.1501 1.44826 -0.359009)
(101.474 2.34009 -0.628423)
(54.9741 0.907614 -0.714759)
(103.709 2.07317 -0.574619)
(58.3155 0.370346 -0.857001)
(105.37 1.31988 -0.624184)
)
;

boundaryField
{
    inlet
    {
        type            calculated;
        value           uniform (67 0 0);
    }
    outlet
    {
        type            calculated;
        value           nonuniform 0();
    }
    wall
    {
        type            calculated;
        value           uniform (0 0 0);
    }
    procBoundary6to0
    {
        type            processor;
        value           uniform (85.557 0.2128 -2.92928);
    }
    procBoundary6to2
    {
        type            processor;
        value           nonuniform List<vector> 
32
(
(86.3818 2.33143 4.2017)
(8.4721 0.653724 0.131593)
(87.0748 4.32122 4.16003)
(100.069 3.838 -3.38257)
(48.8146 1.51399 -1.43008)
(101.717 3.37678 1.62853)
(92.9316 1.57649 -6.61109)
(31.9749 1.00268 -3.2048)
(88.8793 2.08141 -5.99616)
(23.0525 0.816468 -2.28167)
(87.2203 1.1621 -3.21818)
(17.1664 0.727432 -1.00887)
(87.1204 0.613436 0.892641)
(14.3389 0.808239 -0.606439)
(14.3389 0.808239 -0.606439)
(14.3389 0.808239 -0.606439)
(93.2867 3.78224 -6.04534)
(34.0108 1.74538 -3.28239)
(90.2556 3.7383 -5.80798)
(26.5726 1.10165 -2.54994)
(88.3963 2.87755 -4.10741)
(19.8434 0.773141 -1.20135)
(87.6369 2.33795 -0.595539)
(87.6369 2.33795 -0.595539)
(87.6369 2.33795 -0.595539)
(94.8063 3.44899 -5.62875)
(42.0976 1.96938 -3.83991)
(96.5085 4.00074 -6.19658)
(44.8595 1.83114 -4.29504)
(98.3659 3.79122 -5.69101)
(47.2859 1.79168 -3.21417)
(47.2859 1.79168 -3.21417)
)
;
    }
    procBoundary6to4
    {
        type            processor;
        value           nonuniform List<vector> 
27
(
(93.0637 -1.20136 -3.48248)
(29.8276 -0.147843 -1.59608)
(86.248 -0.452555 -3.18507)
(16.0397 -0.382916 -0.927931)
(81.9617 -0.248439 -2.08178)
(5.64441 -0.218766 -0.0109964)
(78.9802 0.327796 -0.37517)
(1.31445 -0.0742631 0.0461866)
(78.1153 5.8637 0.803515)
(92.0942 -1.32126 1.11056)
(32.2032 -0.135941 1.07742)
(87.8189 -0.502702 2.56346)
(21.8227 -0.203574 0.969449)
(85.1964 -0.445744 3.13757)
(14.0386 -0.540718 1.53111)
(84.7278 -0.450786 3.81518)
(7.83041 -0.565117 1.27638)
(85.4551 -0.539083 9.6691)
(92.1355 -0.467892 0.847883)
(38.1534 -0.210031 0.625526)
(91.7882 -0.656911 1.2507)
(36.2149 -0.60645 0.556384)
(91.9025 -0.792175 1.32902)
(36.5964 -1.17975 0.780415)
(94.2892 -0.999902 2.40143)
(40.1698 -1.67182 0.745959)
(97.2219 -0.719313 1.77177)
)
;
    }
    procBoundary6to7
    {
        type            processor;
        value           nonuniform List<vector> 
12
(
(14.3421 2.06909 -1.08998)
(17.8321 0.340618 0.0678782)
(54.2056 0.749089 0.105563)
(0.0568856 0.0256067 -0.0136721)
(0.0123034 0.002218 -0.00226051)
(43.6435 1.08715 -0.135422)
(10.047 -0.248276 1.47864)
(14.4592 0.919619 0.312955)
(55.8456 0.783779 1.61915)
(36.6463 -0.889704 0.423492)
(51.7145 0.485042 0.192669)
(61.5446 -0.291801 -0.932404)
)
;
    }
}


// ************************************************************************* //
