/*--------------------------------*- C++ -*----------------------------------*\
| =========                 |                                                 |
| \\      /  F ield         | OpenFOAM: The Open Source CFD Toolbox           |
|  \\    /   O peration     | Version:  4.x                                   |
|   \\  /    A nd           | Web:      www.OpenFOAM.org                      |
|    \\/     M anipulation  |                                                 |
\*---------------------------------------------------------------------------*/
FoamFile
{
    version     2.0;
    format      ascii;
    class       volScalarField;
    location    "11.5";
    object      Ksl;
}
// * * * * * * * * * * * * * * * * * * * * * * * * * * * * * * * * * * * * * //

dimensions      [1 -3 -1 0 0 0 0];

internalField   nonuniform List<scalar> 
87
(
3712.77
20399.7
3729.21
3260.75
6492.64
3172.01
3573.31
11360.6
3849.11
21012.1
3976.33
49836.3
4027.62
141055
4032.76
3485.71
10406.5
3713.54
15685.2
3835.65
29062.7
3892.11
157793
3914.07
3366.79
7845.1
3389.64
7623.33
3413.06
7796.89
3396.28
7719.11
3376.57
3534.48
9916.78
3726.82
13425
3754.55
17937.6
3769.48
23027.1
3747.98
3434.39
9100.53
3594.33
10775
3643.28
13113.1
3687.77
16823.5
3702.32
3354.71
7292.45
3297.48
6762.5
3258.28
6434.7
3209.08
6130.82
3139.82
3415.95
7892.8
3462.17
8175.39
3441.99
8512.55
3455.94
8820.76
3396.64
3355.07
7440.15
3347.91
7125.15
3312.82
6911.96
3288.58
6669.52
3222.59
3301.59
6858.71
3201.71
6111.22
3095.31
5697.6
3067.72
5440.93
3032.16
)
;

boundaryField
{
    inlet
    {
        type            zeroGradient;
    }
    outlet
    {
        type            zeroGradient;
    }
    wall
    {
        type            zeroGradient;
    }
    procBoundary6to0
    {
        type            processor;
        value           uniform 3814.07;
    }
    procBoundary6to2
    {
        type            processor;
        value           nonuniform List<scalar> 
32
(
3875.19
39478.6
3876.53
3352.69
6845.05
3290.48
3530.62
10318.4
3768.47
14337.1
3823.04
19103.6
3791.35
22621.6
22621.6
22621.6
3474.67
9607.65
3695.94
12409.3
3771.37
16534.8
3775.32
3775.32
3775.32
3371.15
7621.77
3400.9
7243.33
3347.48
6877.75
6877.75
)
;
    }
    procBoundary6to4
    {
        type            processor;
        value           nonuniform List<scalar> 
27
(
3492.95
11019.8
3851.27
20420
4009.56
57290.8
4114.68
240790
4101.64
3500.53
10095.3
3740.26
14840.4
3824.33
22749.3
3805.34
39899.8
3717.32
3455.76
8337.13
3511.79
8795.68
3494.31
8632.12
3372.4
7862.96
3257.09
)
;
    }
    procBoundary6to7
    {
        type            processor;
        value           nonuniform List<scalar> 
12
(
22322.6
18492.7
6077.93
4.21134e+06
1.29378e+07
7398.82
31257.3
22157.7
5740.43
8608.4
6132.78
5134.5
)
;
    }
}


// ************************************************************************* //
