/*--------------------------------*- C++ -*----------------------------------*\
| =========                 |                                                 |
| \\      /  F ield         | OpenFOAM: The Open Source CFD Toolbox           |
|  \\    /   O peration     | Version:  4.x                                   |
|   \\  /    A nd           | Web:      www.OpenFOAM.org                      |
|    \\/     M anipulation  |                                                 |
\*---------------------------------------------------------------------------*/
FoamFile
{
    version     2.0;
    format      ascii;
    class       volScalarField;
    location    "11.5";
    object      magGField;
}
// * * * * * * * * * * * * * * * * * * * * * * * * * * * * * * * * * * * * * //

dimensions      [1 -2 -1 0 0 0 0];

internalField   nonuniform List<scalar> 
87
(
88.4122
16.0642
88.858
100.578
50.3155
103.76
90.855
28.8879
86.0003
15.5471
82.3651
6.48417
80.6755
2.25958
79.917
93.0746
31.316
88.8143
20.7976
85.5821
11.1394
83.799
2.02713
83.1902
94.9925
40.8085
95.3316
42.1599
94.8988
41.2058
95.2228
41.4366
95.9845
91.1063
32.7159
87.8922
24.0702
86.5041
17.904
85.8553
13.8192
85.5727
93.3374
35.4901
90.768
29.9161
89.2686
24.5327
88.0365
19.0623
87.5092
94.6034
43.3528
96.7423
46.828
97.8987
49.3628
99.9942
52.085
102.746
93.4319
40.3976
93.0818
38.8673
92.524
37.1488
92.2255
35.636
93.8194
94.1596
42.5946
95.2647
44.5206
95.8546
45.8257
97.1012
47.5935
98.8936
95.211
45.5841
98.4293
51.1718
101.502
54.9862
103.731
58.3229
105.38
)
;

boundaryField
{
    inlet
    {
        type            calculated;
        value           uniform 67;
    }
    outlet
    {
        type            calculated;
        value           nonuniform 0();
    }
    wall
    {
        type            calculated;
        value           uniform 0;
    }
    procBoundary6to0
    {
        type            processor;
        value           uniform 85.6074;
    }
    procBoundary6to2
    {
        type            processor;
        value           nonuniform List<scalar> 
32
(
86.5153
8.4983
87.2812
100.2
48.859
101.786
93.1798
32.1508
89.1056
23.1795
87.2874
17.2114
87.1271
14.3744
14.3744
14.3744
93.5589
34.2133
90.5195
26.7174
88.5384
19.8947
87.6701
87.6701
87.6701
95.0359
42.3183
96.79
45.1018
98.6033
47.4289
47.4289
)
;
    }
    procBoundary6to4
    {
        type            processor;
        value           nonuniform List<scalar> 
27
(
93.1366
29.8706
86.3079
16.0711
81.9885
5.64866
78.9818
1.31736
78.3392
92.1104
32.2215
87.8577
21.8452
85.2554
14.1321
84.8149
7.95386
86.002
92.1406
38.1591
91.799
36.2242
91.9156
36.6238
94.325
40.2115
97.2407
)
;
    }
    procBoundary6to7
    {
        type            processor;
        value           nonuniform List<scalar> 
12
(
14.5315
17.8355
54.2109
0.0638639
0.0127045
43.6572
10.1583
14.4918
55.8746
36.6595
51.7172
61.5524
)
;
    }
}


// ************************************************************************* //
