/*--------------------------------*- C++ -*----------------------------------*\
| =========                 |                                                 |
| \\      /  F ield         | OpenFOAM: The Open Source CFD Toolbox           |
|  \\    /   O peration     | Version:  4.x                                   |
|   \\  /    A nd           | Web:      www.OpenFOAM.org                      |
|    \\/     M anipulation  |                                                 |
\*---------------------------------------------------------------------------*/
FoamFile
{
    version     2.0;
    format      ascii;
    class       volScalarField;
    location    "11.5";
    object      p_rgh;
}
// * * * * * * * * * * * * * * * * * * * * * * * * * * * * * * * * * * * * * //

dimensions      [1 -1 -2 0 0 0 0];

internalField   nonuniform List<scalar> 
87
(
79.9061
38.4974
79.6892
86.5874
38.4841
79.591
111.752
93.8581
103.795
76.1595
95.0906
57.8584
86.4281
39.8773
78.7463
111.217
93.6904
103.631
75.8823
95.3791
57.3964
87.0411
38.7327
79.2194
110.317
93.1433
102.79
75.6041
94.7841
57.3111
86.6661
38.9439
79.2572
111.422
93.7242
103.55
75.9378
95.1913
57.7151
86.9867
39.457
79.748
110.975
93.5923
103.375
75.8937
95.2586
57.6331
87.1538
39.2276
79.5225
110.198
93.1161
102.703
75.6572
94.761
57.5297
86.9067
39.2938
79.5574
110.964
93.6082
103.288
76.0163
95.044
57.8539
86.787
39.2783
79.0992
110.646
93.4708
103.124
75.9356
95.0451
57.6615
86.8698
39.2611
79.0378
110.05
93.1599
102.629
75.73
94.7399
57.6915
86.7723
39.4797
79.3588
)
;

boundaryField
{
    inlet
    {
        type            fixedFluxPressure;
        gradient        nonuniform List<scalar> 9(0.0797732 0.062484 0.0517978 0.108535 0.0745945 0.0624759 0.109421 0.110188 0.131275);
        value           nonuniform List<scalar> 9(111.753 111.218 110.318 111.424 110.976 110.199 110.965 110.648 110.052);
    }
    outlet
    {
        type            fixedValue;
        value           nonuniform 0();
    }
    wall
    {
        type            fixedFluxPressure;
        gradient        nonuniform List<scalar> 
57
(
0.000368441
-4.10547e-05
0.000464542
0.00155875
0.00229884
0.00169336
0.00130875
0.000829883
0.000536832
0.00298462
0.00215511
0.00109527
0.0010671
0.00046525
0.000180269
0.00267057
0.00104765
0.000674953
-0.000422278
-0.00156585
-2.56266e-05
-0.000810442
0.000797795
-0.0016169
-0.003205
0.00151429
0.00222265
0.000232045
-0.000314619
-0.0479341
0.00520768
0.00287544
-0.002265
0.00102478
0.00136739
0.000721512
0.00524639
0.00277063
0.00110476
0.00203414
0.00121326
0.00046577
0.00344818
0.00240982
0.000901749
0.00100252
9.46776e-05
-0.000285542
-1.85469e-05
-0.000524649
-0.0010116
-0.00118959
-0.000979237
0.000112191
0.000602563
-0.00204128
-0.00207513
)
;
        value           nonuniform List<scalar> 
57
(
110.964
110.646
110.05
93.6082
93.4708
93.1599
103.288
103.124
102.629
76.0163
75.9356
75.7301
95.044
95.0451
94.7399
57.854
57.6615
57.6915
86.787
86.8697
86.7723
39.2782
39.2611
39.4797
79.0992
79.0378
79.3589
110.317
110.198
110.049
93.1434
93.1161
93.1598
102.79
102.703
102.629
75.6042
75.6572
75.7301
94.7842
94.761
94.7399
57.3112
57.5298
57.6915
86.5874
86.6661
86.9067
86.7723
38.4841
38.9439
39.2938
39.4797
79.591
79.2572
79.5574
79.3588
)
;
    }
    procBoundary6to0
    {
        type            processor;
        value           uniform 79.547;
    }
    procBoundary6to2
    {
        type            processor;
        value           nonuniform List<scalar> 
32
(
78.9274
38.6584
79.8529
86.2586
38.4724
79.4288
111.1
93.5649
103.169
75.2609
94.7258
56.8522
86.8412
38.5015
38.5015
38.5015
110.584
93.2103
102.993
75.1943
94.8813
56.9002
86.9853
86.9853
86.9853
109.706
92.6618
102.217
74.8867
94.2769
56.7057
56.7057
)
;
    }
    procBoundary6to4
    {
        type            processor;
        value           nonuniform List<scalar> 
27
(
112.262
94.679
104.298
76.4938
95.3481
58.1237
85.9874
39.8989
75.1645
111.881
94.2098
104.03
76.2489
95.4241
57.5325
86.8982
38.8717
78.8185
111.495
93.8888
103.657
76.1282
95.1089
57.5051
86.3428
39.0099
77.8839
)
;
    }
    procBoundary6to7
    {
        type            processor;
        value           nonuniform List<scalar> 
12
(
20.1382
20.0714
20.1584
21.5801
19.2543
20.3636
21.7321
21.2212
20.8724
20.9639
20.7675
21.0339
)
;
    }
}


// ************************************************************************* //
