/*--------------------------------*- C++ -*----------------------------------*\
| =========                 |                                                 |
| \\      /  F ield         | OpenFOAM: The Open Source CFD Toolbox           |
|  \\    /   O peration     | Version:  4.x                                   |
|   \\  /    A nd           | Web:      www.OpenFOAM.org                      |
|    \\/     M anipulation  |                                                 |
\*---------------------------------------------------------------------------*/
FoamFile
{
    version     2.0;
    format      ascii;
    class       volScalarField;
    location    "11.5";
    object      thCond;
}
// * * * * * * * * * * * * * * * * * * * * * * * * * * * * * * * * * * * * * //

dimensions      [1 1 -3 -1 0 0 0];

internalField   nonuniform List<scalar> 
87
(
190.433
190.572
190.477
190.86
190.847
190.813
190.764
190.796
190.804
190.431
190.16
190.297
190.146
190.193
190.031
191.273
190.908
190.804
190.434
190.327
190.243
190.229
190.138
190.13
191.63
191.159
191.072
190.726
190.433
190.256
190.454
190.423
190.339
190.877
190.743
190.549
190.335
190.321
190.183
190.106
190.156
189.988
191.297
190.94
190.731
190.456
190.403
190.375
190.187
190.298
190.076
191.608
191.169
190.988
190.55
190.407
190.412
190.433
190.482
190.42
191.299
191.084
190.76
190.407
190.252
190.143
189.949
190.007
190.349
191.432
191.208
190.827
190.611
190.246
190.351
190.261
190.357
190.151
191.766
191.301
190.995
190.699
190.605
190.296
190.617
190.643
190.431
)
;

boundaryField
{
    inlet
    {
        type            zeroGradient;
    }
    outlet
    {
        type            zeroGradient;
    }
    wall
    {
        type            zeroGradient;
    }
    procBoundary6to0
    {
        type            processor;
        value           uniform 190.767;
    }
    procBoundary6to2
    {
        type            processor;
        value           nonuniform List<scalar> 
32
(
190.911
190.879
190.737
191.054
191.24
190.887
191.507
191.081
190.811
190.758
190.683
190.57
190.468
190.426
190.426
190.426
191.499
191.203
190.877
190.851
190.701
190.606
190.446
190.446
190.446
191.802
191.409
191.194
190.96
190.979
190.809
190.809
)
;
    }
    procBoundary6to4
    {
        type            processor;
        value           nonuniform List<scalar> 
27
(
191.379
191.05
190.683
190.548
190.298
190.277
189.969
190.237
190.235
191.073
190.824
190.634
190.204
190.041
190.091
189.855
190.006
190.083
190.973
190.824
190.682
190.247
190.121
189.913
190.247
190.278
190.19
)
;
    }
    procBoundary6to7
    {
        type            processor;
        value           nonuniform List<scalar> 
12
(
190.123
190.482
190.736
190.175
190.223
190.391
189.898
190.048
190.344
190.046
190.164
190.266
)
;
    }
}


// ************************************************************************* //
