/*--------------------------------*- C++ -*----------------------------------*\
| =========                 |                                                 |
| \\      /  F ield         | OpenFOAM: The Open Source CFD Toolbox           |
|  \\    /   O peration     | Version:  4.x                                   |
|   \\  /    A nd           | Web:      www.OpenFOAM.org                      |
|    \\/     M anipulation  |                                                 |
\*---------------------------------------------------------------------------*/
FoamFile
{
    version     2.0;
    format      ascii;
    class       volVectorField;
    location    "11.5";
    object      Us;
}
// * * * * * * * * * * * * * * * * * * * * * * * * * * * * * * * * * * * * * //

dimensions      [0 1 -1 0 0 0 0];

internalField   nonuniform List<vector> 
87
(
(-4.58661e-06 4.59059e-07 -7.21116e-07)
(-3.68144e-06 3.55841e-09 -3.1226e-07)
(-4.17444e-06 3.19178e-07 -3.73919e-07)
(-1.25738e-06 1.44052e-07 1.06393e-07)
(-1.9707e-06 -3.78466e-08 -3.26557e-07)
(-1.43574e-06 1.65496e-08 -3.35156e-07)
(-1.15614e-07 1.18853e-07 2.30915e-07)
(-2.92315e-07 2.79044e-07 3.67727e-07)
(-6.30637e-07 2.47782e-07 4.65651e-07)
(-9.83925e-07 2.55692e-07 3.41281e-07)
(-1.94364e-06 3.78035e-07 1.05226e-07)
(-3.03329e-06 3.62418e-08 1.45002e-08)
(-3.47388e-06 -3.59078e-08 -2.36883e-07)
(-3.80175e-06 -3.4968e-08 -3.27661e-07)
(-4.1989e-06 9.00602e-08 -4.1897e-07)
(-2.71642e-07 1.37899e-07 1.58826e-07)
(-4.21788e-07 2.827e-07 4.7848e-07)
(-6.16855e-07 2.8483e-07 4.73232e-07)
(-1.04934e-06 2.53099e-07 3.17767e-07)
(-1.54982e-06 3.78242e-07 5.92118e-08)
(-2.26372e-06 2.0739e-07 6.19648e-08)
(-2.96955e-06 -4.61779e-08 -1.55467e-07)
(-3.25383e-06 -9.51379e-08 -3.3782e-07)
(-3.67177e-06 3.87742e-08 -8.56658e-08)
(-1.0312e-08 3.2987e-08 5.15089e-08)
(-1.78699e-08 3.13634e-07 4.11286e-07)
(-2.06267e-07 1.42496e-07 2.92834e-07)
(-5.37638e-07 3.21226e-07 2.67649e-07)
(-6.03342e-07 2.75865e-07 1.47167e-07)
(-1.20071e-06 2.03659e-07 9.53863e-08)
(-1.51397e-06 1.29112e-08 1.47334e-07)
(-1.32993e-06 -6.06417e-08 -2.40805e-08)
(-2.18332e-06 8.2377e-08 -1.20839e-07)
(2.02331e-08 7.41e-09 1.09471e-07)
(-1.56346e-07 1.75073e-07 2.21357e-07)
(-3.58227e-07 1.92252e-07 3.0939e-07)
(-6.34098e-07 1.92328e-07 2.62607e-07)
(-1.06095e-06 2.08048e-07 1.72367e-07)
(-2.17954e-06 1.81557e-07 1.19295e-07)
(-2.65525e-06 -1.13407e-07 -1.68072e-07)
(-3.12929e-06 -2.23183e-07 -1.86761e-07)
(-3.44531e-06 -2.58139e-07 -3.84632e-07)
(-6.26429e-08 6.32802e-08 9.92045e-08)
(-1.75211e-07 1.91009e-07 2.8222e-07)
(-3.08322e-07 2.53873e-07 3.49884e-07)
(-6.55254e-07 2.32166e-07 2.49813e-07)
(-8.28902e-07 2.01553e-07 2.70732e-10)
(-1.86947e-06 1.85525e-07 1.59263e-07)
(-2.26493e-06 -1.58642e-07 -1.64304e-07)
(-2.8387e-06 5.52861e-07 -2.74297e-07)
(-3.36097e-06 -3.2191e-07 1.89935e-07)
(4.26811e-07 -4.48596e-08 -1.00113e-07)
(4.91323e-07 1.86348e-07 -1.00511e-07)
(-9.00367e-08 1.94991e-07 2.13827e-07)
(-2.06021e-07 1.90277e-07 1.85136e-07)
(-3.82153e-07 1.72226e-07 1.65468e-08)
(-6.23915e-07 1.73239e-07 5.20596e-08)
(-9.12828e-07 -4.11854e-08 5.9914e-09)
(-1.20445e-06 -8.99394e-08 -1.50815e-07)
(-1.62851e-06 -3.00809e-07 3.15355e-07)
(5.93378e-08 -5.72656e-08 5.11581e-08)
(4.40512e-09 6.95831e-08 9.31142e-08)
(-1.53754e-07 3.80505e-08 1.76614e-07)
(-3.99952e-07 4.7571e-08 1.68854e-07)
(-7.59696e-07 1.05519e-07 1.42751e-07)
(-1.23835e-06 5.96825e-08 1.43993e-07)
(-1.02091e-06 7.23658e-07 -5.57649e-08)
(-2.09783e-06 -2.35818e-07 -4.20026e-08)
(-2.52498e-06 -6.32643e-07 -4.35692e-07)
(-6.07202e-06 -2.94154e-06 -5.82509e-09)
(-1.83829e-07 2.03318e-07 1.46182e-07)
(-9.64398e-09 6.45474e-08 1.16033e-07)
(-3.14086e-07 1.30202e-07 1.40716e-07)
(-5.85202e-07 1.54236e-07 6.46534e-08)
(-9.46258e-07 1.30444e-07 6.99921e-08)
(6.57676e-07 2.11587e-06 -2.19296e-07)
(-2.21547e-06 8.13746e-07 5.52465e-08)
(-1.94373e-06 -7.18654e-07 2.15728e-07)
(-1.41214e-05 -6.97446e-06 6.75913e-08)
(-5.65186e-07 -1.56643e-07 1.1711e-07)
(1.10369e-08 1.05986e-07 7.88572e-08)
(-1.15668e-07 8.43139e-08 8.35895e-08)
(-1.92348e-07 6.99941e-08 2.70901e-08)
(-4.74715e-07 7.29678e-08 5.46159e-08)
(-5.81707e-07 -2.81324e-09 -3.8871e-09)
(-6.59019e-07 -8.3807e-08 -1.3838e-07)
(-1.03382e-06 -3.16753e-07 3.39271e-07)
)
;

boundaryField
{
    inlet
    {
        type            zeroGradient;
    }
    outlet
    {
        type            zeroGradient;
    }
    wall
    {
        type            zeroGradient;
    }
    procBoundary6to0
    {
        type            processor;
        value           uniform (-5.17091e-06 1.00446e-06 -1.47897e-06);
    }
    procBoundary6to2
    {
        type            processor;
        value           nonuniform List<vector> 
32
(
(-5.34124e-06 1.13585e-06 -1.14108e-06)
(-4.22725e-06 6.60703e-07 -5.70391e-07)
(-4.41191e-06 4.59487e-07 -5.67436e-07)
(-1.90141e-06 5.71427e-07 2.07989e-07)
(-2.23427e-06 5.58678e-07 -2.37526e-07)
(-2.63393e-06 3.82228e-07 -4.8515e-07)
(-7.00217e-08 1.03705e-07 2.45889e-07)
(-4.48538e-07 2.72161e-07 5.0432e-07)
(-9.89624e-07 4.23748e-07 5.54936e-07)
(-1.56921e-06 4.60833e-07 4.27238e-07)
(-2.34014e-06 5.53126e-07 1.24054e-07)
(-3.24753e-06 5.20908e-07 -8.37813e-08)
(-3.98428e-06 6.46361e-07 -6.03565e-07)
(-4.4388e-06 3.73058e-07 -6.96297e-07)
(-4.4388e-06 3.73058e-07 -6.96297e-07)
(-4.4388e-06 3.73058e-07 -6.96297e-07)
(-5.55324e-08 6.75161e-08 1.81655e-07)
(-5.66795e-07 3.27213e-07 6.72469e-07)
(-9.31283e-07 4.11292e-07 5.77064e-07)
(-1.42702e-06 5.15431e-07 4.52564e-07)
(-2.1305e-06 5.82697e-07 3.43282e-07)
(-2.62219e-06 5.27228e-07 1.31304e-08)
(-2.99693e-06 3.71783e-07 -2.82014e-07)
(-2.99693e-06 3.71783e-07 -2.82014e-07)
(-2.99693e-06 3.71783e-07 -2.82014e-07)
(-2.69806e-08 3.3131e-08 1.57626e-07)
(-3.05056e-07 2.98084e-07 5.45077e-07)
(-6.74936e-07 3.43295e-07 5.68578e-07)
(-7.24318e-07 3.03951e-07 3.47852e-07)
(-1.25547e-06 3.81872e-07 2.60916e-07)
(-1.15382e-06 2.87778e-07 1.12196e-07)
(-1.15382e-06 2.87778e-07 1.12196e-07)
)
;
    }
    procBoundary6to4
    {
        type            processor;
        value           nonuniform List<vector> 
27
(
(1.64445e-08 8.46926e-08 2.0419e-07)
(-1.25375e-07 1.39249e-07 2.93834e-07)
(-5.00761e-07 2.85149e-07 3.74532e-07)
(-8.55216e-07 3.14986e-07 2.28124e-07)
(-1.78912e-06 1.94084e-07 -1.03287e-07)
(-3.0231e-06 4.883e-08 -3.71601e-07)
(-3.60757e-06 2.98155e-07 -7.2402e-07)
(-4.02457e-06 5.04977e-08 -7.17268e-07)
(-4.2911e-06 3.15342e-07 -9.42624e-07)
(8.329e-08 3.94096e-08 1.00105e-07)
(3.78012e-09 6.69383e-08 1.77913e-07)
(-3.16845e-07 1.92357e-07 2.79848e-07)
(-5.65599e-07 1.54193e-07 2.30617e-07)
(-8.74486e-07 1.5376e-07 1.38245e-07)
(-2.33541e-06 -1.36691e-07 -4.84068e-08)
(-2.66265e-06 -2.74286e-07 -2.43664e-07)
(-3.13218e-06 -9.77815e-08 -6.45753e-07)
(-3.4168e-06 -2.52571e-08 -9.90055e-07)
(4.49181e-08 -8.19449e-09 5.08753e-08)
(4.40858e-08 -2.61325e-08 7.53132e-08)
(-1.54323e-07 -4.45811e-08 1.61475e-07)
(-3.05638e-07 4.30457e-08 1.19435e-07)
(-5.53902e-07 1.63857e-07 1.84663e-07)
(-1.01603e-06 1.23354e-07 1.34833e-07)
(-1.26529e-06 -1.90573e-07 -1.05292e-07)
(1.07555e-05 -8.06246e-06 -1.79289e-07)
(-1.97132e-06 -5.04103e-07 -2.93216e-07)
)
;
    }
    procBoundary6to7
    {
        type            processor;
        value           nonuniform List<vector> 
12
(
(-4.92347e-06 5.64344e-07 -5.52335e-07)
(-4.30264e-06 1.14136e-07 -1.90669e-07)
(-3.55656e-06 4.96525e-07 -1.94913e-07)
(-4.3867e-06 -3.65033e-08 -3.62758e-07)
(-4.0556e-06 -1.18481e-07 -4.33628e-09)
(-3.28705e-06 -1.74099e-07 2.24469e-07)
(-3.61521e-06 -4.26648e-07 -2.88253e-07)
(-3.25677e-06 -2.97614e-07 1.54188e-07)
(-2.14902e-06 -1.52263e-07 2.43725e-07)
(-2.38217e-06 -6.50796e-07 -1.3245e-07)
(-1.43742e-06 -6.36012e-07 4.66812e-08)
(-1.07662e-06 -7.873e-08 9.68553e-08)
)
;
    }
}


// ************************************************************************* //
