/*--------------------------------*- C++ -*----------------------------------*\
| =========                 |                                                 |
| \\      /  F ield         | OpenFOAM: The Open Source CFD Toolbox           |
|  \\    /   O peration     | Version:  4.x                                   |
|   \\  /    A nd           | Web:      www.OpenFOAM.org                      |
|    \\/     M anipulation  |                                                 |
\*---------------------------------------------------------------------------*/
FoamFile
{
    version     2.0;
    format      ascii;
    class       volScalarField;
    location    "2.5";
    object      partTemp;
}
// * * * * * * * * * * * * * * * * * * * * * * * * * * * * * * * * * * * * * //

dimensions      [0 0 0 1 0 0 0];

internalField   nonuniform List<scalar> 
108
(
300.002
300.003
300.003
300.001
299.998
299.994
299.99
299.986
299.985
300.002
300.004
300.003
300.001
299.998
299.995
299.991
299.988
299.986
300.001
300.001
300.002
300.001
299.999
299.997
299.994
299.992
299.99
300
300.001
300.001
300
299.999
299.998
299.996
299.995
299.994
300.003
300.004
300.003
300.001
299.997
299.994
299.989
299.985
299.983
300.002
300.003
300.003
300.001
299.998
299.994
299.99
299.987
299.985
300.001
300.002
300.002
300.001
299.999
299.996
299.993
299.99
299.989
300.001
300.001
300.001
300.001
299.999
299.998
299.995
299.993
299.992
300.003
300.003
300.003
300.001
299.998
299.993
299.989
299.984
299.982
300.002
300.003
300.003
300.001
299.998
299.994
299.99
299.986
299.984
300.001
300.002
300.003
300.001
299.999
299.996
299.993
299.989
299.988
300.001
300.001
300.002
300.001
299.999
299.997
299.995
299.992
299.991
)
;

boundaryField
{
    inlet
    {
        type            zeroGradient;
    }
    outlet
    {
        type            zeroGradient;
    }
    wall
    {
        type            zeroGradient;
    }
    procBoundary3to1
    {
        type            processor;
        value           nonuniform List<scalar> 
27
(
300.003
300.003
300.002
300
299.997
299.994
299.99
299.987
299.986
300.003
300.003
300.003
300.001
299.996
299.993
299.99
299.986
299.984
300.003
300.003
300.003
300.001
299.998
299.994
299.989
299.986
299.983
)
;
    }
    procBoundary3to2
    {
        type            processor;
        value           nonuniform List<scalar> 
12
(
300.001
300.001
300
300
300.001
300.001
300
300
300.001
300
300
300
)
;
    }
    procBoundary3to7
    {
        type            processor;
        value           nonuniform List<scalar> 
36
(
300.002
300.003
300.003
300.001
299.998
299.994
299.989
299.985
299.982
300.002
300.003
300.003
300.001
299.999
299.996
299.992
299.987
299.984
300.001
300.002
300.003
300.001
299.999
299.997
299.993
299.99
299.988
300.001
300.002
300.002
300.001
299.999
299.998
299.995
299.993
299.992
)
;
    }
}


// ************************************************************************* //
