/*--------------------------------*- C++ -*----------------------------------*\
| =========                 |                                                 |
| \\      /  F ield         | OpenFOAM: The Open Source CFD Toolbox           |
|  \\    /   O peration     | Version:  4.x                                   |
|   \\  /    A nd           | Web:      www.OpenFOAM.org                      |
|    \\/     M anipulation  |                                                 |
\*---------------------------------------------------------------------------*/
FoamFile
{
    version     2.0;
    format      ascii;
    class       volScalarField;
    location    "2.5";
    object      SPartFluid;
}
// * * * * * * * * * * * * * * * * * * * * * * * * * * * * * * * * * * * * * //

dimensions      [1 -3 -1 0 0 0 0];

internalField   nonuniform List<scalar> 
108
(
6.98041e-65
3.26093e-65
5.82194e-65
2.55922e-65
4.10154e-65
3.01036e-65
4.6985e-65
3.99597e-65
4.53327e-65
5.04403e-65
7.76089e-65
4.26962e-65
4.65213e-65
5.41964e-65
3.86158e-65
5.55116e-65
5.08038e-65
5.38083e-65
5.50816e-65
5.12252e-65
4.11357e-65
3.6442e-65
4.95773e-65
3.94683e-65
5.71504e-65
5.3249e-65
4.00839e-65
4.65216e-65
3.56742e-65
4.11083e-65
5.89281e-65
4.10712e-65
5.0352e-65
3.17332e-65
5.33624e-65
4.40634e-65
7.22013e-65
6.60241e-65
9.00723e-65
8.52893e-65
7.58366e-65
6.2512e-65
6.00333e-65
6.21672e-65
8.97461e-65
6.51993e-65
6.21207e-65
7.68594e-65
7.28975e-65
6.81355e-65
6.25445e-65
8.47184e-65
6.84394e-65
6.90863e-65
1.03937e-64
7.52774e-65
7.45046e-65
8.37717e-65
6.5844e-65
7.50179e-65
6.71431e-65
7.24064e-65
8.00263e-65
7.75411e-65
5.66246e-65
6.36097e-65
6.20414e-65
8.21511e-65
5.65185e-65
6.87907e-65
6.64234e-65
5.47859e-65
7.68363e-65
9.00884e-65
8.30867e-65
9.07589e-65
6.1143e-65
6.17405e-65
8.54838e-65
6.75162e-65
7.66418e-65
9.00015e-65
5.12527e-65
7.60932e-65
4.4997e-65
4.64639e-65
7.87993e-65
7.24469e-65
8.76136e-65
6.06087e-65
5.11891e-65
8.84561e-65
8.22701e-65
5.81879e-65
6.81729e-65
7.96513e-65
6.63976e-65
7.15916e-65
5.38475e-65
7.83043e-65
4.03333e-65
5.43003e-65
6.12671e-65
5.58049e-65
7.12326e-65
6.18471e-65
7.87619e-65
8.48232e-65
)
;

boundaryField
{
    inlet
    {
        type            calculated;
        value           nonuniform 0();
    }
    outlet
    {
        type            calculated;
        value           uniform 0;
    }
    wall
    {
        type            calculated;
        value           uniform 0;
    }
    procBoundary3to1
    {
        type            processor;
        value           nonuniform List<scalar> 
27
(
3.495e-65
5.35857e-65
3.4154e-65
7.44244e-65
5.49243e-65
4.32736e-65
4.8546e-65
4.6153e-65
4.46137e-65
8.15378e-65
6.52461e-65
5.74499e-65
5.81598e-65
5.25942e-65
7.33048e-65
8.00973e-65
1.0218e-64
4.83536e-65
7.9175e-65
6.36799e-65
5.12552e-65
9.07763e-65
8.20799e-65
8.80264e-65
6.77182e-65
7.83487e-65
3.45011e-65
)
;
    }
    procBoundary3to2
    {
        type            processor;
        value           nonuniform List<scalar> 
12
(
2.63726e-65
3.95483e-65
3.10092e-65
3.09962e-65
9.38662e-65
5.19601e-65
6.27841e-65
4.26132e-65
7.98662e-65
4.88432e-65
8.37031e-65
6.74042e-65
)
;
    }
    procBoundary3to7
    {
        type            processor;
        value           nonuniform List<scalar> 
36
(
9.92989e-65
7.84071e-65
6.44381e-65
6.75044e-65
1.05348e-64
1.0424e-64
7.93076e-65
5.60501e-65
8.27712e-65
7.67935e-65
9.4698e-65
7.29691e-65
6.75136e-65
8.44422e-65
5.64295e-65
7.4808e-65
6.30577e-65
7.98043e-65
5.50519e-65
7.37113e-65
6.20614e-65
7.13689e-65
7.44173e-65
8.12515e-65
7.49111e-65
7.16721e-65
8.53708e-65
5.1162e-65
7.28917e-65
8.76398e-65
5.58378e-65
7.21163e-65
6.66011e-65
8.04233e-65
5.87172e-65
4.32311e-65
)
;
    }
}


// ************************************************************************* //
