/*--------------------------------*- C++ -*----------------------------------*\
| =========                 |                                                 |
| \\      /  F ield         | OpenFOAM: The Open Source CFD Toolbox           |
|  \\    /   O peration     | Version:  4.x                                   |
|   \\  /    A nd           | Web:      www.OpenFOAM.org                      |
|    \\/     M anipulation  |                                                 |
\*---------------------------------------------------------------------------*/
FoamFile
{
    version     2.0;
    format      ascii;
    class       volScalarField;
    location    "2.5";
    object      thCond;
}
// * * * * * * * * * * * * * * * * * * * * * * * * * * * * * * * * * * * * * //

dimensions      [1 1 -3 -1 0 0 0];

internalField   nonuniform List<scalar> 
108
(
192.029
192.14
191.918
192.087
191.974
192.009
191.705
191.687
191.627
192.06
191.722
191.931
191.936
191.82
191.872
191.537
191.502
191.48
192.145
192.021
192.077
192.023
191.863
191.847
191.579
191.518
191.65
192.449
192.409
192.22
191.902
191.93
191.849
191.896
191.633
191.743
191.227
191.184
190.891
190.867
190.941
190.969
190.815
190.748
190.595
191.276
191.162
190.966
190.982
190.992
190.919
190.617
190.656
190.661
191.097
191.143
191.078
190.983
191
190.866
190.78
190.694
190.684
191.485
191.567
191.385
191.214
190.977
191.063
190.926
190.849
190.969
190.518
190.336
190.275
190.155
190.281
190.173
189.96
190.086
190.093
190.533
190.578
190.38
190.589
190.498
190.134
190.007
189.927
190.144
190.863
190.513
190.447
190.587
190.408
190.135
190.139
190.087
190.251
190.947
191.081
190.851
190.727
190.575
190.326
190.278
190.127
190.141
)
;

boundaryField
{
    inlet
    {
        type            zeroGradient;
    }
    outlet
    {
        type            zeroGradient;
    }
    wall
    {
        type            zeroGradient;
    }
    procBoundary3to1
    {
        type            processor;
        value           nonuniform List<scalar> 
27
(
192.472
192.308
192.277
191.826
191.879
191.856
191.642
191.671
191.842
191.417
191.468
191.423
191.205
191.161
190.899
190.677
190.564
191.143
190.751
190.731
190.748
190.297
190.246
190.106
190.139
190.169
190.68
)
;
    }
    procBoundary3to2
    {
        type            processor;
        value           nonuniform List<scalar> 
12
(
192.572
192.491
192.694
192.923
191.353
191.635
191.669
192.055
190.836
191.01
190.888
191.209
)
;
    }
    procBoundary3to7
    {
        type            processor;
        value           nonuniform List<scalar> 
36
(
190.015
189.964
190.018
189.851
189.473
189.408
189.52
189.744
189.553
190.186
189.861
189.946
189.943
189.667
189.73
189.601
189.677
189.579
190.544
190.134
190.113
190.04
189.811
189.63
189.606
189.687
189.647
190.776
190.335
190.088
190.229
189.976
189.862
189.714
189.932
190.191
)
;
    }
}


// ************************************************************************* //
