/*--------------------------------*- C++ -*----------------------------------*\
| =========                 |                                                 |
| \\      /  F ield         | OpenFOAM: The Open Source CFD Toolbox           |
|  \\    /   O peration     | Version:  4.x                                   |
|   \\  /    A nd           | Web:      www.OpenFOAM.org                      |
|    \\/     M anipulation  |                                                 |
\*---------------------------------------------------------------------------*/
FoamFile
{
    version     2.0;
    format      ascii;
    class       volVectorField;
    location    "2.5";
    object      UsPrev;
}
// * * * * * * * * * * * * * * * * * * * * * * * * * * * * * * * * * * * * * //

dimensions      [0 1 -1 0 0 0 0];

internalField   nonuniform List<vector> 
108
(
(0.000134996 -3.38138e-05 -0.000173201)
(0.000182256 1.49205e-05 -0.000195922)
(0.000222931 9.29913e-05 -0.000124598)
(0.000215636 1.41925e-05 -5.19716e-05)
(0.000240127 -8.23085e-05 3.47648e-05)
(0.000169253 -9.84514e-05 0.000132269)
(0.000102582 -0.00010497 8.34176e-05)
(-7.45839e-05 -0.000100538 8.52409e-05)
(-9.02388e-05 -4.97069e-05 3.4323e-05)
(0.000150057 6.17975e-06 -0.000108024)
(0.000188069 7.45182e-05 -9.11232e-05)
(0.000197908 5.00814e-05 -3.23467e-05)
(0.000185306 2.15878e-06 4.5557e-05)
(0.000181032 -6.44735e-05 7.7927e-05)
(0.000107789 -9.65772e-05 0.000145857)
(2.47877e-05 -0.000109574 0.000127497)
(-3.62158e-05 -0.000107625 9.83706e-05)
(-0.000151887 -4.509e-05 3.53523e-05)
(0.000130257 -2.73968e-05 -4.25651e-05)
(0.000104631 3.95528e-05 1.25841e-06)
(0.000178901 5.55905e-05 2.24758e-05)
(0.000118188 -1.51891e-05 7.61848e-05)
(7.84737e-05 -4.51739e-05 9.09758e-05)
(4.95862e-05 -7.47247e-05 0.000108155)
(1.87764e-05 -0.000124634 9.66334e-05)
(-1.61362e-05 -0.000107157 4.4419e-05)
(-6.21026e-06 -2.61874e-05 1.6984e-05)
(6.53914e-05 -7.58899e-07 -3.10785e-05)
(6.32241e-05 1.17775e-05 -1.70582e-06)
(5.39855e-05 6.03359e-05 1.49973e-05)
(1.36093e-05 -1.79945e-05 4.23755e-05)
(-5.3779e-05 -7.512e-06 5.78179e-05)
(2.79989e-06 -3.48383e-05 4.53846e-05)
(5.16058e-06 -8.03079e-05 2.27066e-05)
(-2.41297e-06 -3.62985e-05 7.33287e-06)
(-3.98277e-06 -9.88276e-06 4.21579e-06)
(0.000132625 -3.90672e-05 -0.000170094)
(0.00013788 -3.08858e-05 -0.000157041)
(0.000150982 -2.26857e-05 -0.000127484)
(0.000147357 -5.27795e-05 -6.48525e-05)
(0.000134271 -8.69285e-05 3.26358e-05)
(0.000104779 -9.48835e-05 0.000108165)
(5.58985e-05 -8.4422e-05 8.70237e-05)
(1.62173e-05 -6.45892e-05 7.89858e-05)
(-2.09673e-05 -3.12631e-05 3.49554e-05)
(0.000115881 -2.60116e-05 -9.97888e-05)
(0.000136199 -4.5837e-06 -8.51454e-05)
(0.000133632 -1.20382e-05 -2.78209e-05)
(0.000128254 -2.73225e-05 2.79743e-05)
(0.000106939 -3.92448e-05 6.64083e-05)
(5.90638e-05 -7.52338e-05 0.000115586)
(5.15429e-05 -5.10226e-05 9.78599e-05)
(-2.87196e-06 -6.21171e-05 6.77509e-05)
(-4.77547e-06 -2.43268e-05 2.28857e-05)
(9.52929e-05 -1.88578e-05 -5.12035e-05)
(8.97214e-05 -3.87423e-06 -1.18353e-05)
(0.000103543 -1.88484e-06 4.23013e-05)
(8.91644e-05 8.74334e-06 7.40477e-05)
(8.32402e-05 -2.51043e-05 6.84146e-05)
(6.16654e-05 -6.35173e-05 7.81723e-05)
(2.21309e-05 -6.59787e-05 7.09138e-05)
(5.80812e-06 -4.89113e-05 4.18576e-05)
(-6.67372e-06 -2.09729e-05 1.70834e-05)
(4.05039e-05 -8.32241e-06 -2.06277e-05)
(5.13891e-05 -2.13851e-06 3.25968e-06)
(4.29215e-05 4.5221e-06 2.31433e-05)
(4.24884e-05 3.40439e-06 4.43933e-05)
(3.67716e-05 -1.38082e-05 2.69946e-05)
(2.11944e-05 -1.63578e-05 3.0442e-05)
(7.78713e-06 -1.7605e-05 2.03035e-05)
(9.14534e-07 -2.09075e-05 9.60927e-06)
(-4.43552e-06 -5.36707e-06 4.50035e-06)
(6.41568e-05 -3.83388e-05 -0.000128362)
(6.77904e-05 -4.43594e-05 -0.00013686)
(5.66246e-05 -4.81504e-05 -8.90332e-05)
(5.37836e-05 -4.96795e-05 -5.48547e-05)
(4.34842e-05 -6.27061e-05 3.21877e-05)
(2.53581e-05 -7.02687e-05 6.61257e-05)
(2.02758e-05 -6.31079e-05 7.55644e-05)
(5.45705e-06 -3.30132e-05 6.03943e-05)
(1.5119e-06 -1.39059e-05 3.97596e-05)
(5.33882e-05 -3.91153e-05 -7.90139e-05)
(6.71068e-05 -2.78515e-05 -6.18892e-05)
(2.24257e-05 -1.22179e-05 -3.58907e-06)
(3.88615e-05 -2.53766e-05 2.88367e-05)
(3.68793e-05 -3.73471e-05 4.28616e-05)
(2.09888e-05 -6.21639e-05 7.65076e-05)
(4.47973e-06 -5.98155e-05 6.64479e-05)
(1.59509e-06 -3.47714e-05 4.20414e-05)
(3.73414e-06 -1.44734e-05 2.178e-05)
(3.08362e-05 -2.71144e-05 -4.52886e-05)
(3.52138e-05 -1.79321e-05 -2.04653e-05)
(2.46455e-05 -9.71148e-06 3.13518e-05)
(2.15539e-05 -3.71283e-05 5.29754e-05)
(3.59018e-05 -3.27524e-05 5.02072e-05)
(2.28206e-05 -3.76726e-05 5.64546e-05)
(9.19637e-06 -4.59492e-05 6.20672e-05)
(-6.93778e-06 -3.33947e-05 3.11756e-05)
(-3.98907e-06 -9.95039e-06 1.17057e-05)
(1.39392e-05 -1.07044e-05 -1.52673e-05)
(8.97792e-06 -6.55175e-06 -1.13145e-06)
(2.32328e-05 -1.24945e-05 2.22693e-05)
(1.58611e-05 -8.55645e-06 2.79036e-05)
(1.82149e-05 -1.45019e-05 3.47399e-05)
(1.16716e-05 -8.68118e-06 2.64785e-05)
(7.98126e-06 -1.56534e-05 2.45575e-05)
(-5.9246e-06 -1.6126e-05 1.46529e-05)
(-4.31139e-06 -6.80384e-06 5.63708e-06)
)
;

boundaryField
{
    inlet
    {
        type            calculated;
        value           nonuniform 0();
    }
    outlet
    {
        type            calculated;
        value           uniform (0 0 0);
    }
    wall
    {
        type            calculated;
        value           uniform (0 0 0);
    }
    procBoundary3to1
    {
        type            processor;
        value           uniform (0 0 0);
    }
    procBoundary3to2
    {
        type            processor;
        value           uniform (0 0 0);
    }
    procBoundary3to7
    {
        type            processor;
        value           uniform (0 0 0);
    }
}


// ************************************************************************* //
