/*--------------------------------*- C++ -*----------------------------------*\
| =========                 |                                                 |
| \\      /  F ield         | OpenFOAM: The Open Source CFD Toolbox           |
|  \\    /   O peration     | Version:  4.x                                   |
|   \\  /    A nd           | Web:      www.OpenFOAM.org                      |
|    \\/     M anipulation  |                                                 |
\*---------------------------------------------------------------------------*/
FoamFile
{
    version     2.0;
    format      ascii;
    class       volScalarField;
    location    "4";
    object      Deff;
}
// * * * * * * * * * * * * * * * * * * * * * * * * * * * * * * * * * * * * * //

dimensions      [0 2 -1 0 0 0 0];

internalField   nonuniform List<scalar> 
87
(
9.81273e-08
9.81999e-08
9.81537e-08
9.8344e-08
9.83427e-08
9.83282e-08
9.82865e-08
9.83012e-08
9.83051e-08
9.81148e-08
9.79788e-08
9.80478e-08
9.79718e-08
9.7996e-08
9.79154e-08
9.85475e-08
9.83593e-08
9.83067e-08
9.8117e-08
9.80639e-08
9.80211e-08
9.80149e-08
9.79707e-08
9.79687e-08
9.87306e-08
9.84889e-08
9.84451e-08
9.82673e-08
9.81172e-08
9.8026e-08
9.81313e-08
9.8118e-08
9.8078e-08
9.83423e-08
9.82726e-08
9.81743e-08
9.80645e-08
9.80594e-08
9.79877e-08
9.79493e-08
9.79736e-08
9.78899e-08
9.85572e-08
9.83734e-08
9.82676e-08
9.81266e-08
9.81012e-08
9.80875e-08
9.79923e-08
9.80493e-08
9.7938e-08
9.87165e-08
9.84911e-08
9.83993e-08
9.81749e-08
9.81025e-08
9.81059e-08
9.81188e-08
9.81467e-08
9.81171e-08
9.85579e-08
9.84458e-08
9.82816e-08
9.81005e-08
9.80221e-08
9.79661e-08
9.7867e-08
9.78954e-08
9.80708e-08
9.8625e-08
9.85098e-08
9.83157e-08
9.82052e-08
9.80183e-08
9.80744e-08
9.80282e-08
9.80793e-08
9.79743e-08
9.87973e-08
9.85584e-08
9.84021e-08
9.82515e-08
9.82034e-08
9.80462e-08
9.82134e-08
9.82277e-08
9.81197e-08
)
;

boundaryField
{
    inlet
    {
        type            calculated;
        value           uniform 0;
    }
    outlet
    {
        type            calculated;
        value           nonuniform 0();
    }
    wall
    {
        type            calculated;
        value           uniform 0;
    }
    procBoundary6to0
    {
        type            processor;
        value           uniform 0;
    }
    procBoundary6to2
    {
        type            processor;
        value           uniform 0;
    }
    procBoundary6to4
    {
        type            processor;
        value           uniform 0;
    }
    procBoundary6to7
    {
        type            processor;
        value           uniform 0;
    }
}


// ************************************************************************* //
