/*--------------------------------*- C++ -*----------------------------------*\
| =========                 |                                                 |
| \\      /  F ield         | OpenFOAM: The Open Source CFD Toolbox           |
|  \\    /   O peration     | Version:  4.x                                   |
|   \\  /    A nd           | Web:      www.OpenFOAM.org                      |
|    \\/     M anipulation  |                                                 |
\*---------------------------------------------------------------------------*/
FoamFile
{
    version     2.0;
    format      ascii;
    class       volScalarField;
    location    "4";
    object      Ksl;
}
// * * * * * * * * * * * * * * * * * * * * * * * * * * * * * * * * * * * * * //

dimensions      [1 -3 -1 0 0 0 0];

internalField   nonuniform List<scalar> 
87
(
3582.92
235053
4107.8
2989.27
4730.12
2773.39
3661.52
18346.6
4005.59
77106.2
4131.09
205903
4126.69
115250
4015.82
3486.36
14102.9
3732.39
25581.5
3946.52
39431
4104.57
24260.3
4214.35
3384.17
8399.94
3360.09
6899.78
3319.39
6036.73
3176.74
5352.94
3006.96
3509.19
13769.6
3680.98
22789.8
3758.88
40471.3
3775.94
56986.4
3630.41
3398.97
13148.1
3586.8
21005.6
3754.46
43263.2
3947.58
200566
3923.68
3358.56
8376.78
3296.67
6764.3
3224.23
5639.94
3091.46
4853.6
2885.41
3437.42
8984.94
3440.86
7940.85
3383.54
7573.19
3443.33
8959.18
3572.48
3374.78
8835.26
3362.19
7453.84
3288.9
6532.1
3232.5
6561.86
3169.28
3347.28
8335.2
3293.57
6911.61
3182.17
5771.77
3071.95
4911.95
2872.1
)
;

boundaryField
{
    inlet
    {
        type            zeroGradient;
    }
    outlet
    {
        type            zeroGradient;
    }
    wall
    {
        type            zeroGradient;
    }
    procBoundary6to0
    {
        type            processor;
        value           uniform 3603.78;
    }
    procBoundary6to2
    {
        type            processor;
        value           nonuniform List<scalar> 
32
(
3567.12
57233.9
4713.65
3049.08
5070.49
2830.71
3479.67
17577.8
3743.67
36565.4
3742.42
42523.8
3675.17
43379.3
43379.3
43379.3
3426.36
13741.3
3704.5
20993.8
3846.32
35153.5
3962.37
3962.37
3962.37
3346.59
8588.83
3360.61
6865.87
3222.21
5522.69
5522.69
)
;
    }
    procBoundary6to4
    {
        type            processor;
        value           nonuniform List<scalar> 
27
(
3545.58
15103.5
3913.5
30849.8
4111.84
67436.5
4253.16
2.65092e+09
4282.15
3458.8
12798.8
3634.11
16342.5
3721.57
24593.4
3750.43
58589.5
3505.36
3473.38
9491.58
3467.91
8039.81
3343.79
6543.4
3108.24
5475.14
2938.47
)
;
    }
    procBoundary6to7
    {
        type            processor;
        value           nonuniform List<scalar> 
12
(
29883.3
465951
4303.99
84280.5
2.19146e+09
4698.78
11832.6
2.54444e+09
4225.35
13733.1
6339.96
4154.39
)
;
    }
}


// ************************************************************************* //
