/*--------------------------------*- C++ -*----------------------------------*\
| =========                 |                                                 |
| \\      /  F ield         | OpenFOAM: The Open Source CFD Toolbox           |
|  \\    /   O peration     | Version:  4.x                                   |
|   \\  /    A nd           | Web:      www.OpenFOAM.org                      |
|    \\/     M anipulation  |                                                 |
\*---------------------------------------------------------------------------*/
FoamFile
{
    version     2.0;
    format      ascii;
    class       volScalarField;
    location    "4";
    object      particleRelTemp;
}
// * * * * * * * * * * * * * * * * * * * * * * * * * * * * * * * * * * * * * //

dimensions      [0 0 0 0 0 0 0];

internalField   nonuniform List<scalar> 
87
(
-2.32516e-07
-9.12112e-09
-4.40841e-07
6.84681e-08
-1.51038e-07
-5.09004e-07
-7.12824e-07
-2.39054e-07
2.70589e-07
6.59388e-07
8.3285e-07
7.75643e-07
5.84295e-07
1.70138e-07
-3.03022e-07
-7.38004e-07
-4.08556e-07
4.01833e-08
3.86603e-07
5.27702e-07
5.54251e-07
2.92936e-07
6.55773e-08
-3.84573e-07
-8.73783e-07
-4.91948e-07
-1.96501e-07
1.63792e-07
2.5951e-07
3.08834e-07
1.20427e-07
-1.30629e-07
-4.86533e-07
-7.97364e-07
-3.13932e-07
6.14137e-08
4.07282e-07
5.51105e-07
5.81586e-07
4.19694e-07
1.66664e-07
-2.73461e-07
-8.31735e-07
-4.62975e-07
-1.18925e-07
2.42483e-07
3.3182e-07
4.00891e-07
2.402e-07
3.50234e-08
-3.81651e-07
-8.96145e-07
-5.63898e-07
-2.41088e-07
-1.92009e-08
1.31876e-07
1.2689e-07
-2.08891e-10
-1.58433e-07
-5.22589e-07
-8.37459e-07
-4.8854e-07
-1.07839e-07
2.00132e-07
3.4578e-07
3.69963e-07
2.55185e-07
-2.61344e-08
-3.19904e-07
-8.58941e-07
-6.03634e-07
-2.75742e-07
-4.45899e-09
1.60486e-07
1.78611e-07
1.22089e-07
-1.52171e-07
-4.76313e-07
-9.71034e-07
-6.11575e-07
-3.98384e-07
-1.73855e-07
-7.19293e-08
-1.40028e-08
-1.25297e-07
-3.17938e-07
-6.02819e-07
)
;

boundaryField
{
    inlet
    {
        type            calculated;
        value           nonuniform List<scalar> 9(-7.12824e-07 -7.38004e-07 -8.73783e-07 -7.97364e-07 -8.31735e-07 -8.96145e-07 -8.37459e-07 -8.58941e-07 -9.71034e-07);
    }
    outlet
    {
        type            calculated;
        value           nonuniform 0();
    }
    wall
    {
        type            calculated;
        value           nonuniform List<scalar> 
57
(
-8.37459e-07
-8.58941e-07
-9.71034e-07
-4.8854e-07
-6.03634e-07
-6.11575e-07
-1.07839e-07
-2.75742e-07
-3.98384e-07
2.00132e-07
-4.45899e-09
-1.73855e-07
3.4578e-07
1.60486e-07
-7.19293e-08
3.69963e-07
1.78611e-07
-1.40028e-08
2.55185e-07
1.22089e-07
-1.25297e-07
-2.61344e-08
-1.52171e-07
-3.17938e-07
-3.19904e-07
-4.76313e-07
-6.02819e-07
-8.73783e-07
-8.96145e-07
-9.71034e-07
-4.91948e-07
-5.63898e-07
-6.11575e-07
-1.96501e-07
-2.41088e-07
-3.98384e-07
1.63792e-07
-1.92009e-08
-1.73855e-07
2.5951e-07
1.31876e-07
-7.19293e-08
3.08834e-07
1.2689e-07
-1.40028e-08
6.84681e-08
1.20427e-07
-2.08891e-10
-1.25297e-07
-1.51038e-07
-1.30629e-07
-1.58433e-07
-3.17938e-07
-5.09004e-07
-4.86533e-07
-5.22589e-07
-6.02819e-07
)
;
    }
    procBoundary6to0
    {
        type            processor;
        value           uniform -3.24509e-07;
    }
    procBoundary6to2
    {
        type            processor;
        value           nonuniform List<scalar> 
32
(
-3.61222e-07
-8.47459e-08
-5.05832e-07
3.42635e-08
-1.71144e-07
-5.31289e-07
-7.31452e-07
-1.64573e-07
2.86996e-07
6.07822e-07
8.21069e-07
7.76529e-07
4.96575e-07
4.17351e-08
4.17351e-08
4.17351e-08
-8.54794e-07
-3.3724e-07
1.56776e-09
4.24954e-07
5.79092e-07
5.51413e-07
3.03327e-07
3.03327e-07
3.03327e-07
-9.11914e-07
-5.09418e-07
-1.17994e-07
1.4388e-07
3.01298e-07
2.70656e-07
2.70656e-07
)
;
    }
    procBoundary6to4
    {
        type            processor;
        value           nonuniform List<scalar> 
27
(
-7.73061e-07
-2.88707e-07
2.74638e-07
6.53448e-07
8.7873e-07
8.82801e-07
5.66948e-07
1.89446e-07
-1.94327e-07
-7.92793e-07
-3.91215e-07
1.37093e-07
4.2849e-07
6.52184e-07
6.59602e-07
4.85015e-07
1.18599e-07
-3.03592e-07
-8.07007e-07
-4.49521e-07
-7.86064e-08
2.80934e-07
4.09555e-07
4.339e-07
2.19441e-07
-4.13738e-08
-2.97693e-07
)
;
    }
    procBoundary6to7
    {
        type            processor;
        value           nonuniform List<scalar> 
12
(
-7.91136e-07
-8.07647e-07
-9.15491e-07
-7.70987e-07
-7.58856e-07
-8.06996e-07
-6.67091e-07
-7.33795e-07
-8.18822e-07
-6.17762e-07
-7.49686e-07
-8.1024e-07
)
;
    }
}


// ************************************************************************* //
