/*--------------------------------*- C++ -*----------------------------------*\
| =========                 |                                                 |
| \\      /  F ield         | OpenFOAM: The Open Source CFD Toolbox           |
|  \\    /   O peration     | Version:  4.x                                   |
|   \\  /    A nd           | Web:      www.OpenFOAM.org                      |
|    \\/     M anipulation  |                                                 |
\*---------------------------------------------------------------------------*/
FoamFile
{
    version     2.0;
    format      ascii;
    class       volScalarField;
    location    "4";
    object      thCond;
}
// * * * * * * * * * * * * * * * * * * * * * * * * * * * * * * * * * * * * * //

dimensions      [1 1 -3 -1 0 0 0];

internalField   nonuniform List<scalar> 
87
(
190.482
190.623
190.534
190.903
190.901
190.872
190.792
190.82
190.828
190.458
190.194
190.328
190.181
190.228
190.071
191.298
190.933
190.831
190.462
190.359
190.276
190.264
190.178
190.174
191.654
191.184
191.099
190.754
190.463
190.286
190.49
190.464
190.387
190.9
190.764
190.574
190.36
190.351
190.211
190.137
190.184
190.022
191.317
190.96
190.755
190.481
190.432
190.405
190.22
190.331
190.115
191.626
191.189
191.01
190.575
190.434
190.441
190.466
190.52
190.463
191.318
191.101
190.782
190.43
190.278
190.169
189.977
190.032
190.373
191.449
191.225
190.848
190.634
190.271
190.38
190.29
190.389
190.185
191.783
191.319
191.016
190.724
190.63
190.325
190.649
190.677
190.468
)
;

boundaryField
{
    inlet
    {
        type            zeroGradient;
    }
    outlet
    {
        type            zeroGradient;
    }
    wall
    {
        type            zeroGradient;
    }
    procBoundary6to0
    {
        type            processor;
        value           uniform 190.804;
    }
    procBoundary6to2
    {
        type            processor;
        value           nonuniform List<scalar> 
32
(
190.982
190.952
190.825
191.113
191.318
190.981
191.529
191.106
190.838
190.789
190.713
190.605
190.509
190.468
190.468
190.468
191.523
191.229
190.907
190.885
190.736
190.645
190.493
190.493
190.493
191.824
191.431
191.223
190.993
191.015
190.85
190.85
)
;
    }
    procBoundary6to4
    {
        type            processor;
        value           nonuniform List<scalar> 
27
(
191.4
191.071
190.708
190.577
190.329
190.309
190.002
190.266
190.264
191.092
190.843
190.657
190.23
190.071
190.122
189.884
190.034
190.106
190.987
190.84
190.702
190.271
190.149
189.938
190.275
190.305
190.22
)
;
    }
    procBoundary6to7
    {
        type            processor;
        value           nonuniform List<scalar> 
12
(
190.174
190.54
190.804
190.212
190.269
190.451
189.927
190.085
190.392
190.079
190.199
190.305
)
;
    }
}


// ************************************************************************* //
