/*--------------------------------*- C++ -*----------------------------------*\
| =========                 |                                                 |
| \\      /  F ield         | OpenFOAM: The Open Source CFD Toolbox           |
|  \\    /   O peration     | Version:  4.x                                   |
|   \\  /    A nd           | Web:      www.OpenFOAM.org                      |
|    \\/     M anipulation  |                                                 |
\*---------------------------------------------------------------------------*/
FoamFile
{
    version     2.0;
    format      ascii;
    class       volScalarField;
    location    "56.5";
    object      particleRelTemp;
}
// * * * * * * * * * * * * * * * * * * * * * * * * * * * * * * * * * * * * * //

dimensions      [0 0 0 0 0 0 0];

internalField   nonuniform List<scalar> 
87
(
2.42261e-09
3.41731e-10
-1.70126e-09
-2.62785e-09
-2.88247e-09
-2.60608e-09
-2.02148e-09
-1.46674e-09
-1.15395e-09
3.58312e-09
8.3343e-10
-1.67597e-09
-2.82033e-09
-3.31789e-09
-2.93474e-09
-2.23158e-09
-1.43255e-09
-1.0887e-09
3.02446e-09
1.23218e-09
-8.08708e-10
-2.42915e-09
-3.02689e-09
-2.87036e-09
-2.37481e-09
-1.49435e-09
-1.01535e-09
3.40722e-09
1.20931e-10
-1.6734e-09
-2.74735e-09
-3.0287e-09
-2.52255e-09
-1.96917e-09
-1.28056e-09
-1.00205e-09
3.39632e-09
9.75996e-10
-1.55076e-09
-2.87109e-09
-3.10612e-09
-2.74415e-09
-2.11254e-09
-1.2432e-09
-7.28923e-10
3.47092e-09
1.10297e-09
-1.27565e-09
-2.76223e-09
-2.99316e-09
-2.67298e-09
-2.19718e-09
-1.39541e-09
-6.78609e-10
2.76756e-09
3.72813e-10
-1.80377e-09
-2.60904e-09
-2.68245e-09
-2.04745e-09
-1.42901e-09
-9.21549e-10
-6.86778e-10
2.79273e-09
3.46704e-10
-1.71096e-09
-2.84931e-09
-2.73933e-09
-2.22179e-09
-1.43176e-09
-8.86754e-10
-3.57603e-10
3.47702e-09
9.21533e-11
-1.5172e-09
-2.51544e-09
-2.5957e-09
-2.11452e-09
-1.40346e-09
-8.16813e-10
-3.72029e-10
2.16224e-09
-5.27861e-10
-1.71875e-09
1.7371e-09
-5.30534e-10
2.11676e-09
)
;

boundaryField
{
    inlet
    {
        type            calculated;
        value           nonuniform 0();
    }
    outlet
    {
        type            calculated;
        value           nonuniform List<scalar> 9(-1.15395e-09 -1.0887e-09 -1.01535e-09 -1.00205e-09 -7.28923e-10 -6.78609e-10 -6.86778e-10 -3.57603e-10 -3.72029e-10);
    }
    wall
    {
        type            calculated;
        value           nonuniform List<scalar> 
57
(
2.42261e-09
3.58312e-09
3.02446e-09
3.41731e-10
8.3343e-10
1.23218e-09
-1.70126e-09
-1.67597e-09
-8.08708e-10
-2.62785e-09
-2.82033e-09
-2.42915e-09
-2.88247e-09
-3.31789e-09
-3.02689e-09
-2.60608e-09
-2.93474e-09
-2.87036e-09
-2.02148e-09
-2.23158e-09
-2.37481e-09
-1.46674e-09
-1.43255e-09
-1.49435e-09
-1.15395e-09
-1.0887e-09
-1.01535e-09
2.42261e-09
3.40722e-09
2.76756e-09
2.16224e-09
3.41731e-10
1.20931e-10
3.72813e-10
-5.27861e-10
-1.70126e-09
-1.6734e-09
-1.80377e-09
-1.71875e-09
-2.62785e-09
-2.74735e-09
-2.60904e-09
-2.88247e-09
-3.0287e-09
-2.68245e-09
-2.60608e-09
-2.52255e-09
-2.04745e-09
-2.02148e-09
-1.96917e-09
-1.42901e-09
-1.46674e-09
-1.28056e-09
-9.21549e-10
-1.15395e-09
-1.00205e-09
-6.86778e-10
)
;
    }
    procBoundary1to0
    {
        type            processor;
        value           nonuniform List<scalar> 
12
(
4.67458e-09
5.56211e-09
5.77874e-09
5.08314e-09
5.63596e-09
5.73072e-09
4.80605e-09
4.98091e-09
5.1937e-09
3.66418e-09
3.94878e-09
3.3279e-09
)
;
    }
    procBoundary1to3
    {
        type            processor;
        value           nonuniform List<scalar> 
27
(
3.59122e-09
1.86112e-09
-4.38327e-10
-1.43017e-09
-2.19195e-09
-2.35597e-09
-2.31319e-09
-1.51695e-09
-1.09647e-09
3.07153e-09
1.00765e-09
-5.3322e-10
-1.92639e-09
-2.38923e-09
-2.38941e-09
-2.03086e-09
-1.45681e-09
-1.01112e-09
1.95346e-09
7.36075e-10
-1.09537e-09
-2.06877e-09
-2.35627e-09
-2.11852e-09
-1.62342e-09
-8.87308e-10
-5.7514e-10
)
;
    }
    procBoundary1to5
    {
        type            processor;
        value           nonuniform List<scalar> 
32
(
-2.3779e-09
-2.22181e-09
-1.67155e-09
-9.38968e-10
-4.80748e-10
-1.61021e-10
-2.04168e-09
-2.5331e-09
-2.29984e-09
-1.56644e-09
-1.01717e-09
-3.54811e-10
-6.72929e-12
4.89337e-11
-1.88457e-09
-2.36543e-09
-2.215e-09
-1.54994e-09
-8.69409e-10
-3.29805e-10
1.42688e-10
2.25078e-10
-9.65296e-10
-2.3779e-09
-2.04168e-09
-1.9444e-09
2.52478e-10
-2.04168e-09
4.89337e-11
-9.91629e-10
4.89337e-11
-2.53196e-10
)
;
    }
    procBoundary1to7
    {
        type            processor;
        value           uniform 9.55289e-10;
    }
}


// ************************************************************************* //
