/*--------------------------------*- C++ -*----------------------------------*\
| =========                 |                                                 |
| \\      /  F ield         | OpenFOAM: The Open Source CFD Toolbox           |
|  \\    /   O peration     | Version:  4.x                                   |
|   \\  /    A nd           | Web:      www.OpenFOAM.org                      |
|    \\/     M anipulation  |                                                 |
\*---------------------------------------------------------------------------*/
FoamFile
{
    version     2.0;
    format      ascii;
    class       volScalarField;
    location    "7";
    object      nu;
}
// * * * * * * * * * * * * * * * * * * * * * * * * * * * * * * * * * * * * * //

dimensions      [0 2 -1 0 0 0 0];

internalField   nonuniform List<scalar> 
114
(
1.00052e-06
1.00088e-06
1.00122e-06
1.00137e-06
1.00125e-06
1.00093e-06
1.00001e-06
1.00008e-06
1.00023e-06
1.00049e-06
1.00085e-06
1.00122e-06
1.00144e-06
1.0014e-06
1.00113e-06
1.00002e-06
1.00008e-06
1.00023e-06
1.00048e-06
1.00082e-06
1.00117e-06
1.00144e-06
1.00151e-06
1.00134e-06
1.00002e-06
1.00008e-06
1.0002e-06
1.00039e-06
1.00066e-06
1.00096e-06
1.00124e-06
1.00145e-06
1.00155e-06
1.00087e-06
1.00089e-06
1.00071e-06
1.00046e-06
1.00001e-06
1.00005e-06
1.00017e-06
1.00039e-06
1.00066e-06
1.00085e-06
1.0009e-06
1.00076e-06
1.00052e-06
1.00001e-06
1.00005e-06
1.00016e-06
1.00037e-06
1.00063e-06
1.00085e-06
1.00096e-06
1.00088e-06
1.00069e-06
1.00001e-06
1.00004e-06
1.00013e-06
1.00028e-06
1.00049e-06
1.00072e-06
1.00093e-06
1.00108e-06
1.00115e-06
1.00043e-06
1.00027e-06
1e-06
1.00003e-06
1.00011e-06
1.00025e-06
1.00042e-06
1.00051e-06
1.00052e-06
1.00041e-06
1.00025e-06
1e-06
1.00003e-06
1.0001e-06
1.00023e-06
1.0004e-06
1.00052e-06
1.00058e-06
1.0005e-06
1.00034e-06
1e-06
1.00003e-06
1.00008e-06
1.00018e-06
1.00032e-06
1.00047e-06
1.00063e-06
1.00073e-06
1.0008e-06
1e-06
1.00002e-06
1.00007e-06
1.00015e-06
1.00024e-06
1.00029e-06
1.00029e-06
1.00022e-06
1e-06
1.00002e-06
1.00006e-06
1.00014e-06
1.00024e-06
1.00031e-06
1.00034e-06
1e-06
1.00002e-06
1.00005e-06
1.0001e-06
1.00018e-06
1.00027e-06
)
;

boundaryField
{
    inlet
    {
        type            calculated;
        value           uniform 1e-06;
    }
    outlet
    {
        type            calculated;
        value           nonuniform 0();
    }
    wall
    {
        type            calculated;
        value           nonuniform List<scalar> 
66
(
1.00001e-06
1.00002e-06
1.00002e-06
1.00008e-06
1.00008e-06
1.00008e-06
1.00023e-06
1.00023e-06
1.0002e-06
1.00052e-06
1.00049e-06
1.00048e-06
1.00039e-06
1.00088e-06
1.00085e-06
1.00082e-06
1.00066e-06
1.00122e-06
1.00122e-06
1.00117e-06
1.00096e-06
1.00137e-06
1.00144e-06
1.00144e-06
1.00124e-06
1.00125e-06
1.0014e-06
1.00151e-06
1.00145e-06
1.00093e-06
1.00113e-06
1.00134e-06
1.00155e-06
1.00002e-06
1.00001e-06
1e-06
1e-06
1.00008e-06
1.00004e-06
1.00003e-06
1.00002e-06
1.0002e-06
1.00013e-06
1.00008e-06
1.00005e-06
1.00039e-06
1.00028e-06
1.00018e-06
1.0001e-06
1.00066e-06
1.00049e-06
1.00032e-06
1.00018e-06
1.00096e-06
1.00072e-06
1.00047e-06
1.00027e-06
1.00124e-06
1.00093e-06
1.00063e-06
1.00145e-06
1.00108e-06
1.00073e-06
1.00155e-06
1.00115e-06
1.0008e-06
)
;
    }
    procBoundary2to0
    {
        type            processor;
        value           nonuniform List<scalar> 
44
(
1.00049e-06
1.00084e-06
1.00118e-06
1.00138e-06
1.00134e-06
1.00107e-06
1.00001e-06
1.00008e-06
1.00024e-06
1.00024e-06
1.00045e-06
1.00072e-06
1.00083e-06
1.00085e-06
1.00067e-06
1.0004e-06
1.00001e-06
1.00006e-06
1.0002e-06
1.00045e-06
1.00072e-06
1.00072e-06
1.00054e-06
1.00054e-06
1.00038e-06
1.00019e-06
1e-06
1.00004e-06
1.00013e-06
1.00029e-06
1.00046e-06
1.00054e-06
1.00054e-06
1.00054e-06
1.0003e-06
1.00019e-06
1e-06
1.00003e-06
1.00009e-06
1.00019e-06
1.0003e-06
1.00036e-06
1.00036e-06
1.0003e-06
)
;
    }
    procBoundary2to3
    {
        type            processor;
        value           nonuniform List<scalar> 
12
(
1.00052e-06
1.00075e-06
1.001e-06
1.00152e-06
1.00017e-06
1.00026e-06
1.0004e-06
1.00113e-06
1.0001e-06
1.00008e-06
1.00014e-06
1.00079e-06
)
;
    }
    procBoundary2to6
    {
        type            processor;
        value           nonuniform List<scalar> 
32
(
1.00011e-06
1.00028e-06
1.00017e-06
1.00037e-06
1.00044e-06
1.0005e-06
1e-06
1.00002e-06
1.00006e-06
1.00014e-06
1.00021e-06
1.00023e-06
1.0002e-06
1.00011e-06
1.00028e-06
1.00011e-06
1e-06
1.00002e-06
1.00005e-06
1.00011e-06
1.00018e-06
1.00022e-06
1.00028e-06
1.00037e-06
1.00022e-06
1e-06
1.00001e-06
1.00004e-06
1.00008e-06
1.00014e-06
1.00037e-06
1.0002e-06
)
;
    }
}


// ************************************************************************* //
