/*--------------------------------*- C++ -*----------------------------------*\
| =========                 |                                                 |
| \\      /  F ield         | OpenFOAM: The Open Source CFD Toolbox           |
|  \\    /   O peration     | Version:  4.x                                   |
|   \\  /    A nd           | Web:      www.OpenFOAM.org                      |
|    \\/     M anipulation  |                                                 |
\*---------------------------------------------------------------------------*/
FoamFile
{
    version     2.0;
    format      ascii;
    class       volScalarField;
    location    "7";
    object      QWallFluidCoeff;
}
// * * * * * * * * * * * * * * * * * * * * * * * * * * * * * * * * * * * * * //

dimensions      [1 -1 -3 -1 0 0 0];

internalField   nonuniform List<scalar> 
114
(
-1.95146e+06
-3.10711e+06
-1.73649e+06
-3.00903e+06
-1.24146e+06
-3.01553e+06
-2.77366e+06
-1.68331e+06
-3.02006e+06
-2.04125e+06
-3.15158e+06
-1.96295e+06
-3.0914e+06
-1.5692e+06
-3.03905e+06
-2.8069e+06
-1.7388e+06
-3.09724e+06
-2.18928e+06
-3.29572e+06
-2.25396e+06
-3.30318e+06
-1.96894e+06
-3.28521e+06
-5.59598e+06
-3.72762e+06
-6.35307e+06
-4.9113e+06
-7.05794e+06
-5.63373e+06
-7.5087e+06
-5.86497e+06
-7.80965e+06
0
0
0
0
0
0
0
0
0
0
0
0
0
0
0
0
0
0
0
0
0
0
-2.75297e+06
-1.62534e+06
-2.91057e+06
-1.89799e+06
-3.06517e+06
-2.13134e+06
-3.28083e+06
-2.41326e+06
-3.61742e+06
0
0
0
0
0
0
0
0
0
0
0
0
0
0
0
0
0
0
0
0
-2.71405e+06
-1.48826e+06
-2.77663e+06
-1.6212e+06
-2.87063e+06
-1.83297e+06
-3.04699e+06
-2.17481e+06
-3.40327e+06
0
0
0
0
0
0
0
0
0
0
0
0
0
0
0
-2.69049e+06
-1.50489e+06
-2.75842e+06
-1.64569e+06
-2.85953e+06
-1.8576e+06
)
;

boundaryField
{
    inlet
    {
        type            calculated;
        value           uniform 0;
    }
    outlet
    {
        type            calculated;
        value           nonuniform 0();
    }
    wall
    {
        type            calculated;
        value           uniform 0;
    }
    procBoundary2to0
    {
        type            processor;
        value           uniform 0;
    }
    procBoundary2to3
    {
        type            processor;
        value           uniform 0;
    }
    procBoundary2to6
    {
        type            processor;
        value           uniform 0;
    }
}


// ************************************************************************* //
