/*--------------------------------*- C++ -*----------------------------------*\
| =========                 |                                                 |
| \\      /  F ield         | OpenFOAM: The Open Source CFD Toolbox           |
|  \\    /   O peration     | Version:  4.x                                   |
|   \\  /    A nd           | Web:      www.OpenFOAM.org                      |
|    \\/     M anipulation  |                                                 |
\*---------------------------------------------------------------------------*/
FoamFile
{
    version     2.0;
    format      ascii;
    class       volScalarField;
    location    "7";
    object      rho;
}
// * * * * * * * * * * * * * * * * * * * * * * * * * * * * * * * * * * * * * //

dimensions      [1 -3 0 0 0 0 0];

internalField   nonuniform List<scalar> 
114
(
6696.54
6694.1
6691.84
6690.86
6691.65
6693.76
6699.91
6699.49
6698.48
6696.7
6694.28
6691.83
6690.4
6690.66
6692.46
6699.89
6699.46
6698.46
6696.8
6694.54
6692.14
6690.36
6689.91
6691.06
6699.89
6699.5
6698.67
6697.37
6695.58
6693.59
6691.68
6690.27
6689.65
6694.15
6694.06
6695.25
6696.95
6699.95
6699.66
6698.85
6697.36
6695.55
6694.3
6693.94
6694.92
6696.49
6699.95
6699.66
6698.91
6697.54
6695.79
6694.33
6693.55
6694.08
6695.4
6699.94
6699.7
6699.11
6698.11
6696.71
6695.21
6693.78
6692.79
6692.31
6697.14
6698.18
6699.97
6699.79
6699.27
6698.32
6697.21
6696.58
6696.51
6697.25
6698.32
6699.97
6699.79
6699.32
6698.44
6697.33
6696.51
6696.13
6696.67
6697.69
6699.97
6699.82
6699.43
6698.77
6697.82
6696.82
6695.8
6695.1
6694.65
6699.98
6699.87
6699.56
6699.02
6698.41
6698.06
6698.04
6698.51
6699.98
6699.88
6699.58
6699.05
6698.39
6697.91
6697.71
6699.98
6699.9
6699.67
6699.3
6698.77
6698.18
)
;

boundaryField
{
    inlet
    {
        type            calculated;
        value           uniform 6700;
    }
    outlet
    {
        type            calculated;
        value           nonuniform 0();
    }
    wall
    {
        type            calculated;
        value           nonuniform List<scalar> 
66
(
6699.91
6699.89
6699.89
6699.49
6699.46
6699.5
6698.48
6698.46
6698.67
6696.54
6696.7
6696.8
6697.37
6694.1
6694.28
6694.54
6695.58
6691.84
6691.83
6692.14
6693.59
6690.86
6690.4
6690.36
6691.68
6691.65
6690.66
6689.91
6690.27
6693.76
6692.46
6691.06
6689.65
6699.89
6699.94
6699.97
6699.98
6699.5
6699.7
6699.82
6699.9
6698.67
6699.11
6699.43
6699.67
6697.37
6698.11
6698.77
6699.3
6695.58
6696.71
6697.82
6698.77
6693.59
6695.21
6696.82
6698.18
6691.68
6693.78
6695.8
6690.27
6692.79
6695.1
6689.65
6692.31
6694.65
)
;
    }
    procBoundary2to0
    {
        type            processor;
        value           nonuniform List<scalar> 
44
(
6696.72
6694.38
6692.08
6690.76
6691.01
6692.81
6699.91
6699.48
6698.41
6698.41
6696.99
6695.17
6694.46
6694.32
6695.53
6697.32
6699.95
6699.61
6698.66
6696.99
6695.17
6695.17
6696.36
6696.38
6697.47
6698.75
6699.97
6699.75
6699.13
6698.06
6696.89
6696.36
6696.38
6696.38
6698
6698.74
6699.98
6699.83
6699.42
6698.72
6697.96
6697.58
6697.56
6698
)
;
    }
    procBoundary2to3
    {
        type            processor;
        value           nonuniform List<scalar> 
12
(
6696.55
6695.01
6693.33
6689.85
6698.89
6698.28
6697.32
6692.47
6699.31
6699.49
6699.08
6694.68
)
;
    }
    procBoundary2to6
    {
        type            processor;
        value           nonuniform List<scalar> 
32
(
6699.27
6698.1
6698.86
6697.53
6697.04
6696.65
6699.98
6699.88
6699.59
6699.09
6698.61
6698.43
6698.65
6699.27
6698.1
6699.28
6699.98
6699.9
6699.66
6699.26
6698.8
6698.52
6698.1
6697.53
6698.52
6699.98
6699.92
6699.75
6699.47
6699.09
6697.53
6698.68
)
;
    }
}


// ************************************************************************* //
