/*--------------------------------*- C++ -*----------------------------------*\
| =========                 |                                                 |
| \\      /  F ield         | OpenFOAM: The Open Source CFD Toolbox           |
|  \\    /   O peration     | Version:  4.x                                   |
|   \\  /    A nd           | Web:      www.OpenFOAM.org                      |
|    \\/     M anipulation  |                                                 |
\*---------------------------------------------------------------------------*/
FoamFile
{
    version     2.0;
    format      ascii;
    class       volVectorField;
    location    "50";
    object      DDtUrel;
}
// * * * * * * * * * * * * * * * * * * * * * * * * * * * * * * * * * * * * * //

dimensions      [0 1 -2 0 0 0 0];

internalField   nonuniform List<vector> 
87
(
(3.72562e-05 -8.91375e-06 9.55986e-06)
(8.55822e-05 -2.33137e-05 1.27547e-05)
(5.55063e-05 -1.76567e-05 4.88654e-06)
(0.00012973 -2.8215e-05 9.29216e-06)
(0.000105686 -3.25725e-05 8.24726e-06)
(6.72496e-05 -3.06516e-05 3.84544e-07)
(0.00161341 3.54184e-05 -6.44463e-05)
(0.000909361 1.541e-05 -3.29893e-05)
(0.000520647 2.82494e-06 -1.61701e-05)
(0.000300898 -5.8137e-06 -2.53963e-06)
(0.000180992 -7.31001e-06 3.20589e-06)
(0.000106966 -1.11497e-05 6.20731e-06)
(6.81767e-05 -1.0222e-05 5.71314e-06)
(4.11285e-05 -1.22491e-05 4.25432e-06)
(2.23402e-05 -1.01663e-05 2.46217e-06)
(0.00165693 8.39539e-05 -6.66424e-05)
(0.000958302 3.19618e-05 -3.68291e-05)
(0.000558981 6.24955e-06 -1.97089e-05)
(0.000333479 -1.15425e-05 -5.91678e-06)
(0.000200967 -1.3878e-05 1.05854e-06)
(0.00012489 -2.194e-05 4.29166e-06)
(7.67951e-05 -2.00082e-05 4.37299e-06)
(4.99429e-05 -2.47686e-05 3.3543e-06)
(2.50593e-05 -2.03766e-05 1.10455e-06)
(0.00171217 7.9595e-05 -6.99833e-05)
(0.00101755 3.56906e-05 -4.02612e-05)
(0.000610299 6.49979e-06 -2.38589e-05)
(0.000375324 -1.09221e-05 -8.7015e-06)
(0.000230225 -1.64626e-05 -1.03356e-06)
(0.000147174 -2.2317e-05 3.53142e-06)
(8.67102e-05 -2.58999e-05 1.60725e-06)
(5.55553e-05 -3.37872e-05 1.88359e-06)
(1.91787e-05 -2.92847e-05 -1.42618e-06)
(0.00164733 4.11533e-05 6.23614e-06)
(0.000943996 1.60764e-05 -6.20756e-06)
(0.000543537 1.91956e-06 -7.42537e-06)
(0.000320798 -7.55349e-06 -6.52239e-06)
(0.000188738 -9.75406e-06 -3.18483e-06)
(0.000115275 -1.34612e-05 -5.37484e-06)
(6.76303e-05 -1.24863e-05 -1.92353e-06)
(4.31384e-05 -1.39733e-05 -4.60858e-06)
(1.93014e-05 -1.23231e-05 -5.35755e-06)
(0.00169115 8.25586e-05 1.2253e-07)
(0.000991914 3.14749e-05 -9.06655e-06)
(0.000585675 4.6981e-06 -1.07964e-05)
(0.000355464 -1.05169e-05 -7.52089e-06)
(0.00021343 -1.39682e-05 -4.52372e-06)
(0.000132699 -2.0121e-05 -4.30444e-06)
(7.74082e-05 -2.10485e-05 -4.13731e-06)
(5.33451e-05 -2.44468e-05 -7.41179e-06)
(2.30967e-05 -2.16778e-05 -6.80406e-06)
(0.00174068 7.58836e-05 -8.42541e-06)
(0.00104874 3.35355e-05 -1.26621e-05)
(0.000637037 5.90011e-06 -1.17884e-05)
(0.000399091 -1.01924e-05 -7.85629e-06)
(0.000248163 -1.58552e-05 -6.61139e-06)
(0.000160266 -2.14378e-05 -5.34769e-06)
(9.67213e-05 -2.55305e-05 -5.55605e-06)
(6.5844e-05 -3.03461e-05 -5.83137e-06)
(3.0947e-05 -3.06539e-05 -6.46765e-06)
(0.00169582 3.81139e-05 2.5315e-05)
(0.000994436 1.21593e-05 4.5954e-06)
(0.000586563 -4.57226e-07 -4.34062e-06)
(0.000357752 -1.02294e-05 -5.35669e-06)
(0.00021615 -1.30583e-05 -4.10011e-06)
(0.000138008 -1.71283e-05 -4.29487e-06)
(8.06052e-05 -1.64738e-05 -4.25085e-06)
(5.75744e-05 -1.64817e-05 -8.14589e-06)
(2.45033e-05 -1.59298e-05 -1.09118e-05)
(0.00173449 7.38571e-05 1.57588e-05)
(0.00103852 2.91377e-05 -6.36509e-07)
(0.000627896 4.54773e-06 -7.5922e-06)
(0.000393791 -1.16902e-05 -8.03084e-06)
(0.000243455 -1.61377e-05 -5.93159e-06)
(0.000155536 -2.19849e-05 -5.97338e-06)
(9.29457e-05 -2.55857e-05 -9.04694e-06)
(6.49772e-05 -2.83433e-05 -1.24165e-05)
(2.85162e-05 -2.33165e-05 -1.54917e-05)
(0.00177306 6.89405e-05 7.01145e-06)
(0.0010856 3.15625e-05 -4.06719e-06)
(0.000673829 6.6421e-06 -8.06258e-06)
(0.000437493 -1.03751e-05 -9.12649e-06)
(0.000279904 -1.85792e-05 -9.31162e-06)
(0.000182856 -2.35738e-05 -8.53096e-06)
(0.000111872 -2.78038e-05 -1.20001e-05)
(7.45308e-05 -3.25639e-05 -1.52825e-05)
(3.50459e-05 -3.18736e-05 -1.72854e-05)
)
;

boundaryField
{
    inlet
    {
        type            calculated;
        value           nonuniform List<vector> 9((0.00366106 0.000103195 -0.000151819) (0.00375591 0.000422667 -0.000163578) (0.00402955 0.000229145 -0.000176856) (0.00378509 0.000199332 0.000239811) (0.00391091 0.00041772 0.00019386) (0.0041223 0.000202591 0.00012033) (0.00404589 0.000168281 0.000179502) (0.00412236 0.000316655 0.000114248) (0.00421835 0.000153686 6.33739e-05));
    }
    outlet
    {
        type            calculated;
        value           nonuniform 0();
    }
    wall
    {
        type            calculated;
        value           nonuniform List<vector> 
57
(
(0.00404589 0.000168281 0.000179502)
(0.00412236 0.000316655 0.000114248)
(0.00421835 0.000153686 6.33739e-05)
(0.000106076 -2.91184e-05 -1.1362e-07)
(0.000247873 1.26116e-06 -1.0938e-05)
(0.000449794 -7.44666e-06 -1.12233e-05)
(4.92667e-05 -1.47622e-05 -2.16998e-05)
(0.000171606 -1.41187e-05 -2.74613e-05)
(0.00035871 -1.03088e-05 -7.63764e-06)
(9.24288e-05 -5.80472e-05 -9.77974e-06)
(0.000216386 -6.20305e-05 -2.27326e-05)
(0.000433809 -3.54751e-05 -1.92561e-05)
(7.99599e-06 -3.88871e-05 -4.53469e-06)
(0.000105177 -2.02432e-05 1.34138e-06)
(0.000292532 -4.48374e-05 -3.11114e-05)
(5.36131e-05 -6.94199e-05 -7.47741e-06)
(0.000113373 -4.50605e-05 1.3319e-06)
(0.000251208 -3.75051e-05 -1.24038e-05)
(-7.83914e-05 -3.17236e-05 1.4045e-05)
(8.09899e-06 -6.34474e-05 -2.88464e-05)
(0.000107172 -3.98994e-05 -4.14237e-05)
(4.9718e-05 -1.44118e-05 -1.27002e-05)
(0.000121553 -8.91048e-05 -3.31083e-05)
(0.000137312 -7.00528e-05 -5.71711e-05)
(-9.62572e-05 -1.28303e-05 -1.67653e-05)
(-3.35076e-05 -5.28819e-06 -4.03103e-05)
(1.39654e-05 -6.17171e-05 -4.97787e-05)
(0.00402955 0.000229145 -0.000176856)
(0.0041223 0.000202591 0.00012033)
(0.00421835 0.000153686 6.33739e-05)
(0.000122109 8.27641e-06 -9.5589e-06)
(0.000297734 -8.44293e-06 1.79435e-05)
(0.000449794 -7.44666e-06 -1.12233e-05)
(6.58073e-05 -3.11192e-05 -4.47031e-05)
(0.000200974 -3.19916e-05 7.70713e-07)
(0.00035871 -1.03088e-05 -7.63764e-06)
(5.05625e-05 -5.53148e-05 -6.93096e-06)
(0.000206026 -4.02423e-05 6.23346e-06)
(0.000433809 -3.54751e-05 -1.92561e-05)
(-3.99677e-05 -2.3327e-05 -1.05025e-05)
(0.000108043 -1.17453e-05 -2.19678e-05)
(0.000292532 -4.48374e-05 -3.11114e-05)
(-3.04944e-05 -2.88715e-05 6.83466e-06)
(0.000136651 -2.11312e-05 -2.12989e-05)
(0.000251208 -3.75051e-05 -1.24038e-05)
(9.91173e-05 -7.05136e-05 -3.88776e-05)
(-0.000140262 -2.417e-05 -1.56743e-05)
(3.42217e-05 -2.8969e-05 -1.19722e-05)
(0.000107172 -3.98994e-05 -4.14237e-05)
(0.000257267 -7.7978e-05 -8.3805e-06)
(-9.53263e-05 -0.000116034 1.30457e-05)
(0.000121971 -4.5849e-05 5.39505e-06)
(0.000137312 -7.00528e-05 -5.71711e-05)
(3.89421e-05 -7.10791e-05 -6.32035e-05)
(-0.000237093 -2.48599e-05 -3.79227e-06)
(1.3788e-05 -5.41546e-05 1.44917e-05)
(1.39654e-05 -6.17171e-05 -4.97787e-05)
)
;
    }
    procBoundary6to0
    {
        type            processor;
        value           uniform (3.09704e-05 1.47315e-08 1.18433e-05);
    }
    procBoundary6to2
    {
        type            processor;
        value           nonuniform List<vector> 
32
(
(6.26352e-05 -7.87001e-06 1.77205e-05)
(0.000111094 -2.57214e-05 2.42203e-05)
(8.11855e-05 -1.94711e-05 1.60754e-05)
(0.000168659 -2.66792e-05 2.2035e-05)
(0.000141476 -3.25618e-05 2.27219e-05)
(0.000100045 -3.08295e-05 1.43473e-05)
(0.00161963 3.84948e-05 -0.000135974)
(0.000926075 1.75866e-05 -6.14294e-05)
(0.000535505 3.87945e-06 -2.38129e-05)
(0.000318205 -4.25e-06 3.65762e-06)
(0.000194955 -6.56511e-06 1.11563e-05)
(0.000126435 -1.04831e-05 2.00549e-05)
(8.28649e-05 -9.12889e-06 1.49974e-05)
(5.82657e-05 -9.20957e-06 1.27247e-05)
(5.82657e-05 -9.20957e-06 1.27247e-05)
(5.82657e-05 -9.20957e-06 1.27247e-05)
(0.00166484 8.26255e-05 -0.000132166)
(0.00097609 3.40746e-05 -6.35754e-05)
(0.000577685 7.19132e-06 -2.72148e-05)
(0.000357325 -7.28597e-06 -1.10397e-06)
(0.000224887 -1.23857e-05 9.17694e-06)
(0.000157592 -1.88381e-05 1.77448e-05)
(0.000104724 -1.83998e-05 1.24572e-05)
(0.000104724 -1.83998e-05 1.24572e-05)
(0.000104724 -1.83998e-05 1.24572e-05)
(0.00171713 7.65723e-05 -0.000131457)
(0.00103403 3.49701e-05 -6.72135e-05)
(0.000630462 7.17191e-06 -3.19935e-05)
(0.000404471 -9.16155e-06 -5.02698e-06)
(0.000264139 -1.71157e-05 8.78121e-06)
(0.000190447 -2.38864e-05 1.74064e-05)
(0.000190447 -2.38864e-05 1.74064e-05)
)
;
    }
    procBoundary6to4
    {
        type            processor;
        value           nonuniform List<vector> 
27
(
(0.00160589 -2.28581e-05 -6.61899e-05)
(0.000902038 -8.0382e-06 -3.2331e-05)
(0.000511358 -3.91947e-06 -1.50949e-05)
(0.000294794 -1.76714e-07 -1.25693e-06)
(0.000173651 9.39977e-07 4.75927e-06)
(0.000105352 3.75932e-06 7.35213e-06)
(6.5557e-05 6.60492e-07 7.45849e-06)
(3.91989e-05 -1.26961e-06 8.18694e-06)
(2.17184e-05 -2.09542e-06 5.01229e-06)
(0.00163516 -1.66221e-05 8.23843e-07)
(0.000930739 -5.86253e-06 -2.96549e-06)
(0.000531774 -4.15428e-06 -6.10361e-06)
(0.000312531 -1.70403e-06 -3.07622e-06)
(0.000184487 -1.64857e-06 -1.89089e-07)
(0.000117896 -1.11619e-06 2.98065e-08)
(7.20301e-05 -2.52032e-06 -7.4669e-08)
(5.14826e-05 -4.30914e-06 -4.21227e-06)
(2.61109e-05 -5.71155e-06 -1.48187e-06)
(0.00168043 -1.57169e-05 2.5489e-05)
(0.000980457 -9.421e-06 9.68419e-06)
(0.000574371 -6.17515e-06 -7.34607e-07)
(0.000353206 -3.20306e-06 -2.51461e-06)
(0.000217176 -3.55547e-06 -1.58508e-06)
(0.000148859 -3.90727e-06 -8.28663e-07)
(9.67387e-05 -5.72725e-06 -3.66586e-06)
(7.77031e-05 -8.45891e-06 -7.17056e-06)
(4.33516e-05 -1.30048e-05 -5.02147e-06)
)
;
    }
    procBoundary6to7
    {
        type            processor;
        value           nonuniform List<vector> 
12
(
(2.12101e-05 -1.06373e-05 5.96535e-06)
(5.0784e-05 -2.12204e-05 1.95038e-06)
(6.28573e-05 -2.97776e-05 -3.59385e-06)
(7.46766e-06 -8.95645e-06 6.90291e-07)
(6.45771e-06 -2.07453e-05 -9.23694e-07)
(-2.95675e-07 -3.19943e-05 -3.36106e-06)
(5.45615e-06 -1.23149e-05 -6.98097e-06)
(1.66945e-05 -2.50347e-05 -1.15712e-05)
(1.60004e-05 -3.23476e-05 -7.79358e-06)
(1.19549e-05 -1.54062e-05 -1.82256e-05)
(1.38759e-05 -2.42743e-05 -2.17202e-05)
(1.20079e-05 -3.12008e-05 -2.11557e-05)
)
;
    }
}


// ************************************************************************* //
