/*--------------------------------*- C++ -*----------------------------------*\
| =========                 |                                                 |
| \\      /  F ield         | OpenFOAM: The Open Source CFD Toolbox           |
|  \\    /   O peration     | Version:  4.x                                   |
|   \\  /    A nd           | Web:      www.OpenFOAM.org                      |
|    \\/     M anipulation  |                                                 |
\*---------------------------------------------------------------------------*/
FoamFile
{
    version     2.0;
    format      ascii;
    class       volVectorField;
    location    "50";
    object      impParticleForces;
}
// * * * * * * * * * * * * * * * * * * * * * * * * * * * * * * * * * * * * * //

dimensions      [1 1 -2 0 0 0 0];

internalField   nonuniform List<vector> 
87
(
(0.00243142 1.21869e-05 -3.52639e-05)
(0.00242716 1.40531e-05 -4.24271e-05)
(0.00244955 1.3278e-05 -3.73125e-05)
(0.00240837 1.62015e-05 -4.78644e-05)
(0.00239426 1.41536e-05 -4.25544e-05)
(0.00240493 1.22826e-05 -3.7823e-05)
(0.0023887 8.24358e-06 -5.56843e-05)
(0.0024135 8.57306e-06 -5.51463e-05)
(0.00243726 9.21077e-06 -5.3336e-05)
(0.00243325 9.01628e-06 -5.00112e-05)
(0.00246058 9.24199e-06 -4.63958e-05)
(0.00242062 8.78942e-06 -4.13883e-05)
(0.00244017 8.83724e-06 -3.69267e-05)
(0.00239704 8.85367e-06 -3.23478e-05)
(0.00241861 8.81926e-06 -2.82726e-05)
(0.00235371 1.75402e-05 -5.49107e-05)
(0.00238939 1.86575e-05 -5.48767e-05)
(0.00242911 1.96666e-05 -5.3604e-05)
(0.00243166 1.82789e-05 -5.06804e-05)
(0.00245454 1.7528e-05 -4.73047e-05)
(0.00242888 1.53781e-05 -4.27406e-05)
(0.00244559 1.38825e-05 -3.83934e-05)
(0.00240994 1.20414e-05 -3.39457e-05)
(0.00243187 1.0275e-05 -3.02238e-05)
(0.00229786 1.95815e-05 -5.39663e-05)
(0.00233067 2.08324e-05 -5.42331e-05)
(0.00236124 2.10905e-05 -5.31023e-05)
(0.00237347 2.00707e-05 -5.06737e-05)
(0.00241384 1.94508e-05 -4.74531e-05)
(0.00240625 1.74218e-05 -4.34997e-05)
(0.00240599 1.53068e-05 -3.89002e-05)
(0.00237351 1.26397e-05 -3.46894e-05)
(0.00240052 1.03983e-05 -3.12163e-05)
(0.00236453 7.77393e-06 -4.15897e-05)
(0.00239329 8.42111e-06 -4.07109e-05)
(0.0024332 9.01094e-06 -3.84765e-05)
(0.00241937 8.44677e-06 -3.66356e-05)
(0.00243319 8.304e-06 -3.36852e-05)
(0.00241578 7.71187e-06 -3.08275e-05)
(0.00243659 7.61154e-06 -2.74948e-05)
(0.00238693 6.98296e-06 -2.47934e-05)
(0.00241133 6.65339e-06 -2.18733e-05)
(0.00232734 1.63653e-05 -4.2096e-05)
(0.00236996 1.77305e-05 -4.11648e-05)
(0.00241193 1.87783e-05 -3.91435e-05)
(0.00240368 1.69557e-05 -3.76739e-05)
(0.00243218 1.64586e-05 -3.44808e-05)
(0.00240804 1.41123e-05 -3.21119e-05)
(0.00244066 1.32828e-05 -2.8494e-05)
(0.0023968 1.0743e-05 -2.61776e-05)
(0.00242691 9.33864e-06 -2.32811e-05)
(0.00228481 1.89195e-05 -4.24506e-05)
(0.00230458 1.95662e-05 -4.20259e-05)
(0.00234042 1.99419e-05 -4.0469e-05)
(0.00235457 1.90051e-05 -3.86994e-05)
(0.00238373 1.80677e-05 -3.601e-05)
(0.00237273 1.59224e-05 -3.32745e-05)
(0.00239251 1.41766e-05 -2.98887e-05)
(0.00236899 1.16057e-05 -2.73574e-05)
(0.0023862 9.33303e-06 -2.45517e-05)
(0.00232104 6.85976e-06 -3.52876e-05)
(0.00233276 7.12289e-06 -3.44454e-05)
(0.00238381 7.62298e-06 -3.21147e-05)
(0.00237575 7.15199e-06 -3.06847e-05)
(0.00239306 6.93214e-06 -2.81144e-05)
(0.00238359 6.48559e-06 -2.58336e-05)
(0.00241289 6.07843e-06 -2.26838e-05)
(0.0023692 5.51175e-06 -2.08929e-05)
(0.00237002 5.04516e-06 -1.86658e-05)
(0.00228795 1.47396e-05 -3.61417e-05)
(0.0023102 1.53772e-05 -3.52271e-05)
(0.00235343 1.60541e-05 -3.34399e-05)
(0.00235769 1.50249e-05 -3.19323e-05)
(0.00238754 1.44372e-05 -2.93776e-05)
(0.00237442 1.26143e-05 -2.72643e-05)
(0.00239499 1.13484e-05 -2.45749e-05)
(0.002367 9.23922e-06 -2.27068e-05)
(0.00238105 7.69154e-06 -2.05944e-05)
(0.00225628 1.74844e-05 -3.69037e-05)
(0.00227297 1.79489e-05 -3.62155e-05)
(0.00231385 1.83563e-05 -3.46934e-05)
(0.00231779 1.73951e-05 -3.31155e-05)
(0.0023367 1.62616e-05 -3.09076e-05)
(0.00235119 1.47018e-05 -2.85086e-05)
(0.0023624 1.2747e-05 -2.60935e-05)
(0.00234683 1.03364e-05 -2.41572e-05)
(0.00236539 8.2099e-06 -2.2075e-05)
)
;

boundaryField
{
    inlet
    {
        type            zeroGradient;
    }
    outlet
    {
        type            zeroGradient;
    }
    wall
    {
        type            zeroGradient;
    }
    procBoundary6to0
    {
        type            processor;
        value           uniform (0.00240281 1.10848e-05 -3.42492e-05);
    }
    procBoundary6to2
    {
        type            processor;
        value           nonuniform List<vector> 
32
(
(0.00245265 1.4443e-05 -4.14226e-05)
(0.0024594 1.54525e-05 -4.95599e-05)
(0.00247843 1.4877e-05 -4.33059e-05)
(0.00244641 1.76248e-05 -5.61584e-05)
(0.002417 1.54882e-05 -4.90391e-05)
(0.00243511 1.41061e-05 -4.32659e-05)
(0.0023671 7.78322e-06 -7.04144e-05)
(0.00241504 8.83287e-06 -7.15398e-05)
(0.00246625 1.02548e-05 -7.11301e-05)
(0.00244617 9.96173e-06 -6.55159e-05)
(0.00246537 1.03608e-05 -6.03191e-05)
(0.0024358 1.00654e-05 -5.32695e-05)
(0.00245513 1.0678e-05 -4.71637e-05)
(0.00241615 1.10985e-05 -4.07563e-05)
(0.00241615 1.10985e-05 -4.07563e-05)
(0.00241615 1.10985e-05 -4.07563e-05)
(0.00233951 1.65583e-05 -6.87735e-05)
(0.0023855 1.83272e-05 -7.01758e-05)
(0.00245344 2.05436e-05 -7.04769e-05)
(0.00243542 1.87218e-05 -6.53976e-05)
(0.00246657 1.87869e-05 -6.0903e-05)
(0.00243865 1.659e-05 -5.4091e-05)
(0.00246406 1.5763e-05 -4.85963e-05)
(0.00246406 1.5763e-05 -4.85963e-05)
(0.00246406 1.5763e-05 -4.85963e-05)
(0.00228699 1.88775e-05 -6.64036e-05)
(0.00232739 2.04155e-05 -6.76325e-05)
(0.00239202 2.2039e-05 -6.7999e-05)
(0.00239085 2.07986e-05 -6.40451e-05)
(0.002417 1.99883e-05 -5.95961e-05)
(0.00240022 1.78555e-05 -5.34617e-05)
(0.00240022 1.78555e-05 -5.34617e-05)
)
;
    }
    procBoundary6to4
    {
        type            processor;
        value           nonuniform List<vector> 
27
(
(0.00235361 -4.67415e-06 -5.5148e-05)
(0.00240458 -4.99664e-06 -5.50127e-05)
(0.00245741 -4.52055e-06 -5.35239e-05)
(0.00243742 -3.09743e-06 -4.98615e-05)
(0.00246144 -1.69758e-06 -4.57269e-05)
(0.00242947 5.82504e-07 -4.09521e-05)
(0.00245443 2.85519e-06 -3.627e-05)
(0.00239539 5.10334e-06 -3.13217e-05)
(0.00240391 7.2811e-06 -2.68462e-05)
(0.00235592 -4.83369e-06 -4.19805e-05)
(0.00239483 -4.88288e-06 -4.08377e-05)
(0.00243628 -4.42483e-06 -3.85473e-05)
(0.00243563 -3.26173e-06 -3.61712e-05)
(0.00246254 -2.17416e-06 -3.26406e-05)
(0.00242745 -4.37965e-07 -2.99333e-05)
(0.00244881 1.21359e-06 -2.60997e-05)
(0.00239383 2.80461e-06 -2.34787e-05)
(0.00240025 4.12484e-06 -2.03185e-05)
(0.00233549 -4.7684e-06 -3.52085e-05)
(0.00234435 -4.48999e-06 -3.41735e-05)
(0.00238896 -4.2702e-06 -3.18302e-05)
(0.00239268 -3.43272e-06 -2.99095e-05)
(0.00242257 -2.43277e-06 -2.6861e-05)
(0.00239858 -9.90352e-07 -2.46573e-05)
(0.00238574 4.436e-07 -2.20668e-05)
(0.00236076 1.57538e-06 -1.97359e-05)
(0.00236605 2.37969e-06 -1.70431e-05)
)
;
    }
    procBoundary6to7
    {
        type            processor;
        value           nonuniform List<vector> 
12
(
(0.00241362 1.25606e-05 -3.02931e-05)
(0.00241952 1.18477e-05 -3.26724e-05)
(0.0024034 1.04147e-05 -3.41398e-05)
(0.00238211 8.90073e-06 -2.44392e-05)
(0.00239397 8.86696e-06 -2.65858e-05)
(0.00237185 8.26508e-06 -2.8001e-05)
(0.00238628 6.17104e-06 -1.93896e-05)
(0.00239253 7.14553e-06 -2.12631e-05)
(0.00235956 6.9065e-06 -2.24173e-05)
(0.00235765 4.35947e-06 -1.68465e-05)
(0.0023533 5.90084e-06 -1.90507e-05)
(0.0023329 5.89696e-06 -2.0464e-05)
)
;
    }
}


// ************************************************************************* //
