/*--------------------------------*- C++ -*----------------------------------*\
| =========                 |                                                 |
| \\      /  F ield         | OpenFOAM: The Open Source CFD Toolbox           |
|  \\    /   O peration     | Version:  4.x                                   |
|   \\  /    A nd           | Web:      www.OpenFOAM.org                      |
|    \\/     M anipulation  |                                                 |
\*---------------------------------------------------------------------------*/
FoamFile
{
    version     2.0;
    format      ascii;
    class       volScalarField;
    location    "50";
    object      pSmooth;
}
// * * * * * * * * * * * * * * * * * * * * * * * * * * * * * * * * * * * * * //

dimensions      [1 -1 -2 0 0 0 0];

internalField   nonuniform List<scalar> 
87
(
82.1148
38.0886
81.5902
88.6236
38.39
81.6096
112.05
93.8435
104.759
76.3232
97.0561
58.3294
89.1673
40.5541
81.8482
111.44
93.6019
104.319
75.8258
96.8859
57.6093
89.4305
39.3567
82.054
110.843
93.3319
103.775
75.7294
96.4968
57.5613
89.1164
39.4441
82.1734
111.823
93.7804
104.52
75.9645
96.9962
57.901
89.4962
39.6279
82.1993
111.183
93.4952
103.932
75.7369
96.4638
57.6085
89.0667
39.2476
81.836
110.672
93.2492
103.542
75.6344
96.1769
57.4784
88.8455
39.2252
81.7369
111.338
93.6075
104.095
75.912
96.5747
57.846
89.0943
39.4577
81.8813
110.887
93.3851
103.715
75.7462
96.2944
57.5417
88.9008
39.331
81.7483
110.492
93.2541
103.404
75.6513
96.0998
57.6042
88.7627
39.5021
81.7766
)
;

boundaryField
{
    inlet
    {
        type            zeroGradient;
    }
    outlet
    {
        type            fixedValue;
        value           nonuniform 0();
    }
    wall
    {
        type            zeroGradient;
    }
    procBoundary6to0
    {
        type            processor;
        value           uniform 81.9758;
    }
    procBoundary6to2
    {
        type            processor;
        value           nonuniform List<scalar> 
32
(
81.7666
38.5446
81.9771
88.7492
38.6234
81.8434
111.403
93.6051
104.286
75.5946
96.8728
57.4313
89.4329
39.1697
39.1697
39.1697
110.793
93.149
103.625
75.1382
96.1873
56.8048
88.7613
88.7613
88.7613
110.278
92.9216
103.227
75.0532
95.9059
56.8271
56.8271
)
;
    }
    procBoundary6to4
    {
        type            processor;
        value           nonuniform List<scalar> 
27
(
111.656
93.8626
104.495
75.9922
96.9354
57.8191
89.278
39.4977
81.7472
111.71
93.7662
104.447
75.961
96.821
57.5844
89.2444
39.0109
81.9219
111.373
93.4674
104.017
75.7498
96.3911
57.3602
88.7844
39.0256
81.6343
)
;
    }
    procBoundary6to7
    {
        type            processor;
        value           nonuniform List<scalar> 
12
(
20.9566
19.1536
19.7085
22.909
21.1201
21.2476
21.3817
20.6458
20.8339
21.3177
20.9025
21.2316
)
;
    }
}


// ************************************************************************* //
