/*--------------------------------*- C++ -*----------------------------------*\
| =========                 |                                                 |
| \\      /  F ield         | OpenFOAM: The Open Source CFD Toolbox           |
|  \\    /   O peration     | Version:  4.x                                   |
|   \\  /    A nd           | Web:      www.OpenFOAM.org                      |
|    \\/     M anipulation  |                                                 |
\*---------------------------------------------------------------------------*/
FoamFile
{
    version     2.0;
    format      ascii;
    class       volScalarField;
    location    "50";
    object      QPartFluid;
}
// * * * * * * * * * * * * * * * * * * * * * * * * * * * * * * * * * * * * * //

dimensions      [1 -1 -3 0 0 0 0];

internalField   nonuniform List<scalar> 
87
(
8.11628e+09
6.82707e+09
8.97498e+09
5.70482e+09
6.23796e+09
5.62858e+09
9.95363e+09
8.95434e+09
6.08331e+09
7.98556e+09
1.10732e+10
6.07715e+09
8.70647e+09
6.67149e+09
9.96704e+09
6.30353e+09
9.21489e+09
8.17659e+09
1.02121e+10
8.85125e+09
8.72518e+09
8.7503e+09
9.20694e+09
9.38888e+09
4.67941e+09
7.58128e+09
5.96056e+09
6.13999e+09
8.7037e+09
9.44614e+09
7.33968e+09
6.28203e+09
8.74317e+09
7.3494e+09
9.0028e+09
9.65945e+09
8.63838e+09
6.67134e+09
7.89515e+09
7.93506e+09
6.12042e+09
9.57538e+09
5.37368e+09
8.87255e+09
8.84556e+09
8.03615e+09
7.94792e+09
6.56013e+09
1.00241e+10
6.5981e+09
9.99034e+09
4.81026e+09
6.67942e+09
6.17987e+09
7.84359e+09
8.21699e+09
6.18232e+09
7.62977e+09
6.43684e+09
6.87787e+09
4.91288e+09
5.41083e+09
7.43628e+09
7.03607e+09
7.17635e+09
6.52428e+09
1.03135e+10
8.7301e+09
4.54476e+09
5.19826e+09
5.83275e+09
7.62904e+09
6.18824e+09
9.67624e+09
6.71923e+09
7.21339e+09
6.10676e+09
8.4891e+09
4.24794e+09
6.13536e+09
6.7656e+09
6.33597e+09
5.24216e+09
8.48744e+09
5.61316e+09
5.6418e+09
7.19046e+09
)
;

boundaryField
{
    inlet
    {
        type            calculated;
        value           uniform 0;
    }
    outlet
    {
        type            calculated;
        value           nonuniform 0();
    }
    wall
    {
        type            calculated;
        value           uniform 0;
    }
    procBoundary6to0
    {
        type            processor;
        value           uniform 2.62287e+09;
    }
    procBoundary6to2
    {
        type            processor;
        value           nonuniform List<scalar> 
32
(
5.73072e+09
8.45768e+09
1.02237e+10
9.69177e+09
5.33446e+09
7.7334e+09
4.89827e+09
9.48619e+09
1.0301e+10
7.1564e+09
8.23966e+09
6.27783e+09
7.58768e+09
7.51064e+09
7.51064e+09
7.51064e+09
5.87149e+09
7.91537e+09
1.05288e+10
6.62387e+09
9.12626e+09
7.73074e+09
1.03146e+10
1.03146e+10
1.03146e+10
4.25888e+09
6.30553e+09
7.51399e+09
7.25559e+09
6.75702e+09
6.50789e+09
6.50789e+09
)
;
    }
    procBoundary6to4
    {
        type            processor;
        value           nonuniform List<scalar> 
27
(
3.45841e+09
6.73442e+09
9.40239e+09
5.71394e+09
8.81185e+09
6.68975e+09
1.10428e+10
6.00633e+09
7.07623e+09
6.20499e+09
8.58512e+09
7.54456e+09
9.64937e+09
1.05254e+10
7.60928e+09
1.1842e+10
8.47275e+09
8.1419e+09
7.25349e+09
7.01232e+09
6.70151e+09
7.97805e+09
8.4432e+09
9.53896e+09
4.9729e+09
5.1805e+09
7.09318e+09
)
;
    }
    procBoundary6to7
    {
        type            processor;
        value           nonuniform List<scalar> 
12
(
7.49509e+09
5.35096e+09
7.08348e+09
3.85572e+09
6.01722e+09
6.60904e+09
8.58116e+09
8.20683e+09
6.04463e+09
7.32827e+09
6.34827e+09
6.09196e+09
)
;
    }
}


// ************************************************************************* //
