/*--------------------------------*- C++ -*----------------------------------*\
| =========                 |                                                 |
| \\      /  F ield         | OpenFOAM: The Open Source CFD Toolbox           |
|  \\    /   O peration     | Version:  4.x                                   |
|   \\  /    A nd           | Web:      www.OpenFOAM.org                      |
|    \\/     M anipulation  |                                                 |
\*---------------------------------------------------------------------------*/
FoamFile
{
    version     2.0;
    format      ascii;
    class       volScalarField;
    location    "50";
    object      QWallFluidCoeff;
}
// * * * * * * * * * * * * * * * * * * * * * * * * * * * * * * * * * * * * * //

dimensions      [1 -1 -3 -1 0 0 0];

internalField   nonuniform List<scalar> 
87
(
0
0
0
-2.91717e+06
-1.6376e+06
-2.98015e+06
0
0
0
0
0
0
0
0
0
0
0
0
0
0
0
0
0
0
-2.75699e+06
-1.3591e+06
-2.76667e+06
-1.38366e+06
-2.75052e+06
-1.32517e+06
-2.74257e+06
-1.223e+06
-2.71256e+06
0
0
0
0
0
0
0
0
0
0
0
0
0
0
0
0
0
0
-2.74948e+06
-1.43755e+06
-2.80549e+06
-1.54319e+06
-2.8343e+06
-1.60419e+06
-2.87413e+06
-1.63605e+06
-2.91315e+06
-2.72017e+06
-1.36954e+06
-2.72738e+06
-1.37304e+06
-2.73149e+06
-1.36878e+06
-2.73596e+06
-1.31518e+06
-2.77082e+06
-2.73562e+06
-1.43687e+06
-2.77861e+06
-1.52451e+06
-2.80869e+06
-1.57519e+06
-2.84524e+06
-1.59145e+06
-2.87634e+06
-5.5209e+06
-3.03385e+06
-5.70144e+06
-3.42037e+06
-5.88871e+06
-3.68875e+06
-6.02348e+06
-3.85193e+06
-6.08346e+06
)
;

boundaryField
{
    inlet
    {
        type            calculated;
        value           uniform 0;
    }
    outlet
    {
        type            calculated;
        value           nonuniform 0();
    }
    wall
    {
        type            calculated;
        value           uniform 0;
    }
    procBoundary6to0
    {
        type            processor;
        value           uniform 0;
    }
    procBoundary6to2
    {
        type            processor;
        value           uniform 0;
    }
    procBoundary6to4
    {
        type            processor;
        value           uniform 0;
    }
    procBoundary6to7
    {
        type            processor;
        value           uniform 0;
    }
}


// ************************************************************************* //
