/*--------------------------------*- C++ -*----------------------------------*\
| =========                 |                                                 |
| \\      /  F ield         | OpenFOAM: The Open Source CFD Toolbox           |
|  \\    /   O peration     | Version:  4.x                                   |
|   \\  /    A nd           | Web:      www.OpenFOAM.org                      |
|    \\/     M anipulation  |                                                 |
\*---------------------------------------------------------------------------*/
FoamFile
{
    version     2.0;
    format      ascii;
    class       volScalarField;
    location    "36.5";
    object      Ksl;
}
// * * * * * * * * * * * * * * * * * * * * * * * * * * * * * * * * * * * * * //

dimensions      [1 -3 -1 0 0 0 0];

internalField   nonuniform List<scalar> 
132
(
3320.19
6816.46
3089.44
5249.11
2906.26
4525.83
2790.36
4082.85
2614.74
3336.94
7308.85
3198.69
5905.41
3054.35
5184.85
2937.84
4721.7
2829.31
3353.38
7619.37
3261.58
6348.41
3184.91
5679.74
3069
5317.93
3023.03
3362.84
7585.84
3230.51
3372.06
7892.69
3299.23
6992.69
3260.02
6456.85
3213.29
6109.61
3108.25
3400.54
9046.01
3468.77
9025.6
3533.41
9449.41
3530.16
10069.9
3478.9
3443.77
9925.43
3558.77
11016.3
3665.4
13179.6
3727.68
17679.5
3691.59
3481.44
9772.98
3572.71
10870.6
3671.44
3401.16
8084.84
3378.12
7387.65
3323.4
6868.4
3246.95
6491.67
3111.23
3455.24
9506.22
3556.7
10280.6
3620.64
11405.2
3617.59
12882.5
3511.34
3499.94
10605.3
3678.32
14479
3792.94
20399.1
3787.37
25941.2
3690.68
3523.06
11310.3
3733.24
17194.8
3822.29
27587.2
3814.56
3388.85
8130.34
3393
7631.95
3367.12
7465.34
3347.8
7497.13
3300.78
3459.27
10126.5
3627.15
12383.7
3697.45
15579.6
3753.49
23447.9
3737.96
3515.73
11400.6
3772.12
20066.3
3910.98
58164
4000.81
1e+10
4052
3507.4
11686.7
3797.95
22213.5
3887.8
61702.4
3905.5
1.26893e+06
3862.09
)
;

boundaryField
{
    inlet
    {
        type            zeroGradient;
    }
    outlet
    {
        type            zeroGradient;
    }
    wall
    {
        type            zeroGradient;
    }
    procBoundary0to1
    {
        type            processor;
        value           nonuniform List<scalar> 
12
(
3819.35
4495.76
5269.86
5990.82
10932.2
30600
6314.46
13602.9
32532.7
8307.4
59944.7
1e+10
)
;
    }
    procBoundary0to2
    {
        type            processor;
        value           nonuniform List<scalar> 
44
(
6301.21
3153.77
5573.34
3047.85
5160.67
2903.36
3403.66
8016.44
6301.21
3331.64
6301.21
3153.77
13192.3
3694.09
15699.9
3577.53
3447.23
9841.16
3597.17
11563.5
13192.3
3693
13192.3
3694.09
40511
3738.46
3500.29
10355.6
3692.65
13945.5
3783.62
20225.7
40511
3816.55
40511
3738.46
3511.1
11404.7
3760.62
17344.7
3840.39
28547.9
3862.63
63554.6
)
;
    }
    procBoundary0to4
    {
        type            processor;
        value           nonuniform List<scalar> 
36
(
3384.82
7922.64
3390.45
7570.05
3371.73
7269.03
3306.9
7107.65
3181.42
3476.19
9894.4
3655.53
12709.7
3707.19
15536.3
3683.89
19584.4
3609.71
3512.53
11104.2
3764.24
17114.3
3820.38
27401.7
3792.81
66263.1
3730.66
3496.18
11260.9
3800.68
19164.4
3892.1
46669.6
3905.67
1.24517e+06
3835.99
)
;
    }
    procBoundary0to6
    {
        type            processor;
        value           uniform 3856.75;
    }
    procBoundary0to7
    {
        type            processor;
        value           uniform 1e+10;
    }
}


// ************************************************************************* //
