/*--------------------------------*- C++ -*----------------------------------*\
| =========                 |                                                 |
| \\      /  F ield         | OpenFOAM: The Open Source CFD Toolbox           |
|  \\    /   O peration     | Version:  4.x                                   |
|   \\  /    A nd           | Web:      www.OpenFOAM.org                      |
|    \\/     M anipulation  |                                                 |
\*---------------------------------------------------------------------------*/
FoamFile
{
    version     2.0;
    format      ascii;
    class       volScalarField;
    location    "36.5";
    object      Qsource;
}
// * * * * * * * * * * * * * * * * * * * * * * * * * * * * * * * * * * * * * //

dimensions      [1 -1 -3 0 0 0 0];

internalField   nonuniform List<scalar> 
132
(
6.89177e+09
5.22342e+09
5.54763e+09
4.18052e+09
6.29188e+09
5.88083e+09
7.95261e+09
5.4612e+09
4.19915e+09
5.50698e+09
5.5638e+09
6.4329e+09
6.15451e+09
4.7993e+09
7.34772e+09
6.3142e+09
6.47489e+09
6.28076e+09
3.11578e+09
6.32386e+09
6.64291e+09
5.59795e+09
6.4983e+09
5.48288e+09
4.94632e+09
5.80111e+09
9.49184e+09
3.83842e+09
4.98098e+09
4.4064e+09
5.11361e+09
7.40552e+09
9.50788e+09
8.05701e+09
8.64217e+09
8.12096e+09
8.04147e+09
7.3207e+09
8.20089e+09
4.98224e+09
9.46095e+09
8.01873e+09
8.50814e+09
9.60931e+09
8.62549e+09
9.20884e+09
9.22091e+09
8.98749e+09
5.30009e+09
9.45662e+09
8.41121e+09
7.53901e+09
9.08002e+09
6.77291e+09
1.05276e+10
6.93166e+09
6.35245e+09
7.96537e+09
7.03579e+09
7.79727e+09
5.50923e+09
1.1322e+10
6.41982e+09
7.39035e+09
8.98966e+09
7.42622e+09
8.36478e+09
6.16287e+09
8.95329e+09
7.57534e+09
6.33577e+09
6.24823e+09
8.28238e+09
7.99216e+09
6.92021e+09
9.28321e+09
6.72411e+09
9.44982e+09
1.01628e+10
1.01459e+10
6.70762e+09
7.2083e+09
8.09269e+09
9.30445e+09
9.8382e+09
8.06887e+09
9.21613e+09
6.44235e+09
5.38931e+09
6.90604e+09
8.65767e+09
9.56477e+09
8.95195e+09
9.94732e+09
7.98508e+09
8.72574e+09
5.18539e+09
5.40551e+09
7.61315e+09
5.6303e+09
7.94062e+09
8.23286e+09
6.76819e+09
4.78936e+09
6.91075e+09
5.13613e+09
9.60004e+09
9.09602e+09
8.09447e+09
7.20656e+09
6.6538e+09
1.04398e+10
7.2158e+09
6.92912e+09
5.18602e+09
5.58984e+09
9.04162e+09
6.11682e+09
8.68552e+09
8.41195e+09
8.21876e+09
4.9162e+09
9.32501e+09
4.8241e+09
6.71163e+09
9.79723e+09
1.01522e+10
5.46459e+09
9.64478e+09
8.46838e+09
5.3838e+09
2.58854e+09
)
;

boundaryField
{
    inlet
    {
        type            calculated;
        value           uniform 0;
    }
    outlet
    {
        type            calculated;
        value           nonuniform 0();
    }
    wall
    {
        type            calculated;
        value           uniform 0;
    }
    procBoundary0to1
    {
        type            processor;
        value           nonuniform List<scalar> 
12
(
5.91138e+09
5.24762e+09
4.57123e+09
7.98506e+09
9.03498e+09
7.96378e+09
7.63815e+09
6.4664e+09
9.50222e+09
6.90406e+09
7.85724e+09
5.87301e+09
)
;
    }
    procBoundary0to2
    {
        type            processor;
        value           nonuniform List<scalar> 
44
(
7.66166e+09
6.52088e+09
3.64593e+09
6.934e+09
4.26636e+09
5.59573e+09
6.65913e+09
7.36102e+09
7.66166e+09
7.00837e+09
7.66166e+09
6.52088e+09
9.8415e+09
1.2292e+10
6.59826e+09
1.12244e+10
4.7308e+09
7.94291e+09
9.59688e+09
9.19616e+09
9.8415e+09
8.89644e+09
9.8415e+09
1.2292e+10
7.93209e+09
9.22467e+09
6.86116e+09
5.74875e+09
6.75477e+09
6.89915e+09
6.77947e+09
7.77007e+09
7.93209e+09
9.84904e+09
7.93209e+09
9.22467e+09
4.89681e+09
9.48381e+09
1.0295e+10
7.16415e+09
8.23169e+09
6.27059e+09
7.56539e+09
7.50141e+09
)
;
    }
    procBoundary0to4
    {
        type            processor;
        value           nonuniform List<scalar> 
36
(
5.75031e+09
7.52865e+09
9.26258e+09
6.42271e+09
8.00709e+09
6.45218e+09
9.80697e+09
7.33975e+09
1.05265e+10
7.01847e+09
7.29816e+09
9.3903e+09
1.00452e+10
1.01222e+10
8.59619e+09
8.1461e+09
5.77587e+09
1.11187e+10
6.68771e+09
1.02777e+10
8.31658e+09
9.3593e+09
8.11952e+09
6.30428e+09
7.30389e+09
1.02972e+10
6.7428e+09
3.45635e+09
6.72743e+09
9.38808e+09
5.69368e+09
8.77546e+09
6.63938e+09
1.09934e+10
5.97568e+09
7.0486e+09
)
;
    }
    procBoundary0to6
    {
        type            processor;
        value           uniform 8.06609e+09;
    }
    procBoundary0to7
    {
        type            processor;
        value           uniform 9.9637e+09;
    }
}


// ************************************************************************* //
