/*--------------------------------*- C++ -*----------------------------------*\
| =========                 |                                                 |
| \\      /  F ield         | OpenFOAM: The Open Source CFD Toolbox           |
|  \\    /   O peration     | Version:  4.x                                   |
|   \\  /    A nd           | Web:      www.OpenFOAM.org                      |
|    \\/     M anipulation  |                                                 |
\*---------------------------------------------------------------------------*/
FoamFile
{
    version     2.0;
    format      ascii;
    class       volVectorField;
    location    "36.5";
    object      U;
}
// * * * * * * * * * * * * * * * * * * * * * * * * * * * * * * * * * * * * * //

dimensions      [0 1 -1 0 0 0 0];

internalField   nonuniform List<vector> 
132
(
(0.0299784 -0.000458132 -0.00131386)
(0.0146731 -0.000296531 -0.000928561)
(0.0330056 -0.000556943 -0.00154656)
(0.0195709 -0.000214306 -0.000915895)
(0.0359996 -0.000397283 -0.00135345)
(0.0233952 -8.63419e-05 -0.000818919)
(0.0385473 -0.000261141 -0.00121349)
(0.0260646 1.04833e-05 -0.000923122)
(0.0406535 -7.83611e-05 -0.00115119)
(0.0300874 -0.00090622 -0.00149563)
(0.0138959 -0.000657589 -0.000898095)
(0.0324462 -0.00113007 -0.00163881)
(0.0177008 -0.000600452 -0.000949862)
(0.03477 -0.000925149 -0.00152367)
(0.0207211 -0.000455874 -0.000831414)
(0.0368371 -0.000830625 -0.0013487)
(0.0228763 -0.000706743 -0.000811904)
(0.0384903 -0.000818391 -0.00115597)
(0.0301351 -0.000629405 -0.00165914)
(0.0134609 -0.000384127 -0.000882559)
(0.0320854 -0.000746046 -0.00175678)
(0.0166024 -0.000415886 -0.000937944)
(0.0337986 -0.000530436 -0.00164998)
(0.0189123 -0.000181217 -0.000892364)
(0.0352593 -0.000402192 -0.00146457)
(0.0203364 -8.07907e-05 -0.000659413)
(0.0362697 -0.000289805 -0.0011529)
(0.0301692 -0.000451094 -0.00169333)
(0.0134915 -0.000150091 -0.00084475)
(0.0322084 -0.000310651 -0.00172333)
(0.0298789 -0.000627927 -0.00205455)
(0.0129175 -0.000274947 -0.00117606)
(0.031582 -0.000655988 -0.00205023)
(0.0150402 -0.000264309 -0.000966663)
(0.032833 -0.000579102 -0.00142933)
(0.0166574 -0.000127259 -0.000663511)
(0.0339342 -0.000422695 -0.00101101)
(0.0176382 5.55447e-05 -0.000480894)
(0.0348551 -0.000159783 -0.00055659)
(0.0299653 -0.00120309 -0.00234774)
(0.0115047 -0.000563315 -0.00113736)
(0.0306646 -0.00130589 -0.00226829)
(0.0118661 -0.000521604 -0.00092698)
(0.0310462 -0.00116403 -0.00168312)
(0.0115859 -0.000388341 -0.000589298)
(0.0314163 -0.00101162 -0.00122618)
(0.0109042 -0.000295058 -0.000363282)
(0.031756 -0.000794974 -0.000621808)
(0.0298527 -0.000793308 -0.00251222)
(0.0105642 -0.000273742 -0.00106561)
(0.0300938 -0.000785992 -0.00245589)
(0.00978268 -0.000233703 -0.000832366)
(0.0300084 -0.000611111 -0.00173441)
(0.00830672 -6.25219e-05 -0.00043474)
(0.029859 -0.00026989 -0.000972231)
(0.00618171 0.000110059 -0.000117481)
(0.0297549 -5.62507e-05 -0.000374387)
(0.0297845 -0.000217957 -0.00274003)
(0.0106915 -0.000107509 -0.00125977)
(0.0300071 -0.000214048 -0.00273108)
(0.00988969 -3.69444e-05 -0.000934805)
(0.0301134 -2.93349e-05 -0.00203544)
(0.0298205 -0.00076356 -0.00182285)
(0.0126848 -0.000353974 -0.00111718)
(0.0311034 -0.000828403 -0.00194236)
(0.0142552 -0.000342591 -0.00111865)
(0.0322312 -0.000757203 -0.00161596)
(0.0155723 -0.000227089 -0.00107768)
(0.0333938 -0.000600954 -0.00132552)
(0.0164766 -9.50233e-05 -0.00121722)
(0.0344515 -0.000276004 -0.00126066)
(0.0298186 -0.00136201 -0.00206741)
(0.0110039 -0.000623159 -0.00111328)
(0.0300834 -0.00155534 -0.0020953)
(0.010429 -0.000566659 -0.000891424)
(0.0302447 -0.00126855 -0.00155358)
(0.00951643 -0.000332054 -0.00079313)
(0.0305525 -0.00084498 -0.00128915)
(0.00843859 -0.000253707 -0.000762745)
(0.0311325 -0.000570909 -0.00106764)
(0.0296819 -0.00103514 -0.00213243)
(0.00990496 -0.000470419 -0.0011255)
(0.0293257 -0.00117408 -0.00229123)
(0.00746313 -0.00030533 -0.000800982)
(0.0290915 -0.000826391 -0.00162893)
(0.00532134 -0.000145111 -0.000588015)
(0.0291167 -0.000436414 -0.000835905)
(0.0041151 -0.000122448 -0.000593956)
(0.0292637 -0.000345459 -8.88586e-05)
(0.0296512 -0.00023602 -0.00220307)
(0.00931975 -0.000117049 -0.00117828)
(0.0290679 -0.000246111 -0.00234077)
(0.00628639 -0.000124941 -0.000689299)
(0.0287969 -0.000275611 -0.00148005)
(0.0039245 -0.000185393 -0.000491171)
(0.0288216 -0.000407449 -0.000877046)
(0.0298685 -0.000897291 -0.00132064)
(0.0125938 -0.000428721 -0.000859465)
(0.030972 -0.000903808 -0.0014036)
(0.013751 -0.000326499 -0.00084433)
(0.031693 -0.000677396 -0.0011162)
(0.0142728 -0.000268185 -0.000800112)
(0.032087 -0.000618138 -0.000891748)
(0.0141081 -0.000101182 -0.000845545)
(0.032295 -0.000303962 -0.000639135)
(0.0297848 -0.00152843 -0.00149984)
(0.0103652 -0.000753471 -0.000796956)
(0.0296359 -0.00174793 -0.00152162)
(0.00866116 -0.000612599 -0.000608781)
(0.0293075 -0.00139607 -0.00100735)
(0.00689035 -0.00049618 -0.000437847)
(0.0291178 -0.000818543 -0.000683896)
(0.00453916 -0.000402739 -0.000372327)
(0.0288334 -2.28129e-05 -0.000626102)
(0.0295768 -0.000947041 -0.00154835)
(0.00922597 -0.000463974 -0.000774506)
(0.0287161 -0.00109206 -0.00139861)
(0.00535342 -0.000255151 -0.000407965)
(0.0278412 -0.000628213 -0.000871928)
(0.00184739 -8.5955e-05 -0.000156966)
(0.0271472 2.72652e-05 -0.000659782)
(1.20156e-08 -1.12989e-09 1.84053e-09)
(0.0263823 0.000591081 -0.000198309)
(0.0296466 -0.000201212 -0.00141645)
(0.00903934 6.97282e-08 -0.000799068)
(0.0286453 9.37773e-05 -0.00139988)
(0.00485846 7.95198e-05 -0.000461363)
(0.0278876 0.000245347 -0.00102414)
(0.00173523 4.54211e-05 -0.00020552)
(0.0277196 1.80832e-05 -0.000639149)
(8.24293e-05 3.53004e-06 -1.24723e-05)
(0.0273217 -0.000128156 -4.78293e-05)
)
;

boundaryField
{
    inlet
    {
        type            fixedValue;
        value           uniform (0.01 0 0);
    }
    outlet
    {
        type            zeroGradient;
    }
    wall
    {
        type            fixedValue;
        value           uniform (0 0 0);
    }
    procBoundary0to1
    {
        type            processor;
        value           nonuniform List<vector> 
12
(
(0.0281096 0.000469141 -0.000887462)
(0.0241869 -0.00052986 -0.000842003)
(0.0206585 9.8589e-05 -0.000819644)
(0.018091 0.000351097 -0.000137089)
(0.0100832 -0.000319794 -0.000134905)
(0.00357816 0.00015641 -0.0001124)
(0.0168628 0.000241847 -0.00143095)
(0.00789906 -0.00038445 -0.000947039)
(0.00325271 -0.000206408 -0.000655247)
(0.0126893 -2.6488e-05 -0.000524721)
(0.00175879 -0.000249306 -0.000164904)
(1.1143e-08 -8.83115e-10 2.52636e-09)
)
;
    }
    procBoundary0to2
    {
        type            processor;
        value           nonuniform List<vector> 
44
(
(0.0167921 -0.000178863 -0.000883767)
(0.034059 -0.000262026 -0.00165651)
(0.0192595 -0.000209106 -0.000792735)
(0.0357249 -0.000275635 -0.00123979)
(0.0209051 -8.58593e-05 -0.000472134)
(0.0373427 -0.000134871 -0.000808644)
(0.0299151 0.000120851 -0.00138808)
(0.0128385 6.45311e-05 -0.000817016)
(0.0167921 -0.000178863 -0.000883767)
(0.0314904 0.000258918 -0.00164061)
(0.0167921 -0.000178863 -0.000883767)
(0.034059 -0.000262026 -0.00165651)
(0.00833474 -1.8469e-05 -0.00058663)
(0.0302417 2.57947e-05 -0.00126721)
(0.00695113 5.24553e-05 -0.000420656)
(0.0308122 0.000233601 -0.00066326)
(0.0298247 0.000387984 -0.00230676)
(0.0106362 9.29376e-05 -0.00108957)
(0.0299474 0.000432323 -0.00240422)
(0.00934099 0.000216298 -0.000866958)
(0.00833474 -1.8469e-05 -0.00058663)
(0.0297405 0.000542199 -0.00178924)
(0.00833474 -1.8469e-05 -0.00058663)
(0.0302417 2.57947e-05 -0.00126721)
(0.00261933 -0.000171942 -0.000441624)
(0.0289005 -0.000412508 -0.000252304)
(0.0297007 0.000525825 -0.00211898)
(0.0101409 0.00014086 -0.00105017)
(0.0291883 0.000431229 -0.00200197)
(0.00772824 7.82709e-05 -0.000685933)
(0.0288166 0.000250679 -0.00137809)
(0.00534697 -6.43258e-05 -0.000452679)
(0.00261933 -0.000171942 -0.000441624)
(0.0287294 -0.000199882 -0.000825588)
(0.00261933 -0.000171942 -0.000441624)
(0.0289005 -0.000412508 -0.000252304)
(0.029663 0.000658447 -0.00180151)
(0.00929828 0.000371454 -0.000751837)
(0.0288512 0.000954059 -0.00154745)
(0.00618613 0.00029062 -0.000534844)
(0.0282519 0.000773914 -0.00100034)
(0.00373814 0.000230327 -0.000295878)
(0.0279617 0.000451394 -0.000348823)
(0.00165522 0.000142852 -0.000184592)
)
;
    }
    procBoundary0to4
    {
        type            processor;
        value           nonuniform List<vector> 
36
(
(0.0298847 -0.000970459 -0.000571461)
(0.012913 -0.00046652 -0.000371399)
(0.0309428 -0.00105634 -0.000569114)
(0.013902 -0.00044097 -0.000422994)
(0.03165 -0.000810166 -0.000303297)
(0.0145716 -0.000269079 -0.000313927)
(0.03242 -0.000585612 -0.000270114)
(0.0148659 -0.0002632 -0.000326244)
(0.0334421 -0.000549093 9.97042e-05)
(0.0296864 -0.00159858 -0.000436932)
(0.0105727 -0.000741446 -0.000227356)
(0.029414 -0.00165431 -0.000318955)
(0.00846033 -0.000555161 -0.000231559)
(0.0292785 -0.00122075 -0.000105667)
(0.00690324 -0.000392809 -0.000137018)
(0.0293706 -0.000911241 2.70421e-05)
(0.00541865 -0.000384174 -0.000118817)
(0.0298608 -0.000537514 0.000329338)
(0.0296721 -0.000962184 -0.00046609)
(0.00955737 -0.000547123 -0.000218042)
(0.0287483 -0.00109285 -0.000264623)
(0.00629082 -0.000402085 -7.35185e-05)
(0.0283832 -0.000939471 1.04966e-05)
(0.00388994 -0.000310056 4.24403e-05)
(0.0283487 -0.000524158 -0.000110969)
(0.00159472 -0.000147574 6.23639e-05)
(0.0284909 0.000119217 -0.000269519)
(0.0296619 -0.000506664 -0.000506849)
(0.00940778 -0.00010424 -0.000155751)
(0.028479 -0.000412878 -0.000178816)
(0.00559639 -0.000176935 -0.0001287)
(0.0278294 -0.000384347 -5.49373e-06)
(0.00228765 -9.93562e-05 2.49121e-06)
(0.0276247 -2.53019e-05 -4.09063e-05)
(8.43277e-05 -5.86051e-06 1.90592e-06)
(0.027522 1.37856e-06 -0.000141324)
)
;
    }
    procBoundary0to6
    {
        type            processor;
        value           uniform (0.0276937 0.000172593 0.000111475);
    }
    procBoundary0to7
    {
        type            processor;
        value           uniform (1.21508e-08 -2.7837e-10 6.6437e-10);
    }
}


// ************************************************************************* //
