/*--------------------------------*- C++ -*----------------------------------*\
| =========                 |                                                 |
| \\      /  F ield         | OpenFOAM: The Open Source CFD Toolbox           |
|  \\    /   O peration     | Version:  4.x                                   |
|   \\  /    A nd           | Web:      www.OpenFOAM.org                      |
|    \\/     M anipulation  |                                                 |
\*---------------------------------------------------------------------------*/
FoamFile
{
    version     2.0;
    format      ascii;
    class       volScalarField;
    location    "31";
    object      pSmooth;
}
// * * * * * * * * * * * * * * * * * * * * * * * * * * * * * * * * * * * * * //

dimensions      [1 -1 -2 0 0 0 0];

internalField   nonuniform List<scalar> 
132
(
108.191
91.6092
101.565
74.318
94.7591
56.391
87.7676
37.9077
81.0986
108.476
91.8024
101.841
74.3384
94.9485
56.3331
87.903
37.8139
81.1114
108.777
92.0695
102.135
74.4989
95.2034
56.381
88.194
38.0448
81.3929
108.901
92.0784
102.256
108.956
92.1647
102.22
74.6085
95.2801
56.5674
88.2296
38.1433
81.455
109.349
92.3175
102.567
74.7115
95.572
56.5275
88.4506
37.961
81.5498
109.749
92.5432
102.951
74.863
95.96
56.6351
88.876
38.0377
81.9966
109.897
92.4932
103.044
74.8622
95.9741
109.648
92.5053
102.737
74.8358
95.5772
56.7149
88.3885
38.1676
81.4203
110.151
92.733
103.213
75
96.0204
56.7493
88.7613
38.1176
81.597
110.618
93.0067
103.718
75.2562
96.3864
56.8905
88.9116
38.3746
81.7398
110.93
93.2158
103.991
75.3918
96.579
57.0819
88.9889
110.205
93.039
103.231
75.3855
96.0467
57.3502
88.7863
39.1564
81.8764
110.798
93.3242
103.718
75.5163
96.4
57.4702
89.1152
39.0852
82.0686
111.254
93.7224
104.227
76.0167
96.8537
58.1204
89.334
40.3043
81.9856
111.479
93.8593
104.38
76.0516
96.8099
58.2381
89.2126
40.2965
81.9931
)
;

boundaryField
{
    inlet
    {
        type            zeroGradient;
    }
    outlet
    {
        type            fixedValue;
        value           nonuniform 0();
    }
    wall
    {
        type            zeroGradient;
    }
    procBoundary0to1
    {
        type            processor;
        value           nonuniform List<scalar> 
12
(
19.4264
19.0343
19.28
19.559
19.1834
19.4909
19.555
19.2738
20.1112
20.855
20.8094
22.7751
)
;
    }
    procBoundary0to2
    {
        type            processor;
        value           nonuniform List<scalar> 
44
(
74.5463
95.2029
56.3287
88.1521
37.7636
81.3395
109.059
92.0847
74.5463
102.266
74.5463
95.2029
56.4786
88.7052
37.6901
81.7702
109.91
92.6433
103.077
74.8748
56.4786
95.9534
56.4786
88.7052
38.6717
81.6817
110.701
93.0433
103.737
75.3433
96.3894
57.2249
38.6717
88.9902
38.6717
81.6817
111.417
93.6685
104.21
75.7578
96.742
57.7084
89.2823
39.6169
)
;
    }
    procBoundary0to4
    {
        type            processor;
        value           nonuniform List<scalar> 
36
(
110.555
93.2069
103.475
75.4541
96.1268
57.3536
88.8033
38.9214
81.6523
111.212
93.5112
104.101
75.676
96.5985
57.4139
89.1609
39.0247
81.9521
111.696
93.8404
104.478
76.0102
96.8567
57.8675
89.3186
39.7023
81.8708
111.888
94.133
104.704
76.3771
97.0997
58.3948
89.4029
40.3216
81.8637
)
;
    }
    procBoundary0to6
    {
        type            processor;
        value           uniform 81.9844;
    }
    procBoundary0to7
    {
        type            processor;
        value           uniform 22.8822;
    }
}


// ************************************************************************* //
