/*--------------------------------*- C++ -*----------------------------------*\
| =========                 |                                                 |
| \\      /  F ield         | OpenFOAM: The Open Source CFD Toolbox           |
|  \\    /   O peration     | Version:  4.x                                   |
|   \\  /    A nd           | Web:      www.OpenFOAM.org                      |
|    \\/     M anipulation  |                                                 |
\*---------------------------------------------------------------------------*/
FoamFile
{
    version     2.0;
    format      ascii;
    class       volVectorField;
    location    "31";
    object      Us;
}
// * * * * * * * * * * * * * * * * * * * * * * * * * * * * * * * * * * * * * //

dimensions      [0 1 -1 0 0 0 0];

internalField   nonuniform List<vector> 
132
(
(-3.81881e-10 1.15541e-10 -3.17062e-11)
(-6.84648e-10 4.51707e-10 3.40948e-10)
(4.43038e-09 -1.47432e-09 1.32131e-09)
(8.18885e-10 -6.74858e-10 -4.47609e-10)
(-2.16132e-09 -5.52698e-10 5.64364e-10)
(-3.374e-09 -5.59261e-10 9.48967e-10)
(-3.15972e-09 6.44831e-11 1.18861e-09)
(-5.92561e-09 -2.25464e-10 2.1257e-10)
(-8.59707e-09 1.06387e-09 2.93767e-10)
(-2.62077e-10 9.31994e-11 -3.03091e-10)
(-1.08654e-09 9.81843e-10 1.08578e-10)
(4.10073e-10 4.62464e-10 -1.28435e-10)
(-9.53282e-10 -1.39138e-09 2.85516e-10)
(-1.90851e-09 -1.83987e-09 1.43398e-09)
(-4.30922e-09 -1.36973e-09 1.96344e-09)
(-4.40552e-09 -3.88187e-10 2.91377e-09)
(-7.6863e-09 1.03079e-09 4.00626e-09)
(-1.08272e-08 -2.42632e-09 7.17045e-09)
(-5.81215e-10 5.31797e-10 -7.32267e-11)
(-8.0695e-10 4.3513e-10 2.12338e-10)
(-3.50298e-10 1.32345e-10 5.08173e-10)
(-9.55038e-10 -1.53695e-09 7.4792e-10)
(-1.18988e-09 -2.47793e-09 1.14224e-09)
(-4.13997e-09 -1.70518e-09 3.06419e-09)
(-4.83354e-09 -9.57106e-10 4.04339e-09)
(-7.14833e-09 -2.81978e-09 5.47715e-09)
(-8.42612e-09 -2.52752e-09 5.54751e-09)
(2.23965e-10 1.72111e-10 3.84571e-10)
(-5.72528e-10 9.63282e-11 3.42942e-10)
(-6.66119e-10 -1.87111e-10 3.81689e-10)
(1.19767e-10 3.94041e-11 5.30624e-10)
(-4.49452e-10 1.7346e-10 1.16048e-09)
(9.28894e-10 -1.29481e-11 1.59214e-09)
(5.4749e-10 -4.92037e-10 -6.81117e-10)
(-1.20249e-09 -6.8193e-10 4.48376e-10)
(-2.16872e-09 -1.15821e-09 1.17184e-09)
(-3.09231e-09 -4.37128e-10 1.21627e-09)
(-5.88098e-09 -5.76618e-10 3.7085e-10)
(-9.16272e-09 -3.88045e-09 4.80659e-09)
(1.04356e-10 1.63638e-10 4.75377e-10)
(-7.15837e-11 2.82416e-10 9.97136e-10)
(1.39928e-09 -3.15743e-10 1.5288e-09)
(-1.35147e-10 -7.50071e-10 4.73463e-10)
(-1.69259e-09 -1.47399e-09 1.65386e-09)
(-2.87936e-09 -1.39696e-09 2.06615e-09)
(-4.64005e-09 -5.81983e-10 3.12187e-09)
(-6.86581e-09 2.08829e-11 3.59554e-09)
(-1.0654e-08 3.0478e-10 8.43533e-09)
(1.72737e-10 5.6733e-11 5.42266e-10)
(-1.78393e-10 1.04233e-10 7.81931e-10)
(2.84013e-10 -4.55886e-10 9.15483e-10)
(-1.05121e-10 -1.27502e-09 1.20071e-09)
(-1.26773e-09 -1.783e-09 1.70727e-09)
(-3.34175e-09 -1.9909e-09 2.77731e-09)
(-4.91492e-09 -1.44954e-09 4.46623e-09)
(-6.1026e-09 -1.02438e-09 5.96013e-09)
(-7.49826e-09 -4.87393e-10 7.18079e-09)
(6.39508e-11 2.71788e-12 6.25936e-10)
(-2.40976e-10 -1.24994e-10 7.9347e-10)
(1.6167e-10 -4.71772e-10 8.58236e-10)
(-8.30941e-10 -1.36863e-09 1.70796e-09)
(-1.67099e-09 -1.38689e-09 1.81218e-09)
(8.81078e-11 -3.00154e-11 4.83756e-10)
(-1.36696e-10 1.59415e-11 7.28849e-10)
(4.94028e-10 -2.38548e-10 8.07699e-10)
(-3.81842e-10 -3.49039e-10 2.62647e-10)
(-3.00286e-10 -4.6384e-10 2.36325e-10)
(-9.90219e-10 -6.61319e-10 9.79186e-10)
(-1.41159e-09 -6.1226e-10 1.17011e-09)
(-2.74436e-09 -3.03531e-10 1.24349e-09)
(-6.45655e-09 -1.89947e-09 6.07216e-09)
(7.08741e-11 1.39281e-10 4.83168e-10)
(5.7927e-11 7.33705e-11 7.71431e-10)
(5.73254e-10 -2.86521e-10 9.38639e-10)
(-2.03903e-10 -7.514e-10 6.66745e-10)
(-5.53533e-10 -1.05544e-09 1.26853e-09)
(-1.6104e-09 -9.46942e-10 2.01777e-09)
(-2.3217e-09 -7.85818e-10 2.67037e-09)
(-4.08222e-09 -9.59513e-11 3.18916e-09)
(-9.24475e-09 1.79698e-09 7.98182e-09)
(6.26174e-11 6.40993e-12 2.85733e-10)
(2.54706e-10 -1.59263e-10 5.98476e-10)
(6.35151e-10 -5.19305e-10 6.80525e-10)
(3.45704e-10 -9.18702e-10 7.17727e-10)
(-5.17346e-10 -1.55708e-09 1.12724e-09)
(-2.08334e-09 -9.14518e-10 2.13275e-09)
(-7.45751e-10 -6.28452e-10 3.59173e-09)
(-5.20577e-09 -3.2739e-11 4.84686e-09)
(-6.82001e-09 2.34574e-09 7.22927e-09)
(3.10315e-11 -1.63011e-10 2.26376e-10)
(1.42458e-10 -6.03523e-10 4.21718e-10)
(5.35626e-10 -1.05533e-09 3.52335e-10)
(-1.59192e-10 -1.13252e-09 7.79117e-10)
(-1.48637e-09 -1.39314e-09 1.44857e-09)
(-3.31697e-09 -1.54393e-09 2.45504e-09)
(-4.3934e-09 -1.70029e-09 3.67431e-09)
(1.51399e-10 -7.16096e-11 3.44179e-10)
(-1.9135e-10 -2.1912e-10 4.93666e-10)
(4.27261e-10 -1.93926e-10 3.96116e-10)
(-3.14952e-10 -3.47461e-10 1.99523e-10)
(-2.47958e-10 -4.13185e-10 1.63979e-10)
(-8.84014e-10 -4.52127e-10 7.40177e-10)
(-1.21903e-09 -2.27204e-10 1.53566e-09)
(-3.5279e-09 -1.59634e-10 2.47059e-09)
(-4.77456e-09 -3.7642e-10 4.64175e-09)
(9.91807e-11 -1.56435e-10 3.29946e-10)
(-2.52978e-10 -3.59666e-10 5.01004e-10)
(2.74806e-10 -8.99857e-10 5.12617e-10)
(-7.6176e-10 -1.03491e-09 7.8528e-10)
(-1.01585e-09 -1.22883e-09 1.03266e-09)
(-1.98273e-09 -8.79212e-10 1.28047e-09)
(-2.88089e-09 -1.35401e-10 2.42e-09)
(-4.79873e-09 -1.73136e-10 2.94383e-09)
(-7.02376e-09 1.36283e-09 4.65059e-09)
(-1.53744e-10 -1.58753e-10 2.4965e-10)
(-3.56024e-10 -3.57048e-10 3.85983e-10)
(1.20025e-10 -6.24723e-10 5.61329e-10)
(-1.83581e-09 -8.92594e-10 6.44126e-10)
(-1.68674e-09 -1.53226e-09 9.78509e-10)
(-3.51627e-09 -9.67472e-10 1.42354e-09)
(-3.5965e-09 -4.99041e-10 2.97599e-09)
(-5.48627e-09 -3.49299e-10 3.72761e-09)
(-6.40949e-09 2.23304e-09 5.31192e-09)
(-8.36134e-11 -1.19709e-10 6.08477e-11)
(-5.95719e-10 -2.04918e-10 1.03126e-10)
(-7.25386e-10 -3.7983e-10 4.11893e-10)
(-3.37526e-09 -1.1786e-09 4.57009e-10)
(-4.22245e-09 -1.7106e-09 3.52574e-10)
(-5.4155e-09 -1.23974e-09 2.0447e-09)
(-6.01528e-09 -1.01185e-09 3.21018e-09)
(-6.80289e-09 -7.7913e-10 3.85983e-09)
(-9.35325e-09 -1.0702e-09 5.68558e-09)
)
;

boundaryField
{
    inlet
    {
        type            zeroGradient;
    }
    outlet
    {
        type            zeroGradient;
    }
    wall
    {
        type            zeroGradient;
    }
    procBoundary0to1
    {
        type            processor;
        value           nonuniform List<vector> 
12
(
(-5.64016e-10 8.72977e-09 2.92185e-08)
(-1.33977e-08 -4.28254e-09 1.56601e-08)
(-1.71384e-08 -5.26795e-09 1.35098e-08)
(-1.61873e-08 5.90183e-09 2.05629e-08)
(-1.79125e-08 1.29905e-09 1.76605e-08)
(-1.31959e-08 -1.1197e-09 1.28616e-08)
(-6.95407e-09 2.90951e-10 5.35216e-09)
(-1.0089e-08 1.21456e-09 9.8308e-09)
(-7.57926e-09 1.28479e-13 8.87176e-09)
(-5.4003e-09 -4.19986e-11 3.84346e-09)
(-9.2227e-09 1.14877e-09 5.84206e-09)
(-7.12629e-09 6.84042e-10 5.92307e-09)
)
;
    }
    procBoundary0to2
    {
        type            processor;
        value           nonuniform List<vector> 
44
(
(-1.64052e-09 -1.13701e-09 1.26141e-09)
(-2.17511e-09 -1.72649e-09 1.21439e-09)
(-5.3605e-09 -2.22312e-09 3.54695e-09)
(-6.9927e-09 -2.37034e-09 4.27594e-09)
(-1.00243e-08 -3.15574e-09 5.10994e-09)
(-1.22069e-08 -2.77283e-09 4.88332e-09)
(6.40372e-09 -2.38428e-09 -2.98787e-10)
(-8.4348e-10 -3.22553e-11 3.72786e-10)
(-1.64052e-09 -1.13701e-09 1.26141e-09)
(-9.02696e-10 -3.13629e-10 6.62865e-10)
(-1.64052e-09 -1.13701e-09 1.26141e-09)
(-2.17511e-09 -1.72649e-09 1.21439e-09)
(-3.36899e-09 -2.06888e-09 3.43496e-09)
(-5.81582e-09 -2.48059e-09 4.54404e-09)
(-9.23931e-09 -2.30525e-09 5.5926e-09)
(-1.03873e-08 -2.22913e-09 5.94517e-09)
(-1.35716e-10 -3.61296e-11 2.47849e-10)
(-7.18741e-10 -1.14973e-10 5.82706e-10)
(-1.01986e-09 -3.07409e-10 8.22352e-10)
(-1.62957e-09 -7.42547e-10 1.28746e-09)
(-3.36899e-09 -2.06888e-09 3.43496e-09)
(-2.12314e-09 -6.54839e-10 1.73429e-09)
(-3.36899e-09 -2.06888e-09 3.43496e-09)
(-5.81582e-09 -2.48059e-09 4.54404e-09)
(-7.44164e-09 -1.67132e-09 4.93803e-09)
(-9.5829e-09 -1.90923e-09 6.69989e-09)
(-1.10375e-10 -2.84701e-10 5.42262e-11)
(-6.01556e-10 -1.06956e-10 2.67911e-10)
(-8.44324e-10 -2.98694e-10 4.36717e-10)
(-1.76138e-09 -6.07991e-10 5.29036e-10)
(-2.06274e-09 -8.20955e-10 1.24479e-09)
(-4.29736e-09 -1.75988e-09 2.73906e-09)
(-7.44164e-09 -1.67132e-09 4.93803e-09)
(-5.27909e-09 -1.57572e-09 3.07619e-09)
(-7.44164e-09 -1.67132e-09 4.93803e-09)
(-9.5829e-09 -1.90923e-09 6.69989e-09)
(-2.0106e-10 -4.18288e-11 1.21513e-11)
(-9.93255e-10 2.31524e-11 9.48785e-11)
(-1.31164e-09 8.93859e-11 2.07607e-10)
(-2.38716e-09 -1.83802e-10 5.29281e-10)
(-3.29023e-09 -6.38116e-10 9.74057e-10)
(-4.89455e-09 -6.10397e-10 1.81243e-09)
(-5.75266e-09 -1.05652e-09 2.7426e-09)
(-7.23362e-09 -1.54282e-09 3.20778e-09)
)
;
    }
    procBoundary0to4
    {
        type            processor;
        value           nonuniform List<vector> 
36
(
(-2.46388e-12 -8.58883e-11 2.39189e-10)
(-2.606e-10 -1.52678e-10 3.26345e-10)
(1.56183e-10 -2.60965e-10 3.80809e-10)
(2.05335e-10 -2.958e-10 4.95976e-10)
(5.6328e-10 -3.80957e-10 6.73002e-10)
(1.71603e-10 -3.83502e-10 5.14848e-10)
(-3.07151e-10 -5.79195e-10 1.1889e-09)
(-9.90192e-10 -1.46587e-10 1.37272e-09)
(-1.59151e-09 -2.95141e-10 1.79771e-09)
(-5.20833e-11 -1.52013e-10 2.9718e-10)
(-2.94846e-10 -5.06382e-10 4.11792e-10)
(-1.92353e-10 -6.78769e-10 6.11933e-10)
(-4.34282e-10 -7.05123e-10 8.26752e-10)
(-7.16818e-10 -8.85497e-10 1.01737e-09)
(-1.20362e-09 -8.88868e-10 8.15539e-10)
(-1.73277e-09 -1.04375e-09 2.03887e-09)
(-2.9836e-09 -7.98054e-11 2.31257e-09)
(-4.45635e-09 -5.66239e-12 3.35905e-09)
(-1.22031e-10 -1.8762e-10 2.42661e-10)
(-5.88854e-10 -4.62892e-10 3.87971e-10)
(-9.29572e-10 -7.43556e-10 6.67292e-10)
(-1.74864e-09 -6.77309e-10 8.52015e-10)
(-2.36064e-09 -1.26516e-09 1.00629e-09)
(-3.69401e-09 -1.23297e-09 1.22846e-09)
(-3.97514e-09 -6.31655e-10 2.06685e-09)
(-4.58417e-09 -6.09979e-10 2.34826e-09)
(-4.68955e-09 -1.92092e-10 2.16669e-09)
(-1.8503e-10 -1.41012e-10 1.39012e-10)
(-8.49149e-10 -3.97245e-10 4.43852e-10)
(-1.68444e-09 -4.31835e-10 1.05708e-09)
(-2.72592e-09 -6.90526e-10 1.14759e-09)
(-3.85242e-09 -1.21193e-09 1.21676e-09)
(-5.74073e-09 -1.20297e-09 1.66316e-09)
(-4.6828e-09 -5.43964e-10 2.60588e-09)
(-6.19786e-09 -1.54388e-09 3.13407e-09)
(-6.2226e-09 -6.99962e-10 2.50935e-09)
)
;
    }
    procBoundary0to6
    {
        type            processor;
        value           uniform (-7.6079e-09 -1.36155e-09 4.12304e-09);
    }
    procBoundary0to7
    {
        type            processor;
        value           uniform (-8.07552e-09 -9.92746e-10 6.21957e-09);
    }
}


// ************************************************************************* //
