/*--------------------------------*- C++ -*----------------------------------*\
| =========                 |                                                 |
| \\      /  F ield         | OpenFOAM: The Open Source CFD Toolbox           |
|  \\    /   O peration     | Version:  4.x                                   |
|   \\  /    A nd           | Web:      www.OpenFOAM.org                      |
|    \\/     M anipulation  |                                                 |
\*---------------------------------------------------------------------------*/
FoamFile
{
    version     2.0;
    format      ascii;
    class       volScalarField;
    location    "46.5";
    object      magGField;
}
// * * * * * * * * * * * * * * * * * * * * * * * * * * * * * * * * * * * * * //

dimensions      [1 -2 -1 0 0 0 0];

internalField   nonuniform List<scalar> 
114
(
91.0842
9.07459
78.0102
2.98525e-05
54.7655
4.47438
0.451422
89.1056
1.03744
85.8461
5.41471
75.6311
25.4937
79.4885
3.95287e-05
78.0261
3.75589e-05
75.1917
3.66806e-05
64.5257
19.812
45.407
106.53
43.8039
110.412
39.911
115.524
33.6208
126.881
37.225
10.0677
92.4175
4.11022
93.2666
2.42267
92.9841
10.5518
89.1367
44.3277
0.00488125
87.4658
4.1032e-05
87.8611
2.59983
89.8257
10.2472
85.7963
24.1818
3.86456e-05
84.2089
41.9047
101.099
39.2455
102.881
35.6999
104.577
27.6974
104.846
19.8924
21.444
94.4733
17.73
96.6794
14.1279
98.782
13.3926
102.152
26.8159
4.00041
88.6049
3.78854e-05
86.7044
3.5772e-05
82.3954
7.96694
75.2719
40.8552
5.95912
89.3381
3.43313
90.9222
66.3899
117.246
69.2031
125.185
69.5014
140.516
65.2804
175.293
56.8028
52.4936
108.779
53.4367
114.512
51.5166
122.459
44.4259
134.967
30.4533
44.4242
103.058
43.6099
107.085
43.1464
114.802
41.2296
134.301
39.5212
42.546
102.399
40.8082
105.266
37.5342
110.723
)
;

boundaryField
{
    inlet
    {
        type            calculated;
        value           nonuniform 0();
    }
    outlet
    {
        type            calculated;
        value           nonuniform List<scalar> 
12
(
9.81867
56.052
43.725
81.7424
97.8736
53.4708
43.7981
59.1235
91.1293
124.666
67.102
87.6731
)
;
    }
    wall
    {
        type            calculated;
        value           uniform 0;
    }
    procBoundary5to1
    {
        type            processor;
        value           nonuniform List<scalar> 
32
(
117.086
46.2194
122.341
38.8291
128.899
35.676
28.1108
108.048
28.008
113.376
30.0737
121.607
41.4091
91.5805
6.11437
92.0802
7.36617
91.8494
15.3922
87.5937
39.0941
37.5602
98.5445
25.7029
25.7029
25.7029
5.50662
89.4797
89.4797
89.4797
3.52519e-05
3.52519e-05
)
;
    }
    procBoundary5to4
    {
        type            processor;
        value           nonuniform List<scalar> 
12
(
102.858
91.6932
87.7402
84.3911
100.082
93.063
88.6255
88.3058
111.367
104.83
100.33
99.9509
)
;
    }
    procBoundary5to7
    {
        type            processor;
        value           nonuniform List<scalar> 
44
(
88.181
2.9229
88.0891
0.481301
86.0001
0.00801492
74.2611
11.9034
3.33923
88.181
3.93023e-05
83.9462
3.46169e-05
82.6026
3.13851e-05
74.1779
18.9246
3.76432e-05
3.93023e-05
81.999
3.93023e-05
83.9462
6.27194
92.0555
13.7313
87.387
42.685
1.25416
86.5659
3.92936e-05
6.27194
85.9394
6.27194
92.0555
35.7458
124.855
34.6487
36.7767
97.5765
33.4866
97.5692
30.1613
35.7458
98.2066
)
;
    }
}


// ************************************************************************* //
