/*--------------------------------*- C++ -*----------------------------------*\
| =========                 |                                                 |
| \\      /  F ield         | OpenFOAM: The Open Source CFD Toolbox           |
|  \\    /   O peration     | Version:  4.x                                   |
|   \\  /    A nd           | Web:      www.OpenFOAM.org                      |
|    \\/     M anipulation  |                                                 |
\*---------------------------------------------------------------------------*/
FoamFile
{
    version     2.0;
    format      ascii;
    class       surfaceScalarField;
    location    "46.5";
    object      phi;
}
// * * * * * * * * * * * * * * * * * * * * * * * * * * * * * * * * * * * * * //

dimensions      [0 3 -1 0 0 0 0];

internalField   nonuniform List<scalar> 
259
(
6.17209e-06
4.16077e-07
2.45572e-07
5.21204e-06
2.90313e-08
2.57707e-07
4.79205e-06
3.1178e-07
2.87556e-07
3.26613e-06
-8.15854e-08
5.97842e-07
3.67086e-06
4.13524e-07
1.93238e-07
-8.86495e-08
1.37363e-06
5.3802e-06
-6.05007e-09
8.52461e-09
5.56058e-06
2.53262e-07
6.68384e-08
5.19159e-06
-1.71007e-08
3.8563e-09
5.59751e-06
1.49441e-07
2.6967e-07
4.70564e-06
-8.514e-08
3.72981e-08
5.80524e-06
2.37399e-07
5.68911e-07
-1.38488e-07
1.74094e-07
4.8718e-06
2.29168e-08
4.7166e-06
1.95356e-12
4.78878e-06
1.20114e-07
4.53656e-06
4.41145e-08
4.61911e-06
2.66754e-07
3.86924e-06
2.202e-07
5.20852e-06
9.62017e-08
4.68552e-07
9.19075e-06
-1.26702e-07
-1.84712e-08
9.2196e-06
-6.80656e-08
1.43647e-07
9.3105e-06
-1.22376e-07
1.02071e-07
9.20917e-06
1.26032e-07
2.2088e-07
9.34947e-06
-2.10437e-07
3.2784e-07
9.04513e-06
4.81553e-07
1.10341e-07
9.52045e-06
-6.77414e-07
7.9994e-07
9.12931e-06
1.10831e-06
-5.23941e-07
-2.88937e-06
2.20932e-06
6.17698e-06
-7.07351e-08
-3.60692e-09
5.94313e-06
4.83528e-08
9.48511e-08
5.8532e-06
-4.4824e-08
2.09078e-08
5.90028e-06
1.5503e-07
-9.23745e-09
5.70953e-06
-8.84907e-08
7.26564e-08
6.29751e-06
3.40051e-07
-1.76809e-07
5.82863e-06
-5.15899e-07
3.44659e-07
7.17738e-06
1.05488e-06
-7.26402e-07
-2.30746e-06
2.19189e-06
5.29438e-06
-3.02605e-11
8.62803e-09
5.3597e-06
8.77394e-09
-2.81679e-09
5.31488e-06
7.42072e-13
5.57247e-06
4.29679e-08
5.53208e-06
4.26757e-08
6.09057e-06
6.53017e-08
5.64602e-06
3.82396e-07
6.52656e-06
-4.35626e-07
2.2977e-06
5.09867e-06
3.1278e-08
-2.21969e-08
8.6495e-06
-3.75424e-08
7.39146e-08
8.61604e-06
2.17761e-09
1.74934e-07
8.58317e-06
-1.08266e-08
1.45768e-07
8.52017e-06
1.49362e-07
1.34511e-07
8.45641e-06
-1.87816e-08
4.10385e-07
8.13488e-06
4.3164e-07
2.33159e-10
7.94638e-06
-1.06116e-07
1.09455e-06
7.33494e-06
8.73523e-07
-7.86026e-07
-6.84208e-07
3.19036e-06
6.99856e-06
-6.54872e-08
5.45256e-08
6.9003e-06
3.71676e-08
1.58123e-07
6.893e-06
-6.939e-08
8.67787e-08
6.82118e-06
2.07258e-07
4.67866e-09
6.77291e-06
-1.0258e-07
2.04733e-07
6.87003e-06
4.42801e-07
-2.85096e-07
6.82088e-06
-2.55233e-07
5.42933e-07
7.21572e-06
8.64312e-07
-1.11204e-06
-1.26761e-06
1.89469e-06
5.58059e-06
-2.30158e-08
8.23024e-08
5.42926e-06
9.74058e-08
8.82746e-08
5.2433e-06
-7.49118e-09
1.24063e-07
5.31776e-06
1.48501e-07
2.72618e-08
4.97512e-06
3.01774e-07
5.55353e-06
-2.21578e-07
4.92901e-06
8.59408e-07
6.2955e-06
-1.02609e-06
3.54894e-06
5.74345e-06
7.42599e-08
5.71362e-06
3.44383e-08
5.67373e-06
7.48464e-08
-9.34256e-08
1.11205e-05
-1.67025e-07
1.14201e-05
-1.24662e-07
1.17614e-05
-1.9557e-07
1.19215e-05
-2.55597e-08
1.26839e-05
-3.51986e-07
1.25189e-05
1.65193e-07
1.44128e-05
-7.99338e-07
1.28665e-05
7.60295e-07
-2.43504e-06
9.75733e-06
-2.37175e-07
9.94233e-06
-1.51544e-07
1.01504e-05
-3.1688e-07
1.01797e-05
-5.01129e-08
1.04914e-05
-4.5901e-07
1.01907e-05
1.8078e-07
1.07076e-05
-7.73318e-07
9.5149e-06
8.40991e-07
-1.51198e-06
8.91988e-06
-2.06536e-07
8.99361e-06
-1.37e-07
9.10078e-06
-2.99978e-07
9.20542e-06
-1.27491e-07
9.50825e-06
-4.60069e-07
9.47646e-06
-9.01412e-09
1.04307e-05
9.74776e-06
8.76587e-06
8.78387e-06
8.81876e-06
8.75793e-06
8.92482e-06
)
;

boundaryField
{
    inlet
    {
        type            calculated;
        value           nonuniform 0();
    }
    outlet
    {
        type            calculated;
        value           nonuniform List<scalar> 
12
(
6.06471e-07
3.17094e-06
3.23435e-06
1.1183e-05
4.57767e-06
3.23424e-06
7.03811e-06
8.09633e-06
4.44901e-06
1.84919e-05
1.04865e-05
1.33766e-05
)
;
    }
    wall
    {
        type            calculated;
        value           nonuniform List<scalar> 
66
(
0
0
-7.70372e-34
0
0
0
0
0
0
6.16298e-33
0
0
0
-3.85186e-34
0
0
0
0
0
0
0
0
0
0
0
0
0
0
0
0
0
0
0
0
0
0
0
0
0
0
0
0
0
0
0
0
0
0
0
0
0
0
0
0
0
0
0
0
0
0
0
0
0
0
0
0
)
;
    }
    procBoundary5to1
    {
        type            processor;
        value           nonuniform List<scalar> 
32
(
1.99063e-07
6.73315e-07
-1.79347e-07
1.00967e-06
-1.0115e-06
1.7794e-06
2.26628e-07
-8.44001e-08
4.11261e-07
-5.13247e-07
8.58121e-07
-1.49239e-06
2.51005e-06
-4.11409e-08
1.12646e-07
-7.63789e-08
1.82263e-07
-2.60165e-07
4.44136e-07
-6.96744e-07
1.08276e-06
4.09162e-08
-1.04428e-07
-7.0328e-06
-6.92194e-08
-7.05983e-08
1.98484e-08
-5.54008e-06
-2.23213e-07
2.25782e-08
-4.81021e-06
-5.98879e-11
)
;
    }
    procBoundary5to4
    {
        type            processor;
        value           nonuniform List<scalar> 
12
(
-9.0865e-06
-6.24919e-06
-5.37366e-06
-5.16681e-06
-8.70434e-06
-7.02875e-06
-5.69673e-06
-5.79559e-06
-1.08796e-05
-9.63265e-06
-8.86822e-06
-8.73171e-06
)
;
    }
    procBoundary5to7
    {
        type            processor;
        value           nonuniform List<scalar> 
44
(
1.79838e-07
3.6508e-08
1.37344e-07
8.7437e-09
6.03046e-08
3.92161e-10
-5.01343e-07
2.84376e-07
3.6828e-08
4.05204e-08
-4.94105e-13
-2.54217e-08
-4.66584e-08
-1.69896e-08
-2.33548e-07
7.06173e-07
-8.44281e-07
-7.17008e-13
5.16079e-06
-7.1664e-08
-3.42088e-08
-6.25919e-08
-1.90364e-08
1.51268e-07
-1.0773e-07
8.82893e-08
-6.72364e-07
-1.38559e-08
7.06078e-08
-8.24269e-09
5.98277e-06
-4.51914e-09
-1.97456e-07
1.47873e-07
-8.68174e-07
4.97878e-07
-1.59189e-06
-1.66429e-07
-1.20561e-07
-2.60029e-07
-1.60086e-07
-4.29503e-07
8.91007e-06
-1.42138e-07
)
;
    }
}


// ************************************************************************* //
