/*--------------------------------*- C++ -*----------------------------------*\
| =========                 |                                                 |
| \\      /  F ield         | OpenFOAM: The Open Source CFD Toolbox           |
|  \\    /   O peration     | Version:  4.x                                   |
|   \\  /    A nd           | Web:      www.OpenFOAM.org                      |
|    \\/     M anipulation  |                                                 |
\*---------------------------------------------------------------------------*/
FoamFile
{
    version     2.0;
    format      ascii;
    class       volScalarField;
    location    "46.5";
    object      pSmooth;
}
// * * * * * * * * * * * * * * * * * * * * * * * * * * * * * * * * * * * * * //

dimensions      [1 -1 -2 0 0 0 0];

internalField   nonuniform List<scalar> 
114
(
69.1677
0.1
62.4796
0.1
55.7991
0.1
1.48102
68.4734
0.1
62.1608
0.1
56.2668
0.1
75.0843
4.86207
68.3972
0.1
61.6465
0.1
53.7756
0.1
19.4837
74.8173
0.267558
68.6493
0.1
63.5033
0.1
60.4426
0.1
19.6928
74.9592
0.708617
68.4342
0.1
62.5476
0.1
58.0749
0.1
21.0329
74.7467
2.76765
68.1996
0.1
62.2508
0.1
57.4342
0.1
21.7144
74.7609
20.2655
75.0878
1.29017
68.6112
0.1
62.6091
0.1
57.6064
0.1
20.1005
75.0535
0.892079
68.4561
0.1
62.3178
0.1
57.2556
0.1
20.7883
75.0597
2.2255
68.1873
0.1
61.2251
0.1
54.4962
0.1
20.6855
74.8543
1.75297
68.0009
19.942
74.6873
0.62438
68.5408
0.1
63.5814
0.1
62.1007
0.1
19.9636
74.7486
0.643002
68.5212
0.1
63.1994
0.1
60.3131
0.1
20.5698
74.7974
1.52881
68.255
0.1
62.484
0.1
58.7858
0.1
20.5409
74.7985
1.50276
68.3766
0.1
62.605
)
;

boundaryField
{
    inlet
    {
        type            zeroGradient;
    }
    outlet
    {
        type            fixedValue;
        value           uniform 0;
    }
    wall
    {
        type            zeroGradient;
    }
    procBoundary5to1
    {
        type            processor;
        value           nonuniform List<scalar> 
32
(
68.896
0.1
64.2313
0.1
62.1281
0.1
0.1
68.6472
0.1
63.6823
0.1
61.2244
0.1
74.8147
1.16559
68.4499
0.1
62.8005
0.1
58.2516
0.1
20.4689
75.5486
2.07354
2.07354
2.07354
20.2848
75.2103
75.2103
75.2103
22.4319
22.4319
)
;
    }
    procBoundary5to4
    {
        type            processor;
        value           nonuniform List<scalar> 
12
(
81.491
81.7932
81.8096
81.6645
81.8514
81.9424
82.1322
81.8987
81.2991
81.4895
81.621
81.5992
)
;
    }
    procBoundary5to7
    {
        type            processor;
        value           nonuniform List<scalar> 
44
(
74.7669
2.09026
68.3073
0.1
62.4527
0.1
57.5411
0.1
20.8227
74.7669
3.77847
68.2583
0.1
62.4414
0.1
56.4528
0.1
22.7604
3.77847
74.9154
3.77847
68.2583
0.1
61.8595
0.1
56.83
0.1
21.2972
74.8647
2.81109
0.1
68.0775
0.1
61.8595
0.1
58.6583
0.1
21.2071
74.9211
2.5785
68.3425
0.1
0.1
62.214
)
;
    }
}


// ************************************************************************* //
