/*--------------------------------*- C++ -*----------------------------------*\
| =========                 |                                                 |
| \\      /  F ield         | OpenFOAM: The Open Source CFD Toolbox           |
|  \\    /   O peration     | Version:  4.x                                   |
|   \\  /    A nd           | Web:      www.OpenFOAM.org                      |
|    \\/     M anipulation  |                                                 |
\*---------------------------------------------------------------------------*/
FoamFile
{
    version     2.0;
    format      ascii;
    class       volScalarField;
    location    "46.5";
    object      QPartFluidCoeff;
}
// * * * * * * * * * * * * * * * * * * * * * * * * * * * * * * * * * * * * * //

dimensions      [1 -1 -3 -1 0 0 0];

internalField   nonuniform List<scalar> 
114
(
-2.61913e+07
-2.41625e+07
-2.34314e+07
-1.90506e+07
-2.62761e+07
-1.95002e+07
-2.42087e+07
-2.35069e+07
-1.96722e+07
-2.75724e+07
-2.83838e+07
-3.38094e+07
-2.18576e+07
-3.31915e+07
-2.04954e+07
-2.90585e+07
-1.96303e+07
-1.77382e+07
-2.48946e+07
-2.08572e+07
-2.2151e+07
-2.21617e+07
-1.89972e+07
-2.52409e+07
-2.1272e+07
-2.19461e+07
-2.7911e+07
-2.41583e+07
-2.26609e+07
-1.62807e+07
-2.70274e+07
-2.74601e+07
-3.07477e+07
-2.99948e+07
-2.9439e+07
-3.38621e+07
-1.79723e+07
-3.55755e+07
-2.11887e+07
-2.83712e+07
-1.83754e+07
-2.42835e+07
-3.04019e+07
-2.06874e+07
-2.81616e+07
-2.44767e+07
-2.71571e+07
-1.50627e+07
-3.42516e+07
-1.69039e+07
-2.41866e+07
-3.18121e+07
-2.44913e+07
-2.85865e+07
-2.52961e+07
-2.6805e+07
-2.23369e+07
-2.91854e+07
-1.71708e+07
-2.06566e+07
-3.63516e+07
-2.3378e+07
-3.04143e+07
-2.77169e+07
-3.06635e+07
-3.58855e+07
-2.90971e+07
-1.59839e+07
-2.47144e+07
-2.59547e+07
-2.60735e+07
-2.46463e+07
-3.78938e+07
-3.09284e+07
-3.02307e+07
-3.67173e+07
-2.76159e+07
-1.76677e+07
-3.91287e+07
-3.1814e+07
-3.32768e+07
-8.29938e+06
-2.29103e+07
-1.50996e+07
-2.57604e+07
-2.02133e+07
-1.95406e+07
-2.3934e+07
-2.64801e+07
-1.674e+07
-2.32277e+07
-2.7415e+07
-1.67962e+07
-2.31242e+07
-2.72974e+07
-2.56589e+07
-1.8255e+07
-3.01041e+07
-1.78326e+07
-2.03008e+07
-2.44451e+07
-2.91178e+07
-2.62517e+07
-2.09466e+07
-3.16283e+07
-2.34971e+07
-2.74843e+07
-2.15761e+07
-2.39973e+07
-2.1627e+07
-2.44707e+07
-2.24993e+07
-3.47571e+07
-2.85326e+07
)
;

boundaryField
{
    inlet
    {
        type            calculated;
        value           nonuniform 0();
    }
    outlet
    {
        type            calculated;
        value           uniform 0;
    }
    wall
    {
        type            calculated;
        value           uniform 0;
    }
    procBoundary5to1
    {
        type            processor;
        value           nonuniform List<scalar> 
32
(
727.724
461.149
731.766
575.322
562.92
241.778
491.485
613.14
619.756
687.67
578.216
715.544
280.718
595.429
414.513
842.379
670.834
809.538
566.62
732.295
255.511
489.036
418.223
574.364
574.364
574.364
593.889
922.013
922.013
922.013
445.811
445.811
)
;
    }
    procBoundary5to4
    {
        type            processor;
        value           nonuniform List<scalar> 
12
(
729.446
839.726
509.725
534.013
724.105
793.945
652.81
615.188
620.466
648.799
533.213
536.027
)
;
    }
    procBoundary5to7
    {
        type            processor;
        value           nonuniform List<scalar> 
44
(
693.05
489.494
603.838
840.354
948.832
605.282
494.117
464.11
763.857
693.05
495.27
653.421
528.994
621.312
667.321
748.346
460.702
291.163
495.27
763.731
495.27
653.421
379.381
551.434
624.759
580.404
352.844
648.321
692.412
536.051
379.381
494.131
379.381
551.434
445.53
613.781
369.231
554.536
531.216
572.745
656.474
396.161
445.53
374.893
)
;
    }
}


// ************************************************************************* //
