/*--------------------------------*- C++ -*----------------------------------*\
| =========                 |                                                 |
| \\      /  F ield         | OpenFOAM: The Open Source CFD Toolbox           |
|  \\    /   O peration     | Version:  4.x                                   |
|   \\  /    A nd           | Web:      www.OpenFOAM.org                      |
|    \\/     M anipulation  |                                                 |
\*---------------------------------------------------------------------------*/
FoamFile
{
    version     2.0;
    format      ascii;
    class       volScalarField;
    location    "20";
    object      alpha.iron;
}
// * * * * * * * * * * * * * * * * * * * * * * * * * * * * * * * * * * * * * //

dimensions      [0 0 0 0 0 0 0];

internalField   nonuniform List<scalar> 
87
(
0.999949
0.99998
0.99996
0.999996
0.999994
0.999989
1
1
0.999999
0.999998
0.999996
0.99999
0.999974
0.999946
0.999912
1
1
0.999999
0.999998
0.999996
0.999993
0.999987
0.999975
0.999955
1
1
0.999999
0.999999
0.999998
0.999997
0.999995
0.999992
0.999986
1
1
0.999999
0.999999
0.999998
0.999995
0.99999
0.99998
0.999963
1
1
0.999999
0.999999
0.999998
0.999997
0.999994
0.999987
0.999975
1
1
1
0.999999
0.999999
0.999998
0.999997
0.999995
0.999991
1
1
0.999999
0.999999
0.999998
0.999997
0.999995
0.999992
0.999984
1
1
1
0.999999
0.999999
0.999998
0.999996
0.999994
0.999989
1
1
1
0.999999
0.999999
0.999998
0.999998
0.999996
0.999995
)
;

boundaryField
{
    inlet
    {
        type            fixedValue;
        value           uniform 1;
    }
    outlet
    {
        type            fixedValue;
        value           nonuniform 0();
    }
    wall
    {
        type            zeroGradient;
    }
    procBoundary6to0
    {
        type            processor;
        value           uniform 0.999932;
    }
    procBoundary6to2
    {
        type            processor;
        value           nonuniform List<scalar> 
32
(
0.999925
0.999977
0.99994
0.999995
0.999994
0.999986
1
1
0.999999
0.999998
0.999997
0.999994
0.999987
0.999973
0.999973
0.999973
1
1
0.999999
0.999998
0.999997
0.999995
0.99999
0.99999
0.99999
1
1
0.999999
0.999999
0.999998
0.999997
0.999997
)
;
    }
    procBoundary6to4
    {
        type            processor;
        value           nonuniform List<scalar> 
27
(
1
1
0.999999
0.999999
0.999997
0.999993
0.999984
0.999966
0.999938
1
1
1
0.999999
0.999998
0.999995
0.999989
0.999977
0.999958
1
1
1
0.999999
0.999999
0.999997
0.999995
0.99999
0.999982
)
;
    }
    procBoundary6to7
    {
        type            processor;
        value           nonuniform List<scalar> 
12
(
0.999914
0.99993
0.999979
0.999885
0.999928
0.999976
0.999942
0.999958
0.999985
0.999974
0.999982
0.999991
)
;
    }
}


// ************************************************************************* //
