/*--------------------------------*- C++ -*----------------------------------*\
| =========                 |                                                 |
| \\      /  F ield         | OpenFOAM: The Open Source CFD Toolbox           |
|  \\    /   O peration     | Version:  4.x                                   |
|   \\  /    A nd           | Web:      www.OpenFOAM.org                      |
|    \\/     M anipulation  |                                                 |
\*---------------------------------------------------------------------------*/
FoamFile
{
    version     2.0;
    format      ascii;
    class       volScalarField;
    location    "20";
    object      Ksl;
}
// * * * * * * * * * * * * * * * * * * * * * * * * * * * * * * * * * * * * * //

dimensions      [1 -3 -1 0 0 0 0];

internalField   nonuniform List<scalar> 
87
(
3749.37
14442.1
3715.22
3298.01
6498.21
3192.2
3643.91
11021.1
3924.38
19625
4054.75
51409.4
4089.68
9.94298e+09
4119.25
3567.93
9718.13
3778.55
12953
3884.11
17890.1
3925.9
29090.3
3945.88
3439.54
7674.84
3465.73
7599.48
3501.13
7909.64
3487.97
8009.25
3469.25
3607.63
9496.48
3800.87
12267.4
3838.48
15804.7
3847.61
21367.4
3781.64
3514.98
8581.83
3660.64
9625.1
3700.56
10779.9
3729.81
12654
3704.16
3428.02
7152.68
3371.77
6733.32
3341.39
6572.55
3298.77
6454.2
3217.33
3493.64
7712.76
3540.96
8024.22
3520.01
8435.25
3535.21
9033.69
3470.61
3433.37
7202.43
3415.12
6864.32
3372.94
6735.3
3359.36
6763.84
3305.19
3376.5
6603.44
3248.76
5731.35
3101.37
5202.79
3031.91
4924.17
2967.69
)
;

boundaryField
{
    inlet
    {
        type            zeroGradient;
    }
    outlet
    {
        type            zeroGradient;
    }
    wall
    {
        type            zeroGradient;
    }
    procBoundary6to0
    {
        type            processor;
        value           uniform 3912.83;
    }
    procBoundary6to2
    {
        type            processor;
        value           nonuniform List<scalar> 
32
(
3919.02
22497.7
3890.85
3371.82
6647.52
3283.16
3602.01
9846.05
3827.34
12554.2
3858.28
15348.7
3820.28
19214.1
19214.1
19214.1
3552.99
9143.29
3761.87
10878.8
3809.62
12662.1
3782.4
3782.4
3782.4
3437.6
7486.59
3466.5
7157.4
3407.34
6816.21
6816.21
)
;
    }
    procBoundary6to4
    {
        type            processor;
        value           nonuniform List<scalar> 
27
(
3571.83
10107.3
3891.69
15031
3997.85
25872.2
4037.84
67645.9
3989.31
3578.11
9740.67
3829.29
13747.7
3943.37
20508.1
3955
33823
3897.55
3532.92
8191.47
3600.89
8910.72
3611.63
9236.49
3531.21
8958.76
3459.43
)
;
    }
    procBoundary6to7
    {
        type            processor;
        value           nonuniform List<scalar> 
12
(
24153.6
15145.4
6324.72
1e+10
65789.4
8554.97
33492.3
15048.3
6189.11
9647.02
6690.72
4814.31
)
;
    }
}


// ************************************************************************* //
