/*--------------------------------*- C++ -*----------------------------------*\
| =========                 |                                                 |
| \\      /  F ield         | OpenFOAM: The Open Source CFD Toolbox           |
|  \\    /   O peration     | Version:  4.x                                   |
|   \\  /    A nd           | Web:      www.OpenFOAM.org                      |
|    \\/     M anipulation  |                                                 |
\*---------------------------------------------------------------------------*/
FoamFile
{
    version     2.0;
    format      ascii;
    class       volScalarField;
    location    "20";
    object      pSmooth;
}
// * * * * * * * * * * * * * * * * * * * * * * * * * * * * * * * * * * * * * //

dimensions      [1 -1 -2 0 0 0 0];

internalField   nonuniform List<scalar> 
87
(
80.2996
41.0386
80.2131
87.4456
40.851
79.9179
112.051
94.3132
104.438
77.3508
96.485
59.7841
88.3713
42.2154
80.2271
111.637
94.2987
104.134
77.2151
96.3115
59.6709
88.4635
42.0178
80.658
110.977
93.952
103.569
77.013
95.8864
59.4629
87.9807
41.8631
80.3605
111.781
94.2761
104.065
77.1861
96.116
59.8038
88.1989
42.0909
80.4231
111.46
94.2575
103.888
77.1931
96.0306
59.7549
88.1743
42.0513
80.4234
110.829
93.9015
103.373
76.9773
95.6094
59.4873
87.7756
41.798
80.1226
111.452
94.2191
103.926
77.2228
96.0572
59.8323
88.1386
42.0625
80.372
111.179
94.165
103.709
77.2253
95.9326
59.7593
88.032
42.2102
80.3437
110.674
93.9216
103.265
76.9899
95.5666
59.6095
87.7487
42.1363
80.2538
)
;

boundaryField
{
    inlet
    {
        type            zeroGradient;
    }
    outlet
    {
        type            fixedValue;
        value           nonuniform 0();
    }
    wall
    {
        type            zeroGradient;
    }
    procBoundary6to0
    {
        type            processor;
        value           uniform 80.5768;
    }
    procBoundary6to2
    {
        type            processor;
        value           nonuniform List<scalar> 
32
(
80.5502
41.0712
80.606
87.5279
40.9268
80.0689
111.169
93.884
103.569
76.5137
95.7263
58.8504
87.9337
40.909
40.909
40.909
111.014
93.8554
103.508
76.5751
95.707
58.9837
87.865
87.865
87.865
110.353
93.4871
102.94
76.3132
95.2064
58.7303
58.7303
)
;
    }
    procBoundary6to4
    {
        type            processor;
        value           nonuniform List<scalar> 
27
(
111.957
94.658
104.474
77.4957
96.5972
60.015
88.5934
42.2882
80.6954
111.986
94.5631
104.404
77.5137
96.4196
59.9463
88.3945
42.1872
80.4768
111.751
94.3526
104.156
77.3727
96.1944
59.7617
88.1149
42.1935
80.3304
)
;
    }
    procBoundary6to7
    {
        type            processor;
        value           nonuniform List<scalar> 
12
(
22.86
22.9528
22.6575
24.845
24.3103
24.1122
24.1831
24.1177
23.8513
24.4779
24.5029
24.4505
)
;
    }
}


// ************************************************************************* //
