/*--------------------------------*- C++ -*----------------------------------*\
| =========                 |                                                 |
| \\      /  F ield         | OpenFOAM: The Open Source CFD Toolbox           |
|  \\    /   O peration     | Version:  4.x                                   |
|   \\  /    A nd           | Web:      www.OpenFOAM.org                      |
|    \\/     M anipulation  |                                                 |
\*---------------------------------------------------------------------------*/
FoamFile
{
    version     2.0;
    format      ascii;
    class       volVectorField;
    location    "20";
    object      UsNext;
}
// * * * * * * * * * * * * * * * * * * * * * * * * * * * * * * * * * * * * * //

dimensions      [0 1 -1 0 0 0 0];

internalField   nonuniform List<vector> 
87
(
(-3.73589e-08 -1.19952e-10 -2.9181e-09)
(-2.49421e-08 -2.20974e-09 -1.96438e-09)
(-3.04071e-08 4.29484e-10 -4.1297e-09)
(-7.02544e-09 -7.41333e-11 3.1024e-10)
(-1.26232e-08 -1.12552e-09 -2.48522e-09)
(-9.88403e-09 -2.35565e-10 -3.65204e-09)
(2.74453e-09 4.24269e-10 9.2374e-10)
(3.12983e-09 -1.34801e-10 1.35245e-09)
(1.7103e-09 -6.23673e-10 1.94671e-09)
(-2.1929e-09 -1.24464e-09 1.61541e-09)
(-1.24169e-08 -1.34583e-09 7.51222e-10)
(-2.04555e-08 -2.83761e-09 2.50444e-09)
(-2.47496e-08 -3.43176e-09 6.67407e-10)
(-2.82162e-08 -1.95375e-09 -9.9544e-10)
(-3.3605e-08 6.77903e-11 -2.50547e-09)
(4.1744e-09 9.91379e-10 1.11601e-09)
(4.75989e-09 3.6354e-10 1.22285e-09)
(3.63265e-09 1.02463e-09 1.58371e-09)
(-1.79986e-09 5.6032e-10 1.82193e-09)
(-6.25328e-09 1.50023e-09 4.12935e-10)
(-1.30407e-08 -1.2165e-10 1.01131e-09)
(-1.94072e-08 -7.98451e-10 -9.86404e-10)
(-2.15249e-08 -7.74502e-10 -2.78337e-09)
(-2.57252e-08 2.93447e-10 -1.72529e-09)
(1.56923e-09 4.34922e-10 -2.15796e-10)
(7.38283e-09 1.0497e-09 5.45469e-10)
(2.76217e-09 1.54598e-09 7.83803e-10)
(5.66066e-10 1.72215e-09 1.30575e-09)
(-1.26489e-09 1.45266e-09 7.05746e-10)
(-5.91601e-09 7.165e-10 7.24518e-10)
(-7.76987e-09 1.85527e-10 4.71604e-10)
(-6.46433e-09 -2.71356e-13 -7.12601e-10)
(-1.23946e-08 8.58034e-10 -1.86179e-09)
(2.46583e-09 6.56955e-10 5.96278e-10)
(3.90391e-09 6.0721e-10 1.80666e-09)
(3.58407e-09 2.97471e-10 2.26118e-09)
(1.49421e-09 2.69758e-10 1.74665e-09)
(-1.94865e-09 3.36888e-10 1.86211e-09)
(-1.11356e-08 4.31404e-10 1.67188e-09)
(-1.55276e-08 -1.08987e-09 -4.68133e-10)
(-2.13961e-08 -2.08257e-09 -4.13604e-10)
(-2.54098e-08 2.73474e-11 -1.96299e-09)
(3.28138e-09 1.41026e-09 1.23839e-09)
(4.98572e-09 2.24076e-10 1.12785e-09)
(4.15071e-09 5.08633e-10 2.01511e-09)
(1.99887e-09 7.4954e-10 2.09575e-09)
(1.11747e-09 1.25623e-09 1.20166e-09)
(-8.34677e-09 1.02778e-09 1.90976e-09)
(-1.1131e-08 -7.84297e-10 -7.45252e-10)
(-1.14868e-08 -3.10516e-10 -2.63955e-09)
(-2.11625e-08 1.65843e-10 3.39225e-10)
(8.27863e-09 -5.43646e-10 -2.79839e-09)
(2.00469e-08 4.47211e-09 -3.58043e-09)
(3.2236e-09 -2.9572e-10 2.00986e-09)
(2.32023e-09 8.14295e-10 1.28559e-09)
(1.25586e-09 1.10724e-09 9.54377e-10)
(-1.3424e-09 1.09345e-09 7.44734e-10)
(-2.9892e-09 -9.16142e-11 -1.42521e-10)
(-3.89827e-09 9.65791e-11 -1.83807e-09)
(-7.33732e-09 -1.94212e-09 1.93989e-09)
(2.50599e-09 7.53021e-10 6.41733e-11)
(3.87864e-09 3.92407e-10 7.9866e-10)
(4.59406e-09 -5.33338e-11 1.69481e-09)
(2.02501e-09 4.71195e-10 1.18561e-09)
(-7.19547e-10 1.85424e-10 1.59021e-09)
(-3.93963e-09 3.10441e-10 1.67313e-09)
(-9.16493e-09 -1.21519e-09 -8.18778e-11)
(-1.2196e-08 -9.17146e-10 -1.16683e-11)
(-1.51324e-08 -1.36674e-09 -2.29282e-09)
(1.32747e-08 5.79408e-09 6.54504e-10)
(4.30117e-09 -5.10109e-10 5.34495e-10)
(3.40644e-09 3.98428e-10 8.54933e-10)
(3.32249e-09 7.05678e-10 5.63145e-10)
(1.03108e-09 8.87718e-10 8.18459e-10)
(-1.54177e-09 6.67022e-10 9.64552e-10)
(-4.20665e-09 -2.55014e-10 -5.91357e-10)
(-6.45627e-10 -2.18585e-10 -1.01646e-09)
(-8.74989e-09 -1.8644e-09 1.15063e-09)
(3.99534e-08 1.23372e-08 7.72325e-10)
(3.78291e-09 -1.52916e-12 -9.202e-11)
(2.12032e-09 -5.42526e-11 1.06406e-09)
(1.48138e-09 2.68153e-10 4.80935e-10)
(1.36578e-09 5.90326e-10 8.24626e-10)
(-2.38358e-11 4.21575e-10 6.20582e-10)
(-2.7627e-10 -6.45994e-13 8.62206e-11)
(1.68657e-10 7.56665e-12 -1.47709e-09)
(-3.57588e-09 -9.39207e-10 1.44276e-09)
)
;

boundaryField
{
    inlet
    {
        type            calculated;
        value           nonuniform List<vector> 9((2.74453e-09 4.24269e-10 9.2374e-10) (4.1744e-09 9.91379e-10 1.11601e-09) (1.56923e-09 4.34922e-10 -2.15796e-10) (2.46583e-09 6.56955e-10 5.96278e-10) (3.28138e-09 1.41026e-09 1.23839e-09) (8.27863e-09 -5.43646e-10 -2.79839e-09) (2.50599e-09 7.53021e-10 6.41733e-11) (1.32747e-08 5.79408e-09 6.54504e-10) (3.99534e-08 1.23372e-08 7.72325e-10));
    }
    outlet
    {
        type            calculated;
        value           nonuniform 0();
    }
    wall
    {
        type            calculated;
        value           nonuniform List<vector> 
57
(
(2.50599e-09 7.53021e-10 6.41733e-11)
(1.32747e-08 5.79408e-09 6.54504e-10)
(3.99534e-08 1.23372e-08 7.72325e-10)
(3.87864e-09 3.92407e-10 7.9866e-10)
(4.30117e-09 -5.10109e-10 5.34495e-10)
(3.78291e-09 -1.52916e-12 -9.202e-11)
(4.59406e-09 -5.33338e-11 1.69481e-09)
(3.40644e-09 3.98428e-10 8.54933e-10)
(2.12032e-09 -5.42526e-11 1.06406e-09)
(2.02501e-09 4.71195e-10 1.18561e-09)
(3.32249e-09 7.05678e-10 5.63145e-10)
(1.48138e-09 2.68153e-10 4.80935e-10)
(-7.19547e-10 1.85424e-10 1.59021e-09)
(1.03108e-09 8.87718e-10 8.18459e-10)
(1.36578e-09 5.90326e-10 8.24626e-10)
(-3.93963e-09 3.10441e-10 1.67313e-09)
(-1.54177e-09 6.67022e-10 9.64552e-10)
(-2.38358e-11 4.21575e-10 6.20582e-10)
(-9.16493e-09 -1.21519e-09 -8.18778e-11)
(-4.20665e-09 -2.55014e-10 -5.91357e-10)
(-2.7627e-10 -6.45994e-13 8.62206e-11)
(-1.2196e-08 -9.17146e-10 -1.16683e-11)
(-6.45627e-10 -2.18585e-10 -1.01646e-09)
(1.68657e-10 7.56665e-12 -1.47709e-09)
(-1.51324e-08 -1.36674e-09 -2.29282e-09)
(-8.74989e-09 -1.8644e-09 1.15063e-09)
(-3.57588e-09 -9.39207e-10 1.44276e-09)
(1.56923e-09 4.34922e-10 -2.15796e-10)
(8.27863e-09 -5.43646e-10 -2.79839e-09)
(3.99534e-08 1.23372e-08 7.72325e-10)
(7.38283e-09 1.0497e-09 5.45469e-10)
(2.00469e-08 4.47211e-09 -3.58043e-09)
(3.78291e-09 -1.52916e-12 -9.202e-11)
(2.76217e-09 1.54598e-09 7.83803e-10)
(3.2236e-09 -2.9572e-10 2.00986e-09)
(2.12032e-09 -5.42526e-11 1.06406e-09)
(5.66066e-10 1.72215e-09 1.30575e-09)
(2.32023e-09 8.14295e-10 1.28559e-09)
(1.48138e-09 2.68153e-10 4.80935e-10)
(-1.26489e-09 1.45266e-09 7.05746e-10)
(1.25586e-09 1.10724e-09 9.54377e-10)
(1.36578e-09 5.90326e-10 8.24626e-10)
(-5.91601e-09 7.165e-10 7.24518e-10)
(-1.3424e-09 1.09345e-09 7.44734e-10)
(-2.38358e-11 4.21575e-10 6.20582e-10)
(-7.02544e-09 -7.41333e-11 3.1024e-10)
(-7.76987e-09 1.85527e-10 4.71604e-10)
(-2.9892e-09 -9.16142e-11 -1.42521e-10)
(-2.7627e-10 -6.45994e-13 8.62206e-11)
(-1.26232e-08 -1.12552e-09 -2.48522e-09)
(-6.46433e-09 -2.71356e-13 -7.12601e-10)
(-3.89827e-09 9.65791e-11 -1.83807e-09)
(1.68657e-10 7.56665e-12 -1.47709e-09)
(-9.88403e-09 -2.35565e-10 -3.65204e-09)
(-1.23946e-08 8.58034e-10 -1.86179e-09)
(-7.33732e-09 -1.94212e-09 1.93989e-09)
(-3.57588e-09 -9.39207e-10 1.44276e-09)
)
;
    }
    procBoundary6to0
    {
        type            processor;
        value           uniform (-4.06451e-08 6.65831e-10 -3.60024e-09);
    }
    procBoundary6to2
    {
        type            processor;
        value           nonuniform List<vector> 
32
(
(-3.98193e-08 -7.093e-10 -4.10564e-09)
(-2.95498e-08 -2.43331e-09 -1.64055e-09)
(-3.25034e-08 -1.62745e-09 -4.07919e-09)
(-1.21596e-08 1.05121e-09 1.62312e-09)
(-1.46124e-08 1.36079e-09 -1.23349e-09)
(-1.88412e-08 -2.89934e-09 -3.28283e-09)
(2.45513e-09 1.63509e-10 3.04928e-10)
(2.91625e-09 -3.99511e-10 7.91397e-10)
(1.75997e-10 -6.16888e-10 3.0489e-10)
(-5.41148e-09 -2.25587e-10 -1.32113e-11)
(-1.34249e-08 -1.94617e-09 4.84552e-10)
(-2.22315e-08 -1.85075e-09 1.71837e-09)
(-2.92662e-08 -2.10094e-09 -9.58237e-10)
(-3.43098e-08 -1.62667e-09 -2.79555e-09)
(-3.43098e-08 -1.62667e-09 -2.79555e-09)
(-3.43098e-08 -1.62667e-09 -2.79555e-09)
(2.17901e-09 1.84367e-11 4.89612e-10)
(3.7123e-09 6.16727e-10 6.14016e-10)
(1.4229e-09 1.68384e-09 -2.19642e-10)
(-3.28148e-09 1.72043e-09 1.0214e-10)
(-1.06736e-08 3.94068e-10 1.02769e-09)
(-1.63667e-08 -8.79922e-10 9.19493e-10)
(-1.98626e-08 -5.03469e-10 -5.34998e-10)
(-1.98626e-08 -5.03469e-10 -5.34998e-10)
(-1.98626e-08 -5.03469e-10 -5.34998e-10)
(2.2517e-09 3.78483e-11 -9.06219e-11)
(3.0176e-09 -1.37214e-10 -1.36505e-10)
(3.12973e-09 1.01511e-09 1.82881e-10)
(1.11403e-09 1.55686e-09 6.53264e-10)
(-4.72388e-09 1.41545e-09 2.98653e-10)
(-6.00023e-09 4.25701e-10 5.06635e-10)
(-6.00023e-09 4.25701e-10 5.06635e-10)
)
;
    }
    procBoundary6to4
    {
        type            processor;
        value           nonuniform List<vector> 
27
(
(2.51528e-09 -4.45123e-10 2.2578e-10)
(3.78073e-09 -1.16511e-09 8.5486e-10)
(1.55743e-09 -1.11091e-09 1.74401e-09)
(-2.20936e-09 -1.79396e-09 2.24687e-09)
(-1.16303e-08 -3.71693e-09 1.27038e-09)
(-2.30357e-08 -4.79894e-09 4.86011e-10)
(-2.90465e-08 -3.00678e-09 -2.4576e-09)
(-3.45855e-08 -3.85763e-09 -1.81799e-09)
(-3.71117e-08 2.16369e-10 -3.98455e-09)
(2.7993e-09 3.92655e-11 8.73314e-10)
(3.81095e-09 -4.99467e-10 1.06674e-09)
(2.56727e-09 -3.36374e-10 2.11138e-09)
(6.53538e-10 -7.11077e-10 2.02791e-09)
(-3.75338e-09 -1.30282e-09 2.72068e-09)
(-1.38941e-08 -3.15699e-09 2.01861e-09)
(-1.81699e-08 -5.36993e-09 -3.614e-10)
(-2.33194e-08 -3.76032e-09 -1.72445e-09)
(-2.66834e-08 1.1005e-10 -7.83261e-09)
(2.25668e-09 -1.83612e-10 1.80429e-10)
(3.688e-09 1.80002e-10 2.86826e-10)
(3.44511e-09 -6.12884e-10 1.65718e-09)
(1.70709e-09 -5.08443e-10 1.29968e-09)
(-8.46059e-10 1.06708e-10 2.16963e-09)
(-3.72931e-09 -4.15145e-10 2.25091e-09)
(-7.43282e-09 -1.80439e-09 2.70626e-10)
(-1.2499e-08 -2.82895e-09 -6.3931e-10)
(-1.63952e-08 -1.4197e-09 -2.01243e-09)
)
;
    }
    procBoundary6to7
    {
        type            processor;
        value           nonuniform List<vector> 
12
(
(-3.88691e-08 4.45968e-09 -6.1947e-09)
(-2.9932e-08 -2.92983e-11 -2.79655e-09)
(-1.72524e-08 -1.16492e-09 -2.16331e-09)
(-3.45344e-08 7.69533e-10 -4.37195e-09)
(-2.89963e-08 -3.78997e-10 -2.07413e-09)
(-1.71085e-08 3.48868e-10 7.73974e-11)
(-2.69298e-08 -1.31507e-09 -3.16637e-09)
(-1.85996e-08 -3.39432e-10 -9.28369e-10)
(-8.39735e-09 -1.15298e-10 1.29109e-09)
(-1.45103e-08 -1.87735e-09 -1.30489e-09)
(-6.57343e-09 -2.04746e-09 -4.46775e-10)
(-3.20655e-09 -1.28791e-10 5.17055e-10)
)
;
    }
}


// ************************************************************************* //
