/*--------------------------------*- C++ -*----------------------------------*\
| =========                 |                                                 |
| \\      /  F ield         | OpenFOAM: The Open Source CFD Toolbox           |
|  \\    /   O peration     | Version:  4.x                                   |
|   \\  /    A nd           | Web:      www.OpenFOAM.org                      |
|    \\/     M anipulation  |                                                 |
\*---------------------------------------------------------------------------*/
FoamFile
{
    version     2.0;
    format      ascii;
    class       volScalarField;
    location    "45.5";
    object      p_rgh;
}
// * * * * * * * * * * * * * * * * * * * * * * * * * * * * * * * * * * * * * //

dimensions      [1 -1 -2 0 0 0 0];

internalField   nonuniform List<scalar> 
87
(
81.8166
37.7574
81.3131
88.3336
38.0583
81.3392
111.75
93.5373
104.434
75.9839
96.7113
57.9534
88.8362
40.1488
81.5128
111.151
93.3091
104.011
75.514
96.5532
57.2811
89.0887
39.0336
81.7333
110.534
93.0212
103.448
75.4038
96.1446
57.2166
88.7434
39.1
81.8316
111.544
93.4907
104.232
75.6438
96.6895
57.5472
89.1777
39.2555
81.8846
110.915
93.2179
103.662
75.4356
96.1829
57.286
88.7802
38.9195
81.5575
110.388
92.9574
103.256
75.3207
95.8808
57.1417
88.5419
38.8663
81.4045
111.046
93.3093
103.793
75.5901
96.2528
57.4932
88.7568
39.0758
81.534
110.607
93.0994
103.426
75.4436
95.9902
57.2216
88.5838
38.9992
81.4194
110.196
92.9538
103.1
75.334
95.7795
57.2652
88.4255
39.1384
81.4211
)
;

boundaryField
{
    inlet
    {
        type            fixedFluxPressure;
        gradient        nonuniform List<scalar> 9(-5.41108e-07 -2.15977e-07 -7.11621e-08 -2.46845e-07 -1.38365e-07 -9.09725e-08 -2.71985e-07 -5.81221e-07 -1.74157e-06);
        value           nonuniform List<scalar> 9(111.75 111.151 110.534 111.544 110.915 110.388 111.046 110.607 110.196);
    }
    outlet
    {
        type            fixedValue;
        value           nonuniform 0();
    }
    wall
    {
        type            fixedFluxPressure;
        gradient        nonuniform List<scalar> 
57
(
1.7521e-07
-6.50453e-08
1.65762e-07
8.35865e-07
3.70787e-07
2.1578e-07
7.59658e-08
2.59226e-07
1.08832e-06
5.25587e-07
6.13383e-07
-2.56717e-07
8.15382e-09
2.31583e-08
1.60405e-07
5.83204e-07
2.43064e-07
2.06874e-07
7.41385e-07
1.10275e-06
1.83801e-07
1.61825e-06
1.06139e-06
1.99626e-06
1.50797e-06
-8.91501e-07
-1.58576e-06
-1.00377e-07
-2.35903e-07
8.89379e-07
-1.56858e-06
-2.64128e-06
-3.80474e-07
-5.05024e-07
-1.91504e-06
-9.82136e-07
-2.07824e-06
-8.67408e-07
-6.73513e-07
-9.12134e-07
-7.25451e-07
-3.41288e-07
-3.55753e-06
-2.16094e-06
-1.16506e-06
-4.50454e-07
-1.59356e-06
-1.18889e-06
-5.60811e-07
-9.56128e-07
-6.73048e-06
-1.83572e-06
-6.32631e-07
-1.53281e-06
-3.68512e-06
4.95708e-08
6.56244e-07
)
;
        value           nonuniform List<scalar> 
57
(
111.046
110.607
110.196
93.3093
93.0994
92.9538
103.793
103.426
103.1
75.5901
75.4436
75.334
96.2528
95.9902
95.7795
57.4932
57.2216
57.2652
88.7568
88.5838
88.4255
39.0758
38.9992
39.1384
81.534
81.4194
81.4211
110.534
110.388
110.196
93.0212
92.9574
92.9538
103.448
103.256
103.1
75.4038
75.3207
75.334
96.1446
95.8808
95.7795
57.2166
57.1417
57.2652
88.3336
88.7434
88.5419
88.4255
38.0583
39.1
38.8663
39.1384
81.3392
81.8316
81.4045
81.4211
)
;
    }
    procBoundary6to0
    {
        type            processor;
        value           uniform 81.6558;
    }
    procBoundary6to2
    {
        type            processor;
        value           nonuniform List<scalar> 
32
(
81.4692
38.198
81.6333
88.3944
38.2721
81.4893
111.14
93.3249
104.004
75.2632
96.5599
57.0511
89.1116
38.7676
38.7676
38.7676
110.538
92.8798
103.37
74.8374
95.9192
56.4775
88.4827
88.4827
88.4827
109.999
92.6323
102.947
74.7399
95.6171
56.4931
56.4931
)
;
    }
    procBoundary6to4
    {
        type            processor;
        value           nonuniform List<scalar> 
27
(
111.424
93.6212
104.237
75.7174
96.6319
57.5377
88.9408
39.2462
81.3817
111.467
93.5154
104.19
75.6869
96.5354
57.2883
88.9418
38.727
81.6218
111.118
93.2063
103.75
75.4689
96.0997
57.0607
88.4743
38.7288
81.3219
)
;
    }
    procBoundary6to7
    {
        type            processor;
        value           nonuniform List<scalar> 
12
(
20.5667
18.8372
19.3913
22.484
20.8304
20.9199
21.0138
20.3743
20.4955
20.9092
20.553
20.8695
)
;
    }
}


// ************************************************************************* //
