/*--------------------------------*- C++ -*----------------------------------*\
| =========                 |                                                 |
| \\      /  F ield         | OpenFOAM: The Open Source CFD Toolbox           |
|  \\    /   O peration     | Version:  4.x                                   |
|   \\  /    A nd           | Web:      www.OpenFOAM.org                      |
|    \\/     M anipulation  |                                                 |
\*---------------------------------------------------------------------------*/
FoamFile
{
    version     2.0;
    format      ascii;
    class       volScalarField;
    location    "45.5";
    object      Qsource;
}
// * * * * * * * * * * * * * * * * * * * * * * * * * * * * * * * * * * * * * //

dimensions      [1 -1 -3 0 0 0 0];

internalField   nonuniform List<scalar> 
87
(
8.11378e+09
6.80732e+09
8.97053e+09
6.57711e+09
6.72121e+09
6.51829e+09
9.95321e+09
8.95455e+09
6.08435e+09
7.99357e+09
1.10698e+10
6.08808e+09
8.70331e+09
6.66596e+09
9.96199e+09
6.30336e+09
9.21715e+09
8.17777e+09
1.02187e+10
8.85353e+09
8.73501e+09
8.75201e+09
9.21617e+09
9.38892e+09
5.50564e+09
7.9925e+09
6.79123e+09
6.56301e+09
9.53318e+09
9.86798e+09
8.17299e+09
6.68875e+09
9.5761e+09
7.34985e+09
9.00243e+09
9.65991e+09
8.6378e+09
6.67179e+09
7.89319e+09
7.93539e+09
6.11568e+09
9.57264e+09
5.374e+09
8.87262e+09
8.84602e+09
8.03547e+09
7.94722e+09
6.55845e+09
1.00223e+10
6.58838e+09
9.98256e+09
5.63572e+09
7.10988e+09
7.02188e+09
8.30544e+09
9.06821e+09
6.66045e+09
8.49224e+09
6.9279e+09
7.75119e+09
5.72906e+09
5.82194e+09
8.25495e+09
7.4479e+09
7.99646e+09
6.93585e+09
1.11367e+10
9.13236e+09
5.38081e+09
6.01886e+09
6.26361e+09
8.46229e+09
6.64474e+09
1.05174e+10
7.1894e+09
8.06406e+09
6.57974e+09
9.34645e+09
5.90415e+09
7.04648e+09
8.47656e+09
7.36379e+09
7.00972e+09
9.59627e+09
7.42248e+09
6.80282e+09
9.01731e+09
)
;

boundaryField
{
    inlet
    {
        type            calculated;
        value           uniform 0;
    }
    outlet
    {
        type            calculated;
        value           nonuniform 0();
    }
    wall
    {
        type            calculated;
        value           uniform 0;
    }
    procBoundary6to0
    {
        type            processor;
        value           uniform 2.61802e+09;
    }
    procBoundary6to2
    {
        type            processor;
        value           nonuniform List<scalar> 
32
(
5.73728e+09
8.47935e+09
1.02327e+10
1.05645e+10
5.81204e+09
8.61824e+09
4.89894e+09
9.48524e+09
1.03019e+10
7.15676e+09
8.24193e+09
6.27619e+09
7.58926e+09
7.49736e+09
7.49736e+09
7.49736e+09
5.87228e+09
7.91197e+09
1.0529e+10
6.61821e+09
9.1261e+09
7.71587e+09
1.03161e+10
1.03161e+10
1.03161e+10
5.08838e+09
6.72183e+09
8.35618e+09
7.69664e+09
7.61283e+09
6.96942e+09
6.96942e+09
)
;
    }
    procBoundary6to4
    {
        type            processor;
        value           nonuniform List<scalar> 
27
(
3.45777e+09
6.7315e+09
9.39674e+09
5.70397e+09
8.7988e+09
6.66489e+09
1.10218e+10
5.98403e+09
7.06068e+09
6.20472e+09
8.58387e+09
7.54304e+09
9.648e+09
1.05215e+10
7.60766e+09
1.18351e+10
8.47215e+09
8.13785e+09
8.06079e+09
7.4059e+09
7.51162e+09
8.36633e+09
9.25739e+09
9.93773e+09
5.80506e+09
5.6049e+09
7.94311e+09
)
;
    }
    procBoundary6to7
    {
        type            processor;
        value           nonuniform List<scalar> 
12
(
7.47862e+09
5.33155e+09
7.57343e+09
3.85055e+09
6.01172e+09
6.98598e+09
8.57473e+09
8.19147e+09
6.52737e+09
7.72044e+09
6.81375e+09
7.25028e+09
)
;
    }
}


// ************************************************************************* //
