/*--------------------------------*- C++ -*----------------------------------*\
| =========                 |                                                 |
| \\      /  F ield         | OpenFOAM: The Open Source CFD Toolbox           |
|  \\    /   O peration     | Version:  4.x                                   |
|   \\  /    A nd           | Web:      www.OpenFOAM.org                      |
|    \\/     M anipulation  |                                                 |
\*---------------------------------------------------------------------------*/
FoamFile
{
    version     2.0;
    format      ascii;
    class       volScalarField;
    location    "31.5";
    object      KslNext;
}
// * * * * * * * * * * * * * * * * * * * * * * * * * * * * * * * * * * * * * //

dimensions      [1 -3 -1 0 0 0 0];

internalField   nonuniform List<scalar> 
87
(
3871.49
16906.1
3634.11
3260.04
6857.1
3185.33
3570.43
12041.3
3822.04
22486.7
3919.4
62835.3
3931.51
1e+10
3914.45
3484.98
10653.4
3675.58
15070.1
3762.13
23380.9
3783.5
48533.2
3771.23
3371
8067.6
3383.59
7823.09
3402.64
8000.4
3370.2
8041.9
3330.84
3525.81
10511.8
3715.49
14749.3
3765.17
22617
3799.25
46032.8
3769.26
3443.21
9083.84
3567.37
10019.3
3593.39
11038.8
3611.6
12685.9
3562.42
3364.13
7516.06
3304.98
6926.8
3270.19
6630
3226.65
6460.02
3161.47
3430.03
8099.03
3464.92
8215.23
3431.38
8437.79
3436.78
9051.84
3376.45
3370.16
7532.47
3341.39
7016.56
3285.42
6726.25
3249.79
6661.86
3172.66
3318.08
6947.1
3197.81
5992.74
3062.73
5452.05
3006.15
5183.32
2946.56
)
;

boundaryField
{
    inlet
    {
        type            zeroGradient;
    }
    outlet
    {
        type            zeroGradient;
    }
    wall
    {
        type            zeroGradient;
    }
    procBoundary6to0
    {
        type            processor;
        value           uniform 0;
    }
    procBoundary6to2
    {
        type            processor;
        value           uniform 0;
    }
    procBoundary6to4
    {
        type            processor;
        value           uniform 0;
    }
    procBoundary6to7
    {
        type            processor;
        value           uniform 0;
    }
}


// ************************************************************************* //
