/*--------------------------------*- C++ -*----------------------------------*\
| =========                 |                                                 |
| \\      /  F ield         | OpenFOAM: The Open Source CFD Toolbox           |
|  \\    /   O peration     | Version:  4.x                                   |
|   \\  /    A nd           | Web:      www.OpenFOAM.org                      |
|    \\/     M anipulation  |                                                 |
\*---------------------------------------------------------------------------*/
FoamFile
{
    version     2.0;
    format      ascii;
    class       volVectorField;
    location    "17.5";
    object      DDtUrel;
}
// * * * * * * * * * * * * * * * * * * * * * * * * * * * * * * * * * * * * * //

dimensions      [0 1 -2 0 0 0 0];

internalField   nonuniform List<vector> 
108
(
(0.00172826 -9.63535e-05 -9.78761e-05)
(0.00104596 -4.74143e-05 -5.72495e-05)
(0.00064386 -1.45196e-05 -2.98445e-05)
(0.000418444 8.08681e-06 -6.4461e-06)
(0.000280164 8.96691e-06 2.93773e-06)
(0.000214396 2.23594e-06 1.0579e-05)
(0.000170758 -2.17253e-06 1.83368e-05)
(0.000157763 -7.07504e-06 3.03283e-05)
(0.000122113 -4.47481e-06 2.56965e-05)
(0.00167667 -9.43785e-05 -9.80129e-05)
(0.000986397 -4.04314e-05 -5.72865e-05)
(0.000589223 -1.11345e-05 -2.74685e-05)
(0.00037159 6.97784e-06 -3.03027e-06)
(0.00024664 7.181e-06 6.86784e-06)
(0.000182736 3.39247e-06 1.75856e-05)
(0.000139752 7.37306e-07 2.37394e-05)
(0.000122541 -2.75207e-06 3.35747e-05)
(8.77306e-05 -2.07273e-06 2.40065e-05)
(0.00164004 -6.41937e-05 -0.000100836)
(0.000944155 -2.70279e-05 -5.68786e-05)
(0.000554475 -9.31918e-06 -2.52187e-05)
(0.000341446 -6.15536e-07 6.21578e-07)
(0.000221335 3.17768e-06 1.03643e-05)
(0.000155876 4.84306e-06 2.273e-05)
(0.000112591 3.7829e-06 2.66833e-05)
(8.7951e-05 2.18207e-06 3.36825e-05)
(5.76215e-05 -2.77324e-06 2.40443e-05)
(0.00162648 -2.20156e-05 -0.00010482)
(0.000926918 -8.306e-06 -5.81421e-05)
(0.000540843 -5.98053e-06 -2.66145e-05)
(0.000325744 -5.84185e-06 9.83125e-07)
(0.000205064 2.0091e-07 1.21796e-05)
(0.00013588 6.60455e-06 2.52647e-05)
(9.67714e-05 4.21673e-06 2.79095e-05)
(6.46633e-05 6.64855e-06 3.36651e-05)
(3.91929e-05 -3.99496e-06 2.42026e-05)
(0.00174662 -9.96959e-05 -3.61514e-05)
(0.00106423 -5.12785e-05 -2.98997e-05)
(0.000660092 -1.60981e-05 -2.53361e-05)
(0.000429869 7.53991e-06 -1.50923e-05)
(0.000286354 9.06504e-06 -2.95843e-06)
(0.000215525 5.39128e-06 9.86345e-06)
(0.000167502 1.53433e-06 1.62742e-05)
(0.000150906 6.1136e-07 1.99376e-05)
(0.000115938 -6.11521e-06 1.2882e-05)
(0.00169608 -9.76989e-05 -3.26534e-05)
(0.0010035 -4.43464e-05 -2.71293e-05)
(0.000598902 -1.16033e-05 -2.13505e-05)
(0.00037671 8.85199e-06 -1.36881e-05)
(0.000246389 9.15088e-06 -4.17923e-07)
(0.0001798 7.37212e-06 1.48557e-05)
(0.000135572 2.77202e-06 1.94071e-05)
(0.000118611 -3.42034e-07 2.53454e-05)
(9.22586e-05 -6.99891e-06 1.2112e-05)
(0.00165569 -7.01387e-05 -3.34645e-05)
(0.000957049 -2.90851e-05 -2.92055e-05)
(0.000558247 -9.91304e-06 -1.94416e-05)
(0.000341892 2.62517e-06 -8.75543e-06)
(0.000218441 5.20711e-06 3.93051e-06)
(0.000156112 6.79765e-06 2.02411e-05)
(0.000112706 2.45864e-06 2.18696e-05)
(9.5123e-05 -2.00605e-06 2.58596e-05)
(7.03499e-05 -1.00476e-05 1.1843e-05)
(0.00163748 -2.232e-05 -4.00916e-05)
(0.000934216 -8.74255e-06 -3.33476e-05)
(0.00053951 -6.33275e-06 -2.00808e-05)
(0.000322486 -4.29499e-06 -2.10535e-06)
(0.000200819 -1.35879e-06 7.94367e-06)
(0.000134841 1.30377e-06 2.12667e-05)
(9.44119e-05 5.46316e-07 2.14054e-05)
(6.93613e-05 -1.4005e-06 2.71459e-05)
(5.08572e-05 -7.77423e-06 1.2839e-05)
(0.00177906 -9.66978e-05 -1.38651e-05)
(0.00109856 -4.80166e-05 -1.70982e-05)
(0.000691979 -1.34892e-05 -2.16013e-05)
(0.000455041 6.77881e-06 -1.95143e-05)
(0.000306445 9.44219e-06 -7.98607e-06)
(0.000226986 7.66843e-06 8.34772e-06)
(0.000178801 6.10925e-07 1.48186e-05)
(0.000162115 -7.71367e-07 1.15444e-05)
(0.000128141 -7.82157e-06 1.56807e-06)
(0.0017354 -9.75918e-05 -8.96885e-06)
(0.00104429 -4.48473e-05 -1.20803e-05)
(0.000642491 -1.04832e-05 -1.67197e-05)
(0.000414501 9.46937e-06 -1.80733e-05)
(0.000270037 1.12328e-05 -5.61918e-06)
(0.000197225 1.19134e-05 1.17069e-05)
(0.000153595 3.17779e-06 1.48428e-05)
(0.000138537 -1.59757e-06 1.19695e-05)
(0.000115794 -1.3146e-05 2.96379e-06)
(0.00169165 -7.45835e-05 -1.04887e-05)
(0.000995242 -3.60653e-05 -1.46946e-05)
(0.000591509 -1.18466e-05 -1.54782e-05)
(0.000369795 7.7851e-06 -1.40139e-05)
(0.000233088 9.41316e-06 -1.50373e-06)
(0.00016997 1.00116e-05 1.65662e-05)
(0.000132047 1.47016e-06 1.69464e-05)
(0.000116436 -1.52285e-06 1.37014e-05)
(9.63213e-05 -1.57403e-05 3.65844e-06)
(0.00166617 -2.45397e-05 -1.48029e-05)
(0.000963332 -1.58715e-05 -2.11301e-05)
(0.000555502 -8.55887e-06 -1.64016e-05)
(0.000337836 -1.4293e-06 -6.7943e-06)
(0.000211736 -8.01569e-08 4.41403e-06)
(0.000148341 9.97382e-07 1.84921e-05)
(0.000108777 -5.83836e-07 1.71443e-05)
(9.04007e-05 -1.81968e-06 1.79897e-05)
(8.09514e-05 -1.22018e-05 8.14071e-06)
)
;

boundaryField
{
    inlet
    {
        type            calculated;
        value           nonuniform List<vector> 
12
(
(0.00401697 -0.000273042 -0.000262008)
(0.00377058 -0.000372783 -0.000252004)
(0.00373048 -0.000219715 -0.000278492)
(0.00373994 -0.000114579 -0.000301424)
(0.0040691 -0.000282056 5.35956e-05)
(0.00384809 -0.000359347 9.01894e-05)
(0.00378894 -0.000269796 0.000106349)
(0.00377194 -8.55948e-05 2.77368e-05)
(0.00421717 -0.000242506 4.98395e-05)
(0.00409539 -0.000341396 9.32187e-05)
(0.00400223 -0.000295862 8.19485e-05)
(0.00391268 -8.80504e-05 7.45501e-05)
)
;
    }
    outlet
    {
        type            calculated;
        value           nonuniform 0();
    }
    wall
    {
        type            calculated;
        value           nonuniform List<vector> 
63
(
(0.00421717 -0.000242506 4.98395e-05)
(0.00409539 -0.000341396 9.32187e-05)
(0.00400223 -0.000295862 8.19485e-05)
(0.00391268 -8.80504e-05 7.45501e-05)
(0.000482562 -1.87153e-06 1.07677e-05)
(0.000215826 -4.03603e-06 6.22728e-05)
(0.000111672 -4.61168e-05 3.02316e-05)
(-3.84587e-05 -5.31972e-05 -2.19569e-05)
(0.000391559 3.14529e-05 -4.65414e-05)
(0.000217706 5.29826e-05 -2.07242e-06)
(5.78001e-05 -1.72075e-05 -4.06013e-06)
(-0.000148297 -2.59957e-05 -1.5392e-05)
(0.00036997 5.32366e-05 -6.80983e-05)
(0.000272601 8.36597e-05 -8.43335e-05)
(0.000141063 0.00010495 -7.57922e-05)
(-2.05417e-05 3.35054e-05 2.75029e-07)
(0.000255643 1.94718e-05 -4.63241e-05)
(0.000112538 3.21368e-05 -4.29835e-05)
(-7.86596e-06 4.92371e-05 -4.20091e-05)
(-1.74204e-05 1.50861e-06 4.83219e-06)
(0.000251811 1.87542e-05 2.52031e-05)
(0.000148818 7.51332e-05 4.32055e-05)
(0.00011376 7.1091e-05 7.13938e-05)
(6.69387e-05 -4.98321e-06 6.70419e-05)
(0.000188537 -2.84535e-05 4.16735e-05)
(0.000105151 4.70132e-06 1.38088e-05)
(0.000123957 -1.85206e-05 1.93558e-05)
(4.29187e-05 1.86487e-06 9.63112e-07)
(0.000324535 1.58888e-05 6.1252e-06)
(0.000219251 1.38317e-05 -1.32298e-05)
(0.000208134 3.72981e-05 -9.38224e-06)
(8.66753e-05 5.06024e-05 4.86673e-05)
(7.51066e-05 -1.57457e-05 -5.91929e-05)
(0.000159536 -6.4517e-05 -2.3892e-05)
(0.000138144 -7.96924e-05 -2.69604e-05)
(0.000228773 -5.24935e-05 3.81257e-05)
(0.00401697 -0.000273042 -0.000262008)
(0.0040691 -0.000282056 5.35956e-05)
(0.00421717 -0.000242506 4.98395e-05)
(0.000200807 -2.00773e-05 -3.0247e-05)
(0.000299539 -5.14387e-05 1.1556e-05)
(0.000482562 -1.87153e-06 1.07677e-05)
(0.00011352 5.41183e-06 -2.24001e-05)
(0.000236703 -5.36581e-06 -5.36293e-05)
(0.000391559 3.14529e-05 -4.65414e-05)
(0.000155917 8.78681e-05 4.4771e-05)
(0.000269523 7.58088e-05 -3.85287e-05)
(0.00036997 5.32366e-05 -6.80983e-05)
(4.07607e-05 4.66526e-05 -1.82369e-06)
(0.000130837 2.48081e-05 -1.57598e-05)
(0.000255643 1.94718e-05 -4.63241e-05)
(0.000131564 -9.72728e-06 -3.07697e-05)
(0.000219679 2.64973e-06 1.76453e-05)
(0.000251811 1.87542e-05 2.52031e-05)
(4.95619e-05 -2.82204e-05 -2.96238e-05)
(0.000119166 2.49236e-06 1.34737e-05)
(0.000188537 -2.84535e-05 4.16735e-05)
(0.000213347 -9.38096e-05 7.96008e-05)
(0.000253997 5.0079e-05 3.17579e-05)
(0.000324535 1.58888e-05 6.1252e-06)
(0.000118003 -6.08046e-05 -7.08864e-07)
(3.05637e-05 -3.55767e-05 -1.26641e-05)
(7.51066e-05 -1.57457e-05 -5.91929e-05)
)
;
    }
    procBoundary4to0
    {
        type            processor;
        value           nonuniform List<vector> 
36
(
(0.00173603 -8.90632e-05 -0.000148824)
(0.00106688 -4.25102e-05 -7.93903e-05)
(0.000668561 -1.19685e-05 -3.50092e-05)
(0.000447554 6.64465e-06 -3.09849e-06)
(0.000308667 6.46141e-06 8.30922e-06)
(0.000248406 -6.01522e-07 1.7592e-05)
(0.000212229 1.94127e-07 2.61035e-05)
(0.000205733 1.3139e-06 3.89557e-05)
(0.000160086 2.13228e-06 3.91985e-05)
(0.00168893 -8.5416e-05 -0.000153556)
(0.00101112 -3.67818e-05 -7.97669e-05)
(0.000617875 -9.8333e-06 -3.20752e-05)
(0.000401817 5.60772e-06 1.78972e-06)
(0.00027392 5.67893e-06 1.23559e-05)
(0.000212129 4.28065e-07 2.46181e-05)
(0.000170304 1.08591e-06 3.12928e-05)
(0.000160238 2.12077e-06 4.02149e-05)
(0.00012222 -1.73913e-07 3.64173e-05)
(0.00165522 -5.87828e-05 -0.000155595)
(0.000973731 -2.42816e-05 -7.8415e-05)
(0.000584177 -7.67831e-06 -2.97374e-05)
(0.000371803 8.71428e-07 5.06714e-06)
(0.000246314 2.79553e-06 1.52171e-05)
(0.0001821 2.11992e-06 3.15863e-05)
(0.000136364 1.55757e-06 3.32909e-05)
(0.000119129 1.86584e-06 3.51945e-05)
(7.78818e-05 -4.70602e-06 3.38891e-05)
(0.00164455 -1.64608e-05 -0.000157831)
(0.000958648 -5.14512e-06 -8.01782e-05)
(0.00057336 -2.62989e-06 -3.09497e-05)
(0.000360889 -2.26713e-06 3.49968e-06)
(0.00023399 7.71268e-07 1.46933e-05)
(0.000162553 4.25438e-07 3.3631e-05)
(0.000114152 5.07797e-07 3.58973e-05)
(8.66844e-05 2.58144e-06 3.73585e-05)
(5.39102e-05 -3.51765e-06 3.55098e-05)
)
;
    }
    procBoundary4to5
    {
        type            processor;
        value           nonuniform List<vector> 
12
(
(9.07157e-05 8.51643e-06 3.01324e-05)
(4.75685e-05 6.88631e-06 2.13116e-05)
(2.60567e-05 -2.70592e-06 1.67143e-05)
(1.5038e-05 -1.15463e-05 1.40585e-05)
(0.000112397 -2.81361e-06 1.30337e-05)
(7.74014e-05 -8.08877e-06 1.77676e-06)
(5.45932e-05 -1.4063e-05 -7.488e-06)
(2.71458e-05 -1.06823e-05 -7.12704e-06)
(0.000133266 -9.00772e-06 -1.67494e-06)
(0.000108416 -1.72153e-05 -5.72836e-06)
(8.37809e-05 -2.13973e-05 -8.15739e-06)
(5.94195e-05 -1.54972e-05 -6.41452e-06)
)
;
    }
    procBoundary4to6
    {
        type            processor;
        value           nonuniform List<vector> 
27
(
(0.00163373 3.06531e-05 -0.000105724)
(0.000935487 1.15224e-05 -6.01184e-05)
(0.000549152 -1.02663e-07 -2.8396e-05)
(0.000332303 -6.50807e-06 -1.23522e-06)
(0.00020992 -3.61446e-06 9.93847e-06)
(0.000135893 -2.38396e-06 2.45987e-05)
(0.000109005 -1.60079e-06 2.77343e-05)
(6.39067e-05 5.09289e-07 3.13634e-05)
(2.99914e-05 -3.41327e-06 2.22552e-05)
(0.00164871 3.36641e-05 -3.65957e-05)
(0.000947591 1.11619e-05 -3.70217e-05)
(0.000549504 -6.61186e-07 -2.12217e-05)
(0.000331514 -8.86014e-06 -2.62538e-06)
(0.000203983 -5.69233e-06 5.72837e-06)
(0.000136208 -2.58146e-06 1.57379e-05)
(9.07834e-05 -2.86929e-06 1.78004e-05)
(6.29955e-05 -6.44628e-06 1.83832e-05)
(4.15321e-05 -4.3741e-06 1.11975e-05)
(0.00167955 3.48725e-05 -1.63937e-05)
(0.000975501 1.08127e-05 -2.68599e-05)
(0.000564303 -1.58643e-06 -1.92143e-05)
(0.00034145 -1.30621e-05 -8.39707e-06)
(0.000209731 -8.55532e-06 3.48073e-06)
(0.000141577 -3.59798e-06 1.80352e-05)
(9.90616e-05 -4.96027e-06 1.59105e-05)
(7.72546e-05 -9.9879e-06 1.42818e-05)
(6.03601e-05 -7.31296e-06 3.28605e-06)
)
;
    }
}


// ************************************************************************* //
