/*--------------------------------*- C++ -*----------------------------------*\
| =========                 |                                                 |
| \\      /  F ield         | OpenFOAM: The Open Source CFD Toolbox           |
|  \\    /   O peration     | Version:  4.x                                   |
|   \\  /    A nd           | Web:      www.OpenFOAM.org                      |
|    \\/     M anipulation  |                                                 |
\*---------------------------------------------------------------------------*/
FoamFile
{
    version     2.0;
    format      ascii;
    class       volScalarField;
    location    "17.5";
    object      pSmooth;
}
// * * * * * * * * * * * * * * * * * * * * * * * * * * * * * * * * * * * * * //

dimensions      [1 -1 -2 0 0 0 0];

internalField   nonuniform List<scalar> 
108
(
113.554
98.8068
106.951
83.4345
99.6086
67.1306
91.4767
49.3169
82.1002
114.119
99.0763
107.466
83.6357
99.9048
67.1719
91.6397
49.5172
82.6219
114.347
99.1616
107.528
83.6608
99.8412
67.2089
91.5374
49.6187
82.6125
114.474
99.3579
107.644
83.8491
99.976
67.4113
91.4088
49.7231
82.7782
113.427
98.7362
106.794
83.3565
99.304
66.8084
91.0813
49.0098
81.9058
113.99
99.0163
107.345
83.5689
99.7253
66.9953
91.3856
49.1827
82.0603
114.144
99.1314
107.37
83.5288
99.6183
66.8657
91.1442
49.0239
81.9734
114.559
99.2549
107.589
83.7768
99.7514
67.1866
91.1127
49.4712
82.1494
113.283
98.6175
106.614
83.4051
99.1981
66.8563
90.9043
48.772
81.8304
113.745
98.8614
106.946
83.4729
99.4122
66.9328
90.929
49.124
81.9745
113.941
98.9358
107.079
83.4066
99.4232
66.8663
90.811
48.9834
81.9493
114.382
99.0777
107.448
83.6539
99.5488
66.9952
90.7265
49.3555
81.8847
)
;

boundaryField
{
    inlet
    {
        type            zeroGradient;
    }
    outlet
    {
        type            fixedValue;
        value           nonuniform 0();
    }
    wall
    {
        type            zeroGradient;
    }
    procBoundary4to0
    {
        type            processor;
        value           nonuniform List<scalar> 
36
(
113.116
98.5242
106.599
83.2225
99.4589
66.9862
91.4698
49.3302
81.8379
113.671
98.8028
107.066
83.3495
99.7703
67.0951
91.8402
49.5036
82.3353
113.765
98.8255
107.079
83.3101
99.6711
66.8776
91.5473
49.2305
82.2627
114.029
99.0021
107.27
83.4032
99.6878
67.0683
91.3769
49.4843
82.454
)
;
    }
    procBoundary4to5
    {
        type            processor;
        value           nonuniform List<scalar> 
12
(
29.2629
29.6663
30.4634
31.1095
29.2701
29.6384
29.7878
30.9791
29.5812
29.9526
30.0409
30.7259
)
;
    }
    procBoundary4to6
    {
        type            processor;
        value           nonuniform List<scalar> 
27
(
114.616
98.9936
107.567
83.6093
99.7555
67.0336
91.0562
49.4383
82.0837
114.384
98.936
107.238
83.3724
99.4003
66.9225
90.9478
49.2642
82.0969
114.118
98.901
107.185
83.4185
99.3185
66.9748
90.6284
49.1645
81.9673
)
;
    }
}


// ************************************************************************* //
