/*--------------------------------*- C++ -*----------------------------------*\
| =========                 |                                                 |
| \\      /  F ield         | OpenFOAM: The Open Source CFD Toolbox           |
|  \\    /   O peration     | Version:  4.x                                   |
|   \\  /    A nd           | Web:      www.OpenFOAM.org                      |
|    \\/     M anipulation  |                                                 |
\*---------------------------------------------------------------------------*/
FoamFile
{
    version     2.0;
    format      ascii;
    class       volScalarField;
    location    "41";
    object      magGField;
}
// * * * * * * * * * * * * * * * * * * * * * * * * * * * * * * * * * * * * * //

dimensions      [1 -2 -1 0 0 0 0];

internalField   nonuniform List<scalar> 
132
(
6.13074e-05
87.1301
0.00248216
86.5882
3.98399e-05
84.3421
3.88112e-05
73.1197
11.8702
3.9853e-05
85.8773
3.96178e-05
84.0531
2.53118
81.1815
16.0601
73.8273
43.2609
23.1528
97.3733
22.8334
101.417
24.3276
106.368
27.6158
114.145
32.7474
48.6149
107.307
46.4315
110.012
42.6081
112.886
35.2777
118.193
29.0689
3.86946e-05
84.7171
3.74062e-05
83.4665
3.38051e-05
74.8924
20.1675
3.70327e-05
83.21
3.72905e-05
84.3087
3.61922e-05
85.3438
3.4731e-05
83.9813
10.1915
3.67176e-05
85.1631
3.36837e-05
82.4252
3.28372e-05
75.0293
3.24072e-05
59.2888
12.3939
33.5764
95.2481
24.8362
92.824
14.6607
87.947
7.62881
77.8473
8.31075
7.47119
91.415
15.293
86.7149
43.4296
0.371774
86.5735
3.69532e-05
85.846
3.94439e-05
82.3325
6.76188
75.2455
36.9196
19.818
93.6431
17.7793
98.3095
18.606
106.63
22.6014
122.725
34.5359
49.3887
104.149
46.7936
105.331
42.462
108.362
33.8063
116.632
23.4056
35.112
124.808
32.077
35.8948
97.9581
32.2948
98.8035
30.0605
101.676
27.1175
106.784
20.2769
47.4557
103.176
44.695
104.159
39.4593
106.003
32.3136
110.194
19.8011
61.7806
109.917
59.3609
109.414
54.3118
105.774
48.6505
94.8497
48.9998
)
;

boundaryField
{
    inlet
    {
        type            calculated;
        value           nonuniform 0();
    }
    outlet
    {
        type            calculated;
        value           nonuniform List<scalar> 
16
(
26.3208
95.8694
72.4381
63.2843
44.8472
22.5995
27.541
18.221
96.2882
82.1547
76.7666
51.5351
70.9082
44.7407
43.7844
106.651
)
;
    }
    wall
    {
        type            calculated;
        value           uniform 0;
    }
    procBoundary7to0
    {
        type            processor;
        value           uniform 87.9462;
    }
    procBoundary7to1
    {
        type            processor;
        value           uniform 3.41718e-05;
    }
    procBoundary7to3
    {
        type            processor;
        value           nonuniform List<scalar> 
36
(
8.72184
92.6365
6.18552
92.7705
6.99868
91.5399
11.56
84.3389
34.5334
3.78762e-05
86.4013
3.90504e-05
85.8117
3.66048e-05
84.0869
3.71055e-05
72.9721
9.86869
7.13539
93.326
3.28852
95.8978
7.43919
98.1613
21.9661
96.1339
57.2573
46.9709
107.762
44.6338
110.277
39.5287
115.802
34.4071
135.624
32.9704
)
;
    }
    procBoundary7to5
    {
        type            processor;
        value           nonuniform List<scalar> 
44
(
79.6642
3.86854e-05
78.2732
3.88654e-05
75.3099
3.94062e-05
65.0041
20.8239
3.56542e-05
84.3601
4.10306e-05
88.6964
1.90695
90.5533
9.01646
86.0298
23.9662
3.56542e-05
84.3601
84.3601
4.5773
90.517
3.77163e-05
82.4195
9.04665
74.9371
42.1891
6.69594
89.1137
4.5773
90.517
90.517
36.9974
110.433
41.1463
134.885
40.5842
42.2596
102.236
40.3511
105.027
36.9974
110.433
110.433
)
;
    }
    procBoundary7to6
    {
        type            processor;
        value           nonuniform List<scalar> 
12
(
87.0211
94.6291
104.946
82.3439
86.6045
96.5517
86.6213
91.6091
102.783
97.2503
101.438
109.329
)
;
    }
}


// ************************************************************************* //
