/*--------------------------------*- C++ -*----------------------------------*\
| =========                 |                                                 |
| \\      /  F ield         | OpenFOAM: The Open Source CFD Toolbox           |
|  \\    /   O peration     | Version:  4.x                                   |
|   \\  /    A nd           | Web:      www.OpenFOAM.org                      |
|    \\/     M anipulation  |                                                 |
\*---------------------------------------------------------------------------*/
FoamFile
{
    version     2.0;
    format      ascii;
    class       surfaceScalarField;
    location    "41";
    object      phi;
}
// * * * * * * * * * * * * * * * * * * * * * * * * * * * * * * * * * * * * * //

dimensions      [0 3 -1 0 0 0 0];

internalField   nonuniform List<scalar> 
308
(
5.27599e-06
-1.6643e-13
5.341e-06
8.62341e-08
5.23532e-06
3.60776e-13
-3.57392e-11
5.31192e-06
9.21282e-08
7.67644e-08
5.09081e-06
4.58741e-08
-8.08086e-13
5.17759e-06
9.02235e-08
3.05633e-07
4.35355e-06
4.50312e-07
-1.86628e-12
5.13752e-06
-6.62804e-07
8.08061e-07
2.02734e-06
6.76058e-08
5.19996e-06
1.27074e-07
-4.76574e-13
5.26311e-06
9.38578e-08
3.12898e-10
5.08273e-06
1.80374e-07
-6.23561e-13
5.34243e-06
-1.53883e-08
4.33242e-08
5.00592e-06
3.83439e-07
-1.57565e-08
5.88884e-06
-3.91037e-07
1.51927e-07
5.2287e-06
1.11102e-06
-5.41701e-08
6.41059e-06
-1.36871e-06
3.70843e-07
3.24037e-06
2.81183e-07
7.26749e-06
4.93396e-08
-1.2375e-07
7.36434e-06
3.98297e-09
-6.6378e-08
7.46569e-06
5.85461e-08
-1.9683e-07
7.65489e-06
-1.49097e-07
-9.29496e-08
7.77588e-06
1.7621e-07
-3.54468e-07
7.96274e-06
-4.64297e-07
8.52999e-09
8.17094e-06
5.03704e-07
-6.41001e-07
8.01118e-06
-9.19003e-07
6.20357e-07
1.33665e-06
-8.72921e-07
9.42397e-06
-3.54739e-07
9.41226e-06
-2.44082e-07
9.43282e-06
-4.6324e-07
9.32732e-06
-2.1343e-07
9.33281e-06
-6.09244e-07
8.96023e-06
-2.37351e-08
9.06865e-06
-8.97216e-07
8.3456e-06
6.98653e-07
-1.36591e-06
5.12365e-06
-5.96586e-13
5.19662e-06
-6.50724e-08
5.03911e-06
-4.58509e-13
1.22365e-07
5.12398e-06
-6.30059e-09
1.88189e-07
4.50285e-06
1.36384e-14
4.14115e-07
5.80756e-06
3.31398e-07
-2.04438e-07
-3.2004e-07
2.27634e-06
5.03851e-06
6.90468e-13
2.47026e-09
5.09973e-06
-1.04255e-07
-2.8624e-09
5.09973e-06
6.02181e-13
1.29226e-12
5.17247e-06
-1.1942e-07
2.49236e-08
5.15672e-06
5.97175e-13
1.1522e-12
5.24137e-06
-1.13923e-08
7.23655e-08
5.06703e-06
2.24498e-13
1.20164e-07
5.82609e-06
-9.81205e-09
-4.70062e-08
-1.04046e-07
1.02075e-06
5.15572e-06
9.09986e-09
1.29645e-08
5.21867e-06
-1.83885e-07
-4.96964e-08
4.98281e-06
1.01496e-08
2.88793e-08
5.05726e-06
-2.55936e-07
-3.08811e-08
4.52661e-06
4.52393e-08
1.30936e-07
4.61143e-06
-1.54573e-07
6.68898e-08
3.55068e-06
5.52903e-08
3.64465e-07
4.44855e-06
-2.3109e-07
-5.62321e-08
1.15109e-07
1.38394e-06
7.78095e-06
-1.49318e-07
7.37146e-06
-1.84851e-08
7.08335e-06
-1.64973e-07
6.61058e-06
3.4006e-09
6.15188e-06
-1.05304e-07
5.89293e-06
8.06428e-08
5.08302e-06
-3.20127e-08
5.32225e-06
2.28324e-07
8.40829e-07
5.92147e-06
-2.70692e-08
6.48552e-06
-1.24245e-07
5.99602e-06
1.82218e-08
7.32497e-07
7.08671e-06
-4.13946e-07
-7.54547e-07
8.9536e-07
2.97902e-06
5.24017e-06
5.15425e-08
4.61586e-08
5.30531e-06
1.43285e-08
-2.03826e-08
5.19231e-06
5.5761e-08
4.62818e-08
5.26656e-06
-9.67867e-08
1.33944e-08
4.97111e-06
1.22693e-07
1.45682e-07
5.4827e-06
-4.39047e-07
-1.24422e-07
4.8541e-06
3.84114e-07
3.82877e-07
6.33153e-06
-1.22218e-06
-7.16205e-07
2.10083e-06
1.57276e-06
6.85007e-06
5.34456e-08
1.00217e-09
6.85241e-06
-2.45708e-09
-3.52534e-08
6.99709e-06
-1.08089e-09
-5.89532e-08
7.18628e-06
-1.48864e-07
-1.67997e-07
7.51992e-06
-2.77873e-08
-5.22246e-08
7.87218e-06
-4.80112e-07
-2.44299e-07
8.60856e-06
4.70285e-09
7.49162e-09
8.72975e-06
-9.08763e-07
-4.90838e-07
6.49122e-07
1.00489e-06
9.29226e-06
-6.29461e-08
9.2613e-06
1.00141e-08
9.19299e-06
-9.77405e-08
9.07689e-06
-2.93604e-08
9.09511e-06
-1.51311e-07
8.72909e-06
-3.3451e-08
9.04046e-06
-3.38682e-07
8.33064e-06
2.93785e-08
2.34256e-07
9.54104e-06
-7.44914e-07
9.05198e-06
2.15257e-07
-1.30116e-06
8.09285e-06
-2.77991e-08
7.99866e-06
-3.85334e-08
7.91195e-06
-9.49156e-08
7.9166e-06
-1.40705e-07
7.92393e-06
-2.36773e-07
7.89001e-06
-2.24091e-07
7.98652e-06
-4.58549e-07
7.58763e-06
-1.0206e-07
-7.64167e-07
9.11559e-06
-1.72087e-08
9.07335e-06
-3.15437e-08
8.99225e-06
-7.27687e-08
8.8171e-06
-1.33557e-07
8.76193e-06
-2.33822e-07
8.46907e-06
-1.75532e-07
8.53412e-06
-5.16112e-07
7.90361e-06
3.76175e-08
-1.28804e-06
1.03984e-05
1.03769e-05
1.02064e-05
1.00435e-05
9.65834e-06
9.44936e-06
8.59456e-06
8.66156e-06
)
;

boundaryField
{
    inlet
    {
        type            calculated;
        value           nonuniform 0();
    }
    outlet
    {
        type            calculated;
        value           nonuniform List<scalar> 
16
(
1.61507e-06
5.06858e-06
8.60177e-06
8.59711e-06
3.11044e-06
4.87053e-06
1.97253e-06
3.23062e-06
4.66816e-06
4.57405e-06
1.05605e-05
9.58634e-06
1.19329e-05
8.6234e-06
9.43236e-06
7.60778e-06
)
;
    }
    wall
    {
        type            calculated;
        value           nonuniform List<scalar> 
66
(
0
0
0
0
0
0
0
0
0
0
0
0
0
0
6.16298e-33
0
0
0
0
0
0
0
0
0
0
0
-9.86076e-32
0
0
0
0
0
0
0
0
0
0
0
0
0
6.16298e-33
0
0
0
0
0
0
2.46519e-32
0
0
0
0
0
0
0
0
0
0
0
0
0
0
0
0
0
0
)
;
    }
    procBoundary7to0
    {
        type            processor;
        value           uniform -5.38434e-06;
    }
    procBoundary7to1
    {
        type            processor;
        value           uniform -1.2313e-12;
    }
    procBoundary7to3
    {
        type            processor;
        value           nonuniform List<scalar> 
36
(
1.08358e-07
2.56722e-08
1.05769e-07
-8.32811e-08
1.75242e-07
-3.78664e-07
3.73734e-07
-1.3699e-06
1.66984e-06
-5.05262e-13
-7.10776e-08
-8.52667e-13
-1.95508e-07
1.47016e-08
-5.53579e-07
5.3602e-08
-8.46839e-07
-1.52194e-07
1.52094e-07
5.93995e-08
2.17317e-07
3.74532e-08
4.40704e-07
-1.22126e-07
1.04012e-06
-9.10298e-07
2.18605e-06
3.80619e-07
2.59779e-07
5.01225e-07
1.69831e-07
7.79961e-07
-6.7978e-08
1.2925e-06
-8.94612e-07
2.45106e-06
)
;
    }
    procBoundary7to5
    {
        type            processor;
        value           nonuniform List<scalar> 
44
(
-1.62965e-07
-5.61802e-11
-1.62207e-07
-1.715e-12
-1.03979e-07
-2.84789e-12
4.4068e-07
-2.42332e-07
-3.18262e-13
-1.39559e-08
9.08366e-13
1.39181e-08
3.51412e-08
3.88692e-08
2.07019e-07
-6.23611e-07
8.0842e-07
3.84583e-13
-5.17019e-06
4.62063e-08
4.6503e-08
5.49568e-08
2.59181e-08
-1.20029e-07
1.52895e-07
-1.2663e-07
8.20507e-07
1.51664e-08
-6.19453e-08
1.09599e-08
-6.02873e-06
3.40663e-08
2.30784e-07
-1.3159e-07
8.09902e-07
-4.80745e-07
1.39925e-06
1.45034e-07
1.12342e-07
2.27907e-07
1.49458e-07
3.75125e-07
-8.87353e-06
1.33587e-07
)
;
    }
    procBoundary7to6
    {
        type            processor;
        value           nonuniform List<scalar> 
12
(
-5.32704e-06
-7.2181e-06
-9.40051e-06
-5.04098e-06
-5.30153e-06
-7.97727e-06
-5.35057e-06
-6.84001e-06
-9.32518e-06
-8.16393e-06
-9.12518e-06
-1.04786e-05
)
;
    }
}


// ************************************************************************* //
