/*--------------------------------*- C++ -*----------------------------------*\
| =========                 |                                                 |
| \\      /  F ield         | OpenFOAM: The Open Source CFD Toolbox           |
|  \\    /   O peration     | Version:  4.x                                   |
|   \\  /    A nd           | Web:      www.OpenFOAM.org                      |
|    \\/     M anipulation  |                                                 |
\*---------------------------------------------------------------------------*/
FoamFile
{
    version     2.0;
    format      ascii;
    class       volScalarField;
    location    "35.5";
    object      QWallFluid;
}
// * * * * * * * * * * * * * * * * * * * * * * * * * * * * * * * * * * * * * //

dimensions      [1 -1 -3 0 0 0 0];

internalField   nonuniform List<scalar> 
87
(
0
0
0
8.66687e+08
4.75055e+08
8.80217e+08
0
0
0
0
0
0
0
0
0
0
0
0
0
0
0
0
0
0
8.26666e+08
4.11194e+08
8.31751e+08
4.23642e+08
8.30354e+08
4.16453e+08
8.33923e+08
4.103e+08
8.36009e+08
0
0
0
0
0
0
0
0
0
0
0
0
0
0
0
0
0
0
8.24795e+08
4.30694e+08
8.41003e+08
4.61432e+08
8.48858e+08
4.7884e+08
8.59868e+08
4.8777e+08
8.70139e+08
8.1606e+08
4.09186e+08
8.17468e+08
4.0579e+08
8.17504e+08
3.9845e+08
8.17317e+08
3.77089e+08
8.26397e+08
8.20519e+08
4.31917e+08
8.33748e+08
4.58857e+08
8.42892e+08
4.74074e+08
8.53505e+08
4.77877e+08
8.61492e+08
1.65587e+09
9.11173e+08
1.7106e+09
1.02802e+09
1.76783e+09
1.11066e+09
1.81008e+09
1.16335e+09
1.83067e+09
)
;

boundaryField
{
    inlet
    {
        type            calculated;
        value           uniform 0;
    }
    outlet
    {
        type            calculated;
        value           nonuniform 0();
    }
    wall
    {
        type            calculated;
        value           uniform 0;
    }
    procBoundary6to0
    {
        type            processor;
        value           uniform 0;
    }
    procBoundary6to2
    {
        type            processor;
        value           nonuniform List<scalar> 
32
(
0
0
0
8.76916e+08
4.87216e+08
8.94386e+08
0
0
0
0
0
0
0
0
0
0
0
0
0
0
0
0
0
0
0
8.28523e+08
4.16821e+08
8.40262e+08
4.40569e+08
8.52737e+08
4.60236e+08
4.60236e+08
)
;
    }
    procBoundary6to4
    {
        type            processor;
        value           nonuniform List<scalar> 
27
(
0
0
0
0
0
0
0
0
0
0
0
0
0
0
0
0
0
0
8.07287e+08
3.94928e+08
8.10788e+08
3.91477e+08
8.16274e+08
4.02407e+08
8.3348e+08
4.26956e+08
8.51165e+08
)
;
    }
    procBoundary6to7
    {
        type            processor;
        value           nonuniform List<scalar> 
12
(
0
0
4.72939e+08
0
0
3.82961e+08
0
0
4.89178e+08
3.49341e+08
4.71186e+08
1.16565e+09
)
;
    }
}


// ************************************************************************* //
