/*--------------------------------*- C++ -*----------------------------------*\
| =========                 |                                                 |
| \\      /  F ield         | OpenFOAM: The Open Source CFD Toolbox           |
|  \\    /   O peration     | Version:  4.x                                   |
|   \\  /    A nd           | Web:      www.OpenFOAM.org                      |
|    \\/     M anipulation  |                                                 |
\*---------------------------------------------------------------------------*/
FoamFile
{
    version     2.0;
    format      ascii;
    class       volScalarField;
    location    "19";
    object      Cs;
}
// * * * * * * * * * * * * * * * * * * * * * * * * * * * * * * * * * * * * * //

dimensions      [1 -3 0 0 0 0 0];

internalField   nonuniform List<scalar> 
132
(
334.998
334.994
334.99
334.986
334.985
334.986
334.988
334.99
334.989
335
335
334.999
334.999
334.998
334.998
334.997
334.993
334.988
335
335
335
335
334.999
334.999
334.997
334.994
334.988
335
335
335
335
335
334.999
334.999
334.999
334.998
334.997
334.993
334.987
335
335
334.999
334.999
334.998
334.997
334.994
334.985
334.97
335
335
335
334.999
334.998
334.996
334.99
334.978
334.959
335
335
335
334.999
334.998
335
335
335
335
334.999
334.999
334.996
334.992
334.982
335
335
335
334.999
334.999
334.997
334.992
334.978
334.945
335
335
335
334.999
334.998
334.996
334.988
334.971
334.951
335
335
335
334.999
334.998
334.995
334.987
335
335
335
335
335
334.999
334.998
334.995
334.992
335
335
335
335
334.999
334.998
334.995
334.988
334.98
335
335
335
334.999
334.999
334.997
334.993
334.985
334.975
335
335
335
334.999
334.999
334.997
334.992
334.983
334.971
)
;

boundaryField
{
    inlet
    {
        type            calculated;
        value           uniform 335;
    }
    outlet
    {
        type            calculated;
        value           nonuniform 0();
    }
    wall
    {
        type            calculated;
        value           nonuniform List<scalar> 
66
(
334.998
335
335
335
334.994
335
335
335
334.99
334.999
335
335
334.986
334.999
335
334.985
334.998
334.999
334.986
334.998
334.999
334.988
334.997
334.997
334.99
334.993
334.994
334.989
334.988
334.988
334.998
335
335
335
334.994
335
335
335
334.99
334.999
335
335
334.986
334.999
335
335
334.985
334.999
334.999
335
334.986
334.998
334.999
334.999
334.988
334.997
334.996
334.998
334.99
334.993
334.992
334.995
334.989
334.987
334.982
334.992
)
;
    }
    procBoundary0to1
    {
        type            processor;
        value           nonuniform List<scalar> 
12
(
334.988
334.982
334.979
334.98
334.953
334.933
334.973
334.894
334.94
334.988
334.976
334.964
)
;
    }
    procBoundary0to2
    {
        type            processor;
        value           nonuniform List<scalar> 
44
(
334.999
334.999
334.999
334.998
334.996
334.99
335
335
334.999
334.999
334.999
334.999
334.997
334.992
334.98
334.959
335
335
334.999
334.998
334.997
334.998
334.997
334.992
334.969
334.944
335
335
334.999
334.999
334.998
334.997
334.969
334.994
334.969
334.944
335
335
335
334.999
334.999
334.997
334.994
334.988
)
;
    }
    procBoundary0to4
    {
        type            processor;
        value           nonuniform List<scalar> 
36
(
335
335
335
335
335
334.999
334.998
334.996
334.993
335
335
335
335
334.999
334.998
334.994
334.988
334.981
335
335
335
334.999
334.999
334.997
334.993
334.986
334.977
335
335
335
334.999
334.999
334.997
334.993
334.985
334.974
)
;
    }
    procBoundary0to6
    {
        type            processor;
        value           uniform 334.977;
    }
    procBoundary0to7
    {
        type            processor;
        value           uniform 334.956;
    }
}


// ************************************************************************* //
