/*--------------------------------*- C++ -*----------------------------------*\
| =========                 |                                                 |
| \\      /  F ield         | OpenFOAM: The Open Source CFD Toolbox           |
|  \\    /   O peration     | Version:  4.x                                   |
|   \\  /    A nd           | Web:      www.OpenFOAM.org                      |
|    \\/     M anipulation  |                                                 |
\*---------------------------------------------------------------------------*/
FoamFile
{
    version     2.0;
    format      ascii;
    class       volScalarField;
    location    "19";
    object      KslPrev;
}
// * * * * * * * * * * * * * * * * * * * * * * * * * * * * * * * * * * * * * //

dimensions      [1 -3 -1 0 0 0 0];

internalField   nonuniform List<scalar> 
132
(
3395.42
6497.89
3141.93
5044.08
2942.98
4339.53
2808.21
3871.04
2613.09
3415.82
6944.57
3260.73
5631.99
3098.57
4902.86
2959.9
4368.68
2824.41
3434.89
7283.92
3335.81
6171.31
3254.91
5553.17
3132.5
5135.62
3074.59
3449.22
7234.28
3310.72
3447.59
7366.8
3351.69
6508.64
3289.01
5952.3
3215.38
5562.99
3083.92
3480.44
8374.18
3537.21
8264.29
3591.81
8439.18
3574
8532.16
3495.04
3532.62
8975.25
3628.85
9558.11
3709.73
10764.5
3757.47
12980.6
3716.29
3577.94
8930.18
3666.94
9684.46
3775.37
3471.09
7867.32
3473.92
7526.69
3455.63
7349.17
3425.43
7229.94
3334.73
3533.74
9163.67
3671.63
10376.2
3775.23
12121.7
3815.24
14743.3
3775.95
3592.01
10107.1
3818.57
14418.3
3984.61
23880.3
4033.8
53834.4
3987.45
3621.27
10545.2
3878.96
16154
4018.85
29261.1
4047.24
3466.5
7561.7
3446.44
7043
3388.96
6772.58
3325.18
6484.17
3200.99
3542.03
9315.33
3710.52
10939.8
3763.11
12644.1
3780.77
15238
3705.78
3606.74
9641.06
3814.84
12560.5
3882.33
16132.5
3882.09
19660.6
3799.35
3598.24
10007.3
3872.36
14267.9
3939.45
19673.1
3946.65
27905.8
3900.23
)
;

boundaryField
{
    inlet
    {
        type            zeroGradient;
    }
    outlet
    {
        type            zeroGradient;
    }
    wall
    {
        type            zeroGradient;
    }
    procBoundary0to1
    {
        type            processor;
        value           uniform 0;
    }
    procBoundary0to2
    {
        type            processor;
        value           uniform 0;
    }
    procBoundary0to4
    {
        type            processor;
        value           uniform 0;
    }
    procBoundary0to6
    {
        type            processor;
        value           uniform 0;
    }
    procBoundary0to7
    {
        type            processor;
        value           uniform 0;
    }
}


// ************************************************************************* //
