/*--------------------------------*- C++ -*----------------------------------*\
| =========                 |                                                 |
| \\      /  F ield         | OpenFOAM: The Open Source CFD Toolbox           |
|  \\    /   O peration     | Version:  4.x                                   |
|   \\  /    A nd           | Web:      www.OpenFOAM.org                      |
|    \\/     M anipulation  |                                                 |
\*---------------------------------------------------------------------------*/
FoamFile
{
    version     2.0;
    format      ascii;
    class       volScalarField;
    location    "19";
    object      Qsource;
}
// * * * * * * * * * * * * * * * * * * * * * * * * * * * * * * * * * * * * * //

dimensions      [1 -1 -3 0 0 0 0];

internalField   nonuniform List<scalar> 
132
(
6.84079e+09
5.27366e+09
5.50867e+09
4.23552e+09
6.27479e+09
5.98567e+09
7.96454e+09
5.59428e+09
4.2301e+09
5.4748e+09
5.60016e+09
6.41715e+09
6.20925e+09
4.80166e+09
7.44264e+09
6.34622e+09
6.60266e+09
6.33865e+09
3.10075e+09
6.35187e+09
6.61256e+09
5.63887e+09
6.47508e+09
5.53e+09
4.95641e+09
5.86885e+09
9.49652e+09
3.79569e+09
5.00878e+09
4.37971e+09
5.07391e+09
7.45474e+09
9.47228e+09
8.15681e+09
8.61665e+09
8.18201e+09
8.05411e+09
7.44103e+09
8.22875e+09
4.96218e+09
9.48225e+09
7.99351e+09
8.55669e+09
9.59311e+09
8.67603e+09
9.20424e+09
9.34047e+09
9.01443e+09
5.27837e+09
9.49726e+09
8.40149e+09
7.55718e+09
8.22597e+09
7.71953e+09
1.05395e+10
7.00076e+09
6.33778e+09
7.93014e+09
7.07409e+09
7.76623e+09
5.5384e+09
1.13126e+10
6.38116e+09
7.40669e+09
8.91629e+09
7.3888e+09
8.2713e+09
6.08578e+09
8.81948e+09
7.43223e+09
6.22143e+09
6.22772e+09
8.29209e+09
7.96697e+09
6.90441e+09
9.22904e+09
6.69867e+09
9.34763e+09
1.00644e+10
1.00726e+10
6.69037e+09
7.22587e+09
8.06823e+09
9.31794e+09
9.76839e+09
8.05796e+09
9.1346e+09
6.31436e+09
5.35069e+09
6.87905e+09
8.69483e+09
9.53091e+09
9.00327e+09
9.93589e+09
8.03478e+09
8.66945e+09
5.14079e+09
5.46435e+09
7.57009e+09
5.69679e+09
7.90714e+09
8.32806e+09
6.76446e+09
4.89189e+09
6.94406e+09
5.11541e+09
9.62602e+09
9.07893e+09
8.10414e+09
7.20016e+09
6.7465e+09
1.04535e+10
7.34966e+09
6.9519e+09
5.17312e+09
5.66454e+09
9.05936e+09
6.29822e+09
8.75789e+09
8.7945e+09
8.32042e+09
5.21675e+09
9.44169e+09
4.81945e+09
6.7771e+09
9.66025e+09
1.05119e+10
5.51153e+09
9.97559e+09
8.54986e+09
5.63562e+09
2.61156e+09
)
;

boundaryField
{
    inlet
    {
        type            calculated;
        value           uniform 0;
    }
    outlet
    {
        type            calculated;
        value           nonuniform 0();
    }
    wall
    {
        type            calculated;
        value           uniform 0;
    }
    procBoundary0to1
    {
        type            processor;
        value           nonuniform List<scalar> 
12
(
6.07502e+09
5.4203e+09
4.62521e+09
8.11653e+09
9.15862e+09
9.12342e+09
7.47288e+09
6.39247e+09
8.06457e+09
7.17302e+09
8.01728e+09
6.02327e+09
)
;
    }
    procBoundary0to2
    {
        type            processor;
        value           nonuniform List<scalar> 
44
(
7.71182e+09
6.49188e+09
3.68991e+09
6.93826e+09
3.49538e+09
4.03073e+09
6.61625e+09
7.40398e+09
7.71182e+09
6.97337e+09
7.71182e+09
6.49188e+09
9.91605e+09
1.22316e+10
6.64967e+09
1.11943e+10
4.71269e+09
7.98068e+09
9.59406e+09
9.28109e+09
9.91605e+09
8.91359e+09
9.91605e+09
1.22316e+10
7.86365e+09
9.17418e+09
6.8425e+09
5.77391e+09
6.75519e+09
6.87807e+09
6.7887e+09
7.86926e+09
7.86365e+09
9.90128e+09
7.86365e+09
9.17418e+09
4.88046e+09
9.55435e+09
1.03237e+10
7.39918e+09
8.29867e+09
6.45106e+09
7.64061e+09
7.95116e+09
)
;
    }
    procBoundary0to4
    {
        type            processor;
        value           nonuniform List<scalar> 
36
(
5.71003e+09
7.5665e+09
9.19741e+09
6.4243e+09
7.92337e+09
6.41577e+09
9.67381e+09
7.26477e+09
1.03645e+10
7.00066e+09
7.3123e+09
9.33755e+09
1.00233e+10
1.00722e+10
8.53131e+09
8.03028e+09
5.68291e+09
1.10515e+10
6.6651e+09
1.03208e+10
8.30248e+09
9.47043e+09
8.1227e+09
6.38611e+09
7.2976e+09
1.04383e+10
6.69627e+09
3.46006e+09
6.76143e+09
9.39092e+09
5.78028e+09
8.8383e+09
6.82059e+09
1.10374e+10
6.0925e+09
7.05332e+09
)
;
    }
    procBoundary0to6
    {
        type            processor;
        value           uniform 8.15421e+09;
    }
    procBoundary0to7
    {
        type            processor;
        value           uniform 1.01464e+10;
    }
}


// ************************************************************************* //
