/*--------------------------------*- C++ -*----------------------------------*\
| =========                 |                                                 |
| \\      /  F ield         | OpenFOAM: The Open Source CFD Toolbox           |
|  \\    /   O peration     | Version:  4.x                                   |
|   \\  /    A nd           | Web:      www.OpenFOAM.org                      |
|    \\/     M anipulation  |                                                 |
\*---------------------------------------------------------------------------*/
FoamFile
{
    version     2.0;
    format      ascii;
    class       volScalarField;
    location    "19";
    object      SPartFluid;
}
// * * * * * * * * * * * * * * * * * * * * * * * * * * * * * * * * * * * * * //

dimensions      [1 -3 -1 0 0 0 0];

internalField   nonuniform List<scalar> 
132
(
5.50255e-65
4.41752e-65
3.1e-65
2.86747e-65
3.79746e-65
4.0299e-65
4.72738e-65
3.4874e-65
1.70495e-65
4.88254e-65
4.7275e-65
4.57246e-65
5.11491e-65
3.1774e-65
5.81229e-65
4.41729e-65
4.95974e-65
3.95223e-65
2.71252e-65
5.34748e-65
4.72745e-65
4.72738e-65
4.26235e-65
4.33979e-65
3.25479e-65
4.49469e-65
6.89699e-65
2.86753e-65
4.4175e-65
3.25498e-65
4.18504e-65
6.665e-65
8.05994e-65
7.05238e-65
6.81983e-65
7.12974e-65
5.73475e-65
6.43215e-65
6.19965e-65
5.42504e-65
7.98249e-65
6.27742e-65
7.20731e-65
7.28472e-65
7.12965e-65
7.05205e-65
7.74941e-65
6.97441e-65
5.89004e-65
8.13747e-65
6.81987e-65
6.27729e-65
6.66468e-65
6.58712e-65
8.29187e-65
6.04447e-65
4.95952e-65
8.06005e-65
6.12248e-65
6.12238e-65
4.72731e-65
8.98953e-65
5.96755e-65
6.82001e-65
7.28493e-65
6.74234e-65
6.5873e-65
5.19225e-65
7.05209e-65
6.89704e-65
4.72716e-65
6.43254e-65
7.05249e-65
6.4324e-65
5.96732e-65
7.36218e-65
5.73465e-65
7.36194e-65
8.83425e-65
8.29173e-65
7.67255e-65
6.27748e-65
6.58737e-65
8.21469e-65
7.82708e-65
7.36195e-65
7.43932e-65
6.19931e-65
4.57199e-65
7.28504e-65
7.59494e-65
7.67231e-65
8.13718e-65
8.2145e-65
7.12946e-65
7.12928e-65
4.57255e-65
4.8825e-65
5.73496e-65
5.34738e-65
6.1223e-65
7.43966e-65
4.80474e-65
4.10721e-65
4.95965e-65
5.50254e-65
8.13749e-65
7.2849e-65
6.74231e-65
5.81223e-65
5.96712e-65
8.36936e-65
6.58691e-65
5.50194e-65
4.57252e-65
4.95996e-65
7.28487e-65
5.73478e-65
7.2846e-65
8.05936e-65
6.74186e-65
5.11442e-65
8.05907e-65
5.27003e-65
5.88997e-65
7.82734e-65
9.22214e-65
4.49475e-65
9.14427e-65
7.12928e-65
5.42439e-65
2.32468e-65
)
;

boundaryField
{
    inlet
    {
        type            calculated;
        value           uniform 0;
    }
    outlet
    {
        type            calculated;
        value           nonuniform 0();
    }
    wall
    {
        type            calculated;
        value           uniform 0;
    }
    procBoundary0to1
    {
        type            processor;
        value           nonuniform List<scalar> 
12
(
3.71987e-65
3.64226e-65
3.48722e-65
6.66458e-65
7.20693e-65
8.13664e-65
7.05195e-65
5.5794e-65
7.90406e-65
6.58694e-65
7.05176e-65
5.7343e-65
)
;
    }
    procBoundary0to2
    {
        type            processor;
        value           nonuniform List<scalar> 
44
(
6.50985e-65
4.88235e-65
2.55734e-65
4.88219e-65
2.24731e-65
2.63477e-65
5.73504e-65
6.50999e-65
6.50985e-65
5.11495e-65
6.50985e-65
4.88235e-65
8.44692e-65
9.76419e-65
5.73444e-65
9.22154e-65
5.42503e-65
6.81998e-65
7.67236e-65
7.82724e-65
8.44692e-65
6.97465e-65
8.44692e-65
9.76419e-65
7.59413e-65
8.13654e-65
7.28504e-65
4.95998e-65
5.50238e-65
6.04477e-65
5.57968e-65
7.12945e-65
7.59413e-65
8.36925e-65
7.59413e-65
8.13654e-65
4.80502e-65
8.13744e-65
8.36982e-65
6.58726e-65
6.81961e-65
5.88954e-65
6.27691e-65
7.74915e-65
)
;
    }
    procBoundary0to4
    {
        type            processor;
        value           nonuniform List<scalar> 
36
(
5.19255e-65
7.36252e-65
7.51746e-65
5.57991e-65
5.96733e-65
5.65728e-65
7.59461e-65
6.74206e-65
8.91188e-65
7.75006e-65
6.355e-65
7.3624e-65
8.60229e-65
8.21466e-65
7.5171e-65
6.35457e-65
5.42454e-65
9.06666e-65
6.97504e-65
8.75747e-65
6.66489e-65
8.44724e-65
6.66466e-65
5.9671e-65
6.12198e-65
9.68656e-65
5.6569e-65
4.34002e-65
5.73498e-65
7.59486e-65
5.19232e-65
7.3621e-65
6.35455e-65
9.22167e-65
5.9669e-65
5.96683e-65
)
;
    }
    procBoundary0to6
    {
        type            processor;
        value           uniform 6.74171e-65;
    }
    procBoundary0to7
    {
        type            processor;
        value           uniform 9.91872e-65;
    }
}


// ************************************************************************* //
