/*--------------------------------*- C++ -*----------------------------------*\
| =========                 |                                                 |
| \\      /  F ield         | OpenFOAM: The Open Source CFD Toolbox           |
|  \\    /   O peration     | Version:  4.x                                   |
|   \\  /    A nd           | Web:      www.OpenFOAM.org                      |
|    \\/     M anipulation  |                                                 |
\*---------------------------------------------------------------------------*/
FoamFile
{
    version     2.0;
    format      ascii;
    class       volVectorField;
    location    "19";
    object      UsNext;
}
// * * * * * * * * * * * * * * * * * * * * * * * * * * * * * * * * * * * * * //

dimensions      [0 1 -1 0 0 0 0];

internalField   nonuniform List<vector> 
132
(
(7.71381e-09 -2.55995e-09 -3.00527e-09)
(9.81489e-09 -4.19701e-09 -6.45301e-09)
(1.31445e-08 -1.92163e-08 -8.24487e-09)
(2.22383e-09 -6.78137e-09 -6.46433e-09)
(-2.3284e-09 -1.45067e-08 -2.88043e-09)
(-2.01192e-08 -1.07976e-08 -7.46629e-09)
(-2.64576e-08 -1.27276e-08 -1.50965e-08)
(-4.49669e-08 -3.73413e-09 -1.10879e-08)
(-6.41431e-08 1.03722e-08 -1.44956e-08)
(9.73733e-09 -4.43309e-09 -6.43325e-09)
(1.51593e-08 -8.31706e-09 -9.64794e-09)
(1.04648e-08 -1.53863e-08 -1.55703e-08)
(2.30641e-09 -1.35685e-08 -1.65447e-08)
(-7.39622e-09 -1.97872e-08 -1.62619e-08)
(-2.8722e-08 -2.19218e-08 -1.56878e-08)
(-5.3102e-08 -1.66386e-08 -1.60379e-08)
(-7.65846e-08 -3.14038e-09 -1.12085e-08)
(-9.11493e-08 1.57262e-09 -9.25436e-09)
(2.10079e-08 -4.82483e-09 -6.07487e-09)
(1.60068e-08 -7.40472e-09 -1.0726e-08)
(9.95918e-09 -1.19667e-08 -1.54638e-08)
(1.57994e-09 -1.64772e-08 -2.09113e-08)
(-1.24758e-08 -2.23686e-08 -2.64347e-08)
(-4.22251e-08 -2.20501e-08 -1.91391e-08)
(-6.07405e-08 -1.6825e-08 -1.62764e-08)
(-8.67437e-08 -1.29417e-08 -1.53392e-08)
(-1.04106e-07 5.72058e-10 -1.58918e-08)
(6.80654e-09 -2.9262e-09 -4.71044e-09)
(1.51227e-08 -5.00481e-09 -9.36363e-09)
(1.2926e-08 -8.00524e-09 -1.3779e-08)
(1.07915e-08 -1.70596e-09 -2.47803e-09)
(1.25421e-08 -2.40412e-09 -7.01371e-09)
(8.22632e-09 -5.03648e-09 -7.20632e-09)
(-1.12605e-09 -6.63056e-09 -5.56684e-09)
(-5.75278e-09 -1.07363e-08 -4.45409e-09)
(-1.50889e-08 -1.3813e-08 -7.82358e-09)
(-2.33303e-08 -4.13592e-09 -1.61547e-08)
(-5.03002e-08 -3.79918e-09 -1.16984e-08)
(-5.11367e-08 -1.0473e-08 -4.01258e-09)
(1.00666e-08 -3.28194e-09 -5.37869e-09)
(1.43465e-08 -7.18338e-09 -9.27755e-09)
(1.43864e-08 -1.30992e-08 -1.4183e-08)
(3.38641e-09 -1.07247e-08 -1.72748e-08)
(-1.21238e-08 -1.75819e-08 -1.32865e-08)
(-2.6347e-08 -1.91566e-08 -1.34336e-08)
(-4.7737e-08 -1.2813e-08 -1.43307e-08)
(-6.91869e-08 -8.6338e-10 -1.55784e-08)
(-8.71819e-08 5.42218e-09 -8.27625e-09)
(1.50293e-08 -4.33777e-09 -5.85569e-09)
(1.32758e-08 -8.43949e-09 -1.01816e-08)
(9.35836e-09 -1.26608e-08 -1.59517e-08)
(3.37081e-10 -1.40412e-08 -1.87178e-08)
(-2.08821e-08 -1.54925e-08 -1.6252e-08)
(-4.42314e-08 -1.85367e-08 -1.8903e-08)
(-6.57511e-08 -1.64678e-08 -1.79393e-08)
(-8.14873e-08 -5.22678e-09 -1.44022e-08)
(-9.73003e-08 7.06955e-09 -1.48591e-08)
(9.79963e-09 -4.3303e-09 -4.86431e-09)
(1.37794e-08 -7.43753e-09 -9.10166e-09)
(1.2692e-08 -1.25686e-08 -1.47219e-08)
(-4.30889e-09 -1.19165e-08 -1.69032e-08)
(-1.75738e-08 -1.70489e-08 -1.20695e-08)
(8.37238e-09 -5.85487e-10 -2.00866e-09)
(1.30172e-08 -2.84079e-09 -5.18396e-09)
(1.14058e-08 -3.36447e-09 -4.27833e-09)
(2.43334e-09 -6.19209e-09 -6.37448e-09)
(-2.4408e-09 -7.50083e-09 -6.69244e-09)
(-1.23179e-08 -1.34811e-08 -1.10993e-08)
(-1.76244e-08 -1.18512e-08 -1.63046e-08)
(-3.26045e-08 -8.22262e-10 -1.04821e-08)
(-5.06733e-08 -3.71669e-09 -5.01361e-09)
(9.27941e-09 -2.43518e-09 -4.20518e-09)
(1.72609e-08 -4.86781e-09 -6.49984e-09)
(1.701e-08 -8.44541e-09 -1.07805e-08)
(6.51905e-09 -1.12592e-08 -1.35134e-08)
(-7.02493e-09 -1.30415e-08 -9.31922e-09)
(-2.68799e-08 -1.71603e-08 -1.25303e-08)
(-4.3785e-08 -1.58368e-08 -1.34178e-08)
(-6.07728e-08 -4.76717e-09 -1.43567e-08)
(-8.26333e-08 3.36125e-09 -7.96037e-09)
(9.67158e-09 -3.5438e-09 -4.43548e-09)
(1.56586e-08 -7.79068e-09 -7.64297e-09)
(1.17864e-08 -1.32728e-08 -1.34303e-08)
(3.44156e-10 -1.60517e-08 -1.48602e-08)
(-2.19545e-08 -1.7957e-08 -1.01013e-08)
(-4.48565e-08 -1.70042e-08 -1.67606e-08)
(-5.53702e-08 -1.33146e-08 -1.46534e-08)
(-8.23941e-08 -6.48816e-09 -1.36437e-08)
(-9.57113e-08 9.90845e-10 -9.24257e-09)
(9.70224e-09 -2.8333e-09 -4.00692e-09)
(1.40539e-08 -5.7677e-09 -8.33976e-09)
(1.36615e-08 -1.19283e-08 -1.21034e-08)
(-9.07918e-10 -1.00236e-08 -1.44582e-08)
(-2.70345e-08 -1.34397e-08 -1.0202e-08)
(-4.40971e-08 -1.48842e-08 -9.77243e-09)
(-6.82727e-08 -1.10675e-08 -1.69746e-08)
(6.44878e-09 2.23626e-09 -1.57029e-09)
(1.16015e-08 -8.86339e-10 -3.59236e-09)
(1.25811e-08 -2.59431e-09 -3.61299e-09)
(4.67899e-09 -6.00163e-09 -5.1906e-09)
(4.63771e-10 -3.5394e-09 -8.50058e-09)
(-1.1013e-08 -8.9956e-09 -9.06421e-09)
(-1.77651e-08 -8.37019e-09 -5.38623e-09)
(-4.25984e-08 -2.26896e-09 -7.57532e-09)
(-5.24817e-08 3.71448e-10 -4.37089e-09)
(8.76861e-09 -1.09475e-09 -2.21025e-09)
(1.70726e-08 -4.5816e-09 -4.82529e-09)
(2.02914e-08 -1.00669e-08 -6.2212e-09)
(5.0672e-09 -1.41696e-08 -5.60261e-09)
(-8.25991e-09 -1.44212e-08 -8.33288e-09)
(-2.01906e-08 -1.52408e-08 -1.24119e-08)
(-4.09558e-08 -1.22721e-08 -9.64568e-09)
(-6.24575e-08 -5.10695e-09 -1.02204e-08)
(-7.68044e-08 -1.16862e-09 -8.11115e-09)
(1.42245e-08 -4.44218e-09 -4.14789e-09)
(1.78064e-08 -5.65468e-09 -5.72407e-09)
(1.82054e-08 -9.68418e-09 -8.11819e-09)
(3.36321e-09 -1.26286e-08 -5.52478e-09)
(-1.54761e-08 -2.07184e-08 -6.56112e-09)
(-4.05122e-08 -1.47234e-08 -1.40328e-08)
(-6.09756e-08 -1.47554e-08 -1.33347e-08)
(-7.95277e-08 -8.36889e-09 -1.42583e-08)
(-9.16982e-08 -3.37939e-09 -8.46038e-09)
(1.23728e-08 -2.45715e-09 -3.51859e-09)
(1.61897e-08 -4.22866e-09 -5.66175e-09)
(1.81541e-08 -6.89266e-09 -6.51875e-09)
(-1.47304e-09 -1.10341e-08 -8.96475e-09)
(-2.08128e-08 -1.59745e-08 -1.12096e-08)
(-4.84989e-08 -1.24678e-08 -1.1262e-08)
(-7.03273e-08 -1.02415e-08 -1.50492e-08)
(-7.9695e-08 -8.5532e-09 -1.25575e-08)
(-9.50829e-08 -8.42527e-10 -1.38473e-08)
)
;

boundaryField
{
    inlet
    {
        type            calculated;
        value           nonuniform List<vector> 
16
(
(7.71381e-09 -2.55995e-09 -3.00527e-09)
(9.73733e-09 -4.43309e-09 -6.43325e-09)
(2.10079e-08 -4.82483e-09 -6.07487e-09)
(6.80654e-09 -2.9262e-09 -4.71044e-09)
(1.07915e-08 -1.70596e-09 -2.47803e-09)
(1.00666e-08 -3.28194e-09 -5.37869e-09)
(1.50293e-08 -4.33777e-09 -5.85569e-09)
(9.79963e-09 -4.3303e-09 -4.86431e-09)
(8.37238e-09 -5.85487e-10 -2.00866e-09)
(9.27941e-09 -2.43518e-09 -4.20518e-09)
(9.67158e-09 -3.5438e-09 -4.43548e-09)
(9.70224e-09 -2.8333e-09 -4.00692e-09)
(6.44878e-09 2.23626e-09 -1.57029e-09)
(8.76861e-09 -1.09475e-09 -2.21025e-09)
(1.42245e-08 -4.44218e-09 -4.14789e-09)
(1.23728e-08 -2.45715e-09 -3.51859e-09)
)
;
    }
    outlet
    {
        type            calculated;
        value           nonuniform 0();
    }
    wall
    {
        type            calculated;
        value           nonuniform List<vector> 
66
(
(7.71381e-09 -2.55995e-09 -3.00527e-09)
(9.73733e-09 -4.43309e-09 -6.43325e-09)
(2.10079e-08 -4.82483e-09 -6.07487e-09)
(6.80654e-09 -2.9262e-09 -4.71044e-09)
(9.81489e-09 -4.19701e-09 -6.45301e-09)
(1.51593e-08 -8.31706e-09 -9.64794e-09)
(1.60068e-08 -7.40472e-09 -1.0726e-08)
(1.51227e-08 -5.00481e-09 -9.36363e-09)
(1.31445e-08 -1.92163e-08 -8.24487e-09)
(1.04648e-08 -1.53863e-08 -1.55703e-08)
(9.95918e-09 -1.19667e-08 -1.54638e-08)
(1.2926e-08 -8.00524e-09 -1.3779e-08)
(2.22383e-09 -6.78137e-09 -6.46433e-09)
(2.30641e-09 -1.35685e-08 -1.65447e-08)
(1.57994e-09 -1.64772e-08 -2.09113e-08)
(-2.3284e-09 -1.45067e-08 -2.88043e-09)
(-7.39622e-09 -1.97872e-08 -1.62619e-08)
(-1.24758e-08 -2.23686e-08 -2.64347e-08)
(-2.01192e-08 -1.07976e-08 -7.46629e-09)
(-2.8722e-08 -2.19218e-08 -1.56878e-08)
(-4.22251e-08 -2.20501e-08 -1.91391e-08)
(-2.64576e-08 -1.27276e-08 -1.50965e-08)
(-5.3102e-08 -1.66386e-08 -1.60379e-08)
(-6.07405e-08 -1.6825e-08 -1.62764e-08)
(-4.49669e-08 -3.73413e-09 -1.10879e-08)
(-7.65846e-08 -3.14038e-09 -1.12085e-08)
(-8.67437e-08 -1.29417e-08 -1.53392e-08)
(-6.41431e-08 1.03722e-08 -1.44956e-08)
(-9.11493e-08 1.57262e-09 -9.25436e-09)
(-1.04106e-07 5.72058e-10 -1.58918e-08)
(7.71381e-09 -2.55995e-09 -3.00527e-09)
(1.07915e-08 -1.70596e-09 -2.47803e-09)
(8.37238e-09 -5.85487e-10 -2.00866e-09)
(6.44878e-09 2.23626e-09 -1.57029e-09)
(9.81489e-09 -4.19701e-09 -6.45301e-09)
(1.25421e-08 -2.40412e-09 -7.01371e-09)
(1.30172e-08 -2.84079e-09 -5.18396e-09)
(1.16015e-08 -8.86339e-10 -3.59236e-09)
(1.31445e-08 -1.92163e-08 -8.24487e-09)
(8.22632e-09 -5.03648e-09 -7.20632e-09)
(1.14058e-08 -3.36447e-09 -4.27833e-09)
(1.25811e-08 -2.59431e-09 -3.61299e-09)
(2.22383e-09 -6.78137e-09 -6.46433e-09)
(-1.12605e-09 -6.63056e-09 -5.56684e-09)
(2.43334e-09 -6.19209e-09 -6.37448e-09)
(4.67899e-09 -6.00163e-09 -5.1906e-09)
(-2.3284e-09 -1.45067e-08 -2.88043e-09)
(-5.75278e-09 -1.07363e-08 -4.45409e-09)
(-2.4408e-09 -7.50083e-09 -6.69244e-09)
(4.63771e-10 -3.5394e-09 -8.50058e-09)
(-2.01192e-08 -1.07976e-08 -7.46629e-09)
(-1.50889e-08 -1.3813e-08 -7.82358e-09)
(-1.23179e-08 -1.34811e-08 -1.10993e-08)
(-1.1013e-08 -8.9956e-09 -9.06421e-09)
(-2.64576e-08 -1.27276e-08 -1.50965e-08)
(-2.33303e-08 -4.13592e-09 -1.61547e-08)
(-1.76244e-08 -1.18512e-08 -1.63046e-08)
(-1.77651e-08 -8.37019e-09 -5.38623e-09)
(-4.49669e-08 -3.73413e-09 -1.10879e-08)
(-5.03002e-08 -3.79918e-09 -1.16984e-08)
(-3.26045e-08 -8.22262e-10 -1.04821e-08)
(-4.25984e-08 -2.26896e-09 -7.57532e-09)
(-6.41431e-08 1.03722e-08 -1.44956e-08)
(-5.11367e-08 -1.0473e-08 -4.01258e-09)
(-5.06733e-08 -3.71669e-09 -5.01361e-09)
(-5.24817e-08 3.71448e-10 -4.37089e-09)
)
;
    }
    procBoundary0to1
    {
        type            processor;
        value           nonuniform List<vector> 
12
(
(-4.61884e-08 9.51126e-09 2.20752e-08)
(-9.10492e-08 8.29559e-09 -7.83655e-09)
(-1.10232e-07 1.23781e-08 -9.12205e-09)
(-6.69971e-08 1.59801e-08 9.595e-09)
(-8.97553e-08 1.2616e-08 -1.13799e-09)
(-1.11039e-07 1.5694e-08 -1.23442e-08)
(-5.19069e-08 3.04984e-09 -5.67846e-10)
(-8.99457e-08 3.94717e-09 -4.0187e-09)
(-1.07147e-07 1.39222e-08 -1.181e-08)
(-4.53029e-08 2.56793e-10 -1.60914e-09)
(-8.049e-08 2.84893e-09 -2.80619e-09)
(-9.86028e-08 4.30017e-09 -9.02294e-09)
)
;
    }
    procBoundary0to2
    {
        type            processor;
        value           nonuniform List<vector> 
44
(
(3.54448e-09 -1.11001e-08 -1.6997e-08)
(-1.65201e-08 -1.38939e-08 -2.35255e-08)
(-5.49377e-08 -2.23124e-08 -1.01099e-08)
(-7.50043e-08 -1.57333e-08 -1.6139e-08)
(-9.39486e-08 -9.06282e-09 -1.92571e-08)
(-1.12324e-07 5.19341e-09 -2.0983e-08)
(1.05546e-07 -4.07903e-08 -9.21417e-09)
(1.38673e-08 -4.5768e-09 -8.27877e-09)
(3.54448e-09 -1.11001e-08 -1.6997e-08)
(1.07976e-08 -4.5618e-09 -1.62002e-08)
(3.54448e-09 -1.11001e-08 -1.6997e-08)
(-1.65201e-08 -1.38939e-08 -2.35255e-08)
(-4.92463e-08 -1.94571e-08 -1.15221e-08)
(-6.98918e-08 -1.72248e-08 -1.73646e-08)
(-9.43993e-08 -7.50875e-09 -1.61803e-08)
(-1.04315e-07 3.41926e-09 -1.86781e-08)
(8.53692e-09 -3.29602e-09 -3.2312e-09)
(1.3685e-08 -5.16193e-09 -9.00354e-09)
(1.05587e-08 -4.76129e-09 -1.47979e-08)
(-1.98911e-09 -2.94265e-09 -1.55139e-08)
(-4.92463e-08 -1.94571e-08 -1.15221e-08)
(-1.34971e-08 -5.98076e-09 -1.3504e-08)
(-4.92463e-08 -1.94571e-08 -1.15221e-08)
(-6.98918e-08 -1.72248e-08 -1.73646e-08)
(-8.79361e-08 -1.00669e-08 -1.35806e-08)
(-1.00821e-07 1.8497e-09 -1.6123e-08)
(1.02473e-08 -9.99684e-10 -2.77946e-09)
(1.4257e-08 -4.17745e-09 -6.46868e-09)
(1.13678e-08 -4.42731e-09 -1.09549e-08)
(-4.84153e-09 -2.19774e-09 -1.44117e-08)
(-1.96946e-08 -7.02094e-09 -1.2841e-08)
(-4.71454e-08 -1.25907e-08 -6.83184e-09)
(-8.79361e-08 -1.00669e-08 -1.35806e-08)
(-6.07551e-08 -1.06605e-08 -1.09486e-08)
(-8.79361e-08 -1.00669e-08 -1.35806e-08)
(-1.00821e-07 1.8497e-09 -1.6123e-08)
(9.12749e-09 -5.6316e-10 -1.65508e-09)
(1.46844e-08 -3.67159e-09 -3.34108e-09)
(1.29175e-08 -4.96461e-09 -6.25288e-09)
(-3.26592e-10 -4.1184e-09 -7.33619e-09)
(-1.81516e-08 -8.51526e-09 -6.92376e-09)
(-4.16455e-08 -7.63904e-09 -4.16148e-09)
(-5.94775e-08 -7.27784e-09 -9.56852e-09)
(-7.82953e-08 -7.05753e-09 -1.11132e-08)
)
;
    }
    procBoundary0to4
    {
        type            processor;
        value           nonuniform List<vector> 
36
(
(5.49383e-09 -2.952e-10 -1.27193e-09)
(1.04443e-08 1.49236e-10 -1.91565e-09)
(1.4653e-08 -4.73734e-09 -1.13416e-09)
(1.10525e-08 -4.95897e-09 -2.24221e-09)
(7.26745e-09 -9.73379e-09 -4.22406e-09)
(-5.89721e-10 -6.90695e-09 -5.15767e-09)
(-1.54491e-08 -6.15925e-09 -4.38969e-09)
(-3.07534e-08 -2.51695e-09 -3.11461e-09)
(-2.74726e-08 4.32521e-09 4.23942e-10)
(8.59188e-09 -1.13023e-09 -1.47811e-09)
(1.46678e-08 -3.93084e-09 -2.98966e-09)
(1.70905e-08 -7.15522e-09 -2.83436e-09)
(1.13948e-08 -7.57982e-09 -2.97857e-09)
(8.39179e-10 -1.31172e-08 -3.06096e-09)
(-1.21069e-08 -1.60929e-08 -9.9787e-09)
(-3.45261e-08 -1.30464e-08 -4.58092e-09)
(-4.50654e-08 -3.19913e-09 -7.02869e-09)
(-6.83492e-08 1.44811e-09 -2.65412e-09)
(9.25882e-09 -2.01888e-09 -1.89959e-09)
(1.58588e-08 -4.74482e-09 -3.73334e-09)
(1.50936e-08 -7.87994e-09 -4.6214e-09)
(6.7873e-09 -6.90521e-09 -1.63436e-09)
(-6.19305e-09 -1.22571e-08 -3.83776e-09)
(-2.90697e-08 -1.74037e-08 -8.46379e-09)
(-4.66724e-08 -1.38192e-08 -9.12242e-09)
(-6.30011e-08 -1.00423e-08 -9.84352e-09)
(-7.82445e-08 -4.36283e-09 -1.08024e-08)
(8.53298e-09 -1.99141e-09 -2.00623e-09)
(1.47235e-08 -4.17227e-09 -2.5119e-09)
(1.45529e-08 -5.26799e-09 -2.82713e-09)
(6.34032e-09 -6.39273e-09 -1.66858e-09)
(-1.38393e-08 -1.1069e-08 -3.894e-09)
(-4.3008e-08 -1.52786e-08 -6.90898e-09)
(-5.8857e-08 -1.15604e-08 -1.34069e-08)
(-7.76817e-08 -1.20654e-08 -8.85245e-09)
(-8.57776e-08 -1.28602e-09 -1.10123e-08)
)
;
    }
    procBoundary0to6
    {
        type            processor;
        value           uniform (-8.62622e-08 -2.45888e-09 -1.02735e-08);
    }
    procBoundary0to7
    {
        type            processor;
        value           uniform (-1.03348e-07 7.5964e-09 -1.19677e-08);
    }
}


// ************************************************************************* //
