/*--------------------------------*- C++ -*----------------------------------*\
| =========                 |                                                 |
| \\      /  F ield         | OpenFOAM: The Open Source CFD Toolbox           |
|  \\    /   O peration     | Version:  4.x                                   |
|   \\  /    A nd           | Web:      www.OpenFOAM.org                      |
|    \\/     M anipulation  |                                                 |
\*---------------------------------------------------------------------------*/
FoamFile
{
    version     2.0;
    format      ascii;
    class       volScalarField;
    location    "49";
    object      particleRelTemp;
}
// * * * * * * * * * * * * * * * * * * * * * * * * * * * * * * * * * * * * * //

dimensions      [0 0 0 0 0 0 0];

internalField   nonuniform List<scalar> 
108
(
-1.06984e-12
-5.36939e-13
2.23626e-13
8.92484e-13
1.48083e-12
2.51475e-12
3.32795e-12
4.46709e-12
5.36349e-12
-1.29115e-12
-6.77026e-13
-5.83171e-14
6.85995e-13
1.41869e-12
1.98838e-12
3.30728e-12
4.10195e-12
5.31848e-12
-1.68501e-12
-1.26096e-12
-6.57447e-13
-1.29771e-13
7.54923e-13
1.22037e-12
2.11786e-12
2.69577e-12
3.59343e-12
-2.18691e-12
-1.77608e-12
-1.67494e-12
-8.12819e-13
-1.16213e-13
2.31163e-13
4.71464e-13
1.17582e-12
1.60934e-12
-4.73821e-13
4.58411e-13
9.06674e-13
1.91512e-12
2.80326e-12
3.48732e-12
4.86735e-12
5.99365e-12
6.56937e-12
-7.54712e-13
1.76846e-15
7.97366e-13
1.55216e-12
2.26877e-12
3.75044e-12
4.56832e-12
5.45655e-12
6.28566e-12
-1.30854e-12
-5.13949e-13
1.15708e-13
7.29027e-13
1.64366e-12
2.42229e-12
3.46412e-12
4.20085e-12
4.84975e-12
-1.63953e-12
-1.21329e-12
-8.00524e-13
-4.23168e-14
7.56649e-13
1.16883e-12
2.22186e-12
2.74987e-12
3.30357e-12
2.30153e-13
8.99768e-13
1.9456e-12
2.67808e-12
3.79979e-12
5.07717e-12
6.16157e-12
7.67828e-12
8.13092e-12
-1.60467e-13
7.45954e-13
1.66113e-12
2.71042e-12
3.816e-12
4.87775e-12
6.05323e-12
6.9253e-12
7.4392e-12
-4.76937e-13
-2.01689e-14
1.10015e-12
1.94451e-12
3.02727e-12
4.00923e-12
4.61788e-12
5.70864e-12
6.17374e-12
-9.93076e-13
-6.945e-13
1.43288e-13
1.04095e-12
1.95365e-12
2.44633e-12
3.52303e-12
4.32086e-12
5.31772e-12
)
;

boundaryField
{
    inlet
    {
        type            calculated;
        value           nonuniform 0();
    }
    outlet
    {
        type            calculated;
        value           nonuniform List<scalar> 
12
(
5.36349e-12
5.31848e-12
3.59343e-12
1.60934e-12
6.56937e-12
6.28566e-12
4.84975e-12
3.30357e-12
8.13092e-12
7.4392e-12
6.17374e-12
5.31772e-12
)
;
    }
    wall
    {
        type            calculated;
        value           nonuniform List<scalar> 
63
(
-1.06984e-12
-1.29115e-12
-1.68501e-12
-2.18691e-12
-5.36939e-13
-6.77026e-13
-1.26096e-12
-1.77608e-12
2.23626e-13
-5.83171e-14
-6.57447e-13
-1.67494e-12
8.92484e-13
6.85995e-13
-1.29771e-13
-8.12819e-13
1.48083e-12
1.41869e-12
7.54923e-13
-1.16213e-13
2.51475e-12
1.98838e-12
1.22037e-12
2.31163e-13
3.32795e-12
3.30728e-12
2.11786e-12
4.71464e-13
4.46709e-12
4.10195e-12
2.69577e-12
1.17582e-12
5.36349e-12
5.31848e-12
3.59343e-12
1.60934e-12
-2.18691e-12
-1.63953e-12
-9.93076e-13
-1.77608e-12
-1.21329e-12
-6.945e-13
-1.67494e-12
-8.00524e-13
1.43288e-13
-8.12819e-13
-4.23168e-14
1.04095e-12
-1.16213e-13
7.56649e-13
1.95365e-12
2.31163e-13
1.16883e-12
2.44633e-12
4.71464e-13
2.22186e-12
3.52303e-12
1.17582e-12
2.74987e-12
4.32086e-12
1.60934e-12
3.30357e-12
5.31772e-12
)
;
    }
    procBoundary3to1
    {
        type            processor;
        value           nonuniform List<scalar> 
27
(
-8.87389e-13
-6.06919e-13
-1.10739e-13
7.84987e-13
1.42833e-12
1.96236e-12
2.96179e-12
3.44884e-12
4.30692e-12
-3.81019e-13
-7.30964e-14
6.86121e-13
1.39839e-12
2.60899e-12
3.4341e-12
4.21833e-12
5.56745e-12
6.62592e-12
-1.85267e-13
9.16569e-13
1.47717e-12
2.6172e-12
3.72611e-12
4.99123e-12
6.2508e-12
7.27718e-12
7.88191e-12
)
;
    }
    procBoundary3to2
    {
        type            processor;
        value           nonuniform List<scalar> 
12
(
-1.6573e-12
-1.78467e-12
-2.09319e-12
-2.45387e-12
-1.10786e-12
-1.28731e-12
-1.71301e-12
-2.14792e-12
-5.88393e-13
-8.86757e-13
-1.09304e-12
-1.62913e-12
)
;
    }
    procBoundary3to7
    {
        type            processor;
        value           nonuniform List<scalar> 
36
(
4.64727e-13
1.36264e-12
2.26822e-12
3.47275e-12
4.54714e-12
5.93361e-12
7.15128e-12
8.32668e-12
8.9285e-12
3.50408e-13
1.21144e-12
2.31833e-12
3.18075e-12
4.35231e-12
5.28433e-12
6.42701e-12
7.58691e-12
8.35228e-12
-3.3306e-14
6.18204e-13
1.58526e-12
2.35867e-12
3.37936e-12
4.13871e-12
5.26909e-12
6.36107e-12
7.09536e-12
-5.50665e-13
1.52425e-14
6.55426e-13
1.63747e-12
2.26856e-12
3.12946e-12
4.12376e-12
4.99123e-12
5.73815e-12
)
;
    }
}


// ************************************************************************* //
