/*--------------------------------*- C++ -*----------------------------------*\
| =========                 |                                                 |
| \\      /  F ield         | OpenFOAM: The Open Source CFD Toolbox           |
|  \\    /   O peration     | Version:  4.x                                   |
|   \\  /    A nd           | Web:      www.OpenFOAM.org                      |
|    \\/     M anipulation  |                                                 |
\*---------------------------------------------------------------------------*/
FoamFile
{
    version     2.0;
    format      ascii;
    class       volScalarField;
    location    "49";
    object      Qsource;
}
// * * * * * * * * * * * * * * * * * * * * * * * * * * * * * * * * * * * * * //

dimensions      [1 -1 -3 0 0 0 0];

internalField   nonuniform List<scalar> 
108
(
9.15263e+09
4.90326e+09
7.41275e+09
4.33779e+09
5.68259e+09
4.96678e+09
6.22422e+09
6.55943e+09
3.41563e+09
6.71121e+09
9.75943e+09
5.42146e+09
6.4325e+09
6.29621e+09
5.76541e+09
6.00901e+09
6.19332e+09
3.59202e+09
7.2949e+09
7.83704e+09
7.76308e+09
6.01939e+09
6.52366e+09
6.55978e+09
7.33083e+09
8.41194e+09
4.64365e+09
5.91954e+09
6.52814e+09
6.26846e+09
8.96307e+09
7.09344e+09
7.92205e+09
5.05144e+09
8.20054e+09
5.3729e+09
8.56335e+09
8.09931e+09
1.0291e+10
1.06744e+10
8.55362e+09
8.0212e+09
6.89123e+09
8.64801e+09
7.72498e+09
7.6014e+09
8.02471e+09
8.02419e+09
8.98886e+09
7.48356e+09
7.86393e+09
9.27283e+09
8.64875e+09
5.75774e+09
1.27437e+10
9.91109e+09
9.08213e+09
1.14237e+10
8.55753e+09
1.02424e+10
8.30371e+09
9.91332e+09
7.90513e+09
9.0269e+09
8.15775e+09
7.91029e+09
9.06768e+09
9.73576e+09
8.726e+09
7.79571e+09
9.94146e+09
6.1852e+09
8.2673e+09
1.10399e+10
9.29676e+09
1.03992e+10
6.6505e+09
7.88026e+09
9.21225e+09
8.49234e+09
7.0232e+09
9.55416e+09
6.13824e+09
8.16194e+09
5.02026e+09
4.3824e+09
9.43191e+09
7.62944e+09
1.05802e+10
5.12782e+09
6.02882e+09
1.03111e+10
9.17746e+09
7.27139e+09
7.39323e+09
9.98804e+09
8.10746e+09
9.31412e+09
5.03039e+09
9.1849e+09
5.75155e+09
6.17755e+09
7.85565e+09
6.78029e+09
9.47623e+09
6.60403e+09
1.05544e+10
7.81652e+09
)
;

boundaryField
{
    inlet
    {
        type            calculated;
        value           nonuniform 0();
    }
    outlet
    {
        type            calculated;
        value           uniform 0;
    }
    wall
    {
        type            calculated;
        value           uniform 0;
    }
    procBoundary3to1
    {
        type            processor;
        value           nonuniform List<scalar> 
27
(
4.56076e+09
8.09211e+09
6.82844e+09
9.98207e+09
6.87631e+09
6.90487e+09
6.31251e+09
7.53438e+09
4.81176e+09
7.91235e+09
8.48477e+09
7.18565e+09
6.80798e+09
5.80034e+09
9.31985e+09
9.463e+09
1.32019e+10
4.47487e+09
9.45207e+09
7.87192e+09
5.47313e+09
1.11401e+10
8.87101e+09
1.07141e+10
7.5045e+09
9.69908e+09
3.3854e+09
)
;
    }
    procBoundary3to2
    {
        type            processor;
        value           nonuniform List<scalar> 
12
(
5.60416e+09
5.40767e+09
7.5093e+09
6.1271e+09
1.12276e+10
6.4032e+09
7.69173e+09
5.78431e+09
9.30041e+09
5.73175e+09
1.02248e+10
8.61122e+09
)
;
    }
    procBoundary3to7
    {
        type            processor;
        value           nonuniform List<scalar> 
36
(
1.01399e+10
9.18072e+09
6.49049e+09
7.99429e+09
1.11263e+10
1.25565e+10
8.02115e+09
6.54977e+09
6.15486e+09
7.49273e+09
1.14629e+10
7.45644e+09
8.18723e+09
8.39512e+09
6.96558e+09
7.88337e+09
7.68575e+09
6.84488e+09
5.34826e+09
9.47278e+09
6.99429e+09
9.03269e+09
8.43977e+09
1.05782e+10
8.68258e+09
9.1943e+09
6.93856e+09
7.57969e+09
8.45944e+09
9.48704e+09
6.92876e+09
8.41855e+09
9.03496e+09
8.43741e+09
8.06311e+09
3.9907e+09
)
;
    }
}


// ************************************************************************* //
