/*--------------------------------*- C++ -*----------------------------------*\
| =========                 |                                                 |
| \\      /  F ield         | OpenFOAM: The Open Source CFD Toolbox           |
|  \\    /   O peration     | Version:  4.x                                   |
|   \\  /    A nd           | Web:      www.OpenFOAM.org                      |
|    \\/     M anipulation  |                                                 |
\*---------------------------------------------------------------------------*/
FoamFile
{
    version     2.0;
    format      ascii;
    class       volVectorField;
    location    "49";
    object      UsNext;
}
// * * * * * * * * * * * * * * * * * * * * * * * * * * * * * * * * * * * * * //

dimensions      [0 1 -1 0 0 0 0];

internalField   nonuniform List<vector> 
108
(
(1.83151e-09 -3.24225e-09 1.79076e-09)
(2.21513e-09 -5.06248e-09 2.3273e-09)
(1.83298e-09 -4.97209e-09 9.8435e-10)
(1.04284e-09 -2.12096e-09 4.16616e-10)
(6.12052e-10 -1.44133e-09 -3.02577e-10)
(1.38552e-09 -6.98482e-10 -5.98046e-10)
(1.14509e-09 -6.67222e-10 -4.1998e-10)
(-3.32411e-09 -3.72012e-10 -1.62622e-10)
(-3.68254e-09 -7.27456e-10 1.59397e-10)
(1.30984e-09 -1.32353e-09 1.09403e-09)
(1.02691e-09 -1.62664e-09 9.09118e-10)
(9.73116e-10 -1.67133e-09 5.17291e-10)
(7.02489e-10 -1.1477e-09 7.46294e-11)
(5.11105e-10 -8.70917e-10 -2.63829e-10)
(1.69484e-10 -4.81426e-10 -5.99138e-10)
(-4.73757e-10 -3.50627e-10 -6.46e-10)
(-2.79482e-09 1.4052e-10 -1.18399e-09)
(-7.92854e-09 7.55479e-10 -4.65487e-10)
(1.33101e-09 2.41904e-10 7.01337e-10)
(1.1534e-09 -1.0679e-09 7.10029e-10)
(6.20383e-10 -7.12722e-10 4.13999e-10)
(6.08604e-10 -5.65563e-10 8.71085e-11)
(4.89175e-10 -5.44846e-10 -1.21385e-10)
(-4.77694e-10 -2.99789e-10 -5.55924e-10)
(-1.33358e-09 -4.46024e-11 -6.05682e-10)
(-4.93313e-09 -1.55662e-09 -2.45472e-09)
(-3.12597e-09 1.10037e-08 -4.72619e-09)
(6.17627e-10 -3.8352e-10 3.65787e-10)
(7.89577e-10 -8.36162e-10 2.09431e-10)
(6.76015e-10 -1.44978e-09 1.59184e-10)
(4.36898e-10 -2.00652e-10 3.72073e-11)
(6.78965e-10 -1.71758e-10 4.37707e-11)
(1.45258e-10 1.08443e-10 -6.32482e-10)
(4.4716e-09 1.36686e-09 -6.13741e-10)
(4.41639e-09 1.46955e-09 -2.78046e-09)
(-3.03585e-09 4.57434e-07 -1.87635e-08)
(1.80087e-09 -1.93111e-09 1.59738e-09)
(1.78489e-09 -1.09508e-09 1.71819e-09)
(1.40911e-09 -1.55223e-09 1.32056e-09)
(1.44099e-09 -1.22084e-09 4.71643e-10)
(1.62684e-09 -1.13977e-09 -3.6905e-10)
(1.60013e-09 -8.15201e-10 -9.28576e-10)
(1.60112e-09 -3.98525e-10 -1.56003e-09)
(1.20684e-09 1.41615e-10 -3.98726e-10)
(9.47943e-10 -6.97748e-10 -1.76305e-10)
(1.44246e-09 -8.07418e-10 9.26443e-10)
(1.47234e-09 -1.02333e-09 7.67088e-10)
(1.27004e-09 -1.25959e-09 3.74875e-10)
(1.16933e-09 -1.12386e-09 -3.5255e-11)
(1.03607e-09 -7.94516e-10 -2.46834e-10)
(7.33168e-10 -7.96906e-10 -7.74336e-10)
(9.18201e-10 -1.38237e-10 -1.06878e-09)
(1.05218e-11 5.3923e-11 -1.59086e-09)
(4.27407e-10 3.13356e-10 -1.334e-09)
(1.21972e-09 -4.2167e-10 8.22166e-10)
(1.24587e-09 -5.68137e-10 5.50008e-10)
(1.06116e-09 -7.23272e-10 4.10906e-10)
(7.52677e-10 -5.7488e-10 2.94593e-11)
(5.33223e-10 -4.59404e-10 -1.19684e-10)
(-2.57483e-11 -5.26548e-10 -2.82561e-10)
(-1.26646e-09 -5.48699e-10 -8.54253e-10)
(-1.75102e-09 -3.60848e-11 -2.60467e-09)
(-1.24465e-09 3.86188e-11 -2.89735e-09)
(7.97285e-10 -1.39383e-10 4.70558e-10)
(8.3762e-10 -4.69008e-10 2.50299e-10)
(5.21847e-10 -3.2575e-10 1.5987e-10)
(5.5338e-10 -2.79934e-10 -1.56956e-11)
(5.91996e-10 -1.25316e-10 -9.66017e-11)
(9.46289e-10 -3.06118e-10 -1.88667e-10)
(7.28347e-10 2.62732e-10 -8.58013e-10)
(1.29288e-10 2.76775e-10 -3.06111e-09)
(-6.64324e-10 1.09813e-10 -1.11518e-08)
(1.78618e-09 -1.13363e-10 1.48018e-09)
(1.84488e-09 5.43458e-12 1.90951e-09)
(1.65846e-09 9.10251e-10 2.47241e-09)
(1.98831e-09 -6.8466e-10 7.75783e-10)
(2.0384e-09 -8.60158e-10 -1.57519e-10)
(2.05372e-09 -3.81149e-10 -1.07454e-09)
(1.79741e-09 -2.67839e-10 -1.52973e-09)
(1.55004e-09 -1.17886e-10 -1.20249e-09)
(1.21694e-09 -2.17602e-10 -5.63054e-10)
(1.50545e-09 -1.95611e-10 8.85985e-10)
(1.85414e-09 -2.98622e-10 7.55022e-10)
(2.0853e-09 2.07032e-10 8.73265e-10)
(1.62138e-09 -5.2575e-10 1.63857e-10)
(1.56299e-09 -5.83227e-10 -3.38204e-10)
(1.39274e-09 -4.08162e-10 -7.09974e-10)
(1.0343e-09 -2.33201e-10 -1.10241e-09)
(6.78089e-10 3.05111e-11 -1.38604e-09)
(3.58339e-10 -6.387e-11 -6.12581e-10)
(1.39572e-09 -2.7777e-10 5.62363e-10)
(1.56155e-09 -3.5509e-10 5.24094e-10)
(1.24039e-09 1.03749e-11 6.26096e-10)
(2.19628e-10 -6.49826e-10 3.78826e-10)
(5.7229e-10 -3.87048e-10 -3.24336e-11)
(2.00298e-10 -2.18003e-10 -2.14942e-10)
(-4.75356e-10 -3.17196e-10 -6.83234e-10)
(-1.53619e-10 -2.04864e-12 -2.16345e-09)
(-3.09498e-11 -3.9141e-10 -2.24881e-09)
(7.71964e-10 -3.42785e-10 3.16889e-10)
(7.55615e-10 -3.55437e-10 2.47505e-10)
(6.26748e-10 -3.5784e-10 3.78926e-10)
(1.80634e-10 1.02327e-10 1.80171e-10)
(-4.19198e-11 -1.7288e-10 -7.507e-12)
(-1.87191e-10 -2.32986e-11 -7.58336e-12)
(-7.52356e-10 -1.36821e-11 -5.45095e-10)
(-8.72487e-10 -3.34549e-10 -2.02316e-09)
(-4.45299e-10 -1.23548e-09 -3.88478e-09)
)
;

boundaryField
{
    inlet
    {
        type            calculated;
        value           nonuniform 0();
    }
    outlet
    {
        type            calculated;
        value           nonuniform List<vector> 
12
(
(-3.68254e-09 -7.27456e-10 1.59397e-10)
(-7.92854e-09 7.55479e-10 -4.65487e-10)
(-3.12597e-09 1.10037e-08 -4.72619e-09)
(-3.03585e-09 4.57434e-07 -1.87635e-08)
(9.47943e-10 -6.97748e-10 -1.76305e-10)
(4.27407e-10 3.13356e-10 -1.334e-09)
(-1.24465e-09 3.86188e-11 -2.89735e-09)
(-6.64324e-10 1.09813e-10 -1.11518e-08)
(1.21694e-09 -2.17602e-10 -5.63054e-10)
(3.58339e-10 -6.387e-11 -6.12581e-10)
(-3.09498e-11 -3.9141e-10 -2.24881e-09)
(-4.45299e-10 -1.23548e-09 -3.88478e-09)
)
;
    }
    wall
    {
        type            calculated;
        value           nonuniform List<vector> 
63
(
(1.83151e-09 -3.24225e-09 1.79076e-09)
(1.30984e-09 -1.32353e-09 1.09403e-09)
(1.33101e-09 2.41904e-10 7.01337e-10)
(6.17627e-10 -3.8352e-10 3.65787e-10)
(2.21513e-09 -5.06248e-09 2.3273e-09)
(1.02691e-09 -1.62664e-09 9.09118e-10)
(1.1534e-09 -1.0679e-09 7.10029e-10)
(7.89577e-10 -8.36162e-10 2.09431e-10)
(1.83298e-09 -4.97209e-09 9.8435e-10)
(9.73116e-10 -1.67133e-09 5.17291e-10)
(6.20383e-10 -7.12722e-10 4.13999e-10)
(6.76015e-10 -1.44978e-09 1.59184e-10)
(1.04284e-09 -2.12096e-09 4.16616e-10)
(7.02489e-10 -1.1477e-09 7.46294e-11)
(6.08604e-10 -5.65563e-10 8.71085e-11)
(4.36898e-10 -2.00652e-10 3.72073e-11)
(6.12052e-10 -1.44133e-09 -3.02577e-10)
(5.11105e-10 -8.70917e-10 -2.63829e-10)
(4.89175e-10 -5.44846e-10 -1.21385e-10)
(6.78965e-10 -1.71758e-10 4.37707e-11)
(1.38552e-09 -6.98482e-10 -5.98046e-10)
(1.69484e-10 -4.81426e-10 -5.99138e-10)
(-4.77694e-10 -2.99789e-10 -5.55924e-10)
(1.45258e-10 1.08443e-10 -6.32482e-10)
(1.14509e-09 -6.67222e-10 -4.1998e-10)
(-4.73757e-10 -3.50627e-10 -6.46e-10)
(-1.33358e-09 -4.46024e-11 -6.05682e-10)
(4.4716e-09 1.36686e-09 -6.13741e-10)
(-3.32411e-09 -3.72012e-10 -1.62622e-10)
(-2.79482e-09 1.4052e-10 -1.18399e-09)
(-4.93313e-09 -1.55662e-09 -2.45472e-09)
(4.41639e-09 1.46955e-09 -2.78046e-09)
(-3.68254e-09 -7.27456e-10 1.59397e-10)
(-7.92854e-09 7.55479e-10 -4.65487e-10)
(-3.12597e-09 1.10037e-08 -4.72619e-09)
(-3.03585e-09 4.57434e-07 -1.87635e-08)
(6.17627e-10 -3.8352e-10 3.65787e-10)
(7.97285e-10 -1.39383e-10 4.70558e-10)
(7.71964e-10 -3.42785e-10 3.16889e-10)
(7.89577e-10 -8.36162e-10 2.09431e-10)
(8.3762e-10 -4.69008e-10 2.50299e-10)
(7.55615e-10 -3.55437e-10 2.47505e-10)
(6.76015e-10 -1.44978e-09 1.59184e-10)
(5.21847e-10 -3.2575e-10 1.5987e-10)
(6.26748e-10 -3.5784e-10 3.78926e-10)
(4.36898e-10 -2.00652e-10 3.72073e-11)
(5.5338e-10 -2.79934e-10 -1.56956e-11)
(1.80634e-10 1.02327e-10 1.80171e-10)
(6.78965e-10 -1.71758e-10 4.37707e-11)
(5.91996e-10 -1.25316e-10 -9.66017e-11)
(-4.19198e-11 -1.7288e-10 -7.507e-12)
(1.45258e-10 1.08443e-10 -6.32482e-10)
(9.46289e-10 -3.06118e-10 -1.88667e-10)
(-1.87191e-10 -2.32986e-11 -7.58336e-12)
(4.4716e-09 1.36686e-09 -6.13741e-10)
(7.28347e-10 2.62732e-10 -8.58013e-10)
(-7.52356e-10 -1.36821e-11 -5.45095e-10)
(4.41639e-09 1.46955e-09 -2.78046e-09)
(1.29288e-10 2.76775e-10 -3.06111e-09)
(-8.72487e-10 -3.34549e-10 -2.02316e-09)
(-3.03585e-09 4.57434e-07 -1.87635e-08)
(-6.64324e-10 1.09813e-10 -1.11518e-08)
(-4.45299e-10 -1.23548e-09 -3.88478e-09)
)
;
    }
    procBoundary3to1
    {
        type            processor;
        value           nonuniform List<vector> 
27
(
(3.00239e-09 -6.12252e-09 4.98111e-09)
(9.45087e-10 -9.36975e-09 7.84963e-09)
(7.09909e-10 -5.3578e-09 4.59621e-09)
(-4.07682e-10 -1.72062e-09 1.42284e-09)
(9.62666e-11 -1.54332e-09 7.39813e-11)
(1.14697e-09 -6.42483e-10 -4.74459e-10)
(2.16416e-09 -6.8075e-10 -1.34386e-09)
(1.88891e-09 -3.12602e-09 -4.13506e-09)
(3.484e-09 -6.65448e-10 -2.01635e-09)
(8.31956e-10 -1.12474e-09 4.16872e-09)
(1.42367e-09 -1.5512e-09 7.06772e-09)
(1.50757e-09 -1.23827e-09 3.83264e-09)
(2.10414e-10 -1.84871e-09 1.70558e-09)
(8.09987e-10 -1.62113e-09 -1.70912e-10)
(1.3747e-09 -9.62553e-10 -8.78578e-10)
(2.45616e-09 -5.53882e-10 -2.08244e-09)
(3.05187e-09 -8.39538e-10 -1.68522e-09)
(1.28684e-09 -1.89646e-09 -3.23939e-09)
(7.27706e-10 8.03803e-10 3.39487e-09)
(1.59533e-09 1.27239e-09 4.64381e-09)
(2.11641e-09 1.4112e-09 5.23896e-09)
(1.90182e-09 3.89119e-11 1.93287e-09)
(1.63452e-09 -4.06121e-10 1.29982e-10)
(1.74487e-09 -3.01398e-10 -7.44899e-10)
(1.81535e-09 -1.92807e-10 -1.49431e-09)
(1.56414e-09 -1.26853e-10 -1.45788e-09)
(1.12907e-09 -9.29388e-10 -8.39982e-10)
)
;
    }
    procBoundary3to2
    {
        type            processor;
        value           nonuniform List<vector> 
12
(
(1.97938e-09 -1.81276e-09 1.48401e-09)
(1.52553e-09 -1.24674e-09 1.05574e-09)
(1.47105e-09 -8.70652e-10 8.61283e-10)
(9.74477e-10 -5.47259e-10 5.32206e-10)
(1.39987e-09 -7.92311e-10 1.44055e-09)
(1.40184e-09 -7.27147e-10 8.76408e-10)
(1.13053e-09 -5.04504e-10 6.13806e-10)
(5.14571e-10 -1.53524e-10 1.83657e-10)
(1.00302e-09 1.67267e-10 1.53742e-09)
(1.05714e-09 -1.18802e-10 6.67122e-10)
(1.0465e-09 -2.18809e-10 4.42766e-10)
(6.59173e-10 -5.92702e-11 2.67962e-10)
)
;
    }
    procBoundary3to7
    {
        type            processor;
        value           nonuniform List<vector> 
36
(
(1.91113e-09 4.06498e-10 1.47828e-09)
(2.13349e-09 4.23956e-10 1.45238e-09)
(2.3484e-09 7.11147e-10 1.82737e-09)
(2.33507e-09 2.58031e-10 5.31747e-10)
(2.13335e-09 1.27193e-10 -2.61275e-13)
(1.8592e-09 1.15359e-10 -8.35874e-10)
(1.22795e-09 1.90429e-10 -1.0622e-09)
(1.02753e-09 2.81876e-10 -1.18829e-09)
(5.0206e-10 4.22392e-11 -3.11162e-10)
(1.82061e-09 -2.31834e-11 7.02594e-10)
(2.17486e-09 1.96277e-10 8.14612e-10)
(2.21865e-09 2.01466e-10 7.77503e-10)
(2.34341e-09 2.05691e-10 4.36571e-10)
(1.88652e-09 2.57935e-11 2.94173e-11)
(1.4713e-09 8.4243e-11 -3.99424e-10)
(1.25598e-09 7.60756e-11 -6.29684e-10)
(8.52796e-10 2.07282e-10 -9.6326e-10)
(3.74451e-10 2.21402e-10 -3.69038e-10)
(1.42287e-09 5.58475e-11 2.76379e-10)
(1.7427e-09 -6.79332e-11 3.79689e-10)
(1.58374e-09 2.43339e-10 7.65659e-10)
(1.31243e-09 3.37788e-10 5.98742e-10)
(1.08742e-09 6.68927e-11 1.16417e-10)
(7.02718e-10 9.76216e-11 1.54034e-11)
(3.88183e-10 1.00075e-10 -5.89212e-10)
(5.85068e-10 2.3206e-10 -1.23146e-09)
(1.86291e-10 3.97125e-10 -5.88553e-10)
(5.70131e-10 -2.03264e-10 7.24809e-11)
(8.99312e-10 -1.67947e-10 2.03611e-10)
(7.55642e-10 1.80267e-10 4.18113e-10)
(5.28979e-10 2.13638e-10 4.4198e-10)
(3.20378e-10 6.95017e-11 2.92538e-10)
(1.70876e-10 1.23291e-10 3.0957e-10)
(1.42878e-11 -6.24661e-12 -3.43072e-10)
(1.81379e-10 9.60383e-11 -1.01197e-09)
(8.25353e-11 1.28832e-10 -8.90391e-11)
)
;
    }
}


// ************************************************************************* //
