/*--------------------------------*- C++ -*----------------------------------*\
| =========                 |                                                 |
| \\      /  F ield         | OpenFOAM: The Open Source CFD Toolbox           |
|  \\    /   O peration     | Version:  4.x                                   |
|   \\  /    A nd           | Web:      www.OpenFOAM.org                      |
|    \\/     M anipulation  |                                                 |
\*---------------------------------------------------------------------------*/
FoamFile
{
    version     2.0;
    format      ascii;
    class       volScalarField;
    location    "25";
    object      Ksl;
}
// * * * * * * * * * * * * * * * * * * * * * * * * * * * * * * * * * * * * * //

dimensions      [1 -3 -1 0 0 0 0];

internalField   nonuniform List<scalar> 
114
(
2990.99
5343.19
2915.91
6588.48
2975.96
27071.4
6745.35
3296.66
8468.3
3231.79
8238.73
2716.54
8908.99
3079.81
2338.98
3585.86
2697.96
3198.59
2146.41
2976.39
8598
5606.55
2872.55
3936.13
3109.06
5370.52
3118.48
4843.65
2911.21
4276.48
22541.2
3734.71
2156.45
4123.38
3345.96
4179.12
2339.37
3675.07
7796.45
5895.77
3202.18
3206.49
3965.97
2930.46
4086.37
1223.92
5262.66
9326.76
3435.23
2864.34
5464.94
3023.63
4380.97
2827.26
4354.64
2471.25
4413
1908.9
3964.02
10638.3
2998.96
6285.32
3296.68
6845.21
3126.76
6258.89
2592.54
3477.19
12013.1
3374.95
7204.63
3383.37
7961.75
3240.45
6928.55
2618.39
5063.32
22550
3350.46
3762.7
3774.14
4145.4
2773.53
3382.05
2590.2
3416.41
2246.22
3635.82
1667.63
4787.02
5576.12
3054.87
3489.18
2948.93
4119.03
2749.19
4420.28
2344.81
4185.23
5262.31
3157.44
4606.51
3109.34
5016.54
2952.68
4896.15
2854.79
9745.04
7135.94
3112.85
3848.2
3361.32
4617.9
3333.86
)
;

boundaryField
{
    inlet
    {
        type            zeroGradient;
    }
    outlet
    {
        type            zeroGradient;
    }
    wall
    {
        type            zeroGradient;
    }
    procBoundary5to1
    {
        type            processor;
        value           nonuniform List<scalar> 
32
(
3276.43
5098.64
3140.89
7605.94
2919.74
14373
3302.91
3753.1
8818.6
3290.22
7561.73
3117.34
7244.68
2332.01
2012.88
2614.56
2708.35
3575.07
26598.4
3411.51
6664.99
5740.3
3030.11
4421.11
4421.11
4421.11
11399.2
3197.47
3197.47
3197.47
23262.3
23262.3
)
;
    }
    procBoundary5to4
    {
        type            processor;
        value           nonuniform List<scalar> 
12
(
3219.34
3542.4
3472.11
3475.02
3091.73
3430.17
3093.67
3182.43
2911.84
3109.06
3143.39
3241.22
)
;
    }
    procBoundary5to7
    {
        type            processor;
        value           nonuniform List<scalar> 
44
(
2197.06
2027.24
2268.46
2687.57
3315.48
2391.96
4140.84
31350.2
7569.81
2197.06
8267.03
3323.07
2548.65
2921.39
169798
4347.13
14268.9
4248.34
8267.03
3836.01
8267.03
3323.07
3180.65
3433.52
2947.66
4427.72
9373.29
18057.5
3434.4
15279.9
3180.65
3530.64
3180.65
3433.52
6199.56
3079.81
12287.9
6725.7
3352.72
5384.8
3351.03
5444.23
6199.56
3348.31
)
;
    }
}


// ************************************************************************* //
