/*--------------------------------*- C++ -*----------------------------------*\
| =========                 |                                                 |
| \\      /  F ield         | OpenFOAM: The Open Source CFD Toolbox           |
|  \\    /   O peration     | Version:  4.x                                   |
|   \\  /    A nd           | Web:      www.OpenFOAM.org                      |
|    \\/     M anipulation  |                                                 |
\*---------------------------------------------------------------------------*/
FoamFile
{
    version     2.0;
    format      ascii;
    class       volScalarField;
    location    "25";
    object      QPartFluid;
}
// * * * * * * * * * * * * * * * * * * * * * * * * * * * * * * * * * * * * * //

dimensions      [1 -1 -3 0 0 0 0];

internalField   nonuniform List<scalar> 
114
(
8.51508e+09
8.33558e+09
7.80495e+09
6.6919e+09
8.7556e+09
5.86969e+09
7.59217e+09
7.18598e+09
5.97017e+09
7.91135e+09
8.48267e+09
1.02774e+10
6.36385e+09
8.89621e+09
6.71764e+09
6.91706e+09
5.82757e+09
4.25822e+09
8.01253e+09
5.32168e+09
6.16216e+09
6.99945e+09
5.87045e+09
8.217e+09
6.37323e+09
6.87391e+09
8.19658e+09
7.92312e+09
6.70443e+09
5.44168e+09
8.0999e+09
8.09763e+09
8.64412e+09
8.35678e+09
6.96266e+09
8.66336e+09
6.83455e+09
9.54524e+09
5.98011e+09
7.46866e+09
5.08531e+09
6.85294e+09
7.26358e+09
6.20255e+09
6.71004e+09
8.89118e+09
6.06519e+09
4.14472e+09
7.70905e+09
4.67842e+09
7.83636e+09
1.00109e+10
8.27512e+09
9.04723e+09
8.52931e+09
8.76553e+09
7.753e+09
9.96435e+09
6.51746e+09
6.51558e+09
1.13654e+10
7.7785e+09
9.2693e+09
8.74347e+09
9.2661e+09
1.1484e+10
9.14397e+09
5.72157e+09
7.71841e+09
7.77748e+09
7.68991e+09
7.02024e+09
1.10168e+10
8.93599e+09
8.65176e+09
1.00402e+10
8.00193e+09
5.16063e+09
1.16306e+10
8.09664e+09
9.21463e+09
2.60768e+09
7.13608e+09
5.01456e+09
8.07709e+09
6.62489e+09
6.11997e+09
7.97133e+09
8.57427e+09
5.51909e+09
7.31625e+09
8.55944e+09
5.90771e+09
7.32109e+09
9.03608e+09
8.06903e+09
6.14788e+09
9.47132e+09
6.09948e+09
6.5584e+09
7.62059e+09
9.49848e+09
8.21406e+09
6.78641e+09
9.65664e+09
7.42101e+09
7.93991e+09
6.14543e+09
7.41511e+09
6.64036e+09
8.0049e+09
6.66426e+09
1.08982e+10
8.17371e+09
)
;

boundaryField
{
    inlet
    {
        type            calculated;
        value           nonuniform 0();
    }
    outlet
    {
        type            calculated;
        value           uniform 0;
    }
    wall
    {
        type            calculated;
        value           uniform 0;
    }
    procBoundary5to1
    {
        type            processor;
        value           nonuniform List<scalar> 
32
(
1.01683e+10
6.72843e+09
1.02377e+10
8.18364e+09
7.57956e+09
3.31133e+09
7.53489e+09
8.15492e+09
8.34684e+09
9.2085e+09
8.14181e+09
9.5672e+09
3.71422e+09
7.60588e+09
5.50693e+09
1.10593e+10
8.10545e+09
9.3249e+09
6.42962e+09
8.88257e+09
3.2252e+09
7.01404e+09
5.86795e+09
8.9399e+09
8.9399e+09
8.9399e+09
8.07504e+09
1.21484e+10
1.21484e+10
1.21484e+10
5.07746e+09
5.07746e+09
)
;
    }
    procBoundary5to4
    {
        type            processor;
        value           nonuniform List<scalar> 
12
(
9.85e+09
1.13221e+10
6.77815e+09
6.8432e+09
9.92438e+09
1.09097e+10
9.06923e+09
8.17362e+09
8.4026e+09
8.85639e+09
7.31888e+09
7.26537e+09
)
;
    }
    procBoundary5to7
    {
        type            processor;
        value           nonuniform List<scalar> 
44
(
9.28346e+09
7.85169e+09
6.89772e+09
9.42419e+09
9.9633e+09
8.29555e+09
5.65288e+09
5.46132e+09
8.42171e+09
9.28346e+09
5.08309e+09
7.1559e+09
6.04338e+09
7.04196e+09
7.31956e+09
8.44512e+09
5.4245e+09
3.51054e+09
5.08309e+09
9.49814e+09
5.08309e+09
7.1559e+09
5.21253e+09
6.36726e+09
7.20842e+09
6.62086e+09
4.12895e+09
8.90242e+09
9.09725e+09
7.40987e+09
5.21253e+09
6.51436e+09
5.21253e+09
6.36726e+09
5.85977e+09
7.38026e+09
4.43782e+09
7.73039e+09
7.26276e+09
8.22491e+09
8.79579e+09
5.88158e+09
5.85977e+09
4.9724e+09
)
;
    }
}


// ************************************************************************* //
