/*--------------------------------*- C++ -*----------------------------------*\
| =========                 |                                                 |
| \\      /  F ield         | OpenFOAM: The Open Source CFD Toolbox           |
|  \\    /   O peration     | Version:  4.x                                   |
|   \\  /    A nd           | Web:      www.OpenFOAM.org                      |
|    \\/     M anipulation  |                                                 |
\*---------------------------------------------------------------------------*/
FoamFile
{
    version     2.0;
    format      ascii;
    class       volVectorField;
    location    "25";
    object      Urel;
}
// * * * * * * * * * * * * * * * * * * * * * * * * * * * * * * * * * * * * * //

dimensions      [0 1 -1 0 0 0 0];

internalField   nonuniform List<vector> 
114
(
(-0.0225555 7.40949e-05 5.6789e-05)
(-0.0208516 0.000192271 -1.57899e-05)
(-0.0221511 0.000173128 -0.000251608)
(-0.0198753 0.000538556 -0.000297147)
(-0.0208564 0.000555811 -0.000726244)
(-0.0175452 0.0014239 -0.000560036)
(-0.0193107 0.000196029 0.000175795)
(-0.0209549 0.000103466 -2.0404e-05)
(-0.0190523 0.000225995 -4.83183e-05)
(-0.0205892 0.0002007 -0.000259291)
(-0.0184148 0.000539107 -0.000182954)
(-0.0194527 0.000398695 -0.000519051)
(-0.0170625 0.00154573 0.000129507)
(-0.0195896 0.000202284 0.000217142)
(-0.017328 7.43567e-05 0.000143831)
(-0.0193903 -7.65716e-06 -1.82297e-05)
(-0.0171644 4.95283e-05 -8.45783e-05)
(-0.0190351 2.75556e-05 -0.000218027)
(-0.0166138 0.000194362 -0.000207753)
(-0.0181829 0.000131833 -0.000370426)
(-0.0161914 0.000748723 0.000172667)
(-0.0208094 0.000370807 0.000167213)
(-0.0221499 0.000412598 7.53237e-05)
(-0.0207478 0.000304574 1.05699e-05)
(-0.0221507 0.000219541 -0.000138067)
(-0.0205105 0.000421265 -0.000285652)
(-0.0219143 0.000502005 -0.000550239)
(-0.0199002 0.00100265 -0.000870752)
(-0.0208567 0.00121929 -0.00126598)
(-0.0181083 0.00254947 -0.00264267)
(-0.0189449 0.00029616 0.000130712)
(-0.0206076 0.000264309 4.932e-05)
(-0.0185039 0.000236184 2.88286e-05)
(-0.020454 0.000217979 -0.000129221)
(-0.0184044 0.000329985 -0.000212018)
(-0.0201022 0.000420997 -0.00046053)
(-0.0177774 0.000745537 -0.000539898)
(-0.0189627 0.000843241 -0.000839055)
(-0.0166508 0.00195493 -0.00110192)
(-0.0176098 0.000175693 0.000144225)
(-0.019423 0.000153233 -1.47752e-05)
(-0.0172609 0.000137498 2.01171e-05)
(-0.019221 0.00013952 -0.000104071)
(-0.0170419 0.000171943 -0.000162297)
(-0.0188522 0.000128029 -0.000354819)
(-0.0163663 0.000413874 -0.000325584)
(-0.0180003 0.000476917 -0.00033379)
(-0.0157891 0.000983351 -0.000436322)
(-0.0170421 1.44165e-05 0.00015293)
(-0.0189614 1.49323e-05 9.0444e-06)
(-0.0215015 0.000416372 6.82819e-06)
(-0.0228733 0.000432996 -8.06573e-05)
(-0.0217527 0.00043592 -9.13751e-05)
(-0.0232581 0.000440988 -0.000176468)
(-0.0219808 0.000700793 -0.000371645)
(-0.0237033 0.000839796 -0.000546944)
(-0.0219618 0.00165339 -0.00109093)
(-0.0238072 0.00206923 -0.00127117)
(-0.0198651 0.00447118 -0.0031816)
(-0.01994 0.000334125 -2.04472e-05)
(-0.0214907 0.000362086 -0.000146809)
(-0.0199716 0.00037342 -7.94934e-05)
(-0.0216211 0.000403008 -0.000119211)
(-0.0200326 0.000601891 -0.000279291)
(-0.0216638 0.000734647 -0.000442893)
(-0.0198325 0.0014006 -0.000750111)
(-0.0209996 0.00169411 -0.000865219)
(-0.0183477 0.00399845 -0.00190776)
(-0.0187633 0.000244927 -3.03482e-05)
(-0.0203641 0.000291761 -8.39634e-05)
(-0.0186529 0.000288184 -6.78923e-05)
(-0.0203194 0.000290436 -0.000114809)
(-0.0185107 0.000425766 -0.000224641)
(-0.0200982 0.000474379 -0.000320509)
(-0.0180667 0.000880254 -0.000455143)
(-0.0191558 0.000897793 -0.00029127)
(-0.0167938 0.00201004 -0.000856149)
(-0.0179349 6.94385e-05 -1.06025e-05)
(-0.0196346 6.99058e-05 -9.61214e-05)
(-0.0175945 8.82506e-05 1.88102e-07)
(-0.0194086 9.27084e-05 -3.25507e-05)
(-0.0225278 0.000453322 9.27717e-06)
(-0.0238362 0.000484798 -2.2868e-05)
(-0.0230178 0.000532133 -1.37783e-05)
(-0.0244346 0.000582542 -9.12702e-05)
(-0.0234658 0.00090496 -0.000183778)
(-0.0251901 0.00112307 -0.000383043)
(-0.0237175 0.00213172 -0.000702767)
(-0.0259034 0.00278449 -0.00105392)
(-0.0213753 0.00585449 -0.00194674)
(-0.0213496 0.000410987 -7.84955e-06)
(-0.0226679 0.00044192 -4.00884e-05)
(-0.0216297 0.000510199 -1.82591e-05)
(-0.0229554 0.000568316 -7.76051e-05)
(-0.0217599 0.000849573 -0.000148704)
(-0.0231378 0.00103228 -0.000308917)
(-0.0215785 0.00190293 -0.000511896)
(-0.0226475 0.0023477 -0.000776049)
(-0.0197472 0.00529337 -0.00133898)
(-0.0202222 0.000323325 1.10477e-05)
(-0.0215228 0.000352637 -3.03298e-05)
(-0.0202155 0.000410843 -4.24801e-06)
(-0.0215371 0.000428859 -5.34986e-05)
(-0.0200581 0.000623682 -0.000107894)
(-0.0213455 0.000675324 -0.000221379)
(-0.0195291 0.00120905 -0.000326357)
(-0.0203889 0.00133292 -0.00044222)
(-0.0177802 0.00262416 -0.000733299)
(-0.0194905 0.000136603 3.65388e-06)
(-0.02079 0.000140962 -5.04777e-05)
(-0.0193521 0.000190517 4.47656e-06)
(-0.0205852 0.00018848 -1.47561e-05)
(-0.0190026 0.000277924 -5.25887e-05)
(-0.0201387 0.000255634 -0.000141426)
)
;

boundaryField
{
    inlet
    {
        type            calculated;
        value           nonuniform 0();
    }
    outlet
    {
        type            calculated;
        value           nonuniform List<vector> 
12
(
(-0.0036633 0.00116332 -0.000207908)
(-0.0083352 0.00656478 0.00409337)
(-0.00711948 0.00249448 0.00138547)
(-0.0100134 0.00624026 -0.0165504)
(-0.000868101 0.00170639 -0.000579279)
(-0.00196869 -0.000378979 -0.000838688)
(-0.0124899 0.0153467 -0.0187037)
(-0.0107654 0.0184003 -0.00881339)
(-0.0062747 0.00523885 -0.00330115)
(-0.0163112 0.0217566 -0.00291838)
(-0.0156648 0.0252617 -0.00141557)
(-0.00838985 0.00527426 -0.000799737)
)
;
    }
    wall
    {
        type            calculated;
        value           nonuniform List<vector> 
66
(
(-1.20704e-06 2.32248e-07 -7.76881e-08)
(-1.8273e-06 3.60254e-07 -1.62758e-07)
(-2.9784e-06 4.01288e-07 -1.47035e-07)
(-1.20532e-06 2.36423e-07 5.05837e-07)
(-1.45493e-06 2.04496e-07 1.45894e-07)
(-1.95707e-06 5.30543e-07 2.09158e-07)
(-2.42947e-06 5.56028e-07 -1.24466e-07)
(-1.46945e-06 8.75807e-07 -2.528e-07)
(-1.56647e-06 1.16087e-05 6.31331e-07)
(2.4874e-07 2.30275e-06 -4.61384e-07)
(-2.59317e-06 8.66319e-07 5.91504e-08)
(-4.58194e-07 8.6407e-06 -4.58111e-07)
(-1.6044e-06 2.14121e-08 5.70624e-08)
(-3.2599e-06 5.027e-07 -1.12787e-07)
(-2.66182e-06 2.50717e-07 -1.3766e-07)
(-1.8572e-06 1.88433e-07 -5.12444e-07)
(-1.84059e-06 2.05478e-07 -5.13133e-08)
(-1.08196e-06 1.4041e-06 -7.70392e-08)
(-1.21949e-06 -2.68672e-07 -2.276e-08)
(-1.58958e-06 -4.69791e-07 -2.55815e-07)
(-1.46369e-06 6.86694e-07 1.29781e-06)
(-1.04694e-06 5.4419e-07 1.37185e-06)
(-8.57808e-07 -2.14561e-07 -3.62452e-07)
(-1.85606e-06 1.3213e-07 7.6079e-08)
(-1.08254e-06 -1.53418e-08 3.89576e-08)
(-9.78844e-07 3.50555e-07 2.19209e-08)
(-7.31622e-07 3.72652e-07 -1.07188e-07)
(-9.73635e-07 4.69729e-08 -2.78316e-07)
(-5.81142e-07 1.37893e-07 -1.4746e-07)
(-5.30342e-07 2.19147e-07 2.18265e-08)
(-2.87253e-07 3.1452e-08 -1.78689e-07)
(-8.77009e-08 1.4316e-07 -1.13811e-07)
(-2.93565e-07 1.0789e-08 -1.40656e-08)
(-1.38005e-06 4.67302e-09 7.20293e-09)
(-1.64271e-06 1.41904e-07 -2.02277e-08)
(-1.20704e-06 2.32248e-07 -7.76881e-08)
(-2.01652e-06 3.25581e-07 1.75259e-07)
(-1.71217e-06 5.59815e-08 3.03075e-07)
(-1.45493e-06 2.04496e-07 1.45894e-07)
(-3.30264e-06 7.26583e-07 5.16052e-08)
(-1.77422e-06 7.34545e-09 1.11357e-07)
(-1.56647e-06 1.16087e-05 6.31331e-07)
(-4.36578e-06 2.09408e-07 2.21726e-07)
(-2.82173e-06 -1.28154e-07 5.26575e-08)
(-1.84494e-06 -1.47933e-07 -1.10505e-07)
(-1.6044e-06 2.14121e-08 5.70624e-08)
(-3.38439e-06 6.07951e-08 3.71509e-07)
(-2.15149e-06 -8.61232e-08 -7.34483e-07)
(-2.04352e-06 -3.59861e-08 -2.0751e-07)
(-1.84059e-06 2.05478e-07 -5.13133e-08)
(-3.10275e-06 9.13869e-07 3.86535e-07)
(-1.79158e-06 1.89403e-07 2.40185e-07)
(-1.43489e-06 4.1356e-07 5.01349e-07)
(-1.46369e-06 6.86694e-07 1.29781e-06)
(-2.16925e-06 -7.19418e-08 1.42766e-07)
(-1.6276e-06 1.09438e-07 3.17109e-08)
(-1.61114e-06 4.46759e-07 -7.43963e-08)
(-1.08254e-06 -1.53418e-08 3.89576e-08)
(-1.35687e-06 -1.28701e-07 3.50672e-07)
(-1.1517e-06 6.1599e-08 7.50081e-08)
(-8.67845e-07 1.08379e-07 -1.68478e-07)
(-9.73635e-07 4.69729e-08 -2.78316e-07)
(-1.65478e-07 1.76305e-07 1.81124e-07)
(-5.84105e-07 -6.10723e-08 2.51412e-07)
(-3.69945e-07 -6.68651e-09 9.4965e-08)
(-2.87253e-07 3.1452e-08 -1.78689e-07)
)
;
    }
    procBoundary5to1
    {
        type            processor;
        value           nonuniform List<vector> 
32
(
(-0.0235878 -7.82004e-05 0.000189032)
(-0.0219288 -1.5166e-06 0.000168238)
(-0.0232692 -3.58829e-05 -4.62504e-05)
(-0.0210302 0.000283392 0.000159236)
(-0.0221046 0.000347755 -0.000116013)
(-0.018488 0.00118011 0.000894346)
(-0.0205344 0.000106803 0.000254791)
(-0.0221295 -7.7501e-06 3.39539e-05)
(-0.0202693 0.000104676 3.22211e-05)
(-0.0218807 3.33795e-05 -0.000213161)
(-0.0197799 0.000429931 0.000110051)
(-0.0208307 0.000332363 -0.000153646)
(-0.0181829 0.00162851 0.00140023)
(-0.0204394 0.000305447 0.0003371)
(-0.0182837 1.20123e-05 0.000192395)
(-0.0204236 -0.000188649 -6.69862e-05)
(-0.0182536 -3.60623e-05 -8.40196e-05)
(-0.0201545 -6.70252e-05 -0.000270012)
(-0.0179274 9.64324e-05 -0.000110662)
(-0.019179 5.69245e-05 -0.000216795)
(-0.0170281 0.000696107 0.000869718)
(-0.0212631 0.00029335 0.000372707)
(-0.0225922 0.000255522 0.000308471)
(-0.0212497 0.00016619 0.000211523)
(-0.0212497 0.00016619 0.000211523)
(-0.0212497 0.00016619 0.000211523)
(-0.0194785 0.000299913 0.000333992)
(-0.0210587 0.000286899 0.000290881)
(-0.0210587 0.000286899 0.000290881)
(-0.0210587 0.000286899 0.000290881)
(-0.017825 0.000190012 0.000254978)
(-0.017825 0.000190012 0.000254978)
)
;
    }
    procBoundary5to4
    {
        type            processor;
        value           nonuniform List<vector> 
12
(
(-0.0221018 0.000414859 0.000221416)
(-0.0207882 0.000371404 0.000176964)
(-0.0196895 0.000218389 0.000100094)
(-0.0191891 -5.03621e-05 0.000133523)
(-0.0226154 0.000429631 -4.00004e-06)
(-0.0214339 0.0003623 -4.72849e-05)
(-0.0204567 0.000254969 -8.42934e-05)
(-0.019842 5.68028e-05 -5.55596e-05)
(-0.0233855 0.000443381 6.33634e-07)
(-0.0224261 0.000395237 -2.27768e-05)
(-0.021477 0.000292884 -2.09282e-05)
(-0.0208817 0.00010243 -2.05743e-05)
)
;
    }
    procBoundary5to7
    {
        type            processor;
        value           nonuniform List<vector> 
44
(
(-0.0191343 -6.03372e-05 -1.39737e-06)
(-0.0167696 -3.29827e-05 0.000159412)
(-0.0189252 -4.15774e-05 0.00012407)
(-0.0167093 -6.94781e-05 -6.19358e-05)
(-0.0187026 -0.000123644 -0.000311727)
(-0.0163316 -6.01481e-05 -0.000167068)
(-0.0179806 5.10984e-05 -0.00030235)
(-0.015738 -0.000148334 0.000307784)
(-0.0173451 -1.05427e-05 0.000188541)
(-0.0191343 -6.03372e-05 -1.39737e-06)
(-0.0168129 1.19309e-05 5.68835e-05)
(-0.0187673 1.61256e-05 -3.56216e-05)
(-0.0164897 -5.06721e-06 -9.20349e-05)
(-0.0185163 -0.000131991 -0.000279901)
(-0.0163669 5.82333e-05 -0.000206816)
(-0.0179153 8.85232e-05 -0.000315059)
(-0.0156914 0.000200293 6.34526e-05)
(-0.0174238 -0.000138623 0.000185084)
(-0.0168129 1.19309e-05 5.68835e-05)
(-0.0192439 -0.000150264 7.85949e-05)
(-0.0168129 1.19309e-05 5.68835e-05)
(-0.0187673 1.61256e-05 -3.56216e-05)
(-0.0173157 0.000122712 -7.85265e-05)
(-0.019034 0.000108382 -0.000119732)
(-0.0168508 0.000250032 -0.00018548)
(-0.0181203 0.000279772 -0.000128179)
(-0.0161909 0.000556495 -0.000147105)
(-0.0183158 -0.000107868 4.90939e-05)
(-0.0199667 -0.000164665 -2.29844e-06)
(-0.0180968 -9.9937e-05 3.6527e-05)
(-0.0173157 0.000122712 -7.85265e-05)
(-0.0198145 -0.000103743 1.71105e-05)
(-0.0173157 0.000122712 -7.85265e-05)
(-0.019034 0.000108382 -0.000119732)
(-0.0183804 0.000524622 -0.000157901)
(-0.0191037 0.000466777 -0.000122365)
(-0.0171021 0.00106985 -0.000290879)
(-0.0196498 -8.14534e-05 7.77588e-05)
(-0.0209509 -0.00010379 5.90657e-05)
(-0.0194684 -6.46062e-05 0.000108337)
(-0.0207375 -6.92471e-05 9.16983e-05)
(-0.0190955 -8.20699e-05 0.000118435)
(-0.0183804 0.000524622 -0.000157901)
(-0.0202341 -0.0001035 6.32616e-05)
)
;
    }
}


// ************************************************************************* //
