/*--------------------------------*- C++ -*----------------------------------*\
| =========                 |                                                 |
| \\      /  F ield         | OpenFOAM: The Open Source CFD Toolbox           |
|  \\    /   O peration     | Version:  4.x                                   |
|   \\  /    A nd           | Web:      www.OpenFOAM.org                      |
|    \\/     M anipulation  |                                                 |
\*---------------------------------------------------------------------------*/
FoamFile
{
    version     2.0;
    format      ascii;
    class       volVectorField;
    location    "57.5";
    object      impParticleForces;
}
// * * * * * * * * * * * * * * * * * * * * * * * * * * * * * * * * * * * * * //

dimensions      [1 1 -2 0 0 0 0];

internalField   nonuniform List<vector> 
132
(
(0.00241847 -3.49407e-06 -3.0962e-05)
(0.00244884 -2.48977e-06 -2.62947e-05)
(0.00241394 -1.89349e-06 -2.17766e-05)
(0.00243785 -1.06929e-06 -1.73908e-05)
(0.00242092 -3.52692e-07 -1.33906e-05)
(0.00243245 1.10576e-06 -9.52395e-06)
(0.00235427 1.46506e-06 -9.53675e-06)
(0.00231921 2.37248e-06 -1.01125e-05)
(0.00224601 4.40448e-06 -1.76974e-05)
(0.00241562 -1.15164e-06 -3.1799e-05)
(0.00246532 -1.21662e-06 -2.77602e-05)
(0.00241987 -1.23159e-06 -2.3655e-05)
(0.00243475 -4.49674e-07 -1.99812e-05)
(0.00240903 1.20269e-06 -1.70167e-05)
(0.00242011 3.43023e-06 -1.4311e-05)
(0.00236189 8.85563e-06 -1.55828e-05)
(0.00233583 1.31917e-05 -1.67502e-05)
(0.00225375 2.57686e-05 -2.42093e-05)
(0.00242119 4.51732e-07 -3.39316e-05)
(0.00246662 -7.11221e-07 -3.05147e-05)
(0.00243122 -9.58695e-07 -2.71608e-05)
(0.00245002 -4.39521e-07 -2.43885e-05)
(0.00242951 2.45488e-06 -2.30155e-05)
(0.00245776 4.37282e-06 -2.19728e-05)
(0.00238977 1.28355e-05 -2.45069e-05)
(0.00236147 1.85543e-05 -2.67548e-05)
(0.0022563 3.61552e-05 -3.77061e-05)
(0.00240473 7.77395e-08 -3.5271e-05)
(0.00242072 -1.53963e-06 -3.18227e-05)
(0.00240774 -2.16465e-06 -2.91262e-05)
(0.00240628 -1.49726e-06 -2.6215e-05)
(0.00240784 5.53021e-07 -2.60133e-05)
(0.00241599 4.42345e-06 -2.46645e-05)
(0.00235994 1.17501e-05 -2.85981e-05)
(0.0023384 2.0427e-05 -3.04726e-05)
(0.00223545 2.94651e-05 -4.17881e-05)
(0.00238447 -3.67337e-06 -1.65768e-05)
(0.00240974 -3.22995e-06 -1.22204e-05)
(0.00237701 -2.55429e-06 -8.16393e-06)
(0.0023866 -1.74057e-06 -3.18339e-06)
(0.00233284 -1.25026e-06 4.48752e-07)
(0.00231317 5.14615e-07 5.59e-06)
(0.00222845 -8.94345e-07 9.20283e-06)
(0.00238407 -2.49288e-06 -2.58429e-05)
(0.00242691 -3.08067e-06 -2.2559e-05)
(0.00238838 -3.01618e-06 -1.91639e-05)
(0.00240932 -2.65948e-06 -1.56425e-05)
(0.00238443 -1.42164e-06 -1.22073e-05)
(0.00238677 6.18116e-07 -8.57537e-06)
(0.00232735 3.4055e-06 -6.30793e-06)
(0.00231164 8.32071e-06 -2.7832e-06)
(0.00222453 1.36372e-05 -1.72018e-06)
(0.00239586 -9.93822e-07 -2.78046e-05)
(0.00243415 -2.89113e-06 -2.49945e-05)
(0.0023953 -2.98652e-06 -2.1983e-05)
(0.00240856 -2.87381e-06 -1.89127e-05)
(0.00239239 -1.02355e-06 -1.63611e-05)
(0.00240736 1.32955e-06 -1.35815e-05)
(0.00234539 5.7955e-06 -1.24679e-05)
(0.00231177 1.11962e-05 -1.06969e-05)
(0.00222185 1.9563e-05 -1.06983e-05)
(0.0023731 -9.12718e-07 -2.90934e-05)
(0.00239133 -3.06836e-06 -2.62859e-05)
(0.00236615 -3.50308e-06 -2.37084e-05)
(0.0023781 -3.60596e-06 -2.08834e-05)
(0.00235451 -1.81668e-06 -1.85922e-05)
(0.00235624 1.02297e-06 -1.65882e-05)
(0.00230761 5.60516e-06 -1.64072e-05)
(0.00227781 1.1407e-05 -1.53118e-05)
(0.00219466 1.63339e-05 -1.70837e-05)
(0.00236419 -5.95061e-06 -4.73159e-06)
(0.00237757 -5.72952e-06 2.78139e-07)
(0.00233396 -6.39504e-06 6.84328e-06)
(0.00231688 -6.41479e-06 1.3897e-05)
(0.00222131 -7.76827e-06 2.89461e-05)
(0.00238787 -3.63041e-06 -2.08654e-05)
(0.00241826 -4.2591e-06 -1.85397e-05)
(0.00237823 -4.90854e-06 -1.58604e-05)
(0.00239631 -5.23748e-06 -1.28551e-05)
(0.00237141 -4.91816e-06 -9.33139e-06)
(0.00238094 -4.38804e-06 -5.37244e-06)
(0.00232848 -2.45732e-06 -6.24958e-07)
(0.00231866 -5.00511e-07 5.08294e-06)
(0.00222304 8.62656e-06 1.38191e-05)
(0.00239487 -1.54291e-06 -2.25613e-05)
(0.00242063 -3.22849e-06 -2.05064e-05)
(0.00239111 -4.07588e-06 -1.82606e-05)
(0.00241492 -4.83424e-06 -1.59593e-05)
(0.0023895 -4.00076e-06 -1.28056e-05)
(0.00240172 -3.89623e-06 -1.01755e-05)
(0.00234393 -9.58087e-09 -5.8011e-06)
(0.00232781 1.5973e-06 -2.52396e-06)
(0.00222105 1.26635e-05 5.31923e-06)
(0.00236171 -1.38244e-06 -2.35988e-05)
(0.00237629 -3.44728e-06 -2.13301e-05)
(0.00235703 -4.65869e-06 -1.94081e-05)
(0.00238073 -5.52048e-06 -1.70427e-05)
(0.00235589 -5.28494e-06 -1.4829e-05)
(0.002368 -4.02018e-06 -1.26592e-05)
(0.00231438 -1.46253e-06 -9.56973e-06)
(0.00228332 2.68406e-06 -6.81556e-06)
(0.00219224 5.94067e-06 -1.23904e-06)
(0.00230912 -1.10797e-05 9.46892e-06)
(0.00230582 -1.0389e-05 1.8091e-05)
(0.00220348 -1.53323e-05 3.2084e-05)
(0.00235869 -4.65678e-06 -1.84193e-05)
(0.0023752 -5.54407e-06 -1.67683e-05)
(0.00235259 -6.44861e-06 -1.45824e-05)
(0.00237439 -7.10839e-06 -1.23979e-05)
(0.00233576 -7.35389e-06 -8.81149e-06)
(0.00233483 -6.97252e-06 -5.35027e-06)
(0.00229397 -6.43334e-06 4.54271e-08)
(0.0022767 -3.86902e-06 5.5192e-06)
(0.00218955 -2.00042e-06 1.38986e-05)
(0.00235529 -2.16583e-06 -2.04664e-05)
(0.00236385 -3.80672e-06 -1.89925e-05)
(0.00235175 -4.87103e-06 -1.76374e-05)
(0.00238498 -5.79845e-06 -1.63547e-05)
(0.00234837 -5.73085e-06 -1.40765e-05)
(0.00233651 -5.32682e-06 -1.08383e-05)
(0.0022971 -3.49774e-06 -7.99181e-06)
(0.00228164 -1.85562e-06 -2.90942e-06)
(0.00219146 2.00441e-06 4.97658e-07)
(0.00233505 -1.9013e-06 -2.17698e-05)
(0.00235161 -3.78862e-06 -2.02182e-05)
(0.00233662 -5.21295e-06 -1.89313e-05)
(0.00236967 -6.3198e-06 -1.77619e-05)
(0.0023433 -6.80768e-06 -1.64209e-05)
(0.0023181 -5.32141e-06 -1.32635e-05)
(0.00227298 -4.04382e-06 -1.16752e-05)
(0.00224947 -9.42781e-07 -7.29441e-06)
(0.00217338 -2.49851e-06 -9.31232e-06)
)
;

boundaryField
{
    inlet
    {
        type            zeroGradient;
    }
    outlet
    {
        type            zeroGradient;
    }
    wall
    {
        type            zeroGradient;
    }
    procBoundary7to0
    {
        type            processor;
        value           uniform (0.00240478 -4.43761e-06 -3.57367e-05);
    }
    procBoundary7to1
    {
        type            processor;
        value           uniform (0.00241638 -5.96262e-06 -3.04993e-05);
    }
    procBoundary7to3
    {
        type            processor;
        value           nonuniform List<vector> 
36
(
(0.00245971 -3.56016e-06 -3.68146e-05)
(0.00250093 -2.56079e-06 -3.14176e-05)
(0.00246977 -1.67954e-06 -2.65893e-05)
(0.0024941 -9.61791e-07 -2.19349e-05)
(0.00244892 -2.03991e-07 -1.8819e-05)
(0.00246201 6.22928e-07 -1.6026e-05)
(0.0024053 1.57295e-06 -1.98197e-05)
(0.00237778 3.90778e-06 -2.44863e-05)
(0.00229388 2.4331e-06 -4.27107e-05)
(0.00245952 -8.52214e-07 -3.70386e-05)
(0.00248358 -9.53032e-07 -3.15561e-05)
(0.00245937 -4.96117e-07 -2.71944e-05)
(0.00245745 4.62997e-07 -2.31364e-05)
(0.00243094 2.47216e-06 -2.04331e-05)
(0.00245857 6.22061e-06 -1.8644e-05)
(0.00240397 1.0999e-05 -2.28201e-05)
(0.00238425 1.94374e-05 -2.92536e-05)
(0.00228619 2.73108e-05 -4.49436e-05)
(0.00246674 9.20688e-07 -3.87744e-05)
(0.00250612 -1.97434e-07 -3.42718e-05)
(0.00247483 -3.07826e-07 -2.9964e-05)
(0.00248437 5.60332e-07 -2.63895e-05)
(0.00246142 3.732e-06 -2.48455e-05)
(0.00249182 8.76961e-06 -2.50974e-05)
(0.00243647 1.76611e-05 -3.08169e-05)
(0.00241053 3.00005e-05 -4.10352e-05)
(0.0023008 4.8494e-05 -6.15701e-05)
(0.00243714 9.41383e-07 -3.95183e-05)
(0.00244749 -7.27509e-07 -3.47583e-05)
(0.00243632 -1.37455e-06 -3.12938e-05)
(0.00245596 -9.03229e-07 -2.83898e-05)
(0.00245334 2.14255e-06 -2.81542e-05)
(0.00246972 7.19353e-06 -2.85809e-05)
(0.002406 1.72582e-05 -3.58113e-05)
(0.00239551 3.02724e-05 -4.75663e-05)
(0.00229463 4.5007e-05 -7.01359e-05)
)
;
    }
    procBoundary7to5
    {
        type            processor;
        value           nonuniform List<vector> 
44
(
(0.00245064 -3.53117e-06 -2.5525e-05)
(0.00241437 -2.36765e-06 -2.064e-05)
(0.00243969 -1.13698e-06 -1.60097e-05)
(0.00240214 -1.16022e-06 -1.20057e-05)
(0.00240125 -1.35733e-06 -7.93798e-06)
(0.00235162 -3.17106e-06 -6.52459e-06)
(0.00232244 -5.6019e-06 -6.48039e-06)
(0.00224842 -1.06601e-05 -1.14298e-05)
(0.00239357 -4.69572e-06 -2.43403e-05)
(0.00240308 -4.16891e-06 -2.05226e-05)
(0.00239225 -4.04555e-06 -1.46383e-05)
(0.00241919 -2.98323e-06 -9.87275e-06)
(0.0023801 -3.04634e-06 -5.33706e-06)
(0.00239226 -3.31364e-06 2.18231e-07)
(0.00233602 -5.69364e-06 5.3213e-06)
(0.00231633 -8.3225e-06 1.18269e-05)
(0.00223422 -1.56736e-05 1.74516e-05)
(0.00239357 -4.69572e-06 -2.43403e-05)
(0.00240308 -4.16891e-06 -2.05226e-05)
(0.00240308 -4.16891e-06 -2.05226e-05)
(0.00239072 -6.13587e-06 -1.27533e-05)
(0.0024109 -6.0693e-06 -9.17497e-06)
(0.00239621 -6.1667e-06 -9.75724e-07)
(0.00240222 -6.4645e-06 4.82432e-06)
(0.00235196 -9.07809e-06 1.26302e-05)
(0.00233977 -1.27971e-05 2.3886e-05)
(0.00224826 -2.16055e-05 4.14275e-05)
(0.00237879 -6.21979e-06 -1.8955e-05)
(0.00242643 -6.0295e-06 -1.6059e-05)
(0.00239072 -6.13587e-06 -1.27533e-05)
(0.0024109 -6.0693e-06 -9.17497e-06)
(0.0024109 -6.0693e-06 -9.17497e-06)
(0.00236319 -9.84812e-06 -3.16152e-06)
(0.00235203 -9.35578e-06 1.72715e-06)
(0.00233287 -1.18075e-05 1.57045e-05)
(0.00232143 -1.40118e-05 2.42473e-05)
(0.00222959 -2.31268e-05 4.5373e-05)
(0.00235039 -7.41621e-06 -1.63112e-05)
(0.0023778 -7.62189e-06 -1.38912e-05)
(0.00236244 -8.0967e-06 -1.11239e-05)
(0.00237881 -8.54596e-06 -7.95218e-06)
(0.00236319 -9.84812e-06 -3.16152e-06)
(0.00235203 -9.35578e-06 1.72715e-06)
(0.00235203 -9.35578e-06 1.72715e-06)
)
;
    }
    procBoundary7to6
    {
        type            processor;
        value           nonuniform List<vector> 
12
(
(0.00243353 -3.24461e-07 -3.66225e-05)
(0.00245131 2.62543e-06 -3.84629e-05)
(0.00240637 2.52199e-06 -3.88839e-05)
(0.00242062 -1.72826e-06 -2.95551e-05)
(0.00243358 9.17255e-07 -3.13022e-05)
(0.00240174 1.58855e-06 -3.22076e-05)
(0.0024129 -2.55354e-06 -2.31836e-05)
(0.00242888 1.05476e-06 -2.44169e-05)
(0.0023879 1.33887e-06 -2.5571e-05)
(0.00237095 -3.49576e-06 -2.00634e-05)
(0.00238271 -5.64832e-08 -2.18687e-05)
(0.00236706 6.5713e-07 -2.32638e-05)
)
;
    }
}


// ************************************************************************* //
