/*--------------------------------*- C++ -*----------------------------------*\
| =========                 |                                                 |
| \\      /  F ield         | OpenFOAM: The Open Source CFD Toolbox           |
|  \\    /   O peration     | Version:  4.x                                   |
|   \\  /    A nd           | Web:      www.OpenFOAM.org                      |
|    \\/     M anipulation  |                                                 |
\*---------------------------------------------------------------------------*/
FoamFile
{
    version     2.0;
    format      ascii;
    class       volScalarField;
    location    "57.5";
    object      Ksl;
}
// * * * * * * * * * * * * * * * * * * * * * * * * * * * * * * * * * * * * * //

dimensions      [1 -3 -1 0 0 0 0];

internalField   nonuniform List<scalar> 
132
(
51508.1
3703.58
70454.5
3685.86
235215
3725.23
576376
4102.28
24160
597888
3792.52
1e+10
3835.11
147231
3955.6
22152.8
4223.35
7047.94
11465
3338.82
11446.7
3161.78
11336.8
2972.07
10943.6
2639.6
8281.12
6441.56
3008.8
6544.99
2891.41
7045.43
2793.44
8449.43
2562.81
9385.41
1e+10
3833.14
1e+10
3853.59
1e+10
4162.68
17130.3
1e+10
3996.71
1e+10
3904.39
1e+10
3807.58
1e+10
3734.43
27208.5
9.95957e+09
3846.85
1e+10
3950.9
1e+10
4312.76
1e+10
5343.92
29156.2
13047.7
3533.27
27441.6
3679.9
3.60052e+09
4063.57
1e+10
5012.36
35892.7
42321.7
3379.96
21131.7
3450.54
6705.4
272624
3747.15
1e+10
3739.34
645317
3780.07
35060.9
3967.51
7992.7
14039.7
3397.85
13907.7
3162.86
12185.7
2811.32
9893.83
2296.73
6616.84
6325.99
3046.88
6410.47
2947.77
6726.51
2736.82
7502.55
2282.23
8892.16
8171.08
2405.39
7846.34
9229.89
3338.26
10601.7
3361.78
12936.5
3422.71
18440.7
3596.46
26130.7
6633.18
3080.32
6920.54
3056.89
7740.44
2928.12
9330.99
2730.9
14005.3
5186.85
2903.87
5311.27
2928.46
5603.87
2904.42
5732.62
3026.87
5141.95
)
;

boundaryField
{
    inlet
    {
        type            zeroGradient;
    }
    outlet
    {
        type            zeroGradient;
    }
    wall
    {
        type            zeroGradient;
    }
    procBoundary7to0
    {
        type            processor;
        value           uniform 3710.78;
    }
    procBoundary7to1
    {
        type            processor;
        value           uniform 1e+10;
    }
    procBoundary7to3
    {
        type            processor;
        value           nonuniform List<scalar> 
36
(
27215
3628.56
32601.3
3560.76
28326.5
3541.16
20136.3
3696.6
7852.19
1e+10
4019.99
1e+10
4018.84
1e+10
4090.32
1e+10
4580.41
26269.3
131305
3711.71
1e+10
3625.87
87985.3
3534.2
18970.7
3530.61
6149.23
7752.83
3233.9
8512.96
3192.57
10076.4
3093.41
12174.6
2639.85
11555.9
)
;
    }
    procBoundary7to5
    {
        type            processor;
        value           nonuniform List<scalar> 
44
(
4183.22
1e+10
4227.97
1e+10
4298.94
1e+10
4769.27
14419.1
1e+10
3835.01
1e+10
3706.57
210233
3601.38
36599
3675.47
13267.7
1e+10
3835.01
3835.01
71060.2
3478.32
1e+10
3897.92
51760.2
4199.55
8163.69
48122.4
3586.67
71060.2
3478.32
3478.32
7903.62
2763.31
7902.5
2377.47
8401.93
7215.1
3094.62
7416.86
2974.01
7903.62
2763.31
2763.31
)
;
    }
    procBoundary7to6
    {
        type            processor;
        value           nonuniform List<scalar> 
12
(
3798.17
3476.19
3123.03
4057.05
3817.84
3477.72
3771.09
3546.78
3157.03
3356.67
3175.97
2974.15
)
;
    }
}


// ************************************************************************* //
