/*--------------------------------*- C++ -*----------------------------------*\
| =========                 |                                                 |
| \\      /  F ield         | OpenFOAM: The Open Source CFD Toolbox           |
|  \\    /   O peration     | Version:  4.x                                   |
|   \\  /    A nd           | Web:      www.OpenFOAM.org                      |
|    \\/     M anipulation  |                                                 |
\*---------------------------------------------------------------------------*/
FoamFile
{
    version     2.0;
    format      ascii;
    class       surfaceScalarField;
    location    "57.5";
    object      phi;
}
// * * * * * * * * * * * * * * * * * * * * * * * * * * * * * * * * * * * * * //

dimensions      [0 3 -1 0 0 0 0];

internalField   nonuniform List<scalar> 
308
(
5.7361e-06
4.56149e-08
5.75e-06
1.08989e-07
5.59977e-06
5.70647e-08
-7.21089e-08
5.55815e-06
1.09767e-07
8.91186e-08
5.26096e-06
5.90604e-08
-2.9295e-08
5.38385e-06
1.07298e-08
2.80947e-07
4.50539e-06
4.04499e-07
-1.45964e-08
5.29535e-06
-7.76178e-07
6.88936e-07
2.10171e-06
-8.33497e-08
5.2861e-06
1.73515e-07
-4.51532e-09
5.34266e-06
1.33771e-07
-2.81132e-08
5.16506e-06
2.34662e-07
-1.14789e-12
5.40532e-06
-6.35092e-09
3.77224e-08
5.02873e-06
4.37918e-07
-1.53452e-08
5.83428e-06
-4.75684e-07
1.86196e-07
5.13037e-06
1.11056e-06
-5.49175e-08
6.3146e-06
-1.55802e-06
3.59676e-07
3.51853e-06
1.41537e-07
7.76954e-06
7.10344e-08
-1.33935e-07
7.8735e-06
2.65615e-08
-6.26019e-08
8.01125e-06
9.91971e-08
-2.16394e-07
8.11334e-06
-1.1568e-07
-3.70215e-08
8.2861e-06
2.30622e-07
-3.60798e-07
8.31238e-06
-4.49156e-07
7.09565e-08
8.60242e-06
5.35319e-07
-5.95426e-07
8.38891e-06
-9.95878e-07
4.77586e-07
1.55287e-06
-8.78398e-07
9.70619e-06
-3.54926e-07
9.74289e-06
-2.74443e-07
9.81002e-06
-4.11125e-07
9.71562e-06
-1.6551e-07
9.74408e-06
-4.84059e-07
9.29008e-06
1.85236e-07
9.48525e-06
-8.11062e-07
8.70678e-06
6.9032e-07
-1.49337e-06
5.0676e-06
-1.47436e-12
5.1408e-06
-8.31362e-08
4.9617e-06
-1.27689e-12
1.23869e-07
5.04665e-06
8.06085e-08
1.26444e-07
4.41344e-06
-9.34045e-13
4.23621e-07
5.55507e-06
5.65542e-07
-3.05659e-07
-3.28139e-07
2.35005e-06
4.91708e-06
9.92128e-13
8.82474e-09
4.97759e-06
-1.7418e-07
-9.01595e-09
4.97759e-06
1.30327e-12
2.02699e-12
5.04928e-06
-1.30393e-07
1.32885e-08
5.02731e-06
1.10132e-12
6.6193e-09
5.11028e-06
1.4557e-07
3.82634e-08
4.94623e-06
7.20394e-13
1.09134e-07
5.74346e-06
1.757e-07
-4.77133e-08
-2.02639e-07
4.08639e-07
5.13697e-06
-2.16211e-08
3.12238e-08
5.1997e-06
-3.07888e-07
8.37649e-09
4.94121e-06
-1.47698e-08
5.68681e-08
5.01535e-06
-2.8472e-07
4.31683e-08
4.45585e-06
1.33556e-13
1.987e-07
4.5401e-06
5.72798e-08
7.50001e-08
3.4449e-06
-5.50426e-14
4.99766e-07
4.19337e-06
6.56683e-08
-1.60845e-07
-7.82856e-08
1.63399e-06
6.98691e-06
-8.68163e-08
6.31589e-06
8.8684e-08
5.91113e-06
-2.11287e-08
5.31962e-06
1.41278e-07
4.67813e-06
1.57424e-07
4.76339e-06
1.57255e-07
3.63219e-06
3.20144e-07
4.2661e-06
1.22079e-07
1.47483e-06
6.04819e-06
-1.93336e-08
6.56715e-06
-6.4416e-08
6.09251e-06
1.02271e-07
7.20646e-07
7.12912e-06
-5.00903e-07
-7.51505e-07
1.31508e-06
3.20747e-06
5.2712e-06
7.38453e-08
2.72345e-08
5.28951e-06
7.80113e-08
-4.16973e-08
5.18347e-06
9.74896e-08
-1.14679e-09
5.32152e-06
-5.48156e-08
-7.11303e-08
5.04796e-06
2.26299e-07
3.45422e-08
5.68756e-06
-4.18434e-07
-2.47313e-07
5.08813e-06
6.84326e-07
1.265e-07
6.45169e-06
-1.33617e-06
-5.76006e-07
3.09763e-06
4.78083e-07
7.16425e-06
4.07211e-08
-8.11778e-09
7.28717e-06
5.86235e-09
-4.23926e-08
7.54155e-06
-1.50664e-08
-8.49605e-08
7.85497e-06
-1.43831e-07
-1.81235e-07
8.3715e-06
-1.74592e-09
-8.97904e-08
8.75262e-06
-4.39515e-07
-2.85035e-07
9.792e-06
1.86414e-07
-4.17021e-08
9.61509e-06
-9.02389e-07
-4.17717e-07
1.34713e-06
9.27335e-07
9.44173e-06
-5.19204e-08
9.48228e-06
5.39965e-08
9.52993e-06
-8.3845e-08
9.51966e-06
7.7207e-09
9.82047e-06
-1.45133e-07
9.60854e-06
-7.03311e-08
1.0482e-05
-3.66929e-07
9.66951e-06
3.22087e-08
3.94894e-09
9.84564e-06
-8.7638e-07
9.29869e-06
3.14254e-07
-1.64781e-06
7.87951e-06
-2.2997e-08
7.70561e-06
-2.11925e-08
7.47141e-06
-5.40818e-08
7.28078e-06
-7.26133e-08
6.95447e-06
-1.03837e-07
6.65068e-06
-9.41693e-08
6.0111e-06
-1.10298e-07
5.83539e-06
-8.60387e-08
-1.71778e-07
9.18189e-06
-3.35347e-08
9.15855e-06
-4.02427e-08
9.0847e-06
-6.51937e-08
8.9069e-06
-7.60497e-08
8.86084e-06
-1.47569e-07
8.50252e-06
-2.08797e-08
8.61069e-06
-2.6017e-07
8.00705e-06
9.98858e-08
-8.44008e-07
1.03206e-05
1.03344e-05
1.01853e-05
1.0117e-05
9.82431e-06
9.7331e-06
9.106e-06
9.2381e-06
)
;

boundaryField
{
    inlet
    {
        type            calculated;
        value           nonuniform 0();
    }
    outlet
    {
        type            calculated;
        value           nonuniform List<scalar> 
16
(
1.57615e-06
4.79684e-06
9.02476e-06
9.21349e-06
2.64728e-06
5.35086e-06
1.55663e-06
1.21961e-06
4.36083e-06
4.5997e-06
1.20722e-05
1.24875e-05
1.24751e-05
4.83744e-06
9.60661e-06
8.39804e-06
)
;
    }
    wall
    {
        type            calculated;
        value           nonuniform List<scalar> 
66
(
0
0
0
0
0
0
0
0
0
0
0
0
0
0
0
0
0
0
0
0
0
0
0
0
0
0
0
0
0
-2.46519e-32
0
0
1.2326e-32
0
0
0
0
0
0
0
0
0
0
0
0
0
1.2326e-32
0
0
-3.9443e-31
0
0
1.54074e-33
0
0
0
-1.2326e-32
0
0
0
0
0
0
0
0
0
)
;
    }
    procBoundary7to0
    {
        type            processor;
        value           uniform -5.87335e-06;
    }
    procBoundary7to1
    {
        type            processor;
        value           uniform -4.29947e-08;
    }
    procBoundary7to3
    {
        type            processor;
        value           nonuniform List<scalar> 
36
(
1.9617e-07
6.42589e-08
2.23984e-07
-2.1788e-08
2.91617e-07
-3.4375e-07
5.017e-07
-1.23032e-06
2.01967e-06
3.49871e-09
-5.32218e-08
-1.09587e-12
-1.61862e-07
1.30802e-08
-5.05338e-07
5.27703e-08
-7.62071e-07
-4.06001e-08
1.40097e-07
6.58532e-08
2.14105e-07
4.42616e-08
3.95336e-07
-1.23759e-07
8.80629e-07
-8.2622e-07
2.20821e-06
3.49971e-07
2.643e-07
4.43192e-07
1.44233e-07
6.86215e-07
-1.80385e-07
1.15121e-06
-9.07729e-07
2.53953e-06
)
;
    }
    procBoundary7to5
    {
        type            processor;
        value           nonuniform List<scalar> 
44
(
-1.62408e-07
-5.87154e-08
-1.35471e-07
-2.41953e-08
-7.08142e-08
-1.31478e-08
5.27601e-07
-3.18829e-07
-6.15404e-08
-2.47346e-08
1.08964e-12
2.30536e-08
2.59418e-08
-1.10631e-08
1.94997e-07
-7.1257e-07
8.02526e-07
1.14894e-12
-5.18163e-06
9.4566e-08
4.19127e-08
7.60036e-08
1.85645e-08
-1.6422e-07
7.53389e-08
-8.98547e-08
5.95797e-07
1.5343e-08
-6.36484e-08
9.70093e-09
-6.12428e-06
1.18997e-09
2.00735e-07
-1.63882e-07
8.94112e-07
-5.18811e-07
1.67892e-06
1.88042e-07
1.53393e-07
2.87129e-07
1.92114e-07
4.64688e-07
-9.14273e-06
1.50647e-07
)
;
    }
    procBoundary7to6
    {
        type            processor;
        value           nonuniform List<scalar> 
12
(
-5.41299e-06
-7.67322e-06
-9.6302e-06
-4.93042e-06
-5.28051e-06
-7.27664e-06
-5.37879e-06
-7.09178e-06
-9.43591e-06
-8.01732e-06
-9.17947e-06
-1.04061e-05
)
;
    }
}


// ************************************************************************* //
