/*--------------------------------*- C++ -*----------------------------------*\
| =========                 |                                                 |
| \\      /  F ield         | OpenFOAM: The Open Source CFD Toolbox           |
|  \\    /   O peration     | Version:  4.x                                   |
|   \\  /    A nd           | Web:      www.OpenFOAM.org                      |
|    \\/     M anipulation  |                                                 |
\*---------------------------------------------------------------------------*/
FoamFile
{
    version     2.0;
    format      ascii;
    class       volScalarField;
    location    "57.5";
    object      QPartFluidCoeff;
}
// * * * * * * * * * * * * * * * * * * * * * * * * * * * * * * * * * * * * * //

dimensions      [1 -1 -3 -1 0 0 0];

internalField   nonuniform List<scalar> 
132
(
-3.40058e+07
-3.06554e+07
-2.16729e+07
-2.66712e+07
-3.81317e+07
-4.19059e+07
-2.67523e+07
-2.18503e+07
-2.05588e+07
-2.50475e+07
-3.82413e+07
-2.48879e+07
-2.73127e+07
-2.79938e+07
-2.3223e+07
-2.628e+07
-2.59131e+07
-2.25321e+07
-1.78611e+07
-3.15979e+07
-2.3347e+07
-3.01307e+07
-2.8154e+07
-3.52738e+07
-2.89178e+07
-3.06717e+07
-2.3134e+07
-2.36055e+07
-2.51508e+07
-3.00123e+07
-1.99615e+07
-2.65162e+07
-2.68942e+07
-2.67567e+07
-2.3517e+07
-1.21322e+07
-2.18712e+07
-2.88197e+07
-2.22877e+07
-2.73804e+07
-2.94082e+07
-3.29363e+07
-2.01608e+07
-1.28635e+07
-3.36836e+07
-2.44947e+07
-2.96125e+07
-2.89229e+07
-2.77798e+07
-1.9051e+07
-3.02531e+07
-1.53332e+07
-2.00764e+07
-3.38021e+07
-2.5064e+07
-2.43795e+07
-2.73762e+07
-3.50538e+07
-3.18075e+07
-2.78574e+07
-2.06012e+07
-2.19055e+07
-2.86399e+07
-1.90468e+07
-2.6522e+07
-2.18747e+07
-2.18544e+07
-1.79697e+07
-2.78082e+07
-1.3382e+07
-1.67881e+07
-2.43403e+07
-2.74487e+07
-2.55906e+07
-1.55136e+07
-2.8589e+07
-3.05308e+07
-2.36246e+07
-2.17761e+07
-3.05662e+07
-2.95365e+07
-2.62197e+07
-3.59757e+07
-2.30387e+07
-2.74149e+07
-3.17903e+07
-2.90841e+07
-3.03034e+07
-3.13887e+07
-3.35664e+07
-3.02513e+07
-3.17765e+07
-2.32659e+07
-2.01698e+07
-2.44688e+07
-2.40993e+07
-2.71703e+07
-2.1705e+07
-2.3117e+07
-2.77164e+07
-2.82289e+07
-1.75553e+07
-1.97103e+07
-2.70691e+07
-1.63153e+07
-2.43165e+07
-2.33347e+07
-2.49944e+07
-2.87254e+07
-1.70265e+07
-1.62955e+07
-2.27541e+07
-2.53413e+07
-1.41591e+07
-2.11793e+07
-2.27089e+07
-2.12275e+07
-2.60669e+07
-2.45933e+07
-2.40595e+07
-2.53495e+07
-2.59437e+07
-1.99983e+07
-2.03052e+07
-2.76834e+07
-1.97277e+07
-2.39379e+07
-2.45882e+07
-2.35283e+07
-2.19571e+07
-2.3899e+07
-1.24046e+07
)
;

boundaryField
{
    inlet
    {
        type            calculated;
        value           nonuniform 0();
    }
    outlet
    {
        type            calculated;
        value           uniform 0;
    }
    wall
    {
        type            calculated;
        value           uniform 0;
    }
    procBoundary7to0
    {
        type            processor;
        value           uniform 198.483;
    }
    procBoundary7to1
    {
        type            processor;
        value           uniform 446.139;
    }
    procBoundary7to3
    {
        type            processor;
        value           nonuniform List<scalar> 
36
(
625.943
834.784
703.286
787.163
503.711
597.079
697.296
643.283
533.403
722.502
463.821
617.508
379.868
331.493
712.937
576.968
799.333
388.219
455.486
779.173
693.985
549.399
558.018
754.08
611.733
703.023
386.362
660.373
367.297
435.089
525.557
484.094
645.265
472.901
718.542
567.335
)
;
    }
    procBoundary7to5
    {
        type            processor;
        value           nonuniform List<scalar> 
44
(
752.828
465.14
659.289
445.317
402.122
540.333
473.416
503.359
784.226
383.859
551.587
689.183
468.187
637.298
576.012
613.579
338.93
784.226
383.859
383.859
723.62
755.856
859.606
700.143
681.525
829.303
618.709
394.955
888.471
723.62
755.856
755.856
790.514
647.558
530.148
618.463
482.942
545.996
491.348
557.013
511.454
790.514
647.558
647.558
)
;
    }
    procBoundary7to6
    {
        type            processor;
        value           nonuniform List<scalar> 
12
(
613.971
678.584
425.524
753.636
709.662
660.226
723.673
755.598
519.929
342.91
641.899
543.565
)
;
    }
}


// ************************************************************************* //
