/*--------------------------------*- C++ -*----------------------------------*\
| =========                 |                                                 |
| \\      /  F ield         | OpenFOAM: The Open Source CFD Toolbox           |
|  \\    /   O peration     | Version:  4.x                                   |
|   \\  /    A nd           | Web:      www.OpenFOAM.org                      |
|    \\/     M anipulation  |                                                 |
\*---------------------------------------------------------------------------*/
FoamFile
{
    version     2.0;
    format      ascii;
    class       volVectorField;
    location    "57.5";
    object      UsNext;
}
// * * * * * * * * * * * * * * * * * * * * * * * * * * * * * * * * * * * * * //

dimensions      [0 1 -1 0 0 0 0];

internalField   nonuniform List<vector> 
132
(
(1.19529e-09 -5.15465e-10 1.27663e-09)
(1.04912e-09 -1.01503e-09 2.2221e-09)
(-1.09505e-09 -1.67774e-09 3.01676e-09)
(-3.34447e-09 -1.26472e-09 2.19347e-09)
(-2.91728e-09 -6.30158e-10 1.27757e-09)
(-1.61047e-09 -1.31466e-10 6.13781e-10)
(-1.21997e-09 -1.68126e-10 6.69494e-11)
(-5.8235e-10 8.87285e-11 -6.57625e-11)
(1.05678e-10 1.14706e-10 8.33188e-11)
(1.12462e-09 -3.01629e-10 9.41167e-10)
(2.06487e-09 -7.33588e-10 1.80436e-09)
(-1.03239e-09 -2.07085e-09 1.09899e-09)
(-3.17115e-09 -9.04481e-10 1.78443e-09)
(-2.23433e-09 -6.51859e-10 9.93783e-10)
(-1.73491e-09 -5.51752e-10 5.38923e-10)
(-1.15034e-09 -3.42563e-10 2.51261e-10)
(-7.06238e-10 -1.4684e-10 1.73082e-10)
(-1.31075e-10 1.13783e-10 9.18038e-11)
(1.38386e-09 -4.47532e-11 8.34915e-10)
(1.33165e-09 6.04638e-11 1.56747e-09)
(-9.02675e-10 -2.94759e-10 1.23529e-09)
(-2.36688e-09 -1.13996e-10 1.13603e-09)
(-2.26585e-09 -4.96101e-10 7.99265e-10)
(-1.74597e-09 -4.92009e-10 3.22552e-10)
(-1.4159e-09 -2.855e-10 -9.27683e-12)
(-7.59847e-10 -2.19694e-10 -1.02648e-10)
(9.70775e-10 5.53913e-10 -7.63592e-11)
(1.53655e-09 1.52342e-10 3.21843e-10)
(2.46853e-09 2.48849e-10 6.2636e-10)
(-2.17472e-10 1.47903e-09 6.69741e-10)
(-2.62201e-09 1.34075e-09 6.49532e-10)
(-2.4841e-09 -2.54458e-10 4.89214e-10)
(-1.53159e-09 -1.74181e-10 1.44504e-10)
(-9.42483e-10 -2.81979e-10 -5.3805e-11)
(-4.46912e-10 -1.23776e-10 -2.55062e-10)
(6.4644e-10 2.37541e-10 -5.06201e-11)
(-8.4515e-10 -2.15811e-09 3.17897e-09)
(-3.12269e-09 -1.24913e-09 1.75537e-09)
(-2.52719e-09 -5.69651e-10 6.92759e-10)
(-1.717e-09 -2.97346e-10 3.48467e-10)
(-1.10076e-09 5.83501e-11 1.43014e-10)
(-4.28086e-10 2.64946e-10 9.05681e-11)
(1.86259e-10 4.13037e-10 5.80285e-10)
(8.80746e-10 -5.14491e-10 6.65765e-10)
(8.70023e-10 -1.00697e-09 1.484e-09)
(-7.51922e-10 -5.24787e-10 1.84627e-09)
(-2.40923e-09 6.08389e-11 8.53542e-10)
(-2.03108e-09 -3.58287e-10 5.23082e-10)
(-1.1501e-09 -3.43823e-10 4.69784e-10)
(-6.70145e-10 -9.92626e-12 1.87618e-10)
(-3.83193e-10 -1.39911e-11 3.9175e-10)
(-1.68886e-10 6.88828e-11 3.39952e-10)
(1.54496e-09 -2.52464e-10 3.72201e-10)
(1.94738e-09 -4.7954e-10 8.04416e-10)
(-3.55374e-10 4.24425e-10 1.47482e-09)
(-2.61711e-09 5.44738e-10 8.24891e-10)
(-1.79436e-09 -1.60361e-10 4.13617e-10)
(-1.05232e-09 -4.27165e-10 2.13558e-10)
(-7.36235e-10 -1.9111e-10 1.89746e-10)
(-3.75598e-10 -1.89684e-10 9.91825e-11)
(2.32319e-09 9.30598e-10 1.78292e-10)
(2.58239e-09 -1.37217e-11 -1.67206e-10)
(3.15125e-09 2.70701e-10 1.5392e-11)
(4.17412e-10 7.93442e-10 -3.63723e-10)
(-2.87598e-09 8.02958e-10 7.75699e-10)
(-1.54578e-09 -1.8182e-10 3.18938e-10)
(-8.77449e-10 -2.03694e-10 2.64981e-11)
(-3.79625e-10 -1.28958e-10 1.62611e-10)
(-2.89349e-10 -1.6894e-10 -4.82927e-11)
(9.10705e-10 3.1415e-10 -3.57865e-11)
(-2.65584e-09 -5.53902e-10 2.7019e-10)
(-1.9912e-09 -2.2241e-10 7.41877e-11)
(-1.17691e-09 1.85194e-10 1.0046e-10)
(-5.63227e-10 3.39358e-10 3.29937e-10)
(-3.38368e-13 4.18131e-10 7.50072e-10)
(1.07904e-09 -2.10615e-10 4.27265e-10)
(7.70904e-10 -7.50377e-10 1.44101e-09)
(-9.90813e-10 -5.82378e-11 2.66594e-09)
(-2.29914e-09 2.35895e-10 5.65712e-10)
(-2.17894e-09 -3.00175e-10 1.89927e-10)
(-1.53916e-09 -2.87957e-10 1.51256e-10)
(-8.33318e-10 1.50067e-10 1.83195e-10)
(-4.43391e-10 1.36317e-10 4.44089e-10)
(-7.44332e-11 -2.07924e-11 4.98192e-10)
(1.97558e-09 1.5849e-10 -1.69515e-10)
(3.37023e-09 -4.33324e-10 1.16106e-09)
(1.43394e-10 4.28864e-10 1.71363e-09)
(-1.93913e-09 4.87385e-10 7.16035e-10)
(-1.40186e-09 -4.42706e-11 2.0703e-10)
(-6.95408e-10 -2.24438e-10 -1.18509e-10)
(-1.76503e-10 -2.51679e-11 -4.41819e-11)
(3.25742e-10 -1.3158e-10 1.60011e-10)
(4.26124e-10 -2.28413e-10 1.34914e-11)
(1.96284e-09 -2.83411e-10 -4.6553e-10)
(2.4469e-09 3.18695e-10 1.5258e-10)
(-2.01831e-10 3.15038e-10 5.00625e-10)
(-2.30003e-09 2.3715e-10 5.25222e-10)
(-1.0148e-09 -5.63005e-11 1.68213e-10)
(1.15369e-10 -8.10968e-11 8.06403e-11)
(3.26698e-10 -2.39611e-10 1.37725e-10)
(3.64104e-10 -6.71958e-11 8.27658e-11)
(3.17293e-10 5.07641e-11 4.90528e-11)
(-8.47368e-10 2.03614e-11 -1.16945e-10)
(-3.74941e-10 2.61047e-10 3.17395e-10)
(-5.3482e-10 5.07151e-10 1.27687e-09)
(6.05096e-10 1.92978e-10 1.53941e-10)
(8.78526e-10 -3.98225e-11 7.5836e-10)
(-5.06156e-10 -7.46674e-10 1.16075e-09)
(-2.08076e-09 -2.08172e-10 3.14849e-10)
(-1.94675e-09 -4.11023e-10 1.53008e-10)
(-1.95484e-09 -5.37383e-10 4.86856e-11)
(-9.47527e-10 -3.66407e-11 -4.58955e-11)
(-2.59324e-10 -3.1694e-10 2.89538e-10)
(-3.61214e-10 -4.90901e-10 7.18984e-10)
(1.38432e-09 6.09073e-10 -2.15283e-10)
(1.70092e-09 1.25076e-10 2.82476e-10)
(1.76582e-10 -2.26492e-10 6.42792e-10)
(-1.41625e-09 1.15971e-10 4.54793e-10)
(-1.2935e-09 -1.0331e-10 9.76334e-11)
(-9.04905e-10 -2.87423e-10 -1.14449e-10)
(-3.71821e-10 -2.32116e-10 -3.57308e-10)
(7.26541e-10 -2.96982e-10 -9.37769e-11)
(7.27792e-10 -6.33539e-11 -2.05549e-10)
(8.39268e-10 -1.63206e-10 -2.09042e-10)
(1.64028e-09 1.22479e-10 1.49782e-10)
(2.37726e-10 6.90773e-11 3.76792e-10)
(-1.43814e-09 1.64489e-10 2.04952e-10)
(-6.62479e-10 -1.02551e-08 3.67744e-11)
(-2.25299e-10 -5.53776e-11 -7.15462e-11)
(2.02815e-10 -6.50366e-11 1.50216e-11)
(1.36564e-09 1.41481e-10 -2.53745e-11)
(-1.00454e-09 3.03838e-09 7.0587e-10)
)
;

boundaryField
{
    inlet
    {
        type            calculated;
        value           nonuniform 0();
    }
    outlet
    {
        type            calculated;
        value           nonuniform List<vector> 
16
(
(1.05678e-10 1.14706e-10 8.33188e-11)
(-1.31075e-10 1.13783e-10 9.18038e-11)
(9.70775e-10 5.53913e-10 -7.63592e-11)
(6.4644e-10 2.37541e-10 -5.06201e-11)
(1.86259e-10 4.13037e-10 5.80285e-10)
(-1.68886e-10 6.88828e-11 3.39952e-10)
(2.32319e-09 9.30598e-10 1.78292e-10)
(9.10705e-10 3.1415e-10 -3.57865e-11)
(-3.38368e-13 4.18131e-10 7.50072e-10)
(-7.44332e-11 -2.07924e-11 4.98192e-10)
(4.26124e-10 -2.28413e-10 1.34914e-11)
(3.17293e-10 5.07641e-11 4.90528e-11)
(-5.3482e-10 5.07151e-10 1.27687e-09)
(-3.61214e-10 -4.90901e-10 7.18984e-10)
(7.27792e-10 -6.33539e-11 -2.05549e-10)
(-1.00454e-09 3.03838e-09 7.0587e-10)
)
;
    }
    wall
    {
        type            calculated;
        value           nonuniform List<vector> 
66
(
(6.05096e-10 1.92978e-10 1.53941e-10)
(1.38432e-09 6.09073e-10 -2.15283e-10)
(8.39268e-10 -1.63206e-10 -2.09042e-10)
(8.78526e-10 -3.98225e-11 7.5836e-10)
(1.70092e-09 1.25076e-10 2.82476e-10)
(1.64028e-09 1.22479e-10 1.49782e-10)
(-5.06156e-10 -7.46674e-10 1.16075e-09)
(1.76582e-10 -2.26492e-10 6.42792e-10)
(2.37726e-10 6.90773e-11 3.76792e-10)
(-2.08076e-09 -2.08172e-10 3.14849e-10)
(-1.41625e-09 1.15971e-10 4.54793e-10)
(-1.43814e-09 1.64489e-10 2.04952e-10)
(-1.94675e-09 -4.11023e-10 1.53008e-10)
(-1.2935e-09 -1.0331e-10 9.76334e-11)
(-6.62479e-10 -1.02551e-08 3.67744e-11)
(-1.95484e-09 -5.37383e-10 4.86856e-11)
(-9.04905e-10 -2.87423e-10 -1.14449e-10)
(-2.25299e-10 -5.53776e-11 -7.15462e-11)
(-8.47368e-10 2.03614e-11 -1.16945e-10)
(-9.47527e-10 -3.66407e-11 -4.58955e-11)
(-3.71821e-10 -2.32116e-10 -3.57308e-10)
(2.02815e-10 -6.50366e-11 1.50216e-11)
(-3.74941e-10 2.61047e-10 3.17395e-10)
(-2.59324e-10 -3.1694e-10 2.89538e-10)
(7.26541e-10 -2.96982e-10 -9.37769e-11)
(1.36564e-09 1.41481e-10 -2.53745e-11)
(-5.3482e-10 5.07151e-10 1.27687e-09)
(-3.61214e-10 -4.90901e-10 7.18984e-10)
(7.27792e-10 -6.33539e-11 -2.05549e-10)
(-1.00454e-09 3.03838e-09 7.0587e-10)
(1.53655e-09 1.52342e-10 3.21843e-10)
(2.58239e-09 -1.37217e-11 -1.67206e-10)
(1.96284e-09 -2.83411e-10 -4.6553e-10)
(8.39268e-10 -1.63206e-10 -2.09042e-10)
(2.46853e-09 2.48849e-10 6.2636e-10)
(3.15125e-09 2.70701e-10 1.5392e-11)
(2.4469e-09 3.18695e-10 1.5258e-10)
(1.64028e-09 1.22479e-10 1.49782e-10)
(-2.17472e-10 1.47903e-09 6.69741e-10)
(4.17412e-10 7.93442e-10 -3.63723e-10)
(-2.01831e-10 3.15038e-10 5.00625e-10)
(2.37726e-10 6.90773e-11 3.76792e-10)
(-2.62201e-09 1.34075e-09 6.49532e-10)
(-2.87598e-09 8.02958e-10 7.75699e-10)
(-2.30003e-09 2.3715e-10 5.25222e-10)
(-1.43814e-09 1.64489e-10 2.04952e-10)
(-2.4841e-09 -2.54458e-10 4.89214e-10)
(-1.54578e-09 -1.8182e-10 3.18938e-10)
(-1.0148e-09 -5.63005e-11 1.68213e-10)
(-6.62479e-10 -1.02551e-08 3.67744e-11)
(-1.53159e-09 -1.74181e-10 1.44504e-10)
(-8.77449e-10 -2.03694e-10 2.64981e-11)
(1.15369e-10 -8.10968e-11 8.06403e-11)
(-2.25299e-10 -5.53776e-11 -7.15462e-11)
(-9.42483e-10 -2.81979e-10 -5.3805e-11)
(-3.79625e-10 -1.28958e-10 1.62611e-10)
(3.26698e-10 -2.39611e-10 1.37725e-10)
(2.02815e-10 -6.50366e-11 1.50216e-11)
(-4.46912e-10 -1.23776e-10 -2.55062e-10)
(-2.89349e-10 -1.6894e-10 -4.82927e-11)
(3.64104e-10 -6.71958e-11 8.27658e-11)
(1.36564e-09 1.41481e-10 -2.53745e-11)
(6.4644e-10 2.37541e-10 -5.06201e-11)
(9.10705e-10 3.1415e-10 -3.57865e-11)
(3.17293e-10 5.07641e-11 4.90528e-11)
(-1.00454e-09 3.03838e-09 7.0587e-10)
)
;
    }
    procBoundary7to0
    {
        type            processor;
        value           uniform (9.18504e-10 -5.90598e-10 6.61675e-10);
    }
    procBoundary7to1
    {
        type            processor;
        value           uniform (1.12794e-09 -7.17547e-10 1.33275e-09);
    }
    procBoundary7to3
    {
        type            processor;
        value           nonuniform List<vector> 
36
(
(1.36211e-09 -1.03938e-09 1.72315e-09)
(1.24422e-09 -1.19809e-09 3.20839e-09)
(-8.545e-10 -2.58837e-09 4.54037e-09)
(-5.0028e-09 -1.75944e-09 3.59978e-09)
(-3.93183e-09 -1.27536e-09 1.47587e-09)
(-2.40311e-09 -7.9697e-10 4.8788e-10)
(-1.60051e-09 -5.08585e-10 4.87847e-11)
(-3.2501e-10 -2.13588e-10 -1.1879e-10)
(2.08047e-10 -1.54482e-10 2.09549e-10)
(1.18962e-09 -8.58091e-10 1.29419e-09)
(1.2458e-09 -1.34358e-09 2.3644e-09)
(-1.03566e-09 -2.35964e-09 1.17237e-09)
(-3.5388e-09 -1.49322e-09 3.11774e-09)
(-3.17496e-09 -9.74997e-10 1.55186e-09)
(-2.76601e-09 -9.18765e-10 5.51032e-10)
(-1.63041e-09 -4.24534e-10 1.27566e-10)
(-7.23673e-10 -2.12313e-10 2.73627e-10)
(-4.32025e-11 -1.83809e-10 2.33979e-10)
(1.5424e-09 -4.88211e-10 9.37938e-10)
(1.5684e-09 -3.85542e-10 1.89539e-09)
(-1.68773e-09 -1.53599e-10 3.05289e-09)
(-4.26932e-09 -1.50037e-09 2.48221e-09)
(-3.39677e-09 -1.01278e-09 9.97752e-10)
(-2.557e-09 -7.41343e-10 4.34715e-10)
(-2.24769e-09 -5.29946e-10 1.24002e-10)
(-6.31806e-10 -1.49675e-11 -2.4266e-10)
(4.59493e-12 -1.83913e-10 -5.498e-10)
(1.20994e-09 -3.32213e-10 4.36787e-10)
(1.18665e-09 -1.20529e-10 1.5018e-09)
(-1.38246e-09 -4.1239e-10 3.65325e-09)
(-2.75063e-09 2.69147e-10 1.21409e-09)
(-2.8908e-09 -4.37334e-10 5.70035e-10)
(-1.62251e-09 -3.75839e-10 1.59066e-10)
(-1.15099e-09 -1.4727e-10 -1.53753e-10)
(-5.08712e-10 -2.6636e-10 -4.64239e-10)
(-2.1564e-11 -4.36094e-10 -1.28866e-09)
)
;
    }
    procBoundary7to5
    {
        type            processor;
        value           nonuniform List<vector> 
44
(
(6.28349e-10 -9.73519e-10 2.29143e-09)
(-1.04093e-09 -1.71859e-09 3.65097e-09)
(-2.61144e-09 -1.21319e-09 2.34878e-09)
(-2.52192e-09 -4.59945e-10 1.06801e-09)
(-1.88959e-09 -2.1267e-10 2.44798e-10)
(-1.18663e-09 -3.61132e-11 -6.37778e-11)
(-4.63736e-10 2.45952e-10 -2.10742e-10)
(2.84868e-12 3.4424e-10 7.02814e-11)
(1.08293e-09 -5.67986e-10 1.11271e-09)
(1.10625e-09 -1.52325e-09 2.2957e-09)
(-3.63725e-11 -2.23255e-09 3.78896e-09)
(-2.30998e-09 -1.65114e-09 2.27325e-09)
(-2.07389e-09 -6.27554e-10 8.33211e-10)
(-1.66808e-09 -2.4489e-10 1.71223e-10)
(-1.05701e-09 1.44863e-10 2.59399e-12)
(-5.13631e-10 4.27863e-10 -3.13124e-11)
(-6.69211e-11 4.29098e-10 2.05257e-10)
(1.08293e-09 -5.67986e-10 1.11271e-09)
(1.10625e-09 -1.52325e-09 2.2957e-09)
(1.10625e-09 -1.52325e-09 2.2957e-09)
(-3.67097e-10 -2.12424e-09 3.2935e-09)
(-3.54538e-09 -1.14318e-09 1.07458e-09)
(-2.16117e-09 -9.35994e-10 4.81396e-10)
(-1.74549e-09 -1.46371e-10 1.27961e-10)
(-1.16377e-09 1.8986e-10 -8.39559e-11)
(-6.39098e-10 6.81549e-10 -2.19078e-11)
(-2.99881e-10 9.97991e-10 2.05358e-10)
(1.60137e-09 -4.08725e-10 3.43863e-10)
(2.16555e-09 -1.26735e-09 1.6574e-09)
(-3.67097e-10 -2.12424e-09 3.2935e-09)
(-3.54538e-09 -1.14318e-09 1.07458e-09)
(-3.54538e-09 -1.14318e-09 1.07458e-09)
(-2.29715e-09 -5.00972e-10 7.36156e-11)
(-1.23301e-09 -1.91904e-10 -1.20352e-10)
(-7.83698e-10 1.27225e-10 -5.0876e-11)
(-4.99798e-10 5.7207e-10 1.28587e-10)
(-3.40392e-10 1.26376e-09 3.51911e-10)
(8.26011e-10 -2.90678e-10 9.6863e-11)
(2.31669e-09 -6.10646e-10 9.08611e-10)
(2.90624e-12 -3.51609e-09 1.74277e-09)
(-2.27827e-09 -9.59705e-10 1.07051e-09)
(-2.29715e-09 -5.00972e-10 7.36156e-11)
(-1.23301e-09 -1.91904e-10 -1.20352e-10)
(-1.23301e-09 -1.91904e-10 -1.20352e-10)
)
;
    }
    procBoundary7to6
    {
        type            processor;
        value           nonuniform List<vector> 
12
(
(8.7991e-10 -2.52874e-10 3.26883e-10)
(9.96748e-10 -1.26544e-10 2.37072e-10)
(4.82677e-10 -6.57713e-11 -9.49012e-12)
(6.73252e-10 -1.80212e-10 3.60217e-10)
(9.50918e-10 -9.98963e-11 1.22704e-10)
(1.12034e-09 -1.15066e-10 3.63035e-11)
(5.12509e-10 -1.9426e-12 2.64055e-10)
(8.67916e-10 1.64823e-10 1.47913e-12)
(3.7612e-10 -6.7866e-12 -1.81759e-10)
(1.13866e-10 -6.22663e-11 5.03458e-12)
(4.58834e-10 3.92087e-10 -9.2005e-11)
(5.11028e-10 8.69151e-11 -1.97975e-10)
)
;
    }
}


// ************************************************************************* //
