/*--------------------------------*- C++ -*----------------------------------*\
| =========                 |                                                 |
| \\      /  F ield         | OpenFOAM: The Open Source CFD Toolbox           |
|  \\    /   O peration     | Version:  4.x                                   |
|   \\  /    A nd           | Web:      www.OpenFOAM.org                      |
|    \\/     M anipulation  |                                                 |
\*---------------------------------------------------------------------------*/
FoamFile
{
    version     2.0;
    format      ascii;
    class       volScalarField;
    location    "18";
    object      KslPrev;
}
// * * * * * * * * * * * * * * * * * * * * * * * * * * * * * * * * * * * * * //

dimensions      [1 -3 -1 0 0 0 0];

internalField   nonuniform List<scalar> 
108
(
3447.41
7615.04
3466.06
7440.86
3464.72
7363.95
3426.22
7439.11
3345.73
3548.49
9507.94
3766.15
12849
3860.1
16916.1
3868.25
24157.7
3843.56
3588.5
10173.1
3862.06
14501.4
3939.67
19742.6
3936.5
34035.5
3912.21
3576.24
10027.8
3885.13
14259.8
3981.72
22585.8
4020.97
44768.5
3973.46
3430.21
7290.86
3395.24
6823.03
3363.82
6406.54
3265.37
6239.37
3178.82
3507.51
8759.49
3635.95
10570.7
3716.37
13126.8
3730.69
17615.8
3720.88
3540.42
9350.22
3763.81
12369.4
3834.96
15924.9
3783.85
19879
3703.44
3574.77
9792.29
3820.03
13450.4
3923.96
19030
3933.99
27953.1
3880.53
3377.63
6654.61
3219.35
5761.52
3148.99
5385.86
3075.5
5130.03
2959.33
3429.84
7378.12
3417.13
6793.82
3348.81
6473.62
3273.4
6264.11
3184.08
3484.16
7850.62
3515.76
7819.97
3487.72
7794.76
3404.8
7509.59
3304.42
3523.22
8423.33
3605.34
9607.26
3635.9
10221.4
3559.44
9820.11
3485.32
)
;

boundaryField
{
    inlet
    {
        type            zeroGradient;
    }
    outlet
    {
        type            zeroGradient;
    }
    wall
    {
        type            zeroGradient;
    }
    procBoundary4to0
    {
        type            processor;
        value           uniform 0;
    }
    procBoundary4to5
    {
        type            processor;
        value           uniform 0;
    }
    procBoundary4to6
    {
        type            processor;
        value           uniform 0;
    }
}


// ************************************************************************* //
