/*--------------------------------*- C++ -*----------------------------------*\
| =========                 |                                                 |
| \\      /  F ield         | OpenFOAM: The Open Source CFD Toolbox           |
|  \\    /   O peration     | Version:  4.x                                   |
|   \\  /    A nd           | Web:      www.OpenFOAM.org                      |
|    \\/     M anipulation  |                                                 |
\*---------------------------------------------------------------------------*/
FoamFile
{
    version     2.0;
    format      ascii;
    class       volVectorField;
    location    "18";
    object      UsPrev;
}
// * * * * * * * * * * * * * * * * * * * * * * * * * * * * * * * * * * * * * //

dimensions      [0 1 -1 0 0 0 0];

internalField   nonuniform List<vector> 
108
(
(1.62818e-08 -4.74738e-10 -4.29411e-09)
(3.14332e-08 1.3165e-09 -6.91948e-09)
(4.43405e-08 -1.21411e-08 -5.70267e-09)
(3.51903e-08 -1.27376e-08 -9.73336e-09)
(2.56779e-08 -2.66303e-08 -1.63022e-08)
(3.99594e-09 -1.82391e-08 -1.8325e-08)
(-3.58645e-08 -1.5596e-08 -1.69162e-08)
(-7.79936e-08 -6.85458e-09 -1.20083e-08)
(-6.94307e-08 1.03705e-08 -1.00201e-10)
(2.58058e-08 -2.15466e-09 -5.72097e-09)
(4.54205e-08 -7.93057e-09 -1.14791e-08)
(5.52259e-08 -1.80089e-08 -1.28938e-08)
(4.11826e-08 -1.94246e-08 -1.49509e-08)
(1.56514e-08 -3.40888e-08 -1.60434e-08)
(-1.92877e-08 -4.19334e-08 -3.36569e-08)
(-8.25172e-08 -3.26377e-08 -1.91373e-08)
(-1.09805e-07 -8.9955e-09 -2.31752e-08)
(-1.70147e-07 1.64143e-09 -1.01172e-08)
(2.82229e-08 -5.59022e-09 -7.67271e-09)
(5.29753e-08 -1.14037e-08 -1.5701e-08)
(5.58451e-08 -2.09955e-08 -1.99778e-08)
(3.68279e-08 -1.87425e-08 -1.44827e-08)
(5.26428e-09 -3.1986e-08 -2.03869e-08)
(-5.31903e-08 -4.65493e-08 -3.11993e-08)
(-9.93934e-08 -3.83228e-08 -3.30436e-08)
(-1.44336e-07 -2.76577e-08 -3.24411e-08)
(-1.85962e-07 -1.41073e-08 -2.94641e-08)
(2.66052e-08 -5.45686e-09 -8.34447e-09)
(4.89913e-08 -1.21248e-08 -1.25059e-08)
(5.56312e-08 -1.74406e-08 -1.69261e-08)
(3.73288e-08 -1.94668e-08 -1.42803e-08)
(-9.36261e-09 -3.08546e-08 -1.86402e-08)
(-8.34906e-08 -4.32921e-08 -2.75448e-08)
(-1.25759e-07 -3.48712e-08 -4.2963e-08)
(-1.78442e-07 -3.40919e-08 -2.83912e-08)
(-2.00349e-07 -5.74895e-09 -2.93163e-08)
(1.8954e-08 1.44264e-09 -3.51563e-09)
(3.0375e-08 -7.78079e-10 -5.38687e-09)
(3.78292e-08 -2.74801e-09 -3.15044e-09)
(3.36469e-08 -8.25483e-09 -6.07543e-09)
(1.78691e-08 -1.20374e-08 -2.98889e-09)
(-4.16598e-09 -1.06996e-08 -1.29878e-09)
(-2.43523e-08 -9.20376e-09 -5.73854e-09)
(-5.187e-08 -1.40739e-08 -8.95505e-09)
(-5.38221e-08 -2.84519e-09 -3.33715e-09)
(2.6332e-08 -1.80342e-09 -5.92294e-09)
(4.22068e-08 -6.0182e-09 -1.0134e-08)
(4.41357e-08 -6.35946e-09 -5.97956e-09)
(3.79222e-08 -1.42661e-08 -8.43043e-09)
(1.2729e-08 -1.63342e-08 -6.51009e-09)
(-1.02503e-08 -2.69038e-08 -5.97656e-09)
(-5.56829e-08 -3.29298e-08 -8.90566e-09)
(-7.81986e-08 -3.28291e-08 -1.94099e-08)
(-1.02721e-07 -2.2498e-09 -9.59227e-09)
(1.99169e-08 -2.62096e-09 -3.27475e-09)
(4.30885e-08 -6.3335e-09 -1.27907e-08)
(4.77497e-08 -8.90972e-09 -4.01252e-09)
(3.50514e-08 -1.22993e-08 -4.7041e-09)
(1.71097e-08 -1.9012e-08 -5.45347e-09)
(-2.75042e-08 -2.56719e-08 -1.38556e-08)
(-7.39729e-08 -2.90387e-08 -1.63871e-08)
(-1.17548e-07 -2.66717e-08 -1.46524e-08)
(-1.42153e-07 -1.75729e-08 -2.48015e-08)
(2.58878e-08 -2.77752e-09 -3.3066e-09)
(3.97256e-08 -7.62422e-09 -7.58356e-09)
(4.50077e-08 -1.1717e-08 -9.96479e-09)
(3.61696e-08 -1.35512e-08 -7.65638e-09)
(1.28831e-08 -1.61562e-08 -4.19271e-09)
(-5.13343e-08 -3.00222e-08 -8.74727e-09)
(-8.95195e-08 -4.59101e-08 -2.35424e-08)
(-1.27195e-07 -3.41084e-08 -2.17604e-08)
(-1.532e-07 -1.05634e-08 -4.46869e-08)
(1.52296e-08 -7.13472e-10 -8.96414e-10)
(2.66251e-08 -8.76801e-10 -2.19422e-09)
(3.18261e-08 -4.33179e-09 -2.7464e-09)
(1.78503e-08 -4.45215e-09 -3.47682e-09)
(6.91523e-09 -5.73532e-09 -8.4749e-10)
(-4.03703e-09 -6.57728e-09 2.16567e-09)
(-1.10595e-08 -5.30216e-09 2.71789e-09)
(-2.5353e-08 -4.75644e-09 -3.52332e-10)
(-2.79653e-08 -1.29317e-09 1.6866e-09)
(2.18398e-08 -3.38566e-10 -9.27249e-09)
(2.88617e-08 -2.77639e-09 -5.6003e-09)
(3.12467e-08 -7.43982e-09 -1.09204e-09)
(2.43288e-08 -6.44344e-09 2.08025e-10)
(1.49833e-08 -9.51366e-09 6.22635e-11)
(-1.33088e-08 -1.16278e-08 6.20579e-10)
(-2.50844e-08 -1.62639e-08 1.64113e-09)
(-4.85229e-08 -3.33144e-09 -4.94145e-09)
(-5.47031e-08 -4.25527e-09 -2.97417e-09)
(1.7089e-08 -1.69009e-09 -2.32513e-09)
(3.18156e-08 -4.03405e-09 -7.78511e-09)
(3.05733e-08 -6.85594e-09 -1.81593e-09)
(1.99666e-08 -8.43135e-09 -1.11204e-09)
(1.90629e-08 -1.12793e-08 -4.25024e-10)
(-1.43334e-08 -1.10068e-08 -2.9044e-09)
(-4.80167e-08 -1.78785e-08 -3.29078e-10)
(-6.88089e-08 -1.71885e-08 -8.04943e-09)
(-8.01105e-08 -1.20002e-08 -1.46167e-08)
(2.05197e-08 -3.78759e-09 -3.94011e-09)
(3.11163e-08 -1.78815e-09 -4.88249e-09)
(3.62566e-08 -5.89732e-09 -7.58548e-10)
(2.28748e-08 -1.01077e-08 -1.85552e-09)
(1.19579e-08 -1.03565e-08 2.04199e-09)
(-1.0671e-08 -1.37922e-08 5.50495e-09)
(-4.63637e-08 -2.01186e-08 -7.59368e-09)
(-1.80641e-07 3.72031e-08 -7.8736e-09)
(-1.06426e-07 -1.24182e-08 -1.19535e-08)
)
;

boundaryField
{
    inlet
    {
        type            calculated;
        value           uniform (0 0 0);
    }
    outlet
    {
        type            calculated;
        value           nonuniform 0();
    }
    wall
    {
        type            calculated;
        value           uniform (0 0 0);
    }
    procBoundary4to0
    {
        type            processor;
        value           uniform (0 0 0);
    }
    procBoundary4to5
    {
        type            processor;
        value           uniform (0 0 0);
    }
    procBoundary4to6
    {
        type            processor;
        value           uniform (0 0 0);
    }
}


// ************************************************************************* //
