/*--------------------------------*- C++ -*----------------------------------*\
| =========                 |                                                 |
| \\      /  F ield         | OpenFOAM: The Open Source CFD Toolbox           |
|  \\    /   O peration     | Version:  4.x                                   |
|   \\  /    A nd           | Web:      www.OpenFOAM.org                      |
|    \\/     M anipulation  |                                                 |
\*---------------------------------------------------------------------------*/
FoamFile
{
    version     2.0;
    format      ascii;
    class       volScalarField;
    location    "22.5";
    object      QPartFluid;
}
// * * * * * * * * * * * * * * * * * * * * * * * * * * * * * * * * * * * * * //

dimensions      [1 -1 -3 0 0 0 0];

internalField   nonuniform List<scalar> 
132
(
5.1598e+09
4.26956e+09
3.67873e+09
2.97558e+09
4.31037e+09
4.52853e+09
5.8729e+09
3.97817e+09
2.03085e+09
4.63038e+09
5.1196e+09
5.51793e+09
5.62596e+09
3.85008e+09
6.77111e+09
5.33883e+09
5.85323e+09
5.28187e+09
3.09817e+09
5.88753e+09
5.72856e+09
5.10473e+09
5.55538e+09
4.93764e+09
4.00157e+09
5.23055e+09
8.52563e+09
2.95158e+09
4.54344e+09
3.49633e+09
4.23781e+09
7.0036e+09
8.60819e+09
7.64823e+09
7.72189e+09
7.62833e+09
7.12006e+09
6.85437e+09
7.2733e+09
4.95799e+09
9.4843e+09
7.98775e+09
8.56649e+09
9.58463e+09
8.68505e+09
9.19688e+09
9.35737e+09
9.0114e+09
5.27495e+09
9.49827e+09
8.39444e+09
7.54975e+09
8.21385e+09
7.7064e+09
1.05229e+10
6.99221e+09
6.33719e+09
7.92588e+09
7.07308e+09
7.75591e+09
5.52833e+09
1.12833e+10
5.55785e+09
6.99282e+09
8.08547e+09
6.97237e+09
7.43811e+09
5.6596e+09
7.9892e+09
7.02245e+09
5.36805e+09
6.2249e+09
8.2996e+09
7.96604e+09
6.92112e+09
9.23002e+09
6.7087e+09
9.35272e+09
1.00952e+10
1.00871e+10
6.6865e+09
7.22274e+09
8.05562e+09
9.29173e+09
9.73699e+09
8.01379e+09
9.09738e+09
6.27698e+09
5.33056e+09
6.87419e+09
8.68751e+09
9.51025e+09
8.96967e+09
9.89626e+09
7.99003e+09
8.63518e+09
4.32008e+09
5.03417e+09
6.73608e+09
5.2415e+09
7.06022e+09
7.87584e+09
5.9055e+09
4.41257e+09
6.07004e+09
5.112e+09
9.63525e+09
9.07737e+09
8.10982e+09
7.20111e+09
6.76609e+09
1.04471e+10
7.39509e+09
6.94772e+09
5.16758e+09
5.66102e+09
9.0363e+09
6.27242e+09
8.71907e+09
8.71814e+09
8.25326e+09
5.13413e+09
9.3607e+09
4.81496e+09
6.76769e+09
9.6314e+09
1.04557e+10
5.48066e+09
9.88128e+09
8.48636e+09
5.55433e+09
2.59339e+09
)
;

boundaryField
{
    inlet
    {
        type            calculated;
        value           uniform 0;
    }
    outlet
    {
        type            calculated;
        value           nonuniform 0();
    }
    wall
    {
        type            calculated;
        value           uniform 0;
    }
    procBoundary0to1
    {
        type            processor;
        value           nonuniform List<scalar> 
12
(
4.35615e+09
4.62571e+09
3.98405e+09
7.51502e+09
9.1649e+09
9.16095e+09
7.06448e+09
6.40991e+09
8.05334e+09
6.68485e+09
8.03871e+09
5.9119e+09
)
;
    }
    procBoundary0to2
    {
        type            processor;
        value           nonuniform List<scalar> 
44
(
7.16612e+09
5.57268e+09
3.07234e+09
5.97819e+09
2.82742e+09
3.03861e+09
5.78425e+09
6.95168e+09
7.16612e+09
6.10109e+09
7.16612e+09
5.57268e+09
9.88783e+09
1.22052e+10
6.63944e+09
1.11956e+10
4.70971e+09
7.97684e+09
9.57862e+09
9.25639e+09
9.88783e+09
8.88225e+09
9.88783e+09
1.22052e+10
7.85662e+09
9.14703e+09
6.8372e+09
5.7681e+09
6.73958e+09
6.84728e+09
6.75819e+09
7.80706e+09
7.85662e+09
9.85049e+09
7.85662e+09
9.14703e+09
4.87502e+09
9.54348e+09
1.02958e+10
7.37176e+09
8.26198e+09
6.41846e+09
7.60423e+09
7.92776e+09
)
;
    }
    procBoundary0to4
    {
        type            processor;
        value           nonuniform List<scalar> 
36
(
4.8937e+09
7.14304e+09
8.37657e+09
5.98768e+09
7.09635e+09
5.98313e+09
8.84718e+09
6.84284e+09
9.53061e+09
6.99836e+09
7.32255e+09
9.33558e+09
1.00393e+10
1.00746e+10
8.5512e+09
8.03429e+09
5.69562e+09
1.10378e+10
6.65961e+09
1.03143e+10
8.28641e+09
9.43469e+09
8.09093e+09
6.34048e+09
7.25643e+09
1.03451e+10
6.65709e+09
3.45767e+09
6.7543e+09
9.36556e+09
5.75136e+09
8.78575e+09
6.75132e+09
1.09539e+10
6.01671e+09
6.99726e+09
)
;
    }
    procBoundary0to6
    {
        type            processor;
        value           uniform 8.11316e+09;
    }
    procBoundary0to7
    {
        type            processor;
        value           uniform 9.97816e+09;
    }
}


// ************************************************************************* //
