/*--------------------------------*- C++ -*----------------------------------*\
| =========                 |                                                 |
| \\      /  F ield         | OpenFOAM: The Open Source CFD Toolbox           |
|  \\    /   O peration     | Version:  4.x                                   |
|   \\  /    A nd           | Web:      www.OpenFOAM.org                      |
|    \\/     M anipulation  |                                                 |
\*---------------------------------------------------------------------------*/
FoamFile
{
    version     2.0;
    format      ascii;
    class       volScalarField;
    location    "22.5";
    object      QPartFluidCoeff;
}
// * * * * * * * * * * * * * * * * * * * * * * * * * * * * * * * * * * * * * //

dimensions      [1 -1 -3 -1 0 0 0];

internalField   nonuniform List<scalar> 
132
(
-1.71993e+07
-1.42319e+07
-1.22624e+07
-9.91861e+06
-1.43679e+07
-1.50951e+07
-1.95763e+07
-1.32606e+07
-6.76949e+06
-1.54346e+07
-1.70653e+07
-1.83931e+07
-1.87532e+07
-1.28336e+07
-2.25704e+07
-1.77961e+07
-1.95108e+07
-1.76062e+07
-1.03272e+07
-1.96251e+07
-1.90952e+07
-1.70158e+07
-1.85179e+07
-1.64588e+07
-1.33386e+07
-1.74352e+07
-2.84188e+07
-9.83861e+06
-1.51448e+07
-1.16544e+07
-1.4126e+07
-2.33453e+07
-2.8694e+07
-2.54941e+07
-2.57396e+07
-2.54278e+07
-2.37335e+07
-2.28479e+07
-2.42443e+07
-1.65266e+07
-3.16143e+07
-2.66258e+07
-2.8555e+07
-3.19488e+07
-2.89502e+07
-3.06563e+07
-3.11912e+07
-3.0038e+07
-1.75832e+07
-3.16609e+07
-2.79815e+07
-2.51658e+07
-2.73795e+07
-2.5688e+07
-3.50765e+07
-2.33074e+07
-2.1124e+07
-2.64196e+07
-2.35769e+07
-2.5853e+07
-1.84278e+07
-3.7611e+07
-1.85262e+07
-2.33094e+07
-2.69516e+07
-2.32412e+07
-2.47937e+07
-1.88653e+07
-2.66307e+07
-2.34082e+07
-1.78935e+07
-2.07497e+07
-2.76653e+07
-2.65535e+07
-2.30704e+07
-3.07667e+07
-2.23623e+07
-3.11757e+07
-3.36508e+07
-3.36236e+07
-2.22883e+07
-2.40758e+07
-2.68521e+07
-3.09724e+07
-3.24566e+07
-2.67126e+07
-3.03246e+07
-2.09233e+07
-1.77685e+07
-2.2914e+07
-2.89584e+07
-3.17008e+07
-2.98989e+07
-3.29875e+07
-2.66334e+07
-2.87839e+07
-1.44003e+07
-1.67806e+07
-2.24536e+07
-1.74717e+07
-2.35341e+07
-2.62528e+07
-1.9685e+07
-1.47086e+07
-2.02335e+07
-1.704e+07
-3.21175e+07
-3.02579e+07
-2.70327e+07
-2.40037e+07
-2.25536e+07
-3.48237e+07
-2.46503e+07
-2.31591e+07
-1.72253e+07
-1.88701e+07
-3.0121e+07
-2.09081e+07
-2.90636e+07
-2.90605e+07
-2.75109e+07
-1.71138e+07
-3.12023e+07
-1.60499e+07
-2.2559e+07
-3.21047e+07
-3.48524e+07
-1.82689e+07
-3.29376e+07
-2.82879e+07
-1.85144e+07
-8.64464e+06
)
;

boundaryField
{
    inlet
    {
        type            calculated;
        value           uniform 0;
    }
    outlet
    {
        type            calculated;
        value           nonuniform 0();
    }
    wall
    {
        type            calculated;
        value           uniform 0;
    }
    procBoundary0to1
    {
        type            processor;
        value           nonuniform List<scalar> 
12
(
329.263
349.638
301.137
568.029
692.737
692.438
533.974
484.498
608.718
505.279
607.612
446.856
)
;
    }
    procBoundary0to2
    {
        type            processor;
        value           nonuniform List<scalar> 
44
(
541.657
421.215
232.225
451.867
213.713
229.676
437.207
525.448
541.657
461.155
541.657
421.215
747.38
922.538
501.847
846.228
355.987
602.936
724.007
699.652
747.38
671.372
747.38
922.538
593.849
691.385
516.795
435.986
509.417
517.557
510.823
590.103
593.849
744.557
593.849
691.385
368.482
721.352
778.218
557.2
624.488
485.145
574.772
599.226
)
;
    }
    procBoundary0to4
    {
        type            processor;
        value           nonuniform List<scalar> 
36
(
369.894
539.913
633.15
452.583
536.383
452.24
668.721
517.221
720.379
528.976
553.481
705.637
758.83
761.498
646.349
607.278
430.508
834.303
503.372
779.618
626.335
713.129
611.559
479.25
548.483
781.944
503.181
261.351
510.529
707.904
434.721
664.078
510.304
827.963
454.778
528.894
)
;
    }
    procBoundary0to6
    {
        type            processor;
        value           uniform 613.239;
    }
    procBoundary0to7
    {
        type            processor;
        value           uniform 754.207;
    }
}


// ************************************************************************* //
