/*--------------------------------*- C++ -*----------------------------------*\
| =========                 |                                                 |
| \\      /  F ield         | OpenFOAM: The Open Source CFD Toolbox           |
|  \\    /   O peration     | Version:  4.x                                   |
|   \\  /    A nd           | Web:      www.OpenFOAM.org                      |
|    \\/     M anipulation  |                                                 |
\*---------------------------------------------------------------------------*/
FoamFile
{
    version     2.0;
    format      ascii;
    class       volScalarField;
    location    "22.5";
    object      SPartFluid;
}
// * * * * * * * * * * * * * * * * * * * * * * * * * * * * * * * * * * * * * //

dimensions      [1 -3 -1 0 0 0 0];

internalField   nonuniform List<scalar> 
132
(
5.50257e-65
4.41755e-65
3.10004e-65
2.86753e-65
3.79753e-65
4.03003e-65
4.72753e-65
3.48752e-65
1.70501e-65
4.88256e-65
4.72755e-65
4.57254e-65
5.11504e-65
3.17752e-65
5.81253e-65
4.41751e-65
4.96001e-65
3.95249e-65
2.71253e-65
5.34756e-65
4.72754e-65
4.72753e-65
4.26252e-65
4.34001e-65
3.255e-65
4.49499e-65
6.89748e-65
2.86754e-65
4.41755e-65
3.25503e-65
4.18505e-65
6.66507e-65
8.06008e-65
7.05256e-65
6.82004e-65
7.13003e-65
5.73502e-65
6.4325e-65
6.2e-65
5.42507e-65
7.98259e-65
6.27756e-65
7.20755e-65
7.28503e-65
7.13001e-65
7.05249e-65
7.74997e-65
6.97496e-65
5.89007e-65
8.13759e-65
6.82005e-65
6.27753e-65
6.66502e-65
6.5875e-65
8.29247e-65
6.04497e-65
4.95996e-65
8.0601e-65
6.12257e-65
6.12255e-65
4.72752e-65
8.99002e-65
5.96757e-65
6.82008e-65
7.28507e-65
6.74254e-65
6.58753e-65
5.19251e-65
7.0525e-65
6.89748e-65
4.72748e-65
6.43258e-65
7.05258e-65
6.43255e-65
5.96753e-65
7.36252e-65
5.735e-65
7.36247e-65
8.83495e-65
8.29243e-65
7.67259e-65
6.27757e-65
6.58755e-65
8.21503e-65
7.82751e-65
7.36248e-65
7.43995e-65
6.19993e-65
4.57245e-65
7.28509e-65
7.59507e-65
7.67255e-65
8.13753e-65
8.215e-65
7.12998e-65
7.12994e-65
4.57256e-65
4.88255e-65
5.73505e-65
5.34754e-65
6.12253e-65
7.44001e-65
4.805e-65
4.10748e-65
4.95998e-65
5.50257e-65
8.13759e-65
7.28506e-65
6.74254e-65
5.81251e-65
5.96749e-65
8.36996e-65
6.58745e-65
5.50244e-65
4.57255e-65
4.96005e-65
7.28506e-65
5.73502e-65
7.285e-65
8.05996e-65
6.74244e-65
5.11494e-65
8.05989e-65
5.27006e-65
5.89006e-65
7.82756e-65
9.22253e-65
4.495e-65
9.14496e-65
7.12993e-65
5.42493e-65
2.32496e-65
)
;

boundaryField
{
    inlet
    {
        type            calculated;
        value           uniform 0;
    }
    outlet
    {
        type            calculated;
        value           nonuniform 0();
    }
    wall
    {
        type            calculated;
        value           uniform 0;
    }
    procBoundary0to1
    {
        type            processor;
        value           nonuniform List<scalar> 
12
(
3.72001e-65
3.64249e-65
3.48748e-65
6.66499e-65
7.20746e-65
8.13741e-65
7.05246e-65
5.57993e-65
7.90488e-65
6.58745e-65
7.05241e-65
5.7349e-65
)
;
    }
    procBoundary0to2
    {
        type            processor;
        value           nonuniform List<scalar> 
44
(
6.51005e-65
4.88253e-65
2.5575e-65
4.8825e-65
2.24749e-65
2.63499e-65
5.73507e-65
6.51007e-65
6.51005e-65
5.11505e-65
6.51005e-65
4.88253e-65
8.44749e-65
9.76496e-65
5.73496e-65
9.22241e-65
5.42507e-65
6.82007e-65
7.67256e-65
7.82755e-65
8.44749e-65
6.97502e-65
8.44749e-65
9.76496e-65
7.59491e-65
8.1374e-65
7.28509e-65
4.96005e-65
5.50254e-65
6.04503e-65
5.58001e-65
7.12998e-65
7.59491e-65
8.36995e-65
7.59491e-65
8.1374e-65
4.80506e-65
8.13758e-65
8.37006e-65
6.58753e-65
6.82001e-65
5.88998e-65
6.27745e-65
7.74991e-65
)
;
    }
    procBoundary0to4
    {
        type            processor;
        value           nonuniform List<scalar> 
36
(
5.19257e-65
7.36258e-65
7.51757e-65
5.58004e-65
5.96753e-65
5.65751e-65
7.595e-65
6.74248e-65
8.91245e-65
7.75009e-65
6.35507e-65
7.36256e-65
8.60255e-65
8.21502e-65
7.5175e-65
6.35497e-65
5.42496e-65
9.06741e-65
6.97508e-65
8.75759e-65
6.66505e-65
8.44754e-65
6.665e-65
5.96748e-65
6.12245e-65
9.6874e-65
5.65742e-65
4.34005e-65
5.73506e-65
7.59505e-65
5.19252e-65
7.3625e-65
6.35498e-65
9.22242e-65
5.96743e-65
5.96741e-65
)
;
    }
    procBoundary0to6
    {
        type            processor;
        value           uniform 6.7424e-65;
    }
    procBoundary0to7
    {
        type            processor;
        value           uniform 9.91981e-65;
    }
}


// ************************************************************************* //
