/*--------------------------------*- C++ -*----------------------------------*\
  =========                 |
  \\      /  F ield         | OpenFOAM: The Open Source CFD Toolbox
   \\    /   O peration     | Website:  https://openfoam.org
    \\  /    A nd           | Version:  4.x
     \\/     M anipulation  |
\*---------------------------------------------------------------------------*/
FoamFile
{
    version     2.0;
    format      ascii;
    class       Cloud<passiveParticle>;
    location    0;
    object      positions;
}
// * * * * * * * * * * * * * * * * * * * * * * * * * * * * * * * * * * * * * //

356
(
( 0.0742815 -0.0554236 -0.0596077 ) 41
( 0.0861017 -0.020562 -0.0290953 ) 83
( 0.249953 -0.0571587 -0.0378152 ) 79
( 0.0502597 -0.0383884 -0.0671872 ) 49
( 0.177244 -0.0798336 -0.051807 ) 36
( 0.0524212 -0.0752649 -0.0488954 ) 31
( 0.19302 -0.026752 -0.05374 ) 54
( 0.145411 -0.0834293 -0.0261739 ) 67
( 0.0553165 -0.0674276 -0.031003 ) 72
( 0.0535547 -0.0265549 -0.026325 ) 81
( 0.00981162 -0.0395224 -0.0345478 ) 80
( 0.217698 -0.0898226 -0.0610202 ) 37
( 0.203183 -0.0500765 -0.0423854 ) 78
( 0.21205 -0.0255511 -0.0483902 ) 55
( 0.0789957 -0.0210708 -0.0557672 ) 50
( 0.176415 -0.0714195 -0.0698381 ) 45
( 0.186334 -0.0423367 -0.0350623 ) 86
( 0.194274 -0.0148321 -0.0696418 ) 54
( 0.109207 -0.0279565 -0.0582696 ) 51
( 0.22608 -0.0496266 -0.0706081 ) 47
( 0.24193 -0.0204852 -0.0591328 ) 56
( 0.242137 -0.0704501 -0.0256089 ) 79
( 0.0743434 -0.0366981 -0.028847 ) 82
( 0.137496 -0.0446837 -0.0393558 ) 75
( 0.204462 -0.0530955 -0.0637298 ) 46
( 0.0958723 -0.0517308 -0.0335058 ) 74
( 0.0620371 -0.0407742 -0.0437353 ) 50
( 0.215503 -0.0645742 -0.0517751 ) 46
( 0.0272996 -0.0143391 -0.049843 ) 48
( 0.0791447 -0.0729887 -0.0508525 ) 32
( 0.204794 -0.0731413 -0.0374692 ) 69
( 0.11952 -0.0384492 -0.0448933 ) 52
( 0.232808 -0.0560246 -0.0474007 ) 47
( 0.0266387 -0.0169538 -0.0301824 ) 80
( 0.138804 -0.0574951 -0.0244281 ) 75
( 0.0278825 -0.0765898 -0.036677 ) 63
( 0.141201 -0.0201927 -0.0702924 ) 53
( 0.0384823 -0.0747755 -0.0629057 ) 31
( 0.107972 -0.0802289 -0.0393412 ) 65
( 0.0730051 -0.0766501 -0.0323905 ) 64
( 0.11086 -0.0786144 -0.0197705 ) 65
( 0.135462 -0.0456511 -0.0683995 ) 43
( 0.149426 -0.0491854 -0.0546042 ) 44
( 0.240179 -0.0356047 -0.0718302 ) 26
( 0.171197 -0.0274794 -0.0687464 ) 54
( 0.127293 -0.0901818 -0.0207481 ) 66
( 0.233601 -0.0753069 -0.0527958 ) 38
( 0.0366007 -0.0626293 -0.047424 ) 40
( 0.172209 -0.0571377 -0.051511 ) 45
( 0.107381 -0.0761158 -0.0662795 ) 33
( 0.0937503 -0.0217293 -0.0690156 ) 51
( 0.138305 -0.0878261 -0.0550481 ) 34
( 0.187999 -0.0628658 -0.0404636 ) 77
( 0.13327 -0.0181643 -0.0413395 ) 84
( 0.0835579 -0.0382992 -0.064691 ) 51
( 0.11265 -0.0200319 -0.0404126 ) 84
( 0.0985364 -0.0584648 -0.0672368 ) 42
( 0.150527 -0.0110629 -0.0348495 ) 94
( 0.0402033 -0.0265848 -0.041113 ) 81
( 0.066621 -0.0217663 -0.0404507 ) 82
( 0.0341871 -0.0347963 -0.0243218 ) 81
( 0.148758 -0.0793784 -0.0696041 ) 35
( 0.0114777 -0.027241 -0.0627593 ) 48
( 0.09764 -0.0660298 -0.0487506 ) 42
( 0.128898 -0.0732964 -0.0308469 ) 66
( 0.00964866 -0.0069065 -0.0306488 ) 89
( 0.239712 -0.0432044 -0.0281841 ) 79
( 0.150004 -0.0624426 -0.0398174 ) 76
( 0.166729 -0.0709226 -0.0333784 ) 77
( 0.200249 -0.0861278 -0.0517099 ) 37
( 0.160775 -0.0281105 -0.0351832 ) 85
( 0.18927 -0.0353036 -0.0713489 ) 54
( 0.121329 -0.0064368 -0.0520018 ) 61
( 0.187435 -0.0824448 -0.0351161 ) 68
( 0.0275504 -0.0474645 -0.0382258 ) 71
( 0.054478 -0.0580094 -0.0586647 ) 40
( 0.0304383 -0.0900414 -0.05114 ) 31
( 0.0823705 -0.0437093 -0.0456169 ) 41
( 0.157527 -0.0252491 -0.0545323 ) 53
( 0.1389 -0.0319403 -0.0544439 ) 53
( 0.0841544 -0.0901494 -0.0420999 ) 65
( 0.0328375 -0.0308026 -0.059511 ) 49
( 0.04987 -0.00883023 -0.0361515 ) 90
( 0.0910816 -0.0364808 -0.0182481 ) 83
( 0.0185995 -0.00910768 -0.0668561 ) 57
( 0.0703534 -0.0585687 -0.0403328 ) 73
( 0.0534681 -0.022888 -0.0552361 ) 49
( 0.174925 -0.032682 -0.048233 ) 54
( 0.00991541 -0.0641508 -0.0350736 ) 71
( 0.0099069 -0.0802133 -0.0232058 ) 62
( 0.20034 -0.0502703 -0.0227587 ) 78
( 0.123704 -0.0552103 -0.0556182 ) 43
( 0.187012 -0.090116 -0.0658865 ) 36
( 0.237113 -0.0901023 -0.0656515 ) 38
( 0.11495 -0.0616498 -0.0390376 ) 75
( 0.0654422 -0.0145631 -0.0688031 ) 50
( 0.00990476 -0.0628659 -0.061789 ) 39
( 0.097762 -0.0328876 -0.0391827 ) 83
( 0.22491 -0.0729836 -0.0351334 ) 70
( 0.177278 -0.0566374 -0.0249679 ) 77
( 0.224336 -0.0261864 -0.0329294 ) 88
( 0.208102 -0.0308345 -0.0670619 ) 55
( 0.0435668 -0.079447 -0.0202889 ) 63
( 0.216676 -0.0900799 -0.0411717 ) 69
( 0.243089 -0.0902298 -0.0437294 ) 38
( 0.0262404 -0.0614378 -0.0240697 ) 71
( 0.0968746 -0.0142063 -0.050843 ) 60
( 0.209483 -0.0732447 -0.0685487 ) 37
( 0.12647 -0.0683976 -0.0707321 ) 43
( 0.196476 -0.0903051 -0.0194132 ) 69
( 0.1696 -0.090274 -0.0311135 ) 68
( 0.154356 -0.0877624 -0.0434531 ) 35
( 0.179876 -0.023349 -0.0295227 ) 86
( 0.192732 -0.0687832 -0.0587799 ) 45
( 0.0797559 -0.054816 -0.0225151 ) 73
( 0.233958 -0.0678971 -0.071206 ) 47
( 0.121666 -0.0747344 -0.0525145 ) 34
( 0.188249 -0.0460702 -0.0546671 ) 45
( 0.235445 -0.0359172 -0.0462273 ) 56
( 0.163262 -0.0480579 -0.0363471 ) 76
( 0.0584098 -0.0900896 -0.0631175 ) 32
( 0.216276 -0.090018 -0.0213882 ) 69
( 0.121409 -0.0901156 -0.0651675 ) 34
( 0.150168 -0.0399962 -0.0233776 ) 85
( 0.0435271 -0.0442481 -0.0494693 ) 40
( 0.00989544 -0.0219036 -0.0436838 ) 48
( 0.161403 -0.0574913 -0.0681351 ) 44
( 0.121655 -0.016816 -0.0690153 ) 52
( 0.124506 -0.0296208 -0.0278872 ) 84
( 0.103131 -0.0471748 -0.0517103 ) 42
( 0.203433 -0.0329815 -0.0322364 ) 87
( 0.0446505 -0.0900536 -0.0371034 ) 63
( 0.114502 -0.0438195 -0.0690485 ) 43
( 0.0100187 -0.0448249 -0.0535594 ) 39
( 0.0965304 -0.0902402 -0.0267831 ) 65
( 0.0279343 -0.0501149 -0.0603127 ) 40
( 0.0782236 -0.0900482 -0.0610702 ) 32
( 0.0623622 -0.00559465 -0.0513173 ) 59
( 0.0644826 -0.0902166 -0.0442083 ) 32
( 0.119639 -0.0594918 -0.0199414 ) 75
( 0.00972305 -0.0236961 -0.0203813 ) 80
( 0.117944 -0.00258457 -0.0328534 ) 93
( 0.0111148 -0.0824098 -0.0584405 ) 30
( 0.220104 -0.0496489 -0.0320723 ) 78
( 0.00985577 -0.00304046 -0.0500939 ) 57
( 0.130902 -0.0420891 0.00676702 ) 118
( 0.110715 -0.0512996 -0.00414793 ) 108
( 0.126418 -0.0172169 0.00203467 ) 118
( 0.17047 -0.0737919 0.00156518 ) 102
( 0.0585534 -0.0723173 0.000458704 ) 98
( 0.0397955 -0.00708937 -0.0191443 ) 90
( 0.225985 -0.0427432 -0.0018758 ) 122
( 0.134222 -0.0623952 0.00494975 ) 109
( 0.0216999 -0.0121388 0.00505633 ) 123
( 0.208209 -0.0190988 -0.0169089 ) 87
( 0.124908 0.00575059 0.00181996 ) 127
( 0.190626 -0.0340475 -0.0167431 ) 86
( 0.060777 -0.0107519 -0.0063884 ) 125
( 0.0199503 -0.0337315 0.00797524 ) 114
( 0.159958 -0.00403478 -0.0129307 ) 128
( 0.0827822 -0.0087143 0.00347345 ) 125
( 0.122451 -0.0126765 -0.0166399 ) 93
( 0.0561928 -0.0565056 0.0138284 ) 107
( 0.110734 -0.0356921 0.00804975 ) 117
( 0.163292 -0.0374294 0.0137011 ) 119
( 0.239523 -0.056698 0.000915504 ) 113
( 0.0910716 -0.0432608 0.000379346 ) 108
( 0.206271 -0.0618144 0.0114853 ) 112
( 0.205803 -0.0496704 -0.00382302 ) 112
( 0.143227 -0.0086483 -0.00344957 ) 128
( 0.15075 -0.0739134 0.0032779 ) 101
( 0.161995 -0.090173 0.00874102 ) 101
( 0.186418 -0.0488538 0.0119213 ) 111
( 0.228176 -0.0763497 0.0098676 ) 104
( 0.0353567 -0.0823311 -0.00152353 ) 97
( 0.235043 -0.035341 0.0137152 ) 122
( 0.176881 -0.0174155 -0.0101355 ) 120
( 0.0382723 -0.0335914 0.000346362 ) 115
( 0.219252 -0.0643858 -0.00281782 ) 112
( 0.056395 -0.0208844 0.00993796 ) 116
( 0.221725 -0.0902134 -0.0024284 ) 103
( 0.0262133 -0.0646187 -0.00189296 ) 105
( 0.214596 -0.0378648 -0.0169544 ) 87
( 0.0961196 -0.0239529 0.00125368 ) 117
( 0.168967 -0.0184228 0.00807345 ) 120
( 0.101335 -0.0713721 0.00560693 ) 108
( 0.150318 -0.0515096 0.00834417 ) 110
( 0.0563578 -0.0306791 -0.00717628 ) 116
( 0.238588 -0.074926 -0.0067244 ) 104
( 0.158411 -0.039837 -0.00523512 ) 119
( 0.0789712 -0.0902141 -0.0177905 ) 64
( 0.213288 -0.0130764 0.00141107 ) 130
( 0.0714969 -0.0901467 0.000486771 ) 98
( 0.193582 -0.012986 -0.000537691 ) 129
( 0.118284 -0.0308263 -0.00935502 ) 118
( 0.206112 -0.0784503 -0.00703397 ) 103
( 0.179335 -0.0809749 -0.0150495 ) 68
( 0.0951509 -0.0901106 0.0123847 ) 99
( 0.0742785 -0.0714893 -0.0133859 ) 98
( 0.149171 -0.0902564 -0.00782472 ) 101
( 0.118309 -0.0902132 -0.00308204 ) 100
( 0.16936 -0.0540281 0.00339117 ) 111
( 0.0150825 -0.090254 -0.00691174 ) 96
( 0.00983024 -0.0843379 0.0111174 ) 96
( 0.190946 -0.0683155 0.000705184 ) 111
( 0.183952 -0.0318562 0.00183521 ) 120
( 0.247369 -0.0414101 -0.00902239 ) 122
( 0.139195 -0.0237194 -0.0158759 ) 85
( 0.00985868 -0.0509828 0.0024261 ) 105
( 0.109968 -0.00686049 -0.00230364 ) 126
( 0.134735 -0.0900505 0.00826585 ) 100
( 0.065606 -0.00337779 0.0119295 ) 125
( 0.0529221 -0.0901723 -0.00638728 ) 97
( 0.0710545 -0.0490844 0.00296513 ) 107
( 0.0423339 -0.0707274 0.0130204 ) 106
( 0.0180937 -0.0045763 -0.0128716 ) 123
( 0.23055 -0.0561955 -0.0165955 ) 79
( 0.0745204 -0.0287319 0.00460976 ) 116
( 0.185646 -0.0511613 -0.00779311 ) 111
( 0.203587 -0.0302193 -0.00115571 ) 121
( 0.160251 -0.0757698 -0.0153301 ) 67
( 0.133695 -0.0425373 -0.0127008 ) 118
( 0.0414725 -0.013451 -0.00049626 ) 124
( 0.181598 -0.090252 0.00215723 ) 102
( 0.182076 0.009013 -0.0387724 ) 95
( 0.0878029 0.0117662 -0.0413279 ) 92
( 0.135564 0.0142292 -0.0561563 ) 61
( 0.0586272 0.00902323 -0.0244297 ) 91
( 0.0097947 0.0117272 -0.0204919 ) 89
( 0.0781835 0.00488328 -0.0572371 ) 59
( 0.124101 0.00380963 -0.0687666 ) 61
( 0.148116 0.0133826 -0.0310491 ) 94
( 0.0433084 0.0103488 -0.0368417 ) 90
( 0.113572 0.0111044 -0.0463188 ) 61
( 0.0549357 0.0121115 -0.0563194 ) 58
( 0.105478 -0.00057225 -0.0624172 ) 60
( 0.177079 0.00187591 -0.00492099 ) 129
( 0.0110433 0.010079 -0.00064777 ) 123
( 0.0869466 0.0111538 -0.00729025 ) 126
( 0.0435431 0.0110324 -0.0116994 ) 124
( 0.209514 0.00575238 -0.00260765 ) 130
( 0.0630129 0.00877258 -0.00500654 ) 125
( 0.100228 0.0041875 0.0121167 ) 126
( 0.146071 0.00888263 0.00519727 ) 128
( 0.107703 0.0127091 -0.00532927 ) 126
( 0.153217 0.0142749 -0.0120517 ) 128
( 0.165966 0.00122559 0.0114736 ) 128
( 0.0330703 0.00394811 0.00353889 ) 124
( 0.139851 -0.0676293 -0.0559912 ) 44
( 0.0665745 -0.00902017 -0.0253872 ) 91
( 0.00997887 -0.0901546 -0.040291 ) 62
( 0.0479271 -0.0486969 -0.0281947 ) 72
( 0.078973 -0.00608258 -0.0406306 ) 91
( 0.0825053 -0.0655045 0.00342461 ) 107
( 0.00987391 0.00866853 -0.0662018 ) 57
( 0.23518 0.00625553 -0.013694 ) 131
( 0.153829 -0.0372743 -0.0699221 ) 53
( 0.163211 -0.0901979 -0.0611745 ) 35
( 0.0435699 -0.0057498 -0.0574268 ) 58
( 0.125125 -0.0902013 -0.0405155 ) 66
( 0.024422 0.00535201 -0.0342515 ) 89
( 0.0930088 -0.0710075 -0.0300184 ) 74
( 0.0736202 -0.0235283 -0.0141397 ) 116
( 0.105648 0.0116402 -0.0265082 ) 92
( 0.0274819 0.00520416 -0.0537812 ) 57
( 0.0492187 -0.061784 -0.0131964 ) 106
( 0.248999 -0.0474062 -0.055112 ) 47
( 0.0973162 -0.00481646 -0.0333448 ) 92
( 0.0996853 -0.0900983 -0.0544722 ) 33
( 0.15018 -0.0251232 0.00490507 ) 119
( 0.173706 -0.00465682 -0.027009 ) 95
( 0.218492 -0.0436717 -0.0532356 ) 46
( 0.192353 0.00533875 0.00725612 ) 129
( 0.231503 -0.0203942 0.00183888 ) 122
( 0.135632 0.00156105 -0.0408065 ) 93
( 0.0973154 -0.0635739 -0.0121499 ) 108
( 0.0602934 -0.0898425 -0.0247679 ) 64
( 0.212915 -0.0655391 -0.021291 ) 78
( 0.191742 -0.0084532 -0.0199296 ) 95
( 0.151776 -0.0588223 -0.00979662 ) 110
( 0.0785361 0.00674426 -0.024604 ) 91
( 0.0270913 -0.0902397 -0.0225951 ) 62
( 0.192949 -0.068539 -0.02209 ) 77
( 0.126624 0.0130745 -0.0244668 ) 93
( 0.109458 -0.0427645 -0.022277 ) 83
( 0.103415 -0.0208526 -0.0177661 ) 83
( 0.159007 -0.023359 -0.0160778 ) 85
( 0.159309 -0.0718791 -0.0545132 ) 35
( 0.00984247 -0.0632342 -0.0130737 ) 105
( 0.0629197 -0.047586 -0.0151164 ) 73
( 0.0270543 -0.0221241 -0.0110191 ) 114
( 0.170648 -0.0386323 -0.0205985 ) 86
( 0.139268 -0.00179997 -0.0215041 ) 94
( 0.236313 -0.0901147 -0.0192995 ) 70
( 0.118602 -0.0704771 -0.00362808 ) 109
( 0.089676 -0.00684872 -0.0150667 ) 92
( 0.232662 -0.0298071 -0.0154292 ) 88
( 0.0343793 -0.0491771 -0.0109276 ) 106
( 0.0106231 -0.0427106 -0.015212 ) 80
( 0.136523 -0.075117 -0.0104258 ) 100
( 0.19335 0.00993086 -0.0128106 ) 129
( 0.0988795 -0.089248 -0.0070856 ) 99
( 0.0375713 -0.0519219 0.00856223 ) 106
( 0.144041 -0.0614875 -0.076925 ) 14
( 0.17324 -0.0449841 -0.0780708 ) 15
( 0.0858477 -0.0736457 -0.0694937 ) 33
( 0.00990645 -0.0445497 -0.0734305 ) 9
( 0.0408091 -0.0584742 -0.0739111 ) 10
( 0.0561647 -0.0725132 -0.072141 ) 2
( 0.0673512 -0.0441224 -0.0754978 ) 11
( 0.0422591 -0.0901597 -0.0747762 ) 1
( 0.205201 -0.0901708 -0.0779689 ) 7
( 0.244498 -0.0533239 -0.0797111 ) 17
( 0.224655 -0.0236438 -0.0754265 ) 26
( 0.0774439 -0.0263789 -0.0794586 ) 20
( 0.223744 -0.0831128 -0.0788139 ) 8
( 0.0215762 -0.0742354 -0.0732732 ) 0
( 0.0854216 -0.050916 -0.0800366 ) 12
( 0.109114 -0.0279995 -0.0799189 ) 21
( 0.209793 -0.0448845 -0.0810953 ) 16
( 0.192281 -0.061207 -0.0772006 ) 15
( 0.172039 -0.0899126 -0.0789957 ) 6
( 0.128634 -0.0315658 -0.0806669 ) 22
( 0.0432638 -0.019317 -0.0719753 ) 19
( 0.134229 -0.0879098 -0.0802325 ) 4
( 0.0334021 -0.0403799 -0.0775209 ) 19
( 0.112429 -0.0592786 -0.0814602 ) 13
( 0.0701071 -0.089828 -0.0792716 ) 2
( 0.0220435 -0.0241676 -0.0793688 ) 18
( 0.0959292 -0.0901387 -0.0743659 ) 3
( 0.188824 -0.0799551 -0.0829488 ) 6
( 0.161236 -0.0710817 -0.0827191 ) 14
( 0.206395 -0.0209739 -0.0842831 ) 25
( 0.159258 -0.0247851 -0.084484 ) 23
( 0.0722567 -0.0658125 -0.0818033 ) 11
( 0.0229301 -0.0565892 -0.0824585 ) 9
( 0.0578361 -0.0279456 -0.082405 ) 20
( 0.0343462 0.000891769 -0.0737535 ) 28
( 0.0544766 -0.00839382 -0.0842956 ) 28
( 0.218622 -0.0632129 -0.0831243 ) 16
( 0.113419 -0.0854746 -0.0828285 ) 4
( 0.144298 -0.0437904 -0.0861641 ) 14
( 0.241886 -0.0208119 -0.0850818 ) 26
( 0.00994183 -0.0900531 -0.0767517 ) 0
( 0.0948483 -0.0674453 -0.0861366 ) 12
( 0.228271 -0.0391709 -0.0874366 ) 26
( 0.0615698 0.00986019 -0.0878122 ) 29
( 0.0372772 -0.0741856 -0.0856088 ) 1
( 0.15331 -0.0900605 -0.0857647 ) 5
( 0.0505716 -0.0461148 -0.0860234 ) 10
( 0.00989634 -0.00186639 -0.0831816 ) 27
( 0.191291 -0.0449243 -0.0886694 ) 15
( 0.0350555 -0.0122621 -0.0887187 ) 28
( 0.0099122 -0.0702419 -0.0888811 ) 9
( 0.0927714 -0.0347407 -0.0890709 ) 21
( 0.0256974 -0.090057 -0.0889501 ) 0
)
