/*--------------------------------*- C++ -*----------------------------------*\
| =========                 |                                                 |
| \\      /  F ield         | OpenFOAM: The Open Source CFD Toolbox           |
|  \\    /   O peration     | Version:  4.x                                   |
|   \\  /    A nd           | Web:      www.OpenFOAM.org                      |
|    \\/     M anipulation  |                                                 |
\*---------------------------------------------------------------------------*/
FoamFile
{
    version     2.0;
    format      ascii;
    class       volScalarField;
    location    "0.5";
    object      Deff;
}
// * * * * * * * * * * * * * * * * * * * * * * * * * * * * * * * * * * * * * //

dimensions      [0 2 -1 0 0 0 0];

internalField   nonuniform List<scalar> 
132
(
1.00209e-07
1.00035e-07
9.99354e-08
9.98716e-08
9.96817e-08
9.95617e-08
9.9497e-08
9.9583e-08
9.9682e-08
1.00091e-07
9.9882e-08
9.9767e-08
9.969e-08
9.96436e-08
9.94454e-08
9.94569e-08
9.94082e-08
9.94015e-08
9.9997e-08
9.97356e-08
9.96836e-08
9.97304e-08
9.95891e-08
9.94757e-08
9.94614e-08
9.93585e-08
9.92125e-08
9.98541e-08
9.97044e-08
9.97151e-08
9.97632e-08
9.9467e-08
9.92664e-08
9.92333e-08
9.91131e-08
9.90571e-08
9.90468e-08
9.9033e-08
9.90617e-08
9.95818e-08
9.93222e-08
9.92636e-08
9.91619e-08
9.90517e-08
9.8979e-08
9.89473e-08
9.88813e-08
9.89061e-08
9.9416e-08
9.9215e-08
9.91893e-08
9.91449e-08
9.90061e-08
9.89195e-08
9.88512e-08
9.88494e-08
9.88647e-08
9.92409e-08
9.92296e-08
9.91853e-08
9.91345e-08
9.88597e-08
9.93101e-08
9.91104e-08
9.89514e-08
9.89227e-08
9.8794e-08
9.88138e-08
9.87155e-08
9.86715e-08
9.87302e-08
9.91627e-08
9.90006e-08
9.89148e-08
9.88485e-08
9.87203e-08
9.86684e-08
9.85649e-08
9.84964e-08
9.85737e-08
9.90057e-08
9.89475e-08
9.88213e-08
9.86646e-08
9.85712e-08
9.85331e-08
9.84879e-08
9.85491e-08
9.85553e-08
9.89299e-08
9.88535e-08
9.8729e-08
9.86023e-08
9.85056e-08
9.84906e-08
9.84007e-08
9.91688e-08
9.89881e-08
9.88101e-08
9.87525e-08
9.86121e-08
9.85241e-08
9.85843e-08
9.86265e-08
9.84602e-08
9.89954e-08
9.87628e-08
9.86472e-08
9.86064e-08
9.84963e-08
9.84459e-08
9.83354e-08
9.83922e-08
9.83319e-08
9.89619e-08
9.87983e-08
9.85665e-08
9.8496e-08
9.83818e-08
9.83e-08
9.82764e-08
9.83374e-08
9.82198e-08
9.88746e-08
9.87058e-08
9.84633e-08
9.83298e-08
9.84303e-08
9.83066e-08
9.81574e-08
9.83039e-08
9.83686e-08
)
;

boundaryField
{
    inlet
    {
        type            calculated;
        value           uniform 0;
    }
    outlet
    {
        type            calculated;
        value           nonuniform 0();
    }
    wall
    {
        type            calculated;
        value           uniform 0;
    }
    procBoundary0to1
    {
        type            processor;
        value           uniform 0;
    }
    procBoundary0to2
    {
        type            processor;
        value           uniform 0;
    }
    procBoundary0to4
    {
        type            processor;
        value           uniform 0;
    }
    procBoundary0to6
    {
        type            processor;
        value           uniform 0;
    }
    procBoundary0to7
    {
        type            processor;
        value           uniform 0;
    }
}


// ************************************************************************* //
