/*--------------------------------*- C++ -*----------------------------------*\
| =========                 |                                                 |
| \\      /  F ield         | OpenFOAM: The Open Source CFD Toolbox           |
|  \\    /   O peration     | Version:  4.x                                   |
|   \\  /    A nd           | Web:      www.OpenFOAM.org                      |
|    \\/     M anipulation  |                                                 |
\*---------------------------------------------------------------------------*/
FoamFile
{
    version     2.0;
    format      ascii;
    class       volScalarField;
    location    "0.5";
    object      nu;
}
// * * * * * * * * * * * * * * * * * * * * * * * * * * * * * * * * * * * * * //

dimensions      [0 2 -1 0 0 0 0];

internalField   nonuniform List<scalar> 
132
(
1.00216e-06
1.00269e-06
1.00248e-06
1.00204e-06
1.00182e-06
1.00181e-06
1.00164e-06
1.00136e-06
1.00105e-06
1.00197e-06
1.00265e-06
1.00258e-06
1.00202e-06
1.00141e-06
1.00138e-06
1.00106e-06
1.00051e-06
1.00012e-06
1.00201e-06
1.00268e-06
1.00212e-06
1.00174e-06
1.0013e-06
1.00111e-06
1.0009e-06
1.00046e-06
1.00004e-06
1.00183e-06
1.0025e-06
1.00198e-06
1.00112e-06
1.00152e-06
1.00144e-06
1.00122e-06
1.00107e-06
1.00092e-06
1.00076e-06
1.00059e-06
1.00038e-06
1.00106e-06
1.00135e-06
1.0012e-06
1.00095e-06
1.00071e-06
1.00055e-06
1.00029e-06
9.99995e-07
9.99757e-07
1.00107e-06
1.00138e-06
1.00116e-06
1.0009e-06
1.00065e-06
1.0004e-06
1.00012e-06
9.99894e-07
9.99655e-07
1.00105e-06
1.00138e-06
1.00119e-06
1.00089e-06
1.0008e-06
1.00061e-06
1.00088e-06
1.00085e-06
1.00074e-06
1.00063e-06
1.0005e-06
1.00038e-06
1.00028e-06
1.00014e-06
1.00066e-06
1.0008e-06
1.00072e-06
1.00059e-06
1.00041e-06
1.00024e-06
1.00004e-06
9.99819e-07
9.99633e-07
1.00061e-06
1.0008e-06
1.00071e-06
1.00057e-06
1.00043e-06
1.00023e-06
9.99959e-07
9.99717e-07
9.99567e-07
1.00059e-06
1.00083e-06
1.00074e-06
1.00054e-06
1.00036e-06
1.00023e-06
1.00004e-06
1.00032e-06
1.00049e-06
1.00049e-06
1.00042e-06
1.00036e-06
1.0003e-06
1.00022e-06
1.00014e-06
1.00005e-06
1.00034e-06
1.00047e-06
1.00045e-06
1.0003e-06
1.00023e-06
1.0001e-06
9.99932e-07
9.99786e-07
9.99661e-07
1.00037e-06
1.00052e-06
1.00047e-06
1.00029e-06
1.00027e-06
1.0001e-06
9.99917e-07
9.99718e-07
9.9961e-07
1.00041e-06
1.0006e-06
1.00047e-06
1.00035e-06
1.00024e-06
1.00014e-06
9.99957e-07
9.99838e-07
9.99676e-07
)
;

boundaryField
{
    inlet
    {
        type            calculated;
        value           uniform 1e-06;
    }
    outlet
    {
        type            calculated;
        value           nonuniform 0();
    }
    wall
    {
        type            calculated;
        value           nonuniform List<scalar> 
66
(
1.00216e-06
1.00197e-06
1.00201e-06
1.00183e-06
1.00269e-06
1.00265e-06
1.00268e-06
1.0025e-06
1.00248e-06
1.00258e-06
1.00212e-06
1.00198e-06
1.00204e-06
1.00202e-06
1.00174e-06
1.00182e-06
1.00141e-06
1.0013e-06
1.00181e-06
1.00138e-06
1.00111e-06
1.00164e-06
1.00106e-06
1.0009e-06
1.00136e-06
1.00051e-06
1.00046e-06
1.00105e-06
1.00012e-06
1.00004e-06
1.00216e-06
1.00112e-06
1.00061e-06
1.00032e-06
1.00269e-06
1.00152e-06
1.00088e-06
1.00049e-06
1.00248e-06
1.00144e-06
1.00085e-06
1.00049e-06
1.00204e-06
1.00122e-06
1.00074e-06
1.00042e-06
1.00182e-06
1.00107e-06
1.00063e-06
1.00036e-06
1.00181e-06
1.00092e-06
1.0005e-06
1.0003e-06
1.00164e-06
1.00076e-06
1.00038e-06
1.00022e-06
1.00136e-06
1.00059e-06
1.00028e-06
1.00014e-06
1.00105e-06
1.00038e-06
1.00014e-06
1.00005e-06
)
;
    }
    procBoundary0to1
    {
        type            processor;
        value           nonuniform List<scalar> 
12
(
1.00079e-06
9.99858e-07
9.99748e-07
1.00019e-06
9.99547e-07
9.99422e-07
1.00001e-06
9.99471e-07
9.99391e-07
9.99958e-07
9.99491e-07
9.9951e-07
)
;
    }
    procBoundary0to2
    {
        type            processor;
        value           nonuniform List<scalar> 
44
(
1.00176e-06
1.00125e-06
1.00097e-06
1.0006e-06
1.00017e-06
9.99938e-07
1.00213e-06
1.00264e-06
1.00176e-06
1.0025e-06
1.00176e-06
1.00125e-06
1.00041e-06
1.0002e-06
9.99965e-07
9.99842e-07
1.00106e-06
1.00139e-06
1.00125e-06
1.00084e-06
1.00041e-06
1.00062e-06
1.00041e-06
1.0002e-06
9.99828e-07
9.99733e-07
1.00057e-06
1.00075e-06
1.00075e-06
1.00052e-06
1.00034e-06
1.0002e-06
9.99828e-07
1e-06
9.99828e-07
9.99733e-07
1.00033e-06
1.00031e-06
1.0004e-06
1.00034e-06
1.00024e-06
1.00012e-06
9.99927e-07
9.99734e-07
)
;
    }
    procBoundary0to4
    {
        type            processor;
        value           nonuniform List<scalar> 
36
(
1.00024e-06
1.00035e-06
1.00036e-06
1.00033e-06
1.00029e-06
1.00024e-06
1.00017e-06
1.0001e-06
1.00004e-06
1.00028e-06
1.00032e-06
1.00032e-06
1.00028e-06
1.00021e-06
1.00007e-06
9.9993e-07
9.99866e-07
9.99712e-07
1.00028e-06
1.00037e-06
1.00036e-06
1.0003e-06
1.0002e-06
1.00009e-06
9.9992e-07
9.99806e-07
9.99686e-07
1.00028e-06
1.00037e-06
1.00034e-06
1.0003e-06
1.00021e-06
1.0001e-06
9.99949e-07
9.99797e-07
9.99725e-07
)
;
    }
    procBoundary0to6
    {
        type            processor;
        value           uniform 9.99769e-07;
    }
    procBoundary0to7
    {
        type            processor;
        value           uniform 9.99674e-07;
    }
}


// ************************************************************************* //
