/*--------------------------------*- C++ -*----------------------------------*\
| =========                 |                                                 |
| \\      /  F ield         | OpenFOAM: The Open Source CFD Toolbox           |
|  \\    /   O peration     | Version:  4.x                                   |
|   \\  /    A nd           | Web:      www.OpenFOAM.org                      |
|    \\/     M anipulation  |                                                 |
\*---------------------------------------------------------------------------*/
FoamFile
{
    version     2.0;
    format      ascii;
    class       volScalarField;
    location    "0.5";
    object      Sm;
}
// * * * * * * * * * * * * * * * * * * * * * * * * * * * * * * * * * * * * * //

dimensions      [1 -3 -1 0 0 0 0];

internalField   nonuniform List<scalar> 
132
(
3.24681e-65
3.64124e-65
3.09436e-65
2.54778e-65
4.09428e-65
4.02276e-65
4.88195e-65
3.50043e-65
1.72093e-65
3.408e-65
4.33642e-65
4.64076e-65
5.02543e-65
3.24596e-65
5.72917e-65
4.20193e-65
4.83378e-65
4.68728e-65
2.70893e-65
5.33167e-65
5.02253e-65
2.39815e-65
4.17788e-65
4.41864e-65
3.03696e-65
4.52779e-65
6.8756e-65
2.86055e-65
4.40371e-65
3.24415e-65
4.16451e-65
6.6368e-65
8.01917e-65
6.7052e-65
7.0945e-65
7.03097e-65
6.27289e-65
6.5186e-65
6.22646e-65
5.39806e-65
7.86681e-65
6.24026e-65
7.08883e-65
7.33043e-65
7.03508e-65
6.60261e-65
7.63457e-65
6.95386e-65
5.85764e-65
8.16935e-65
6.77723e-65
6.16197e-65
6.55577e-65
6.66e-65
7.16415e-65
7.18039e-65
5.16374e-65
8.02233e-65
6.09327e-65
6.00255e-65
4.46674e-65
9.08427e-65
5.929e-65
6.76638e-65
7.22895e-65
6.07621e-65
7.0824e-65
5.09393e-65
6.72958e-65
7.28274e-65
5.04794e-65
6.38727e-65
6.99017e-65
6.37359e-65
5.83329e-65
6.69348e-65
6.48332e-65
7.36057e-65
8.93092e-65
6.30512e-65
7.61888e-65
6.22179e-65
6.5259e-65
8.13237e-65
7.76584e-65
7.25529e-65
7.36712e-65
5.9149e-65
4.99397e-65
7.23198e-65
7.52731e-65
7.59794e-65
7.97259e-65
8.37435e-65
6.54534e-65
7.2159e-65
4.53867e-65
4.83522e-65
5.68267e-65
5.22191e-65
6.15349e-65
7.32268e-65
4.78805e-65
3.32797e-65
5.34426e-65
5.4602e-65
8.05193e-65
7.20501e-65
5.98035e-65
6.52992e-65
6.01014e-65
8.34863e-65
6.2754e-65
5.66746e-65
4.5297e-65
4.90398e-65
7.19919e-65
5.59303e-65
7.21673e-65
7.78783e-65
6.88751e-65
5.28151e-65
8.24137e-65
5.22188e-65
5.82312e-65
7.73344e-65
9.10952e-65
4.36736e-65
6.07478e-65
8.43253e-65
5.42499e-65
2.33669e-65
)
;

boundaryField
{
    inlet
    {
        type            calculated;
        value           uniform 0;
    }
    outlet
    {
        type            calculated;
        value           nonuniform 0();
    }
    wall
    {
        type            calculated;
        value           uniform 0;
    }
    procBoundary0to1
    {
        type            processor;
        value           nonuniform List<scalar> 
12
(
3.74464e-65
3.59616e-65
3.51926e-65
6.54433e-65
7.27258e-65
7.69009e-65
6.91511e-65
7.81638e-65
7.99487e-65
6.5979e-65
7.0855e-65
5.77374e-65
)
;
    }
    procBoundary0to2
    {
        type            processor;
        value           nonuniform List<scalar> 
44
(
6.0308e-65
2.94628e-65
2.63537e-65
4.90992e-65
2.26463e-65
2.65646e-65
5.71486e-65
6.4897e-65
6.0308e-65
2.93984e-65
6.0308e-65
2.94628e-65
8.44384e-65
9.64216e-65
5.62197e-65
9.76705e-65
5.3976e-65
6.78441e-65
7.63247e-65
7.24301e-65
8.44384e-65
7.08641e-65
8.44384e-65
9.64216e-65
7.63057e-65
5.77131e-65
7.15689e-65
4.99382e-65
5.44928e-65
5.67545e-65
5.75907e-65
7.55201e-65
7.63057e-65
8.35568e-65
7.63057e-65
5.77131e-65
4.76237e-65
8.03835e-65
8.26924e-65
6.50628e-65
6.35402e-65
7.68696e-65
6.25601e-65
7.74262e-65
)
;
    }
    procBoundary0to4
    {
        type            processor;
        value           nonuniform List<scalar> 
36
(
5.14685e-65
7.28201e-65
7.43665e-65
5.3699e-65
6.06867e-65
5.61851e-65
7.48367e-65
6.79952e-65
8.97438e-65
7.68193e-65
6.27396e-65
7.18948e-65
8.34525e-65
8.20246e-65
7.45996e-65
6.17181e-65
5.41013e-65
9.21335e-65
6.90611e-65
8.64283e-65
6.34566e-65
8.41424e-65
6.82518e-65
6.00051e-65
5.79019e-65
9.89953e-65
5.72844e-65
4.29257e-65
5.65268e-65
7.48478e-65
5.121e-65
6.66651e-65
6.61034e-65
9.41797e-65
6.03026e-65
5.96339e-65
)
;
    }
    procBoundary0to6
    {
        type            processor;
        value           uniform 6.74106e-65;
    }
    procBoundary0to7
    {
        type            processor;
        value           uniform 9.67108e-65;
    }
}


// ************************************************************************* //
