/*--------------------------------*- C++ -*----------------------------------*\
| =========                 |                                                 |
| \\      /  F ield         | OpenFOAM: The Open Source CFD Toolbox           |
|  \\    /   O peration     | Version:  4.x                                   |
|   \\  /    A nd           | Web:      www.OpenFOAM.org                      |
|    \\/     M anipulation  |                                                 |
\*---------------------------------------------------------------------------*/
FoamFile
{
    version     2.0;
    format      ascii;
    class       volScalarField;
    location    "22";
    object      KslNext;
}
// * * * * * * * * * * * * * * * * * * * * * * * * * * * * * * * * * * * * * //

dimensions      [1 -3 -1 0 0 0 0];

internalField   nonuniform List<scalar> 
87
(
3768.5
14101.2
3725.97
3291.83
6333.39
3180.86
3652.13
10914.8
3936.98
19352.3
4071.58
49454.5
4111.07
4.12505e+09
4148.4
3573.12
9689.38
3789.89
13101.1
3904.1
18623.1
3953.8
31473.9
3978.83
3446.85
7596.27
3470.21
7469.3
3502.57
7705.21
3487.12
7754.23
3469.83
3615.72
9408.78
3811.69
12204.5
3855.44
15938.4
3870.57
21952.8
3804.48
3523.9
8475.04
3667.6
9427.83
3708.09
10478
3741.41
12120.2
3715.42
3437.64
7067.63
3375.35
6594.86
3336.97
6363.64
3285.4
6207.97
3201.39
3504.19
7595.36
3544.18
7768.77
3513.5
8016.78
3522.85
8507.44
3459.91
3443.48
7128.14
3421.45
6750.21
3374.07
6557.73
3352.99
6548.29
3298.11
3386.2
6558.15
3257.13
5701.04
3110.48
5183.85
3041.76
4894.14
2972.39
)
;

boundaryField
{
    inlet
    {
        type            zeroGradient;
    }
    outlet
    {
        type            zeroGradient;
    }
    wall
    {
        type            zeroGradient;
    }
    procBoundary6to0
    {
        type            processor;
        value           uniform 0;
    }
    procBoundary6to2
    {
        type            processor;
        value           uniform 0;
    }
    procBoundary6to4
    {
        type            processor;
        value           uniform 0;
    }
    procBoundary6to7
    {
        type            processor;
        value           uniform 0;
    }
}


// ************************************************************************* //
