/*--------------------------------*- C++ -*----------------------------------*\
| =========                 |                                                 |
| \\      /  F ield         | OpenFOAM: The Open Source CFD Toolbox           |
|  \\    /   O peration     | Version:  4.x                                   |
|   \\  /    A nd           | Web:      www.OpenFOAM.org                      |
|    \\/     M anipulation  |                                                 |
\*---------------------------------------------------------------------------*/
FoamFile
{
    version     2.0;
    format      ascii;
    class       volScalarField;
    location    "22";
    object      magGField;
}
// * * * * * * * * * * * * * * * * * * * * * * * * * * * * * * * * * * * * * //

dimensions      [1 -2 -1 0 0 0 0];

internalField   nonuniform List<scalar> 
87
(
87.2533
23.399
88.9269
100.3
51.7933
103.278
89.6047
30.3447
84.9118
17.0692
81.3134
6.60937
79.6377
6.47385e-05
77.6152
91.502
33.9432
87.8667
25.1788
85.0003
17.5812
83.146
10.2617
81.6532
93.4757
42.5108
93.9589
43.4567
93.3573
42.0873
93.329
41.3843
93.0272
89.8565
34.8277
86.8241
26.7751
85.1037
20.336
84.0709
14.5306
83.9854
91.7536
38.4876
89.8782
34.5962
88.6406
31.0099
87.3781
26.5551
86.8817
93.0899
45.1616
95.4692
48.5489
96.5871
50.382
98.2687
51.5825
100.31
91.8824
42.4007
91.8696
41.3448
91.4913
39.7505
90.8737
36.9678
91.5663
92.579
44.9107
94.2003
47.5288
95.0642
48.6814
95.9208
48.5787
96.1503
93.6922
48.1586
97.7712
55.4785
102.079
61.019
105.348
65.0516
107.071
)
;

boundaryField
{
    inlet
    {
        type            calculated;
        value           uniform 67;
    }
    outlet
    {
        type            calculated;
        value           nonuniform 0();
    }
    wall
    {
        type            calculated;
        value           uniform 0;
    }
    procBoundary6to0
    {
        type            processor;
        value           uniform 82.8344;
    }
    procBoundary6to2
    {
        type            processor;
        value           nonuniform List<scalar> 
32
(
85.7443
14.9843
86.8101
100.027
51.077
102.171
91.7536
34.0891
88.2102
26.6421
87.0151
21.5881
86.9337
17.3573
17.3573
17.3573
91.9436
36.4784
89.5006
30.9715
88.3172
26.5109
88.0773
88.0773
88.0773
93.564
43.7989
95.5407
46.7101
97.7213
49.2808
49.2808
)
;
    }
    procBoundary6to4
    {
        type            processor;
        value           nonuniform List<scalar> 
27
(
91.6592
32.916
85.9459
21.6429
82.689
11.847
80.7244
3.9161
80.448
90.7225
33.9199
86.4265
23.6328
83.1202
15.0741
81.5808
8.18719
81.4384
90.7146
39.916
90.3672
37.5883
89.9528
36.6194
90.8438
37.5502
91.4216
)
;
    }
    procBoundary6to7
    {
        type            processor;
        value           nonuniform List<scalar> 
12
(
13.8532
22.3874
53.0476
2.25492e-05
4.01256
38.3033
8.79562
22.6819
52.9202
33.887
47.9081
66.0151
)
;
    }
}


// ************************************************************************* //
