/*--------------------------------*- C++ -*----------------------------------*\
| =========                 |                                                 |
| \\      /  F ield         | OpenFOAM: The Open Source CFD Toolbox           |
|  \\    /   O peration     | Version:  4.x                                   |
|   \\  /    A nd           | Web:      www.OpenFOAM.org                      |
|    \\/     M anipulation  |                                                 |
\*---------------------------------------------------------------------------*/
FoamFile
{
    version     2.0;
    format      ascii;
    class       volScalarField;
    location    "34";
    object      p;
}
// * * * * * * * * * * * * * * * * * * * * * * * * * * * * * * * * * * * * * //

dimensions      [1 -1 -2 0 0 0 0];

internalField   nonuniform List<scalar> 
108
(
5652.01
5708.5
5632.27
5702.62
5611.65
5698.27
5590.48
5695.97
5567.76
5652.59
5708.62
5632.93
5702.89
5613.32
5698.29
5593.36
5694.88
5576.03
5652.12
5708.48
5632.1
5702.71
5611.39
5698.35
5588.66
5696.78
5562.74
5652.44
5708.51
5632.84
5702.9
5611.61
5698.74
5588.29
5698.18
5559.13
3774.06
3830.89
3754.46
3824.57
3734.45
3819.09
3715.04
3815.01
3697.05
3774.69
3830.84
3755.24
3824.51
3735.71
3818.86
3716.5
3814.14
3699.21
3774.13
3830.7
3753.99
3824.55
3732.91
3819.4
3710.53
3816.99
3686.57
3774.58
3830.67
3754.8
3824.8
3733.65
3820.07
3710.31
3818.35
3681.28
1897.43
1952.78
1878.55
1946.38
1859.9
1941.1
1841.96
1935.95
1826.35
1897.67
1952.91
1878.77
1946.58
1860.16
1941.38
1841.34
1936.9
1823.37
1897.15
1952.92
1877.82
1946.33
1858.48
1940.59
1838.93
1936.12
1821.88
1897.12
1952.82
1877.78
1946.79
1857.44
1941.7
1835.15
1939
1808.41
)
;

boundaryField
{
    inlet
    {
        type            calculated;
        value           nonuniform 0();
    }
    outlet
    {
        type            calculated;
        value           nonuniform List<scalar> 
12
(
5633.74
5633.74
5633.74
5633.74
3755.83
3755.83
3755.83
3755.83
1877.91
1877.91
1877.91
1877.91
)
;
    }
    wall
    {
        type            calculated;
        value           nonuniform List<scalar> 
63
(
6590.97
6591.55
6591.08
6591.4
6647.46
6647.58
6647.44
6647.47
6571.22
6571.89
6571.05
6571.79
6641.58
6641.84
6641.66
6641.86
6550.6
6552.27
6550.34
6550.57
6637.21
6637.25
6637.3
6637.7
6529.42
6532.31
6527.61
6527.25
6634.91
6633.82
6635.72
6637.13
6506.97
6515.94
6502.87
6517.21
5652.44
3774.58
1897.12
5708.51
3830.67
1952.82
5632.84
3754.8
1877.78
5702.9
3824.8
1946.79
5611.61
3733.65
1857.44
5698.74
3820.07
1941.7
5588.29
3710.31
1835.15
5698.18
3818.35
1939
5559.13
3681.28
1808.41
)
;
    }
    procBoundary3to1
    {
        type            processor;
        value           nonuniform List<scalar> 
27
(
5652.5
5708.65
5632.93
5702.66
5612.22
5697.98
5590.17
5695.79
5564.13
3774.98
3831.12
3755.82
3824.58
3736.6
3818.49
3718.13
3812.55
3702.41
1897.04
1952.67
1877.98
1946.38
1858.5
1941.03
1839.22
1937.19
1821.67
)
;
    }
    procBoundary3to2
    {
        type            processor;
        value           nonuniform List<scalar> 
12
(
5715.11
5715.2
5715.1
5714.92
3837.61
3837.65
3837.53
3837.28
1959.63
1959.81
1959.84
1959.55
)
;
    }
    procBoundary3to7
    {
        type            processor;
        value           nonuniform List<scalar> 
36
(
22.2637
74.9725
4.0853
68.393
-14.1755
62.5409
-32.5322
56.468
-48.8958
21.1869
74.8517
2.72773
68.0193
-15.4189
61.4917
-33.2724
55.3161
-49.162
19.6877
74.8846
0.413512
68.3602
-19.1797
62.6173
-39.7329
58.9246
-60.9135
19.8406
74.8906
0.553105
68.5829
-19.2222
63.0469
-40.061
59.3232
-61.2708
)
;
    }
}


// ************************************************************************* //
