/*--------------------------------*- C++ -*----------------------------------*\
| =========                 |                                                 |
| \\      /  F ield         | OpenFOAM: The Open Source CFD Toolbox           |
|  \\    /   O peration     | Version:  4.x                                   |
|   \\  /    A nd           | Web:      www.OpenFOAM.org                      |
|    \\/     M anipulation  |                                                 |
\*---------------------------------------------------------------------------*/
FoamFile
{
    version     2.0;
    format      ascii;
    class       volVectorField;
    location    "14.5";
    object      impParticleForces;
}
// * * * * * * * * * * * * * * * * * * * * * * * * * * * * * * * * * * * * * //

dimensions      [1 1 -2 0 0 0 0];

internalField   nonuniform List<vector> 
87
(
(0.00244805 7.9137e-06 -3.33683e-05)
(0.00245417 1.17635e-05 -5.03983e-05)
(0.00245349 1.36053e-05 -3.77004e-05)
(0.00245187 1.05834e-05 -5.95549e-05)
(0.00241449 1.33826e-05 -5.11608e-05)
(0.00240398 1.49744e-05 -4.00935e-05)
(0.00242201 -1.32629e-05 -5.32549e-05)
(0.00245336 -1.35713e-05 -5.29187e-05)
(0.00248272 -1.3191e-05 -5.11511e-05)
(0.0024922 -1.23537e-05 -4.84926e-05)
(0.00252368 -9.54634e-06 -4.7489e-05)
(0.00247998 -4.30805e-06 -4.61897e-05)
(0.00248089 3.45053e-07 -4.17103e-05)
(0.00242457 3.28719e-06 -3.41043e-05)
(0.0024263 5.55373e-06 -2.5511e-05)
(0.0023852 -4.91923e-06 -5.06071e-05)
(0.00242664 -4.39644e-06 -5.05947e-05)
(0.0024707 -3.77621e-06 -4.90793e-05)
(0.00248694 -3.38484e-06 -4.69342e-05)
(0.00251409 -8.0016e-07 -4.70982e-05)
(0.00248599 3.01114e-06 -4.93738e-05)
(0.00248109 7.19056e-06 -4.58248e-05)
(0.00243144 9.6514e-06 -3.85249e-05)
(0.00243325 1.16119e-05 -2.94739e-05)
(0.00232791 -2.39723e-06 -4.8594e-05)
(0.00236523 -1.52253e-06 -4.88238e-05)
(0.00239992 -1.11378e-06 -4.76068e-05)
(0.00242161 -3.78036e-07 -4.64995e-05)
(0.00246598 2.02842e-06 -4.70048e-05)
(0.00245477 5.68032e-06 -5.03872e-05)
(0.00243605 9.973e-06 -4.70596e-05)
(0.00238889 1.17601e-05 -4.01685e-05)
(0.00239794 1.36867e-05 -3.21394e-05)
(0.0023926 -1.21921e-05 -4.25964e-05)
(0.00242647 -1.20002e-05 -4.21155e-05)
(0.00246883 -1.1587e-05 -4.04106e-05)
(0.00246385 -1.08959e-05 -3.86069e-05)
(0.00247724 -8.7917e-06 -3.67369e-05)
(0.00245885 -5.3213e-06 -3.51073e-05)
(0.00246613 -1.62496e-06 -3.0687e-05)
(0.00240773 1.01306e-06 -2.55579e-05)
(0.00241446 2.7682e-06 -1.88606e-05)
(0.002354 -4.47955e-06 -4.16733e-05)
(0.00239969 -3.6789e-06 -4.11303e-05)
(0.00244299 -3.04319e-06 -3.95958e-05)
(0.00244213 -3.13287e-06 -3.85125e-05)
(0.00246952 -1.49738e-06 -3.73809e-05)
(0.0024422 1.32499e-06 -3.76445e-05)
(0.00245903 5.22293e-06 -3.40135e-05)
(0.0024044 7.52829e-06 -2.90821e-05)
(0.00241831 9.84417e-06 -2.22169e-05)
(0.00231009 -1.48487e-06 -4.10834e-05)
(0.00233313 -1.05406e-06 -4.0853e-05)
(0.00237038 -5.12234e-07 -3.9684e-05)
(0.00238893 -7.04059e-08 -3.89224e-05)
(0.00241716 1.58236e-06 -3.85321e-05)
(0.00240049 4.0133e-06 -3.91465e-05)
(0.00240462 7.66356e-06 -3.65629e-05)
(0.00236985 9.97817e-06 -3.15454e-05)
(0.00237311 1.17117e-05 -2.54075e-05)
(0.00234599 -1.19227e-05 -3.79369e-05)
(0.00236121 -1.18008e-05 -3.74286e-05)
(0.00241272 -1.13189e-05 -3.599e-05)
(0.00240904 -1.06359e-05 -3.4643e-05)
(0.00242538 -8.85679e-06 -3.27742e-05)
(0.00241322 -6.16435e-06 -3.02425e-05)
(0.00243296 -3.21795e-06 -2.549e-05)
(0.00238161 -6.21844e-07 -2.13537e-05)
(0.00236873 6.93068e-07 -1.70219e-05)
(0.00231193 -4.86464e-06 -3.73618e-05)
(0.00233663 -4.45664e-06 -3.68039e-05)
(0.00237987 -3.7852e-06 -3.56168e-05)
(0.002387 -3.56175e-06 -3.47061e-05)
(0.00241467 -2.14489e-06 -3.33987e-05)
(0.00239671 -1.09569e-07 -3.23097e-05)
(0.0024046 2.89622e-06 -2.8883e-05)
(0.00236734 5.45694e-06 -2.48342e-05)
(0.00236794 7.34371e-06 -2.0236e-05)
(0.00227918 -1.91685e-06 -3.73152e-05)
(0.00229804 -1.53677e-06 -3.69163e-05)
(0.00233847 -8.66043e-07 -3.59634e-05)
(0.00234452 -5.89534e-07 -3.52165e-05)
(0.00236088 6.23612e-07 -3.45289e-05)
(0.00236759 2.69228e-06 -3.39643e-05)
(0.00236382 5.56507e-06 -3.1266e-05)
(0.002337 8.03263e-06 -2.73959e-05)
(0.00234319 9.75887e-06 -2.29493e-05)
)
;

boundaryField
{
    inlet
    {
        type            zeroGradient;
    }
    outlet
    {
        type            zeroGradient;
    }
    wall
    {
        type            zeroGradient;
    }
    procBoundary6to0
    {
        type            processor;
        value           uniform (0.00242139 -1.88315e-06 -3.10969e-05);
    }
    procBoundary6to2
    {
        type            processor;
        value           nonuniform List<vector> 
32
(
(0.00246686 9.9031e-06 -4.33775e-05)
(0.0024929 1.46522e-05 -6.48371e-05)
(0.00248397 1.64122e-05 -4.84746e-05)
(0.00250407 1.2026e-05 -7.67234e-05)
(0.00244471 1.49965e-05 -6.40751e-05)
(0.00243845 1.75226e-05 -4.95718e-05)
(0.00240636 -1.56721e-05 -6.21289e-05)
(0.00246255 -1.59177e-05 -6.31742e-05)
(0.00252335 -1.58683e-05 -6.2227e-05)
(0.00252341 -1.4828e-05 -5.82745e-05)
(0.00255458 -1.08027e-05 -5.84406e-05)
(0.00252269 -2.71807e-06 -6.05371e-05)
(0.00251632 3.20601e-06 -5.58105e-05)
(0.0024563 6.18791e-06 -4.53266e-05)
(0.0024563 6.18791e-06 -4.53266e-05)
(0.0024563 6.18791e-06 -4.53266e-05)
(0.00237684 -7.87947e-06 -5.81578e-05)
(0.00242905 -7.27036e-06 -5.87893e-05)
(0.00250446 -6.33914e-06 -5.78054e-05)
(0.00250647 -6.01174e-06 -5.44572e-05)
(0.00255197 -2.45107e-06 -5.60098e-05)
(0.00252002 3.63589e-06 -6.39254e-05)
(0.00251604 9.49689e-06 -6.16698e-05)
(0.00251604 9.49689e-06 -6.16698e-05)
(0.00251604 9.49689e-06 -6.16698e-05)
(0.00232265 -4.72862e-06 -5.49135e-05)
(0.00236806 -3.77769e-06 -5.53629e-05)
(0.00243926 -2.36845e-06 -5.49052e-05)
(0.00245469 -1.54325e-06 -5.30672e-05)
(0.00249242 1.50184e-06 -5.53417e-05)
(0.00247039 5.75508e-06 -6.22711e-05)
(0.00247039 5.75508e-06 -6.22711e-05)
)
;
    }
    procBoundary6to4
    {
        type            processor;
        value           nonuniform List<vector> 
27
(
(0.00238893 -2.33101e-05 -5.42893e-05)
(0.00244581 -2.42847e-05 -5.48175e-05)
(0.00250423 -2.43675e-05 -5.39789e-05)
(0.00249657 -2.25041e-05 -5.08352e-05)
(0.00252495 -1.97135e-05 -4.81586e-05)
(0.00249322 -1.37099e-05 -4.48822e-05)
(0.00250259 -8.76327e-06 -3.86556e-05)
(0.00243056 -5.74254e-06 -3.07391e-05)
(0.00241833 -3.75902e-06 -2.22057e-05)
(0.00238514 -2.24169e-05 -4.43071e-05)
(0.0024287 -2.28949e-05 -4.38156e-05)
(0.00247254 -2.25736e-05 -4.21713e-05)
(0.00248003 -2.08908e-05 -4.00908e-05)
(0.00250717 -1.83245e-05 -3.72926e-05)
(0.00247172 -1.40672e-05 -3.39448e-05)
(0.00248177 -1.04938e-05 -2.77827e-05)
(0.00241883 -7.90922e-06 -2.18999e-05)
(0.00240893 -6.84621e-06 -1.48493e-05)
(0.0023608 -2.16709e-05 -3.90259e-05)
(0.00237348 -2.15385e-05 -3.83567e-05)
(0.00241826 -2.13033e-05 -3.67224e-05)
(0.00242656 -1.97959e-05 -3.51095e-05)
(0.00245492 -1.75229e-05 -3.25502e-05)
(0.00242975 -1.40401e-05 -2.91222e-05)
(0.0024086 -1.0972e-05 -2.42025e-05)
(0.002376 -8.92123e-06 -1.89256e-05)
(0.00237061 -8.12877e-06 -1.35752e-05)
)
;
    }
    procBoundary6to7
    {
        type            processor;
        value           nonuniform List<vector> 
12
(
(0.00242261 7.51948e-06 -2.48267e-05)
(0.002419 1.24217e-05 -2.89017e-05)
(0.00238632 1.4675e-05 -3.10896e-05)
(0.0023826 4.09883e-06 -2.04727e-05)
(0.00239254 1.00101e-05 -2.37446e-05)
(0.00236332 1.26453e-05 -2.60185e-05)
(0.00238437 2.20744e-06 -1.67027e-05)
(0.00238142 8.83285e-06 -1.94304e-05)
(0.00234364 1.12241e-05 -2.15057e-05)
(0.00235179 6.14777e-07 -1.52143e-05)
(0.00233783 7.1353e-06 -1.81893e-05)
(0.00231081 9.67001e-06 -2.03175e-05)
)
;
    }
}


// ************************************************************************* //
