/*--------------------------------*- C++ -*----------------------------------*\
| =========                 |                                                 |
| \\      /  F ield         | OpenFOAM: The Open Source CFD Toolbox           |
|  \\    /   O peration     | Version:  4.x                                   |
|   \\  /    A nd           | Web:      www.OpenFOAM.org                      |
|    \\/     M anipulation  |                                                 |
\*---------------------------------------------------------------------------*/
FoamFile
{
    version     2.0;
    format      ascii;
    class       volScalarField;
    location    "14.5";
    object      particleRelTemp;
}
// * * * * * * * * * * * * * * * * * * * * * * * * * * * * * * * * * * * * * //

dimensions      [0 0 0 0 0 0 0];

internalField   nonuniform List<scalar> 
87
(
1.75129e-07
-5.22157e-08
4.24529e-08
-9.33983e-08
-1.90198e-08
-2.1689e-08
-3.46431e-07
-3.78655e-07
-3.8953e-07
-3.50194e-07
-3.04655e-07
-2.17327e-07
-1.7676e-07
-1.46682e-07
-3.64588e-08
-3.80062e-07
-3.99758e-07
-4.02109e-07
-3.74382e-07
-3.70341e-07
-2.72132e-07
-2.07162e-07
-1.92333e-07
-1.19518e-07
-3.6099e-07
-3.87597e-07
-3.9385e-07
-3.79918e-07
-3.46103e-07
-2.68861e-07
-2.07875e-07
-2.19768e-07
-1.48244e-07
-3.26814e-07
-3.56002e-07
-3.5452e-07
-3.19114e-07
-2.81938e-07
-2.55562e-07
-2.77613e-07
-2.53376e-07
-1.55494e-07
-3.28326e-07
-3.6433e-07
-3.62485e-07
-3.21305e-07
-2.81305e-07
-2.5797e-07
-2.85261e-07
-3.00827e-07
-2.05132e-07
-3.35506e-07
-3.37135e-07
-3.38442e-07
-3.1137e-07
-2.80381e-07
-2.49214e-07
-2.69263e-07
-2.96695e-07
-2.36917e-07
-3.174e-07
-3.1977e-07
-3.33214e-07
-2.90376e-07
-2.55773e-07
-2.43178e-07
-2.97347e-07
-3.09686e-07
-2.57384e-07
-3.10996e-07
-3.27503e-07
-3.21588e-07
-2.80228e-07
-2.23076e-07
-2.02006e-07
-3.32492e-07
-3.51474e-07
-2.72259e-07
-3.18308e-07
-3.15047e-07
-3.16594e-07
-2.73959e-07
-2.39448e-07
-2.27841e-07
-2.96312e-07
-3.59875e-07
-2.78771e-07
)
;

boundaryField
{
    inlet
    {
        type            calculated;
        value           nonuniform List<scalar> 9(-3.46431e-07 -3.80062e-07 -3.6099e-07 -3.26814e-07 -3.28326e-07 -3.35506e-07 -3.174e-07 -3.10996e-07 -3.18308e-07);
    }
    outlet
    {
        type            calculated;
        value           nonuniform 0();
    }
    wall
    {
        type            calculated;
        value           nonuniform List<scalar> 
57
(
-3.174e-07
-3.10996e-07
-3.18308e-07
-3.1977e-07
-3.27503e-07
-3.15047e-07
-3.33214e-07
-3.21588e-07
-3.16594e-07
-2.90376e-07
-2.80228e-07
-2.73959e-07
-2.55773e-07
-2.23076e-07
-2.39448e-07
-2.43178e-07
-2.02006e-07
-2.27841e-07
-2.97347e-07
-3.32492e-07
-2.96312e-07
-3.09686e-07
-3.51474e-07
-3.59875e-07
-2.57384e-07
-2.72259e-07
-2.78771e-07
-3.6099e-07
-3.35506e-07
-3.18308e-07
-3.87597e-07
-3.37135e-07
-3.15047e-07
-3.9385e-07
-3.38442e-07
-3.16594e-07
-3.79918e-07
-3.1137e-07
-2.73959e-07
-3.46103e-07
-2.80381e-07
-2.39448e-07
-2.68861e-07
-2.49214e-07
-2.27841e-07
-9.33983e-08
-2.07875e-07
-2.69263e-07
-2.96312e-07
-1.90198e-08
-2.19768e-07
-2.96695e-07
-3.59875e-07
-2.1689e-08
-1.48244e-07
-2.36917e-07
-2.78771e-07
)
;
    }
    procBoundary6to0
    {
        type            processor;
        value           uniform 6.83314e-07;
    }
    procBoundary6to2
    {
        type            processor;
        value           nonuniform List<scalar> 
32
(
3.2931e-07
2.21789e-07
1.72155e-07
2.28273e-07
1.71923e-07
1.29325e-07
-3.77871e-07
-4.2129e-07
-4.74187e-07
-4.56862e-07
-3.82175e-07
-2.2654e-07
2.06091e-09
5.90067e-08
5.90067e-08
5.90067e-08
-3.59422e-07
-4.64449e-07
-5.11989e-07
-5.20864e-07
-4.49828e-07
-2.10118e-07
-5.51843e-08
-5.51843e-08
-5.51843e-08
-3.60996e-07
-4.43382e-07
-5.36895e-07
-4.89159e-07
-4.40861e-07
-2.22241e-07
-2.22241e-07
)
;
    }
    procBoundary6to4
    {
        type            processor;
        value           nonuniform List<scalar> 
27
(
-2.98277e-07
-3.42658e-07
-3.70358e-07
-3.33147e-07
-2.37921e-07
-1.50652e-07
-7.29254e-08
-1.51572e-08
2.77126e-07
-3.06756e-07
-3.3318e-07
-3.45571e-07
-3.21391e-07
-2.75745e-07
-2.34494e-07
-2.13987e-07
-1.67674e-07
-4.41736e-08
-3.0563e-07
-3.06073e-07
-3.20288e-07
-2.94002e-07
-2.71695e-07
-2.50187e-07
-2.59079e-07
-2.42742e-07
-1.97406e-07
)
;
    }
    procBoundary6to7
    {
        type            processor;
        value           nonuniform List<scalar> 
12
(
1.8485e-07
-1.49945e-08
-5.58764e-08
-1.25815e-08
-7.68789e-08
-1.28432e-07
-1.3645e-07
-1.73318e-07
-2.04439e-07
-1.93259e-07
-2.31582e-07
-2.50023e-07
)
;
    }
}


// ************************************************************************* //
