/*--------------------------------*- C++ -*----------------------------------*\
| =========                 |                                                 |
| \\      /  F ield         | OpenFOAM: The Open Source CFD Toolbox           |
|  \\    /   O peration     | Version:  4.x                                   |
|   \\  /    A nd           | Web:      www.OpenFOAM.org                      |
|    \\/     M anipulation  |                                                 |
\*---------------------------------------------------------------------------*/
FoamFile
{
    version     2.0;
    format      ascii;
    class       volScalarField;
    location    "14.5";
    object      thCond;
}
// * * * * * * * * * * * * * * * * * * * * * * * * * * * * * * * * * * * * * //

dimensions      [1 1 -3 -1 0 0 0];

internalField   nonuniform List<scalar> 
87
(
190.412
190.549
190.455
190.824
190.824
190.787
190.716
190.738
190.743
190.369
190.121
190.265
190.128
190.174
190.013
191.217
190.85
190.744
190.362
190.31
190.214
190.204
190.123
190.113
191.569
191.1
191.015
190.672
190.393
190.216
190.412
190.418
190.321
190.857
190.698
190.509
190.262
190.29
190.146
190.087
190.136
189.966
191.25
190.89
190.687
190.431
190.371
190.336
190.175
190.288
190.064
191.554
191.117
190.94
190.509
190.369
190.373
190.399
190.487
190.413
191.22
191.024
190.698
190.359
190.215
190.102
189.939
189.991
190.324
191.373
191.154
190.778
190.568
190.196
190.26
190.303
190.36
190.142
191.712
191.25
190.949
190.658
190.562
190.253
190.609
190.641
190.424
)
;

boundaryField
{
    inlet
    {
        type            zeroGradient;
    }
    outlet
    {
        type            zeroGradient;
    }
    wall
    {
        type            zeroGradient;
    }
    procBoundary6to0
    {
        type            processor;
        value           uniform 190.746;
    }
    procBoundary6to2
    {
        type            processor;
        value           nonuniform List<scalar> 
32
(
190.887
190.848
190.718
191.017
191.214
190.87
191.429
191.004
190.734
190.682
190.602
190.562
190.448
190.401
190.401
190.401
191.421
191.125
190.802
190.782
190.649
190.574
190.422
190.422
190.422
191.72
191.325
191.118
190.893
190.927
190.771
190.771
)
;
    }
    procBoundary6to4
    {
        type            processor;
        value           nonuniform List<scalar> 
27
(
191.317
190.986
190.621
190.496
190.258
190.219
189.969
190.219
190.213
191.027
190.772
190.586
190.161
190.026
190.035
189.832
189.985
190.045
190.94
190.774
190.634
190.219
190.102
189.878
190.227
190.26
190.169
)
;
    }
    procBoundary6to7
    {
        type            processor;
        value           nonuniform List<scalar> 
12
(
190.104
190.459
190.705
190.15
190.202
190.362
189.858
190.028
190.332
190.022
190.151
190.258
)
;
    }
}


// ************************************************************************* //
