/*--------------------------------*- C++ -*----------------------------------*\
| =========                 |                                                 |
| \\      /  F ield         | OpenFOAM: The Open Source CFD Toolbox           |
|  \\    /   O peration     | Version:  4.x                                   |
|   \\  /    A nd           | Web:      www.OpenFOAM.org                      |
|    \\/     M anipulation  |                                                 |
\*---------------------------------------------------------------------------*/
FoamFile
{
    version     2.0;
    format      ascii;
    class       volVectorField;
    location    "14.5";
    object      UsPrev;
}
// * * * * * * * * * * * * * * * * * * * * * * * * * * * * * * * * * * * * * //

dimensions      [0 1 -1 0 0 0 0];

internalField   nonuniform List<vector> 
87
(
(-2.2042e-05 -5.12394e-06 8.41599e-06)
(-2.80019e-05 -2.9316e-06 1.24898e-05)
(-1.83504e-05 -2.63266e-06 9.37322e-06)
(-1.96653e-05 1.1214e-06 7.87698e-06)
(-1.48865e-05 -4.2114e-07 8.71805e-06)
(-8.29406e-06 1.11359e-06 5.28275e-06)
(-7.35776e-06 2.36317e-06 -4.26966e-06)
(-1.27083e-05 5.08455e-06 -7.18021e-06)
(-2.27573e-05 4.61827e-06 -5.38724e-06)
(-3.27995e-05 3.70675e-06 -4.9957e-06)
(-4.23611e-05 3.0045e-06 1.16017e-06)
(-4.12516e-05 -4.04677e-07 3.83376e-06)
(-3.48565e-05 -1.38959e-06 7.11114e-06)
(-2.88808e-05 -1.73884e-06 7.83374e-06)
(-2.31639e-05 -2.30937e-06 5.79698e-06)
(-6.36974e-06 2.46722e-06 -2.91665e-06)
(-1.11611e-05 3.48404e-06 -7.34736e-06)
(-2.01624e-05 3.51981e-06 -7.36156e-06)
(-3.50848e-05 8.35094e-07 -5.78559e-06)
(-4.33831e-05 9.01416e-07 -2.37256e-06)
(-4.52963e-05 2.48458e-07 3.58803e-06)
(-3.31705e-05 -2.98466e-06 9.15837e-06)
(-2.88299e-05 -2.29681e-06 9.41602e-06)
(-2.12016e-05 -1.32319e-06 6.64133e-06)
(-1.51113e-06 1.09263e-06 -2.88743e-06)
(-7.35155e-06 3.36902e-06 -4.68398e-06)
(-8.86719e-06 -2.51537e-07 -8.7284e-07)
(-1.89532e-05 1.45991e-06 -3.57968e-06)
(-1.98367e-05 1.00182e-06 -1.51335e-06)
(-2.55113e-05 -6.40203e-07 4.14976e-06)
(-2.28202e-05 -2.12189e-06 6.83829e-06)
(-1.62701e-05 -2.30854e-06 1.26007e-06)
(-1.27429e-05 -5.11869e-08 3.03797e-06)
(-3.61408e-06 1.44788e-06 -1.70495e-06)
(-1.1872e-05 2.80529e-06 -4.58631e-06)
(-2.204e-05 3.28706e-06 -3.52302e-06)
(-2.53235e-05 3.33452e-06 -3.14599e-06)
(-2.83201e-05 2.35822e-06 -4.74032e-07)
(-3.21656e-05 3.52963e-08 2.20424e-06)
(-3.06064e-05 -4.96983e-07 3.30754e-06)
(-2.60418e-05 -3.19957e-06 4.79188e-06)
(-2.07161e-05 -2.09274e-06 2.41456e-06)
(-3.88718e-06 2.81571e-07 -2.22644e-06)
(-1.1624e-05 3.43938e-06 -4.47872e-06)
(-2.03844e-05 3.71874e-06 -5.42845e-06)
(-2.87698e-05 2.63562e-06 -6.23034e-06)
(-2.87128e-05 1.24531e-06 -2.77993e-06)
(-3.56953e-05 -1.3373e-06 6.44714e-06)
(-2.86136e-05 -1.19015e-06 2.43555e-06)
(-2.72789e-05 6.95887e-07 4.74333e-06)
(-2.02399e-05 -1.7214e-06 4.07021e-06)
(-2.6822e-07 -1.06626e-06 -3.7941e-07)
(-4.62698e-06 2.63935e-07 -8.29482e-07)
(-1.01255e-05 1.13889e-09 -2.3341e-06)
(-1.36785e-05 -1.57052e-06 -5.76821e-06)
(-1.74056e-05 1.94851e-06 -4.74362e-06)
(-1.56892e-05 7.87598e-07 1.69735e-06)
(-1.45929e-05 -2.71015e-06 1.65474e-06)
(-1.42122e-05 -2.48002e-06 4.03503e-06)
(-1.43763e-05 -3.9006e-07 2.23768e-06)
(-3.49634e-06 1.13049e-06 -8.59182e-07)
(-6.75828e-06 8.36417e-07 -1.14029e-06)
(-1.47239e-05 7.08496e-07 -1.61596e-06)
(-1.69164e-05 1.70878e-06 -1.85251e-07)
(-1.90986e-05 8.43235e-07 3.16846e-07)
(-2.26768e-05 -3.25393e-07 1.26536e-07)
(-2.73544e-05 -4.96458e-06 -2.60133e-07)
(-1.64924e-05 2.38234e-07 2.92194e-07)
(-1.44153e-05 -3.5702e-06 -2.14821e-06)
(-3.78017e-06 -3.77023e-07 -1.72186e-06)
(-6.8537e-06 5.08079e-07 -1.73563e-06)
(-7.47031e-06 1.80496e-06 -1.46722e-06)
(-1.6121e-05 -9.24826e-07 -1.84745e-07)
(-1.84009e-05 6.44905e-07 1.43387e-06)
(-2.0252e-05 2.06473e-06 1.69449e-06)
(-3.53903e-05 -1.56288e-05 -8.33853e-07)
(-2.01549e-05 -1.78525e-07 3.17462e-06)
(-1.14786e-05 -3.57601e-06 2.05215e-06)
(-4.19557e-06 -1.19084e-06 -7.12317e-07)
(-4.15343e-06 6.49687e-07 7.33298e-07)
(-5.20035e-06 7.03981e-07 -3.98392e-07)
(-5.11999e-06 1.16356e-06 -1.77445e-07)
(-1.13652e-05 6.42177e-07 -3.77346e-06)
(-1.39296e-05 5.22232e-07 4.10865e-07)
(-1.31072e-05 -1.39093e-06 -8.71793e-07)
(-1.34938e-05 -8.59319e-07 1.66793e-06)
(-9.65304e-06 -2.53639e-06 3.26985e-06)
)
;

boundaryField
{
    inlet
    {
        type            calculated;
        value           uniform (0 0 0);
    }
    outlet
    {
        type            calculated;
        value           nonuniform 0();
    }
    wall
    {
        type            calculated;
        value           uniform (0 0 0);
    }
    procBoundary6to0
    {
        type            processor;
        value           uniform (0 0 0);
    }
    procBoundary6to2
    {
        type            processor;
        value           uniform (0 0 0);
    }
    procBoundary6to4
    {
        type            processor;
        value           uniform (0 0 0);
    }
    procBoundary6to7
    {
        type            processor;
        value           uniform (0 0 0);
    }
}


// ************************************************************************* //
