/*--------------------------------*- C++ -*----------------------------------*\
| =========                 |                                                 |
| \\      /  F ield         | OpenFOAM: The Open Source CFD Toolbox           |
|  \\    /   O peration     | Version:  4.x                                   |
|   \\  /    A nd           | Web:      www.OpenFOAM.org                      |
|    \\/     M anipulation  |                                                 |
\*---------------------------------------------------------------------------*/
FoamFile
{
    version     2.0;
    format      ascii;
    class       volScalarField;
    location    "14.5";
    object      voidfractionPrev;
}
// * * * * * * * * * * * * * * * * * * * * * * * * * * * * * * * * * * * * * //

dimensions      [0 0 0 0 0 0 0];

internalField   nonuniform List<scalar> 
87
(
0.462592
0.464413
0.463163
0.46806
0.468055
0.467569
0.466627
0.466928
0.466988
0.462012
0.458696
0.460618
0.458783
0.4594
0.45724
0.473228
0.468397
0.467005
0.461919
0.461226
0.459933
0.459806
0.458714
0.458582
0.47783
0.471697
0.470575
0.466041
0.462331
0.459963
0.462586
0.462673
0.461373
0.468502
0.46639
0.463877
0.460589
0.460955
0.459028
0.458234
0.458893
0.456608
0.473659
0.468931
0.46625
0.462845
0.462041
0.461573
0.459413
0.460927
0.457926
0.477628
0.471917
0.469592
0.463885
0.462014
0.462066
0.462413
0.463587
0.462599
0.473277
0.4707
0.466387
0.461876
0.459948
0.45843
0.456236
0.456945
0.461412
0.475276
0.472402
0.467454
0.464667
0.459702
0.460551
0.461131
0.461889
0.458974
0.479683
0.473669
0.469704
0.465863
0.464584
0.460464
0.465213
0.465639
0.462753
)
;

boundaryField
{
    inlet
    {
        type            fixedValue;
        value           uniform 1;
    }
    outlet
    {
        type            fixedValue;
        value           nonuniform 0();
    }
    wall
    {
        type            zeroGradient;
    }
    procBoundary6to0
    {
        type            processor;
        value           uniform 1;
    }
    procBoundary6to2
    {
        type            processor;
        value           uniform 1;
    }
    procBoundary6to4
    {
        type            processor;
        value           uniform 1;
    }
    procBoundary6to7
    {
        type            processor;
        value           uniform 1;
    }
}


// ************************************************************************* //
