/*--------------------------------*- C++ -*----------------------------------*\
| =========                 |                                                 |
| \\      /  F ield         | OpenFOAM: The Open Source CFD Toolbox           |
|  \\    /   O peration     | Version:  4.x                                   |
|   \\  /    A nd           | Web:      www.OpenFOAM.org                      |
|    \\/     M anipulation  |                                                 |
\*---------------------------------------------------------------------------*/
FoamFile
{
    version     2.0;
    format      ascii;
    class       volScalarField;
    location    "37";
    object      KslNext;
}
// * * * * * * * * * * * * * * * * * * * * * * * * * * * * * * * * * * * * * //

dimensions      [1 -3 -1 0 0 0 0];

internalField   nonuniform List<scalar> 
114
(
6298.69
3151.41
5567.4
3044.52
5150.67
2898.85
3402.55
8028.45
3331.16
6928.02
3277.48
6369.24
3204.84
6098.95
3107.93
3347.32
7536.91
3226.12
6186.39
3138.93
5526.75
3035.99
5162.24
2919.88
3294.58
6746.22
3092.04
5269.7
2907.3
4495.46
2734.1
4048.87
2624.11
13179.1
3690.61
15639.3
3572.75
3446.03
9861.52
3596.55
11615
3693.27
14150.3
3731.29
18469
3677.76
3410.4
9177.78
3524.61
9674.36
3543.62
10172.8
3534.98
11072
3458.23
3336.62
7572.6
3297.54
6561.62
3172.25
5925.33
3083.94
5553.38
2973.42
38371.9
3724.68
3500.06
10383.2
3694.22
14063.3
3787.73
20704.2
3824.25
39353.2
3815.15
3439.17
9908.34
3629.32
12467.2
3706.08
16083.8
3739.08
24308.8
3706.61
3368.76
8101.79
3384.12
7527.88
3304.11
7011.49
3286.23
6838.86
3194.23
3509.71
11429.3
3759.03
17435.3
3838.31
28958.3
3859.59
67343.7
3462.04
9905.51
3652.3
11929.1
3691.24
13940.1
3655.72
3359.32
7974.68
3394.15
7545.52
3345.06
7135.68
)
;

boundaryField
{
    inlet
    {
        type            zeroGradient;
    }
    outlet
    {
        type            zeroGradient;
    }
    wall
    {
        type            zeroGradient;
    }
    procBoundary2to0
    {
        type            processor;
        value           uniform 0;
    }
    procBoundary2to3
    {
        type            processor;
        value           uniform 0;
    }
    procBoundary2to6
    {
        type            processor;
        value           uniform 0;
    }
}


// ************************************************************************* //
