/*--------------------------------*- C++ -*----------------------------------*\
| =========                 |                                                 |
| \\      /  F ield         | OpenFOAM: The Open Source CFD Toolbox           |
|  \\    /   O peration     | Version:  4.x                                   |
|   \\  /    A nd           | Web:      www.OpenFOAM.org                      |
|    \\/     M anipulation  |                                                 |
\*---------------------------------------------------------------------------*/
FoamFile
{
    version     2.0;
    format      ascii;
    class       volScalarField;
    location    "37";
    object      magGField;
}
// * * * * * * * * * * * * * * * * * * * * * * * * * * * * * * * * * * * * * //

dimensions      [1 -2 -1 0 0 0 0];

internalField   nonuniform List<scalar> 
114
(
55.0499
111.569
63.37
116.687
68.537
121.584
99.0338
42.1801
103.586
50.1008
107.12
55.0861
110.208
57.4791
113.124
99.9986
44.6468
106.111
55.6878
111.811
63.356
116.548
68.2353
121
100.213
49.2039
109.342
64.4393
118.83
76.9884
127.463
86.0589
133.738
26.5498
95.6418
22.2798
97.6071
97.5303
34.5102
96.558
29.8961
95.111
24.6112
94.0986
18.8009
94.7415
98.0295
36.8308
98.2171
35.7398
98.6592
34.2737
99.5097
31.4731
101.254
98.4912
43.9067
103.078
51.6803
107.777
57.9639
112.083
61.9956
116.095
8.79286
90.5572
95.5309
32.579
93.001
24.3104
90.8833
16.4352
89.349
8.58683
88.7409
96.5765
33.8786
94.443
27.3274
92.8084
21.1722
91.9106
13.9724
92.0008
97.2511
40.6686
99.3603
44.5606
102.007
48.0227
103.317
49.3539
105.79
94.7762
29.3419
90.3918
19.3007
88.0906
11.5149
86.7272
4.8817
94.9522
33.559
92.7513
28.1657
91.7936
23.9621
91.8881
96.4452
40.9003
98.1827
43.8553
100.057
46.3513
)
;

boundaryField
{
    inlet
    {
        type            calculated;
        value           uniform 67;
    }
    outlet
    {
        type            calculated;
        value           nonuniform 0();
    }
    wall
    {
        type            calculated;
        value           uniform 0;
    }
    procBoundary2to0
    {
        type            processor;
        value           nonuniform List<scalar> 
44
(
54.7257
111.388
62.1433
115.99
66.5253
118.035
101.011
44.7982
106.759
106.759
31.9843
96.0236
26.4331
95.1229
19.4761
95.2942
97.169
34.8974
97.4389
31.9843
96.0236
96.0236
12.7261
90.2612
13.3018
92.2791
95.2558
30.0081
92.4214
20.0751
90.4573
12.7261
90.2612
90.2612
0.523787
85.7521
95.03
28.7742
89.8156
15.2524
87.3064
5.59817
86.0623
0.523787
)
;
    }
    procBoundary2to3
    {
        type            processor;
        value           nonuniform List<scalar> 
12
(
70.6286
57.7193
71.0386
91.8839
18.2461
13.9869
28.2102
63.7828
5.08183
1.35933
7.75176
49.1924
)
;
    }
    procBoundary2to6
    {
        type            processor;
        value           nonuniform List<scalar> 
32
(
85.8668
21.1279
93.2508
102.183
48.2911
104.26
92.0519
27.2371
87.4992
13.6675
84.1755
3.84232
82.862
85.8668
21.1279
3.37421e-05
94.3193
31.0141
91.0257
21.9608
88.572
13.9531
21.1279
102.183
87.1862
96.1226
40.1964
96.8332
41.6698
96.6009
102.183
40.7243
)
;
    }
}


// ************************************************************************* //
