/*--------------------------------*- C++ -*----------------------------------*\
| =========                 |                                                 |
| \\      /  F ield         | OpenFOAM: The Open Source CFD Toolbox           |
|  \\    /   O peration     | Version:  4.x                                   |
|   \\  /    A nd           | Web:      www.OpenFOAM.org                      |
|    \\/     M anipulation  |                                                 |
\*---------------------------------------------------------------------------*/
FoamFile
{
    version     2.0;
    format      ascii;
    class       volScalarField;
    location    "37";
    object      p;
}
// * * * * * * * * * * * * * * * * * * * * * * * * * * * * * * * * * * * * * //

dimensions      [1 -1 -2 0 0 0 0];

internalField   nonuniform List<scalar> 
114
(
5707.86
5728.54
5689.45
5721.49
5670.77
5714.74
5742.55
5725.58
5735.74
5707.98
5728.77
5689.84
5721.78
5671.38
5714.98
5742.21
5725.4
5735.49
5707.76
5728.53
5689.63
5721.56
5671.06
5714.75
5741.87
5725.26
5735.21
5707.7
5728.29
5689.73
5721.39
5671.36
5714.63
3811.75
3844.21
3792.86
3837.25
3865.56
3848.25
3858.73
3830.4
3851.6
3812.16
3844.46
3793.48
3837.48
3865.19
3847.99
3858.35
3830.05
3851.22
3811.77
3844.09
3793.08
3837.17
3864.69
3847.76
3857.91
3829.97
3850.85
3811.86
3843.82
3793.37
3836.99
1915.51
1959.27
1988.36
1970.69
1981.37
1952.96
1974.01
1934.88
1966.66
1916.45
1959.54
1988.05
1970.61
1981.16
1952.7
1973.84
1934.5
1966.62
1915.95
1959.49
1987.5
1970.28
1980.56
1952.51
1973.34
1934.54
1966.18
1916.02
1959.25
111.244
93.4306
104.058
75.3916
96.5842
57.2322
89.115
39.046
110.762
93.0886
103.596
75.0518
96.1356
56.7374
88.6728
110.143
92.7752
103.076
74.8898
95.7259
56.6714
)
;

boundaryField
{
    inlet
    {
        type            calculated;
        value           nonuniform List<scalar> 
12
(
5742.55
5742.21
5741.87
3865.56
3865.19
3864.69
1988.36
1988.05
1987.5
111.244
110.762
110.143
)
;
    }
    outlet
    {
        type            calculated;
        value           nonuniform 0();
    }
    wall
    {
        type            calculated;
        value           nonuniform List<scalar> 
66
(
6681.51
6681.17
6680.83
6664.54
6664.36
6664.22
6674.69
6674.45
6674.17
6646.82
6646.94
6646.72
6646.66
6667.5
6667.73
6667.49
6667.25
6628.41
6628.8
6628.59
6628.68
6660.45
6660.73
6660.52
6660.35
6609.73
6610.34
6610.02
6610.32
6653.69
6653.94
6653.71
6653.58
5741.87
3864.69
1987.5
110.143
5725.26
3847.76
1970.28
92.7752
5735.21
3857.91
1980.56
103.076
5707.7
3829.97
1952.51
74.8898
5728.29
3850.85
1973.34
95.7259
5689.73
3811.86
1934.54
56.6714
5721.39
3843.82
1966.18
5671.36
3793.37
1916.02
5714.63
3836.99
1959.25
)
;
    }
    procBoundary2to0
    {
        type            processor;
        value           nonuniform List<scalar> 
44
(
5707.86
5728.48
5689.58
5721.53
5671.34
5714.86
5742.52
5725.61
5735.78
5735.78
3830.31
3851.52
3812.03
3844.4
3793.55
3837.58
3865.62
3848.16
3858.71
3830.31
3851.52
3851.52
1934.19
1966.44
1915.6
1959.27
1988.49
1970.74
1981.44
1952.73
1973.94
1934.19
1966.44
1966.44
39.0827
81.562
111.249
93.5465
104.218
75.4955
96.6055
57.3654
88.9179
39.0827
)
;
    }
    procBoundary2to3
    {
        type            processor;
        value           nonuniform List<scalar> 
12
(
5651.78
5652.91
5652.1
5652.6
3773.8
3775.04
3774.1
3774.63
1896.97
1898.39
1897.28
1897.35
)
;
    }
    procBoundary2to6
    {
        type            processor;
        value           nonuniform List<scalar> 
32
(
81.8097
38.1139
81.4524
88.4209
38.2918
81.3954
-1766.11
-1784.39
-1773.54
-1801.98
-1781.24
-1820.07
-1789.03
81.8097
38.1139
-1837.97
-1766.68
-1784.54
-1773.88
-1802.37
-1781.38
-1820.63
38.1139
88.4209
-1788.86
-1767.36
-1784.87
-1774.49
-1802.51
-1781.84
88.4209
-1820.75
)
;
    }
}


// ************************************************************************* //
