/*--------------------------------*- C++ -*----------------------------------*\
| =========                 |                                                 |
| \\      /  F ield         | OpenFOAM: The Open Source CFD Toolbox           |
|  \\    /   O peration     | Version:  4.x                                   |
|   \\  /    A nd           | Web:      www.OpenFOAM.org                      |
|    \\/     M anipulation  |                                                 |
\*---------------------------------------------------------------------------*/
FoamFile
{
    version     2.0;
    format      ascii;
    class       volVectorField;
    location    "16.5";
    object      DDtUrel;
}
// * * * * * * * * * * * * * * * * * * * * * * * * * * * * * * * * * * * * * //

dimensions      [0 1 -2 0 0 0 0];

internalField   nonuniform List<vector> 
132
(
(1.89261e-05 -1.28434e-05 3.49683e-05)
(-4.23579e-05 -2.45342e-06 1.16115e-05)
(-8.52668e-05 1.46283e-06 -1.81416e-05)
(-0.000144525 -1.26379e-06 -5.51581e-05)
(-0.000238909 -6.00332e-06 -0.000114868)
(-0.000386742 -2.7251e-05 -0.000213426)
(-0.000641747 -4.99181e-05 -0.000351083)
(-0.0010014 -9.01929e-05 -0.000576759)
(-0.00153272 -0.000113666 -0.000766285)
(4.13076e-05 -7.76292e-06 3.23443e-05)
(-2.0668e-05 4.32183e-06 7.87927e-06)
(-5.19655e-05 1.37505e-05 -2.33093e-05)
(-0.000125915 2.90451e-05 -6.53728e-05)
(-0.000207713 4.29202e-05 -0.000131127)
(-0.000379985 8.21598e-05 -0.000253896)
(-0.000655339 0.000130089 -0.000418634)
(-0.00108297 0.000264092 -0.000734807)
(-0.00169414 0.00042935 -0.001008)
(6.77935e-05 -3.9208e-06 5.16229e-05)
(8.73793e-06 9.25794e-06 2.54542e-05)
(-1.23439e-05 2.40488e-05 -1.52383e-06)
(-8.6581e-05 5.41447e-05 -5.75093e-05)
(-0.000154588 8.47519e-05 -0.000128375)
(-0.000352645 0.000184263 -0.000278706)
(-0.000640157 0.00028792 -0.000463594)
(-0.00125427 0.000654145 -0.000880828)
(-0.00199997 0.000962046 -0.00118774)
(9.86813e-05 -4.48689e-06 8.81581e-05)
(3.63227e-05 1.31035e-05 5.54334e-05)
(4.86571e-05 2.20967e-05 2.97591e-05)
(-4.10447e-05 6.9213e-05 -3.28718e-05)
(-4.0989e-05 0.000100123 -8.79523e-05)
(-0.000305358 0.000240835 -0.000275618)
(-0.000460486 0.000355741 -0.000459142)
(-0.00149998 0.000856603 -0.00100652)
(-0.00274588 0.00128315 -0.00145366)
(-7.36601e-05 -6.64759e-06 -2.59792e-05)
(-0.000134183 -1.38381e-05 -5.13843e-05)
(-0.000228722 -2.36227e-05 -9.54438e-05)
(-0.000383764 -6.02256e-05 -0.000159177)
(-0.000632671 -9.93506e-05 -0.000242556)
(-0.000984127 -0.000178903 -0.000399055)
(-0.00149769 -0.000239447 -0.000499677)
(2.39042e-05 -1.47588e-05 9.52151e-06)
(-2.39228e-05 -9.00146e-07 -5.4907e-06)
(-6.12684e-05 7.27368e-06 -2.64539e-05)
(-0.000126011 1.56221e-05 -5.7994e-05)
(-0.00022292 2.7274e-05 -0.000108912)
(-0.000381891 4.88016e-05 -0.000192652)
(-0.000652146 8.64664e-05 -0.000298192)
(-0.00100769 0.000153161 -0.000495428)
(-0.00150184 0.000246406 -0.000644696)
(3.9129e-05 -7.62656e-06 2.84846e-05)
(-5.11818e-06 8.03902e-06 1.13228e-05)
(-3.91816e-05 2.13398e-05 -1.39653e-05)
(-9.79005e-05 4.01289e-05 -5.29017e-05)
(-0.000193535 6.87754e-05 -0.000108735)
(-0.000361274 0.000142283 -0.000205423)
(-0.000661796 0.000248225 -0.000335929)
(-0.00112463 0.00048374 -0.000549625)
(-0.0016697 0.000720076 -0.00073144)
(6.74561e-05 -6.53213e-06 5.46366e-05)
(1.0343e-05 9.61802e-06 3.95898e-05)
(1.0219e-06 1.52272e-05 9.59061e-06)
(-6.34322e-05 5.31773e-05 -3.85058e-05)
(-0.000127351 9.18505e-05 -8.69819e-05)
(-0.000322365 0.000194999 -0.000207833)
(-0.000606718 0.000327614 -0.000343003)
(-0.00128364 0.000652691 -0.000602293)
(-0.00210716 0.000970275 -0.000829221)
(-0.000233733 -4.86267e-05 -7.8982e-05)
(-0.000389929 -9.44276e-05 -0.000114897)
(-0.000671273 -0.000150124 -0.000171131)
(-0.00101208 -0.00026406 -0.000227142)
(-0.00145639 -0.000371108 -0.000239787)
(4.04121e-05 -6.48797e-06 -1.16436e-05)
(-7.05889e-06 -2.70228e-06 -1.63586e-05)
(-4.92387e-05 7.46925e-07 -3.25158e-05)
(-0.000119418 6.10785e-06 -5.6634e-05)
(-0.000218113 1.08487e-05 -0.000100911)
(-0.000384127 3.01277e-05 -0.000148578)
(-0.000662859 5.52984e-05 -0.000223352)
(-0.00100857 0.000161469 -0.000309993)
(-0.00148148 0.00029601 -0.00034691)
(6.25395e-05 -5.06147e-06 6.39874e-06)
(2.23226e-05 6.69941e-06 -4.11782e-06)
(-9.53876e-06 1.45794e-05 -2.89119e-05)
(-7.62832e-05 3.89416e-05 -5.56515e-05)
(-0.00015054 6.26996e-05 -0.000102041)
(-0.000325204 0.000152362 -0.000167857)
(-0.000578738 0.000238533 -0.000264611)
(-0.00110271 0.000609757 -0.000379246)
(-0.00173638 0.000913935 -0.000419352)
(0.000111432 -1.10515e-05 3.47216e-05)
(6.17452e-05 8.54284e-06 2.74474e-05)
(5.28886e-05 1.26059e-05 -4.59049e-06)
(-2.23802e-05 5.35011e-05 -4.06709e-05)
(-3.01701e-05 8.0762e-05 -8.61617e-05)
(-0.000236125 0.000211924 -0.000167787)
(-0.000318687 0.000313194 -0.000284306)
(-0.00126706 0.000806531 -0.00044979)
(-0.00249991 0.00120721 -0.000472223)
(-0.000679816 -0.000189114 -0.000135475)
(-0.0010486 -0.000362278 -0.000160698)
(-0.00153726 -0.000564314 -0.000160291)
(6.53742e-05 -8.37477e-06 -1.71611e-05)
(8.39808e-06 -5.21826e-06 -2.71782e-05)
(-5.06578e-05 -3.48139e-06 -4.33662e-05)
(-0.000130053 -9.99867e-08 -6.03116e-05)
(-0.000250225 1.40337e-06 -8.80502e-05)
(-0.000407455 1.22289e-05 -0.000135283)
(-0.000701069 2.88374e-05 -0.000186162)
(-0.00101143 7.24721e-05 -0.000273975)
(-0.00145808 0.000114586 -0.000338421)
(8.30182e-05 -1.97444e-07 -1.00644e-05)
(3.62652e-05 9.82707e-06 -2.2074e-05)
(-1.39211e-05 1.90981e-05 -4.23896e-05)
(-8.87391e-05 3.78225e-05 -7.29324e-05)
(-0.000188577 6.34895e-05 -0.000107813)
(-0.000355306 0.000137308 -0.000180581)
(-0.000637983 0.000210908 -0.000256398)
(-0.00107563 0.000439749 -0.000418387)
(-0.00163936 0.000646748 -0.000562729)
(0.000103359 -2.39256e-06 1.40734e-05)
(6.17947e-05 1.30368e-05 5.61624e-06)
(3.4254e-05 2.02659e-05 -2.01562e-05)
(-3.05208e-05 5.43617e-05 -7.19661e-05)
(-8.10317e-05 8.96574e-05 -0.000104313)
(-0.00025538 0.000199925 -0.000228268)
(-0.000482164 0.000310996 -0.000311151)
(-0.00115991 0.000654041 -0.000705463)
(-0.00205582 0.000961995 -0.000925334)
)
;

boundaryField
{
    inlet
    {
        type            calculated;
        value           nonuniform 0();
    }
    outlet
    {
        type            calculated;
        value           nonuniform List<vector> 
16
(
(-0.00288654 -6.69568e-05 -0.000404923)
(-0.00334069 0.00154621 -0.00199401)
(-0.00336608 0.00341631 -0.00243195)
(-0.0106719 0.00410327 -0.00357491)
(-0.00293177 -0.000355215 -0.000742532)
(-0.00207464 -0.000126243 -0.00110589)
(-0.00139341 0.000835272 -0.000844756)
(-0.00295747 0.00108127 -0.00104485)
(-0.00176211 -0.000372015 -4.64187e-05)
(-0.00231798 0.00158995 0.000313615)
(-0.0027331 0.00430545 0.000785605)
(-0.0113972 0.0048802 0.00177393)
(-0.00272289 -0.00130656 0.00024452)
(-0.00203843 0.000144751 -0.000379642)
(-0.00244919 0.00116341 -0.00104607)
(-0.00487381 0.00217428 -0.00413572)
)
;
    }
    wall
    {
        type            calculated;
        value           nonuniform List<vector> 
66
(
(0.000115787 4.82635e-06 -8.03873e-05)
(0.000213079 3.60335e-05 -0.000124622)
(0.000272431 -2.56612e-05 5.53838e-05)
(-7.88521e-05 6.10852e-06 -6.04453e-05)
(9.7263e-05 5.81809e-05 -0.000118872)
(9.5234e-05 6.28821e-05 7.97365e-05)
(-0.00015327 -1.45414e-05 -8.97827e-05)
(1.64222e-05 6.7604e-05 -0.000115626)
(0.000245526 -3.99162e-05 8.4871e-05)
(-0.000206572 1.67423e-05 -3.90907e-05)
(-9.97801e-05 7.77259e-05 -0.000153541)
(7.49405e-05 0.000104151 -0.000227941)
(-0.000481786 -3.91898e-05 1.75e-05)
(-0.000233075 1.99825e-05 -7.3985e-05)
(0.000492744 -4.59319e-05 0.000147372)
(-0.000227154 6.24209e-06 -7.6389e-05)
(-0.000218975 0.00028377 -0.000202326)
(0.000161465 0.000352339 -0.000692607)
(-0.00051919 0.000219633 -0.000132766)
(-0.00102292 -2.97396e-05 0.000107268)
(-0.000600733 -0.000125913 4.8236e-07)
(0.000952752 -0.000140688 0.000448129)
(-0.000506528 -0.000342301 -7.03304e-06)
(-0.000268315 1.12096e-05 -0.000144184)
(-0.000522535 0.00045837 -0.000158498)
(-0.000382601 0.000956878 -0.00293302)
(-0.00272289 -0.00130656 0.00024452)
(-0.00203843 0.000144751 -0.000379642)
(-0.00244919 0.00116341 -0.00104607)
(-0.00487381 0.00217428 -0.00413572)
(0.000318286 -3.33464e-05 0.000459103)
(5.65761e-06 -5.11978e-05 0.000184568)
(0.000556841 -0.000155896 0.000161255)
(0.000272431 -2.56612e-05 5.53838e-05)
(-8.26249e-05 6.7182e-05 0.000107764)
(-0.000333303 4.12108e-05 0.000162212)
(0.000205886 4.7256e-05 0.000233313)
(9.5234e-05 6.28821e-05 7.97365e-05)
(0.000728169 -0.000127427 0.000230969)
(-2.59572e-06 -0.000121185 0.00012243)
(0.000677118 -0.000144401 8.73192e-05)
(0.000245526 -3.99162e-05 8.4871e-05)
(-0.000105023 0.000160962 -2.81717e-05)
(-0.000151162 4.07019e-05 -3.74703e-06)
(7.44957e-05 0.000140581 0.000125131)
(7.49405e-05 0.000104151 -0.000227941)
(0.00149105 -0.000282173 0.00048347)
(-6.3823e-05 -3.80198e-05 0.00021465)
(0.00143433 -0.000261587 0.000137702)
(0.000492744 -4.59319e-05 0.000147372)
(-0.00047451 0.00056223 -0.000353153)
(-0.000230828 6.86898e-05 -8.38344e-05)
(-3.94032e-05 0.000579553 0.000253464)
(0.000161465 0.000352339 -0.000692607)
(0.00340854 -0.000787142 0.000948017)
(-0.000497105 -9.5114e-05 0.000213718)
(0.00466447 -0.000766051 7.5836e-05)
(0.000952752 -0.000140688 0.000448129)
(-0.00202887 0.00218868 -0.00170955)
(-0.000685666 9.85388e-05 -9.74387e-05)
(-0.00112565 0.00264743 0.000120859)
(-0.000382601 0.000956878 -0.00293302)
(-0.0106719 0.00410327 -0.00357491)
(-0.00295747 0.00108127 -0.00104485)
(-0.0113972 0.0048802 0.00177393)
(-0.00487381 0.00217428 -0.00413572)
)
;
    }
    procBoundary7to0
    {
        type            processor;
        value           uniform (8.00939e-05 -1.31461e-05 3.16728e-05);
    }
    procBoundary7to1
    {
        type            processor;
        value           uniform (2.15915e-05 -9.54174e-06 3.94834e-05);
    }
    procBoundary7to3
    {
        type            processor;
        value           nonuniform List<vector> 
36
(
(3.02883e-05 -7.11405e-06 5.59788e-05)
(-4.5824e-05 5.5936e-06 3.33057e-05)
(-8.25201e-05 1.0575e-05 4.43325e-07)
(-0.000158946 1.03969e-05 -5.57967e-05)
(-0.000229998 1.36279e-05 -0.000138439)
(-0.000381941 3.60313e-06 -0.000273799)
(-0.000618333 -1.00385e-06 -0.000475434)
(-0.000966817 1.04872e-06 -0.000826488)
(-0.00147844 5.53563e-05 -0.00116505)
(4.79405e-05 -5.20051e-06 6.22516e-05)
(-1.97209e-05 8.41729e-06 3.65996e-05)
(-5.39098e-05 2.05853e-05 2.75404e-06)
(-0.000134489 3.93304e-05 -5.62476e-05)
(-0.000197124 6.55828e-05 -0.000145049)
(-0.000372773 0.000104215 -0.000310438)
(-0.000607526 0.000163847 -0.000554236)
(-0.00112487 0.000316352 -0.00104428)
(-0.00185232 0.000432699 -0.00140011)
(7.66725e-05 -6.08465e-06 7.69967e-05)
(1.22967e-05 1.16817e-05 5.21102e-05)
(-1.46532e-05 3.41008e-05 2.26744e-05)
(-9.57289e-05 6.54371e-05 -4.09687e-05)
(-0.00015142 0.000104084 -0.000134128)
(-0.000350122 0.00019681 -0.000322578)
(-0.000601736 0.000314702 -0.000606281)
(-0.00131448 0.000657838 -0.00111555)
(-0.0022334 0.000939945 -0.00147633)
(0.000124828 -1.04775e-05 9.56044e-05)
(4.97612e-05 1.21341e-05 7.6722e-05)
(4.35744e-05 3.57997e-05 5.47342e-05)
(-4.70565e-05 8.73649e-05 -1.20004e-05)
(-6.01086e-05 0.000132345 -9.466e-05)
(-0.000301038 0.000265621 -0.000319285)
(-0.000462373 0.000416464 -0.000645279)
(-0.00157062 0.000906703 -0.00141305)
(-0.00286105 0.00144731 -0.0021241)
)
;
    }
    procBoundary7to5
    {
        type            processor;
        value           nonuniform List<vector> 
44
(
(-4.78467e-05 -3.89442e-06 2.1298e-05)
(-6.92553e-05 -7.71284e-06 -1.04425e-05)
(-0.00013098 -3.53093e-05 -4.37613e-05)
(-0.000214313 -6.62692e-05 -9.85267e-05)
(-0.000380862 -0.000145954 -0.000183763)
(-0.000644468 -0.000254774 -0.000307349)
(-0.00102547 -0.000488225 -0.00052047)
(-0.00158096 -0.000739857 -0.000710584)
(1.6265e-05 -2.04313e-05 4.33688e-06)
(-2.92016e-05 -9.65137e-06 -6.95946e-06)
(-5.9195e-05 -1.9146e-05 -1.59296e-05)
(-0.000118871 -4.70905e-05 -3.52347e-05)
(-0.000217003 -8.68584e-05 -7.03533e-05)
(-0.000377128 -0.00017684 -0.000123662)
(-0.000653028 -0.000299628 -0.000196466)
(-0.00103694 -0.000527389 -0.000308032)
(-0.00157526 -0.000745573 -0.000375249)
(1.6265e-05 -2.04313e-05 4.33688e-06)
(-2.92016e-05 -9.65137e-06 -6.95946e-06)
(-2.92016e-05 -9.65137e-06 -6.95946e-06)
(-5.9888e-05 -1.60073e-05 -3.51695e-05)
(-0.000123345 -2.97263e-05 -4.8549e-05)
(-0.000175007 -0.000115454 -5.56709e-05)
(-0.000358785 -0.000235687 -7.20805e-05)
(-0.000653676 -0.000379442 -0.000119971)
(-0.00110512 -0.000716727 -0.000108863)
(-0.00167943 -0.00108986 -2.89915e-05)
(4.07085e-05 -1.70939e-05 -2.25245e-05)
(-4.94671e-06 -1.49847e-05 -2.16227e-05)
(-5.9888e-05 -1.60073e-05 -3.51695e-05)
(-0.000123345 -2.97263e-05 -4.8549e-05)
(-0.000123345 -2.97263e-05 -4.8549e-05)
(-0.000228757 -6.67526e-05 -6.91367e-05)
(-0.000396952 -0.000134715 -9.19118e-05)
(-0.000629123 -0.000453435 -6.93041e-05)
(-0.00117213 -0.000870951 -5.84715e-05)
(-0.00182684 -0.0014078 -3.4374e-05)
(8.45679e-05 -2.29109e-05 -1.86323e-05)
(2.67777e-05 -2.50735e-05 -2.55547e-05)
(-3.36342e-05 -2.82869e-05 -3.91512e-05)
(-0.000114097 -4.79799e-05 -4.69052e-05)
(-0.000228757 -6.67526e-05 -6.91367e-05)
(-0.000396952 -0.000134715 -9.19118e-05)
(-0.000396952 -0.000134715 -9.19118e-05)
)
;
    }
    procBoundary7to6
    {
        type            processor;
        value           nonuniform List<vector> 
12
(
(6.91011e-05 -7.86638e-06 4.33683e-05)
(9.14387e-05 -7.68135e-06 5.38199e-05)
(0.000129813 -6.11044e-06 6.56783e-05)
(3.0049e-05 -8.38606e-06 1.99337e-05)
(6.797e-05 -6.81222e-06 3.18384e-05)
(9.94458e-05 -5.31448e-06 4.16053e-05)
(6.40582e-05 -8.2018e-06 9.04288e-06)
(8.21901e-05 -6.25022e-06 1.70162e-05)
(0.000119874 -4.17774e-06 3.04662e-05)
(9.57862e-05 -1.12048e-05 1.79966e-06)
(0.000106202 -7.26175e-06 5.27769e-06)
(0.000104703 -4.49159e-06 1.28206e-05)
)
;
    }
}


// ************************************************************************* //
