/*--------------------------------*- C++ -*----------------------------------*\
| =========                 |                                                 |
| \\      /  F ield         | OpenFOAM: The Open Source CFD Toolbox           |
|  \\    /   O peration     | Version:  4.x                                   |
|   \\  /    A nd           | Web:      www.OpenFOAM.org                      |
|    \\/     M anipulation  |                                                 |
\*---------------------------------------------------------------------------*/
FoamFile
{
    version     2.0;
    format      ascii;
    class       volVectorField;
    location    "16.5";
    object      GField;
}
// * * * * * * * * * * * * * * * * * * * * * * * * * * * * * * * * * * * * * //

dimensions      [1 -2 -1 0 0 0 0];

internalField   nonuniform List<vector> 
132
(
(-5.65515 2.72381 2.52058)
(72.2528 3.76635 5.81602)
(-4.67453 2.94826 3.01601)
(76.2839 2.83685 5.2131)
(-5.45665 2.16788 2.508)
(76.906 2.43833 4.8536)
(-1.07105 0.93236 0.739629)
(76.5129 3.72368 4.91739)
(8.75015 0.638263 -3.26161)
(-2.18005 3.49705 1.33979)
(78.8522 4.3026 6.58521)
(1.64453 4.51826 1.31013)
(85.9096 3.76424 5.0814)
(4.86023 4.48323 -0.642169)
(90.7308 1.03483 4.29706)
(8.7889 5.38513 -4.34226)
(88.5819 -1.48812 6.00813)
(18.7356 9.69094 -18.9807)
(4.78159 1.57164 0.260024)
(79.6365 3.35266 4.05483)
(8.6099 2.12255 0.369467)
(86.3733 3.03874 5.03139)
(14.3577 3.32015 -1.99509)
(90.6081 0.963252 5.00444)
(20.6555 9.15129 -8.01227)
(88.7492 -5.92315 6.09097)
(30.1739 40.8723 -34.5674)
(32.6036 2.26336 -1.99215)
(93.638 1.83166 1.24596)
(37.0546 3.06114 -1.60716)
(105.325 0.208672 4.09941)
(41.0565 5.41428 -3.12245)
(121.771 -3.15415 9.23194)
(40.1024 12.6208 -9.21788)
(150.926 -10.9844 18.1345)
(27.8143 41.5508 -33.1914)
(-10.7482 2.20976 3.09709)
(73.9125 2.07877 5.46175)
(-6.03111 1.60507 2.09618)
(80.0328 4.11608 2.27552)
(-0.729537 0.384557 0.423428)
(85.682 7.83661 5.93048)
(13.2406 -4.32168 -8.23228)
(-15.8016 1.51443 1.5884)
(65.5883 0.392089 4.09586)
(-11.2825 2.06018 2.27123)
(69.6731 0.387082 3.82798)
(-6.91016 1.59895 1.70911)
(72.4423 1.31085 3.1332)
(4.46572 -0.0157568 -1.96996)
(71.2732 -0.69511 5.32726)
(28.8898 -10.5617 -16.3447)
(-5.19478 1.55812 0.459785)
(70.013 0.897925 4.24396)
(-6.89353 1.61206 1.25449)
(71.9709 1.11893 5.08659)
(-6.63408 1.12318 1.34063)
(70.2214 -1.03072 4.78132)
(-1.67324 0.899698 0.276892)
(59.7007 -5.02414 6.50053)
(5.88423 0.994216 -2.02075)
(21.2885 1.98599 -1.44576)
(81.6285 1.67286 2.09489)
(21.669 2.41214 -1.17062)
(85.6591 1.05823 4.18221)
(23.2195 3.38573 -1.52608)
(87.7505 -1.39539 7.78971)
(23.607 4.36654 -2.53598)
(81.6363 -3.52794 13.0076)
(26.4747 4.69627 0.888354)
(-3.36039 0.848514 1.36495)
(69.5856 1.85078 1.0373)
(-1.38952 0.355622 0.487036)
(62.0855 5.49339 -2.03136)
(18.8789 -3.12994 -8.17395)
(-4.14593 1.49063 1.76929)
(74.925 3.14986 2.60811)
(-4.41584 2.01782 2.03795)
(79.917 2.28831 1.80891)
(-3.0199 1.74463 1.50576)
(83.6694 0.858718 -2.66773)
(-1.08188 1.48093 0.763766)
(78.2363 -5.29668 -6.9195)
(10.0924 6.34357 -1.32924)
(-1.5368 1.1845 1.17473)
(76.3463 2.77496 4.26124)
(3.95566 2.08128 1.844)
(81.7335 2.52844 4.25621)
(13.0407 3.98609 2.27991)
(87.5604 0.93737 1.64742)
(23.7152 11.14 2.66221)
(88.8504 -6.33914 0.351408)
(35.2871 52.9 4.47136)
(33.2043 2.25991 0.5077)
(90.8558 0.908207 2.73844)
(39.1292 2.75342 1.93149)
(100.817 -0.966959 4.23282)
(44.6877 4.89371 3.48066)
(117.779 -3.94984 5.55195)
(47.0079 11.772 6.59116)
(156.156 -10.0571 5.81257)
(36.2351 43.5848 11.0923)
(33.2971 -9.06517 3.6396)
(81.4134 6.72696 -1.70476)
(34.9063 -16.2873 3.36865)
(16.6421 0.733216 0.660424)
(80.6121 0.733933 1.71556)
(19.5827 1.36864 0.109342)
(83.2079 0.71852 0.738508)
(19.2163 1.49411 -0.720346)
(81.4159 -0.146105 1.2008)
(15.1177 1.14849 -2.45451)
(68.0414 -1.39961 4.47475)
(18.8075 1.11871 -5.97913)
(31.4479 0.463649 0.123423)
(85.5667 1.05817 0.20892)
(35.8053 1.7307 -1.36731)
(89.2447 2.36658 -1.48952)
(38.7104 3.21969 -3.47007)
(90.377 2.78247 -2.29201)
(37.6864 7.38954 -6.91382)
(84.323 -0.414738 -1.55576)
(36.511 15.6083 -10.0752)
(42.4995 0.439598 -2.24268)
(92.1178 -0.0675671 -1.08574)
(44.2035 1.52716 -3.01537)
(97.483 -0.0933536 -0.720973)
(49.0613 3.14192 -5.84712)
(105.234 -0.765791 1.11133)
(56.3262 7.25372 -14.2422)
(116.135 -2.24761 5.98337)
(64.1263 17.7533 -49.3076)
)
;

boundaryField
{
    inlet
    {
        type            calculated;
        value           nonuniform 0();
    }
    outlet
    {
        type            calculated;
        value           nonuniform List<vector> 
16
(
(19.3818 1.41377 -7.22457)
(41.483 21.457 -42.0258)
(66.6915 90.3375 -76.4022)
(60.5726 90.4874 -72.2826)
(29.4087 -9.59889 -18.2847)
(63.987 -23.3928 -36.2013)
(13.0688 2.20814 -4.48806)
(58.0635 10.2997 1.94831)
(41.8259 -6.93433 -18.1092)
(22.4459 14.1083 -2.95627)
(78.3805 117.502 9.93187)
(79.4738 95.5937 24.3285)
(77.0877 -35.9691 7.43938)
(41.4631 2.46632 -13.1816)
(80.6607 34.4821 -22.2584)
(139.606 38.6497 -107.345)
)
;
    }
    wall
    {
        type            calculated;
        value           uniform (0 0 0);
    }
    procBoundary7to0
    {
        type            processor;
        value           uniform (67.534 1.32556 0.0630276);
    }
    procBoundary7to1
    {
        type            processor;
        value           uniform (-4.28764 0.821757 4.25376);
    }
    procBoundary7to3
    {
        type            processor;
        value           nonuniform List<vector> 
36
(
(-19.4587 5.18354 4.9483)
(72.3614 2.04436 6.80783)
(-9.84194 4.59203 4.29862)
(80.5561 3.82468 5.12654)
(-2.32003 2.41945 1.76242)
(84.785 4.11504 3.69162)
(0.147128 1.21478 0.310297)
(82.0204 4.34021 6.08523)
(9.63917 2.70613 -9.41067)
(-8.68984 3.50878 2.64753)
(74.7712 2.06831 6.61302)
(-10.5454 3.86323 3.12066)
(83.25 1.04276 6.6718)
(-5.52666 2.45672 2.03257)
(90.2705 2.22143 6.09874)
(5.823 2.01461 -1.50777)
(96.8515 -0.137144 7.32144)
(28.6824 10.3504 -37.7359)
(-5.9887 2.58828 1.54148)
(74.4303 4.02922 5.56885)
(-7.25779 2.47427 2.12776)
(81.8237 2.78626 7.26857)
(-6.02584 1.72492 1.66329)
(88.8023 -0.37816 7.58972)
(3.54823 2.8858 0.657543)
(98.8644 -9.65161 7.88945)
(16.9664 20.0383 -9.64671)
(31.2045 2.43475 -0.287794)
(91.548 2.43861 1.86627)
(34.2653 2.61065 1.42666)
(100.599 1.94238 5.35041)
(36.5067 4.37508 1.73401)
(114.039 -0.651795 9.98148)
(34.543 8.36212 0.295902)
(143.483 -6.78188 19.2244)
(18.8515 18.3482 -12.2236)
)
;
    }
    procBoundary7to5
    {
        type            processor;
        value           nonuniform List<vector> 
44
(
(79.8062 1.48555 6.42775)
(-0.945175 0.736884 4.19356)
(87.707 1.12412 6.2578)
(0.921104 -0.207114 2.05687)
(91.5511 3.93307 3.20899)
(-0.251199 0.0455049 0.877749)
(89.1133 9.39148 2.69635)
(8.50955 -5.82276 -4.02442)
(-16.0212 1.70933 2.46107)
(68.0835 1.35143 5.71502)
(-10.9859 2.04294 3.97274)
(75.8522 2.5274 5.58413)
(-6.18888 1.56079 2.67204)
(78.8666 3.41884 3.49326)
(-0.921882 0.62321 0.757244)
(80.4675 7.6894 4.04427)
(10.6677 3.5634 -4.9659)
(-16.0212 1.70933 2.46107)
(68.0835 1.35143 5.71502)
(68.0835 1.35143 5.71502)
(-5.18545 1.07817 2.16943)
(70.4103 1.12969 3.35882)
(8.50589 -3.27954 3.67279)
(88.8835 1.58502 -0.461931)
(12.1344 -7.42361 3.98267)
(83.5248 8.60602 -7.50032)
(18.6013 -14.4194 2.42192)
(-4.30027 0.410975 2.29834)
(69.0825 0.533102 4.21734)
(-5.18545 1.07817 2.16943)
(70.4103 1.12969 3.35882)
(70.4103 1.12969 3.35882)
(31.3201 -3.67022 2.60377)
(85.2102 0.913643 0.677444)
(34.8555 -11.3005 0.281904)
(99.48 4.79963 0.888337)
(27.3216 -16.4912 1.88923)
(20.846 -0.825387 2.28393)
(80.3666 0.409873 3.33286)
(27.3376 -1.44927 2.66722)
(84.4448 -0.076089 1.44109)
(31.3201 -3.67022 2.60377)
(85.2102 0.913643 0.677444)
(85.2102 0.913643 0.677444)
)
;
    }
    procBoundary7to6
    {
        type            processor;
        value           nonuniform List<vector> 
12
(
(73.0419 1.25617 2.56911)
(74.4242 1.94783 0.505218)
(86.1213 2.85742 -1.41985)
(63.0367 2.73775 2.50724)
(68.8591 0.841441 0.072364)
(78.2673 1.9426 -0.414045)
(72.2404 -0.892266 2.66815)
(74.3495 1.52801 2.85463)
(84.3203 3.858 0.350412)
(77.0756 -0.445629 1.4675)
(81.7269 -0.441194 2.85311)
(90.571 -0.106917 -1.68587)
)
;
    }
}


// ************************************************************************* //
