/*--------------------------------*- C++ -*----------------------------------*\
| =========                 |                                                 |
| \\      /  F ield         | OpenFOAM: The Open Source CFD Toolbox           |
|  \\    /   O peration     | Version:  4.x                                   |
|   \\  /    A nd           | Web:      www.OpenFOAM.org                      |
|    \\/     M anipulation  |                                                 |
\*---------------------------------------------------------------------------*/
FoamFile
{
    version     2.0;
    format      ascii;
    class       volVectorField;
    location    "16.5";
    object      impParticleForces;
}
// * * * * * * * * * * * * * * * * * * * * * * * * * * * * * * * * * * * * * //

dimensions      [1 1 -2 0 0 0 0];

internalField   nonuniform List<vector> 
132
(
(0.00174444 1.93636e-05 1.35384e-05)
(0.00181721 3.19229e-05 3.82426e-05)
(0.00185377 3.71667e-05 4.98245e-05)
(0.00194026 3.99091e-05 5.63559e-05)
(0.00199002 3.93725e-05 5.35633e-05)
(0.00205978 3.77216e-05 4.52527e-05)
(0.00203841 3.37336e-05 2.84579e-05)
(0.00204131 3.12789e-05 9.25167e-06)
(0.00198161 2.7786e-05 -1.092e-05)
(0.00175517 2.38059e-05 7.58279e-06)
(0.00183532 3.72738e-05 3.17519e-05)
(0.00185726 4.35156e-05 4.22307e-05)
(0.00193465 4.83089e-05 4.8403e-05)
(0.00197674 5.10386e-05 4.53733e-05)
(0.00205157 5.35137e-05 3.7689e-05)
(0.00204649 5.76768e-05 1.93655e-05)
(0.00206782 6.34779e-05 -1.98676e-06)
(0.00200099 7.24745e-05 -2.83539e-05)
(0.00176752 2.58114e-05 1.49266e-06)
(0.00183962 3.8612e-05 2.32089e-05)
(0.00186672 4.62025e-05 3.49079e-05)
(0.00194467 5.3158e-05 4.217e-05)
(0.00199178 5.88279e-05 4.03195e-05)
(0.00208014 6.56439e-05 3.45701e-05)
(0.00207651 7.56819e-05 1.59274e-05)
(0.0020906 8.83956e-05 -6.01393e-06)
(0.00201607 0.000112431 -3.78327e-05)
(0.00176551 2.64606e-05 -2.40413e-06)
(0.00181593 3.75058e-05 1.68947e-05)
(0.00185644 4.63869e-05 2.93057e-05)
(0.00191836 5.36511e-05 3.64817e-05)
(0.00198437 6.18159e-05 3.65088e-05)
(0.00205807 6.93027e-05 3.23372e-05)
(0.00206407 8.32111e-05 1.49402e-05)
(0.00209938 9.59614e-05 -7.66337e-07)
(0.0020056 0.000120828 -3.17609e-05)
(0.00182278 2.81317e-05 4.48031e-05)
(0.00190653 3.0769e-05 5.12525e-05)
(0.00194227 2.99069e-05 4.82712e-05)
(0.00200846 2.81473e-05 4.15396e-05)
(0.0020081 2.35859e-05 2.9661e-05)
(0.00202899 2.05959e-05 1.63881e-05)
(0.00196174 1.31363e-05 3.08458e-06)
(0.00172942 1.79571e-05 7.90082e-06)
(0.00179867 2.8803e-05 2.82284e-05)
(0.00182355 3.53221e-05 3.81461e-05)
(0.00190143 3.99504e-05 4.37713e-05)
(0.0019427 4.27546e-05 4.1327e-05)
(0.00200415 4.49912e-05 3.39647e-05)
(0.00200078 4.68457e-05 2.03628e-05)
(0.00202371 5.11123e-05 4.84298e-06)
(0.00196381 5.49728e-05 -1.01734e-05)
(0.00174568 2.16724e-05 3.23352e-06)
(0.00181093 3.233e-05 2.20745e-05)
(0.00183393 3.96165e-05 3.20066e-05)
(0.00190601 4.59275e-05 3.79418e-05)
(0.00195605 5.15378e-05 3.64893e-05)
(0.00203104 5.75811e-05 3.09503e-05)
(0.00202852 6.61031e-05 1.70769e-05)
(0.0020369 7.76914e-05 1.06927e-06)
(0.00197583 9.29151e-05 -1.51939e-05)
(0.00174062 2.29416e-05 -4.35024e-07)
(0.00179134 3.27169e-05 1.67362e-05)
(0.00182383 4.07171e-05 2.70331e-05)
(0.00189422 4.77674e-05 3.34671e-05)
(0.00194099 5.49648e-05 3.2519e-05)
(0.00200305 6.20839e-05 2.82566e-05)
(0.002014 7.43596e-05 1.53477e-05)
(0.00203191 8.84323e-05 2.71218e-06)
(0.00196665 0.000105591 -1.43647e-05)
(0.00191908 2.10646e-05 4.2995e-05)
(0.00198105 1.80662e-05 3.76254e-05)
(0.00198658 1.22985e-05 2.92856e-05)
(0.00199881 7.09386e-06 1.91427e-05)
(0.00194147 -1.31125e-06 1.29221e-05)
(0.0017297 1.39581e-05 8.28482e-06)
(0.00179085 2.35795e-05 2.47965e-05)
(0.00181091 2.91374e-05 3.34261e-05)
(0.00188476 3.33995e-05 3.76789e-05)
(0.00192076 3.59094e-05 3.5913e-05)
(0.00198423 3.76877e-05 2.90323e-05)
(0.00198089 3.90956e-05 1.92876e-05)
(0.00200617 4.17187e-05 6.37665e-06)
(0.00194381 4.77498e-05 -9.17838e-07)
(0.0017396 1.83059e-05 3.99125e-06)
(0.00179554 2.77951e-05 1.95821e-05)
(0.00182203 3.47032e-05 2.82518e-05)
(0.0019008 4.1121e-05 3.30595e-05)
(0.0019414 4.67958e-05 3.14134e-05)
(0.00200958 5.27938e-05 2.56194e-05)
(0.00201143 6.2053e-05 1.53917e-05)
(0.0020287 7.35821e-05 2.68789e-06)
(0.00196844 9.49151e-05 -7.93349e-06)
(0.00172698 1.98399e-05 4.9523e-07)
(0.00177439 2.85364e-05 1.52683e-05)
(0.00180833 3.60943e-05 2.43044e-05)
(0.00188734 4.30292e-05 2.9564e-05)
(0.00192947 5.05086e-05 2.83727e-05)
(0.00200399 5.70614e-05 2.43612e-05)
(0.00201003 7.15337e-05 1.39072e-05)
(0.00202907 8.4626e-05 1.89339e-06)
(0.00196482 0.000112048 -1.10993e-05)
(0.00195834 3.82766e-06 2.9011e-05)
(0.00197424 -1.69866e-06 2.13672e-05)
(0.00192361 -1.28022e-05 1.81469e-05)
(0.00171121 1.09839e-05 6.80052e-06)
(0.00176121 1.92365e-05 2.08568e-05)
(0.00179187 2.48475e-05 2.91488e-05)
(0.00186509 2.87725e-05 3.29248e-05)
(0.00188922 3.08545e-05 3.13503e-05)
(0.00193801 3.22293e-05 2.62635e-05)
(0.00194401 3.35129e-05 1.79081e-05)
(0.00195666 3.60227e-05 9.3508e-06)
(0.00191142 3.87934e-05 1.88735e-06)
(0.00171519 1.53371e-05 2.77567e-06)
(0.00175687 2.38352e-05 1.59147e-05)
(0.0017949 3.0849e-05 2.37787e-05)
(0.00187657 3.72467e-05 2.71322e-05)
(0.00190592 4.28157e-05 2.5245e-05)
(0.00194973 4.84384e-05 2.01044e-05)
(0.00196384 5.68653e-05 9.92898e-06)
(0.00198006 6.62365e-05 -6.31545e-07)
(0.00193716 8.19092e-05 -1.38054e-05)
(0.0017085 1.71882e-05 -3.90578e-07)
(0.00175452 2.55249e-05 1.25787e-05)
(0.0017898 3.29158e-05 2.03893e-05)
(0.00187349 3.98072e-05 2.40647e-05)
(0.00191094 4.75103e-05 2.18891e-05)
(0.00194925 5.45796e-05 1.75752e-05)
(0.00196281 6.66458e-05 5.75231e-06)
(0.00198734 7.88874e-05 -5.33313e-06)
(0.00194436 0.000100653 -3.09414e-05)
)
;

boundaryField
{
    inlet
    {
        type            zeroGradient;
    }
    outlet
    {
        type            zeroGradient;
    }
    wall
    {
        type            zeroGradient;
    }
    procBoundary7to0
    {
        type            processor;
        value           uniform (0.00171639 1.98269e-06 -1.81921e-05);
    }
    procBoundary7to1
    {
        type            processor;
        value           uniform (0.00174282 1.26843e-05 1.75858e-05);
    }
    procBoundary7to3
    {
        type            processor;
        value           nonuniform List<vector> 
36
(
(0.00177094 2.65365e-05 1.2642e-05)
(0.00185597 4.12692e-05 4.05152e-05)
(0.00190026 4.71974e-05 5.35413e-05)
(0.00198852 4.9302e-05 6.04933e-05)
(0.00201566 4.66396e-05 5.53683e-05)
(0.0020847 4.54625e-05 4.57359e-05)
(0.00207713 4.36017e-05 2.58598e-05)
(0.00208323 4.4342e-05 -5.47411e-07)
(0.0020125 4.32783e-05 -2.96386e-05)
(0.00178811 2.92205e-05 5.50744e-06)
(0.00185562 4.29877e-05 3.0345e-05)
(0.00189383 5.10032e-05 4.42942e-05)
(0.00195878 5.48661e-05 5.07506e-05)
(0.00200013 5.71836e-05 4.8311e-05)
(0.00209017 6.19802e-05 4.11393e-05)
(0.00209132 6.72569e-05 1.97601e-05)
(0.00212694 7.79363e-05 -9.95355e-06)
(0.00203506 8.70937e-05 -4.49303e-05)
(0.00180723 3.01995e-05 -8.99532e-07)
(0.00187621 4.43777e-05 2.27177e-05)
(0.00190717 5.27311e-05 3.708e-05)
(0.00197806 5.93654e-05 4.55379e-05)
(0.00202111 6.52277e-05 4.49183e-05)
(0.00211042 7.37484e-05 3.91994e-05)
(0.0021146 8.4603e-05 1.90075e-05)
(0.00213582 0.00010187 -1.10503e-05)
(0.002043 0.000123359 -4.53253e-05)
(0.00179653 2.96352e-05 -4.93249e-06)
(0.00184386 4.16772e-05 1.59623e-05)
(0.00188611 5.12298e-05 3.05702e-05)
(0.00196335 5.95718e-05 3.99315e-05)
(0.00202255 6.84427e-05 4.13604e-05)
(0.00210087 7.8281e-05 3.68933e-05)
(0.00209509 9.37413e-05 1.62416e-05)
(0.00213284 0.00011503 -1.0764e-05)
(0.00204663 0.000146135 -5.25571e-05)
)
;
    }
    procBoundary7to5
    {
        type            processor;
        value           nonuniform List<vector> 
44
(
(0.00182767 2.48885e-05 4.5379e-05)
(0.00186858 2.86225e-05 5.71433e-05)
(0.00196343 2.85075e-05 6.46362e-05)
(0.00199485 2.33765e-05 6.02561e-05)
(0.00205354 1.60491e-05 5.22534e-05)
(0.0020529 4.59293e-06 3.83659e-05)
(0.00205486 -8.45677e-06 2.22137e-05)
(0.00199071 -2.38032e-05 4.93633e-06)
(0.00172649 1.28823e-05 1.31089e-05)
(0.00178073 2.25087e-05 3.32083e-05)
(0.00183933 1.98671e-05 5.14334e-05)
(0.00193025 2.00668e-05 5.88387e-05)
(0.00196254 1.52641e-05 5.61764e-05)
(0.00203129 8.16303e-06 5.11192e-05)
(0.00202706 -3.91174e-06 4.10258e-05)
(0.00204159 -1.65465e-05 3.01114e-05)
(0.00197704 -3.25161e-05 2.07336e-05)
(0.00172649 1.28823e-05 1.31089e-05)
(0.00178073 2.25087e-05 3.32083e-05)
(0.00178073 2.25087e-05 3.32083e-05)
(0.00181987 2.06961e-05 3.99804e-05)
(0.00189468 2.25397e-05 4.5127e-05)
(0.0019683 5.17816e-06 5.18874e-05)
(0.00203352 -3.5374e-06 4.80318e-05)
(0.00203316 -1.85947e-05 4.27322e-05)
(0.00205333 -3.46032e-05 3.54509e-05)
(0.00198826 -5.73583e-05 3.33706e-05)
(0.00172062 7.57887e-06 1.19573e-05)
(0.00179205 1.61855e-05 3.04042e-05)
(0.00181987 2.06961e-05 3.99804e-05)
(0.00189468 2.25397e-05 4.5127e-05)
(0.00189468 2.25397e-05 4.5127e-05)
(0.00191342 1.45612e-05 3.95844e-05)
(0.00195344 1.10744e-05 3.51211e-05)
(0.0020082 -2.67734e-05 4.09059e-05)
(0.00202569 -4.45548e-05 3.73234e-05)
(0.00197648 -7.26111e-05 3.71122e-05)
(0.00170402 4.7081e-06 9.99625e-06)
(0.00176187 1.20519e-05 2.55646e-05)
(0.00180046 1.58839e-05 3.50224e-05)
(0.00186957 1.7027e-05 3.96401e-05)
(0.00191342 1.45612e-05 3.95844e-05)
(0.00195344 1.10744e-05 3.51211e-05)
(0.00195344 1.10744e-05 3.51211e-05)
)
;
    }
    procBoundary7to6
    {
        type            processor;
        value           nonuniform List<vector> 
12
(
(0.00174893 7.93322e-06 -2.00427e-05)
(0.00177074 1.25147e-05 -2.32758e-05)
(0.00175231 1.39427e-05 -2.52671e-05)
(0.00173578 5.96499e-06 -1.50189e-05)
(0.00175475 1.0592e-05 -1.83844e-05)
(0.001744 1.26884e-05 -2.06958e-05)
(0.00172967 3.14914e-06 -1.11987e-05)
(0.00174885 8.49508e-06 -1.39339e-05)
(0.00173125 1.09674e-05 -1.69938e-05)
(0.00170496 1.36231e-06 -1.08828e-05)
(0.00171961 6.20414e-06 -1.31375e-05)
(0.00171749 8.6398e-06 -1.60408e-05)
)
;
    }
}


// ************************************************************************* //
