/*--------------------------------*- C++ -*----------------------------------*\
| =========                 |                                                 |
| \\      /  F ield         | OpenFOAM: The Open Source CFD Toolbox           |
|  \\    /   O peration     | Version:  4.x                                   |
|   \\  /    A nd           | Web:      www.OpenFOAM.org                      |
|    \\/     M anipulation  |                                                 |
\*---------------------------------------------------------------------------*/
FoamFile
{
    version     2.0;
    format      ascii;
    class       volScalarField;
    location    "16.5";
    object      Sm;
}
// * * * * * * * * * * * * * * * * * * * * * * * * * * * * * * * * * * * * * //

dimensions      [1 -3 -1 0 0 0 0];

internalField   nonuniform List<scalar> 
132
(
9.9353e-65
7.84242e-65
6.44357e-65
6.75339e-65
1.03226e-64
1.03976e-64
7.99079e-65
5.66278e-65
8.37778e-65
7.67932e-65
9.46709e-65
7.29463e-65
6.90665e-65
8.3019e-65
5.66331e-65
7.52453e-65
6.36038e-65
8.06672e-65
4.80715e-65
7.44614e-65
6.12845e-65
7.13741e-65
7.44748e-65
8.06767e-65
7.5241e-65
7.21319e-65
8.60901e-65
6.51178e-65
6.59187e-65
8.6874e-65
5.50778e-65
7.29193e-65
6.74863e-65
7.91146e-65
5.89445e-65
4.3431e-65
6.44089e-65
7.37184e-65
6.75071e-65
6.90472e-65
8.61055e-65
8.45458e-65
7.36835e-65
3.95445e-65
8.53237e-65
7.44752e-65
7.52525e-65
8.14549e-65
7.05903e-65
5.73989e-65
7.67842e-65
5.73925e-65
5.50446e-65
8.22022e-65
6.98069e-65
6.0504e-65
7.36901e-65
8.60967e-65
8.91942e-65
7.05754e-65
7.98801e-65
6.74434e-65
7.90946e-65
5.97184e-65
7.2135e-65
7.36867e-65
6.20503e-65
6.59246e-65
7.98807e-65
5.3511e-65
5.04272e-65
5.81785e-65
7.36867e-65
6.04964e-65
5.81658e-65
8.06272e-65
7.3675e-65
6.82553e-65
5.19723e-65
8.53266e-65
7.05848e-65
7.13541e-65
8.76362e-65
7.52255e-65
7.05463e-65
7.36651e-65
7.52278e-65
6.98051e-65
7.98898e-65
7.60075e-65
7.678e-65
7.05709e-65
7.75487e-65
5.58159e-65
6.35831e-65
7.0572e-65
6.90262e-65
6.12723e-65
5.27389e-65
7.60024e-65
7.05704e-65
5.81609e-65
5.50689e-65
6.4371e-65
6.12651e-65
6.89956e-65
5.81601e-65
7.67831e-65
7.44633e-65
5.19691e-65
3.87807e-65
6.90252e-65
6.66948e-65
5.42842e-65
5.96943e-65
6.04814e-65
6.04887e-65
6.20459e-65
6.90281e-65
6.35959e-65
7.21241e-65
6.43656e-65
7.28945e-65
6.04686e-65
7.44363e-65
5.66092e-65
5.81666e-65
6.59233e-65
6.51459e-65
6.51435e-65
6.35899e-65
4.10998e-65
)
;

boundaryField
{
    inlet
    {
        type            calculated;
        value           nonuniform 0();
    }
    outlet
    {
        type            calculated;
        value           uniform 0;
    }
    wall
    {
        type            calculated;
        value           uniform 0;
    }
    procBoundary7to0
    {
        type            processor;
        value           uniform 2.32571e-65;
    }
    procBoundary7to1
    {
        type            processor;
        value           uniform 5.75131e-65;
    }
    procBoundary7to3
    {
        type            processor;
        value           nonuniform List<scalar> 
36
(
7.69401e-65
9.09729e-65
8.78266e-65
8.54525e-65
6.13352e-65
6.28658e-65
8.5355e-65
7.1377e-65
7.44769e-65
9.08239e-65
5.04745e-65
7.7653e-65
4.34807e-65
4.65658e-65
7.91468e-65
7.29312e-65
8.84366e-65
6.12814e-65
5.1187e-65
8.14751e-65
8.22644e-65
5.82063e-65
6.82842e-65
7.99119e-65
6.6716e-65
7.21408e-65
5.4296e-65
8.52908e-65
4.03371e-65
5.43098e-65
6.12948e-65
5.58621e-65
7.13736e-65
6.20588e-65
7.91198e-65
8.532e-65
)
;
    }
    procBoundary7to5
    {
        type            processor;
        value           nonuniform List<scalar> 
44
(
8.47082e-65
6.05996e-65
7.53315e-65
5.74486e-65
4.57864e-65
7.2935e-65
5.43062e-65
8.68878e-65
1.00058e-64
4.3448e-65
7.29698e-65
7.60678e-65
6.20829e-65
7.06074e-65
7.13738e-65
6.90388e-65
5.58504e-65
1.00058e-64
4.3448e-65
4.3448e-65
8.99841e-65
7.99064e-65
1.00867e-64
7.37047e-65
8.22283e-65
8.92002e-65
8.68676e-65
4.80755e-65
9.38493e-65
8.99841e-65
7.99064e-65
7.99064e-65
9.69685e-65
7.75704e-65
6.5159e-65
6.74795e-65
6.82504e-65
7.36561e-65
5.66169e-65
7.13631e-65
5.5853e-65
9.69685e-65
7.75704e-65
7.75704e-65
)
;
    }
    procBoundary7to6
    {
        type            processor;
        value           nonuniform List<scalar> 
12
(
6.74309e-65
7.12908e-65
4.95933e-65
8.52487e-65
7.59449e-65
7.5168e-65
7.90465e-65
7.74988e-65
5.65758e-65
3.7975e-65
7.82791e-65
6.04552e-65
)
;
    }
}


// ************************************************************************* //
