/*--------------------------------*- C++ -*----------------------------------*\
| =========                 |                                                 |
| \\      /  F ield         | OpenFOAM: The Open Source CFD Toolbox           |
|  \\    /   O peration     | Version:  4.x                                   |
|   \\  /    A nd           | Web:      www.OpenFOAM.org                      |
|    \\/     M anipulation  |                                                 |
\*---------------------------------------------------------------------------*/
FoamFile
{
    version     2.0;
    format      ascii;
    class       volVectorField;
    location    "16.5";
    object      UsNext;
}
// * * * * * * * * * * * * * * * * * * * * * * * * * * * * * * * * * * * * * //

dimensions      [0 1 -1 0 0 0 0];

internalField   nonuniform List<vector> 
132
(
(1.43736e-05 -2.45656e-06 -3.33504e-06)
(1.10644e-05 -2.52193e-06 -2.43449e-06)
(8.69538e-06 -2.27009e-06 -2.67373e-06)
(5.40193e-06 -1.55204e-06 -1.86795e-06)
(4.53188e-06 -1.29397e-06 -2.11245e-06)
(2.51937e-06 -8.77034e-07 -1.05771e-06)
(1.10087e-06 -5.37841e-07 -6.22191e-07)
(1.8474e-07 -2.53208e-07 -5.17133e-07)
(-1.29439e-07 -1.0706e-07 -3.12454e-07)
(1.45028e-05 -1.05498e-06 -1.44788e-06)
(1.11734e-05 -2.37472e-06 -1.67286e-06)
(9.26412e-06 -1.79759e-06 -1.78079e-06)
(5.70775e-06 -1.79451e-06 -1.48496e-06)
(4.82663e-06 -1.33534e-06 -1.25848e-06)
(3.12441e-06 -9.41745e-07 -7.88767e-07)
(2.42149e-06 -6.51572e-07 -7.88743e-07)
(9.57108e-07 -5.21841e-07 -2.9613e-07)
(3.37244e-07 -1.82542e-07 -3.35254e-07)
(1.48967e-05 -1.32846e-06 -1.74462e-06)
(1.15769e-05 -1.09177e-06 -1.59763e-06)
(9.56321e-06 -1.02044e-06 -1.09586e-06)
(7.17177e-06 -1.59478e-06 -1.30903e-06)
(5.83684e-06 -1.12398e-06 -7.58048e-07)
(3.9859e-06 -8.42464e-07 -9.25515e-07)
(3.04337e-06 -7.37751e-07 -8.58006e-07)
(1.67281e-06 -3.25642e-07 -6.54895e-07)
(5.49519e-07 -2.62402e-07 -1.07546e-07)
(1.0356e-05 -4.44588e-08 -1.21702e-06)
(9.16107e-06 -6.02593e-07 1.793e-07)
(7.0637e-06 5.18228e-07 -4.69237e-07)
(5.79583e-06 -2.53674e-07 -2.82061e-07)
(4.73609e-06 -1.87685e-07 -2.53364e-07)
(3.62562e-06 -3.27376e-07 -1.09957e-06)
(2.06685e-06 8.60527e-08 -5.34311e-07)
(1.06386e-06 8.53217e-08 -4.8775e-07)
(1.18846e-07 6.96132e-08 -2.57075e-07)
(9.90785e-06 -1.55808e-06 -1.63231e-06)
(6.37467e-06 -1.30988e-06 -1.88101e-06)
(5.24076e-06 -9.46983e-07 -1.34345e-06)
(3.69737e-06 -9.47502e-07 -1.2969e-06)
(2.46312e-06 -6.2761e-07 -6.29101e-07)
(9.60144e-07 -3.13622e-07 -5.00374e-07)
(6.2028e-07 -7.562e-08 -4.71983e-07)
(1.43997e-05 -1.33693e-06 -1.33278e-06)
(1.10772e-05 -1.05069e-06 -1.76195e-06)
(1.02341e-05 -9.46289e-07 -1.47966e-06)
(7.24089e-06 -1.17657e-06 -1.08482e-06)
(5.58434e-06 -1.11314e-06 -1.17425e-06)
(4.44055e-06 -9.22112e-07 -1.08523e-06)
(3.23626e-06 -6.80952e-07 -6.18741e-07)
(1.5817e-06 -3.69755e-07 -4.77237e-07)
(6.54873e-07 -1.42077e-08 -3.1219e-07)
(1.47151e-05 -1.1659e-06 -1.00978e-06)
(1.22047e-05 -5.02197e-07 -1.39649e-06)
(1.05955e-05 -5.83919e-07 -1.32385e-06)
(8.25201e-06 -1.28704e-06 -5.58174e-07)
(6.65256e-06 -4.7556e-07 -8.81219e-07)
(4.95092e-06 -6.36932e-07 -1.02011e-06)
(3.82768e-06 -7.64737e-07 -8.31345e-07)
(1.70123e-06 -3.64313e-07 -4.9801e-07)
(6.24611e-07 -1.68673e-07 -9.92358e-08)
(9.37695e-06 -6.32509e-07 -2.05566e-07)
(9.42131e-06 6.69147e-07 -9.1695e-07)
(7.43368e-06 1.64267e-07 -7.03819e-07)
(5.52716e-06 -6.68226e-07 -6.07369e-07)
(4.94752e-06 1.4818e-07 -7.69851e-07)
(4.21124e-06 2.73569e-07 -9.74546e-07)
(2.58552e-06 -5.11391e-07 -9.55706e-07)
(1.30769e-06 -1.494e-07 -4.38052e-07)
(-8.26614e-08 1.38834e-07 -1.57951e-07)
(6.43961e-06 -7.68065e-07 -8.08598e-07)
(4.73329e-06 -8.27045e-07 -9.26233e-07)
(3.03942e-06 -5.21576e-07 -4.07933e-07)
(1.45031e-06 -2.36733e-07 -2.29314e-07)
(5.51762e-07 -2.48323e-07 -1.63571e-07)
(1.37199e-05 -1.30258e-06 -7.55567e-07)
(1.10585e-05 -1.07027e-06 -4.70296e-07)
(1.0219e-05 -4.55112e-07 -1.21282e-06)
(6.76595e-06 -6.6453e-07 -5.24306e-07)
(6.05856e-06 -1.07689e-06 -7.09551e-07)
(4.93215e-06 -5.08198e-07 -1.21721e-06)
(3.37997e-06 -3.98112e-07 -4.09129e-07)
(1.86964e-06 -3.14831e-07 -2.50516e-07)
(7.30469e-07 -1.92344e-07 -1.73044e-07)
(1.462e-05 -3.59146e-07 -5.11232e-07)
(1.22968e-05 -4.77886e-07 -1.26649e-07)
(1.1127e-05 4.6691e-08 -5.69282e-09)
(7.75985e-06 -1.81451e-08 -5.32682e-07)
(6.15153e-06 -7.26673e-07 -6.49688e-07)
(5.0784e-06 -1.84359e-07 -5.93065e-07)
(3.77823e-06 -3.93731e-07 -3.97516e-07)
(1.53745e-06 1.75709e-08 -9.45346e-08)
(8.69565e-07 -8.20636e-09 -2.55577e-08)
(8.77353e-06 -1.35491e-06 -5.79463e-07)
(7.91009e-06 3.97057e-07 -5.27299e-07)
(6.88157e-06 -1.36474e-07 -7.39445e-07)
(6.97502e-06 -8.72307e-07 -2.91579e-07)
(5.12757e-06 -1.13714e-07 -1.03738e-06)
(3.28913e-06 -1.7947e-07 5.96428e-07)
(2.85981e-06 2.56491e-07 -1.17617e-07)
(5.6904e-07 2.60731e-07 2.49436e-07)
(1.71024e-07 2.39061e-07 1.06892e-07)
(2.05923e-06 -3.78845e-07 2.42652e-07)
(1.02948e-06 -3.45614e-08 -1.32527e-07)
(3.21423e-07 -2.15057e-07 9.94287e-09)
(9.17235e-06 -4.58457e-07 2.66266e-07)
(7.7331e-06 -8.75233e-07 1.30158e-06)
(8.05829e-06 -1.03519e-06 2.36306e-07)
(5.356e-06 -2.89781e-07 7.38712e-08)
(4.4034e-06 -1.18448e-07 -5.70017e-07)
(4.96807e-06 -2.22087e-07 -1.1302e-06)
(2.95499e-06 -3.81662e-07 4.15279e-07)
(1.07149e-06 1.82569e-08 -4.0503e-07)
(2.64333e-07 -4.60871e-08 -6.09437e-08)
(8.49657e-06 2.98519e-07 -6.31999e-07)
(8.0472e-06 3.63574e-09 4.50632e-07)
(7.44802e-06 -2.86055e-07 -1.19187e-06)
(5.35929e-06 -4.13041e-07 -3.33141e-07)
(5.11629e-06 -4.78406e-07 -2.64389e-07)
(4.26922e-06 -2.78996e-07 -2.36067e-07)
(3.17336e-06 -3.54718e-07 5.81264e-08)
(1.38512e-06 -6.89461e-08 2.31228e-08)
(6.52376e-07 9.88719e-08 5.79714e-09)
(5.76011e-06 -2.21998e-07 1.086e-07)
(5.77312e-06 4.35334e-07 3.11926e-07)
(4.59385e-06 5.70242e-08 2.03576e-07)
(4.84864e-06 -7.32555e-07 -4.50034e-07)
(4.28094e-06 -3.29794e-07 -9.16442e-07)
(2.98852e-06 -1.80945e-08 7.61105e-07)
(2.77461e-06 3.83492e-07 -2.15903e-07)
(1.1306e-06 1.92707e-07 2.4444e-07)
(2.70717e-07 -2.03552e-05 -2.25565e-07)
)
;

boundaryField
{
    inlet
    {
        type            calculated;
        value           nonuniform 0();
    }
    outlet
    {
        type            calculated;
        value           nonuniform List<vector> 
16
(
(-1.29439e-07 -1.0706e-07 -3.12454e-07)
(3.37244e-07 -1.82542e-07 -3.35254e-07)
(5.49519e-07 -2.62402e-07 -1.07546e-07)
(1.18846e-07 6.96132e-08 -2.57075e-07)
(6.2028e-07 -7.562e-08 -4.71983e-07)
(6.54873e-07 -1.42077e-08 -3.1219e-07)
(6.24611e-07 -1.68673e-07 -9.92358e-08)
(-8.26614e-08 1.38834e-07 -1.57951e-07)
(5.51762e-07 -2.48323e-07 -1.63571e-07)
(7.30469e-07 -1.92344e-07 -1.73044e-07)
(8.69565e-07 -8.20636e-09 -2.55577e-08)
(1.71024e-07 2.39061e-07 1.06892e-07)
(3.21423e-07 -2.15057e-07 9.94287e-09)
(2.64333e-07 -4.60871e-08 -6.09437e-08)
(6.52376e-07 9.88719e-08 5.79714e-09)
(2.70717e-07 -2.03552e-05 -2.25565e-07)
)
;
    }
    wall
    {
        type            calculated;
        value           nonuniform List<vector> 
66
(
(9.17235e-06 -4.58457e-07 2.66266e-07)
(8.49657e-06 2.98519e-07 -6.31999e-07)
(5.76011e-06 -2.21998e-07 1.086e-07)
(7.7331e-06 -8.75233e-07 1.30158e-06)
(8.0472e-06 3.63574e-09 4.50632e-07)
(5.77312e-06 4.35334e-07 3.11926e-07)
(8.05829e-06 -1.03519e-06 2.36306e-07)
(7.44802e-06 -2.86055e-07 -1.19187e-06)
(4.59385e-06 5.70242e-08 2.03576e-07)
(5.356e-06 -2.89781e-07 7.38712e-08)
(5.35929e-06 -4.13041e-07 -3.33141e-07)
(4.84864e-06 -7.32555e-07 -4.50034e-07)
(4.4034e-06 -1.18448e-07 -5.70017e-07)
(5.11629e-06 -4.78406e-07 -2.64389e-07)
(4.28094e-06 -3.29794e-07 -9.16442e-07)
(4.96807e-06 -2.22087e-07 -1.1302e-06)
(4.26922e-06 -2.78996e-07 -2.36067e-07)
(2.98852e-06 -1.80945e-08 7.61105e-07)
(2.05923e-06 -3.78845e-07 2.42652e-07)
(2.95499e-06 -3.81662e-07 4.15279e-07)
(3.17336e-06 -3.54718e-07 5.81264e-08)
(2.77461e-06 3.83492e-07 -2.15903e-07)
(1.02948e-06 -3.45614e-08 -1.32527e-07)
(1.07149e-06 1.82569e-08 -4.0503e-07)
(1.38512e-06 -6.89461e-08 2.31228e-08)
(1.1306e-06 1.92707e-07 2.4444e-07)
(3.21423e-07 -2.15057e-07 9.94287e-09)
(2.64333e-07 -4.60871e-08 -6.09437e-08)
(6.52376e-07 9.88719e-08 5.79714e-09)
(2.70717e-07 -2.03552e-05 -2.25565e-07)
(1.0356e-05 -4.44588e-08 -1.21702e-06)
(9.37695e-06 -6.32509e-07 -2.05566e-07)
(8.77353e-06 -1.35491e-06 -5.79463e-07)
(5.76011e-06 -2.21998e-07 1.086e-07)
(9.16107e-06 -6.02593e-07 1.793e-07)
(9.42131e-06 6.69147e-07 -9.1695e-07)
(7.91009e-06 3.97057e-07 -5.27299e-07)
(5.77312e-06 4.35334e-07 3.11926e-07)
(7.0637e-06 5.18228e-07 -4.69237e-07)
(7.43368e-06 1.64267e-07 -7.03819e-07)
(6.88157e-06 -1.36474e-07 -7.39445e-07)
(4.59385e-06 5.70242e-08 2.03576e-07)
(5.79583e-06 -2.53674e-07 -2.82061e-07)
(5.52716e-06 -6.68226e-07 -6.07369e-07)
(6.97502e-06 -8.72307e-07 -2.91579e-07)
(4.84864e-06 -7.32555e-07 -4.50034e-07)
(4.73609e-06 -1.87685e-07 -2.53364e-07)
(4.94752e-06 1.4818e-07 -7.69851e-07)
(5.12757e-06 -1.13714e-07 -1.03738e-06)
(4.28094e-06 -3.29794e-07 -9.16442e-07)
(3.62562e-06 -3.27376e-07 -1.09957e-06)
(4.21124e-06 2.73569e-07 -9.74546e-07)
(3.28913e-06 -1.7947e-07 5.96428e-07)
(2.98852e-06 -1.80945e-08 7.61105e-07)
(2.06685e-06 8.60527e-08 -5.34311e-07)
(2.58552e-06 -5.11391e-07 -9.55706e-07)
(2.85981e-06 2.56491e-07 -1.17617e-07)
(2.77461e-06 3.83492e-07 -2.15903e-07)
(1.06386e-06 8.53217e-08 -4.8775e-07)
(1.30769e-06 -1.494e-07 -4.38052e-07)
(5.6904e-07 2.60731e-07 2.49436e-07)
(1.1306e-06 1.92707e-07 2.4444e-07)
(1.18846e-07 6.96132e-08 -2.57075e-07)
(-8.26614e-08 1.38834e-07 -1.57951e-07)
(1.71024e-07 2.39061e-07 1.06892e-07)
(2.70717e-07 -2.03552e-05 -2.25565e-07)
)
;
    }
    procBoundary7to0
    {
        type            processor;
        value           uniform (1.76876e-05 -1.99949e-06 -6.12033e-07);
    }
    procBoundary7to1
    {
        type            processor;
        value           uniform (1.72298e-05 -2.77714e-06 -3.90187e-06);
    }
    procBoundary7to3
    {
        type            processor;
        value           nonuniform List<vector> 
36
(
(1.46509e-05 -3.84224e-06 -2.90806e-06)
(1.07818e-05 -3.43327e-06 -2.92223e-06)
(8.99292e-06 -3.36332e-06 -1.7352e-06)
(4.95026e-06 -2.50037e-06 -1.70654e-06)
(3.22573e-06 -2.05704e-06 -1.73081e-06)
(1.80382e-06 -1.17006e-06 -7.9344e-07)
(9.39858e-07 -6.47673e-07 -4.47835e-07)
(-1.98964e-07 -3.44483e-07 -3.35962e-07)
(-3.27879e-07 -2.20029e-07 -2.37166e-07)
(1.68491e-05 -2.59503e-06 -2.15221e-06)
(1.17214e-05 -2.64213e-06 -1.75387e-06)
(9.34996e-06 -1.73866e-06 -1.73253e-06)
(5.71309e-06 -2.07621e-06 -1.18635e-06)
(5.21224e-06 -1.92938e-06 -9.71185e-07)
(2.4889e-06 -1.1515e-06 -9.11204e-07)
(1.63531e-06 -9.14036e-07 -5.52281e-07)
(4.29058e-07 -5.29512e-07 -3.00943e-07)
(-1.34527e-07 -2.12966e-07 -2.82889e-07)
(1.57544e-05 -1.96845e-06 -1.7933e-06)
(1.31202e-05 -1.47852e-06 -1.45762e-06)
(9.75396e-06 -1.64159e-06 -1.51127e-06)
(6.90307e-06 -1.41323e-06 -9.23586e-07)
(5.5583e-06 -1.42257e-06 -9.30819e-07)
(3.55858e-06 -1.2725e-06 -8.69748e-07)
(2.30645e-06 -8.6191e-07 -4.98275e-07)
(8.90999e-07 -4.33672e-07 -3.2628e-07)
(3.5171e-07 -1.71849e-07 -1.35058e-07)
(1.15575e-05 -9.96585e-07 -6.82709e-07)
(8.45327e-06 5.9977e-07 -3.7193e-07)
(8.21996e-06 -8.33104e-07 -9.81846e-07)
(5.61184e-06 -5.91776e-07 -3.39228e-07)
(5.18809e-06 -4.74722e-07 -1.02744e-06)
(3.05133e-06 -3.91146e-07 -4.79094e-07)
(1.75032e-06 -6.81808e-08 -3.2433e-07)
(8.5027e-07 2.80694e-08 -3.52315e-07)
(3.96465e-07 -1.01311e-07 -2.18479e-07)
)
;
    }
    procBoundary7to5
    {
        type            processor;
        value           nonuniform List<vector> 
44
(
(1.03991e-05 -2.14694e-06 -4.1567e-06)
(9.44535e-06 -1.89188e-06 -2.77979e-06)
(5.04661e-06 -1.53347e-06 -2.60672e-06)
(4.02735e-06 -1.05948e-06 -2.17344e-06)
(2.64343e-06 -7.00596e-07 -1.44955e-06)
(1.28663e-06 -4.84144e-07 -8.5487e-07)
(1.55354e-07 -3.36446e-07 -5.49991e-07)
(-3.40144e-07 -1.25971e-07 -3.4663e-07)
(1.40446e-05 -1.17879e-06 -2.66165e-06)
(1.0501e-05 -1.33041e-06 -2.14495e-06)
(1.01606e-05 -7.8865e-07 -3.07351e-06)
(6.61537e-06 -1.59695e-06 -2.27582e-06)
(5.36698e-06 -8.16054e-07 -1.86747e-06)
(3.59728e-06 -6.05884e-07 -1.57893e-06)
(1.99968e-06 -2.37593e-07 -1.08666e-06)
(4.85369e-07 -1.91424e-07 -5.33895e-07)
(1.8917e-07 4.11189e-09 -3.54373e-07)
(1.40446e-05 -1.17879e-06 -2.66165e-06)
(1.0501e-05 -1.33041e-06 -2.14495e-06)
(1.0501e-05 -1.33041e-06 -2.14495e-06)
(9.74169e-06 -1.06611e-06 -6.37244e-07)
(6.94077e-06 -1.34509e-06 -7.77576e-07)
(6.0002e-06 -7.05781e-07 -8.8479e-07)
(4.53259e-06 -7.57797e-07 -9.39553e-07)
(2.97589e-06 -4.10149e-07 -5.14841e-07)
(1.21532e-06 -1.59285e-07 -3.7815e-07)
(7.20623e-07 -1.13131e-07 -3.03924e-07)
(1.46531e-05 -1.20051e-06 -1.0435e-06)
(1.08905e-05 -1.09544e-06 -4.61162e-07)
(9.74169e-06 -1.06611e-06 -6.37244e-07)
(6.94077e-06 -1.34509e-06 -7.77576e-07)
(6.94077e-06 -1.34509e-06 -7.77576e-07)
(5.05039e-06 -1.95535e-07 -6.01797e-07)
(3.16306e-06 -4.32429e-07 -6.83406e-08)
(2.41173e-06 -2.52063e-07 -6.8875e-08)
(9.07598e-07 -1.25854e-07 -1.65167e-07)
(3.1517e-07 -1.41081e-07 5.08396e-08)
(9.32581e-06 -3.37903e-07 2.9876e-07)
(7.77009e-06 -6.516e-07 -5.11636e-07)
(7.05147e-06 -2.29314e-07 -1.07126e-06)
(4.99868e-06 -1.27935e-06 -5.86298e-07)
(5.05039e-06 -1.95535e-07 -6.01797e-07)
(3.16306e-06 -4.32429e-07 -6.83406e-08)
(3.16306e-06 -4.32429e-07 -6.83406e-08)
)
;
    }
    procBoundary7to6
    {
        type            processor;
        value           nonuniform List<vector> 
12
(
(1.56843e-05 -6.13071e-07 -4.41782e-07)
(1.54434e-05 -1.18646e-07 -2.2957e-07)
(7.81396e-06 -3.63209e-07 -1.53258e-08)
(1.45778e-05 -3.84153e-07 -3.49109e-07)
(1.41426e-05 -2.789e-07 -7.49551e-07)
(9.69078e-06 -4.46453e-07 -1.80872e-07)
(1.36252e-05 -8.58415e-08 4.73724e-07)
(1.37134e-05 5.80914e-08 -2.49634e-07)
(1.09276e-05 -5.23018e-07 -1.22322e-07)
(9.44331e-06 1.10354e-06 1.98164e-06)
(8.85586e-06 6.37053e-07 -1.02305e-07)
(6.65264e-06 -2.36427e-08 -1.9268e-06)
)
;
    }
}


// ************************************************************************* //
