/*--------------------------------*- C++ -*----------------------------------*\
| =========                 |                                                 |
| \\      /  F ield         | OpenFOAM: The Open Source CFD Toolbox           |
|  \\    /   O peration     | Version:  4.x                                   |
|   \\  /    A nd           | Web:      www.OpenFOAM.org                      |
|    \\/     M anipulation  |                                                 |
\*---------------------------------------------------------------------------*/
FoamFile
{
    version     2.0;
    format      ascii;
    class       volScalarField;
    location    "28.5";
    object      QWallFluid;
}
// * * * * * * * * * * * * * * * * * * * * * * * * * * * * * * * * * * * * * //

dimensions      [1 -1 -3 0 0 0 0];

internalField   nonuniform List<scalar> 
87
(
0
0
0
8.68593e+08
4.80833e+08
8.84487e+08
0
0
0
0
0
0
0
0
0
0
0
0
0
0
0
0
0
0
8.26932e+08
4.10577e+08
8.31811e+08
4.20268e+08
8.29956e+08
4.08356e+08
8.33103e+08
4.01903e+08
8.36406e+08
0
0
0
0
0
0
0
0
0
0
0
0
0
0
0
0
0
0
8.2352e+08
4.32339e+08
8.40288e+08
4.6269e+08
8.49205e+08
4.80188e+08
8.62079e+08
4.91021e+08
8.7557e+08
8.14685e+08
4.10144e+08
8.15758e+08
4.04492e+08
8.14859e+08
3.92679e+08
8.12386e+08
3.70293e+08
8.18261e+08
8.2049e+08
4.30582e+08
8.32952e+08
4.55013e+08
8.41391e+08
4.67099e+08
8.51371e+08
4.67413e+08
8.58868e+08
1.65515e+09
9.1162e+08
1.70977e+09
1.02688e+09
1.76713e+09
1.10877e+09
1.81044e+09
1.16251e+09
1.83311e+09
)
;

boundaryField
{
    inlet
    {
        type            calculated;
        value           uniform 0;
    }
    outlet
    {
        type            calculated;
        value           nonuniform 0();
    }
    wall
    {
        type            calculated;
        value           uniform 0;
    }
    procBoundary6to0
    {
        type            processor;
        value           uniform 0;
    }
    procBoundary6to2
    {
        type            processor;
        value           nonuniform List<scalar> 
32
(
0
0
0
8.76382e+08
4.79771e+08
8.93426e+08
0
0
0
0
0
0
0
0
0
0
0
0
0
0
0
0
0
0
0
8.2671e+08
4.19253e+08
8.39189e+08
4.43062e+08
8.52909e+08
4.63494e+08
4.63494e+08
)
;
    }
    procBoundary6to4
    {
        type            processor;
        value           nonuniform List<scalar> 
27
(
0
0
0
0
0
0
0
0
0
0
0
0
0
0
0
0
0
0
8.07221e+08
3.92219e+08
8.08959e+08
3.82424e+08
8.12057e+08
3.83202e+08
8.25706e+08
3.94548e+08
8.38717e+08
)
;
    }
    procBoundary6to7
    {
        type            processor;
        value           nonuniform List<scalar> 
12
(
0
0
4.82266e+08
0
0
3.69455e+08
0
0
4.98895e+08
3.34447e+08
4.57305e+08
1.16769e+09
)
;
    }
}


// ************************************************************************* //
