/*--------------------------------*- C++ -*----------------------------------*\
| =========                 |                                                 |
| \\      /  F ield         | OpenFOAM: The Open Source CFD Toolbox           |
|  \\    /   O peration     | Version:  4.x                                   |
|   \\  /    A nd           | Web:      www.OpenFOAM.org                      |
|    \\/     M anipulation  |                                                 |
\*---------------------------------------------------------------------------*/
FoamFile
{
    version     2.0;
    format      ascii;
    class       volScalarField;
    location    "28.5";
    object      Sm;
}
// * * * * * * * * * * * * * * * * * * * * * * * * * * * * * * * * * * * * * //

dimensions      [1 -3 -1 0 0 0 0];

internalField   nonuniform List<scalar> 
87
(
6.74249e-65
6.04501e-65
7.13e-65
5.11503e-65
5.81252e-65
4.96002e-65
1.03851e-64
7.59509e-65
4.96005e-65
7.44005e-65
9.37755e-65
6.12252e-65
7.36252e-65
6.51e-65
8.525e-65
5.81257e-65
7.90509e-65
6.43256e-65
8.83507e-65
7.05255e-65
7.82754e-65
7.05253e-65
8.60252e-65
7.59502e-65
4.96006e-65
7.20759e-65
5.42506e-65
6.12256e-65
7.59506e-65
8.75756e-65
6.51004e-65
6.66503e-65
7.51753e-65
7.6726e-65
7.67259e-65
7.75008e-65
7.67256e-65
5.34754e-65
7.05254e-65
6.27753e-65
5.89002e-65
7.90501e-65
5.65757e-65
7.28509e-65
6.82007e-65
6.89756e-65
5.96755e-65
5.58004e-65
7.75004e-65
5.73503e-65
7.75003e-65
5.19257e-65
6.74258e-65
5.58006e-65
7.59508e-65
7.28507e-65
5.96755e-65
6.66505e-65
5.96754e-65
5.65754e-65
5.03756e-65
5.27006e-65
6.12257e-65
6.89757e-65
6.51006e-65
6.43254e-65
8.68005e-65
8.75754e-65
3.79752e-65
6.04508e-65
5.50257e-65
6.82008e-65
5.65756e-65
8.60258e-65
6.35505e-65
6.20005e-65
5.58003e-65
7.82755e-65
4.41756e-65
6.27758e-65
6.12257e-65
6.43257e-65
4.96005e-65
8.21508e-65
4.80505e-65
5.19254e-65
6.04505e-65
)
;

boundaryField
{
    inlet
    {
        type            calculated;
        value           uniform 0;
    }
    outlet
    {
        type            calculated;
        value           nonuniform 0();
    }
    wall
    {
        type            calculated;
        value           uniform 0;
    }
    procBoundary6to0
    {
        type            processor;
        value           uniform 2.32499e-65;
    }
    procBoundary6to2
    {
        type            processor;
        value           nonuniform List<scalar> 
32
(
4.88249e-65
7.44001e-65
8.37e-65
8.29255e-65
4.96002e-65
6.66502e-65
4.80506e-65
8.13759e-65
8.37008e-65
6.51005e-65
6.82003e-65
5.89002e-65
6.2775e-65
7.74999e-65
7.74999e-65
7.74999e-65
6.89759e-65
6.89758e-65
8.37008e-65
5.81255e-65
7.20754e-65
6.89753e-65
8.37003e-65
8.37003e-65
8.37003e-65
5.27007e-65
6.51008e-65
6.27757e-65
7.13006e-65
5.50254e-65
6.35504e-65
6.35504e-65
)
;
    }
    procBoundary6to4
    {
        type            processor;
        value           nonuniform List<scalar> 
27
(
4.34005e-65
5.73506e-65
7.59507e-65
5.19254e-65
7.36254e-65
6.35502e-65
9.22251e-65
5.9675e-65
5.96749e-65
6.66508e-65
7.20758e-65
5.96756e-65
8.52507e-65
8.44755e-65
6.74253e-65
9.61003e-65
7.90501e-65
6.82001e-65
7.44009e-65
7.05258e-65
5.81256e-65
7.67257e-65
6.97505e-65
9.22256e-65
4.49503e-65
4.88252e-65
6.35502e-65
)
;
    }
    procBoundary6to7
    {
        type            processor;
        value           nonuniform List<scalar> 
12
(
7.67248e-65
4.805e-65
6.51002e-65
3.95249e-65
5.50251e-65
6.74252e-65
8.06001e-65
7.05253e-65
5.58004e-65
6.89752e-65
5.96753e-65
6.04505e-65
)
;
    }
}


// ************************************************************************* //
