/*--------------------------------*- C++ -*----------------------------------*\
| =========                 |                                                 |
| \\      /  F ield         | OpenFOAM: The Open Source CFD Toolbox           |
|  \\    /   O peration     | Version:  4.x                                   |
|   \\  /    A nd           | Web:      www.OpenFOAM.org                      |
|    \\/     M anipulation  |                                                 |
\*---------------------------------------------------------------------------*/
FoamFile
{
    version     2.0;
    format      ascii;
    class       volVectorField;
    location    "28.5";
    object      UsNext;
}
// * * * * * * * * * * * * * * * * * * * * * * * * * * * * * * * * * * * * * //

dimensions      [0 1 -1 0 0 0 0];

internalField   nonuniform List<vector> 
87
(
(9.48204e-09 -2.57555e-10 -8.92538e-09)
(1.20925e-08 1.32569e-09 -7.23109e-09)
(1.37941e-08 8.59731e-10 -7.54476e-09)
(4.86352e-09 -7.77922e-10 -3.33127e-09)
(7.71159e-09 1.75651e-11 -3.83811e-09)
(5.36566e-09 2.74756e-10 -2.68851e-09)
(-4.99402e-11 1.52082e-10 -1.72508e-09)
(-1.46543e-10 2.59334e-10 -3.2303e-09)
(-1.20895e-09 3.34096e-10 -3.96406e-09)
(-1.40722e-09 1.47823e-10 -5.76059e-09)
(-1.49733e-10 -3.18892e-11 -8.19133e-09)
(2.81736e-09 5.97616e-10 -6.54801e-09)
(4.23771e-09 9.49311e-10 -6.9012e-09)
(6.69307e-09 2.50577e-09 -7.08244e-09)
(8.49986e-09 5.4591e-10 -6.25512e-09)
(7.02799e-10 6.20008e-11 -1.02585e-09)
(1.20978e-09 8.40156e-11 -2.73304e-09)
(3.57339e-10 2.37444e-10 -3.18577e-09)
(1.61139e-09 -9.95944e-11 -4.3007e-09)
(3.21152e-09 5.69862e-10 -4.99349e-09)
(4.77473e-09 3.27088e-11 -5.2162e-09)
(6.47926e-09 5.96994e-10 -4.04614e-09)
(8.52586e-09 9.38847e-10 -5.07019e-09)
(1.1858e-08 1.11148e-10 -5.36114e-09)
(-1.49726e-12 -1.00686e-10 -4.50766e-10)
(1.03024e-09 -1.76144e-10 -2.0582e-09)
(5.76705e-10 -1.66888e-10 -1.53498e-09)
(1.31967e-09 -6.9258e-10 -2.34392e-09)
(1.5055e-09 -7.05444e-10 -2.08657e-09)
(3.38076e-09 -3.5407e-10 -2.73341e-09)
(4.89548e-09 7.15875e-13 -3.23543e-09)
(4.86952e-09 -1.11705e-10 -2.60857e-09)
(9.60119e-09 -2.92023e-10 -1.87364e-09)
(-5.73403e-11 1.06371e-10 -7.99706e-10)
(-6.17807e-10 4.92895e-10 -1.70819e-09)
(-1.60443e-09 3.72945e-10 -1.87418e-09)
(-1.08021e-09 2.5102e-10 -3.08872e-09)
(-1.14435e-09 -2.03578e-10 -3.61644e-09)
(5.63779e-10 8.27113e-10 -3.80924e-09)
(2.29389e-09 1.03612e-09 -3.958e-09)
(4.33421e-09 2.44958e-09 -4.90584e-09)
(6.22466e-09 1.42535e-09 -3.9522e-09)
(1.10131e-10 3.27166e-10 -7.3526e-10)
(4.72487e-11 8.69047e-10 -1.4886e-09)
(-2.5878e-10 5.63391e-10 -2.31553e-09)
(2.57046e-10 4.11605e-10 -2.92422e-09)
(-1.35184e-10 -1.34909e-10 -1.84653e-09)
(3.55113e-09 4.16679e-10 -3.28618e-09)
(4.59236e-09 6.71019e-10 -3.15016e-09)
(7.84083e-09 -9.46419e-10 -3.50355e-09)
(1.01342e-08 1.23209e-09 -4.80604e-09)
(-6.03551e-10 -3.69908e-11 -5.29477e-10)
(3.1299e-09 1.07308e-09 -1.22468e-09)
(1.72091e-10 5.82582e-11 -2.08374e-09)
(4.68813e-10 -5.66929e-10 -1.53071e-09)
(6.5016e-10 -5.12059e-10 -9.63746e-10)
(1.91042e-09 -5.83137e-10 -1.24403e-09)
(2.53957e-09 -2.52663e-11 -1.49445e-09)
(4.53368e-09 -6.79758e-10 -1.99981e-09)
(6.69375e-09 3.17339e-10 -2.73953e-09)
(-5.07157e-11 6.46034e-11 -2.97912e-10)
(-6.29148e-11 3.01402e-10 -5.58328e-10)
(-6.56477e-10 1.44429e-10 -7.81466e-10)
(-2.63327e-10 6.71676e-11 -1.18874e-09)
(-1.50929e-10 9.62226e-11 -1.06644e-09)
(3.04648e-10 9.68052e-10 -1.34975e-09)
(2.09175e-09 1.25353e-09 -1.40978e-09)
(3.96118e-09 1.4195e-09 -1.92985e-09)
(6.30661e-09 2.77994e-09 -5.77313e-10)
(-2.5392e-09 -1.09245e-09 -3.95511e-10)
(5.17379e-11 3.63965e-10 -4.38388e-10)
(-1.67634e-10 5.08932e-10 -6.11438e-10)
(5.37679e-10 -1.80789e-10 -9.15182e-10)
(1.33021e-10 2.93582e-11 -6.71084e-10)
(1.68773e-09 2.03993e-11 -1.32739e-09)
(3.66979e-09 9.64813e-10 -1.21429e-09)
(7.6701e-09 5.51037e-11 -2.1224e-09)
(6.69297e-09 3.59057e-09 -2.32162e-09)
(-8.57142e-09 -3.2412e-09 -2.64367e-10)
(1.17043e-10 -4.72291e-11 -3.14342e-10)
(-3.32413e-11 1.35052e-11 -7.49253e-10)
(3.6674e-10 -2.32388e-10 -2.75019e-10)
(4.53628e-10 -2.77763e-10 -3.58277e-10)
(1.61952e-09 -3.2511e-10 -6.44526e-10)
(2.24534e-09 -5.35271e-10 -6.41226e-10)
(3.30239e-09 4.56716e-12 -9.15552e-10)
(4.19016e-09 6.68106e-10 -2.46982e-09)
)
;

boundaryField
{
    inlet
    {
        type            calculated;
        value           nonuniform List<vector> 9((-4.99402e-11 1.52082e-10 -1.72508e-09) (7.02799e-10 6.20008e-11 -1.02585e-09) (-1.49726e-12 -1.00686e-10 -4.50766e-10) (-5.73403e-11 1.06371e-10 -7.99706e-10) (1.10131e-10 3.27166e-10 -7.3526e-10) (-6.03551e-10 -3.69908e-11 -5.29477e-10) (-5.07157e-11 6.46034e-11 -2.97912e-10) (-2.5392e-09 -1.09245e-09 -3.95511e-10) (-8.57142e-09 -3.2412e-09 -2.64367e-10));
    }
    outlet
    {
        type            calculated;
        value           nonuniform 0();
    }
    wall
    {
        type            calculated;
        value           nonuniform List<vector> 
57
(
(-5.07157e-11 6.46034e-11 -2.97912e-10)
(-2.5392e-09 -1.09245e-09 -3.95511e-10)
(-8.57142e-09 -3.2412e-09 -2.64367e-10)
(-6.29148e-11 3.01402e-10 -5.58328e-10)
(5.17379e-11 3.63965e-10 -4.38388e-10)
(1.17043e-10 -4.72291e-11 -3.14342e-10)
(-6.56477e-10 1.44429e-10 -7.81466e-10)
(-1.67634e-10 5.08932e-10 -6.11438e-10)
(-3.32413e-11 1.35052e-11 -7.49253e-10)
(-2.63327e-10 6.71676e-11 -1.18874e-09)
(5.37679e-10 -1.80789e-10 -9.15182e-10)
(3.6674e-10 -2.32388e-10 -2.75019e-10)
(-1.50929e-10 9.62226e-11 -1.06644e-09)
(1.33021e-10 2.93582e-11 -6.71084e-10)
(4.53628e-10 -2.77763e-10 -3.58277e-10)
(3.04648e-10 9.68052e-10 -1.34975e-09)
(1.68773e-09 2.03993e-11 -1.32739e-09)
(1.61952e-09 -3.2511e-10 -6.44526e-10)
(2.09175e-09 1.25353e-09 -1.40978e-09)
(3.66979e-09 9.64813e-10 -1.21429e-09)
(2.24534e-09 -5.35271e-10 -6.41226e-10)
(3.96118e-09 1.4195e-09 -1.92985e-09)
(7.6701e-09 5.51037e-11 -2.1224e-09)
(3.30239e-09 4.56716e-12 -9.15552e-10)
(6.30661e-09 2.77994e-09 -5.77313e-10)
(6.69297e-09 3.59057e-09 -2.32162e-09)
(4.19016e-09 6.68106e-10 -2.46982e-09)
(-1.49726e-12 -1.00686e-10 -4.50766e-10)
(-6.03551e-10 -3.69908e-11 -5.29477e-10)
(-8.57142e-09 -3.2412e-09 -2.64367e-10)
(1.03024e-09 -1.76144e-10 -2.0582e-09)
(3.1299e-09 1.07308e-09 -1.22468e-09)
(1.17043e-10 -4.72291e-11 -3.14342e-10)
(5.76705e-10 -1.66888e-10 -1.53498e-09)
(1.72091e-10 5.82582e-11 -2.08374e-09)
(-3.32413e-11 1.35052e-11 -7.49253e-10)
(1.31967e-09 -6.9258e-10 -2.34392e-09)
(4.68813e-10 -5.66929e-10 -1.53071e-09)
(3.6674e-10 -2.32388e-10 -2.75019e-10)
(1.5055e-09 -7.05444e-10 -2.08657e-09)
(6.5016e-10 -5.12059e-10 -9.63746e-10)
(4.53628e-10 -2.77763e-10 -3.58277e-10)
(3.38076e-09 -3.5407e-10 -2.73341e-09)
(1.91042e-09 -5.83137e-10 -1.24403e-09)
(1.61952e-09 -3.2511e-10 -6.44526e-10)
(4.86352e-09 -7.77922e-10 -3.33127e-09)
(4.89548e-09 7.15875e-13 -3.23543e-09)
(2.53957e-09 -2.52663e-11 -1.49445e-09)
(2.24534e-09 -5.35271e-10 -6.41226e-10)
(7.71159e-09 1.75651e-11 -3.83811e-09)
(4.86952e-09 -1.11705e-10 -2.60857e-09)
(4.53368e-09 -6.79758e-10 -1.99981e-09)
(3.30239e-09 4.56716e-12 -9.15552e-10)
(5.36566e-09 2.74756e-10 -2.68851e-09)
(9.60119e-09 -2.92023e-10 -1.87364e-09)
(6.69375e-09 3.17339e-10 -2.73953e-09)
(4.19016e-09 6.68106e-10 -2.46982e-09)
)
;
    }
    procBoundary6to0
    {
        type            processor;
        value           uniform (1.10331e-08 -1.49742e-09 -1.17183e-08);
    }
    procBoundary6to2
    {
        type            processor;
        value           nonuniform List<vector> 
32
(
(1.73085e-08 -2.98928e-09 -1.13578e-08)
(1.6394e-08 -9.20534e-10 -8.6909e-09)
(1.84005e-08 7.35858e-10 -8.0055e-09)
(8.58854e-09 -1.47913e-09 -5.14696e-09)
(9.95889e-09 -1.5384e-09 -4.0517e-09)
(1.20428e-08 8.11179e-10 -4.00733e-09)
(8.24492e-11 2.66607e-10 -2.11153e-09)
(4.99775e-10 8.83004e-10 -4.82299e-09)
(1.1947e-09 6.92247e-10 -6.70475e-09)
(2.19852e-09 4.36393e-10 -7.4458e-09)
(5.06794e-09 -5.05925e-10 -9.49666e-09)
(6.29625e-09 6.1715e-10 -9.00248e-09)
(9.4153e-09 1.84103e-09 -8.9656e-09)
(8.7198e-09 1.75405e-09 -9.12399e-09)
(8.7198e-09 1.75405e-09 -9.12399e-09)
(8.7198e-09 1.75405e-09 -9.12399e-09)
(1.84642e-10 1.63181e-10 -1.33357e-09)
(1.3621e-09 5.05391e-10 -4.37677e-09)
(1.6797e-09 5.52893e-10 -4.69898e-09)
(2.83308e-09 -3.13881e-10 -5.88267e-09)
(5.22519e-09 1.84809e-10 -7.49365e-09)
(7.73975e-09 -2.6925e-10 -7.30941e-09)
(9.25953e-09 2.64079e-10 -5.68628e-09)
(9.25953e-09 2.64079e-10 -5.68628e-09)
(9.25953e-09 2.64079e-10 -5.68628e-09)
(2.14121e-10 -4.52572e-11 -8.75662e-10)
(1.25957e-09 -3.69482e-10 -2.46749e-09)
(2.15359e-09 -1.91779e-10 -3.51516e-09)
(2.29136e-09 -1.17368e-10 -2.9713e-09)
(3.0121e-09 -3.88426e-10 -3.93855e-09)
(3.91608e-09 -4.47802e-10 -3.10108e-09)
(3.91608e-09 -4.47802e-10 -3.10108e-09)
)
;
    }
    procBoundary6to4
    {
        type            processor;
        value           nonuniform List<vector> 
27
(
(-2.26835e-10 -7.81961e-11 -1.87952e-09)
(-5.65245e-10 -2.49405e-10 -2.96214e-09)
(-1.44729e-09 -6.20137e-10 -4.04772e-09)
(-2.67547e-09 -3.54572e-10 -5.154e-09)
(-2.30407e-09 -8.90952e-10 -8.10405e-09)
(-1.0926e-09 -3.6293e-10 -9.71947e-09)
(-2.2988e-09 3.69363e-09 -7.43543e-09)
(5.77471e-10 1.08421e-09 -8.63768e-09)
(3.00123e-09 1.59057e-09 -6.5955e-09)
(-3.56576e-10 1.5775e-10 -8.6904e-10)
(-3.89265e-10 1.48205e-10 -1.55485e-09)
(-1.39496e-09 -2.23366e-10 -2.31194e-09)
(-1.38917e-09 -3.29747e-10 -3.00794e-09)
(-1.94574e-09 -9.25609e-11 -4.86058e-09)
(-8.71301e-10 1.18728e-09 -4.88826e-09)
(1.88972e-10 1.46937e-09 -3.79552e-09)
(1.05885e-09 9.04209e-10 -4.91251e-09)
(3.4392e-09 2.42975e-09 -1.9959e-09)
(-3.41222e-10 1.9753e-10 -2.06022e-10)
(-2.23926e-10 3.53513e-10 -2.13395e-10)
(-8.02123e-10 -1.95897e-10 -8.16473e-10)
(-1.96828e-10 -2.34735e-10 -1.44056e-09)
(-1.94273e-10 -3.30645e-10 -1.86824e-09)
(6.58092e-10 5.45275e-10 -1.37467e-09)
(1.15557e-09 1.08607e-09 -1.1753e-09)
(3.12527e-08 -1.6043e-08 -1.70227e-09)
(5.56039e-09 1.9388e-09 -1.75336e-09)
)
;
    }
    procBoundary6to7
    {
        type            processor;
        value           nonuniform List<vector> 
12
(
(1.26372e-08 2.11662e-09 -1.08976e-08)
(1.4309e-08 2.87158e-09 -6.7042e-09)
(1.4657e-08 1.1278e-09 -3.39745e-09)
(1.21865e-08 7.07686e-10 -7.8817e-09)
(1.52231e-08 9.45183e-10 -6.30811e-09)
(1.44892e-08 -2.87819e-10 -3.85851e-09)
(1.13383e-08 3.59998e-09 -4.63513e-09)
(1.38373e-08 1.42627e-09 -5.313e-09)
(1.04485e-08 -5.69217e-10 -3.91326e-09)
(7.78942e-09 4.50227e-09 -2.01179e-09)
(7.05435e-09 3.27211e-09 -2.1195e-09)
(4.93799e-09 -6.25774e-10 -8.87276e-10)
)
;
    }
}


// ************************************************************************* //
