/*--------------------------------*- C++ -*----------------------------------*\
| =========                 |                                                 |
| \\      /  F ield         | OpenFOAM: The Open Source CFD Toolbox           |
|  \\    /   O peration     | Version:  4.x                                   |
|   \\  /    A nd           | Web:      www.OpenFOAM.org                      |
|    \\/     M anipulation  |                                                 |
\*---------------------------------------------------------------------------*/
FoamFile
{
    version     2.0;
    format      ascii;
    class       volScalarField;
    location    "51.5";
    object      magGField;
}
// * * * * * * * * * * * * * * * * * * * * * * * * * * * * * * * * * * * * * //

dimensions      [1 -2 -1 0 0 0 0];

internalField   nonuniform List<scalar> 
132
(
100.342
49.0264
110.684
65.4523
120.034
77.5712
127.706
86.7323
136.048
100.729
46.4569
108.118
58.9198
115.658
68.5585
121.84
75.8917
127.759
101.496
44.4865
106.433
54.4308
111.339
61.7109
115.766
65.8717
117.606
100.92
45.0027
106.812
99.3262
42.2469
102.863
48.6561
106.492
53.59
109.898
56.7402
112.882
98.9774
37.508
99.9647
38.1788
100.223
36.7074
100.893
33.9773
101.992
98.2982
33.8239
97.7494
30.4224
96.107
24.5368
94.8097
16.5716
94.9301
97.0375
35.1732
97.4264
32.4791
96.1856
97.4031
41.0262
99.8809
45.6558
103.014
49.8184
106.236
52.3958
109.873
96.8101
35.8385
96.7267
34.0634
96.4531
31.5228
97.0852
28.6701
99.0783
95.7339
31.5771
93.4449
22.9926
90.9616
15.6957
90.2227
11.1541
90.7456
95.0493
30.5961
92.4551
22.0107
90.9463
16.5749
91.4045
97.2242
40.4096
98.9517
43.5302
100.342
44.5454
101.269
43.4585
101.129
96.1899
32.9057
93.9681
26.6301
92.275
20.1498
90.8106
12.59
90.4301
95.3761
28.746
90.3696
15.3383
86.5178
4.13754
83.8591
3.25506e-05
81.1435
95.1172
30.5579
91.0716
20.2867
89.7206
13.9241
89.1835
10.0015
88.9588
)
;

boundaryField
{
    inlet
    {
        type            calculated;
        value           uniform 67;
    }
    outlet
    {
        type            calculated;
        value           nonuniform 0();
    }
    wall
    {
        type            calculated;
        value           uniform 0;
    }
    procBoundary0to1
    {
        type            processor;
        value           nonuniform List<scalar> 
12
(
93.1724
80.5557
66.2607
57.9462
30.8403
8.16556
53.2684
28.2308
6.24412
37.267
5.74059
3.17663e-05
)
;
    }
    procBoundary0to2
    {
        type            processor;
        value           nonuniform List<scalar> 
44
(
55.4685
111.86
64.1223
117.341
69.809
122.759
99.2919
41.8299
55.4685
103.704
55.4685
111.86
27.3899
96.0414
23.8818
98.2831
97.8741
34.177
96.8461
28.9929
27.3899
95.1842
27.3899
96.0414
14.5262
92.5534
95.6763
31.0963
92.338
20.593
89.4159
10.2948
14.5262
87.1534
14.5262
92.5534
94.929
29.0784
90.5584
18.959
88.4454
11.1268
87.5162
4.32131
)
;
    }
    procBoundary0to4
    {
        type            processor;
        value           nonuniform List<scalar> 
36
(
96.2079
41.0029
97.5748
43.7443
99.3924
45.6143
101
46.1115
102.833
94.5503
33.6194
92.4248
26.608
91.1138
21.832
91.3576
17.3028
91.7925
94.2322
29.8913
89.7783
19.397
87.8673
11.9626
87.5416
4.20289
87.6383
94.5172
30.0871
89.4239
18.6355
86.7625
8.66506
85.2069
1.44149
84.8253
)
;
    }
    procBoundary0to6
    {
        type            processor;
        value           uniform 87.5133;
    }
    procBoundary0to7
    {
        type            processor;
        value           uniform 5.21244;
    }
}


// ************************************************************************* //
