/*--------------------------------*- C++ -*----------------------------------*\
| =========                 |                                                 |
| \\      /  F ield         | OpenFOAM: The Open Source CFD Toolbox           |
|  \\    /   O peration     | Version:  4.x                                   |
|   \\  /    A nd           | Web:      www.OpenFOAM.org                      |
|    \\/     M anipulation  |                                                 |
\*---------------------------------------------------------------------------*/
FoamFile
{
    version     2.0;
    format      ascii;
    class       volVectorField;
    location    "51.5";
    object      UsPrev;
}
// * * * * * * * * * * * * * * * * * * * * * * * * * * * * * * * * * * * * * //

dimensions      [0 1 -1 0 0 0 0];

internalField   nonuniform List<vector> 
132
(
(4.26007e-10 -2.14788e-10 -1.9782e-10)
(5.08002e-10 -4.73801e-10 -4.77196e-10)
(-3.84779e-09 -4.95815e-10 -1.25792e-09)
(-1.52023e-09 8.99451e-10 1.0446e-09)
(1.23861e-09 6.33916e-10 6.27374e-10)
(9.81594e-10 2.85225e-10 3.96845e-10)
(2.83475e-10 3.7706e-10 6.97686e-10)
(-1.893e-10 4.74037e-10 -1.73629e-11)
(-8.29066e-11 1.49208e-10 3.40434e-10)
(1.72053e-10 -3.62568e-10 -1.25419e-10)
(4.83623e-11 -8.53659e-10 -2.60279e-10)
(-1.66504e-09 -1.0312e-09 -1.00987e-10)
(-8.64298e-10 1.16685e-09 4.3403e-10)
(1.2366e-10 8.36393e-10 5.28859e-10)
(8.86944e-10 4.58239e-10 4.54145e-10)
(1.47834e-09 2.13039e-10 6.04525e-10)
(2.10424e-09 1.00712e-10 1.40673e-09)
(2.8928e-09 -2.10934e-09 3.65665e-09)
(7.53232e-11 -4.72357e-10 -5.78589e-11)
(-5.18509e-11 -5.47559e-10 -5.54965e-11)
(-4.18076e-10 -5.95653e-10 3.04098e-11)
(-3.28932e-11 3.98666e-10 1.4237e-10)
(1.73038e-10 6.98074e-10 3.49076e-10)
(9.41e-10 2.84951e-10 3.42757e-10)
(1.40991e-09 1.10385e-10 6.062e-10)
(1.91743e-09 -7.81794e-10 1.34503e-09)
(2.07873e-09 -1.75357e-09 2.01497e-09)
(-6.62639e-11 -3.68141e-10 -6.35266e-11)
(3.25861e-11 -3.01889e-10 8.11671e-12)
(7.85214e-11 -2.43178e-10 2.09863e-11)
(1.71601e-10 -1.41164e-10 -4.82926e-10)
(-1.1031e-10 -2.98601e-10 -9.06072e-10)
(-1.16389e-09 -1.85201e-10 -1.17089e-09)
(-1.53148e-09 4.24966e-10 1.48075e-09)
(1.72744e-11 3.01055e-10 9.23285e-10)
(3.70562e-10 1.93275e-10 5.22626e-10)
(2.1301e-10 6.28172e-11 6.68113e-10)
(2.9645e-10 2.64276e-10 -4.98025e-10)
(-1.60177e-09 -1.28909e-09 3.08136e-09)
(2.57639e-11 -2.98285e-10 -2.92649e-10)
(-2.45172e-10 -5.76792e-10 -5.33651e-10)
(-1.16003e-09 -4.55448e-10 -4.58707e-10)
(-9.86512e-10 4.08815e-10 5.93108e-10)
(6.61565e-11 6.31819e-10 7.22752e-10)
(5.32694e-10 3.35392e-10 5.709e-10)
(4.29822e-10 3.36045e-10 6.68941e-10)
(3.52223e-10 2.22116e-10 1.31319e-09)
(-6.22916e-10 5.97691e-10 4.49161e-09)
(9.55739e-12 -2.52815e-10 -1.735e-10)
(-1.55938e-10 -4.61353e-10 -1.9201e-10)
(-3.67835e-10 -2.26203e-10 -6.54194e-11)
(-2.58731e-10 1.98648e-10 1.57082e-10)
(1.82038e-10 3.84716e-10 3.43993e-10)
(6.38654e-10 3.11324e-10 4.01659e-10)
(8.58827e-10 1.44311e-10 6.85554e-10)
(7.32468e-10 -6.59475e-12 1.45519e-09)
(1.06403e-09 -6.73626e-11 2.67183e-09)
(-1.6448e-11 -2.44696e-10 -9.99674e-11)
(-4.62851e-11 -2.79127e-10 -5.1607e-11)
(-1.6976e-10 -1.4213e-10 4.35537e-11)
(7.33428e-11 5.60647e-11 1.21249e-10)
(2.06139e-10 1.31133e-10 2.43509e-10)
(-4.75222e-11 -5.55012e-11 -3.58747e-10)
(-1.8601e-10 -6.1021e-11 -4.77909e-10)
(-5.65524e-10 -2.3629e-11 -4.22169e-10)
(-3.78388e-10 4.27349e-11 4.02042e-10)
(-1.7853e-10 9.4941e-11 5.46328e-10)
(5.4678e-11 1.36148e-10 5.28084e-10)
(-8.36307e-11 4.75368e-11 7.00748e-10)
(-7.13517e-12 1.00062e-10 4.80978e-10)
(-1.66158e-09 -5.79525e-10 4.00987e-09)
(-4.65346e-11 -1.76152e-10 -2.83151e-10)
(-2.32246e-10 -2.06554e-10 -3.74207e-10)
(-5.03214e-10 -1.19134e-10 -2.36892e-10)
(-3.85461e-10 9.35618e-11 2.75245e-10)
(-1.99699e-10 2.12002e-10 5.44322e-10)
(9.47654e-11 1.86944e-10 5.53687e-10)
(9.47656e-11 1.83267e-10 7.1953e-10)
(-2.06564e-10 1.8536e-10 1.19008e-09)
(-2.19945e-09 2.06308e-09 4.52512e-09)
(-1.9024e-11 -1.50749e-10 -1.46588e-10)
(-1.11404e-10 -1.876e-10 -1.7577e-10)
(-2.40995e-10 -1.18119e-10 -8.3844e-11)
(-1.39052e-10 9.22309e-11 1.61377e-10)
(9.94678e-11 2.35598e-10 3.27211e-10)
(3.42099e-10 2.8666e-10 4.51937e-10)
(1.86235e-10 2.80643e-10 6.23825e-10)
(-1.64593e-10 7.38261e-10 1.41047e-09)
(-6.48907e-10 2.13793e-09 3.0066e-09)
(-2.66007e-11 -1.5557e-10 -5.50243e-11)
(-2.97863e-11 -2.12856e-10 -3.08503e-12)
(-1.00228e-10 -1.24756e-10 7.88347e-11)
(4.08203e-11 -3.03682e-11 1.66221e-10)
(2.04159e-10 6.46767e-11 2.95721e-10)
(4.10649e-10 1.64293e-10 3.55012e-10)
(5.67418e-10 4.43754e-10 5.87048e-10)
(-4.19057e-11 -1.77764e-11 -2.24609e-10)
(-1.34978e-10 1.04055e-11 -2.14545e-10)
(-2.88303e-10 -3.88592e-12 -1.54071e-10)
(-1.23498e-10 3.5621e-11 1.32732e-10)
(-1.22883e-10 6.08407e-11 2.97098e-10)
(-8.94056e-11 8.63029e-11 3.94101e-10)
(-1.00748e-10 1.48076e-10 5.14527e-10)
(-1.01912e-10 5.77423e-11 1.08738e-09)
(-3.7892e-10 -1.5543e-10 2.74763e-09)
(-5.23234e-11 -7.60691e-11 -1.94865e-10)
(-1.49061e-10 -5.02607e-11 -1.9803e-10)
(-2.58766e-10 -3.30853e-11 -6.83391e-11)
(-1.58254e-10 5.80504e-11 1.66666e-10)
(-7.33908e-11 1.55086e-10 3.08819e-10)
(3.95429e-11 1.73689e-10 4.21069e-10)
(4.52723e-12 2.80864e-10 6.19946e-10)
(-2.31256e-10 2.83602e-10 1.01532e-09)
(-7.15829e-10 6.97714e-10 1.82628e-09)
(4.93632e-12 -7.19404e-11 -1.39259e-10)
(-2.27402e-11 -5.44996e-11 -9.02385e-11)
(-5.4175e-11 -1.66613e-11 -3.1462e-11)
(7.13438e-11 1.27714e-10 1.18153e-10)
(2.07026e-10 2.46383e-10 2.6272e-10)
(4.36724e-10 2.6235e-10 4.38685e-10)
(3.95799e-10 4.48984e-10 6.28583e-10)
(1.52709e-10 6.99394e-10 1.19299e-09)
(-1.62456e-10 1.13314e-09 1.99718e-09)
(3.17481e-12 -7.35776e-11 -1.72474e-11)
(6.57128e-11 -1.50267e-10 5.23066e-12)
(1.23592e-10 -7.47566e-11 2.7179e-11)
(4.68912e-10 5.20297e-11 1.79754e-10)
(6.21787e-10 2.10519e-10 3.80812e-10)
(7.38014e-10 2.083e-10 4.03428e-10)
(7.90889e-10 5.49642e-10 5.57841e-10)
(6.73865e-10 6.50953e-10 8.53701e-10)
(1.09718e-09 4.27376e-10 9.73066e-10)
)
;

boundaryField
{
    inlet
    {
        type            calculated;
        value           uniform (0 0 0);
    }
    outlet
    {
        type            calculated;
        value           nonuniform 0();
    }
    wall
    {
        type            calculated;
        value           uniform (0 0 0);
    }
    procBoundary0to1
    {
        type            processor;
        value           uniform (0 0 0);
    }
    procBoundary0to2
    {
        type            processor;
        value           uniform (0 0 0);
    }
    procBoundary0to4
    {
        type            processor;
        value           uniform (0 0 0);
    }
    procBoundary0to6
    {
        type            processor;
        value           uniform (0 0 0);
    }
    procBoundary0to7
    {
        type            processor;
        value           uniform (0 0 0);
    }
}


// ************************************************************************* //
