/*--------------------------------*- C++ -*----------------------------------*\
| =========                 |                                                 |
| \\      /  F ield         | OpenFOAM: The Open Source CFD Toolbox           |
|  \\    /   O peration     | Version:  4.x                                   |
|   \\  /    A nd           | Web:      www.OpenFOAM.org                      |
|    \\/     M anipulation  |                                                 |
\*---------------------------------------------------------------------------*/
FoamFile
{
    version     2.0;
    format      ascii;
    class       volScalarField;
    location    "37";
    object      Cs;
}
// * * * * * * * * * * * * * * * * * * * * * * * * * * * * * * * * * * * * * //

dimensions      [1 -3 0 0 0 0 0];

internalField   nonuniform List<scalar> 
108
(
335
335
335
335
334.999
334.999
334.998
334.997
335.013
335
335
335
335
334.999
334.999
334.999
334.998
335.085
335
335
335
335
334.999
334.999
334.999
334.998
335.179
335
335
335
335
335
335
335
334.999
341.503
335
335
334.999
334.998
334.996
334.993
334.987
334.986
334.856
335
335
334.999
334.999
334.997
334.996
334.993
334.991
334.916
335
335
335
334.999
334.999
334.998
334.996
334.995
334.855
335
335
335
335
335
335
334.999
334.999
334.677
334.999
334.998
334.995
334.99
334.983
334.976
334.965
334.964
334.899
335
334.999
334.998
334.997
334.993
334.989
334.982
334.978
334.901
335
335
334.999
334.998
334.996
334.994
334.99
334.988
334.891
335
335
335
335
335
334.999
334.998
334.998
334.764
)
;

boundaryField
{
    inlet
    {
        type            calculated;
        value           nonuniform 0();
    }
    outlet
    {
        type            calculated;
        value           uniform 335;
    }
    wall
    {
        type            calculated;
        value           nonuniform List<scalar> 
63
(
335
335
335
335
335
335
335
335
335
335
335
335
335
335
335
335
334.999
334.999
334.999
335
334.999
334.999
334.999
335
334.998
334.999
334.999
335
334.997
334.998
334.998
334.999
335.013
335.085
335.179
341.503
335
335
335
335
335
335
335
335
335
335
335
335
335
335
335
335
335
334.999
335
334.999
334.998
334.999
334.999
334.998
341.503
334.677
334.764
)
;
    }
    procBoundary3to1
    {
        type            processor;
        value           nonuniform List<scalar> 
27
(
335
335
335
335
334.999
334.999
334.998
334.997
334.912
335
334.999
334.998
334.997
334.994
334.992
334.986
334.986
334.905
334.999
334.998
334.996
334.993
334.989
334.984
334.977
334.975
334.891
)
;
    }
    procBoundary3to2
    {
        type            processor;
        value           nonuniform List<scalar> 
12
(
335
335
335
335
335
335
335
335
335
335
335
335
)
;
    }
    procBoundary3to7
    {
        type            processor;
        value           nonuniform List<scalar> 
36
(
335
334.999
334.998
334.996
334.992
334.986
334.979
334.969
334.919
335
334.999
334.999
334.997
334.995
334.991
334.987
334.982
334.891
335
335
334.999
334.999
334.998
334.997
334.993
334.991
334.832
335
335
335
335
335
334.999
334.999
334.998
334.824
)
;
    }
}


// ************************************************************************* //
