/*--------------------------------*- C++ -*----------------------------------*\
| =========                 |                                                 |
| \\      /  F ield         | OpenFOAM: The Open Source CFD Toolbox           |
|  \\    /   O peration     | Version:  4.x                                   |
|   \\  /    A nd           | Web:      www.OpenFOAM.org                      |
|    \\/     M anipulation  |                                                 |
\*---------------------------------------------------------------------------*/
FoamFile
{
    version     2.0;
    format      ascii;
    class       volScalarField;
    location    "37";
    object      magGField;
}
// * * * * * * * * * * * * * * * * * * * * * * * * * * * * * * * * * * * * * //

dimensions      [1 -2 -1 0 0 0 0];

internalField   nonuniform List<scalar> 
108
(
70.6286
127.128
71.8579
134.161
68.7475
141.769
56.6427
151.478
46.7268
57.7193
114.701
54.2016
116.439
45.6983
111.299
27.7144
89.2286
9.91898
71.0386
126.21
71.9238
133.919
69.2989
144.569
59.9336
163.783
58.07
91.8839
140.114
93.9968
145.937
91.2438
156.721
81.3233
178.645
66.5994
18.2461
100.801
14.1524
103.46
10.8984
106.134
10.9764
107.826
29.3684
13.9869
95.2044
9.22783
94.6892
5.91715
91.1896
6.0335
79.1339
20.3565
28.2102
104.53
27.455
111.355
29.1219
123.391
36.0234
143.581
73.9971
63.7828
119.963
63.3748
124.986
59.0075
135.375
49.6652
162.136
63.1681
5.08183
90.5558
2.61058
90.3189
2.94959
88.591
6.20079
80.8136
28.0562
1.35933
88.1428
2.94118e-05
87.1507
3.19369e-05
85.5899
4.75144e-05
76.0877
12.1284
7.75176
93.4553
3.22253
95.9136
6.5172
97.8143
20.9196
95.4456
57.6757
49.1924
109.155
47.9944
112.657
43.8588
119.424
38.9283
141.337
36.901
)
;

boundaryField
{
    inlet
    {
        type            calculated;
        value           nonuniform 0();
    }
    outlet
    {
        type            calculated;
        value           nonuniform List<scalar> 
12
(
97.3682
20.7746
121.109
135.932
63.1174
43.6838
158.699
134.593
61.1774
26.4275
125.304
80.4814
)
;
    }
    wall
    {
        type            calculated;
        value           uniform 0;
    }
    procBoundary3to1
    {
        type            processor;
        value           nonuniform List<scalar> 
27
(
67.2689
122.067
65.945
126.542
62.6951
135.956
57.254
158.011
51.6056
11.0286
95.4121
2.91817
95.3469
3.98897e-05
91.5806
4.65095
83.4895
38.9879
10.5513
93.0644
9.61903
93.6543
11.2968
92.9887
18.9569
87.9695
40.1131
)
;
    }
    procBoundary3to2
    {
        type            processor;
        value           nonuniform List<scalar> 
12
(
121.584
113.124
121
133.738
97.6071
94.7415
101.254
116.095
90.5572
88.7409
92.0008
105.79
)
;
    }
    procBoundary3to7
    {
        type            processor;
        value           nonuniform List<scalar> 
36
(
3.75588e-05
85.4454
3.61902e-05
85.7152
3.59087e-05
84.0246
3.8485e-05
73.8116
14.1627
0.118134
85.3472
3.29988e-05
83.8562
5.30187
81.7964
19.5998
75.4125
44.9699
19.8349
95.4548
18.8886
98.7802
20.1586
103.761
24.9279
112.271
30.1423
48.1199
106.428
45.7756
108.894
41.4672
111.409
34.1791
116.326
25.9583
)
;
    }
}


// ************************************************************************* //
