/*--------------------------------*- C++ -*----------------------------------*\
| =========                 |                                                 |
| \\      /  F ield         | OpenFOAM: The Open Source CFD Toolbox           |
|  \\    /   O peration     | Version:  4.x                                   |
|   \\  /    A nd           | Web:      www.OpenFOAM.org                      |
|    \\/     M anipulation  |                                                 |
\*---------------------------------------------------------------------------*/
FoamFile
{
    version     2.0;
    format      ascii;
    class       volScalarField;
    location    "37";
    object      pSmooth;
}
// * * * * * * * * * * * * * * * * * * * * * * * * * * * * * * * * * * * * * //

dimensions      [1 -1 -2 0 0 0 0];

internalField   nonuniform List<scalar> 
108
(
18.2255
74.422
0.1
68.5981
0.1
64.344
0.1
62.6501
0.1
19.248
74.6326
0.1
68.7827
0.1
63.9274
0.1
59.7648
0.1
18.4783
74.3973
0.1
68.5593
0.1
64.2555
0.1
63.1531
0.1
18.927
74.4001
0.1
68.7074
0.1
64.4753
0.1
63.7168
0.1
18.1524
74.7284
0.1
68.4675
0.1
63.1559
0.1
59.5815
0.1
19.2832
74.7969
0.277562
68.3599
0.1
62.4458
0.1
57.0124
0.1
18.3819
74.5077
0.1
68.31
0.1
63.2482
0.1
61.3844
0.1
18.922
74.5093
0.1
68.567
0.1
63.753
0.1
61.8796
0.1
19.3264
74.5216
0.371827
68.1193
0.1
62.8421
0.1
58.3485
0.1
20.4367
74.5518
1.98918
68.3414
0.1
63.0523
0.1
57.9969
0.1
19.4266
74.6354
0.202582
67.9938
0.1
62.2875
0.1
58.1355
0.1
19.4815
74.5646
0.33631
68.5049
0.1
63.3299
0.1
60.269
0.1
)
;

boundaryField
{
    inlet
    {
        type            zeroGradient;
    }
    outlet
    {
        type            fixedValue;
        value           uniform 0;
    }
    wall
    {
        type            zeroGradient;
    }
    procBoundary3to1
    {
        type            processor;
        value           nonuniform List<scalar> 
27
(
19.0557
74.6605
0.1
68.66
0.1
63.8633
0.1
61.4565
0.1
19.4423
75.052
0.535259
68.4933
0.1
62.3458
0.1
56.1607
0.1
19.4097
74.4946
0.494894
68.244
0.1
62.8595
0.1
58.812
0.1
)
;
    }
    procBoundary3to2
    {
        type            processor;
        value           nonuniform List<scalar> 
12
(
81.0682
81.2446
81.0455
80.8961
81.4861
81.6356
81.3813
81.1745
81.4204
81.6463
81.6078
81.3502
)
;
    }
    procBoundary3to7
    {
        type            processor;
        value           nonuniform List<scalar> 
36
(
21.7314
74.6598
3.39281
68.0928
0.1
62.2571
0.1
56.6484
0.1
21.1997
74.5861
2.73835
67.7267
0.1
60.9838
0.1
54.6013
0.1
19.5568
74.5493
0.200121
68.0167
0.1
62.3366
0.1
58.9206
0.1
19.8785
74.5779
0.639081
68.2407
0.1
62.6713
0.1
58.9454
0.1
)
;
    }
}


// ************************************************************************* //
