/*--------------------------------*- C++ -*----------------------------------*\
| =========                 |                                                 |
| \\      /  F ield         | OpenFOAM: The Open Source CFD Toolbox           |
|  \\    /   O peration     | Version:  4.x                                   |
|   \\  /    A nd           | Web:      www.OpenFOAM.org                      |
|    \\/     M anipulation  |                                                 |
\*---------------------------------------------------------------------------*/
FoamFile
{
    version     2.0;
    format      ascii;
    class       volVectorField;
    location    "37";
    object      UsNext;
}
// * * * * * * * * * * * * * * * * * * * * * * * * * * * * * * * * * * * * * //

dimensions      [0 1 -1 0 0 0 0];

internalField   nonuniform List<vector> 
108
(
(2.32188e-10 -5.05525e-09 6.37058e-09)
(-1.42851e-09 -5.47376e-09 7.955e-09)
(-2.68482e-09 -6.74209e-09 7.09075e-09)
(-3.23343e-09 -3.6531e-09 4.01197e-09)
(-2.07237e-09 -3.04488e-09 -1.17275e-09)
(1.09606e-09 -1.32319e-09 -3.04689e-09)
(1.91683e-09 -5.01234e-09 -1.01247e-08)
(5.53413e-08 3.09939e-08 -2.44678e-08)
(-3.38394e-07 5.24114e-09 -2.14529e-08)
(-4.35947e-09 -4.44382e-09 5.59036e-09)
(-6.14041e-09 -5.1558e-09 6.36215e-09)
(-6.44179e-09 -4.74465e-09 5.7718e-09)
(-7.36037e-09 -3.00495e-09 3.95272e-09)
(-8.23928e-09 -2.34675e-09 1.50083e-10)
(-8.04738e-09 4.44489e-10 -2.87293e-09)
(-7.33402e-09 -9.04326e-10 -9.55453e-09)
(-1.12596e-08 2.08923e-08 -2.11457e-08)
(-5.32981e-07 1.55013e-08 -4.76456e-08)
(-1.59394e-09 1.79136e-09 3.33485e-09)
(-3.63863e-09 -4.24869e-09 4.81205e-09)
(-4.73997e-09 -3.9649e-09 4.5982e-09)
(-4.94138e-09 -2.36893e-09 3.22061e-09)
(-6.46332e-09 -1.27807e-09 4.61141e-10)
(-9.36692e-10 -1.36373e-11 -3.46028e-09)
(1.03371e-09 -4.4167e-10 -9.04391e-09)
(1.6861e-08 7.95478e-09 -2.25438e-08)
(7.51141e-09 2.36309e-08 -3.39111e-08)
(-1.21377e-09 -1.99526e-09 1.46532e-09)
(-2.41483e-09 -4.63089e-09 2.28608e-09)
(-2.16822e-09 -1.64113e-08 2.78515e-09)
(-2.49773e-09 -1.67631e-09 8.65509e-10)
(-3.14225e-09 -1.17482e-09 2.40381e-11)
(3.90089e-10 -1.21459e-12 -2.47931e-09)
(1.15973e-08 7.52987e-09 -3.9623e-09)
(1.60026e-08 5.52182e-09 -7.20571e-09)
(-3.18302e-09 3.72288e-07 -3.22697e-08)
(-2.35455e-11 -4.02368e-09 6.61981e-09)
(-4.54314e-10 -2.55794e-09 7.58386e-09)
(-1.69317e-09 -2.67692e-09 7.28386e-09)
(-3.06087e-10 -3.78138e-09 2.03136e-09)
(1.30548e-09 -2.88814e-09 -1.81816e-09)
(1.76468e-09 -2.09702e-09 -4.61632e-09)
(3.42979e-09 -9.20237e-10 -1.19227e-08)
(1.45415e-08 3.70529e-09 -2.0957e-08)
(-6.07809e-08 -2.86815e-10 -1.78591e-08)
(-3.16131e-09 -3.16138e-09 5.12671e-09)
(-4.37001e-09 -3.37254e-09 6.58795e-09)
(-4.85176e-09 -3.58047e-09 5.45629e-09)
(-4.08688e-09 -2.57709e-09 3.37265e-09)
(-4.18963e-09 -2.46623e-09 3.6889e-11)
(-3.32293e-09 -4.37149e-10 -3.37383e-09)
(-2.60811e-09 -1.23255e-09 -9.26237e-09)
(-1.70424e-10 -2.18067e-09 -2.05114e-08)
(2.75629e-09 -4.62734e-09 -2.66013e-08)
(-2.27951e-09 -1.95768e-09 3.76936e-09)
(-2.94558e-09 -2.66785e-09 4.2731e-09)
(-2.99115e-09 -2.33083e-09 4.22455e-09)
(-2.71516e-09 -1.50921e-09 2.57136e-09)
(-1.7364e-09 -1.25961e-09 -1.05369e-09)
(7.92095e-10 -8.55715e-10 -3.62984e-09)
(2.48253e-09 1.00584e-09 -8.41913e-09)
(3.61256e-09 -1.79796e-09 -1.90141e-08)
(4.96799e-09 -3.24025e-09 -2.53056e-08)
(-1.14884e-09 -1.1262e-09 1.72172e-09)
(-2.89897e-09 -2.83097e-09 2.07806e-09)
(-2.02338e-09 -1.70446e-09 1.77686e-09)
(-1.15432e-09 -1.57516e-09 7.28383e-10)
(-2.55368e-10 -7.44256e-10 -1.36668e-09)
(1.74315e-09 -6.24283e-10 -2.73844e-09)
(3.73932e-09 3.63673e-10 -4.73674e-09)
(5.24835e-09 1.20994e-09 -7.28608e-09)
(1.22317e-09 -2.51869e-12 -2.09767e-08)
(1.70858e-09 -2.67878e-09 5.06555e-09)
(1.98617e-09 -9.05693e-10 6.0712e-09)
(1.16792e-09 -1.82185e-09 6.96485e-09)
(5.25525e-10 -2.93467e-09 2.22544e-09)
(2.52934e-09 -3.52525e-09 -1.51409e-09)
(4.03267e-09 -1.95059e-09 -4.9788e-09)
(3.76095e-09 -1.26293e-09 -9.81508e-09)
(7.0357e-09 -1.33257e-09 -1.21172e-08)
(5.52501e-09 -7.56407e-10 -8.36987e-09)
(-1.01378e-09 -3.47917e-09 4.9577e-09)
(-2.72125e-09 -3.04536e-09 5.58368e-09)
(-2.49616e-09 -5.19146e-09 5.21853e-09)
(-2.74796e-10 -2.62535e-09 2.2648e-09)
(1.74358e-10 -2.42101e-09 -1.71299e-09)
(8.96309e-10 -1.5307e-09 -4.30713e-09)
(1.1761e-09 3.74183e-11 -9.29594e-09)
(1.20269e-09 2.85139e-10 -1.3363e-08)
(-3.08483e-10 8.1106e-10 -1.17707e-08)
(-1.00075e-09 -1.57067e-09 3.54267e-09)
(-1.15623e-09 -2.33889e-09 4.10561e-09)
(-8.83603e-10 -1.22665e-09 4.64901e-09)
(-1.30069e-09 -2.04653e-09 1.87648e-09)
(-5.28063e-10 -1.63541e-09 -1.55518e-09)
(3.65789e-10 -9.19099e-10 -3.52395e-09)
(5.8761e-10 1.22924e-09 -6.135e-09)
(1.3914e-09 1.39004e-09 -9.95848e-09)
(6.58979e-10 -1.19039e-09 -1.04586e-08)
(-4.0461e-10 -9.68245e-10 1.72188e-09)
(-1.36793e-09 -1.67071e-09 1.75916e-09)
(-2.02149e-09 -3.09282e-09 2.4977e-09)
(-1.47498e-09 -1.53435e-09 5.33583e-10)
(-1.22305e-09 -1.32072e-09 -1.44692e-09)
(-6.26032e-10 -7.30843e-10 -2.11748e-09)
(-1.55018e-10 2.24502e-11 -3.4246e-09)
(1.00716e-10 -1.07628e-10 -5.02379e-09)
(4.13207e-10 -2.09265e-09 -6.70247e-09)
)
;

boundaryField
{
    inlet
    {
        type            calculated;
        value           nonuniform 0();
    }
    outlet
    {
        type            calculated;
        value           nonuniform List<vector> 
12
(
(-3.38394e-07 5.24114e-09 -2.14529e-08)
(-5.32981e-07 1.55013e-08 -4.76456e-08)
(7.51141e-09 2.36309e-08 -3.39111e-08)
(-3.18302e-09 3.72288e-07 -3.22697e-08)
(-6.07809e-08 -2.86815e-10 -1.78591e-08)
(2.75629e-09 -4.62734e-09 -2.66013e-08)
(4.96799e-09 -3.24025e-09 -2.53056e-08)
(1.22317e-09 -2.51869e-12 -2.09767e-08)
(5.52501e-09 -7.56407e-10 -8.36987e-09)
(-3.08483e-10 8.1106e-10 -1.17707e-08)
(6.58979e-10 -1.19039e-09 -1.04586e-08)
(4.13207e-10 -2.09265e-09 -6.70247e-09)
)
;
    }
    wall
    {
        type            calculated;
        value           nonuniform List<vector> 
63
(
(2.32188e-10 -5.05525e-09 6.37058e-09)
(-4.35947e-09 -4.44382e-09 5.59036e-09)
(-1.59394e-09 1.79136e-09 3.33485e-09)
(-1.21377e-09 -1.99526e-09 1.46532e-09)
(-1.42851e-09 -5.47376e-09 7.955e-09)
(-6.14041e-09 -5.1558e-09 6.36215e-09)
(-3.63863e-09 -4.24869e-09 4.81205e-09)
(-2.41483e-09 -4.63089e-09 2.28608e-09)
(-2.68482e-09 -6.74209e-09 7.09075e-09)
(-6.44179e-09 -4.74465e-09 5.7718e-09)
(-4.73997e-09 -3.9649e-09 4.5982e-09)
(-2.16822e-09 -1.64113e-08 2.78515e-09)
(-3.23343e-09 -3.6531e-09 4.01197e-09)
(-7.36037e-09 -3.00495e-09 3.95272e-09)
(-4.94138e-09 -2.36893e-09 3.22061e-09)
(-2.49773e-09 -1.67631e-09 8.65509e-10)
(-2.07237e-09 -3.04488e-09 -1.17275e-09)
(-8.23928e-09 -2.34675e-09 1.50083e-10)
(-6.46332e-09 -1.27807e-09 4.61141e-10)
(-3.14225e-09 -1.17482e-09 2.40381e-11)
(1.09606e-09 -1.32319e-09 -3.04689e-09)
(-8.04738e-09 4.44489e-10 -2.87293e-09)
(-9.36692e-10 -1.36373e-11 -3.46028e-09)
(3.90089e-10 -1.21459e-12 -2.47931e-09)
(1.91683e-09 -5.01234e-09 -1.01247e-08)
(-7.33402e-09 -9.04326e-10 -9.55453e-09)
(1.03371e-09 -4.4167e-10 -9.04391e-09)
(1.15973e-08 7.52987e-09 -3.9623e-09)
(5.53413e-08 3.09939e-08 -2.44678e-08)
(-1.12596e-08 2.08923e-08 -2.11457e-08)
(1.6861e-08 7.95478e-09 -2.25438e-08)
(1.60026e-08 5.52182e-09 -7.20571e-09)
(-3.38394e-07 5.24114e-09 -2.14529e-08)
(-5.32981e-07 1.55013e-08 -4.76456e-08)
(7.51141e-09 2.36309e-08 -3.39111e-08)
(-3.18302e-09 3.72288e-07 -3.22697e-08)
(-1.21377e-09 -1.99526e-09 1.46532e-09)
(-1.14884e-09 -1.1262e-09 1.72172e-09)
(-4.0461e-10 -9.68245e-10 1.72188e-09)
(-2.41483e-09 -4.63089e-09 2.28608e-09)
(-2.89897e-09 -2.83097e-09 2.07806e-09)
(-1.36793e-09 -1.67071e-09 1.75916e-09)
(-2.16822e-09 -1.64113e-08 2.78515e-09)
(-2.02338e-09 -1.70446e-09 1.77686e-09)
(-2.02149e-09 -3.09282e-09 2.4977e-09)
(-2.49773e-09 -1.67631e-09 8.65509e-10)
(-1.15432e-09 -1.57516e-09 7.28383e-10)
(-1.47498e-09 -1.53435e-09 5.33583e-10)
(-3.14225e-09 -1.17482e-09 2.40381e-11)
(-2.55368e-10 -7.44256e-10 -1.36668e-09)
(-1.22305e-09 -1.32072e-09 -1.44692e-09)
(3.90089e-10 -1.21459e-12 -2.47931e-09)
(1.74315e-09 -6.24283e-10 -2.73844e-09)
(-6.26032e-10 -7.30843e-10 -2.11748e-09)
(1.15973e-08 7.52987e-09 -3.9623e-09)
(3.73932e-09 3.63673e-10 -4.73674e-09)
(-1.55018e-10 2.24502e-11 -3.4246e-09)
(1.60026e-08 5.52182e-09 -7.20571e-09)
(5.24835e-09 1.20994e-09 -7.28608e-09)
(1.00716e-10 -1.07628e-10 -5.02379e-09)
(-3.18302e-09 3.72288e-07 -3.22697e-08)
(1.22317e-09 -2.51869e-12 -2.09767e-08)
(4.13207e-10 -2.09265e-09 -6.70247e-09)
)
;
    }
    procBoundary3to1
    {
        type            processor;
        value           nonuniform List<vector> 
27
(
(3.26337e-10 -5.45986e-09 8.20417e-09)
(-3.66902e-09 -8.36138e-09 1.18045e-08)
(-9.66612e-09 1.63701e-09 7.5364e-09)
(-4.05599e-09 -1.02253e-09 2.34348e-09)
(-1.66277e-09 -2.63869e-09 -3.01183e-09)
(2.24139e-09 -3.12479e-09 -4.24639e-09)
(6.69669e-09 -4.08791e-09 -1.07446e-08)
(9.2829e-09 -4.24374e-09 -2.26327e-08)
(1.01529e-08 4.44159e-09 -2.04194e-08)
(-7.86664e-10 -9.24636e-10 7.04564e-09)
(-1.49389e-09 -1.59397e-09 1.0179e-08)
(-1.11484e-09 -1.84876e-09 6.16695e-09)
(-1.35631e-09 -2.96193e-09 1.70332e-09)
(1.0207e-09 -3.38975e-09 -3.25806e-09)
(3.88167e-09 -4.16658e-09 -6.44858e-09)
(8.26457e-09 -1.79489e-09 -1.17573e-08)
(1.17574e-08 -1.87627e-09 -1.61232e-08)
(5.33394e-09 -5.05271e-09 -1.93857e-08)
(1.39769e-09 5.97725e-10 4.69002e-09)
(1.30891e-09 7.82032e-10 6.8201e-09)
(1.936e-09 1.88807e-09 6.34554e-09)
(1.84599e-09 -4.22413e-10 2.17379e-09)
(2.29896e-09 -1.58732e-09 -1.68901e-09)
(3.83436e-09 -1.8303e-09 -5.2593e-09)
(5.93704e-09 5.75946e-10 -9.6577e-09)
(3.98673e-09 -1.05101e-09 -9.73865e-09)
(3.61016e-09 -1.7222e-09 -8.35919e-09)
)
;
    }
    procBoundary3to2
    {
        type            processor;
        value           nonuniform List<vector> 
12
(
(4.95575e-10 -3.23632e-09 3.80659e-09)
(-2.01676e-09 -2.65897e-09 3.37274e-09)
(-8.12265e-10 -1.73731e-09 2.71193e-09)
(-4.34647e-10 -1.44033e-09 1.81765e-09)
(3.223e-10 -2.39727e-09 3.97593e-09)
(-1.75057e-09 -2.11627e-09 3.40373e-09)
(-1.74905e-09 -1.11404e-09 2.60577e-09)
(-5.39601e-10 -6.35581e-10 8.4393e-10)
(1.22132e-09 -1.51675e-09 3.78306e-09)
(-1.19501e-09 -1.65507e-09 3.04213e-09)
(-9.86617e-10 -1.16186e-09 2.31638e-09)
(-3.13822e-10 -5.54936e-10 1.38895e-09)
)
;
    }
    procBoundary3to7
    {
        type            processor;
        value           nonuniform List<vector> 
36
(
(2.32123e-09 -7.54976e-10 2.72882e-09)
(2.25507e-09 -1.12348e-09 3.73863e-09)
(2.02753e-09 -1.07195e-09 3.98902e-09)
(1.13193e-09 -2.10154e-09 9.35833e-10)
(1.84662e-09 -1.4297e-09 -8.18243e-10)
(1.43093e-09 -7.89431e-10 -4.02606e-09)
(1.12116e-10 -5.77199e-10 -5.37401e-09)
(4.41338e-10 5.3341e-10 -5.5307e-09)
(3.68102e-10 -3.68717e-10 -4.40331e-09)
(7.46214e-10 -2.16926e-09 3.62024e-09)
(5.05316e-10 -1.89653e-09 3.32207e-09)
(6.29773e-10 -3.16237e-09 3.68147e-09)
(9.04619e-10 -2.40058e-09 1.86039e-09)
(8.4712e-10 -1.84274e-09 -1.1336e-09)
(6.35483e-10 -1.42268e-09 -3.28717e-09)
(3.89802e-10 -4.06891e-10 -5.11592e-09)
(-3.56958e-10 4.71374e-10 -8.28902e-09)
(-9.5475e-10 -2.4785e-10 -5.87201e-09)
(8.22908e-10 -3.025e-09 1.07618e-09)
(8.21995e-10 -2.21648e-09 2.47448e-09)
(1.17342e-10 -2.54072e-09 2.25775e-09)
(-3.43433e-10 -2.03724e-09 9.6041e-10)
(2.01085e-10 -1.69106e-09 -1.13291e-09)
(-3.48169e-10 -1.47343e-09 -2.6016e-09)
(-7.5552e-10 -2.61023e-10 -3.60278e-09)
(-7.24561e-10 3.30996e-10 -5.30223e-09)
(2.56149e-09 1.47251e-09 -3.99009e-09)
(-1.58197e-10 -2.79424e-09 1.02548e-10)
(1.70571e-10 -1.52447e-09 7.37351e-10)
(-2.33524e-10 -1.56988e-09 1.23812e-09)
(-1.09699e-09 -1.38258e-09 5.63664e-10)
(-8.5622e-10 -1.18308e-09 -4.2477e-10)
(-1.16366e-09 -7.3682e-10 -1.25358e-09)
(-1.54037e-09 -5.20126e-10 -1.84639e-09)
(-1.06969e-09 7.67065e-10 -2.04757e-09)
(1.25678e-09 6.2686e-10 -6.89438e-10)
)
;
    }
}


// ************************************************************************* //
