/*--------------------------------*- C++ -*----------------------------------*\
| =========                 |                                                 |
| \\      /  F ield         | OpenFOAM: The Open Source CFD Toolbox           |
|  \\    /   O peration     | Version:  4.x                                   |
|   \\  /    A nd           | Web:      www.OpenFOAM.org                      |
|    \\/     M anipulation  |                                                 |
\*---------------------------------------------------------------------------*/
FoamFile
{
    version     2.0;
    format      ascii;
    class       volVectorField;
    location    "27";
    object      ddtUrel;
}
// * * * * * * * * * * * * * * * * * * * * * * * * * * * * * * * * * * * * * //

dimensions      [0 1 -2 0 0 0 0];

internalField   nonuniform List<vector> 
108
(
(2.41892e-07 1.29989e-08 -3.25414e-08)
(2.82226e-07 1.089e-08 -4.2423e-08)
(3.47675e-07 6.76663e-09 -5.77959e-08)
(4.06388e-07 8.22491e-10 -7.04724e-08)
(4.52697e-07 -1.86824e-08 -9.12846e-08)
(5.08617e-07 -3.99295e-08 -1.21744e-07)
(5.37701e-07 -7.96406e-08 -1.54541e-07)
(5.24547e-07 -1.1497e-07 -1.81842e-07)
(4.74821e-07 -1.54381e-07 -2.11731e-07)
(2.52263e-07 1.54946e-08 -3.31459e-08)
(2.98645e-07 1.30587e-08 -4.58176e-08)
(3.61512e-07 1.03863e-08 -6.33214e-08)
(4.27455e-07 1.97967e-09 -8.1079e-08)
(4.86045e-07 -1.31424e-08 -1.10503e-07)
(5.39596e-07 -3.90751e-08 -1.44551e-07)
(5.73714e-07 -7.3804e-08 -1.85465e-07)
(5.98735e-07 -1.10528e-07 -2.17226e-07)
(6.69107e-07 -1.80899e-07 -2.60208e-07)
(2.5747e-07 1.73894e-08 -3.72044e-08)
(3.12909e-07 1.65838e-08 -4.77713e-08)
(3.94955e-07 1.50905e-08 -6.72957e-08)
(4.72448e-07 1.07749e-08 -9.63564e-08)
(5.48665e-07 -5.36132e-09 -1.38148e-07)
(6.25569e-07 -3.27991e-08 -1.79096e-07)
(6.76375e-07 -8.20883e-08 -2.21988e-07)
(7.05107e-07 -1.27582e-07 -2.68334e-07)
(7.44559e-07 -2.20229e-07 -3.11408e-07)
(2.50748e-07 2.0117e-08 -4.50923e-08)
(3.24804e-07 1.93826e-08 -5.17917e-08)
(4.20377e-07 1.90091e-08 -7.22064e-08)
(5.12028e-07 1.69843e-08 -1.15279e-07)
(5.94579e-07 7.8428e-09 -1.69042e-07)
(6.89089e-07 -3.24301e-08 -2.10978e-07)
(7.21165e-07 -9.28349e-08 -2.61404e-07)
(7.72047e-07 -1.24475e-07 -3.00081e-07)
(8.48765e-07 -1.99944e-07 -3.29848e-07)
(2.14404e-07 1.14361e-08 -3.25195e-08)
(2.41419e-07 9.88535e-09 -3.95569e-08)
(3.03278e-07 6.68828e-09 -5.09466e-08)
(3.59871e-07 1.06603e-09 -6.3284e-08)
(4.20631e-07 -1.00136e-08 -7.86265e-08)
(4.76142e-07 -2.61088e-08 -9.69567e-08)
(4.98915e-07 -5.00832e-08 -1.11742e-07)
(4.90908e-07 -7.68838e-08 -1.19072e-07)
(4.83054e-07 -1.07949e-07 -1.29494e-07)
(2.16512e-07 1.32041e-08 -3.3704e-08)
(2.54473e-07 1.27389e-08 -4.28772e-08)
(3.18824e-07 1.02086e-08 -5.60363e-08)
(3.86994e-07 6.27971e-09 -7.07425e-08)
(4.58186e-07 -1.68891e-09 -9.0234e-08)
(5.19638e-07 -1.65972e-08 -1.12829e-07)
(5.5955e-07 -4.35246e-08 -1.34697e-07)
(5.59986e-07 -7.66359e-08 -1.4813e-07)
(5.83589e-07 -1.06299e-07 -1.59597e-07)
(2.23396e-07 1.6969e-08 -3.85171e-08)
(2.71484e-07 1.72762e-08 -4.82251e-08)
(3.48667e-07 1.57507e-08 -6.12516e-08)
(4.3041e-07 1.29482e-08 -7.9731e-08)
(5.15748e-07 7.15165e-09 -1.0734e-07)
(5.97175e-07 -4.45974e-09 -1.34424e-07)
(6.36077e-07 -3.0379e-08 -1.6201e-07)
(6.4398e-07 -6.75556e-08 -1.85043e-07)
(6.8115e-07 -1.16402e-07 -1.92189e-07)
(2.29502e-07 2.24354e-08 -4.81096e-08)
(2.88243e-07 2.15943e-08 -5.34691e-08)
(3.74161e-07 2.05593e-08 -6.55057e-08)
(4.64865e-07 1.99511e-08 -9.18843e-08)
(5.55833e-07 1.96068e-08 -1.29236e-07)
(6.45071e-07 9.09951e-09 -1.59649e-07)
(6.81706e-07 -1.69452e-08 -1.86802e-07)
(7.19743e-07 -5.00586e-08 -2.1883e-07)
(7.81418e-07 -1.00871e-07 -2.45089e-07)
(1.89428e-07 9.71132e-09 -3.12845e-08)
(2.18929e-07 8.91947e-09 -3.79276e-08)
(2.72834e-07 5.97763e-09 -4.91633e-08)
(3.34218e-07 1.46955e-09 -5.98908e-08)
(3.94947e-07 -5.47824e-09 -7.08469e-08)
(4.54384e-07 -1.54291e-08 -8.34942e-08)
(4.89195e-07 -3.60032e-08 -9.50775e-08)
(4.69007e-07 -5.72968e-08 -9.90257e-08)
(4.77503e-07 -6.82351e-08 -9.93497e-08)
(1.93805e-07 1.19898e-08 -3.38781e-08)
(2.28496e-07 1.20072e-08 -4.20522e-08)
(2.90072e-07 9.59864e-09 -5.28542e-08)
(3.54645e-07 6.67337e-09 -6.59784e-08)
(4.25674e-07 6.05237e-10 -7.85678e-08)
(5.00503e-07 -4.45423e-09 -9.62149e-08)
(5.33653e-07 -3.02318e-08 -1.09056e-07)
(5.26164e-07 -5.08934e-08 -1.18664e-07)
(5.41963e-07 -6.72284e-08 -1.14024e-07)
(2.0572e-07 1.60713e-08 -3.91115e-08)
(2.48153e-07 1.73948e-08 -4.72936e-08)
(3.15635e-07 1.71444e-08 -5.80747e-08)
(3.95534e-07 1.49066e-08 -7.32577e-08)
(4.79884e-07 1.03513e-08 -9.14922e-08)
(5.60573e-07 8.50617e-09 -1.14095e-07)
(5.98188e-07 -8.92038e-09 -1.31223e-07)
(5.86886e-07 -3.43225e-08 -1.37765e-07)
(5.98369e-07 -5.76433e-08 -1.43669e-07)
(2.16919e-07 2.28916e-08 -4.9679e-08)
(2.66693e-07 2.39664e-08 -5.24402e-08)
(3.48228e-07 2.51382e-08 -6.19303e-08)
(4.40883e-07 2.14072e-08 -8.16332e-08)
(5.34443e-07 2.22867e-08 -1.07628e-07)
(6.11332e-07 1.9022e-08 -1.32335e-07)
(6.45949e-07 1.20392e-08 -1.51407e-07)
(6.53947e-07 -2.02159e-08 -1.83511e-07)
(6.42517e-07 -5.25464e-08 -1.93875e-07)
)
;

boundaryField
{
    inlet
    {
        type            calculated;
        value           nonuniform List<vector> 
12
(
(3.71712e-08 4.77649e-09 1.54677e-08)
(4.9819e-08 1.44009e-08 2.81527e-08)
(6.72761e-08 1.86643e-08 3.49976e-08)
(6.47142e-08 2.11798e-08 3.77066e-08)
(4.9489e-08 7.22409e-09 1.54133e-08)
(4.90568e-08 1.33888e-08 1.46568e-08)
(2.75116e-08 1.04016e-08 1.13372e-08)
(4.0778e-08 1.81005e-08 1.53484e-08)
(2.22052e-08 3.03984e-09 1.64931e-09)
(2.97865e-08 6.73201e-09 -2.52198e-10)
(9.85006e-09 2.34623e-09 2.45726e-09)
(4.59599e-08 9.2085e-09 1.60615e-09)
)
;
    }
    outlet
    {
        type            calculated;
        value           nonuniform 0();
    }
    wall
    {
        type            calculated;
        value           nonuniform List<vector> 
63
(
(1.87706e-08 2.99469e-09 9.16698e-10)
(2.82689e-08 6.51272e-09 -1.40918e-09)
(4.31797e-09 1.39975e-09 2.01139e-09)
(3.72804e-08 7.06352e-09 -3.94148e-10)
(5.88843e-08 6.46187e-09 -3.83527e-09)
(6.67911e-08 1.13292e-08 -7.35651e-09)
(7.79968e-08 1.56051e-08 -8.68118e-09)
(7.80459e-08 2.66955e-08 -6.5095e-09)
(1.04967e-07 6.72295e-09 -8.56193e-09)
(1.23185e-07 9.20906e-09 -1.04767e-08)
(1.05224e-07 2.07101e-08 -9.43646e-09)
(2.00673e-07 3.77109e-08 -1.78885e-08)
(1.23144e-07 3.53498e-09 -1.27163e-08)
(1.41444e-07 1.49666e-08 -1.00324e-08)
(1.57696e-07 2.14583e-08 -1.44173e-08)
(2.04465e-07 1.1726e-08 -2.3577e-08)
(1.63471e-07 1.04158e-08 -1.63813e-08)
(1.84863e-07 2.39478e-09 -2.30136e-08)
(2.5667e-07 1.75935e-09 -1.78812e-08)
(4.03066e-07 1.95541e-09 -4.23231e-08)
(2.49145e-07 2.10345e-08 -2.57486e-08)
(3.73766e-07 5.21828e-08 -4.94473e-08)
(4.84603e-07 3.42663e-08 -4.97806e-08)
(4.35299e-07 1.75522e-08 -4.46211e-08)
(4.78681e-07 5.41871e-09 -4.26205e-08)
(3.87589e-07 -5.15766e-08 -1.21275e-08)
(6.14542e-07 1.84188e-08 -6.10675e-08)
(3.61515e-07 8.25554e-08 -4.74369e-08)
(1.38992e-07 -4.56422e-08 2.3704e-09)
(2.28007e-07 -1.21261e-08 -5.63346e-08)
(3.42282e-07 -1.62117e-08 1.47609e-08)
(5.79891e-07 6.01506e-09 -3.92242e-08)
(2.35867e-07 3.34267e-08 -2.53007e-08)
(4.86802e-07 5.26798e-08 -7.87965e-08)
(3.36844e-07 -3.57362e-10 -3.15806e-08)
(6.93628e-07 -8.49729e-09 -6.68186e-08)
(3.48228e-08 4.61959e-09 1.0673e-08)
(4.72052e-08 7.04934e-09 1.17609e-08)
(2.05477e-08 2.9578e-09 1.35656e-09)
(6.94483e-08 6.65674e-09 4.16861e-09)
(7.38588e-08 9.37226e-09 5.9761e-09)
(5.77562e-08 6.32667e-09 -2.56096e-09)
(1.12473e-07 1.03035e-08 -1.14208e-08)
(1.21325e-07 1.09019e-08 -3.32733e-09)
(9.46527e-08 6.43836e-09 -7.05448e-09)
(1.98849e-07 1.71357e-08 5.93978e-09)
(1.50993e-07 9.51857e-09 -1.23986e-08)
(1.13228e-07 3.63048e-09 -1.16089e-08)
(1.68755e-07 1.22547e-08 -5.10773e-09)
(1.7579e-07 7.4982e-10 -2.84216e-08)
(1.5682e-07 1.08637e-08 -1.53367e-08)
(3.68993e-07 5.37706e-08 -9.45989e-08)
(2.72097e-07 1.77049e-08 -3.65454e-08)
(2.35519e-07 1.74519e-08 -2.33588e-08)
(5.66817e-07 6.08809e-09 -2.21462e-08)
(3.13216e-07 -1.95817e-08 5.36752e-08)
(3.67205e-07 -9.33917e-09 -2.2574e-08)
(4.77189e-07 -1.20665e-07 1.00603e-08)
(5.49779e-07 -6.6493e-08 1.20384e-07)
(1.64184e-07 -5.71342e-08 1.47056e-08)
(3.3984e-07 1.77656e-08 -3.40918e-08)
(2.51968e-07 1.5858e-08 -4.60776e-08)
(2.68005e-07 4.84325e-08 -3.04789e-08)
)
;
    }
    procBoundary4to0
    {
        type            processor;
        value           nonuniform List<vector> 
36
(
(2.66118e-07 1.40417e-08 -3.0365e-08)
(3.07073e-07 1.11385e-08 -4.20285e-08)
(3.68811e-07 3.89151e-09 -5.80614e-08)
(4.3537e-07 -4.94294e-09 -7.45882e-08)
(4.83471e-07 -2.67084e-08 -1.06866e-07)
(5.49919e-07 -5.67484e-08 -1.50693e-07)
(5.79877e-07 -1.13697e-07 -2.03384e-07)
(5.97519e-07 -1.53634e-07 -2.45784e-07)
(5.33301e-07 -1.7818e-07 -2.96659e-07)
(2.75207e-07 1.49398e-08 -3.065e-08)
(3.28069e-07 1.20645e-08 -4.37248e-08)
(3.98993e-07 8.39369e-09 -6.15819e-08)
(4.73626e-07 3.18667e-09 -8.77055e-08)
(5.26614e-07 -1.40556e-08 -1.3912e-07)
(5.74591e-07 -4.96797e-08 -1.91945e-07)
(5.9658e-07 -1.22663e-07 -2.54472e-07)
(6.33047e-07 -1.86912e-07 -3.20242e-07)
(6.25043e-07 -2.62242e-07 -4.06929e-07)
(2.98395e-07 1.54414e-08 -2.94789e-08)
(3.55777e-07 1.31479e-08 -4.57359e-08)
(4.35669e-07 1.27545e-08 -6.90889e-08)
(5.21773e-07 1.07425e-08 -1.0423e-07)
(5.87051e-07 -4.89634e-09 -1.76426e-07)
(6.34302e-07 -4.65335e-08 -2.38354e-07)
(6.51127e-07 -1.36953e-07 -3.2357e-07)
(6.62812e-07 -2.42925e-07 -4.05307e-07)
(5.79444e-07 -3.69899e-07 -5.22102e-07)
(2.84948e-07 1.64592e-08 -3.60935e-08)
(3.69539e-07 1.36097e-08 -5.0705e-08)
(4.7326e-07 1.14029e-08 -7.44621e-08)
(5.64374e-07 9.05728e-09 -1.16164e-07)
(6.35566e-07 -3.39813e-09 -1.93836e-07)
(7.06123e-07 -4.47741e-08 -2.603e-07)
(7.3551e-07 -1.29713e-07 -3.40783e-07)
(7.1647e-07 -2.4473e-07 -4.26901e-07)
(5.74919e-07 -3.81208e-07 -5.46446e-07)
)
;
    }
    procBoundary4to5
    {
        type            processor;
        value           nonuniform List<vector> 
12
(
(4.54367e-07 -1.21732e-07 -1.69164e-07)
(5.81287e-07 -1.71469e-07 -2.25026e-07)
(6.46483e-07 -2.40883e-07 -2.75288e-07)
(7.59951e-07 -2.11453e-07 -2.78612e-07)
(5.07162e-07 -1.00997e-07 -1.19574e-07)
(5.71422e-07 -1.0481e-07 -1.43626e-07)
(6.67612e-07 -1.08968e-07 -1.71695e-07)
(7.60819e-07 -7.5363e-08 -1.78065e-07)
(4.92291e-07 -9.65711e-08 -9.6823e-08)
(5.66861e-07 -8.77392e-08 -1.02907e-07)
(6.65672e-07 -7.54266e-08 -1.24219e-07)
(7.04984e-07 -3.9839e-08 -1.39609e-07)
)
;
    }
    procBoundary4to6
    {
        type            processor;
        value           nonuniform List<vector> 
27
(
(2.5009e-07 1.97023e-08 -4.51949e-08)
(3.30704e-07 1.8477e-08 -5.72649e-08)
(4.37787e-07 1.66952e-08 -7.5606e-08)
(5.40754e-07 1.74116e-08 -1.05646e-07)
(6.40094e-07 2.38579e-08 -1.5445e-07)
(7.61445e-07 1.54817e-08 -1.99602e-07)
(8.25349e-07 -2.18616e-08 -2.30365e-07)
(8.65152e-07 -4.79641e-08 -2.65118e-07)
(9.05688e-07 -1.14207e-07 -2.84699e-07)
(2.35073e-07 2.22023e-08 -4.77127e-08)
(2.92518e-07 2.29356e-08 -5.60011e-08)
(3.80726e-07 2.09535e-08 -6.8904e-08)
(4.69673e-07 2.0125e-08 -9.31924e-08)
(5.60531e-07 1.86931e-08 -1.28416e-07)
(6.65074e-07 1.23763e-08 -1.58314e-07)
(7.4735e-07 5.04854e-09 -1.86357e-07)
(8.06038e-07 1.9916e-09 -2.2566e-07)
(8.66895e-07 -1.35075e-08 -1.96862e-07)
(2.2456e-07 2.2902e-08 -5.07831e-08)
(2.72285e-07 2.41547e-08 -5.35604e-08)
(3.53467e-07 2.59797e-08 -6.26746e-08)
(4.44057e-07 2.54376e-08 -8.34504e-08)
(5.3685e-07 2.32139e-08 -1.11175e-07)
(6.2932e-07 2.02324e-08 -1.39334e-07)
(7.01387e-07 2.28697e-08 -1.57717e-07)
(7.39115e-07 1.52757e-08 -1.62994e-07)
(7.60328e-07 2.57503e-08 -1.46815e-07)
)
;
    }
}


// ************************************************************************* //
