/*--------------------------------*- C++ -*----------------------------------*\
| =========                 |                                                 |
| \\      /  F ield         | OpenFOAM: The Open Source CFD Toolbox           |
|  \\    /   O peration     | Version:  4.x                                   |
|   \\  /    A nd           | Web:      www.OpenFOAM.org                      |
|    \\/     M anipulation  |                                                 |
\*---------------------------------------------------------------------------*/
FoamFile
{
    version     2.0;
    format      ascii;
    class       volScalarField;
    location    "27";
    object      magGField;
}
// * * * * * * * * * * * * * * * * * * * * * * * * * * * * * * * * * * * * * //

dimensions      [1 -2 -1 0 0 0 0];

internalField   nonuniform List<scalar> 
108
(
96.5541
40.3777
97.6009
42.397
98.9804
43.336
100.07
42.5176
101.131
94.9731
32.5063
92.4451
23.9879
90.7017
16.9985
90.4654
10.3027
90.3627
94.3243
29.3338
89.5235
17.8032
87.1386
9.45756
86.139
3.69348
85.5906
94.482
29.6507
89.1127
18.6007
86.3936
11.2078
84.8184
7.70479
84.3459
95.9936
41.7683
97.9527
44.4683
99.6287
46.9405
101.911
47.1203
102.926
95.2411
36.5267
94.4631
33.2763
93.8664
29.5277
93.6323
24.1776
94.0257
94.6082
33.434
91.2983
25.9354
89.5418
20.0123
89.4677
15.5151
90.2137
93.8527
31.0534
90.2667
21.1086
87.8678
13.1425
87.4572
7.4851
88.8288
96.6606
45.5039
101.745
53.3906
104.953
57.4138
107.231
60.3369
110.969
96.0176
41.2272
97.8296
45.2071
99.9555
47.4488
101.777
48.8556
104.243
94.6483
38.8286
94.7591
39.3482
95.8582
40.1092
97.3582
40.5878
98.9438
93.7406
37.4325
93.9288
36.0422
94.2531
35.6171
96.0377
35.9253
97.7248
)
;

boundaryField
{
    inlet
    {
        type            calculated;
        value           uniform 67;
    }
    outlet
    {
        type            calculated;
        value           nonuniform 0();
    }
    wall
    {
        type            calculated;
        value           uniform 0;
    }
    procBoundary4to0
    {
        type            processor;
        value           nonuniform List<scalar> 
36
(
96.9788
41.2478
99.2572
45.2021
101.4
47.2952
103.399
48.3323
105.097
95.9879
33.9113
94.3239
29.6302
93.3732
25.8224
92.5852
20.8228
92.7644
95.0554
31.5689
91.5412
22.4962
89.0358
15.5886
87.2622
11.7073
85.5333
95.0307
30.3219
90.6788
19.8621
88.8683
14.0556
87.9244
12.6267
87.4407
)
;
    }
    procBoundary4to5
    {
        type            processor;
        value           nonuniform List<scalar> 
12
(
39.6375
6.74707
0.0440749
2.5475
46.2476
20.3032
13.7997
3.95889
63.6893
49.1165
39.5755
34.7279
)
;
    }
    procBoundary4to6
    {
        type            processor;
        value           nonuniform List<scalar> 
27
(
92.2508
27.8531
88.0973
16.1149
85.085
9.00935
83.9778
0.644572
83.2134
92.8611
31.8664
90.2226
23.9883
88.8671
17.5777
87.9584
11.159
87.5283
94.7056
39.8945
94.9086
39.2717
94.8376
37.5614
94.5568
35.4455
95.8794
)
;
    }
}


// ************************************************************************* //
