/*--------------------------------*- C++ -*----------------------------------*\
| =========                 |                                                 |
| \\      /  F ield         | OpenFOAM: The Open Source CFD Toolbox           |
|  \\    /   O peration     | Version:  4.x                                   |
|   \\  /    A nd           | Web:      www.OpenFOAM.org                      |
|    \\/     M anipulation  |                                                 |
\*---------------------------------------------------------------------------*/
FoamFile
{
    version     2.0;
    format      ascii;
    class       volVectorField;
    location    "27";
    object      UsPrev;
}
// * * * * * * * * * * * * * * * * * * * * * * * * * * * * * * * * * * * * * //

dimensions      [0 1 -1 0 0 0 0];

internalField   nonuniform List<vector> 
108
(
(6.18402e-10 -1.08226e-10 -2.30115e-09)
(1.82918e-09 -7.03904e-13 -3.55564e-09)
(3.0656e-09 -1.01784e-09 -6.21524e-09)
(1.19285e-08 -1.81951e-09 -8.43632e-09)
(2.09202e-08 -8.18371e-09 -1.51172e-08)
(2.94074e-08 -1.27407e-09 -2.38775e-08)
(2.89009e-08 -5.84027e-09 -2.22488e-08)
(2.28562e-08 -4.1704e-09 -2.46839e-08)
(1.67245e-09 4.08287e-09 -6.97176e-09)
(1.39708e-09 -1.74106e-10 -4.17315e-09)
(3.47928e-09 2.5603e-10 -6.57557e-09)
(8.1094e-09 -5.26729e-09 -1.10363e-08)
(1.34542e-08 -6.49878e-09 -1.59915e-08)
(2.08649e-08 -1.07628e-08 -2.43253e-08)
(2.97139e-08 -7.25941e-09 -3.01006e-08)
(3.34427e-08 -9.74741e-09 -2.80637e-08)
(2.92835e-08 -1.20563e-08 -2.78291e-08)
(1.40384e-08 1.43394e-10 -1.79173e-08)
(8.28947e-10 -1.37941e-09 -4.95719e-09)
(4.98732e-09 -3.06764e-09 -1.15665e-08)
(8.83747e-09 -7.1992e-09 -1.59191e-08)
(1.26839e-08 -8.36985e-09 -2.46844e-08)
(1.82127e-08 -1.08069e-08 -2.87978e-08)
(2.63702e-08 -1.0487e-08 -2.96625e-08)
(2.94528e-08 -1.08193e-08 -3.14433e-08)
(3.05824e-08 -2.186e-08 -3.17257e-08)
(1.79966e-08 -6.38332e-09 -1.67159e-08)
(1.05863e-09 -1.70799e-09 -6.0954e-09)
(2.93412e-09 -3.575e-09 -1.03735e-08)
(6.00397e-09 -6.85675e-09 -1.50764e-08)
(7.26492e-09 -8.049e-09 -1.80088e-08)
(1.53027e-08 -1.04256e-08 -2.75566e-08)
(2.31001e-08 -1.208e-08 -3.31646e-08)
(1.50553e-08 -1.21865e-09 -2.81301e-08)
(1.7135e-08 -1.34848e-08 -2.82782e-08)
(2.15742e-08 -9.2322e-09 -2.01842e-08)
(8.75006e-10 7.57825e-10 -1.90401e-09)
(1.50201e-09 1.03864e-09 -3.15592e-09)
(2.81134e-09 3.48979e-10 -4.3838e-09)
(5.33008e-09 3.96228e-12 -5.90293e-09)
(8.0662e-09 -2.29388e-09 -8.32187e-09)
(9.84856e-09 -7.66405e-10 -1.2146e-08)
(1.52206e-08 -1.06368e-09 -9.52877e-09)
(1.61258e-08 -1.98567e-09 -1.16018e-08)
(1.10316e-08 5.98035e-10 -3.7882e-09)
(1.05592e-09 -1.16304e-10 -3.53446e-09)
(3.49414e-09 1.2869e-11 -5.53271e-09)
(4.9653e-09 -5.31842e-10 -6.79669e-09)
(1.07885e-08 -2.87645e-09 -1.2993e-08)
(1.25447e-08 -2.46756e-09 -1.57225e-08)
(1.67453e-08 -6.09686e-09 -1.85115e-08)
(2.18685e-08 -8.92388e-09 -1.81138e-08)
(1.85823e-08 -9.10217e-09 -1.74883e-08)
(1.88698e-08 -1.08699e-09 -1.15368e-08)
(1.24878e-10 -5.0981e-10 -2.84906e-09)
(2.63504e-09 -8.765e-10 -8.10797e-09)
(3.69723e-09 -3.8891e-09 -8.45745e-09)
(6.73634e-09 -5.46868e-09 -1.22732e-08)
(9.84632e-09 -7.01219e-09 -1.74837e-08)
(2.03476e-08 -6.66176e-09 -1.97719e-08)
(2.65543e-08 -7.48542e-09 -1.94476e-08)
(1.44632e-08 -9.41377e-09 -1.63417e-08)
(1.49868e-08 -5.16316e-09 -1.20357e-08)
(-4.39111e-11 -8.53888e-10 -3.36286e-09)
(1.24451e-09 -2.08239e-09 -6.20486e-09)
(3.0969e-09 -5.2152e-09 -1.01864e-08)
(5.10553e-09 -5.81969e-09 -1.15879e-08)
(6.63513e-09 -5.13593e-09 -1.7713e-08)
(1.17141e-08 -5.17918e-09 -1.78866e-08)
(1.43441e-08 -5.53322e-09 -1.57739e-08)
(1.38982e-08 -9.29793e-09 -1.40183e-08)
(1.8885e-08 -4.57566e-09 -3.41488e-09)
(-1.50242e-10 2.93577e-10 2.65093e-10)
(1.00185e-09 5.68924e-10 -1.41637e-09)
(9.04483e-10 5.65614e-10 -1.81731e-09)
(1.55427e-09 6.13019e-10 -2.7298e-09)
(3.55003e-09 1.02092e-09 -3.03346e-09)
(5.61293e-09 1.04647e-09 -4.12251e-09)
(1.23821e-08 1.34411e-09 -6.75851e-09)
(8.93028e-09 -5.68638e-10 -4.89106e-09)
(6.58687e-09 4.23427e-10 -2.21065e-09)
(-8.29137e-10 8.73657e-11 5.26098e-10)
(1.17038e-09 1.94552e-10 -2.42685e-09)
(3.14729e-09 -1.08176e-09 -3.64734e-09)
(4.83557e-09 -1.80344e-10 -3.55031e-09)
(6.50061e-09 -6.24198e-10 -6.11407e-09)
(1.09693e-08 -7.0997e-09 -5.04204e-09)
(1.20119e-08 -2.45013e-09 -4.29073e-09)
(1.22673e-08 -1.59106e-09 -6.50805e-09)
(1.29363e-08 1.33544e-09 -5.89353e-09)
(-5.78648e-10 -2.62019e-10 -6.62811e-10)
(1.24637e-09 -1.61369e-10 -2.83223e-09)
(1.67328e-09 -1.54367e-09 -3.75498e-09)
(3.26121e-09 -1.51343e-09 -4.56648e-09)
(7.71033e-09 -1.60918e-09 -8.41088e-09)
(1.2916e-08 -7.11306e-09 -9.15843e-09)
(1.04855e-08 -4.42738e-09 -8.52127e-09)
(1.06622e-08 -4.07399e-09 -6.87342e-09)
(1.35147e-08 2.04925e-09 -3.93578e-09)
(8.13163e-12 -1.95109e-10 -1.47796e-09)
(4.24567e-10 -6.98453e-10 -1.97333e-09)
(1.31912e-09 -1.73481e-09 -4.4826e-09)
(3.44823e-09 -3.95346e-09 -5.75251e-09)
(5.52941e-09 -6.07767e-09 -8.11075e-09)
(8.63849e-09 -5.83129e-09 -6.00647e-09)
(8.57019e-09 -3.56052e-09 -6.10863e-09)
(8.61033e-08 -4.75178e-08 -5.10017e-09)
(2.14687e-08 -1.19735e-09 -5.3299e-09)
)
;

boundaryField
{
    inlet
    {
        type            calculated;
        value           uniform (0 0 0);
    }
    outlet
    {
        type            calculated;
        value           nonuniform 0();
    }
    wall
    {
        type            calculated;
        value           uniform (0 0 0);
    }
    procBoundary4to0
    {
        type            processor;
        value           uniform (0 0 0);
    }
    procBoundary4to5
    {
        type            processor;
        value           uniform (0 0 0);
    }
    procBoundary4to6
    {
        type            processor;
        value           uniform (0 0 0);
    }
}


// ************************************************************************* //
