/*--------------------------------*- C++ -*----------------------------------*\
| =========                 |                                                 |
| \\      /  F ield         | OpenFOAM: The Open Source CFD Toolbox           |
|  \\    /   O peration     | Version:  4.x                                   |
|   \\  /    A nd           | Web:      www.OpenFOAM.org                      |
|    \\/     M anipulation  |                                                 |
\*---------------------------------------------------------------------------*/
FoamFile
{
    version     2.0;
    format      ascii;
    class       volVectorField;
    location    "30";
    object      GField;
}
// * * * * * * * * * * * * * * * * * * * * * * * * * * * * * * * * * * * * * //

dimensions      [1 -2 -1 0 0 0 0];

internalField   nonuniform List<vector> 
114
(
(97.736 1.62759 0.0676815)
(25.0114 0.784521 -1.88718)
(88.4146 1.48123 1.98299)
(12.682 0.96399 -1.09803)
(70.0534 -1.82318 5.73764)
(16.7545 3.16398 3.27463)
(6.50148 -1.3051 -0.797558)
(90.3951 2.23572 0.909204)
(2.64602 -0.742742 -0.518027)
(88.6838 5.47292 5.04963)
(2.26985 -0.737107 -0.708763)
(80.4078 11.0242 12.5374)
(8.50371 -1.95079 -3.95135)
(81.0577 1.14595 -0.207496)
(1.81614e-05 3.07536e-06 -3.88454e-06)
(80.3326 1.29783 1.00125)
(1.66074e-05 -3.35269e-06 -1.39291e-05)
(78.4949 0.565414 2.92897)
(3.89017 -0.790893 -0.608649)
(71.4337 3.02099 6.01825)
(28.7605 -4.29556 -2.53371)
(42.9135 -0.863788 -0.088895)
(104.504 -0.789725 1.03897)
(40.558 -1.31393 1.10092)
(108.155 0.676612 2.29493)
(36.6805 -3.09822 2.73879)
(113.847 2.98224 2.17738)
(30.7649 -7.34456 6.08898)
(128.463 7.43351 -4.01167)
(23.5555 -23.1807 20.1933)
(7.16749 -0.822166 0.059748)
(90.8206 0.0895404 0.974326)
(1.72577 -0.314043 0.0704329)
(91.0726 1.59327 1.54704)
(2.06765 -0.601727 0.260952)
(90.1414 3.98481 1.83494)
(12.0675 -6.12161 3.54336)
(85.1686 8.84415 -1.14675)
(31.8137 -32.7608 21.2399)
(2.08398e-05 3.50539e-07 2.28138e-06)
(86.8476 0.858842 -0.127898)
(1.69074e-05 6.03457e-07 2.78797e-06)
(87.3863 -0.115543 1.44022)
(2.26556 -0.798247 0.513345)
(88.8162 -1.44098 3.11946)
(7.43996 -3.38906 2.41446)
(81.9204 6.03009 -0.724868)
(18.6146 -8.32772 5.12886)
(1.82277e-05 1.32606e-06 2.18924e-06)
(83.2691 -0.466708 0.377985)
(45.1307 0.148636 -1.27845)
(102.144 -0.0238914 -0.113188)
(43.4039 1.00739 -1.46757)
(104.265 1.02686 -0.8353)
(40.271 1.82515 -1.09441)
(105.922 2.13297 -2.04737)
(32.3227 2.88953 0.963017)
(105.208 2.64998 -7.05383)
(14.9812 3.38833 5.43132)
(22.2245 -1.30937 -0.388047)
(94.4133 -0.920006 0.520768)
(19.7686 -1.81359 -0.015061)
(97.5404 0.850474 -1.16993)
(18.4373 -2.69117 0.898846)
(101.748 5.35779 -3.75314)
(18.9447 -4.47804 3.64412)
(110.869 13.5973 -9.75297)
(18.8857 -10.7281 13.9063)
(9.47076 -0.391878 0.13679)
(87.7126 0.262469 -0.698776)
(5.05972 -0.311995 0.275848)
(86.6018 1.51553 -0.644373)
(4.99778 -0.461386 0.612312)
(83.5216 2.34054 -0.275182)
(13.2263 -2.32431 3.59287)
(76.852 4.61582 -2.14779)
(31.3608 -13.3218 21.7123)
(6.12534 -0.167929 0.736095)
(88.967 0.590243 -0.329284)
(4.26634 -0.0943743 0.836928)
(90.458 -0.120558 -0.189533)
(65.1869 -0.423775 1.48086)
(115.37 -0.498078 1.60116)
(67.1833 -0.155795 2.04595)
(121.984 0.0270579 1.07306)
(65.9708 -1.11013 4.60942)
(134.273 0.893671 -0.130158)
(58.2541 -4.43512 11.4992)
(161.859 3.76622 -5.85071)
(28.3106 -16.6544 22.508)
(51.4145 -2.74929 0.776179)
(107.087 -2.24237 1.05731)
(51.4765 -3.67593 0.555058)
(111.62 -1.1544 -0.143154)
(48.2476 -5.13256 1.04017)
(117.364 1.69962 -1.91715)
(39.2611 -7.90633 2.71321)
(125.211 10.2238 -6.63878)
(17.3898 -13.2324 4.395)
(40.1505 -1.47737 0.932697)
(99.6924 -1.14779 0.788592)
(37.4726 -1.88113 1.65818)
(102.325 -0.563221 0.0189021)
(35.3278 -2.23782 3.86344)
(108.004 1.37128 -2.75224)
(32.4546 -2.75715 8.67456)
(123.861 6.12952 -10.2413)
(21.7034 -2.09376 20.2806)
(38.8273 -1.39316 0.515963)
(100.107 -1.5217 0.100211)
(35.4957 -2.15147 0.479505)
(102.307 -2.09653 -1.34217)
(31.4136 -3.77154 1.3309)
(107.241 -1.35931 -1.66551)
)
;

boundaryField
{
    inlet
    {
        type            calculated;
        value           nonuniform 0();
    }
    outlet
    {
        type            calculated;
        value           nonuniform List<vector> 
12
(
(36.7762 6.94494 7.18782)
(18.7022 -4.29038 -8.69021)
(63.487 -9.48221 -5.59301)
(51.7484 -50.9249 44.3619)
(70.2429 -72.3341 46.8965)
(41.1533 -18.411 11.3389)
(33.0152 7.46711 11.9694)
(41.6355 -23.6512 30.6579)
(69.9438 -29.7116 48.4248)
(61.9096 -36.42 49.2206)
(38.3089 -29.1503 9.68199)
(48.1267 -4.64286 44.9717)
)
;
    }
    wall
    {
        type            calculated;
        value           uniform (0 0 0);
    }
    procBoundary5to1
    {
        type            processor;
        value           nonuniform List<vector> 
32
(
(112.811 2.06661 -3.3933)
(40.1229 0.539224 -9.47524)
(116.896 3.5028 -0.598811)
(30.5674 -1.34032 -15.4871)
(123.291 5.6835 12.5438)
(17.5382 -4.58782 -23.6207)
(19.1301 -1.44155 -2.96438)
(102.674 1.97528 -0.172771)
(18.7721 -3.09029 -5.00923)
(106.291 4.52467 3.49935)
(20.6643 -7.47649 -9.84594)
(111.294 10.4656 13.4671)
(18.1991 -18.5673 -17.2248)
(90.1656 0.532982 1.29895)
(1.52386 -0.229802 -0.53894)
(90.6633 0.696672 2.0845)
(3.96177 -1.18375 -1.89048)
(90.3945 1.02688 5.25783)
(11.5615 -6.61451 -6.79554)
(86.1821 9.65381 12.379)
(29.3177 -25.6635 -12.4587)
(43.9549 -0.114595 -1.80457)
(102.142 0.138498 -1.0524)
(36.8126 0.816038 -1.78199)
(36.8126 0.816038 -1.78199)
(36.8126 0.816038 -1.78199)
(12.7096 -1.88185 -1.03902)
(90.2604 0.330644 -1.28114)
(90.2604 0.330644 -1.28114)
(90.2604 0.330644 -1.28114)
(2.1702e-05 3.23577e-06 -2.63822e-06)
(2.1702e-05 3.23577e-06 -2.63822e-06)
)
;
    }
    procBoundary5to4
    {
        type            processor;
        value           nonuniform List<vector> 
12
(
(101.425 -1.56929 -0.188872)
(90.3561 -1.2358 0.388211)
(86.8457 0.187308 -0.193844)
(83.0735 0.137098 0.491018)
(100.661 -0.857236 0.590631)
(92.681 -1.65716 1.27786)
(87.8842 -0.233813 0.356841)
(87.9738 -0.80112 0.64962)
(110.176 -1.06295 1.89177)
(103.77 -2.30178 1.67869)
(98.1051 -0.976779 1.48827)
(98.3037 -1.28114 0.977249)
)
;
    }
    procBoundary5to7
    {
        type            processor;
        value           nonuniform List<vector> 
44
(
(84.8419 0.715004 -0.337103)
(1.93493e-05 1.0914e-05 -4.4165e-06)
(85.5791 1.6607 1.13366)
(1.91298e-05 8.53577e-06 -1.55571e-05)
(85.3088 1.53953 3.98586)
(1.63571e-05 7.3067e-06 -2.49948e-05)
(78.1446 -4.3268 9.69876)
(21.881 3.8972 -2.14691)
(0.000106434 1.25301e-05 -1.92763e-05)
(84.8419 0.715004 -0.337103)
(1.90956e-05 1.17587e-06 3.57568e-06)
(83.5342 -0.988012 2.25821)
(2.11586e-05 2.00599e-06 4.30595e-06)
(81.7508 -1.04389 4.43911)
(2.08862e-05 -4.62812e-06 1.1449e-06)
(72.1316 2.05894 0.836251)
(21.0139 -2.58407 5.50562)
(2.07927e-05 1.92931e-06 -1.03215e-06)
(1.90956e-05 1.17587e-06 3.57568e-06)
(83.1781 -0.175614 -0.0307668)
(1.90956e-05 1.17587e-06 3.57568e-06)
(83.5342 -0.988012 2.25821)
(7.33323 -0.344772 2.33238)
(91.4053 0.00228068 0.839188)
(14.4451 -1.08656 7.98437)
(86.0505 1.46823 -7.6929)
(26.8177 -2.32808 27.9155)
(0.981905 0.0196704 0.0288603)
(85.7012 0.354728 -1.15625)
(2.77037e-05 -2.87515e-06 -1.73717e-06)
(7.33323 -0.344772 2.33238)
(84.7273 -0.520463 -0.798624)
(7.33323 -0.344772 2.33238)
(91.4053 0.00228068 0.839188)
(29.9602 -8.68834 4.60697)
(121.195 5.27697 -3.70158)
(21.2846 -18.9409 15.3522)
(30.8793 -0.134157 0.365194)
(93.9556 -0.0716453 -0.988748)
(23.4382 -0.482747 0.110725)
(91.8518 -0.43161 -1.71093)
(14.9886 -0.860916 0.615399)
(29.9602 -8.68834 4.60697)
(88.661 -0.975855 -4.17488)
)
;
    }
}


// ************************************************************************* //
