/*--------------------------------*- C++ -*----------------------------------*\
| =========                 |                                                 |
| \\      /  F ield         | OpenFOAM: The Open Source CFD Toolbox           |
|  \\    /   O peration     | Version:  4.x                                   |
|   \\  /    A nd           | Web:      www.OpenFOAM.org                      |
|    \\/     M anipulation  |                                                 |
\*---------------------------------------------------------------------------*/
FoamFile
{
    version     2.0;
    format      ascii;
    class       volScalarField;
    location    "30";
    object      p;
}
// * * * * * * * * * * * * * * * * * * * * * * * * * * * * * * * * * * * * * //

dimensions      [1 -1 -2 0 0 0 0];

internalField   nonuniform List<scalar> 
114
(
69.102
-16.056
63.031
-33.6378
56.4439
-48.5405
2.19125
68.7958
-16.3856
62.6954
-34.7397
56.9697
-51.0689
75.1486
5.20651
68.4933
-12.4107
61.6944
-29.5193
53.9113
-45.1809
-1857.68
-1802.91
-1876.84
-1809.27
-1896.92
-1814.7
-1918.38
-1818.2
-1942.29
-1857.5
-1802.8
-1876.34
-1809.56
-1895.39
-1815.76
-1914.28
-1820.78
-1931.42
-1856.23
-1802.98
-1874.42
-1809.61
-1893.08
-1815.64
-1911.9
-1820.65
-1929.36
-1855.07
-1802.98
-3734.7
-3680.68
-3753.65
-3687.12
-3772.9
-3692.96
-3792.43
-3697.76
-3811.28
-3734.93
-3680.67
-3754.06
-3687.26
-3773.58
-3693.26
-3793.68
-3698
-3814.39
-3734.04
-3680.59
-3752.37
-3687.49
-3770.68
-3694.46
-3788.58
-3701.25
-3804.49
-3734.39
-3680.78
-3753.22
-3687.65
-5613.11
-5558.89
-5632.07
-5565.06
-5652.34
-5570.2
-5674.93
-5572.36
-5704.54
-5613
-5558.79
-5632.08
-5565.08
-5651.95
-5570.56
-5673.07
-5573.97
-5695.63
-5612.22
-5558.62
-5630.97
-5565.23
-5650.46
-5571.25
-5671.18
-5575.69
-5694.34
-5612.43
-5558.66
-5631.34
-5565.16
-5650.96
-5571.14
)
;

boundaryField
{
    inlet
    {
        type            calculated;
        value           nonuniform 0();
    }
    outlet
    {
        type            calculated;
        value           nonuniform List<scalar> 
12
(
0
0
0
-1877.91
-1877.91
-1877.91
-3755.83
-3755.83
-3755.83
-5633.74
-5633.74
-5633.74
)
;
    }
    wall
    {
        type            calculated;
        value           nonuniform List<scalar> 
66
(
-6552.06
-6551.96
-6551.18
-6551.39
-6497.84
-6497.75
-6497.57
-6497.62
-6571.03
-6571.04
-6569.93
-6570.29
-6504.01
-6504.03
-6504.18
-6504.11
-6591.3
-6590.9
-6589.41
-6589.9
-6509.15
-6509.51
-6510.19
-6510.08
-6613.88
-6612.02
-6610.11
-6511.31
-6512.92
-6514.63
-6647.43
-6634.33
-6633.01
-1857.68
-3734.7
-5613.11
-1802.91
-3680.68
-5558.89
-1876.84
-3753.65
-5632.07
69.102
-1809.27
-3687.12
-5565.06
-16.056
-1896.92
-3772.9
-5652.34
63.031
-1814.7
-3692.96
-5570.2
-33.6378
-1918.38
-3792.43
-5674.93
56.4439
-1818.2
-3697.76
-5572.36
-48.5405
-1942.29
-3811.28
-5704.54
)
;
    }
    procBoundary5to1
    {
        type            processor;
        value           nonuniform List<scalar> 
32
(
1946.7
1857.65
1941.66
1835.99
1938.9
1813.63
1877.9
1946.42
1857.77
1940.96
1837.09
1937.43
1816.64
1952.69
1879.37
1946.16
1860.25
1940.41
1841.23
1936.03
1823.71
21.0235
75.403
2.54201
2.54201
2.54201
20.9626
75.3516
75.3516
75.3516
22.9475
22.9475
)
;
    }
    procBoundary5to4
    {
        type            processor;
        value           nonuniform List<scalar> 
12
(
-1796.11
-1795.81
-1795.89
-1795.91
-3673.89
-3673.74
-3673.58
-3673.71
-5552.22
-5551.98
-5551.78
-5551.8
)
;
    }
    procBoundary5to7
    {
        type            processor;
        value           nonuniform List<scalar> 
44
(
75.0791
4.68903
68.5125
-13.5466
62.6195
-32.0046
56.4511
-48.7337
22.8537
75.0791
-1872.93
-1809.54
-1891.11
-1815.5
-1909.04
-1822.39
-1925.43
-1855.48
-1872.93
-1802.87
-1872.93
-1809.54
-3772.25
-3693.85
-3791.22
-3699.1
-3808.85
-3733.72
-3680.76
-3752.02
-3772.25
-3687.48
-3772.25
-3693.85
-5671.64
-5575.56
-5694.52
-5611.72
-5558.39
-5630.09
-5564.96
-5648.67
-5671.64
-5571.34
)
;
    }
}


// ************************************************************************* //
