/*--------------------------------*- C++ -*----------------------------------*\
| =========                 |                                                 |
| \\      /  F ield         | OpenFOAM: The Open Source CFD Toolbox           |
|  \\    /   O peration     | Version:  4.x                                   |
|   \\  /    A nd           | Web:      www.OpenFOAM.org                      |
|    \\/     M anipulation  |                                                 |
\*---------------------------------------------------------------------------*/
FoamFile
{
    version     2.0;
    format      ascii;
    class       volScalarField;
    location    "50";
    object      magGField;
}
// * * * * * * * * * * * * * * * * * * * * * * * * * * * * * * * * * * * * * //

dimensions      [1 -2 -1 0 0 0 0];

internalField   nonuniform List<scalar> 
108
(
96.2117
41.0002
97.5798
43.7387
99.3987
45.604
101.009
46.0993
102.848
94.5541
33.6013
92.4217
26.5806
91.1069
21.7934
91.3463
17.2235
91.7677
94.2363
29.9148
89.8016
19.4495
87.9019
12.0367
87.5727
4.28793
87.6571
94.5119
30.007
89.369
18.4199
86.6664
8.33611
85.0935
1.13775
84.7166
96.08
41.2935
97.6814
43.4191
98.7984
45.0862
100.254
44.2012
100.095
95.2186
36.5438
94.378
33.3651
93.6407
29.9779
93.1859
25.3377
93.1215
94.8716
32.3714
91.0701
23.7225
88.8516
16.5213
88.3171
9.84699
88.4859
93.6586
31.4128
90.1898
21.8912
87.9077
14.4343
87.4778
9.0181
88.5339
96.4763
45.7604
101.667
53.8637
104.996
58.2579
107.401
61.854
111.349
95.7402
41.7241
97.7521
46.0527
100.097
48.8008
102.159
50.9328
104.914
94.5992
39.0735
94.8302
39.9936
96.1012
41.4773
97.937
43.2858
100.162
93.4324
38.1702
93.9717
37.769
94.8175
39.195
97.4138
42.4661
100.172
)
;

boundaryField
{
    inlet
    {
        type            calculated;
        value           uniform 67;
    }
    outlet
    {
        type            calculated;
        value           nonuniform 0();
    }
    wall
    {
        type            calculated;
        value           uniform 0;
    }
    procBoundary4to0
    {
        type            processor;
        value           nonuniform List<scalar> 
36
(
97.2317
40.4037
98.9591
43.5249
100.349
44.5472
101.28
43.4907
101.152
96.201
32.8963
93.9788
26.6356
92.2842
20.17
90.8105
12.5951
90.407
95.3859
28.7618
90.3952
15.3843
86.5558
4.18952
83.9056
3.30814e-05
81.1917
95.1391
30.4644
91.0512
20.0431
89.6547
13.525
89.082
9.52051
88.8307
)
;
    }
    procBoundary4to5
    {
        type            processor;
        value           nonuniform List<scalar> 
12
(
45.4762
10.3918
3.65957e-05
3.59337e-05
42.0162
21.5425
3.78014
5.99584
66.3964
52.6387
44.1956
43.0142
)
;
    }
    procBoundary4to6
    {
        type            processor;
        value           nonuniform List<scalar> 
27
(
92.1088
26.2787
87.0411
11.6355
83.3108
1.7223
81.7223
3.42911e-05
80.9541
93.0325
31.0615
89.9716
22.0387
88.1922
14.3625
87.0032
7.53783
86.427
94.6504
40.1419
94.9644
40.27
95.1434
40.114
95.3379
38.1601
96.8588
)
;
    }
}


// ************************************************************************* //
