/*--------------------------------*- C++ -*----------------------------------*\
| =========                 |                                                 |
| \\      /  F ield         | OpenFOAM: The Open Source CFD Toolbox           |
|  \\    /   O peration     | Version:  4.x                                   |
|   \\  /    A nd           | Web:      www.OpenFOAM.org                      |
|    \\/     M anipulation  |                                                 |
\*---------------------------------------------------------------------------*/
FoamFile
{
    version     2.0;
    format      ascii;
    class       volScalarField;
    location    "50";
    object      QWallFluid;
}
// * * * * * * * * * * * * * * * * * * * * * * * * * * * * * * * * * * * * * //

dimensions      [1 -1 -3 0 0 0 0];

internalField   nonuniform List<scalar> 
108
(
8.26801e+08
4.17876e+08
8.36193e+08
4.40059e+08
8.48639e+08
4.5501e+08
8.59619e+08
4.58959e+08
8.7212e+08
0
0
0
0
0
0
0
0
0
0
0
0
0
0
0
0
0
0
0
0
0
0
0
0
0
0
0
8.25895e+08
4.20266e+08
8.3689e+08
4.37485e+08
8.44537e+08
4.50873e+08
8.54478e+08
4.43778e+08
8.53392e+08
0
0
0
0
0
0
0
0
0
0
0
0
0
0
0
0
0
0
0
0
0
0
0
0
0
0
0
1.65724e+09
9.12516e+08
1.7282e+09
1.03965e+09
1.77332e+09
1.10696e+09
1.80574e+09
1.1613e+09
1.85865e+09
8.23558e+08
4.23768e+08
8.37374e+08
4.58588e+08
8.53406e+08
4.80353e+08
8.67444e+08
4.97069e+08
8.86107e+08
8.15696e+08
4.02091e+08
8.17289e+08
4.09648e+08
8.26042e+08
4.21761e+08
8.38641e+08
4.3641e+08
8.53852e+08
8.07638e+08
3.94637e+08
8.11365e+08
3.91315e+08
8.17202e+08
4.03091e+08
8.35055e+08
4.29786e+08
8.5392e+08
)
;

boundaryField
{
    inlet
    {
        type            calculated;
        value           uniform 0;
    }
    outlet
    {
        type            calculated;
        value           nonuniform 0();
    }
    wall
    {
        type            calculated;
        value           uniform 0;
    }
    procBoundary4to0
    {
        type            processor;
        value           nonuniform List<scalar> 
36
(
8.33806e+08
4.13005e+08
8.45636e+08
4.38338e+08
8.55126e+08
4.46555e+08
8.61462e+08
4.38062e+08
8.60594e+08
0
0
0
0
0
0
0
0
0
0
0
0
0
0
0
0
0
0
0
0
0
0
0
0
0
0
0
)
;
    }
    procBoundary4to5
    {
        type            processor;
        value           nonuniform List<scalar> 
12
(
4.53989e+08
0
0
0
4.2614e+08
0
0
0
1.22903e+09
5.10344e+08
4.43734e+08
4.34219e+08
)
;
    }
    procBoundary4to6
    {
        type            processor;
        value           nonuniform List<scalar> 
27
(
0
0
0
0
0
0
0
0
0
0
0
0
0
0
0
0
0
0
8.1605e+08
4.10863e+08
8.18215e+08
4.11912e+08
8.19448e+08
4.10635e+08
8.20788e+08
3.94554e+08
8.31247e+08
)
;
    }
}


// ************************************************************************* //
