/*--------------------------------*- C++ -*----------------------------------*\
| =========                 |                                                 |
| \\      /  F ield         | OpenFOAM: The Open Source CFD Toolbox           |
|  \\    /   O peration     | Version:  4.x                                   |
|   \\  /    A nd           | Web:      www.OpenFOAM.org                      |
|    \\/     M anipulation  |                                                 |
\*---------------------------------------------------------------------------*/
FoamFile
{
    version     2.0;
    format      ascii;
    class       volVectorField;
    location    "50";
    object      Urel;
}
// * * * * * * * * * * * * * * * * * * * * * * * * * * * * * * * * * * * * * //

dimensions      [0 1 -1 0 0 0 0];

internalField   nonuniform List<vector> 
108
(
(-0.0233593 0.00061161 0.000514173)
(-0.0214274 0.000545397 0.00047791)
(-0.0223709 0.000551554 0.00046239)
(-0.020918 0.000459631 0.000414561)
(-0.0221239 0.000431068 0.000362628)
(-0.0207921 0.000337584 0.000315914)
(-0.0220886 0.000304611 0.000262117)
(-0.0207413 0.000229476 0.000213595)
(-0.0221054 0.000197561 0.000122386)
(-0.0231682 0.000627339 0.000499354)
(-0.0210356 0.000544706 0.000456724)
(-0.0218875 0.000570891 0.000430527)
(-0.0201006 0.000453691 0.000376773)
(-0.0213434 0.000443705 0.000323106)
(-0.0196346 0.000333704 0.000274201)
(-0.0210832 0.000310941 0.000221305)
(-0.0193309 0.000228513 0.000178635)
(-0.0209455 0.000191773 0.000108675)
(-0.0229771 0.00042427 0.000486747)
(-0.0206874 0.000370395 0.000438111)
(-0.0214408 0.00038431 0.000399914)
(-0.0194076 0.000304989 0.000339343)
(-0.0206346 0.000300665 0.00028318)
(-0.0186611 0.000220939 0.00023456)
(-0.0201856 0.000196115 0.000200754)
(-0.0181667 0.000140212 0.000151182)
(-0.0199243 0.000101433 0.000119306)
(-0.0228905 0.000142951 0.000497604)
(-0.0205523 0.000109772 0.000439718)
(-0.0212557 0.000120952 0.000411402)
(-0.0191348 9.75619e-05 0.000347361)
(-0.0203365 0.000102157 0.000301372)
(-0.0182573 7.6567e-05 0.000240011)
(-0.0198068 6.16081e-05 0.000205447)
(-0.017724 5.89788e-05 0.000157809)
(-0.0195031 5.80854e-05 0.000123051)
(-0.0234351 0.000588699 0.000185712)
(-0.0215591 0.00052566 0.000180664)
(-0.0225372 0.000516135 0.000154788)
(-0.0211572 0.000432585 0.00016365)
(-0.0223805 0.000401109 0.000130674)
(-0.0211117 0.000320951 0.000118725)
(-0.0224013 0.000285035 6.15441e-05)
(-0.0211192 0.000219019 3.91793e-05)
(-0.0224795 0.000191877 -3.28634e-05)
(-0.023268 0.000604915 0.000157008)
(-0.0212357 0.000530503 0.000155027)
(-0.0221272 0.000544259 0.000110143)
(-0.0205012 0.000435369 0.000121084)
(-0.0217242 0.000420913 7.89082e-05)
(-0.0201824 0.000319573 7.71335e-05)
(-0.0215622 0.000293541 2.0031e-05)
(-0.0199867 0.000225001 1.34288e-05)
(-0.0215159 0.000208226 -4.70317e-05)
(-0.0230847 0.000416353 0.000129918)
(-0.0209013 0.000357945 0.000128406)
(-0.0217027 0.000366704 7.58254e-05)
(-0.0198282 0.000293065 8.33416e-05)
(-0.0210469 0.000276092 3.48158e-05)
(-0.0192425 0.000209708 3.88001e-05)
(-0.0207146 0.000181038 -9.73454e-06)
(-0.0188755 0.00014887 -2.65447e-06)
(-0.0205497 0.000132072 -3.41459e-05)
(-0.0229953 0.000116 0.000125634)
(-0.0207609 8.94911e-05 0.000115636)
(-0.0215125 8.96068e-05 6.44324e-05)
(-0.0195582 8.12157e-05 7.24955e-05)
(-0.0207616 8.08205e-05 1.58995e-05)
(-0.0188685 7.83981e-05 2.7046e-05)
(-0.020361 7.55459e-05 -1.67259e-05)
(-0.0184589 8.11523e-05 6.45244e-06)
(-0.0201558 8.81096e-05 -4.37297e-06)
(-0.0235507 0.000575628 1.27808e-05)
(-0.021804 0.000517333 1.2089e-05)
(-0.0228392 0.00049903 -2.59948e-05)
(-0.0216693 0.000414951 -4.13469e-06)
(-0.0228951 0.000375181 -3.64936e-05)
(-0.0218367 0.000302107 -3.53065e-05)
(-0.0230881 0.000271846 -0.00010724)
(-0.0220539 0.000228233 -0.0001294)
(-0.02336 0.000218128 -0.000199536)
(-0.0234002 0.000588032 -4.41436e-06)
(-0.0215212 0.000519661 -2.28307e-06)
(-0.0224718 0.000522623 -4.97149e-05)
(-0.021112 0.000421626 -3.1035e-05)
(-0.0223214 0.000393209 -7.20763e-05)
(-0.0210902 0.00031175 -6.48525e-05)
(-0.0223775 0.000289592 -0.000129256)
(-0.0211715 0.00024956 -0.000125823)
(-0.0225378 0.000247775 -0.000177972)
(-0.0232211 0.000406634 -2.79417e-05)
(-0.0212283 0.000352966 -2.70559e-05)
(-0.0220913 0.000363144 -8.16237e-05)
(-0.0205429 0.000295812 -6.07303e-05)
(-0.0217173 0.000273617 -0.000109452)
(-0.0203179 0.000215564 -8.65907e-05)
(-0.0216306 0.00019581 -0.000140787)
(-0.0202768 0.000180743 -0.000116958)
(-0.0216712 0.000185307 -0.00015511)
(-0.0231382 0.000101653 -3.26884e-05)
(-0.0211039 9.16346e-05 -2.85815e-05)
(-0.0219185 0.000101369 -7.4345e-05)
(-0.0202989 9.5615e-05 -5.64165e-05)
(-0.0214589 0.000101352 -0.000100198)
(-0.0199853 0.000102868 -8.22058e-05)
(-0.021295 0.000112746 -0.000121157)
(-0.0198813 0.000123753 -8.16998e-05)
(-0.0212729 0.000147234 -9.60892e-05)
)
;

boundaryField
{
    inlet
    {
        type            calculated;
        value           nonuniform List<vector> 
12
(
(-0.01 1.58262e-11 5.66394e-12)
(-0.01 -3.8942e-12 1.49751e-11)
(-0.01 1.65967e-11 2.65539e-11)
(-0.01 -4.76987e-12 3.89457e-11)
(-0.01 2.57137e-11 1.04591e-12)
(-0.01 -3.6208e-13 8.92656e-12)
(-0.01 1.66624e-11 1.61123e-11)
(-0.01 -6.93682e-12 3.19141e-12)
(-0.01 2.3284e-11 -5.1954e-12)
(-0.01 -1.26308e-11 -1.59499e-11)
(-0.01 1.49292e-11 -4.94024e-12)
(-0.01 -2.62887e-11 -1.73074e-11)
)
;
    }
    outlet
    {
        type            calculated;
        value           nonuniform 0();
    }
    wall
    {
        type            calculated;
        value           nonuniform List<vector> 
63
(
(1.02874e-11 2.3284e-11 -5.1954e-12)
(2.21236e-11 -1.26308e-11 -1.59499e-11)
(1.7899e-11 1.49292e-11 -4.94024e-12)
(3.6826e-11 -2.62887e-11 -1.73074e-11)
(2.41663e-11 2.70662e-11 -2.71147e-12)
(4.06566e-11 3.9948e-12 -3.30389e-12)
(5.92055e-11 4.1584e-11 -3.3062e-12)
(8.12862e-11 -2.64352e-11 -2.53595e-11)
(4.33869e-11 2.49698e-11 -1.64062e-12)
(5.97529e-11 -7.20219e-12 8.07351e-12)
(7.09312e-11 2.37553e-11 1.27049e-11)
(1.97285e-10 2.21135e-11 -1.86216e-11)
(7.47898e-11 1.23469e-11 7.23949e-12)
(1.0992e-10 8.43689e-12 1.46653e-11)
(1.08363e-10 2.45142e-11 9.67933e-12)
(1.9295e-10 -2.98196e-11 3.86435e-12)
(4.53839e-11 2.28395e-11 1.98259e-11)
(1.3057e-10 1.09048e-11 4.40448e-11)
(1.56226e-10 1.0558e-11 4.40757e-11)
(3.08236e-10 -7.42126e-11 -1.33161e-11)
(5.15005e-11 9.97375e-12 2.01919e-11)
(8.05377e-11 -6.29783e-11 6.45716e-11)
(2.28693e-10 -5.78342e-12 8.73501e-11)
(3.7986e-10 -7.05788e-11 -1.51163e-11)
(3.04746e-11 -3.13734e-11 1.00443e-10)
(8.62189e-11 -8.94623e-11 5.31091e-11)
(3.13725e-10 1.01455e-10 1.06561e-10)
(4.31458e-10 4.15855e-11 5.6333e-11)
(4.97153e-11 4.04112e-12 1.68536e-10)
(1.52721e-10 -4.69466e-11 1.86426e-10)
(3.50871e-10 1.64945e-10 1.55734e-10)
(2.2959e-09 -8.67288e-10 5.77389e-11)
(1.12224e-10 -1.42342e-11 8.15855e-11)
(1.60414e-10 -8.87877e-11 1.99467e-10)
(2.57162e-10 2.78002e-11 1.93893e-10)
(9.45396e-10 8.78712e-11 1.50351e-10)
(1.02334e-11 1.58262e-11 5.66394e-12)
(1.54325e-11 2.57137e-11 1.04591e-12)
(1.02874e-11 2.3284e-11 -5.1954e-12)
(3.57092e-11 3.39244e-11 1.05401e-11)
(4.12309e-11 2.38887e-11 8.59395e-12)
(2.41663e-11 2.70662e-11 -2.71147e-12)
(7.03758e-11 2.88832e-11 2.75169e-11)
(6.40656e-11 2.10657e-11 2.78315e-11)
(4.33869e-11 2.49698e-11 -1.64062e-12)
(8.89381e-11 5.04588e-11 7.24122e-11)
(1.02839e-10 3.23322e-11 3.05804e-11)
(7.47898e-11 1.23469e-11 7.23949e-12)
(1.05531e-10 1.19455e-10 9.53994e-11)
(1.30403e-10 4.75094e-11 7.81884e-11)
(4.53839e-11 2.28395e-11 1.98259e-11)
(7.36386e-11 1.02766e-10 1.77397e-10)
(9.96066e-11 3.46658e-11 7.65289e-11)
(5.15005e-11 9.97375e-12 2.01919e-11)
(7.78339e-11 4.25129e-11 3.32269e-10)
(1.18121e-10 -1.25746e-11 1.72552e-10)
(3.04746e-11 -3.13734e-11 1.00443e-10)
(-9.24288e-12 1.51416e-10 5.69415e-10)
(1.15126e-10 6.94005e-11 3.42999e-10)
(4.97153e-11 4.04112e-12 1.68536e-10)
(-1.74716e-10 1.53127e-11 9.05155e-10)
(2.72173e-10 -3.66183e-11 3.08091e-10)
(1.12224e-10 -1.42342e-11 8.15855e-11)
)
;
    }
    procBoundary4to0
    {
        type            processor;
        value           nonuniform List<vector> 
36
(
(-0.0233814 0.000593429 0.00087856)
(-0.0214323 0.000531326 0.000809919)
(-0.0224181 0.000536165 0.000807088)
(-0.0209761 0.000448416 0.000706052)
(-0.0222197 0.000421857 0.000657444)
(-0.0208858 0.000332761 0.000566239)
(-0.0222006 0.00029458 0.000511312)
(-0.0208227 0.000200098 0.000441448)
(-0.0221726 0.000142262 0.000364691)
(-0.0231966 0.000611339 0.000892528)
(-0.021043 0.000534167 0.000805321)
(-0.0219379 0.000567469 0.000802242)
(-0.020148 0.000450547 0.000673756)
(-0.021415 0.000444468 0.000626082)
(-0.0196859 0.000330242 0.000515069)
(-0.0211624 0.000290577 0.000467419)
(-0.0193637 0.000208786 0.000381341)
(-0.0209995 0.000140964 0.000332344)
(-0.0229977 0.000402991 0.000893835)
(-0.0206883 0.000351001 0.000796188)
(-0.0214773 0.000358787 0.000779216)
(-0.0194016 0.000280338 0.000637554)
(-0.0206664 0.000258215 0.000583882)
(-0.0186287 0.000194382 0.000463746)
(-0.0202138 0.00015284 0.000417541)
(-0.0182039 0.000119068 0.000321906)
(-0.0199377 7.36791e-05 0.000265843)
(-0.0229233 0.000113536 0.000892494)
(-0.020595 9.05824e-05 0.000797971)
(-0.0213443 7.82442e-05 0.000784418)
(-0.0192464 6.45173e-05 0.000643608)
(-0.0204822 5.1918e-05 0.000599316)
(-0.0184615 5.01146e-05 0.00047275)
(-0.0200154 5.22503e-05 0.000423689)
(-0.0180077 3.87115e-05 0.000330686)
(-0.0197306 3.72949e-05 0.000269348)
)
;
    }
    procBoundary4to5
    {
        type            processor;
        value           nonuniform List<vector> 
12
(
(-0.0206487 0.000133908 6.34482e-05)
(-0.0190607 0.000138871 7.18832e-05)
(-0.017882 8.20707e-05 8.15939e-05)
(-0.0174902 5.84783e-05 0.00010132)
(-0.0211164 0.00013962 -4.36203e-05)
(-0.0198628 0.000171012 -4.54632e-05)
(-0.018648 0.000125514 -3.00556e-05)
(-0.0182476 9.83198e-05 -1.062e-06)
(-0.0223141 0.000182591 -0.000208229)
(-0.0213054 0.000239707 -0.00016703)
(-0.0203 0.000203352 -0.00013044)
(-0.0198443 0.000179226 -6.71967e-05)
)
;
    }
    procBoundary4to6
    {
        type            processor;
        value           nonuniform List<vector> 
27
(
(-0.0229147 -0.000199223 0.000486364)
(-0.0205592 -0.000176108 0.000433292)
(-0.0212864 -0.000179588 0.000408209)
(-0.0191498 -0.000134181 0.000348606)
(-0.0204 -0.000117762 0.000305787)
(-0.0183051 -7.58241e-05 0.000250597)
(-0.0198876 -4.20777e-05 0.000215463)
(-0.0178632 -1.43971e-05 0.000179099)
(-0.0196176 3.13654e-05 0.000160348)
(-0.0230393 -0.000230091 8.77604e-05)
(-0.0208286 -0.000191979 0.000109364)
(-0.0216053 -0.000206125 5.61754e-05)
(-0.0196906 -0.000145912 7.49795e-05)
(-0.0208954 -0.000137194 2.89773e-05)
(-0.0190296 -7.51859e-05 4.75681e-05)
(-0.020491 -5.31115e-05 3.10418e-05)
(-0.0186019 -2.92261e-06 3.49785e-05)
(-0.0202593 2.3806e-05 3.92915e-05)
(-0.0232051 -0.000227936 -4.89013e-05)
(-0.0212145 -0.000182901 -2.20707e-05)
(-0.0220442 -0.000184 -5.87124e-05)
(-0.020479 -0.000130418 -3.20348e-05)
(-0.0216116 -0.000105976 -7.03147e-05)
(-0.0201547 -4.96316e-05 -4.56541e-05)
(-0.0214056 -9.64507e-06 -7.3622e-05)
(-0.0199423 3.79185e-05 -4.36929e-05)
(-0.0212923 7.40794e-05 -4.68673e-05)
)
;
    }
}


// ************************************************************************* //
