/*--------------------------------*- C++ -*----------------------------------*\
| =========                 |                                                 |
| \\      /  F ield         | OpenFOAM: The Open Source CFD Toolbox           |
|  \\    /   O peration     | Version:  4.x                                   |
|   \\  /    A nd           | Web:      www.OpenFOAM.org                      |
|    \\/     M anipulation  |                                                 |
\*---------------------------------------------------------------------------*/
FoamFile
{
    version     2.0;
    format      ascii;
    class       volScalarField;
    location    "50.5";
    object      QPartFluid;
}
// * * * * * * * * * * * * * * * * * * * * * * * * * * * * * * * * * * * * * //

dimensions      [1 -1 -3 0 0 0 0];

internalField   nonuniform List<scalar> 
132
(
1.01554e+10
9.1863e+09
6.49674e+09
7.99723e+09
1.11293e+10
1.2561e+10
8.02502e+09
6.55206e+09
6.15902e+09
7.49611e+09
1.14667e+10
7.45934e+09
8.18903e+09
8.39496e+09
6.96614e+09
7.88185e+09
7.68723e+09
6.84622e+09
5.35211e+09
9.47521e+09
6.99818e+09
9.03457e+09
8.44228e+09
1.05795e+10
8.68089e+09
9.1969e+09
6.93876e+09
7.08354e+09
7.54493e+09
9.00336e+09
5.9896e+09
7.95915e+09
8.07234e+09
8.03967e+09
7.05754e+09
3.64308e+09
6.55627e+09
8.64561e+09
6.99941e+09
8.21627e+09
8.82615e+09
9.89317e+09
6.071e+09
3.85608e+09
1.01053e+10
7.34251e+09
8.88276e+09
8.67022e+09
8.33012e+09
5.70866e+09
9.07474e+09
4.59925e+09
6.01764e+09
1.01376e+10
7.51819e+09
7.30779e+09
8.2015e+09
1.05047e+10
9.52097e+09
8.35193e+09
6.1903e+09
6.60498e+09
8.5987e+09
5.78551e+09
7.95865e+09
6.60338e+09
6.56198e+09
5.38949e+09
8.34505e+09
4.02395e+09
5.02301e+09
7.29891e+09
8.25203e+09
7.67944e+09
4.66466e+09
8.58135e+09
9.16188e+09
7.09278e+09
6.53769e+09
9.17593e+09
8.87237e+09
7.87391e+09
1.08111e+10
6.92527e+09
8.2084e+09
9.52492e+09
8.68763e+09
9.06757e+09
9.37043e+09
1.0029e+10
9.01685e+09
9.48504e+09
6.94635e+09
6.04531e+09
7.33559e+09
7.21836e+09
8.13541e+09
6.49025e+09
6.90879e+09
8.26033e+09
8.42159e+09
5.23159e+09
5.90583e+09
8.12537e+09
4.89764e+09
7.32658e+09
7.01982e+09
7.55605e+09
8.66126e+09
5.19819e+09
4.93194e+09
6.93357e+09
7.72133e+09
4.29832e+09
6.34888e+09
6.8103e+09
6.36808e+09
7.81731e+09
7.37536e+09
7.21252e+09
7.60737e+09
7.75248e+09
5.98278e+09
6.09201e+09
8.29885e+09
5.91315e+09
7.17259e+09
7.35621e+09
7.03836e+09
6.55619e+09
7.12949e+09
3.68712e+09
)
;

boundaryField
{
    inlet
    {
        type            calculated;
        value           nonuniform 0();
    }
    outlet
    {
        type            calculated;
        value           uniform 0;
    }
    wall
    {
        type            calculated;
        value           uniform 0;
    }
    procBoundary7to0
    {
        type            processor;
        value           uniform 2.62321e+09;
    }
    procBoundary7to1
    {
        type            processor;
        value           uniform 5.90091e+09;
    }
    procBoundary7to3
    {
        type            processor;
        value           nonuniform List<scalar> 
36
(
8.27062e+09
1.10414e+10
9.30057e+09
1.04023e+10
6.65517e+09
7.88588e+09
9.22055e+09
8.50001e+09
7.03218e+09
9.55478e+09
6.1379e+09
8.16388e+09
5.02016e+09
4.38248e+09
9.43233e+09
7.63093e+09
1.0581e+10
5.13137e+09
6.02746e+09
1.031e+10
9.17799e+09
7.26961e+09
7.38732e+09
9.9837e+09
8.10244e+09
9.30982e+09
5.02594e+09
8.74206e+09
4.8618e+09
5.76289e+09
6.95789e+09
6.41313e+09
8.55116e+09
6.28021e+09
9.5254e+09
7.51096e+09
)
;
    }
    procBoundary7to5
    {
        type            processor;
        value           nonuniform List<scalar> 
44
(
9.95853e+09
6.15163e+09
8.71963e+09
5.8919e+09
5.32156e+09
7.46944e+09
6.26114e+09
6.64722e+09
1.02843e+10
5.07466e+09
7.2895e+09
9.11793e+09
6.19789e+09
8.43905e+09
7.32815e+09
8.13452e+09
4.50333e+09
1.02843e+10
5.07466e+09
5.07466e+09
9.55185e+09
9.99127e+09
1.13691e+10
9.27244e+09
9.0473e+09
1.09975e+10
8.24713e+09
5.30216e+09
1.17468e+10
9.55185e+09
9.99127e+09
9.99127e+09
1.04437e+10
8.56474e+09
7.03737e+09
8.22392e+09
6.44514e+09
7.2093e+09
6.49363e+09
7.3539e+09
6.75815e+09
1.04437e+10
8.56474e+09
8.56474e+09
)
;
    }
    procBoundary7to6
    {
        type            processor;
        value           nonuniform List<scalar> 
12
(
8.11661e+09
8.97531e+09
5.62869e+09
9.96739e+09
9.38884e+09
8.74205e+09
9.57553e+09
9.99099e+09
6.87789e+09
4.54431e+09
8.48944e+09
7.19049e+09
)
;
    }
}


// ************************************************************************* //
