/*--------------------------------*- C++ -*----------------------------------*\
| =========                 |                                                 |
| \\      /  F ield         | OpenFOAM: The Open Source CFD Toolbox           |
|  \\    /   O peration     | Version:  4.x                                   |
|   \\  /    A nd           | Web:      www.OpenFOAM.org                      |
|    \\/     M anipulation  |                                                 |
\*---------------------------------------------------------------------------*/
FoamFile
{
    version     2.0;
    format      ascii;
    class       volVectorField;
    location    "50.5";
    object      Us;
}
// * * * * * * * * * * * * * * * * * * * * * * * * * * * * * * * * * * * * * //

dimensions      [0 1 -1 0 0 0 0];

internalField   nonuniform List<vector> 
132
(
(1.86693e-09 4.07358e-10 1.21225e-09)
(2.10099e-09 4.4088e-10 1.15818e-09)
(2.41241e-09 8.16121e-10 1.50554e-09)
(2.41481e-09 5.1613e-10 3.55541e-10)
(2.11185e-09 3.51117e-10 -4.71999e-11)
(1.59987e-09 3.12236e-10 -7.56008e-10)
(9.858e-10 3.46768e-10 -8.36783e-10)
(7.50867e-10 3.42447e-10 -8.86924e-10)
(3.09624e-10 6.22972e-11 -1.65325e-10)
(1.74348e-09 -1.0299e-11 4.21789e-10)
(2.0929e-09 1.94745e-10 4.35097e-10)
(2.25987e-09 3.10773e-10 4.21736e-10)
(2.44415e-09 4.44578e-10 6.38992e-11)
(1.86881e-09 2.64352e-10 -1.26397e-10)
(1.44937e-09 2.82002e-10 -4.20793e-10)
(1.16451e-09 2.13036e-10 -5.19916e-10)
(7.13374e-10 2.94409e-10 -6.68084e-10)
(2.29533e-10 2.27951e-10 -1.88361e-10)
(1.35909e-09 1.39647e-10 1.48249e-10)
(1.7142e-09 -5.3555e-11 -2.50684e-11)
(1.69152e-09 2.46594e-10 2.2294e-10)
(1.57019e-09 3.78276e-10 1.06026e-10)
(1.33354e-09 2.12622e-10 -9.80252e-11)
(9.26749e-10 1.86992e-10 -7.50516e-11)
(5.9811e-10 1.9575e-10 -4.2719e-10)
(5.88341e-10 2.99578e-10 -9.52629e-10)
(-2.09787e-10 2.04525e-10 -4.24231e-10)
(6.56435e-10 -1.02568e-10 5.98397e-11)
(9.11187e-10 -1.40268e-10 5.77696e-11)
(8.40451e-10 1.25948e-10 1.09048e-10)
(8.17004e-10 1.89307e-10 1.39496e-10)
(6.58398e-10 1.28086e-10 8.98646e-11)
(4.1812e-10 1.29672e-10 1.45605e-10)
(2.22155e-10 7.04616e-11 -2.64969e-10)
(2.36496e-10 1.42154e-10 -7.97526e-10)
(-1.34901e-10 5.71853e-11 -5.36418e-11)
(2.15435e-09 3.61731e-10 7.6799e-10)
(2.13404e-09 5.25504e-10 4.248e-10)
(1.60644e-09 3.21702e-10 2.76996e-11)
(1.32931e-09 5.72605e-10 -2.64412e-10)
(7.56067e-10 6.10522e-10 -4.5776e-10)
(4.99887e-10 5.85465e-10 -5.16036e-10)
(1.57871e-10 4.14414e-10 1.23647e-10)
(1.66749e-09 2.41442e-10 3.0945e-10)
(1.86755e-09 3.95018e-10 3.88227e-10)
(2.10004e-09 2.05003e-10 3.07196e-10)
(2.20524e-09 5.42677e-10 7.86908e-11)
(1.93723e-09 5.00426e-10 1.31407e-10)
(1.3514e-09 7.05716e-10 -1.41842e-10)
(1.09519e-09 4.70288e-10 -2.78132e-10)
(8.34011e-10 4.39167e-10 -1.82825e-10)
(-1.02084e-10 2.56062e-10 1.83884e-10)
(1.44426e-09 1.76078e-10 1.45004e-10)
(1.4234e-09 5.99516e-11 1.07537e-10)
(1.61546e-09 4.09532e-10 3.19866e-10)
(1.87082e-09 4.34263e-10 1.73209e-10)
(1.90473e-09 7.32889e-10 1.24315e-10)
(1.7479e-09 1.18993e-09 3.9725e-11)
(1.46308e-09 3.399e-10 -9.86923e-11)
(8.07066e-10 2.05814e-10 -2.81044e-10)
(-4.39817e-10 -1.27429e-10 1.45588e-10)
(5.25192e-10 -1.49749e-10 3.16203e-11)
(6.86428e-10 -1.08587e-10 1.36816e-10)
(7.49366e-10 3.11628e-10 2.63709e-10)
(1.16716e-09 1.77232e-10 1.5227e-10)
(1.14812e-09 2.87054e-10 6.32185e-11)
(1.04643e-09 6.04483e-10 2.21747e-10)
(7.24452e-10 2.87698e-10 -2.37653e-11)
(4.88946e-10 9.89139e-13 -3.06921e-10)
(-2.30379e-10 3.50226e-11 6.3864e-12)
(1.23796e-09 4.77821e-10 7.58582e-11)
(8.27407e-10 5.39326e-10 -9.19472e-11)
(3.19044e-10 5.62618e-10 -1.96827e-10)
(1.99333e-10 6.39906e-10 4.56129e-11)
(1.28665e-10 5.28291e-10 3.05029e-10)
(1.47931e-09 3.20671e-10 2.51116e-10)
(1.7188e-09 5.22679e-10 1.52869e-10)
(1.66773e-09 3.24079e-10 7.35886e-11)
(1.45895e-09 5.57778e-10 -2.66071e-11)
(1.30859e-09 5.82063e-10 2.42374e-11)
(9.92915e-10 7.24259e-10 -1.72295e-10)
(8.27714e-10 5.33917e-10 -1.3597e-10)
(5.14247e-10 2.83588e-10 2.49355e-10)
(6.47716e-11 2.95519e-10 3.81999e-10)
(1.33339e-09 1.69407e-10 4.75768e-11)
(1.5394e-09 1.65485e-10 1.52712e-10)
(1.78423e-09 3.86106e-10 -8.77946e-12)
(1.76403e-09 6.04717e-10 1.71483e-11)
(1.74541e-09 6.50257e-10 1.95324e-10)
(1.88999e-09 8.05162e-10 -6.09268e-11)
(1.66311e-09 4.456e-10 -3.58177e-11)
(1.50123e-09 1.11499e-10 3.33075e-10)
(8.44744e-10 8.23927e-11 -4.21499e-11)
(7.5279e-10 -6.56711e-11 -3.99686e-11)
(7.89535e-10 2.33975e-11 3.43396e-11)
(1.04833e-09 5.50483e-11 2.41017e-11)
(1.50682e-09 1.92596e-10 1.05508e-10)
(1.34922e-09 2.59676e-10 1.27698e-10)
(2.05853e-09 4.0484e-10 3.26776e-10)
(1.59292e-09 2.88321e-10 2.12013e-10)
(1.00072e-09 1.30832e-10 1.31147e-10)
(5.8729e-10 2.63347e-10 4.81282e-11)
(2.69598e-10 4.08784e-10 2.80769e-11)
(2.17891e-10 6.38316e-10 1.45893e-10)
(-2.15331e-10 1.38556e-09 7.32018e-10)
(6.19219e-10 1.86114e-10 7.9635e-11)
(7.45161e-10 3.41812e-10 -3.33376e-11)
(7.94982e-10 2.03123e-10 -4.49758e-11)
(7.18159e-10 3.0847e-10 -2.42307e-11)
(5.58817e-10 4.01075e-10 4.67166e-11)
(4.17593e-10 4.71804e-10 -7.70833e-11)
(3.17493e-10 3.54104e-10 1.07135e-10)
(-8.93483e-11 7.88646e-11 2.85182e-10)
(-4.54792e-10 1.93837e-11 5.32077e-10)
(6.35776e-10 3.95418e-10 6.71115e-12)
(7.1628e-10 2.5382e-10 5.10942e-12)
(8.66328e-10 3.27737e-10 -1.30843e-10)
(9.38887e-10 3.51341e-10 -1.08105e-11)
(9.59725e-10 3.9996e-10 7.39794e-11)
(7.30718e-10 3.48274e-10 -6.84055e-11)
(5.94617e-10 2.63787e-10 -1.02589e-10)
(9.03051e-10 2.99224e-11 2.31155e-10)
(7.5983e-10 2.52101e-10 -3.2932e-10)
(4.37591e-10 -6.89848e-11 -1.70436e-11)
(5.6423e-10 3.19944e-11 -2.36538e-11)
(6.97709e-10 5.96647e-11 -1.32386e-11)
(9.41717e-10 1.38974e-10 6.77025e-11)
(1.22356e-09 -6.55451e-09 2.74013e-11)
(8.78761e-10 2.46483e-10 1.95116e-10)
(9.62882e-10 1.51093e-10 2.97912e-11)
(1.862e-09 2.83069e-10 1.46932e-10)
(-1.32428e-09 4.22631e-09 5.71089e-10)
)
;

boundaryField
{
    inlet
    {
        type            zeroGradient;
    }
    outlet
    {
        type            zeroGradient;
    }
    wall
    {
        type            zeroGradient;
    }
    procBoundary7to0
    {
        type            processor;
        value           uniform (1.29757e-09 3.6486e-10 9.57258e-10);
    }
    procBoundary7to1
    {
        type            processor;
        value           uniform (7.8688e-10 6.62007e-10 1.83025e-09);
    }
    procBoundary7to3
    {
        type            processor;
        value           nonuniform List<vector> 
36
(
(1.88499e-09 -1.62092e-10 1.11807e-09)
(2.09804e-09 8.52956e-11 1.46139e-09)
(2.01539e-09 1.06984e-09 2.00133e-09)
(2.22823e-09 -2.43025e-10 5.2178e-10)
(2.1245e-09 -3.94271e-10 -2.65516e-10)
(1.91706e-09 -2.59381e-11 -1.02907e-09)
(1.56907e-09 -5.07072e-11 -1.26724e-09)
(1.12935e-09 3.63487e-11 -8.1161e-10)
(8.27446e-10 -1.01426e-10 -3.14091e-10)
(1.60272e-09 -3.26829e-10 5.5052e-10)
(1.96669e-09 -3.99023e-10 2.95701e-10)
(2.27196e-09 -5.51853e-11 3.97063e-10)
(2.06386e-09 -1.44611e-10 -2.99453e-10)
(1.87496e-09 -2.20175e-10 -5.34076e-10)
(1.60258e-09 -5.52201e-11 -7.5954e-10)
(1.11277e-09 -4.17198e-11 -9.19932e-10)
(6.59888e-10 1.16547e-10 -1.02671e-09)
(2.77573e-10 -2.13184e-11 -3.67565e-10)
(1.41439e-09 -2.70432e-10 2.22414e-10)
(1.57629e-09 -3.54207e-10 4.91563e-11)
(1.63631e-09 -1.21601e-11 -4.42737e-11)
(1.37661e-09 -8.80861e-11 -2.42724e-10)
(1.24635e-09 -7.10372e-11 -2.73832e-10)
(7.72941e-10 1.16902e-11 -3.21332e-10)
(1.79138e-10 -9.26787e-11 -6.18406e-10)
(8.55469e-11 6.0052e-11 -1.78437e-09)
(-9.38535e-12 -3.02117e-10 -1.82909e-09)
(8.10462e-10 -2.55536e-10 1.3944e-10)
(9.05294e-10 -2.33856e-10 -7.65699e-12)
(9.61116e-10 -6.59001e-11 -4.41182e-11)
(6.58831e-10 1.57847e-10 -6.77188e-11)
(5.64475e-10 -4.76794e-11 -1.95244e-10)
(2.56224e-10 3.82503e-11 -1.36068e-10)
(-2.86372e-10 4.14522e-11 -4.29544e-10)
(-5.59499e-10 -1.97018e-10 -1.67092e-09)
(-3.56302e-10 -1.01149e-09 -3.22445e-09)
)
;
    }
    procBoundary7to5
    {
        type            processor;
        value           nonuniform List<vector> 
44
(
(1.83503e-09 6.7796e-10 2.71699e-09)
(2.49333e-09 1.05995e-09 2.4347e-09)
(2.70398e-09 6.04987e-10 1.18921e-09)
(2.07869e-09 2.98258e-10 3.17408e-10)
(1.5694e-09 2.00559e-10 -2.69811e-10)
(1.03462e-09 3.25183e-10 -6.52153e-10)
(7.22207e-10 1.82136e-10 -9.49925e-10)
(2.33887e-10 -4.43278e-11 -3.75563e-10)
(1.67812e-09 5.61185e-10 7.78168e-10)
(1.94241e-09 4.42755e-10 9.28914e-10)
(2.25033e-09 6.1549e-10 1.71639e-09)
(2.28963e-09 5.68346e-10 8.08288e-10)
(1.85511e-09 2.68428e-10 6.65195e-11)
(1.29532e-09 3.33584e-10 -2.06956e-10)
(9.26443e-10 4.40836e-10 -5.67981e-10)
(3.78595e-10 5.44986e-10 -7.43213e-10)
(-3.11946e-11 3.5052e-10 -4.09705e-10)
(1.67812e-09 5.61185e-10 7.78168e-10)
(1.94241e-09 4.42755e-10 9.28914e-10)
(1.94241e-09 4.42755e-10 9.28914e-10)
(1.83298e-09 3.8375e-10 3.08219e-10)
(1.47477e-09 4.49706e-10 1.36366e-10)
(1.36933e-09 1.74751e-10 2.99512e-11)
(8.30303e-10 3.73294e-10 -6.18394e-11)
(2.68882e-10 5.70373e-10 -4.18116e-10)
(-1.09741e-10 8.87229e-10 -5.93768e-10)
(-1.93171e-10 1.08587e-09 -7.42779e-10)
(1.70325e-09 5.04767e-10 2.74973e-10)
(1.75009e-09 4.99285e-10 3.96821e-10)
(1.83298e-09 3.8375e-10 3.08219e-10)
(1.47477e-09 4.49706e-10 1.36366e-10)
(1.47477e-09 4.49706e-10 1.36366e-10)
(7.64023e-10 3.20795e-10 -9.2555e-12)
(4.53339e-10 3.16646e-10 4.80449e-11)
(1.83982e-10 4.68554e-10 -1.17723e-10)
(-1.86056e-10 8.36807e-10 -2.09086e-10)
(-1.04542e-10 1.5325e-09 -3.35809e-10)
(1.14014e-09 2.8338e-10 2.95741e-11)
(1.18728e-09 2.99433e-10 7.78627e-11)
(1.15439e-09 -3.77744e-10 2.13953e-13)
(9.07645e-10 1.07475e-10 4.45291e-11)
(7.64023e-10 3.20795e-10 -9.2555e-12)
(4.53339e-10 3.16646e-10 4.80449e-11)
(4.53339e-10 3.16646e-10 4.80449e-11)
)
;
    }
    procBoundary7to6
    {
        type            processor;
        value           nonuniform List<vector> 
12
(
(1.4179e-09 3.43299e-10 3.29417e-10)
(1.17469e-09 -2.87096e-11 1.48872e-10)
(3.28918e-10 -8.40941e-11 2.56096e-11)
(1.55308e-09 3.15311e-10 2.49736e-10)
(1.1772e-09 -1.4103e-11 1.59903e-10)
(2.86219e-10 -1.40305e-10 3.26876e-11)
(1.23123e-09 2.72118e-10 2.26369e-10)
(1.26941e-09 2.36138e-10 1.72009e-11)
(5.60967e-10 5.85364e-11 -9.48444e-11)
(6.12763e-10 1.37571e-10 6.486e-11)
(6.78895e-10 4.31019e-10 -6.97408e-11)
(4.05265e-10 1.21802e-10 -1.3448e-10)
)
;
    }
}


// ************************************************************************* //
