/*--------------------------------*- C++ -*----------------------------------*\
| =========                 |                                                 |
| \\      /  F ield         | OpenFOAM: The Open Source CFD Toolbox           |
|  \\    /   O peration     | Version:  4.x                                   |
|   \\  /    A nd           | Web:      www.OpenFOAM.org                      |
|    \\/     M anipulation  |                                                 |
\*---------------------------------------------------------------------------*/
FoamFile
{
    version     2.0;
    format      ascii;
    class       volScalarField;
    location    "13";
    object      particleRelTemp;
}
// * * * * * * * * * * * * * * * * * * * * * * * * * * * * * * * * * * * * * //

dimensions      [0 0 0 0 0 0 0];

internalField   nonuniform List<scalar> 
87
(
5.03746e-08
-1.57595e-07
1.90047e-07
-2.13427e-07
-3.34297e-08
2.12847e-07
-2.14099e-07
-3.02856e-07
-3.40285e-07
-4.04703e-07
-4.80762e-07
-3.31628e-07
-3.57233e-07
-1.84118e-07
2.86201e-08
-2.45907e-07
-3.01923e-07
-3.65284e-07
-4.18042e-07
-4.66726e-07
-3.91824e-07
-3.50383e-07
-2.07726e-07
-2.39276e-08
-1.54009e-07
-2.56069e-07
-3.24377e-07
-3.57412e-07
-3.45051e-07
-2.87551e-07
-2.6255e-07
-1.44684e-07
-1.87016e-08
-1.81502e-07
-2.80688e-07
-3.5011e-07
-3.96211e-07
-4.69573e-07
-4.12924e-07
-3.95843e-07
-1.32757e-07
-5.48959e-08
-1.34961e-07
-2.56641e-07
-3.47014e-07
-3.77674e-07
-4.38634e-07
-3.99152e-07
-3.95096e-07
-2.54316e-07
-1.69965e-07
-1.08881e-07
-1.87305e-07
-2.8123e-07
-3.08901e-07
-3.31856e-07
-3.10428e-07
-3.45825e-07
-2.94806e-07
-2.25244e-07
-1.41886e-07
-1.5079e-07
-2.9212e-07
-3.17957e-07
-3.8548e-07
-3.48491e-07
-3.43676e-07
-1.47292e-07
-2.61834e-09
-8.67493e-08
-1.50399e-07
-2.52715e-07
-3.04206e-07
-3.38904e-07
-3.62588e-07
-3.5026e-07
-2.79852e-07
-1.92529e-07
-5.51134e-08
-1.33765e-07
-2.40534e-07
-2.81891e-07
-3.0283e-07
-3.44653e-07
-3.97122e-07
-3.63419e-07
-2.78906e-07
)
;

boundaryField
{
    inlet
    {
        type            calculated;
        value           nonuniform List<scalar> 9(-2.14099e-07 -2.45907e-07 -1.54009e-07 -1.81502e-07 -1.34961e-07 -1.08881e-07 -1.41886e-07 -8.67493e-08 -5.51134e-08);
    }
    outlet
    {
        type            calculated;
        value           nonuniform 0();
    }
    wall
    {
        type            calculated;
        value           nonuniform List<scalar> 
57
(
-1.41886e-07
-8.67493e-08
-5.51134e-08
-1.5079e-07
-1.50399e-07
-1.33765e-07
-2.9212e-07
-2.52715e-07
-2.40534e-07
-3.17957e-07
-3.04206e-07
-2.81891e-07
-3.8548e-07
-3.38904e-07
-3.0283e-07
-3.48491e-07
-3.62588e-07
-3.44653e-07
-3.43676e-07
-3.5026e-07
-3.97122e-07
-1.47292e-07
-2.79852e-07
-3.63419e-07
-2.61834e-09
-1.92529e-07
-2.78906e-07
-1.54009e-07
-1.08881e-07
-5.51134e-08
-2.56069e-07
-1.87305e-07
-1.33765e-07
-3.24377e-07
-2.8123e-07
-2.40534e-07
-3.57412e-07
-3.08901e-07
-2.81891e-07
-3.45051e-07
-3.31856e-07
-3.0283e-07
-2.87551e-07
-3.10428e-07
-3.44653e-07
-2.13427e-07
-2.6255e-07
-3.45825e-07
-3.97122e-07
-3.34297e-08
-1.44684e-07
-2.94806e-07
-3.63419e-07
2.12847e-07
-1.87016e-08
-2.25244e-07
-2.78906e-07
)
;
    }
    procBoundary6to0
    {
        type            processor;
        value           uniform 8.99561e-08;
    }
    procBoundary6to2
    {
        type            processor;
        value           nonuniform List<scalar> 
32
(
7.08547e-08
-3.58588e-07
3.39634e-07
-4.37894e-07
-1.97886e-07
3.17025e-07
-1.34234e-07
-2.55374e-07
-2.90956e-07
-3.84324e-07
-4.58982e-07
-4.65012e-07
-4.59017e-07
-5.21651e-08
-5.21651e-08
-5.21651e-08
-8.57068e-08
-2.16476e-07
-3.27025e-07
-4.36442e-07
-4.99821e-07
-4.87291e-07
-4.3281e-07
-4.3281e-07
-4.3281e-07
-4.10894e-08
-1.22027e-07
-3.16377e-07
-3.85218e-07
-4.70147e-07
-3.70503e-07
-3.70503e-07
)
;
    }
    procBoundary6to4
    {
        type            processor;
        value           nonuniform List<scalar> 
27
(
-1.12282e-07
-2.52681e-07
-3.41444e-07
-3.75749e-07
-4.37416e-07
-4.00664e-07
-4.40736e-07
-3.50767e-08
4.42954e-08
-1.32365e-07
-2.37228e-07
-3.42274e-07
-3.92051e-07
-4.86027e-07
-4.80193e-07
-3.84487e-07
-1.28952e-07
1.18675e-08
-9.27277e-08
-1.48051e-07
-2.58519e-07
-3.57762e-07
-4.61657e-07
-3.87784e-07
-3.46987e-07
-1.95218e-07
-8.98558e-08
)
;
    }
    procBoundary6to7
    {
        type            processor;
        value           nonuniform List<scalar> 
12
(
3.00759e-07
2.81696e-07
1.46872e-07
2.5288e-07
1.79469e-07
2.54829e-08
1.30018e-07
2.29465e-08
-8.73048e-08
-7.51921e-08
-1.04892e-07
-1.61849e-07
)
;
    }
}


// ************************************************************************* //
