/*--------------------------------*- C++ -*----------------------------------*\
| =========                 |                                                 |
| \\      /  F ield         | OpenFOAM: The Open Source CFD Toolbox           |
|  \\    /   O peration     | Version:  4.x                                   |
|   \\  /    A nd           | Web:      www.OpenFOAM.org                      |
|    \\/     M anipulation  |                                                 |
\*---------------------------------------------------------------------------*/
FoamFile
{
    version     2.0;
    format      ascii;
    class       volVectorField;
    location    "5";
    object      impParticleForces;
}
// * * * * * * * * * * * * * * * * * * * * * * * * * * * * * * * * * * * * * //

dimensions      [1 1 -2 0 0 0 0];

internalField   nonuniform List<vector> 
87
(
(0.00251345 1.02775e-05 -2.05886e-05)
(0.002503 1.71201e-05 8.81906e-06)
(0.00253963 1.54993e-05 -1.23047e-05)
(0.00248364 2.44421e-05 2.46468e-05)
(0.00248558 2.10706e-05 1.30597e-05)
(0.00250844 1.85995e-05 -5.41971e-06)
(0.00239612 1.26835e-05 -1.16579e-05)
(0.00241927 1.26991e-05 -5.69707e-06)
(0.00244903 1.2897e-05 4.61734e-06)
(0.00245431 1.15023e-05 1.56492e-05)
(0.00250115 1.05454e-05 2.40802e-05)
(0.00248166 9.31418e-06 2.33586e-05)
(0.00252479 8.57388e-06 1.72735e-05)
(0.0025004 7.16299e-06 1.10399e-06)
(0.00253886 6.15012e-06 -2.11019e-05)
(0.00236481 2.51173e-05 -1.21945e-05)
(0.00239945 2.63262e-05 -7.36454e-06)
(0.0024452 2.72901e-05 2.45515e-06)
(0.00245625 2.4645e-05 1.37843e-05)
(0.00250076 2.29071e-05 2.29782e-05)
(0.00249516 1.93306e-05 2.44974e-05)
(0.00253529 1.66781e-05 2.02902e-05)
(0.00252326 1.35162e-05 5.62875e-06)
(0.00256255 1.1575e-05 -1.49394e-05)
(0.00231284 2.90255e-05 -1.17854e-05)
(0.00234733 3.07425e-05 -7.88143e-06)
(0.00238507 3.12688e-05 1.01949e-06)
(0.00241029 2.96426e-05 1.16469e-05)
(0.00247021 2.87765e-05 2.14736e-05)
(0.00248802 2.51541e-05 2.52577e-05)
(0.00250855 2.07363e-05 2.19492e-05)
(0.00249907 1.69979e-05 9.1257e-06)
(0.00254751 1.42586e-05 -7.59407e-06)
(0.00237936 1.08196e-05 3.13302e-06)
(0.0024075 1.12141e-05 7.97619e-06)
(0.00245707 1.11046e-05 1.67884e-05)
(0.00245332 9.66505e-06 2.31744e-05)
(0.00249024 8.33037e-06 2.7715e-05)
(0.00249413 7.1374e-06 2.47435e-05)
(0.00254192 6.20502e-06 1.63647e-05)
(0.0025118 4.51453e-06 2.87587e-07)
(0.0025543 3.20479e-06 -2.15637e-05)
(0.00234286 2.22066e-05 1.01676e-06)
(0.0023857 2.35564e-05 5.57125e-06)
(0.00243623 2.42271e-05 1.39184e-05)
(0.00243888 2.14343e-05 2.0529e-05)
(0.00248893 2.00145e-05 2.64642e-05)
(0.00248489 1.60371e-05 2.3826e-05)
(0.00254532 1.34073e-05 1.72982e-05)
(0.00252309 1.01519e-05 2.31189e-06)
(0.00257479 7.84529e-06 -1.85261e-05)
(0.00230247 2.67904e-05 -4.81037e-07)
(0.00232432 2.74312e-05 3.32248e-06)
(0.00236869 2.78753e-05 1.04648e-05)
(0.00239678 2.6273e-05 1.77313e-05)
(0.0024463 2.47534e-05 2.35543e-05)
(0.00245951 2.0616e-05 2.32188e-05)
(0.00250589 1.70059e-05 1.81117e-05)
(0.00250856 1.33018e-05 5.40235e-06)
(0.00254937 1.04454e-05 -1.17883e-05)
(0.00233713 9.22632e-06 9.10268e-06)
(0.00235289 9.23547e-06 1.30535e-05)
(0.00241406 9.09905e-06 2.05226e-05)
(0.00242268 7.90836e-06 2.53596e-05)
(0.00246191 6.56413e-06 2.84621e-05)
(0.00247589 5.38137e-06 2.42334e-05)
(0.00253145 3.87366e-06 1.49441e-05)
(0.00250568 2.53751e-06 -7.63161e-07)
(0.00251959 1.09877e-06 -2.16177e-05)
(0.00230568 1.94415e-05 7.02643e-06)
(0.00233041 1.9859e-05 1.0792e-05)
(0.00238329 2.00709e-05 1.753e-05)
(0.00240192 1.82843e-05 2.25296e-05)
(0.00245277 1.66669e-05 2.65748e-05)
(0.00246256 1.35476e-05 2.27072e-05)
(0.00251017 1.11249e-05 1.45674e-05)
(0.00250438 8.04668e-06 -1.99742e-07)
(0.00253679 6.29997e-06 -1.96121e-05)
(0.00227555 2.39927e-05 5.18978e-06)
(0.00229442 2.4358e-05 8.56109e-06)
(0.00234454 2.46393e-05 1.43753e-05)
(0.00236267 2.28112e-05 1.96102e-05)
(0.00240207 2.07154e-05 2.30454e-05)
(0.00244124 1.76712e-05 2.1514e-05)
(0.00247798 1.41706e-05 1.42774e-05)
(0.002488 1.07524e-05 1.24159e-06)
(0.00253095 8.1296e-06 -1.59644e-05)
)
;

boundaryField
{
    inlet
    {
        type            zeroGradient;
    }
    outlet
    {
        type            zeroGradient;
    }
    wall
    {
        type            zeroGradient;
    }
    procBoundary6to0
    {
        type            processor;
        value           uniform (0.00247632 4.46848e-06 -1.99123e-05);
    }
    procBoundary6to2
    {
        type            processor;
        value           nonuniform List<vector> 
32
(
(0.00247526 1.35214e-05 -1.77589e-05)
(0.00248922 2.06823e-05 1.15576e-05)
(0.00251618 1.96156e-05 -8.90649e-06)
(0.00248995 2.90735e-05 2.89432e-05)
(0.00246603 2.5473e-05 1.60995e-05)
(0.00249197 2.34349e-05 -1.86022e-06)
(0.00237148 1.26806e-05 -2.69155e-05)
(0.00241429 1.37969e-05 -2.10494e-05)
(0.00246773 1.49345e-05 -9.10243e-06)
(0.00245348 1.35078e-05 7.04551e-06)
(0.00248663 1.24622e-05 2.02359e-05)
(0.00247463 1.12715e-05 2.27433e-05)
(0.00251144 1.04761e-05 1.8547e-05)
(0.00248569 1.0009e-05 2.06574e-06)
(0.00248569 1.0009e-05 2.06574e-06)
(0.00248569 1.0009e-05 2.06574e-06)
(0.00234829 2.49942e-05 -2.61643e-05)
(0.00239062 2.71345e-05 -2.15558e-05)
(0.00246242 3.00535e-05 -1.07483e-05)
(0.00245 2.68424e-05 5.60475e-06)
(0.0024953 2.57199e-05 1.99443e-05)
(0.0024813 2.20266e-05 2.46732e-05)
(0.00252762 2.01615e-05 2.3981e-05)
(0.00252762 2.01615e-05 2.3981e-05)
(0.00252762 2.01615e-05 2.3981e-05)
(0.00230013 2.93565e-05 -2.38548e-05)
(0.00234071 3.16721e-05 -1.9932e-05)
(0.00241021 3.47197e-05 -1.02816e-05)
(0.00241825 3.26249e-05 4.67819e-06)
(0.00245807 3.15202e-05 1.84156e-05)
(0.00245949 2.75682e-05 2.50845e-05)
(0.00245949 2.75682e-05 2.50845e-05)
)
;
    }
    procBoundary6to4
    {
        type            processor;
        value           nonuniform List<vector> 
27
(
(0.00235996 -4.68902e-06 -9.78213e-06)
(0.00240922 -5.02489e-06 -4.25109e-06)
(0.00246668 -4.57575e-06 6.66868e-06)
(0.00245818 -3.91364e-06 1.72688e-05)
(0.00250047 -3.10118e-06 2.60667e-05)
(0.00248745 -1.76396e-06 2.50267e-05)
(0.00253652 -2.96797e-07 1.88536e-05)
(0.00249433 1.54858e-07 2.13271e-06)
(0.00251485 5.70788e-07 -1.96717e-05)
(0.00236939 -5.06958e-06 3.881e-06)
(0.00240942 -5.15776e-06 9.21622e-06)
(0.00246102 -5.13665e-06 1.86915e-05)
(0.00247557 -4.63543e-06 2.62507e-05)
(0.00252576 -4.55702e-06 3.22957e-05)
(0.00251008 -3.20077e-06 2.82747e-05)
(0.00255831 -2.26085e-06 2.07514e-05)
(0.00252361 -2.38342e-06 3.50705e-06)
(0.00254254 -2.55892e-06 -1.85476e-05)
(0.00235324 -5.08171e-06 1.01168e-05)
(0.00236579 -4.94728e-06 1.44685e-05)
(0.00242214 -5.20608e-06 2.22384e-05)
(0.00244511 -5.06959e-06 2.82325e-05)
(0.00249847 -5.16144e-06 3.25931e-05)
(0.00250007 -4.28959e-06 2.83975e-05)
(0.00250901 -3.81858e-06 1.86735e-05)
(0.00250696 -4.17462e-06 2.95264e-06)
(0.00252566 -5.01358e-06 -1.75774e-05)
)
;
    }
    procBoundary6to7
    {
        type            processor;
        value           nonuniform List<vector> 
12
(
(0.00250473 1.18038e-05 -4.85041e-05)
(0.00252097 1.54284e-05 -4.03147e-05)
(0.00250949 1.83237e-05 -3.23626e-05)
(0.00250893 6.91771e-06 -4.69948e-05)
(0.0025382 1.1293e-05 -4.09386e-05)
(0.00252984 1.46593e-05 -3.3192e-05)
(0.00253719 3.34923e-06 -4.60294e-05)
(0.00255413 7.52515e-06 -4.1248e-05)
(0.00253854 9.91942e-06 -3.43898e-05)
(0.00251152 7.73569e-07 -4.4301e-05)
(0.00251819 5.48661e-06 -4.17574e-05)
(0.00251289 7.59128e-06 -3.75339e-05)
)
;
    }
}


// ************************************************************************* //
