/*--------------------------------*- C++ -*----------------------------------*\
| =========                 |                                                 |
| \\      /  F ield         | OpenFOAM: The Open Source CFD Toolbox           |
|  \\    /   O peration     | Version:  4.x                                   |
|   \\  /    A nd           | Web:      www.OpenFOAM.org                      |
|    \\/     M anipulation  |                                                 |
\*---------------------------------------------------------------------------*/
FoamFile
{
    version     2.0;
    format      ascii;
    class       volVectorField;
    location    "5";
    object      U;
}
// * * * * * * * * * * * * * * * * * * * * * * * * * * * * * * * * * * * * * //

dimensions      [0 1 -1 0 0 0 0];

internalField   nonuniform List<vector> 
87
(
(0.0300873 0.000330653 -0.00111251)
(0.00237909 5.18992e-05 -6.9741e-05)
(0.0287295 -4.37977e-06 0.000594286)
(0.0355749 0.00148398 0.00312611)
(0.0218468 0.000999921 0.00203894)
(0.0381736 0.000391646 0.00364745)
(0.0297184 0.000876981 -0.0010887)
(0.00675169 0.000458143 -0.000278378)
(0.0280745 0.000796251 -2.70805e-05)
(0.00197057 0.000142991 3.61795e-05)
(0.0279646 0.000178201 0.000542937)
(0.00161494 0.000142684 7.0381e-05)
(0.0281513 0.000350037 0.000706483)
(0.0014686 0.000187405 3.82489e-05)
(0.0283174 -0.000746366 -0.000408747)
(0.0300384 0.00204285 -0.00102843)
(0.0084454 0.000595572 -0.000420457)
(0.0289362 0.00197317 -9.49825e-05)
(0.00489103 0.000266842 1.26976e-05)
(0.028053 0.00068901 0.000808556)
(0.00263524 6.16601e-05 0.000132388)
(0.0272978 0.000597975 0.0012335)
(0.00371339 7.50604e-06 5.71825e-05)
(0.0264142 0.000354323 -0.000289924)
(0.0302904 0.00160375 -0.00119895)
(0.0129506 0.000928929 -0.000723215)
(0.031203 0.00200983 -0.000510199)
(0.0152744 0.00105984 -0.000214322)
(0.0323661 0.00170615 0.000800054)
(0.0173603 0.0011276 0.000840771)
(0.033876 0.000580283 0.00225529)
(0.0193971 0.00119277 0.00165724)
(0.0358037 -0.000429976 0.00291516)
(0.0301463 0.000613582 0.000987662)
(0.00869236 0.000275079 0.000275858)
(0.0295162 0.00035219 0.00157214)
(0.00563607 0.000209367 0.000445665)
(0.0293468 -0.000176076 0.00109854)
(0.00281286 8.63145e-05 0.000212023)
(0.029459 0.000384504 0.000343327)
(0.00336835 0.000127903 0.000179271)
(0.0300303 0.000204173 -0.000790086)
(0.0305567 0.00159602 0.000603493)
(0.009254 0.000512449 0.000234279)
(0.0300472 0.00161494 0.00138567)
(0.00635251 0.000234176 0.000462349)
(0.0296429 0.00138102 0.00178389)
(0.00288212 6.81014e-05 0.000305337)
(0.0290704 0.000205501 0.000526935)
(0.00255927 -3.57449e-05 0.000288358)
(0.0292427 -0.000275148 -0.00107241)
(0.0304266 0.00142746 -5.81886e-05)
(0.0131721 0.000796841 -0.000127846)
(0.0317609 0.00190673 0.000370703)
(0.015918 0.000816389 0.000430287)
(0.033309 0.00202542 0.0011553)
(0.0192326 0.000771626 0.00115751)
(0.0351707 0.000796144 0.00177673)
(0.0215078 0.000483263 0.00187519)
(0.0376266 -8.77776e-05 0.00226097)
(0.0302242 0.000798361 0.000664614)
(0.0123394 0.000332656 0.000234097)
(0.0308639 0.00049865 0.00105133)
(0.0136042 0.000303513 0.000348273)
(0.0318289 5.5199e-05 0.0013679)
(0.0144917 0.000191886 0.00032471)
(0.0323746 -0.000302839 -0.000279142)
(0.0123649 8.86698e-05 -0.000134107)
(0.0317746 -0.000521846 -0.00140685)
(0.0303011 0.00102115 0.000567497)
(0.0127277 0.000384212 0.000220123)
(0.0312491 0.000987745 0.0012069)
(0.0148206 0.000270552 0.000375328)
(0.0326739 0.000768321 0.00184556)
(0.0174785 0.000135408 0.000556571)
(0.0338143 0.00079649 0.000797944)
(0.0178374 -0.000118329 7.02032e-05)
(0.0347352 0.00066169 -0.000279173)
(0.0302513 0.000910151 6.23743e-05)
(0.0133551 0.000481986 -9.56331e-05)
(0.0316683 0.000965617 0.000253064)
(0.0159155 0.000458793 2.71465e-05)
(0.0334009 0.000762424 0.000568055)
(0.0189907 0.000197475 9.28507e-05)
(0.0352463 0.000220703 0.000492014)
(0.0215963 -4.94668e-06 6.22461e-05)
(0.0376484 -0.000371969 0.000354996)
)
;

boundaryField
{
    inlet
    {
        type            fixedValue;
        value           uniform (0.01 0 0);
    }
    outlet
    {
        type            zeroGradient;
    }
    wall
    {
        type            fixedValue;
        value           uniform (0 0 0);
    }
    procBoundary6to0
    {
        type            processor;
        value           uniform (0.0279726 0.0003166 0.00136058);
    }
    procBoundary6to2
    {
        type            processor;
        value           nonuniform List<vector> 
32
(
(0.0304616 0.00013469 -0.000361311)
(0.0030806 4.01361e-05 0.0001284)
(0.027934 4.45153e-05 0.000186067)
(0.0353707 0.00169877 0.00379641)
(0.0210217 0.00158236 0.00279598)
(0.0377855 0.000989326 0.00450424)
(0.0302739 0.00076016 -0.00281732)
(0.00732495 0.000360054 -0.000897578)
(0.029311 0.000701388 -0.000998709)
(0.004079 0.000218686 -0.000119031)
(0.0292656 4.44266e-06 0.00150156)
(0.00357729 0.000210098 0.000111034)
(0.0298275 -0.000134013 0.000867565)
(0.00364945 0.000288184 -0.000170487)
(0.00364945 0.000288184 -0.000170487)
(0.00364945 0.000288184 -0.000170487)
(0.0303984 0.00168212 -0.00243705)
(0.00849755 0.000605253 -0.000950701)
(0.0296063 0.00177061 -0.000919707)
(0.00565252 0.000318967 -0.000163286)
(0.0290928 0.00117159 0.00126961)
(0.00369371 0.000135892 0.000110964)
(0.0290272 0.000420387 0.00221414)
(0.0290272 0.000420387 0.00221414)
(0.0290272 0.000420387 0.00221414)
(0.0303964 0.00160544 -0.00226718)
(0.0126049 0.000877719 -0.0013257)
(0.0315384 0.0021295 -0.0011956)
(0.0152743 0.00100339 -0.000530098)
(0.033085 0.00216664 0.000953445)
(0.0188788 0.00109808 0.00119387)
(0.0188788 0.00109808 0.00119387)
)
;
    }
    procBoundary6to4
    {
        type            processor;
        value           nonuniform List<vector> 
27
(
(0.0295246 -0.000454859 -0.000882629)
(0.00793418 -3.0377e-05 -0.000240327)
(0.0278147 -0.00018958 0.00045767)
(0.00401461 -3.46427e-05 0.000130767)
(0.0268245 0.000177878 0.00119016)
(0.00227136 -3.4659e-05 0.000192445)
(0.0258185 0.000205036 0.000781999)
(0.00148233 -3.1735e-05 0.000121917)
(0.0244089 -0.000587564 -0.000135769)
(0.0301947 -0.000508909 0.000698775)
(0.00940329 -5.33781e-05 0.000617194)
(0.0295628 -0.000318417 0.00186169)
(0.00760329 -4.86383e-05 0.00100238)
(0.0294179 -0.000386476 0.00227859)
(0.00632931 -0.000107879 0.00124112)
(0.0290003 0.000161548 0.00160363)
(0.00436888 -0.000130532 0.00105193)
(0.0282924 0.000603236 -0.00100221)
(0.0299449 -0.000200332 0.000376045)
(0.0119528 -7.40676e-05 0.00025568)
(0.0304775 -0.000381334 0.00112721)
(0.0136861 -0.000214098 0.00051718)
(0.0320005 -0.000585179 0.00177115)
(0.0170601 -0.000453234 0.0008768)
(0.03394 -0.00107957 0.00171091)
(0.0199813 -0.000826566 0.000755821)
(0.0357564 -0.00182412 0.000592865)
)
;
    }
    procBoundary6to7
    {
        type            processor;
        value           nonuniform List<vector> 
12
(
(0.00328399 0.000623579 -0.000606951)
(0.00233108 0.000106099 -0.000467977)
(0.0235357 0.000820435 0.00153556)
(-0.000127472 3.88415e-05 -0.000201824)
(0.00475322 0.00013844 0.000270796)
(0.0203602 0.00202676 0.00188716)
(0.00478342 0.000463542 5.64812e-06)
(0.00245175 -7.89786e-05 0.000244761)
(0.0233127 0.000232069 0.00245295)
(0.00731446 8.69455e-05 -0.000512034)
(0.0159981 3.68793e-05 -0.000634053)
(0.0241739 -0.000155798 -8.26388e-05)
)
;
    }
}


// ************************************************************************* //
