/*--------------------------------*- C++ -*----------------------------------*\
| =========                 |                                                 |
| \\      /  F ield         | OpenFOAM: The Open Source CFD Toolbox           |
|  \\    /   O peration     | Version:  4.x                                   |
|   \\  /    A nd           | Web:      www.OpenFOAM.org                      |
|    \\/     M anipulation  |                                                 |
\*---------------------------------------------------------------------------*/
FoamFile
{
    version     2.0;
    format      ascii;
    class       volVectorField;
    location    "5";
    object      Us;
}
// * * * * * * * * * * * * * * * * * * * * * * * * * * * * * * * * * * * * * //

dimensions      [0 1 -1 0 0 0 0];

internalField   nonuniform List<vector> 
87
(
(-2.50369e-05 3.24365e-07 -5.89216e-06)
(-1.98125e-05 -2.80285e-07 -2.60743e-06)
(-2.89917e-05 -2.59104e-06 -5.73476e-06)
(-1.46176e-05 -5.85495e-08 -1.98948e-06)
(-1.98561e-05 -4.0164e-07 -1.46194e-06)
(-2.14937e-05 -3.35297e-06 -1.86823e-06)
(-6.64409e-07 -2.61548e-07 6.87651e-09)
(-1.95061e-06 -4.83759e-07 2.78259e-07)
(-3.93503e-06 -2.13459e-07 -7.74213e-07)
(-5.95444e-06 -1.25666e-07 -9.29655e-07)
(-1.13054e-05 5.80644e-07 -1.33952e-06)
(-1.06966e-05 2.99412e-07 -2.77897e-07)
(-1.77643e-05 -6.83155e-08 -2.1773e-06)
(-1.77924e-05 1.13632e-06 -2.44322e-06)
(-2.50343e-05 -2.61858e-07 -4.28361e-06)
(-1.05175e-06 -1.13866e-07 -2.16362e-07)
(-2.27908e-06 -5.72571e-07 -2.6059e-07)
(-5.10673e-06 -3.71957e-07 -6.31268e-07)
(-7.34549e-06 -8.30488e-08 -7.83188e-07)
(-1.2598e-05 1.84018e-08 -1.54001e-06)
(-1.4538e-05 4.24832e-07 -2.17547e-06)
(-2.07268e-05 9.48249e-07 -2.85652e-06)
(-2.13793e-05 -2.31882e-07 -2.07445e-06)
(-3.09435e-05 -3.7585e-06 -6.20885e-06)
(-7.9825e-07 -1.3757e-07 -6.23678e-08)
(-2.19306e-06 -5.98974e-07 -4.11292e-07)
(-3.75283e-06 -1.78214e-07 -1.14621e-06)
(-6.87952e-06 -7.79865e-08 -6.68553e-07)
(-1.05069e-05 -1.07369e-07 -1.27874e-06)
(-1.48848e-05 -7.00608e-07 -2.04661e-06)
(-1.76465e-05 -2.02271e-07 -1.75706e-06)
(-1.45774e-05 1.26074e-06 -7.01107e-07)
(-2.68492e-05 -3.78816e-06 -2.38013e-06)
(-1.36989e-06 -3.6432e-07 -2.7038e-07)
(-2.57704e-06 -3.34794e-07 -4.65763e-07)
(-4.29069e-06 -5.94653e-07 -1.0592e-06)
(-8.4187e-06 -9.08283e-07 -1.13928e-06)
(-1.43844e-05 -2.85905e-08 -9.58778e-07)
(-1.44999e-05 8.69802e-07 -1.1816e-06)
(-2.11766e-05 9.09523e-07 -1.82086e-06)
(-2.19686e-05 2.18048e-06 -2.06815e-06)
(-3.5806e-05 1.58083e-06 -3.36816e-06)
(-1.37766e-06 -2.65328e-08 -2.94948e-07)
(-3.0318e-06 -6.76593e-07 -6.1635e-07)
(-5.04898e-06 -7.33089e-07 -8.12227e-07)
(-8.18097e-06 -6.8257e-07 4.47339e-08)
(-1.61368e-05 -4.60932e-07 -7.14328e-07)
(-1.61107e-05 2.27697e-07 -2.21956e-06)
(-2.50823e-05 7.91277e-07 -1.98287e-06)
(-2.38035e-05 -1.84e-06 -2.50886e-06)
(-3.81049e-05 6.50219e-07 -6.59168e-06)
(-1.31266e-06 2.48182e-09 -2.99882e-07)
(-1.95847e-06 -1.92529e-07 -7.37574e-07)
(-4.89784e-06 -3.42109e-07 -7.9492e-07)
(-6.6498e-06 -2.64993e-07 3.93121e-08)
(-1.10924e-05 -4.23818e-07 3.06992e-07)
(-1.26101e-05 -9.1904e-07 -1.24875e-06)
(-1.83733e-05 4.43828e-07 -1.93838e-06)
(-2.50017e-05 1.30825e-06 -2.59509e-06)
(-3.01106e-05 -9.00191e-07 -3.95764e-06)
(-1.18017e-06 -2.30225e-07 -1.55866e-07)
(-2.50118e-06 -3.32999e-07 -2.71122e-07)
(-4.15897e-06 1.32797e-07 -7.87243e-07)
(-5.93404e-06 -4.97811e-07 -1.04931e-06)
(-8.60875e-06 -5.50729e-07 -1.31273e-06)
(-1.09545e-05 -2.45696e-07 -1.18876e-06)
(-1.80425e-05 -3.711e-07 -7.2775e-07)
(-1.76116e-05 -3.79077e-07 2.91395e-07)
(-2.85988e-05 2.57837e-06 -3.45894e-07)
(-1.28189e-06 -8.8846e-08 -1.82466e-07)
(-2.16974e-06 -3.36827e-07 -3.46235e-07)
(-4.27487e-06 -4.35656e-07 -4.53935e-07)
(-7.91808e-06 -2.59556e-07 -3.46944e-07)
(-8.97988e-06 -8.31842e-08 -4.66902e-07)
(-1.38783e-05 -1.1992e-07 -7.30975e-07)
(-1.80202e-05 -1.62817e-07 -1.10967e-06)
(-2.18299e-05 1.32598e-07 -2.98361e-06)
(-2.61406e-05 4.30265e-06 -3.88217e-06)
(-1.1934e-06 -1.19183e-07 -7.01654e-08)
(-2.1327e-06 -2.32166e-07 -2.82661e-07)
(-4.48957e-06 -1.54724e-07 -2.75511e-07)
(-5.49239e-06 -4.77873e-07 -1.10743e-07)
(-7.14933e-06 1.42208e-07 2.16299e-07)
(-1.01801e-05 1.62292e-08 -4.26024e-07)
(-1.5077e-05 -5.43624e-07 -1.66358e-06)
(-2.05102e-05 -3.21437e-07 -2.07638e-06)
(-2.4956e-05 3.09644e-06 -3.29675e-06)
)
;

boundaryField
{
    inlet
    {
        type            zeroGradient;
    }
    outlet
    {
        type            zeroGradient;
    }
    wall
    {
        type            zeroGradient;
    }
    procBoundary6to0
    {
        type            processor;
        value           uniform (-2.11556e-05 5.81704e-07 -7.01176e-06);
    }
    procBoundary6to2
    {
        type            processor;
        value           nonuniform List<vector> 
32
(
(-2.50137e-05 3.95687e-08 -2.81343e-06)
(-2.08752e-05 7.21686e-07 -3.01784e-06)
(-2.86757e-05 -1.64451e-06 -3.21861e-06)
(-1.75078e-05 -1.35744e-07 -2.62712e-06)
(-2.15682e-05 -1.37061e-06 -1.79315e-06)
(-2.35894e-05 -7.93804e-07 -5.79041e-07)
(-6.04514e-07 -9.70707e-08 -5.59564e-08)
(-2.32285e-06 -2.75456e-07 9.81287e-08)
(-4.47686e-06 -1.7362e-07 4.72891e-09)
(-5.57407e-06 1.03576e-07 -4.54933e-07)
(-9.24222e-06 7.67545e-07 -1.7851e-06)
(-1.27714e-05 6.90936e-07 -1.50291e-06)
(-1.79174e-05 1.01988e-06 -2.57785e-06)
(-1.67368e-05 1.37671e-06 -1.91966e-06)
(-1.67368e-05 1.37671e-06 -1.91966e-06)
(-1.67368e-05 1.37671e-06 -1.91966e-06)
(-5.12412e-07 -1.22995e-07 -8.02474e-08)
(-2.25435e-06 -3.0172e-07 -4.31315e-07)
(-4.56432e-06 -3.62744e-07 -2.18947e-07)
(-6.28304e-06 3.60174e-07 -6.04226e-07)
(-1.14335e-05 -3.51992e-07 -1.90768e-06)
(-1.29431e-05 6.06883e-07 -1.66878e-06)
(-2.06394e-05 1.36411e-07 -3.32185e-06)
(-2.06394e-05 1.36411e-07 -3.32185e-06)
(-2.06394e-05 1.36411e-07 -3.32185e-06)
(-2.58308e-07 -1.35004e-07 -1.6154e-07)
(-1.74981e-06 -5.21696e-07 -4.40266e-07)
(-3.77588e-06 -4.4273e-07 -4.09563e-07)
(-5.12253e-06 -5.92082e-07 -8.64742e-07)
(-9.55848e-06 -1.11865e-06 -1.46855e-06)
(-1.1475e-05 1.31634e-09 -1.77786e-06)
(-1.1475e-05 1.31634e-09 -1.77786e-06)
)
;
    }
    procBoundary6to4
    {
        type            processor;
        value           nonuniform List<vector> 
27
(
(-5.08561e-07 -4.30559e-07 1.45721e-07)
(-1.90135e-06 -2.60895e-07 1.24654e-07)
(-3.88738e-06 -5.93506e-07 1.44395e-08)
(-5.61704e-06 -6.86746e-07 3.71251e-08)
(-1.16301e-05 -1.1861e-06 -1.23185e-06)
(-1.15468e-05 -1.01646e-07 -6.10153e-07)
(-1.93021e-05 8.96667e-07 -2.66323e-06)
(-1.87654e-05 5.67684e-07 -6.20738e-07)
(-2.55866e-05 1.37596e-06 -3.37396e-06)
(-1.15219e-06 -5.79305e-07 6.65989e-08)
(-2.73374e-06 -6.61052e-07 -4.63099e-07)
(-5.32888e-06 -1.03773e-06 -1.227e-06)
(-8.30599e-06 -1.03294e-06 -1.543e-06)
(-1.51829e-05 -5.10362e-07 -1.24669e-06)
(-1.64401e-05 2.87976e-07 -1.28836e-06)
(-2.21737e-05 7.89397e-07 -2.35748e-06)
(-2.37903e-05 1.31771e-06 -8.3969e-07)
(-3.43325e-05 5.63116e-07 -2.13601e-06)
(-3.39664e-07 -7.55431e-07 -3.86371e-07)
(-1.59209e-06 -3.99574e-07 -7.17636e-07)
(-4.46492e-06 3.88803e-07 -8.69821e-07)
(-8.42432e-06 -6.18692e-07 -9.86379e-07)
(-1.36959e-05 -1.83126e-07 -1.5151e-06)
(-1.48523e-05 -2.95151e-07 -1.91538e-06)
(-1.6709e-05 1.21185e-06 -1.94014e-06)
(-2.22217e-05 2.56998e-06 -1.30934e-06)
(-2.81306e-05 2.75622e-06 -1.37001e-06)
)
;
    }
    procBoundary6to7
    {
        type            processor;
        value           nonuniform List<vector> 
12
(
(-1.94637e-05 -3.26638e-06 -6.22233e-06)
(-3.26457e-05 -6.38585e-07 -6.01989e-06)
(-3.16586e-05 -2.18788e-06 -3.00866e-06)
(-2.27337e-05 -7.58477e-07 -6.92482e-06)
(-3.26109e-05 -7.1972e-07 -5.37068e-06)
(-2.58544e-05 -4.75666e-06 -3.13205e-06)
(-3.49918e-05 1.23505e-06 -3.91919e-06)
(-4.12364e-05 2.29786e-07 -6.13873e-06)
(-3.54318e-05 4.98843e-07 -5.534e-06)
(-3.22128e-05 4.79455e-06 -2.51719e-06)
(-3.36702e-05 1.72996e-06 -1.14717e-06)
(-2.4791e-05 -1.30532e-06 -1.28297e-06)
)
;
    }
}


// ************************************************************************* //
