/*--------------------------------*- C++ -*----------------------------------*\
| =========                 |                                                 |
| \\      /  F ield         | OpenFOAM: The Open Source CFD Toolbox           |
|  \\    /   O peration     | Version:  4.x                                   |
|   \\  /    A nd           | Web:      www.OpenFOAM.org                      |
|    \\/     M anipulation  |                                                 |
\*---------------------------------------------------------------------------*/
FoamFile
{
    version     2.0;
    format      ascii;
    class       volScalarField;
    location    "49.5";
    object      alpha.iron;
}
// * * * * * * * * * * * * * * * * * * * * * * * * * * * * * * * * * * * * * //

dimensions      [0 0 0 0 0 0 0];

internalField   nonuniform List<scalar> 
87
(
1
1
1
1
1
1
1
1
0.995378
1
1
1
1
1
1
1
1
0.999277
1
1
1
1
1
1
1
1
0.999651
1
1
1
1
1
1
1
1
0.999763
1
1
1
1
1
1
1
1
0.999876
1
1
1
1
0.999999
0.999999
0.999998
0.999998
0.999948
1
1
1
1
1
1
1
1
0.99989
1
1
1
1
1
1
0.999999
0.999999
0.999916
1
1
1
1
0.999999
0.999999
0.999997
0.999996
0.999949
1
1
1
1
1
1
)
;

boundaryField
{
    inlet
    {
        type            fixedValue;
        value           nonuniform 0();
    }
    outlet
    {
        type            fixedValue;
        value           uniform 1;
    }
    wall
    {
        type            zeroGradient;
    }
    procBoundary1to0
    {
        type            processor;
        value           nonuniform List<scalar> 
12
(
1
1
1
1
1
1
1
1
1
1
1
1
)
;
    }
    procBoundary1to3
    {
        type            processor;
        value           nonuniform List<scalar> 
27
(
1
1
1
1
1
1
1
1
0.999858
1
1
1
1
1
1
0.999999
0.999998
0.999916
1
1
1
1
0.999999
0.999998
0.999996
0.999995
0.999966
)
;
    }
    procBoundary1to5
    {
        type            processor;
        value           nonuniform List<scalar> 
32
(
1
1
1
1
1
0.999997
1
1
1
1
0.999999
0.999998
0.999977
1
1
1
0.999999
0.999998
0.999996
0.999992
0.999912
1
1
1
1
1
1
1
1
1
1
1
)
;
    }
    procBoundary1to7
    {
        type            processor;
        value           uniform 1;
    }
}


// ************************************************************************* //
