/*--------------------------------*- C++ -*----------------------------------*\
| =========                 |                                                 |
| \\      /  F ield         | OpenFOAM: The Open Source CFD Toolbox           |
|  \\    /   O peration     | Version:  4.x                                   |
|   \\  /    A nd           | Web:      www.OpenFOAM.org                      |
|    \\/     M anipulation  |                                                 |
\*---------------------------------------------------------------------------*/
FoamFile
{
    version     2.0;
    format      ascii;
    class       volVectorField;
    location    "49.5";
    object      Urel;
}
// * * * * * * * * * * * * * * * * * * * * * * * * * * * * * * * * * * * * * //

dimensions      [0 1 -1 0 0 0 0];

internalField   nonuniform List<vector> 
87
(
(-0.0254593 -9.77365e-07 0.000611105)
(-0.0268385 -4.55727e-05 0.000581174)
(-0.0259441 -0.000102808 0.000606387)
(-0.0273641 -0.000107916 0.000582271)
(-0.0261068 -0.00010103 0.000752833)
(-0.0276463 -3.62074e-05 0.000701968)
(-0.0254592 0.000145913 0.00129355)
(-0.0270529 0.000331901 0.0011795)
(-0.0216767 0.00105896 0.00287631)
(-0.0244201 0.000128391 0.000578186)
(-0.0258625 8.68815e-05 0.000533382)
(-0.0247968 6.94143e-05 0.000529761)
(-0.0262995 3.71321e-05 0.00047952)
(-0.0248619 0.000136778 0.000608131)
(-0.0264696 9.4741e-05 0.000522365)
(-0.0241837 0.000462017 0.00106483)
(-0.0257257 0.000362545 0.000991555)
(-0.0208346 0.00157645 0.00272002)
(-0.0232812 6.69252e-05 0.000507687)
(-0.0247305 2.98558e-05 0.000449071)
(-0.0234831 9.657e-06 0.000413716)
(-0.0249783 1.39303e-05 0.000330844)
(-0.0234101 9.26412e-05 0.000447623)
(-0.0249291 0.000139352 0.000332763)
(-0.0227251 0.000394448 0.000876916)
(-0.0241215 0.0004503 0.000794346)
(-0.0198982 0.00123037 0.00262121)
(-0.023442 1.64714e-05 0.000508533)
(-0.0249044 -3.48382e-05 0.000465991)
(-0.0236614 -0.000100193 0.000461942)
(-0.0251406 -0.000117198 0.000423052)
(-0.0235582 -0.000124491 0.000521753)
(-0.0250106 -8.00454e-05 0.000458918)
(-0.0226797 5.72929e-05 0.000890832)
(-0.0237838 0.000226708 0.000770959)
(-0.0195984 0.000643928 0.00215726)
(-0.0220623 0.000107226 0.000462951)
(-0.0237456 6.30598e-05 0.000402216)
(-0.0221704 2.72368e-05 0.000373975)
(-0.02395 -2.79156e-05 0.000305326)
(-0.0220607 5.13761e-05 0.000385642)
(-0.0238653 -2.79016e-05 0.000280879)
(-0.0214186 0.000270023 0.000695414)
(-0.0228447 0.000132136 0.000625929)
(-0.0190564 0.0011315 0.00215041)
(-0.0207049 5.83541e-05 0.000409699)
(-0.0225563 2.03251e-05 0.000325516)
(-0.0206605 1.81934e-05 0.000291031)
(-0.0226115 -2.19591e-06 0.000199749)
(-0.0205354 6.11108e-05 0.000254869)
(-0.0223465 8.68075e-05 0.000160107)
(-0.0200389 0.000234118 0.000541543)
(-0.021277 0.000335663 0.000580252)
(-0.0184897 0.000742694 0.00229514)
(-0.0219227 2.75757e-05 0.000512494)
(-0.0233684 -3.67642e-05 0.00046584)
(-0.0218792 -9.76054e-05 0.000476503)
(-0.0233686 -0.000129757 0.000411773)
(-0.0215091 -9.22917e-05 0.000523419)
(-0.0230044 -7.92818e-05 0.000351467)
(-0.0205057 0.000110734 0.000745763)
(-0.0216874 0.000193727 0.000442877)
(-0.0179793 0.000632941 0.00169422)
(-0.0204776 0.000119991 0.000436176)
(-0.0221992 4.92685e-05 0.000367672)
(-0.0204682 4.82778e-05 0.000356604)
(-0.0222605 -2.76389e-05 0.0002589)
(-0.0202861 9.25717e-05 0.000366211)
(-0.0220413 -1.18323e-05 0.000198253)
(-0.0196358 0.000328761 0.000581504)
(-0.0210213 0.000139504 0.000353866)
(-0.0176919 0.00116462 0.00164617)
(-0.0191 7.67867e-05 0.00034853)
(-0.0209779 3.6228e-05 0.000261463)
(-0.0190343 3.39126e-05 0.000254648)
(-0.0209698 -3.58932e-06 0.000173344)
(-0.018905 7.07801e-05 0.000226798)
(-0.0206974 4.47822e-05 0.000124718)
(-0.0184526 0.000258786 0.000426625)
(-0.0196868 0.000191399 0.000345674)
(-0.0172712 0.000987123 0.00144989)
(-0.0206415 6.26712e-05 0.000292254)
(-0.0220279 -2.49987e-05 0.000219841)
(-0.0202307 -6.42608e-05 0.000183805)
(-0.0191012 9.44427e-05 0.000253199)
(-0.020883 -1.59886e-06 0.000201535)
(-0.0179829 5.4273e-05 0.000209438)
)
;

boundaryField
{
    inlet
    {
        type            calculated;
        value           nonuniform 0();
    }
    outlet
    {
        type            calculated;
        value           nonuniform List<vector> 9((-0.0132165 0.00309888 0.011054) (-0.0107096 0.00951523 0.00988976) (-0.0103954 0.00415492 0.0115723) (-0.00626977 -0.000732225 0.00588765) (-0.00558051 0.00558867 0.00642524) (-0.00915633 -0.000297748 0.0107419) (-0.0062721 0.000331058 0.00924629) (-0.00631095 0.00793217 0.00841161) (-0.00884415 0.00705714 0.00538295));
    }
    wall
    {
        type            calculated;
        value           nonuniform List<vector> 
57
(
(9.58313e-09 7.19073e-09 2.55897e-08)
(3.18865e-09 -5.02058e-09 1.14195e-08)
(3.53267e-09 -6.33073e-09 4.81486e-09)
(-4.31231e-08 1.04833e-06 1.02093e-07)
(1.53544e-09 -8.51831e-09 2.17684e-08)
(1.67505e-09 -9.70088e-09 7.65912e-09)
(-1.20347e-08 1.14849e-09 1.65664e-08)
(-1.28207e-08 -7.10663e-09 7.86879e-09)
(1.51286e-09 -5.70209e-09 4.3259e-09)
(-6.6659e-09 -6.3711e-10 1.6888e-09)
(-2.84758e-09 -2.30026e-09 8.64935e-10)
(7.68507e-11 -1.96002e-09 1.24863e-09)
(-2.61985e-09 2.12854e-10 1.39197e-10)
(3.71126e-10 -3.55697e-09 1.6293e-10)
(6.91449e-10 -1.62899e-09 -3.21915e-11)
(-1.26857e-10 -1.15484e-09 -9.10638e-10)
(1.06176e-09 -4.36102e-10 -1.45018e-09)
(1.78793e-09 -9.77714e-10 -5.69693e-10)
(3.01216e-09 -1.75099e-09 -2.03532e-09)
(1.48357e-09 -1.64799e-09 -3.29945e-09)
(2.60192e-09 -9.22985e-10 -1.51815e-09)
(2.11373e-07 3.1577e-09 -1.38116e-08)
(1.27862e-10 -4.93553e-09 -4.80169e-09)
(1.56092e-09 -3.09207e-09 -4.67283e-09)
(1.09062e-07 -7.6937e-09 -2.14287e-08)
(-3.19189e-09 -1.36908e-08 -1.04015e-08)
(3.12196e-09 -6.81805e-10 -2.45155e-09)
(9.58313e-09 7.19073e-09 2.55897e-08)
(-5.90772e-09 4.86332e-09 1.73983e-08)
(-1.26892e-09 2.01109e-10 3.46165e-09)
(-1.74389e-10 2.47761e-10 2.18696e-09)
(-4.31231e-08 1.04833e-06 1.02093e-07)
(3.96031e-10 3.06671e-09 4.0185e-08)
(1.94532e-11 1.64514e-09 5.05598e-09)
(7.207e-10 8.83465e-10 7.59263e-10)
(-1.20347e-08 1.14849e-09 1.65664e-08)
(2.50991e-09 1.68419e-09 1.48432e-08)
(1.56589e-10 1.439e-09 6.76944e-09)
(8.44529e-10 5.53313e-10 1.71113e-09)
(-6.6659e-09 -6.3711e-10 1.6888e-09)
(1.95756e-09 -1.19464e-09 9.90453e-10)
(1.67481e-09 -3.43115e-10 1.20476e-09)
(-2.61985e-09 2.12854e-10 1.39197e-10)
(4.38849e-10 1.18178e-10 5.32016e-10)
(1.13925e-09 -1.17691e-10 3.76772e-10)
(-1.26857e-10 -1.15484e-09 -9.10638e-10)
(4.50424e-10 -5.96183e-11 -6.41275e-10)
(7.19438e-10 -1.60579e-10 -5.91869e-10)
(3.01216e-09 -1.75099e-09 -2.03532e-09)
(1.31115e-09 -4.20975e-10 -1.54855e-09)
(5.26145e-10 3.20788e-11 -7.79484e-10)
(2.11373e-07 3.1577e-09 -1.38116e-08)
(1.03346e-09 -1.41683e-09 -3.69354e-09)
(-4.97736e-10 -1.48081e-10 -1.17172e-09)
(1.09062e-07 -7.6937e-09 -2.14287e-08)
(7.71488e-11 -2.95657e-09 -7.00979e-09)
(2.65431e-10 -3.61461e-10 -2.7593e-09)
)
;
    }
    procBoundary1to0
    {
        type            processor;
        value           nonuniform List<vector> 
12
(
(-0.0261715 0.000106146 0.000691054)
(-0.0253099 0.000210979 0.000665673)
(-0.0243616 0.000123655 0.000607956)
(-0.0245139 0.000118431 0.000593174)
(-0.0234669 0.000194076 0.000557308)
(-0.0224333 9.98324e-05 0.00049861)
(-0.0231987 0.000128177 0.000564869)
(-0.0220755 0.000184923 0.000501767)
(-0.0209683 0.000118011 0.000394924)
(-0.022173 0.000143236 0.000365252)
(-0.0209991 0.000141219 0.00033274)
(-0.0199372 7.35977e-05 0.000266041)
)
;
    }
    procBoundary1to3
    {
        type            processor;
        value           nonuniform List<vector> 
27
(
(-0.0230349 7.55099e-05 0.000426839)
(-0.0244948 6.95123e-05 0.000361555)
(-0.0232306 8.36763e-05 0.000288177)
(-0.0247045 0.000126771 0.000192704)
(-0.0230421 0.000222883 0.000220333)
(-0.0244637 0.000278149 0.000113548)
(-0.0220018 0.000509194 0.000518899)
(-0.0232462 0.000436908 0.000533511)
(-0.0190039 0.00124301 0.00185831)
(-0.0205355 3.94162e-05 0.00039725)
(-0.0223563 2.50649e-05 0.000315021)
(-0.0205282 3.65433e-05 0.000267325)
(-0.0224428 5.3613e-05 0.000142051)
(-0.0203553 8.93236e-05 0.000202196)
(-0.0221948 0.000136437 3.27127e-05)
(-0.0196856 0.000189429 0.000446531)
(-0.0211422 0.000268341 0.000346051)
(-0.0178348 0.000392738 0.00201454)
(-0.0187892 6.02415e-05 0.000339656)
(-0.0206766 4.72226e-05 0.000250189)
(-0.0187208 6.16732e-05 0.000237178)
(-0.0206541 6.82671e-05 0.000132969)
(-0.0185722 0.000105726 0.000191674)
(-0.0203443 0.000102094 4.08051e-05)
(-0.0180378 0.000170548 0.000351917)
(-0.0192531 8.20579e-05 0.000228125)
(-0.016826 0.000388496 0.00147698)
)
;
    }
    procBoundary1to5
    {
        type            processor;
        value           nonuniform List<vector> 
32
(
(-0.0216287 -0.000128186 9.25863e-05)
(-0.0194749 -4.18262e-05 7.56761e-05)
(-0.0208023 -1.06681e-05 -6.32064e-05)
(-0.0183559 0.000184467 -1.67589e-05)
(-0.0191209 0.000329747 -0.000166313)
(-0.0165399 0.000652927 0.000137549)
(-0.0188542 -3.05428e-06 0.000144621)
(-0.0206983 -8.32334e-05 6.42179e-05)
(-0.0185445 1.32833e-05 4.85083e-05)
(-0.020232 -1.7148e-05 -0.000101955)
(-0.0178952 0.000203986 8.55217e-06)
(-0.0190013 0.000174448 -0.00020091)
(-0.0166454 0.000781958 0.000447113)
(-0.0198191 -6.16301e-06 0.000155441)
(-0.0178642 1.26115e-05 0.000119041)
(-0.0196967 -9.37097e-06 4.75162e-05)
(-0.0176652 4.30055e-05 2.72472e-05)
(-0.0193264 7.74621e-05 -7.73359e-05)
(-0.0171206 0.000181721 -1.34802e-05)
(-0.0182638 0.000296394 -8.74509e-05)
(-0.016268 0.000513058 0.000265434)
(-0.0206478 0.000134907 6.37849e-05)
(-0.0220804 8.28496e-05 -2.66031e-05)
(-0.0216287 -0.000128186 9.25863e-05)
(-0.0188542 -3.05428e-06 0.000144621)
(-0.0204805 5.06638e-05 -8.74384e-05)
(-0.0190588 0.000138912 7.19628e-05)
(-0.0188542 -3.05428e-06 0.000144621)
(-0.0198191 -6.16301e-06 0.000155441)
(-0.0208336 7.36772e-05 1.53129e-05)
(-0.0198191 -6.16301e-06 0.000155441)
(-0.0178811 8.19718e-05 8.14395e-05)
)
;
    }
    procBoundary1to7
    {
        type            processor;
        value           uniform (-0.0177361 2.60311e-05 0.000220735);
    }
}


// ************************************************************************* //
