/*--------------------------------*- C++ -*----------------------------------*\
| =========                 |                                                 |
| \\      /  F ield         | OpenFOAM: The Open Source CFD Toolbox           |
|  \\    /   O peration     | Version:  4.x                                   |
|   \\  /    A nd           | Web:      www.OpenFOAM.org                      |
|    \\/     M anipulation  |                                                 |
\*---------------------------------------------------------------------------*/
FoamFile
{
    version     2.0;
    format      ascii;
    class       volScalarField;
    location    "16";
    object      Cs;
}
// * * * * * * * * * * * * * * * * * * * * * * * * * * * * * * * * * * * * * //

dimensions      [1 -3 0 0 0 0 0];

internalField   nonuniform List<scalar> 
132
(
334.931
334.92
334.922
334.936
334.962
334.996
335.034
335.069
335.276
334.938
334.926
334.929
334.939
334.963
334.99
335.025
335.051
335.206
334.942
334.928
334.925
334.928
334.945
334.959
334.989
334.988
335.143
334.971
334.959
334.941
334.918
334.898
334.867
334.866
334.839
334.773
334.969
334.996
335.03
335.063
335.087
335.097
335.284
334.952
334.96
334.979
335.002
335.031
335.056
335.081
335.096
335.294
334.956
334.954
334.962
334.976
335
335.019
335.046
335.043
335.128
334.974
334.965
334.952
334.935
334.921
334.901
334.896
334.881
334.831
335.007
335.037
335.07
335.073
335.184
334.963
334.96
334.963
334.972
334.987
335.004
335.026
335.043
335.119
334.967
334.963
334.964
334.971
334.981
334.99
335
334.998
335.105
334.982
334.976
334.968
334.959
334.952
334.941
334.941
334.933
335.189
334.943
334.944
335.115
334.976
334.966
334.957
334.947
334.941
334.941
334.951
334.97
335.056
334.981
334.974
334.966
334.957
334.949
334.941
334.936
334.934
334.916
334.986
334.98
334.973
334.964
334.955
334.946
334.938
334.932
334.713
)
;

boundaryField
{
    inlet
    {
        type            calculated;
        value           nonuniform 0();
    }
    outlet
    {
        type            calculated;
        value           uniform 335;
    }
    wall
    {
        type            calculated;
        value           nonuniform List<scalar> 
66
(
334.976
334.981
334.986
334.966
334.974
334.98
334.957
334.966
334.973
334.947
334.957
334.964
334.941
334.949
334.955
334.941
334.941
334.946
334.943
334.951
334.936
334.938
334.944
334.97
334.934
334.932
335.115
335.056
334.916
334.713
334.971
334.974
334.982
334.986
334.959
334.965
334.976
334.98
334.941
334.952
334.968
334.973
334.918
334.935
334.959
334.964
334.898
334.921
334.952
334.955
334.867
334.901
334.941
334.946
334.866
334.896
334.941
334.938
334.839
334.881
334.933
334.932
334.773
334.831
335.189
334.713
)
;
    }
    procBoundary7to0
    {
        type            processor;
        value           uniform 334.945;
    }
    procBoundary7to1
    {
        type            processor;
        value           uniform 334.95;
    }
    procBoundary7to3
    {
        type            processor;
        value           nonuniform List<scalar> 
36
(
334.882
334.871
334.88
334.898
334.936
334.977
335.021
335.065
335.167
334.896
334.873
334.873
334.884
334.92
334.955
335.004
335.033
335.197
334.897
334.869
334.86
334.861
334.892
334.912
334.957
334.961
335.464
334.937
334.917
334.892
334.861
334.83
334.797
334.782
334.759
334.714
)
;
    }
    procBoundary7to5
    {
        type            processor;
        value           nonuniform List<scalar> 
44
(
334.94
334.937
334.949
334.976
335.01
335.049
335.077
335.287
334.949
334.952
334.969
334.993
335.027
335.058
335.089
335.091
335.329
334.949
334.952
334.952
334.961
334.979
334.985
335
335.023
335.028
335.135
334.958
334.954
334.961
334.979
334.979
334.946
334.941
334.939
334.937
335.013
334.975
334.967
334.96
334.952
334.946
334.941
334.941
)
;
    }
    procBoundary7to6
    {
        type            processor;
        value           nonuniform List<scalar> 
12
(
334.952
334.957
334.982
334.95
334.964
334.983
334.97
334.975
334.988
334.983
334.987
334.991
)
;
    }
}


// ************************************************************************* //
