/*--------------------------------*- C++ -*----------------------------------*\
| =========                 |                                                 |
| \\      /  F ield         | OpenFOAM: The Open Source CFD Toolbox           |
|  \\    /   O peration     | Version:  4.x                                   |
|   \\  /    A nd           | Web:      www.OpenFOAM.org                      |
|    \\/     M anipulation  |                                                 |
\*---------------------------------------------------------------------------*/
FoamFile
{
    version     2.0;
    format      ascii;
    class       volScalarField;
    location    "16";
    object      Ksl;
}
// * * * * * * * * * * * * * * * * * * * * * * * * * * * * * * * * * * * * * //

dimensions      [1 -3 -1 0 0 0 0];

internalField   nonuniform List<scalar> 
132
(
29377.3
3802.12
73061.2
3837.25
3.56808e+09
3942.23
9.10146e+09
3933.07
30035.8
20500
3577.73
24316.7
3453.44
29024
3398.65
23764.2
3445.94
10473.5
15732.9
3580.04
16335.1
3452.57
15176.5
3416.32
11559.3
3471.47
5070.77
7116.09
3076.76
6917.02
2855.44
6901.19
2569.28
7075.86
2082.11
5252.31
3.26798e+09
3983.97
361235
3813.99
64092.8
3518.78
15164.4
5.16129e+09
4144.75
4.1963e+09
4118.38
1.9859e+08
4145.52
34726.3
4229.32
8445.5
35756.9
3937.86
197370
4005.16
574789
4232.44
7.37919e+09
4975.54
37907.3
9096.65
3392.46
9726.21
3373.74
10562.3
3399.35
10834.4
3601.91
10178.5
166873
4209.77
1.4686e+07
4798.84
14445.8
31429.3
3647.92
74391.8
3574.82
253457
3533.54
726897
3760.3
22587.1
22389.3
3606.57
20809.2
3520.68
15994.4
3411.44
10516.7
3362.33
4677.75
7035.06
3065.72
6415.04
2891.41
6146.9
2585.99
5941.88
1944.67
5191.46
7878.11
3591.65
7492.25
10485.6
3369.15
10194.8
3397.46
11947.7
3576.46
15892.4
4279.71
14291.3
7222.94
3202.25
6750.69
3212.19
6868.64
3232.58
7097.37
3484.06
7110.06
5960.19
3010.37
5857.33
2976.06
5625.02
2800.15
4906.89
2551.12
3595.4
)
;

boundaryField
{
    inlet
    {
        type            zeroGradient;
    }
    outlet
    {
        type            zeroGradient;
    }
    wall
    {
        type            zeroGradient;
    }
    procBoundary7to0
    {
        type            processor;
        value           uniform 3787.72;
    }
    procBoundary7to1
    {
        type            processor;
        value           uniform 25113.3;
    }
    procBoundary7to3
    {
        type            processor;
        value           nonuniform List<scalar> 
36
(
624595
3964.92
2.15608e+09
3859.53
139932
3738.01
229447
3832.69
25366.9
43224.4
3865.84
1.08479e+06
3693.44
8.72719e+08
3544.31
36756.7
3295.38
6365.39
33210.3
3928.46
198824
3772.31
9.01425e+07
3630.83
42898.2
3270.13
11621.5
7209.54
3225.83
7422.79
3086.2
7859.31
2854.79
8643.96
2263.61
9684.76
)
;
    }
    procBoundary7to5
    {
        type            processor;
        value           nonuniform List<scalar> 
44
(
3576.8
41905.8
3483.95
58237.9
3396.67
548047
3385.93
21611.4
3.83417e+08
4035.49
321843
3882.41
4.69594e+09
3902.97
8.79947e+09
3801.62
20694.2
3.83417e+08
4035.49
4035.49
76630.5
4022.81
20940.8
3386.61
17593.3
3537.94
11749
30293.7
3905.8
76630.5
4022.81
4022.81
8025.92
3401.43
7651.59
3002.73
9103.06
8926.7
3362.18
8006.49
3345.69
8025.92
3401.43
3401.43
)
;
    }
    procBoundary7to6
    {
        type            processor;
        value           nonuniform List<scalar> 
12
(
3693.03
3705.5
3265.91
4166.45
3905.92
3491.25
3674.95
3648.2
3263.91
3453.05
3301.96
3076.32
)
;
    }
}


// ************************************************************************* //
