/*--------------------------------*- C++ -*----------------------------------*\
| =========                 |                                                 |
| \\      /  F ield         | OpenFOAM: The Open Source CFD Toolbox           |
|  \\    /   O peration     | Version:  4.x                                   |
|   \\  /    A nd           | Web:      www.OpenFOAM.org                      |
|    \\/     M anipulation  |                                                 |
\*---------------------------------------------------------------------------*/
FoamFile
{
    version     2.0;
    format      ascii;
    class       volScalarField;
    location    "16";
    object      nu;
}
// * * * * * * * * * * * * * * * * * * * * * * * * * * * * * * * * * * * * * //

dimensions      [0 2 -1 0 0 0 0];

internalField   nonuniform List<scalar> 
132
(
1.00021e-06
1.00024e-06
1.00023e-06
1.00019e-06
1.00011e-06
1.00001e-06
9.999e-07
9.99795e-07
9.99178e-07
1.00019e-06
1.00022e-06
1.00021e-06
1.00018e-06
1.00011e-06
1.00003e-06
9.99926e-07
9.99849e-07
9.99384e-07
1.00017e-06
1.00022e-06
1.00022e-06
1.00022e-06
1.00016e-06
1.00012e-06
1.00003e-06
1.00004e-06
9.99573e-07
1.00009e-06
1.00012e-06
1.00017e-06
1.00025e-06
1.00031e-06
1.0004e-06
1.0004e-06
1.00048e-06
1.00068e-06
1.00009e-06
1.00001e-06
9.99911e-07
9.99811e-07
9.99741e-07
9.99712e-07
9.99153e-07
1.00014e-06
1.00012e-06
1.00006e-06
9.99995e-07
9.99907e-07
9.99832e-07
9.99759e-07
9.99715e-07
9.99122e-07
1.00013e-06
1.00014e-06
1.00011e-06
1.00007e-06
1e-06
9.99944e-07
9.99862e-07
9.99871e-07
9.99619e-07
1.00008e-06
1.0001e-06
1.00014e-06
1.00019e-06
1.00024e-06
1.0003e-06
1.00031e-06
1.00036e-06
1.00051e-06
9.99978e-07
9.99888e-07
9.9979e-07
9.99783e-07
9.99451e-07
1.00011e-06
1.00012e-06
1.00011e-06
1.00008e-06
1.00004e-06
9.99987e-07
9.99923e-07
9.99873e-07
9.99645e-07
1.0001e-06
1.00011e-06
1.00011e-06
1.00009e-06
1.00006e-06
1.00003e-06
1e-06
1e-06
9.99686e-07
1.00005e-06
1.00007e-06
1.00009e-06
1.00012e-06
1.00014e-06
1.00018e-06
1.00018e-06
1.0002e-06
9.99436e-07
1.00017e-06
1.00017e-06
9.99658e-07
1.00007e-06
1.0001e-06
1.00013e-06
1.00016e-06
1.00018e-06
1.00018e-06
1.00014e-06
1.00009e-06
9.99832e-07
1.00006e-06
1.00008e-06
1.0001e-06
1.00013e-06
1.00015e-06
1.00018e-06
1.00019e-06
1.0002e-06
1.00025e-06
1.00004e-06
1.00006e-06
1.00008e-06
1.00011e-06
1.00013e-06
1.00016e-06
1.00018e-06
1.0002e-06
1.00086e-06
)
;

boundaryField
{
    inlet
    {
        type            calculated;
        value           nonuniform 0();
    }
    outlet
    {
        type            calculated;
        value           uniform 1e-06;
    }
    wall
    {
        type            calculated;
        value           nonuniform List<scalar> 
66
(
1.00007e-06
1.00006e-06
1.00004e-06
1.0001e-06
1.00008e-06
1.00006e-06
1.00013e-06
1.0001e-06
1.00008e-06
1.00016e-06
1.00013e-06
1.00011e-06
1.00018e-06
1.00015e-06
1.00013e-06
1.00018e-06
1.00018e-06
1.00016e-06
1.00017e-06
1.00014e-06
1.00019e-06
1.00018e-06
1.00017e-06
1.00009e-06
1.0002e-06
1.0002e-06
9.99658e-07
9.99832e-07
1.00025e-06
1.00086e-06
1.00009e-06
1.00008e-06
1.00005e-06
1.00004e-06
1.00012e-06
1.0001e-06
1.00007e-06
1.00006e-06
1.00017e-06
1.00014e-06
1.00009e-06
1.00008e-06
1.00025e-06
1.00019e-06
1.00012e-06
1.00011e-06
1.00031e-06
1.00024e-06
1.00014e-06
1.00013e-06
1.0004e-06
1.0003e-06
1.00018e-06
1.00016e-06
1.0004e-06
1.00031e-06
1.00018e-06
1.00018e-06
1.00048e-06
1.00036e-06
1.0002e-06
1.0002e-06
1.00068e-06
1.00051e-06
9.99436e-07
1.00086e-06
)
;
    }
    procBoundary7to0
    {
        type            processor;
        value           uniform 1.00016e-06;
    }
    procBoundary7to1
    {
        type            processor;
        value           uniform 1.00015e-06;
    }
    procBoundary7to3
    {
        type            processor;
        value           nonuniform List<scalar> 
36
(
1.00035e-06
1.00039e-06
1.00036e-06
1.0003e-06
1.00019e-06
1.00007e-06
9.99936e-07
9.99806e-07
9.99503e-07
1.00031e-06
1.00038e-06
1.00038e-06
1.00035e-06
1.00024e-06
1.00013e-06
9.99989e-07
9.999e-07
9.99413e-07
1.00031e-06
1.00039e-06
1.00042e-06
1.00041e-06
1.00032e-06
1.00026e-06
1.00013e-06
1.00012e-06
9.98615e-07
1.00019e-06
1.00025e-06
1.00032e-06
1.00042e-06
1.00051e-06
1.0006e-06
1.00065e-06
1.00072e-06
1.00085e-06
)
;
    }
    procBoundary7to5
    {
        type            processor;
        value           nonuniform List<scalar> 
44
(
1.00018e-06
1.00019e-06
1.00015e-06
1.00007e-06
9.99971e-07
9.99855e-07
9.9977e-07
9.99144e-07
1.00015e-06
1.00014e-06
1.00009e-06
1.00002e-06
9.99919e-07
9.99827e-07
9.99733e-07
9.99728e-07
9.99018e-07
1.00015e-06
1.00014e-06
1.00014e-06
1.00012e-06
1.00006e-06
1.00004e-06
9.99999e-07
9.9993e-07
9.99917e-07
9.99598e-07
1.00013e-06
1.00014e-06
1.00012e-06
1.00006e-06
1.00006e-06
1.00016e-06
1.00017e-06
1.00018e-06
1.00019e-06
9.99962e-07
1.00008e-06
1.0001e-06
1.00012e-06
1.00014e-06
1.00016e-06
1.00017e-06
1.00017e-06
)
;
    }
    procBoundary7to6
    {
        type            processor;
        value           nonuniform List<scalar> 
12
(
1.00014e-06
1.00013e-06
1.00005e-06
1.00015e-06
1.00011e-06
1.00005e-06
1.00009e-06
1.00007e-06
1.00004e-06
1.00005e-06
1.00004e-06
1.00003e-06
)
;
    }
}


// ************************************************************************* //
