/*--------------------------------*- C++ -*----------------------------------*\
| =========                 |                                                 |
| \\      /  F ield         | OpenFOAM: The Open Source CFD Toolbox           |
|  \\    /   O peration     | Version:  4.x                                   |
|   \\  /    A nd           | Web:      www.OpenFOAM.org                      |
|    \\/     M anipulation  |                                                 |
\*---------------------------------------------------------------------------*/
FoamFile
{
    version     2.0;
    format      ascii;
    class       volVectorField;
    location    "16";
    object      Urel;
}
// * * * * * * * * * * * * * * * * * * * * * * * * * * * * * * * * * * * * * //

dimensions      [0 1 -1 0 0 0 0];

internalField   nonuniform List<vector> 
132
(
(-0.0181582 7.76958e-05 -6.77005e-05)
(-0.0198318 7.95827e-05 -0.000248706)
(-0.0179823 6.80595e-05 -0.000184793)
(-0.0197581 6.95455e-05 -0.000209111)
(-0.0178308 3.97845e-05 -5.8781e-05)
(-0.0194819 -1.54117e-05 2.83746e-05)
(-0.0173648 1.65414e-06 0.00037118)
(-0.0185712 -4.47037e-05 0.000595203)
(-0.0162227 4.13564e-05 0.00136692)
(-0.0185758 -8.79615e-05 -0.000103851)
(-0.0202325 -7.5213e-05 -0.000271333)
(-0.018508 -0.000102931 -0.000174486)
(-0.0202523 -0.000110365 -0.000209352)
(-0.0184088 -0.000204286 -2.02862e-05)
(-0.0201277 -0.000243384 6.93868e-05)
(-0.0180655 -0.000457251 0.000531661)
(-0.0193313 -0.000500372 0.000815449)
(-0.0169078 -0.00103881 0.00196317)
(-0.0195061 -0.000181342 7.24732e-06)
(-0.0210858 -0.000180108 -0.000160245)
(-0.0195261 -0.000193396 -0.00014068)
(-0.0212129 -0.000240986 -0.000248008)
(-0.0195761 -0.000352912 -7.06159e-05)
(-0.0212614 -0.000435631 -4.06973e-05)
(-0.019366 -0.000849072 0.0004791)
(-0.0205817 -0.00096818 0.000715534)
(-0.0179979 -0.00243335 0.00221536)
(-0.0209922 -0.000275945 0.000157592)
(-0.0223706 -0.00025085 -6.43198e-05)
(-0.021117 -0.000280981 -0.00011993)
(-0.0226576 -0.000280573 -0.000323381)
(-0.0212555 -0.00046365 -0.000213362)
(-0.0229916 -0.000487622 -0.000342894)
(-0.0210649 -0.00105962 0.000226787)
(-0.0228079 -0.0011404 0.000331796)
(-0.0190261 -0.00285148 0.00197665)
(-0.0174943 0.000111545 -0.000182527)
(-0.0192815 0.000113221 -0.000159969)
(-0.0174161 0.000104764 -4.77121e-05)
(-0.0190268 5.20539e-05 6.75838e-05)
(-0.01708 0.000139342 0.0002954)
(-0.0182584 0.000107718 0.000476022)
(-0.0163567 0.000357318 0.00115318)
(-0.0177469 -4.98253e-05 -0.000130229)
(-0.0195382 7.28205e-07 -0.000200244)
(-0.0178248 -3.00158e-05 -0.0001396)
(-0.0195348 -7.73875e-06 -0.000134477)
(-0.0177279 -8.71085e-05 -5.81295e-06)
(-0.0193296 -0.000108302 0.000103708)
(-0.0174639 -0.000245533 0.000417702)
(-0.0185492 -0.00029708 0.00060554)
(-0.0166939 -0.000518273 0.00139276)
(-0.0188832 -0.000142189 -4.9507e-05)
(-0.020452 -8.4038e-05 -0.000166575)
(-0.0187922 -0.00014068 -0.000124341)
(-0.0204461 -0.000160227 -0.000183235)
(-0.0187232 -0.000251482 -5.335e-05)
(-0.0202977 -0.000302522 -1.24429e-05)
(-0.0183785 -0.000589516 0.000303961)
(-0.0194474 -0.000747921 0.000484278)
(-0.0173247 -0.00154031 0.00118636)
(-0.0203553 -0.000263763 6.10608e-05)
(-0.0216931 -0.000231966 -8.59068e-05)
(-0.020372 -0.000242635 -9.01001e-05)
(-0.0218021 -0.000225177 -0.000242899)
(-0.0204032 -0.00037305 -0.00012123)
(-0.0218525 -0.000420187 -0.000225794)
(-0.0201593 -0.000816835 0.000177301)
(-0.021222 -0.00097659 0.000205624)
(-0.0186813 -0.00197786 0.00102316)
(-0.0180176 0.000225085 -5.0196e-05)
(-0.0194955 0.000223586 0.000102878)
(-0.0174096 0.000343769 0.000198362)
(-0.0184467 0.000310269 0.000493264)
(-0.0164927 0.000687646 0.000599373)
(-0.0185121 -3.72353e-05 -0.000171308)
(-0.0201604 -2.50881e-05 -0.000153344)
(-0.0184174 -1.82557e-05 -0.000123502)
(-0.0201253 -2.74935e-05 -6.38102e-05)
(-0.0182125 -4.95392e-05 2.39102e-05)
(-0.0198503 -6.83267e-05 0.000220767)
(-0.0176866 -0.000170167 0.00034844)
(-0.0188854 -0.000181787 0.000675607)
(-0.0166844 -0.000658085 0.00084363)
(-0.0193392 -0.000157332 -0.000132009)
(-0.0209299 -0.000155883 -0.000188852)
(-0.019436 -0.000159496 -0.000123476)
(-0.0210642 -0.000183413 -0.000104343)
(-0.01951 -0.000280934 -1.05452e-05)
(-0.0210625 -0.000333068 0.000109846)
(-0.0193008 -0.000731591 0.000305406)
(-0.0204282 -0.000817401 0.000610654)
(-0.018166 -0.00243025 0.000837039)
(-0.0206748 -0.000248639 -4.83668e-05)
(-0.0220701 -0.000210241 -0.000121555)
(-0.0209586 -0.000242368 -0.000130717)
(-0.0224313 -0.000209291 -0.000179085)
(-0.0211984 -0.000385101 -0.000115761)
(-0.0228007 -0.000390503 -7.47832e-05)
(-0.0211865 -0.000955521 0.000139013)
(-0.0229186 -0.00104807 0.000418174)
(-0.019524 -0.00280234 0.000845494)
(-0.018869 0.000665509 0.000119279)
(-0.0194635 0.00053958 0.000292958)
(-0.0174459 0.00122991 0.000327796)
(-0.0196336 3.38166e-06 -0.000186745)
(-0.0210291 2.19298e-05 -0.000187278)
(-0.0196267 2.60952e-05 -7.94452e-05)
(-0.0209578 3.75631e-05 -3.2829e-05)
(-0.019316 1.60359e-05 9.7603e-05)
(-0.0204606 1.57547e-05 0.000182947)
(-0.0184857 -6.03987e-05 0.000394441)
(-0.0191789 -0.000107369 0.000480794)
(-0.0171626 -0.000316739 0.000856117)
(-0.0204053 -0.000114929 -9.68102e-05)
(-0.0217298 -0.000118976 -9.58175e-05)
(-0.0205926 -0.000141994 4.66055e-06)
(-0.0218477 -0.000173131 5.07489e-05)
(-0.0205432 -0.000256495 0.000218351)
(-0.0216535 -0.000347617 0.000312557)
(-0.0200437 -0.000660333 0.000640133)
(-0.0207179 -0.000790928 0.000781777)
(-0.0186474 -0.00169638 0.00139968)
(-0.0211976 -0.000185556 1.77521e-05)
(-0.0224831 -0.00017106 -1.90302e-06)
(-0.0215112 -0.000211569 6.82536e-05)
(-0.0228266 -0.000208782 5.08803e-05)
(-0.0217533 -0.000360967 0.000246145)
(-0.0230703 -0.000434646 0.000264273)
(-0.0217469 -0.000891777 0.000808351)
(-0.0228146 -0.0010836 0.000905728)
(-0.0204845 -0.00222828 0.0024997)
)
;

boundaryField
{
    inlet
    {
        type            calculated;
        value           nonuniform 0();
    }
    outlet
    {
        type            calculated;
        value           nonuniform List<vector> 
16
(
(-0.00433694 -0.000200315 0.00245834)
(-0.00676313 -0.00270964 0.00633905)
(-0.0109617 -0.013617 0.0116484)
(-0.00944152 -0.0126235 0.00777295)
(-0.00813897 0.000906161 0.00531227)
(-0.00915581 0.00123662 0.00524309)
(-0.00358499 -0.000437069 0.00124735)
(-0.0109712 -0.00136255 0.000796748)
(-0.00435518 0.000910563 0.00129697)
(-0.00410263 -0.00236722 0.000436963)
(-0.0123147 -0.0169147 -0.00126732)
(-0.0123198 -0.0139073 -0.00335306)
(-0.0118886 0.00517227 -0.000787486)
(-0.00667388 -0.000463105 0.00206421)
(-0.0123299 -0.0049789 0.00342189)
(-0.0215029 -0.00580797 0.0160965)
)
;
    }
    wall
    {
        type            calculated;
        value           nonuniform List<vector> 
66
(
(-8.04293e-06 -6.41473e-07 -2.16101e-06)
(-1.55952e-05 -2.06314e-05 7.3287e-06)
(0.000158845 8.33875e-06 2.91324e-05)
(-1.39331e-05 3.79173e-06 -3.51049e-06)
(-1.61672e-05 1.20272e-06 1.04802e-06)
(8.14672e-05 2.05339e-06 0.000270842)
(-1.10454e-05 6.74471e-06 -3.43531e-06)
(-1.04126e-05 2.19891e-06 -1.41635e-06)
(-4.65444e-05 -6.21368e-06 0.000128014)
(-5.66504e-06 1.0937e-06 -5.27655e-07)
(-6.38926e-06 1.46601e-06 2.46302e-06)
(-4.63734e-06 1.32127e-06 1.09462e-06)
(-4.64487e-06 3.58754e-07 -4.55209e-07)
(-4.44336e-06 1.47616e-07 -2.66874e-07)
(-3.92079e-06 8.06651e-10 -7.43989e-07)
(-5.77566e-06 3.43569e-07 2.28737e-07)
(-3.33159e-06 5.91476e-07 5.11133e-08)
(-2.29789e-06 2.44578e-07 -2.79371e-07)
(-2.67527e-06 9.53858e-07 -3.15166e-07)
(-3.28481e-06 8.48034e-07 -2.16883e-07)
(-2.74983e-06 8.03855e-08 -9.76648e-08)
(-1.57173e-06 -3.77529e-08 2.15328e-07)
(-1.81269e-06 2.84198e-07 -4.04467e-07)
(-1.69303e-06 1.07383e-07 -1.22405e-07)
(-2.02192e-06 -2.4727e-07 -3.95547e-07)
(-1.11884e-06 -2.17902e-07 -1.30715e-07)
(-6.65612e-07 5.31438e-08 -2.29989e-07)
(-5.91748e-07 2.69091e-07 -1.77435e-07)
(-8.49431e-07 1.39007e-07 -7.25043e-08)
(-2.09118e-07 2.05955e-06 -9.37731e-08)
(-0.000445144 0.000139986 0.00066338)
(-0.000276067 9.39138e-05 0.000205819)
(5.0915e-05 2.24469e-05 0.000117131)
(0.000158845 8.33875e-06 2.91324e-05)
(-0.000155407 6.13623e-05 0.000155806)
(-0.000300804 7.99145e-05 0.000291431)
(2.58645e-05 2.39004e-05 0.00026813)
(8.14672e-05 2.05339e-06 0.000270842)
(-3.76283e-05 4.40525e-06 2.00373e-05)
(-1.26352e-05 1.24912e-05 2.74815e-05)
(-1.68657e-07 4.81064e-06 5.3492e-06)
(-4.65444e-05 -6.21368e-06 0.000128014)
(-1.51464e-05 5.59852e-06 3.5844e-06)
(-6.39192e-06 2.58946e-06 2.87785e-06)
(-2.86324e-06 1.27598e-06 1.87817e-06)
(-4.63734e-06 1.32127e-06 1.09462e-06)
(-9.34841e-06 7.40842e-07 2.46186e-06)
(-6.93535e-06 1.63779e-06 3.61059e-07)
(-5.75433e-06 2.18196e-07 -4.93994e-07)
(-3.92079e-06 8.06651e-10 -7.43989e-07)
(-8.30648e-06 -2.43458e-07 2.77983e-07)
(-5.0495e-06 -6.50343e-07 -2.78548e-07)
(-3.83641e-06 5.77421e-07 -6.90793e-07)
(-2.29789e-06 2.44578e-07 -2.79371e-07)
(-5.17782e-06 1.84323e-07 -3.17694e-09)
(-3.58859e-06 6.80557e-07 -4.78222e-07)
(-2.64849e-06 -6.09074e-08 -3.39157e-07)
(-1.57173e-06 -3.77529e-08 2.15328e-07)
(-2.14826e-06 1.23865e-07 -7.67065e-07)
(-2.30536e-06 -1.88444e-08 -4.51851e-07)
(-1.25526e-06 -6.12325e-08 -2.05512e-07)
(-1.11884e-06 -2.17902e-07 -1.30715e-07)
(-5.51457e-07 6.85785e-08 -7.27483e-07)
(-6.84062e-07 -2.0943e-07 -4.41403e-07)
(-5.22249e-07 -6.32859e-08 -3.42161e-07)
(-2.09118e-07 2.05955e-06 -9.37731e-08)
)
;
    }
    procBoundary7to0
    {
        type            processor;
        value           uniform (-0.0199777 7.50874e-05 4.54688e-05);
    }
    procBoundary7to1
    {
        type            processor;
        value           uniform (-0.0185458 0.000264362 -6.23479e-05);
    }
    procBoundary7to3
    {
        type            processor;
        value           nonuniform List<vector> 
36
(
(-0.0186293 9.13005e-05 -4.49507e-05)
(-0.0204487 4.79231e-05 -0.000256052)
(-0.0184654 3.79432e-05 -0.000271993)
(-0.02041 4.88007e-05 -0.000341147)
(-0.0184401 -1.33005e-05 -0.000181632)
(-0.0201624 -9.60894e-05 -3.83238e-05)
(-0.0178997 -0.000126855 0.000387415)
(-0.0191182 -0.000230036 0.000826607)
(-0.0164951 -0.000353313 0.00185661)
(-0.0192062 -5.56401e-05 -4.65638e-05)
(-0.0208708 -6.48023e-05 -0.000262147)
(-0.0190529 -9.67946e-05 -0.000269106)
(-0.0208629 -9.4124e-05 -0.00036208)
(-0.0189377 -0.000216357 -0.000200734)
(-0.0207757 -0.000316562 -7.90111e-05)
(-0.0186692 -0.000514226 0.000462198)
(-0.0201168 -0.000666394 0.0010219)
(-0.0174579 -0.00126881 0.00266271)
(-0.020156 -0.000195812 2.39173e-05)
(-0.0217437 -0.000190598 -0.000215276)
(-0.0200877 -0.000222425 -0.000265907)
(-0.0218307 -0.000291275 -0.000431808)
(-0.020057 -0.000406286 -0.000306124)
(-0.0218831 -0.000529542 -0.000267663)
(-0.0198824 -0.000881557 0.000270591)
(-0.0213594 -0.00107683 0.00082114)
(-0.0182951 -0.00220089 0.00224235)
(-0.0218916 -0.000310232 0.000147507)
(-0.0231853 -0.000291741 -9.99785e-05)
(-0.0219744 -0.000318903 -0.000245665)
(-0.0234111 -0.000370123 -0.000479538)
(-0.0220298 -0.000553739 -0.000448173)
(-0.0236205 -0.000669822 -0.00053514)
(-0.0217745 -0.00116857 3.39318e-05)
(-0.0233394 -0.00141846 0.000506517)
(-0.0195235 -0.0027614 0.00253865)
)
;
    }
    procBoundary7to5
    {
        type            processor;
        value           nonuniform List<vector> 
44
(
(-0.0202934 0.000247913 -0.000303425)
(-0.018457 0.000238834 -0.00023276)
(-0.020351 0.000229757 -0.00024741)
(-0.0184308 0.000306759 -0.000131786)
(-0.0201389 0.00028981 -5.17273e-05)
(-0.0178428 0.000541772 0.000187506)
(-0.0191093 0.00058378 0.000373195)
(-0.0165156 0.00137016 0.000954554)
(-0.0175678 8.08253e-05 -0.000168663)
(-0.0193337 0.000112409 -0.00024989)
(-0.0181137 0.000253354 -0.000220158)
(-0.0199265 0.000235267 -0.000225384)
(-0.0180561 0.000320246 -0.000154259)
(-0.0196734 0.000308496 -0.000107924)
(-0.0175923 0.000573838 4.66201e-05)
(-0.0187559 0.000613115 0.000203583)
(-0.0166806 0.00130363 0.000611741)
(-0.0175678 8.08253e-05 -0.000168663)
(-0.0193337 0.000112409 -0.00024989)
(-0.0193337 0.000112409 -0.00024989)
(-0.0182753 0.000182161 -0.000191283)
(-0.0198852 0.000193485 -0.000109457)
(-0.0190635 0.000526971 -0.000193313)
(-0.0206779 0.00055142 -7.78224e-05)
(-0.018631 0.000975605 -0.000105897)
(-0.0197501 0.00100607 0.000217462)
(-0.0173733 0.00214735 -4.28135e-05)
(-0.0183797 0.000138228 -0.000272609)
(-0.0199735 0.000175673 -0.000265392)
(-0.0182753 0.000182161 -0.000191283)
(-0.0198852 0.000193485 -0.000109457)
(-0.0198852 0.000193485 -0.000109457)
(-0.0195999 0.000397245 -5.54673e-05)
(-0.0206468 0.000389092 3.27977e-05)
(-0.0200935 0.00132359 -4.08409e-05)
(-0.0209716 0.00141268 -6.67517e-06)
(-0.0183594 0.00276169 -7.08462e-05)
(-0.0196963 0.000184788 -0.00027326)
(-0.0210599 0.00021747 -0.000267912)
(-0.0198095 0.00027555 -0.000183946)
(-0.0210654 0.000292588 -0.000137411)
(-0.0195999 0.000397245 -5.54673e-05)
(-0.0206468 0.000389092 3.27977e-05)
(-0.0206468 0.000389092 3.27977e-05)
)
;
    }
    procBoundary7to6
    {
        type            processor;
        value           nonuniform List<vector> 
12
(
(-0.0202522 -0.000105128 -7.63875e-05)
(-0.0209996 -0.000243985 4.48986e-05)
(-0.0220807 -0.000350571 0.000186231)
(-0.0195097 -0.000128862 -0.000114853)
(-0.0204363 -0.000194854 -2.98904e-05)
(-0.0215025 -0.000352537 7.94545e-05)
(-0.0201437 -6.4556e-05 -0.000213018)
(-0.0208119 -0.000220267 -0.000172237)
(-0.02174 -0.000316884 -2.66428e-05)
(-0.0208842 -1.19759e-05 -0.000252623)
(-0.0214958 -0.000130097 -0.000148094)
(-0.0221799 -0.000213863 7.77868e-06)
)
;
    }
}


// ************************************************************************* //
