/*--------------------------------*- C++ -*----------------------------------*\
| =========                 |                                                 |
| \\      /  F ield         | OpenFOAM: The Open Source CFD Toolbox           |
|  \\    /   O peration     | Version:  4.x                                   |
|   \\  /    A nd           | Web:      www.OpenFOAM.org                      |
|    \\/     M anipulation  |                                                 |
\*---------------------------------------------------------------------------*/
FoamFile
{
    version     2.0;
    format      ascii;
    class       volScalarField;
    location    "15";
    object      QPartFluidCoeff;
}
// * * * * * * * * * * * * * * * * * * * * * * * * * * * * * * * * * * * * * //

dimensions      [1 -1 -3 -1 0 0 0];

internalField   nonuniform List<scalar> 
132
(
-1.72323e+07
-1.41767e+07
-1.22805e+07
-9.87638e+06
-1.43785e+07
-1.51389e+07
-1.95746e+07
-1.3267e+07
-6.76942e+06
-1.54625e+07
-1.70064e+07
-1.83599e+07
-1.86652e+07
-1.28382e+07
-2.25964e+07
-1.77991e+07
-1.83683e+07
-1.88321e+07
-1.03696e+07
-1.96282e+07
-1.91228e+07
-1.68823e+07
-1.86636e+07
-1.64249e+07
-1.33372e+07
-1.75431e+07
-2.84609e+07
-9.89603e+06
-1.51809e+07
-1.17253e+07
-1.41576e+07
-2.32215e+07
-2.85972e+07
-2.52371e+07
-2.56211e+07
-2.51643e+07
-2.35877e+07
-2.26919e+07
-2.41724e+07
-1.65552e+07
-3.15228e+07
-2.65785e+07
-2.82806e+07
-3.19038e+07
-2.86313e+07
-3.0435e+07
-3.10014e+07
-2.98545e+07
-1.76317e+07
-3.16944e+07
-2.80378e+07
-2.5229e+07
-2.75632e+07
-2.59748e+07
-3.49821e+07
-2.32016e+07
-2.09289e+07
-2.65263e+07
-2.37247e+07
-2.60379e+07
-1.85995e+07
-3.82182e+07
-1.85313e+07
-2.31575e+07
-2.6838e+07
-2.28112e+07
-2.45479e+07
-1.82875e+07
-2.6301e+07
-2.3146e+07
-1.77887e+07
-2.0749e+07
-2.75741e+07
-2.64708e+07
-2.28227e+07
-3.0555e+07
-2.22017e+07
-3.07268e+07
-3.35761e+07
-3.33499e+07
-2.23387e+07
-2.41744e+07
-2.69678e+07
-3.13248e+07
-3.27276e+07
-2.73711e+07
-3.02992e+07
-2.03315e+07
-1.76624e+07
-2.29988e+07
-2.9228e+07
-3.19987e+07
-3.0628e+07
-3.36156e+07
-2.75323e+07
-2.87825e+07
-1.44283e+07
-1.66626e+07
-2.23854e+07
-1.72488e+07
-2.33925e+07
-2.56669e+07
-1.95198e+07
-1.4513e+07
-2.01577e+07
-1.70532e+07
-3.2022e+07
-3.01895e+07
-2.68766e+07
-2.39378e+07
-2.24921e+07
-3.48041e+07
-2.45173e+07
-2.31198e+07
-1.72751e+07
-1.89315e+07
-3.03003e+07
-2.1203e+07
-2.94548e+07
-2.99766e+07
-2.79087e+07
-1.7611e+07
-3.16329e+07
-1.61079e+07
-2.27351e+07
-3.23963e+07
-3.56064e+07
-1.85977e+07
-3.42875e+07
-2.87025e+07
-1.93943e+07
-8.79102e+06
)
;

boundaryField
{
    inlet
    {
        type            calculated;
        value           uniform 0;
    }
    outlet
    {
        type            calculated;
        value           nonuniform 0();
    }
    wall
    {
        type            calculated;
        value           uniform 0;
    }
    procBoundary0to1
    {
        type            processor;
        value           nonuniform List<scalar> 
12
(
329.96
350.034
299.459
569.318
691.512
679.03
533.178
488.869
604.861
504.245
604.566
458.914
)
;
    }
    procBoundary0to2
    {
        type            processor;
        value           nonuniform List<scalar> 
44
(
539.091
426.621
235.69
450.129
215.085
229.989
439.293
528.283
539.091
468.127
539.091
426.621
764.896
921.36
506.076
855.586
357.391
607.222
731.394
697.725
764.896
693.779
764.896
921.36
583.005
676.352
519.427
439.887
514.957
527.319
523.101
618.381
583.005
755.859
583.005
676.352
370.057
725.815
785.582
568.832
637.754
500.761
581.898
620.417
)
;
    }
    procBoundary0to4
    {
        type            processor;
        value           nonuniform List<scalar> 
36
(
370.274
537.465
631.523
448.872
534.095
446.184
666.183
512.875
719.654
528.946
551.602
703.566
752.625
760.195
648.254
606.425
436.449
835.665
503.941
781.045
627.565
719.402
618.12
497.195
558.914
812.399
509.131
261.91
512.192
710.84
441.085
674.106
531.358
840.987
477.114
535.354
)
;
    }
    procBoundary0to6
    {
        type            processor;
        value           uniform 620.437;
    }
    procBoundary0to7
    {
        type            processor;
        value           uniform 789.436;
    }
}


// ************************************************************************* //
