/*--------------------------------*- C++ -*----------------------------------*\
| =========                 |                                                 |
| \\      /  F ield         | OpenFOAM: The Open Source CFD Toolbox           |
|  \\    /   O peration     | Version:  4.x                                   |
|   \\  /    A nd           | Web:      www.OpenFOAM.org                      |
|    \\/     M anipulation  |                                                 |
\*---------------------------------------------------------------------------*/
FoamFile
{
    version     2.0;
    format      ascii;
    class       volScalarField;
    location    "15";
    object      Sm;
}
// * * * * * * * * * * * * * * * * * * * * * * * * * * * * * * * * * * * * * //

dimensions      [1 -3 -1 0 0 0 0];

internalField   nonuniform List<scalar> 
132
(
5.50152e-65
4.41629e-65
3.09936e-65
2.86703e-65
3.79695e-65
4.02913e-65
4.72613e-65
3.48587e-65
1.70415e-65
4.88163e-65
4.72633e-65
4.57153e-65
5.11402e-65
3.17687e-65
5.81108e-65
4.41576e-65
4.64748e-65
4.25886e-65
2.71203e-65
5.34646e-65
4.7266e-65
4.72662e-65
4.26167e-65
4.33893e-65
3.2536e-65
4.49254e-65
6.8931e-65
2.86726e-65
4.41682e-65
3.25451e-65
4.18431e-65
6.66332e-65
8.05826e-65
7.05118e-65
6.81873e-65
7.12808e-65
5.73268e-65
6.42794e-65
6.19407e-65
5.42418e-65
7.9807e-65
6.27617e-65
7.20603e-65
7.28337e-65
7.12792e-65
7.04888e-65
7.74376e-65
6.96732e-65
5.88939e-65
8.13598e-65
6.81869e-65
6.27627e-65
6.66351e-65
6.58568e-65
8.28863e-65
6.04092e-65
4.95538e-65
8.05919e-65
6.12164e-65
6.12143e-65
4.72651e-65
8.98712e-65
5.9668e-65
6.81884e-65
7.28376e-65
6.74141e-65
6.58639e-65
5.19095e-65
7.04895e-65
6.89176e-65
4.72223e-65
6.43188e-65
7.05146e-65
6.43139e-65
5.96649e-65
7.36105e-65
5.73327e-65
7.35866e-65
8.82755e-65
8.28245e-65
7.67191e-65
6.27668e-65
6.58644e-65
8.21356e-65
7.82591e-65
7.36038e-65
7.43641e-65
6.19446e-65
4.56707e-65
7.2845e-65
7.59406e-65
7.67131e-65
8.13605e-65
8.21313e-65
7.12837e-65
7.12726e-65
4.57221e-65
4.88191e-65
5.73427e-65
5.34687e-65
6.12165e-65
7.43835e-65
4.80332e-65
4.10442e-65
4.95538e-65
5.50212e-65
8.13657e-65
7.28405e-65
6.7416e-65
5.81158e-65
5.96599e-65
8.36644e-65
6.58253e-65
5.49642e-65
4.57219e-65
4.95947e-65
7.28412e-65
5.73423e-65
7.28378e-65
8.05785e-65
6.73987e-65
5.11149e-65
8.05205e-65
5.26973e-65
5.88942e-65
7.82659e-65
9.22134e-65
4.49438e-65
9.14326e-65
7.12782e-65
5.42293e-65
2.32368e-65
)
;

boundaryField
{
    inlet
    {
        type            calculated;
        value           uniform 0;
    }
    outlet
    {
        type            calculated;
        value           nonuniform 0();
    }
    wall
    {
        type            calculated;
        value           uniform 0;
    }
    procBoundary0to1
    {
        type            processor;
        value           nonuniform List<scalar> 
12
(
3.71743e-65
3.6391e-65
3.48474e-65
6.65735e-65
7.19851e-65
8.12857e-65
7.04271e-65
5.57099e-65
7.89439e-65
6.57905e-65
7.04296e-65
5.72817e-65
)
;
    }
    procBoundary0to2
    {
        type            processor;
        value           nonuniform List<scalar> 
44
(
6.5085e-65
4.88127e-65
2.55607e-65
4.88093e-65
2.24666e-65
2.63399e-65
5.73451e-65
6.5092e-65
6.5085e-65
5.11417e-65
6.5085e-65
4.88127e-65
8.44462e-65
9.76113e-65
5.73237e-65
9.37252e-65
5.4246e-65
6.81913e-65
7.67082e-65
7.74672e-65
8.44462e-65
7.04777e-65
8.44462e-65
9.76113e-65
7.59085e-65
7.97725e-65
7.28452e-65
4.95951e-65
5.50169e-65
6.04376e-65
5.57854e-65
7.12806e-65
7.59085e-65
8.36784e-65
7.59085e-65
7.97725e-65
4.80472e-65
8.13673e-65
8.36905e-65
6.58669e-65
6.81909e-65
5.88931e-65
6.27646e-65
7.74837e-65
)
;
    }
    procBoundary0to4
    {
        type            processor;
        value           nonuniform List<scalar> 
36
(
5.19226e-65
7.36188e-65
7.51685e-65
5.57953e-65
5.96686e-65
5.65667e-65
7.59293e-65
6.73933e-65
8.90651e-65
7.74962e-65
6.35451e-65
7.36179e-65
8.60163e-65
8.214e-65
7.51626e-65
6.35325e-65
5.42239e-65
9.06064e-65
6.97465e-65
8.75676e-65
6.66437e-65
8.44667e-65
6.66424e-65
5.96663e-65
6.12098e-65
9.68347e-65
5.65439e-65
4.3398e-65
5.73457e-65
7.59436e-65
5.19208e-65
7.36173e-65
6.35422e-65
9.22078e-65
5.96624e-65
5.96528e-65
)
;
    }
    procBoundary0to6
    {
        type            processor;
        value           uniform 6.74078e-65;
    }
    procBoundary0to7
    {
        type            processor;
        value           uniform 9.9136e-65;
    }
}


// ************************************************************************* //
