/*--------------------------------*- C++ -*----------------------------------*\
| =========                 |                                                 |
| \\      /  F ield         | OpenFOAM: The Open Source CFD Toolbox           |
|  \\    /   O peration     | Version:  4.x                                   |
|   \\  /    A nd           | Web:      www.OpenFOAM.org                      |
|    \\/     M anipulation  |                                                 |
\*---------------------------------------------------------------------------*/
FoamFile
{
    version     2.0;
    format      ascii;
    class       volVectorField;
    location    "15";
    object      Us;
}
// * * * * * * * * * * * * * * * * * * * * * * * * * * * * * * * * * * * * * //

dimensions      [0 1 -1 0 0 0 0];

internalField   nonuniform List<vector> 
132
(
(3.41137e-06 -2.20814e-06 1.65241e-06)
(1.11793e-05 -2.75223e-06 1.11042e-06)
(2.70426e-05 -4.26608e-06 2.47624e-06)
(3.18345e-05 -1.56141e-06 1.31953e-06)
(3.94586e-05 -2.09823e-06 -1.24068e-06)
(3.96553e-05 1.21381e-06 -1.26815e-07)
(4.59468e-05 2.50436e-06 -1.02081e-06)
(2.82929e-05 4.40736e-06 -5.34098e-07)
(3.12007e-05 1.86974e-06 -3.27085e-06)
(4.5947e-06 -6.51793e-06 2.31173e-06)
(1.67741e-05 -1.02823e-05 3.08827e-06)
(3.56208e-05 -9.6831e-06 2.5043e-06)
(4.18834e-05 -9.58618e-06 2.02745e-06)
(6.2337e-05 -4.85918e-06 2.59127e-07)
(5.83408e-05 1.74046e-06 -5.59152e-07)
(5.29286e-05 7.43273e-06 -3.38588e-06)
(3.99472e-05 6.88067e-06 -2.4191e-06)
(3.51706e-05 7.31738e-06 -3.25384e-06)
(7.13389e-06 -1.39164e-05 4.5025e-06)
(1.81699e-05 -1.45785e-05 4.44638e-06)
(3.09779e-05 -1.65695e-05 4.5177e-06)
(4.90443e-05 -1.61156e-05 2.83132e-06)
(8.29968e-05 -1.06098e-05 4.15429e-07)
(6.94786e-05 5.60142e-06 -2.59108e-06)
(5.63239e-05 1.15557e-05 -5.5024e-06)
(3.9726e-05 1.36933e-05 -4.54625e-06)
(3.01867e-05 1.11059e-05 -4.25464e-06)
(2.65615e-06 -1.22501e-05 5.28838e-06)
(1.53741e-05 -1.56906e-05 5.88582e-06)
(2.2318e-05 -1.76118e-05 6.95553e-06)
(4.88007e-06 -3.38967e-06 3.13831e-06)
(1.54464e-05 -3.97762e-06 3.78704e-06)
(2.45439e-05 -3.0789e-06 3.36668e-06)
(3.43614e-05 -1.81929e-06 1.94145e-06)
(3.92424e-05 -2.10108e-06 1.71839e-07)
(4.39327e-05 1.85568e-06 1.03744e-07)
(4.42159e-05 1.58247e-06 -3.63682e-06)
(3.09747e-05 4.04985e-06 -2.81701e-06)
(2.58083e-05 3.3654e-06 -2.38679e-06)
(5.46286e-06 -5.46813e-06 3.8498e-06)
(2.04597e-05 -9.1195e-06 5.99308e-06)
(3.92274e-05 -9.94123e-06 5.54647e-06)
(5.13828e-05 -8.14125e-06 4.34584e-06)
(6.94815e-05 -4.76899e-06 1.58781e-06)
(6.78383e-05 9.36758e-07 -8.03439e-07)
(6.07267e-05 6.61183e-06 -5.94407e-06)
(4.85453e-05 6.29523e-06 -4.7622e-06)
(3.55344e-05 6.4964e-06 -4.99442e-06)
(4.59302e-06 -1.07573e-05 6.27235e-06)
(2.10698e-05 -1.47464e-05 7.45352e-06)
(3.92178e-05 -1.77828e-05 8.69728e-06)
(5.86888e-05 -1.55903e-05 8.02371e-06)
(7.72606e-05 -7.30081e-06 3.29645e-06)
(7.7614e-05 3.75622e-06 -3.93452e-06)
(5.7945e-05 1.28149e-05 -7.98517e-06)
(4.58539e-05 1.2179e-05 -6.34264e-06)
(3.22628e-05 1.08607e-05 -6.60184e-06)
(6.52435e-06 -1.26599e-05 7.15426e-06)
(2.12544e-05 -1.96815e-05 1.16739e-05)
(3.96292e-05 -2.18395e-05 1.46164e-05)
(7.12183e-05 -2.22191e-05 1.48921e-05)
(0.000107582 -1.94654e-05 9.28968e-06)
(4.14781e-06 -2.32137e-06 4.2112e-06)
(1.25091e-05 -3.15099e-06 5.52086e-06)
(2.46266e-05 -3.10168e-06 4.77794e-06)
(3.17084e-05 -2.65582e-06 2.49831e-06)
(3.5368e-05 -3.3349e-06 2.16145e-06)
(3.97315e-05 -2.88958e-07 -1.61927e-06)
(3.71232e-05 1.09278e-06 -3.60149e-06)
(2.69253e-05 1.41863e-06 -1.28563e-06)
(2.46482e-05 3.39789e-06 -3.88468e-06)
(7.07333e-06 -5.18945e-06 6.2857e-06)
(2.03388e-05 -7.47492e-06 7.88921e-06)
(3.56235e-05 -7.83199e-06 7.39988e-06)
(4.55002e-05 -6.46824e-06 5.04519e-06)
(5.73306e-05 -2.40732e-06 2.01762e-06)
(6.08626e-05 8.31056e-07 -2.26882e-06)
(5.35384e-05 2.19135e-06 -5.49856e-06)
(4.44595e-05 4.70594e-06 -4.70479e-06)
(3.30648e-05 4.25474e-06 -6.0858e-06)
(4.46403e-06 -7.65207e-06 7.34296e-06)
(1.94166e-05 -1.18029e-05 1.02753e-05)
(3.72624e-05 -1.29468e-05 9.74976e-06)
(5.13348e-05 -1.08098e-05 8.28542e-06)
(6.74469e-05 -5.59937e-06 2.98367e-06)
(6.2219e-05 2.89121e-06 -3.96176e-06)
(5.84112e-05 5.4968e-06 -7.07322e-06)
(4.11747e-05 7.85158e-06 -7.33627e-06)
(3.14975e-05 7.15293e-06 -6.52068e-06)
(5.81346e-06 -8.67005e-06 9.49307e-06)
(2.21559e-05 -1.40051e-05 1.42227e-05)
(3.96544e-05 -1.47299e-05 1.50417e-05)
(5.73858e-05 -1.49106e-05 1.50437e-05)
(8.04431e-05 -5.65479e-06 5.29515e-06)
(7.93697e-05 4.36926e-06 -4.96936e-06)
(6.22039e-05 1.2529e-05 -9.68958e-06)
(2.82058e-06 -2.50594e-06 4.19415e-06)
(1.57519e-05 -1.81914e-06 5.80563e-06)
(2.19012e-05 -3.44979e-06 4.28186e-06)
(2.42743e-05 -5.19327e-07 1.68757e-06)
(3.02556e-05 -1.22649e-07 1.34504e-06)
(3.61866e-05 9.16327e-07 -8.61559e-07)
(3.39297e-05 7.66453e-08 -2.18344e-06)
(3.19266e-05 8.06442e-07 -2.67515e-06)
(2.90666e-05 2.20668e-06 -3.84997e-06)
(5.59917e-06 -3.50538e-06 5.83753e-06)
(1.94589e-05 -5.6218e-06 8.06493e-06)
(3.28724e-05 -5.48679e-06 6.68601e-06)
(4.47327e-05 -4.65378e-06 5.24528e-06)
(5.20361e-05 -2.86958e-06 2.35274e-06)
(5.29505e-05 1.45955e-06 -7.32013e-07)
(5.33785e-05 2.41053e-06 -3.7146e-06)
(4.10773e-05 3.55302e-06 -4.91028e-06)
(3.26463e-05 4.1564e-06 -5.9555e-06)
(8.92666e-06 -7.86163e-06 9.69879e-06)
(2.00587e-05 -8.42965e-06 1.07077e-05)
(3.43485e-05 -9.26391e-06 9.68835e-06)
(4.56987e-05 -6.55167e-06 6.07269e-06)
(5.70548e-05 -4.17906e-06 4.49284e-06)
(5.51795e-05 2.02666e-06 -2.94907e-06)
(5.4729e-05 4.50714e-06 -5.53999e-06)
(4.13201e-05 4.7483e-06 -6.65629e-06)
(3.21527e-05 5.27906e-06 -7.45181e-06)
(6.6073e-06 -7.7808e-06 8.88009e-06)
(1.96073e-05 -1.07599e-05 1.38592e-05)
(3.66101e-05 -1.08824e-05 1.431e-05)
(5.34372e-05 -9.52768e-06 1.05209e-05)
(6.38276e-05 -6.64075e-06 8.23514e-06)
(6.62942e-05 4.28326e-06 -4.1443e-06)
(5.54586e-05 7.17492e-06 -9.40913e-06)
(4.86666e-05 5.73878e-06 -8.92666e-06)
(2.98883e-05 7.10253e-06 -1.03741e-05)
)
;

boundaryField
{
    inlet
    {
        type            zeroGradient;
    }
    outlet
    {
        type            zeroGradient;
    }
    wall
    {
        type            zeroGradient;
    }
    procBoundary0to1
    {
        type            processor;
        value           nonuniform List<vector> 
12
(
(2.24775e-05 2.68321e-06 -1.70704e-06)
(2.57832e-05 5.27854e-06 -1.46471e-06)
(1.5553e-05 6.70669e-06 -1.73607e-06)
(2.01641e-05 1.62112e-06 -2.68149e-06)
(2.85785e-05 4.83778e-06 -3.8036e-06)
(2.14945e-05 7.75026e-06 -4.67863e-06)
(1.69832e-05 4.75059e-07 -3.98328e-06)
(2.56691e-05 4.04832e-06 -4.75291e-06)
(2.30624e-05 5.80619e-06 -5.4088e-06)
(1.72071e-05 1.11514e-06 -3.12932e-06)
(2.77739e-05 3.25848e-06 -4.04323e-06)
(2.52451e-05 4.90632e-06 -5.5704e-06)
)
;
    }
    procBoundary0to2
    {
        type            processor;
        value           nonuniform List<vector> 
44
(
(5.08295e-05 -2.70045e-05 1.0732e-05)
(7.95632e-05 -2.40381e-05 2.7501e-06)
(0.000110482 2.82743e-05 -7.48563e-06)
(6.64249e-05 2.33713e-05 -1.34877e-05)
(4.46327e-05 2.13214e-05 -1.09954e-05)
(2.44381e-05 1.47196e-05 -5.86725e-06)
(2.36364e-06 -1.51018e-05 6.52228e-06)
(1.22094e-05 -1.82603e-05 9.09325e-06)
(5.08295e-05 -2.70045e-05 1.0732e-05)
(2.02767e-05 -2.86026e-05 9.42543e-06)
(5.08295e-05 -2.70045e-05 1.0732e-05)
(7.95632e-05 -2.40381e-05 2.7501e-06)
(9.52228e-05 1.26979e-05 -8.76394e-06)
(6.95733e-05 1.90646e-05 -1.42091e-05)
(4.58527e-05 1.79848e-05 -1.14311e-05)
(3.09195e-05 1.32888e-05 -9.14811e-06)
(2.13438e-06 -9.38321e-06 9.27042e-06)
(1.54501e-05 -1.85798e-05 1.59339e-05)
(3.43141e-05 -2.41896e-05 2.05702e-05)
(7.55419e-05 -2.48935e-05 2.98891e-05)
(9.52228e-05 1.26979e-05 -8.76394e-06)
(0.000128378 -2.34178e-05 2.40497e-05)
(9.52228e-05 1.26979e-05 -8.76394e-06)
(6.95733e-05 1.90646e-05 -1.42091e-05)
(4.04304e-05 9.96397e-06 -1.19546e-05)
(2.77611e-05 9.22884e-06 -9.8101e-06)
(6.22927e-06 -8.84423e-06 1.34345e-05)
(1.67701e-05 -1.46301e-05 1.96017e-05)
(3.96517e-05 -1.60369e-05 2.21806e-05)
(6.47911e-05 -1.19281e-05 2.22768e-05)
(0.000100754 -1.34567e-05 1.50817e-05)
(9.44711e-05 6.37268e-06 -1.20816e-05)
(4.04304e-05 9.96397e-06 -1.19546e-05)
(6.45732e-05 1.4815e-05 -2.22827e-05)
(4.04304e-05 9.96397e-06 -1.19546e-05)
(2.77611e-05 9.22884e-06 -9.8101e-06)
(6.34063e-06 -5.88723e-06 1.12695e-05)
(2.17652e-05 -9.57238e-06 1.58175e-05)
(3.86467e-05 -1.06519e-05 1.74136e-05)
(5.64652e-05 -7.70885e-06 1.55644e-05)
(7.17078e-05 -6.78877e-06 7.22549e-06)
(7.04566e-05 1.03771e-06 -7.29527e-06)
(5.95654e-05 9.05974e-06 -1.39724e-05)
(4.06108e-05 7.10222e-06 -1.06704e-05)
)
;
    }
    procBoundary0to4
    {
        type            processor;
        value           nonuniform List<vector> 
36
(
(4.61086e-06 -1.19199e-06 3.74537e-06)
(9.83244e-06 -2.17947e-06 4.05647e-06)
(2.01473e-05 -1.84467e-06 3.42276e-06)
(2.72751e-05 -1.25772e-06 2.33772e-06)
(3.44423e-05 -3.3195e-07 9.63574e-07)
(3.42857e-05 -2.29978e-07 8.51825e-07)
(3.28821e-05 -1.75638e-07 -7.68978e-07)
(2.66801e-05 4.86242e-07 -1.64439e-06)
(1.88784e-05 1.10485e-07 -1.2389e-06)
(6.8631e-06 -4.13391e-06 5.04645e-06)
(1.74831e-05 -4.40164e-06 5.90042e-06)
(3.05098e-05 -3.99411e-06 5.44508e-06)
(3.86344e-05 -3.5546e-06 3.59177e-06)
(4.60549e-05 -2.09149e-06 2.67327e-06)
(4.88391e-05 -1.48116e-06 2.08014e-07)
(4.82708e-05 9.45554e-07 -2.14793e-06)
(4.24867e-05 3.11147e-06 -3.16296e-06)
(3.44251e-05 2.93942e-06 -4.35222e-06)
(5.68562e-06 -4.62656e-06 5.99526e-06)
(1.83978e-05 -6.94663e-06 8.37882e-06)
(3.31315e-05 -6.25578e-06 7.36963e-06)
(4.23361e-05 -5.69852e-06 5.95952e-06)
(5.00415e-05 -2.64526e-06 3.59401e-06)
(4.89419e-05 -8.12473e-07 -5.54141e-07)
(4.97265e-05 2.68368e-06 -3.93068e-06)
(3.84163e-05 2.8632e-06 -4.48587e-06)
(3.13377e-05 3.37992e-06 -5.85616e-06)
(5.80916e-06 -5.67265e-06 6.42757e-06)
(1.85758e-05 -8.46877e-06 9.18344e-06)
(3.31998e-05 -7.68705e-06 1.03798e-05)
(4.42732e-05 -6.60733e-06 6.5465e-06)
(5.41496e-05 -2.81698e-06 3.85769e-06)
(5.18465e-05 1.02016e-06 -2.35323e-06)
(5.2132e-05 3.23648e-06 -4.92971e-06)
(3.90565e-05 4.07696e-06 -6.94277e-06)
(3.01143e-05 4.89797e-06 -5.70873e-06)
)
;
    }
    procBoundary0to6
    {
        type            processor;
        value           uniform (3.15824e-05 6.1326e-06 -1.07838e-05);
    }
    procBoundary0to7
    {
        type            processor;
        value           uniform (2.24821e-05 5.08806e-06 -7.0245e-06);
    }
}


// ************************************************************************* //
