/*--------------------------------*- C++ -*----------------------------------*\
| =========                 |                                                 |
| \\      /  F ield         | OpenFOAM: The Open Source CFD Toolbox           |
|  \\    /   O peration     | Version:  4.x                                   |
|   \\  /    A nd           | Web:      www.OpenFOAM.org                      |
|    \\/     M anipulation  |                                                 |
\*---------------------------------------------------------------------------*/
FoamFile
{
    version     2.0;
    format      ascii;
    class       volScalarField;
    location    "31.5";
    object      KslPrev;
}
// * * * * * * * * * * * * * * * * * * * * * * * * * * * * * * * * * * * * * //

dimensions      [1 -3 -1 0 0 0 0];

internalField   nonuniform List<scalar> 
108
(
3383
7941.88
3392.33
7616.51
3378.05
7350.9
3318.82
7252.96
3201.48
3474.07
9961.86
3659.01
13067.7
3717.11
16621.3
3700.29
22275.1
3633.76
3510.08
11209.3
3769.69
17807.6
3834.98
30377.9
3813.83
85680
3746.16
3499.16
11192
3808.01
18540.3
3909.2
40913
3936.99
322062
3872.43
3373.22
7764.52
3359.77
7434.09
3359.6
7113.66
3289.33
7106.98
3237.65
3454.75
8905.28
3546.84
9801.93
3580.28
10813.4
3568.28
12638.9
3536.64
3474.76
10027.8
3692.21
13519.8
3768.3
18483.4
3744.21
26222.9
3703.26
3501.88
10479.9
3717.62
15078.5
3790.38
22502
3758.03
33925.3
3658.63
3322.99
6940.01
3172.33
5960.79
3108.46
5549.94
3036.73
5249.17
2911.94
3374.69
7695.89
3358.36
7072.2
3292.85
6673.6
3202.27
6383.06
3088.74
3428.33
8275.64
3462.66
8225.43
3438.97
8043.19
3345.98
7788.15
3247.1
3468.59
8473.24
3500.18
8675.57
3466.72
8408.1
3339.57
7856.61
3221.58
)
;

boundaryField
{
    inlet
    {
        type            zeroGradient;
    }
    outlet
    {
        type            zeroGradient;
    }
    wall
    {
        type            zeroGradient;
    }
    procBoundary4to0
    {
        type            processor;
        value           uniform 0;
    }
    procBoundary4to5
    {
        type            processor;
        value           uniform 0;
    }
    procBoundary4to6
    {
        type            processor;
        value           uniform 0;
    }
}


// ************************************************************************* //
