/*--------------------------------*- C++ -*----------------------------------*\
| =========                 |                                                 |
| \\      /  F ield         | OpenFOAM: The Open Source CFD Toolbox           |
|  \\    /   O peration     | Version:  4.x                                   |
|   \\  /    A nd           | Web:      www.OpenFOAM.org                      |
|    \\/     M anipulation  |                                                 |
\*---------------------------------------------------------------------------*/
FoamFile
{
    version     2.0;
    format      ascii;
    class       volScalarField;
    location    "31.5";
    object      QPartFluid;
}
// * * * * * * * * * * * * * * * * * * * * * * * * * * * * * * * * * * * * * //

dimensions      [1 -1 -3 0 0 0 0];

internalField   nonuniform List<scalar> 
108
(
4.92379e+09
7.10853e+09
8.42397e+09
5.97688e+09
7.15323e+09
5.98482e+09
8.93654e+09
6.86488e+09
9.64026e+09
7.0182e+09
7.29332e+09
9.38612e+09
1.00313e+10
1.01138e+10
8.56963e+09
8.13212e+09
5.73131e+09
1.11145e+10
6.68792e+09
1.02753e+10
8.31357e+09
9.35004e+09
8.11311e+09
6.28654e+09
7.29228e+09
1.02818e+10
6.73431e+09
3.45693e+09
6.72896e+09
9.38989e+09
5.70225e+09
8.77975e+09
6.66408e+09
1.0985e+10
5.98364e+09
7.03864e+09
5.06044e+09
5.49241e+09
8.0508e+09
8.33766e+09
8.52406e+09
5.47345e+09
5.57699e+09
7.5541e+09
9.57888e+09
6.24322e+09
7.60446e+09
7.55162e+09
7.59504e+09
7.73542e+09
6.81721e+09
8.49684e+09
9.26939e+09
1.04856e+10
4.19182e+09
7.32787e+09
1.00185e+10
8.29088e+09
9.66328e+09
8.25381e+09
8.16941e+09
7.17971e+09
8.61124e+09
6.20229e+09
8.5817e+09
7.5362e+09
9.64175e+09
1.05098e+10
7.6017e+09
1.18184e+10
8.46009e+09
8.11176e+09
4.55107e+09
6.30118e+09
4.44332e+09
6.05243e+09
6.34564e+09
8.00767e+09
8.01207e+09
6.50858e+09
8.19205e+09
4.87422e+09
9.01043e+09
7.12351e+09
5.84588e+09
7.46546e+09
7.70738e+09
7.37682e+09
6.21937e+09
8.56988e+09
5.23121e+09
7.45939e+09
8.4542e+09
7.15828e+09
6.70185e+09
6.91386e+09
7.34769e+09
7.87413e+09
7.02334e+09
7.25043e+09
7.00947e+09
6.69402e+09
7.96158e+09
8.42448e+09
9.50221e+09
4.95742e+09
5.14785e+09
7.05273e+09
)
;

boundaryField
{
    inlet
    {
        type            calculated;
        value           uniform 0;
    }
    outlet
    {
        type            calculated;
        value           nonuniform 0();
    }
    wall
    {
        type            calculated;
        value           uniform 0;
    }
    procBoundary4to0
    {
        type            processor;
        value           nonuniform List<scalar> 
36
(
4.35004e+09
4.99496e+09
6.76678e+09
5.19585e+09
7.08668e+09
7.79711e+09
5.9112e+09
4.35733e+09
6.05722e+09
5.13365e+09
9.60484e+09
9.09472e+09
8.096e+09
7.20733e+09
6.68136e+09
1.04475e+10
7.27213e+09
6.93891e+09
5.18273e+09
5.59791e+09
9.0351e+09
6.13244e+09
8.67806e+09
8.45086e+09
8.20287e+09
4.90876e+09
9.3162e+09
4.82162e+09
6.71653e+09
9.79223e+09
1.01687e+10
5.45794e+09
9.68338e+09
8.44387e+09
5.41092e+09
2.58402e+09
)
;
    }
    procBoundary4to5
    {
        type            processor;
        value           nonuniform List<scalar> 
12
(
6.63691e+09
8.09974e+09
8.50297e+09
1.02536e+10
7.28837e+09
6.20138e+09
7.44341e+09
5.2811e+09
2.48271e+09
6.95096e+09
6.0128e+09
7.12537e+09
)
;
    }
    procBoundary4to6
    {
        type            processor;
        value           nonuniform List<scalar> 
27
(
9.95679e+09
8.9645e+09
6.09813e+09
8.05435e+09
1.10955e+10
6.17537e+09
8.728e+09
6.66568e+09
9.96986e+09
7.34668e+09
9.00891e+09
9.65942e+09
8.6481e+09
6.67012e+09
7.90219e+09
7.92621e+09
6.10142e+09
9.54218e+09
4.91074e+09
5.40715e+09
7.42674e+09
7.01496e+09
7.16022e+09
6.48028e+09
1.0269e+10
8.63093e+09
4.51346e+09
)
;
    }
}


// ************************************************************************* //
