/*--------------------------------*- C++ -*----------------------------------*\
| =========                 |                                                 |
| \\      /  F ield         | OpenFOAM: The Open Source CFD Toolbox           |
|  \\    /   O peration     | Version:  4.x                                   |
|   \\  /    A nd           | Web:      www.OpenFOAM.org                      |
|    \\/     M anipulation  |                                                 |
\*---------------------------------------------------------------------------*/
FoamFile
{
    version     2.0;
    format      ascii;
    class       volScalarField;
    location    "27";
    object      p;
}
// * * * * * * * * * * * * * * * * * * * * * * * * * * * * * * * * * * * * * //

dimensions      [1 -1 -2 0 0 0 0];

internalField   nonuniform List<scalar> 
132
(
5742.99
5726.84
5737.56
5706.32
5727.61
5689.62
5721.37
5671.36
5714.78
5743.07
5726.45
5736.38
5707.78
5728.37
5689.71
5721.55
5671.25
5714.81
5743.17
5726.37
5736.28
5708.36
5728.96
5690.03
5721.94
5671.72
5715.19
5743.18
5726.23
5736.33
3865.53
3848.82
3858.74
3830.08
3850.7
3812
3843.94
3793.66
3837.27
3865.79
3848.74
3858.81
3830.44
3851.19
3812.03
3844.16
3793.44
3837.33
3866.01
3848.76
3859.02
3830.75
3851.76
3812.33
3844.75
3793.68
3838.06
3866.07
3848.61
3859.08
3830.78
3851.84
1988.24
1971.02
1981.15
1952.89
1973.59
1934.52
1966.36
1915.95
1959.36
1988.69
1971.18
1981.6
1953.07
1974.11
1934.57
1966.81
1915.84
1959.63
1989.1
1971.45
1982.07
1953.57
1974.51
1935.14
1966.88
1916.6
1959.65
1989.34
1971.61
1982.31
1953.78
1974.75
1935.55
1967.01
110.483
93.278
103.362
75.4176
96.0121
57.2063
88.742
38.9138
81.8984
111.065
93.5516
103.858
75.5527
96.3823
57.3663
89.062
38.9134
82.0534
111.407
93.8544
104.242
75.993
96.738
58.0109
89.2709
40.2237
82.2936
111.642
93.9786
104.461
75.9846
96.769
58.017
89.1039
40.0009
81.9878
)
;

boundaryField
{
    inlet
    {
        type            calculated;
        value           nonuniform List<scalar> 
16
(
5742.99
5743.07
5743.17
5743.18
3865.53
3865.79
3866.01
3866.07
1988.24
1988.69
1989.1
1989.34
110.483
111.065
111.407
111.642
)
;
    }
    outlet
    {
        type            calculated;
        value           nonuniform 0();
    }
    wall
    {
        type            calculated;
        value           nonuniform List<scalar> 
66
(
6681.95
6682.03
6682.12
6682.13
6665.79
6665.4
6665.33
6665.18
6676.52
6675.34
6675.24
6675.29
6645.27
6646.74
6647.31
6666.56
6667.32
6667.91
6628.58
6628.66
6628.99
6660.33
6660.51
6660.9
6610.3
6610.21
6610.67
6653.71
6653.77
6654.14
5742.99
3865.53
1988.24
110.483
5726.84
3848.82
1971.02
93.278
5737.56
3858.74
1981.15
103.362
5706.32
3830.08
1952.89
75.4176
5727.61
3850.7
1973.59
96.0121
5689.62
3812
1934.52
57.2063
5721.37
3843.94
1966.36
88.742
5671.36
3793.66
1915.95
38.9138
5714.78
3837.27
1959.36
81.8984
)
;
    }
    procBoundary0to1
    {
        type            processor;
        value           nonuniform List<scalar> 
12
(
5652.83
5652.52
5653.07
3775.03
3774.57
3775.09
1897.36
1896.96
1898.28
20.4699
20.5089
22.788
)
;
    }
    procBoundary0to2
    {
        type            processor;
        value           nonuniform List<scalar> 
44
(
5708.47
5729.09
5690.05
5721.94
5671.34
5715.02
5743.04
5726.1
5708.47
5736.25
5708.47
5729.09
3812.18
3844.5
3793.19
3837.63
3865.94
3848.67
3859.05
3830.83
3812.18
3851.86
3812.18
3844.5
1917.22
1959.49
1988.98
1971.3
1981.95
1953.53
1974.49
1935.39
1917.22
1966.94
1917.22
1959.49
111.535
93.7787
104.258
75.8012
96.7542
57.704
89.329
39.5974
)
;
    }
    procBoundary0to4
    {
        type            processor;
        value           nonuniform List<scalar> 
36
(
-1766.97
-1784.39
-1774.1
-1802.31
-1781.54
-1820.59
-1788.94
-1839.15
-1796.11
-1766.32
-1784.09
-1773.46
-1802.1
-1781.04
-1820.54
-1788.56
-1839.06
-1795.91
-1765.86
-1783.75
-1773.13
-1801.7
-1780.85
-1819.94
-1788.48
-1838.15
-1795.92
-1765.69
-1783.49
-1772.92
-1801.39
-1780.65
-1819.48
-1788.43
-1837.53
-1795.77
)
;
    }
    procBoundary0to6
    {
        type            processor;
        value           uniform 82.074;
    }
    procBoundary0to7
    {
        type            processor;
        value           uniform 22.636;
    }
}


// ************************************************************************* //
