/*--------------------------------*- C++ -*----------------------------------*\
| =========                 |                                                 |
| \\      /  F ield         | OpenFOAM: The Open Source CFD Toolbox           |
|  \\    /   O peration     | Version:  4.x                                   |
|   \\  /    A nd           | Web:      www.OpenFOAM.org                      |
|    \\/     M anipulation  |                                                 |
\*---------------------------------------------------------------------------*/
FoamFile
{
    version     2.0;
    format      ascii;
    class       volVectorField;
    location    "27";
    object      U;
}
// * * * * * * * * * * * * * * * * * * * * * * * * * * * * * * * * * * * * * //

dimensions      [0 1 -1 0 0 0 0];

internalField   nonuniform List<vector> 
132
(
(0.030032 -0.000488295 -0.00103638)
(0.0146097 -0.000319964 -0.000707215)
(0.0330469 -0.000585603 -0.00113516)
(0.0194755 -0.000243039 -0.000621782)
(0.0360297 -0.000421071 -0.000910994)
(0.0232927 -0.000115016 -0.000476904)
(0.0385716 -0.000274731 -0.00081451)
(0.0259626 -6.41019e-06 -0.00052738)
(0.0406083 -2.40614e-05 -0.000803698)
(0.0301255 -0.000900169 -0.00121737)
(0.0138477 -0.000651035 -0.000688374)
(0.0324852 -0.00111274 -0.00122271)
(0.0176474 -0.000599998 -0.000678855)
(0.0348342 -0.000914995 -0.0010563)
(0.0207127 -0.000452731 -0.00050533)
(0.0369636 -0.000819587 -0.00088468)
(0.0230083 -0.000673059 -0.000404768)
(0.0386951 -0.000749276 -0.000805571)
(0.0301504 -0.000690661 -0.00132451)
(0.0133499 -0.000437709 -0.000634141)
(0.0320657 -0.000819856 -0.00127412)
(0.0163494 -0.000513144 -0.000619319)
(0.0337608 -0.000632587 -0.00117806)
(0.0184791 -0.000340047 -0.000530246)
(0.0351959 -0.000543729 -0.00120347)
(0.0197049 -0.000300433 -0.000290992)
(0.0360929 -0.000448865 -0.00155616)
(0.0301427 -0.000376309 -0.00140628)
(0.0133692 -9.42708e-05 -0.000629062)
(0.0321022 -0.000185062 -0.00130151)
(0.0298794 -0.000654111 -0.00230073)
(0.0130296 -0.000296965 -0.00137244)
(0.0316877 -0.000663447 -0.00242942)
(0.0152367 -0.00028093 -0.00122908)
(0.0330738 -0.000544186 -0.00186466)
(0.0169101 -0.000120082 -0.000981925)
(0.0343215 -0.00031635 -0.00141686)
(0.0179537 0.000116162 -0.000831814)
(0.0353683 -3.84926e-06 -0.000794889)
(0.0299504 -0.00114275 -0.00258944)
(0.0117094 -0.000530004 -0.00132295)
(0.0307931 -0.00121012 -0.00264438)
(0.0123358 -0.000487869 -0.00116244)
(0.0313817 -0.0011016 -0.00213316)
(0.0124029 -0.000346255 -0.000856448)
(0.0320448 -0.00108272 -0.00171991)
(0.0121699 -0.000231414 -0.000659654)
(0.0327569 -0.00128935 -0.00128583)
(0.0298062 -0.000841802 -0.00282654)
(0.0108179 -0.000316094 -0.00133359)
(0.0301848 -0.000843619 -0.00291316)
(0.0102235 -0.000290848 -0.00122681)
(0.0302578 -0.000677788 -0.00219802)
(0.00878279 -0.000112285 -0.000888726)
(0.0302979 -0.000348739 -0.00124051)
(0.00631938 8.63203e-05 -0.000469387)
(0.0303039 -0.000298059 -0.000486566)
(0.029707 -0.000234858 -0.0030088)
(0.0108737 -0.000121909 -0.00151165)
(0.0299802 -0.000233339 -0.00311719)
(0.010228 -6.03805e-05 -0.00135031)
(0.0301297 -2.01684e-05 -0.00246351)
(0.0298869 -0.000793357 -0.0016862)
(0.0123795 -0.000367457 -0.00100658)
(0.0309992 -0.000859247 -0.00168535)
(0.0135677 -0.000345009 -0.00096799)
(0.0319333 -0.000802726 -0.00130685)
(0.0144465 -0.000222383 -0.000924307)
(0.0328893 -0.000717071 -0.00101028)
(0.0149104 -0.000101174 -0.00105959)
(0.0336652 -0.000757226 -0.000949068)
(0.0298624 -0.00143514 -0.00195151)
(0.010702 -0.000692298 -0.00102397)
(0.0299721 -0.00163137 -0.0018828)
(0.00972989 -0.000702983 -0.000783132)
(0.029976 -0.00130451 -0.00131671)
(0.00830927 -0.000520002 -0.000701398)
(0.0301045 -0.000710947 -0.00107654)
(0.00636654 -0.000372094 -0.000641313)
(0.0304633 -0.000452011 -0.000892245)
(0.0295173 -0.00112955 -0.00191455)
(0.00928878 -0.00055213 -0.000960481)
(0.0285976 -0.00124492 -0.00186058)
(0.00575876 -0.000402179 -0.000571067)
(0.0276429 -0.000825562 -0.00111034)
(0.00257834 -0.000207734 -0.000307875)
(0.0269791 -0.000173079 -0.000412355)
(0.000953889 -0.000104246 -0.000179745)
(0.0268218 0.000227869 1.19444e-05)
(0.0294228 -2.09892e-05 -0.00202633)
(0.00881937 2.83813e-05 -0.00103881)
(0.0282287 8.0694e-05 -0.00202526)
(0.00485953 3.30909e-05 -0.000496346)
(0.027112 0.000106174 -0.00112529)
(0.00160165 -1.73877e-05 -0.000218852)
(0.0262181 -4.69424e-05 -0.000582538)
(0.0298438 -0.000941754 -0.00122901)
(0.0127926 -0.000463358 -0.000803038)
(0.031103 -0.00094568 -0.0012963)
(0.0141977 -0.000360652 -0.000774979)
(0.032037 -0.000684155 -0.00103058)
(0.0150007 -0.000305696 -0.000730963)
(0.0327136 -0.000561872 -0.000878739)
(0.0152545 -0.000152137 -0.000790575)
(0.0333695 -0.000234084 -0.000817995)
(0.0297688 -0.0013895 -0.00142189)
(0.0106199 -0.000679393 -0.000759228)
(0.0297857 -0.00148526 -0.00146391)
(0.00937198 -0.00056077 -0.000594578)
(0.0296538 -0.00111966 -0.000998086)
(0.00820519 -0.000531567 -0.000460254)
(0.0296839 -0.000764867 -0.000697778)
(0.00661254 -0.000631919 -0.000473842)
(0.0296955 -0.000642442 -0.00030957)
(0.0295384 -0.000937869 -0.00135945)
(0.00987497 -0.000480681 -0.000688461)
(0.0290581 -0.00106335 -0.0011675)
(0.007161 -0.000320877 -0.000381572)
(0.0285446 -0.000602563 -0.000703674)
(0.00501038 -0.00024238 -0.000281665)
(0.0280676 -1.30322e-05 -0.0007126)
(0.00372564 -0.000275525 -0.000328349)
(0.0275557 0.000230805 -0.000417623)
(0.0296758 -0.000302193 -0.00121168)
(0.00954091 -5.20294e-05 -0.000671771)
(0.0289747 -0.000100235 -0.00111433)
(0.00638266 6.2776e-05 -0.000371007)
(0.0284666 -4.51912e-06 -0.00068501)
(0.00454535 0.000101271 -0.000262391)
(0.0284186 -0.000107285 -0.00053073)
(0.00403837 0.000180817 -0.000300861)
(0.0279727 0.000438211 -0.000688274)
)
;

boundaryField
{
    inlet
    {
        type            fixedValue;
        value           uniform (0.01 0 0);
    }
    outlet
    {
        type            zeroGradient;
    }
    wall
    {
        type            fixedValue;
        value           uniform (0 0 0);
    }
    procBoundary0to1
    {
        type            processor;
        value           nonuniform List<vector> 
12
(
(0.0277727 0.000538519 -0.000387171)
(0.0248144 -0.000371213 -0.00037843)
(0.0204163 -0.00012003 -0.000682438)
(0.0187848 0.000489457 -0.000479629)
(0.0119237 -0.000300107 -0.000493704)
(0.00220032 7.4159e-05 -0.00017818)
(0.0155822 7.83122e-05 -0.00125459)
(0.00383522 -0.000272164 -0.000503445)
(0.000123914 -1.89337e-05 -3.43127e-05)
(0.0148682 -0.000123288 -0.000490117)
(0.00478586 -0.000828347 -0.000323513)
(0.00182915 -0.000289817 -0.000168887)
)
;
    }
    procBoundary0to2
    {
        type            processor;
        value           nonuniform List<vector> 
44
(
(0.0164916 -9.21368e-05 -0.000599051)
(0.0338766 -8.78343e-05 -0.00118827)
(0.0187527 -9.91659e-05 -0.00044225)
(0.0354668 -6.27743e-05 -0.000790849)
(0.0200675 3.87608e-05 -5.14179e-05)
(0.0370365 4.44653e-05 -0.000639107)
(0.029945 0.000184323 -0.00115659)
(0.0128486 0.000122346 -0.000654282)
(0.0164916 -9.21368e-05 -0.000599051)
(0.0315678 0.000319685 -0.00131894)
(0.0164916 -9.21368e-05 -0.000599051)
(0.0338766 -8.78343e-05 -0.00118827)
(0.00890351 -6.68388e-05 -0.00118506)
(0.0303187 0.000156437 -0.00157224)
(0.00787135 -2.044e-05 -0.00120872)
(0.0309787 0.000776986 -0.00092289)
(0.029805 0.000355073 -0.00247687)
(0.0108408 8.34554e-05 -0.00122264)
(0.0300526 0.000341789 -0.00263005)
(0.00978836 0.000217357 -0.0010158)
(0.00890351 -6.68388e-05 -0.00118506)
(0.029992 0.000380357 -0.00194669)
(0.00890351 -6.68388e-05 -0.00118506)
(0.0303187 0.000156437 -0.00157224)
(0.000232174 -4.37874e-06 -4.99001e-05)
(0.0254391 -0.000232777 -0.00013556)
(0.0297334 0.00069597 -0.00198595)
(0.01 0.000291091 -0.000962585)
(0.0291791 0.000616829 -0.00176596)
(0.00751992 0.000312133 -0.000610578)
(0.0288306 0.000388143 -0.00117221)
(0.00537516 0.000238818 -0.000442054)
(0.000232174 -4.37874e-06 -4.99001e-05)
(0.0288445 -0.000270114 -0.000776595)
(0.000232174 -4.37874e-06 -4.99001e-05)
(0.0254391 -0.000232777 -0.00013556)
(0.029611 0.000534541 -0.00167048)
(0.00961685 0.000314114 -0.000704258)
(0.0289848 0.00071154 -0.00135278)
(0.00693647 0.000257519 -0.000533384)
(0.0285833 0.000427705 -0.000857244)
(0.0048327 0.000254341 -0.000328929)
(0.02848 3.1608e-05 -0.000992943)
(0.00300363 0.000255163 -0.000324486)
)
;
    }
    procBoundary0to4
    {
        type            processor;
        value           nonuniform List<vector> 
36
(
(0.0300044 -0.00101345 -0.000701873)
(0.0126924 -0.000480577 -0.000457025)
(0.0309608 -0.00112609 -0.000776874)
(0.0134549 -0.000440045 -0.000506493)
(0.0315284 -0.00089574 -0.000537071)
(0.0138255 -0.000255024 -0.000377875)
(0.0321255 -0.000662096 -0.000493182)
(0.0136884 -0.000234356 -0.000346891)
(0.0328963 -0.000376027 -7.83776e-05)
(0.0298271 -0.00157867 -0.000615692)
(0.010252 -0.000717522 -0.000324592)
(0.0294523 -0.00158029 -0.00063677)
(0.0076924 -0.000517012 -0.000293863)
(0.0291931 -0.00107482 -0.000512498)
(0.00546217 -0.000339293 -0.000151057)
(0.0291413 -0.000638327 -0.000431886)
(0.00331414 -0.00027533 -7.76764e-05)
(0.0294761 -0.000280902 -2.03381e-05)
(0.0297082 -0.000929411 -0.000626606)
(0.00932637 -0.000526763 -0.000311506)
(0.0286566 -0.000929608 -0.000540287)
(0.00573911 -0.000361455 -0.000139617)
(0.0281471 -0.000591438 -0.000297952)
(0.0030451 -0.000253074 1.45531e-05)
(0.0279035 -0.000102877 -0.000227285)
(0.0011956 -0.000135766 5.93286e-05)
(0.0277958 -0.00026867 0.000344014)
(0.0297243 -0.000342811 -0.0007367)
(0.00941436 -1.11041e-05 -0.000278571)
(0.0285951 -0.000118636 -0.000618314)
(0.00598637 -9.89214e-05 -0.000223415)
(0.0280164 -2.77357e-05 -0.000576256)
(0.00363912 -6.79831e-05 -2.13323e-05)
(0.0277421 -0.000302304 -0.000596667)
(0.00249862 -9.32419e-05 9.33537e-05)
(0.027398 -6.36829e-06 -0.000356915)
)
;
    }
    procBoundary0to6
    {
        type            processor;
        value           uniform (0.0281963 -3.86119e-05 -0.00042598);
    }
    procBoundary0to7
    {
        type            processor;
        value           uniform (0.00404955 0.000370103 -0.000559884);
    }
}


// ************************************************************************* //
