/*--------------------------------*- C++ -*----------------------------------*\
| =========                 |                                                 |
| \\      /  F ield         | OpenFOAM: The Open Source CFD Toolbox           |
|  \\    /   O peration     | Version:  4.x                                   |
|   \\  /    A nd           | Web:      www.OpenFOAM.org                      |
|    \\/     M anipulation  |                                                 |
\*---------------------------------------------------------------------------*/
FoamFile
{
    version     2.0;
    format      ascii;
    class       volScalarField;
    location    "22.5";
    object      KslPrev;
}
// * * * * * * * * * * * * * * * * * * * * * * * * * * * * * * * * * * * * * //

dimensions      [1 -3 -1 0 0 0 0];

internalField   nonuniform List<scalar> 
114
(
6020.5
3222.5
5315.32
3102.68
4838.75
2939.15
3493.37
7486.03
3406.74
6480.76
3333.11
5880.76
3230.57
5458.84
3088.71
3434.37
7097.14
3303.38
5905.18
3205.65
5285.69
3096.28
4918.24
2981.52
3376.2
6396.02
3155.78
5079.17
2959.03
4368.83
2778.74
3949.08
2662.71
11467.4
3822.68
13293.6
3751.17
3542.14
8807.05
3679.54
9837.66
3759.67
10995.4
3769.96
12430.6
3666.05
3503.42
8440.55
3622.79
8863.23
3648.76
9289.3
3653.1
10129
3610.8
3423.27
7072.77
3369.19
6199.26
3231.17
5631.41
3129.7
5263.41
2998.26
58425.8
3966.76
3589.35
9596.25
3811.06
12818.9
3923.48
18196.3
3969.92
30062.4
3936.93
3527.4
9165.92
3743.06
11501.8
3846.75
14817.5
3909.44
22605.9
3912.39
3449.62
7612.61
3469.27
7173.75
3392.88
6736.11
3378.55
6568.28
3289.96
3609.77
9796.9
3841.36
12598.2
3876.19
15404.1
3839.03
18794.8
3558.88
9063.03
3769.05
10782.8
3819.03
12505.7
3794.3
3445.83
7400.76
3470.63
7033.51
3406.16
6653.87
)
;

boundaryField
{
    inlet
    {
        type            zeroGradient;
    }
    outlet
    {
        type            zeroGradient;
    }
    wall
    {
        type            zeroGradient;
    }
    procBoundary2to0
    {
        type            processor;
        value           uniform 0;
    }
    procBoundary2to3
    {
        type            processor;
        value           uniform 0;
    }
    procBoundary2to6
    {
        type            processor;
        value           uniform 0;
    }
}


// ************************************************************************* //
