/*--------------------------------*- C++ -*----------------------------------*\
| =========                 |                                                 |
| \\      /  F ield         | OpenFOAM: The Open Source CFD Toolbox           |
|  \\    /   O peration     | Version:  4.x                                   |
|   \\  /    A nd           | Web:      www.OpenFOAM.org                      |
|    \\/     M anipulation  |                                                 |
\*---------------------------------------------------------------------------*/
FoamFile
{
    version     2.0;
    format      ascii;
    class       volScalarField;
    location    "22.5";
    object      magGField;
}
// * * * * * * * * * * * * * * * * * * * * * * * * * * * * * * * * * * * * * //

dimensions      [1 -2 -1 0 0 0 0];

internalField   nonuniform List<scalar> 
114
(
57.5015
108.965
66.3791
114.572
73.1442
120.329
96.0414
45.0976
100.989
53.4825
105.194
59.6678
109.4
64.3622
114.046
97.0171
47.2606
103.308
58.2223
109.245
66.1821
114.151
71.636
118.432
97.3221
51.7074
106.741
66.6862
116.459
79.0885
125.197
88.1145
131.509
30.4923
92.1914
26.2083
92.8994
94.4766
38.5273
94.085
35.2374
93.2542
31.6626
93.0741
27.9453
94.9983
94.9811
39.9206
95.1967
38.9158
95.5659
37.4675
96.0816
34.3575
96.7493
95.5433
46.8329
100.461
54.5298
105.468
60.845
110.116
65.2453
114.724
5.75293
84.6118
92.7218
35.1303
89.8287
26.6013
87.4717
18.6596
85.8282
11.2085
85.6446
93.6934
36.4852
91.1696
29.5236
89.0478
22.9061
87.5182
14.9654
86.7027
94.4814
43.0968
96.4605
46.5792
98.9153
49.7854
99.9784
51.1476
102.11
91.7004
34.117
88.1357
26.6383
86.9243
21.5891
86.8345
17.4235
91.8971
36.5359
89.4557
31.0366
88.2689
26.5936
88.0264
93.5114
43.8703
95.5063
46.8262
97.7122
49.452
)
;

boundaryField
{
    inlet
    {
        type            calculated;
        value           uniform 67;
    }
    outlet
    {
        type            calculated;
        value           nonuniform 0();
    }
    wall
    {
        type            calculated;
        value           uniform 0;
    }
    procBoundary2to0
    {
        type            processor;
        value           nonuniform List<scalar> 
44
(
57.0669
108.961
64.7425
113.969
69.8991
116.229
97.9737
47.3429
103.896
103.896
35.8314
93.1087
32.4433
93.9861
26.8194
94.467
94.1272
38.4079
94.5993
35.8314
93.1087
93.1087
11.5199
84.7452
5.63133
84.1923
92.2657
32.1681
88.5092
20.8129
85.6191
11.5199
84.7452
84.7452
9.16942
82.6389
92.0552
33.4092
87.3261
22.5248
85.0989
15.0237
83.7093
9.16942
)
;
    }
    procBoundary2to3
    {
        type            processor;
        value           nonuniform List<scalar> 
12
(
77.1399
68.2321
75.3603
94.3548
21.8038
25.2796
29.5296
68.0898
1.41633
3.53826
7.05805
50.9606
)
;
    }
    procBoundary2to6
    {
        type            processor;
        value           nonuniform List<scalar> 
32
(
87.1315
23.5321
88.8852
100.321
52.0186
103.339
89.5463
30.4015
84.8375
17.1227
81.22
6.65829
79.5239
87.1315
23.5321
0.000338879
91.4581
33.9673
87.8026
25.1386
84.9062
17.4574
23.5321
100.321
83.023
93.4231
42.5846
93.9222
43.5805
93.3392
100.321
42.2728
)
;
    }
}


// ************************************************************************* //
