/*--------------------------------*- C++ -*----------------------------------*\
| =========                 |                                                 |
| \\      /  F ield         | OpenFOAM: The Open Source CFD Toolbox           |
|  \\    /   O peration     | Version:  4.x                                   |
|   \\  /    A nd           | Web:      www.OpenFOAM.org                      |
|    \\/     M anipulation  |                                                 |
\*---------------------------------------------------------------------------*/
FoamFile
{
    version     2.0;
    format      ascii;
    class       volScalarField;
    location    "22.5";
    object      p_rgh;
}
// * * * * * * * * * * * * * * * * * * * * * * * * * * * * * * * * * * * * * //

dimensions      [1 -1 -2 0 0 0 0];

internalField   nonuniform List<scalar> 
114
(
74.9288
93.9043
57.426
86.3961
39.4091
79.0204
108.442
91.7868
101.232
74.9305
93.9061
57.5195
86.4573
39.625
79.0364
108.262
91.7915
101.123
74.8441
93.7953
57.5003
86.4954
39.843
79.3629
107.895
91.6225
100.813
74.7303
93.4954
57.468
86.1799
39.816
78.8837
57.5825
86.957
39.4474
79.5841
109.128
92.2272
101.886
75.1439
94.407
57.6174
86.8658
39.4824
79.4638
109.044
92.2164
101.782
75.0211
94.2904
57.517
86.7877
39.5855
79.425
108.519
91.9486
101.295
74.8618
93.83
57.4597
86.3756
39.629
79.0541
40.4838
79.8805
110.15
92.8535
102.848
75.865
95.2123
58.498
87.4759
40.7103
79.8726
109.971
92.906
102.726
75.7253
95.073
58.281
87.4798
40.5222
79.9274
109.419
92.5473
102.098
75.4636
94.5039
58.2142
86.9154
40.4349
79.4839
110.566
93.172
102.918
75.8423
95.0669
58.2753
87.28
40.489
110.408
93.1305
102.84
75.8485
95.0226
58.315
87.196
109.746
92.7618
102.242
75.5843
94.4869
58.0657
)
;

boundaryField
{
    inlet
    {
        type            fixedFluxPressure;
        gradient        nonuniform List<scalar> 
12
(
-0.00943396
-0.0151732
-0.0192386
-0.00411341
-0.0058909
-0.00727749
-0.00133716
-0.00173158
-0.00199697
9.40198e-07
7.19683e-07
-1.23265e-07
)
;
        value           nonuniform List<scalar> 
12
(
108.442
108.262
107.895
109.128
109.044
108.519
110.15
109.97
109.419
110.566
110.408
109.746
)
;
    }
    outlet
    {
        type            fixedValue;
        value           nonuniform 0();
    }
    wall
    {
        type            fixedFluxPressure;
        gradient        nonuniform List<scalar> 
66
(
-5.09155e-06
-4.09296e-06
-2.55805e-06
-2.25769e-05
-1.83421e-05
-9.31011e-06
-1.45146e-05
-9.61918e-06
7.4968e-07
-3.49319e-05
-3.76235e-05
-1.95258e-05
-5.92553e-06
-2.76705e-05
-2.60758e-05
-1.58627e-05
-1.13007e-05
-6.68861e-05
-6.29143e-05
-3.37246e-05
-1.85836e-05
-4.13291e-05
-3.78806e-05
-2.57276e-05
-1.25374e-05
-6.65676e-05
-6.38606e-05
-4.6571e-05
-3.63376e-05
-4.18511e-05
-2.91275e-05
-2.79599e-05
-1.69389e-05
2.14163e-06
1.64718e-06
1.47817e-06
9.92392e-07
6.3881e-06
6.75296e-06
6.78151e-06
9.31425e-06
3.43105e-06
3.66355e-06
5.02895e-06
7.83639e-06
-4.61599e-05
7.83e-06
1.11903e-05
1.24426e-05
1.47389e-07
2.82976e-06
4.17658e-06
6.28778e-06
1.68618e-06
2.18873e-06
1.0198e-05
9.56294e-06
-3.91701e-06
7.6274e-07
4.45455e-06
-4.01153e-05
-1.55854e-06
6.45842e-06
-6.88862e-06
-1.09671e-06
2.18696e-06
)
;
        value           nonuniform List<scalar> 
66
(
108.442
108.262
107.895
91.7868
91.7915
91.6225
101.232
101.123
100.813
74.9288
74.9305
74.8441
74.7303
93.9043
93.9061
93.7953
93.4954
57.426
57.5195
57.5003
57.468
86.3961
86.4573
86.4954
86.1799
39.409
39.625
39.843
39.816
79.0204
79.0364
79.3629
78.8837
107.895
108.519
109.419
109.746
91.6225
91.9486
92.5473
92.7618
100.813
101.295
102.098
102.242
74.7303
74.8618
75.4636
75.5843
93.4954
93.83
94.5039
94.4869
57.468
57.4597
58.2142
58.0657
86.1799
86.3756
86.9154
39.816
39.629
40.4349
78.8837
79.0541
79.4839
)
;
    }
    procBoundary2to0
    {
        type            processor;
        value           nonuniform List<scalar> 
44
(
74.9432
94.0642
57.6206
86.5419
39.789
79.2063
108.072
91.6514
101.197
101.197
75.2246
94.6337
57.7172
87.0396
39.6356
79.8121
109.081
92.0692
101.943
75.2246
94.6337
94.6337
58.2759
87.5075
40.6268
79.9314
110.265
92.9336
103.003
75.867
95.366
58.2759
87.5075
87.5075
41.1718
79.969
110.72
93.4162
103.283
76.1667
95.4201
58.7911
87.5156
41.1718
)
;
    }
    procBoundary2to3
    {
        type            processor;
        value           nonuniform List<scalar> 
12
(
21.2931
21.6374
21.969
21.7041
21.4316
21.4872
21.4952
21.4762
22.9741
23.2378
22.7539
22.5513
)
;
    }
    procBoundary2to6
    {
        type            processor;
        value           nonuniform List<scalar> 
32
(
79.7233
40.4878
79.5625
86.7737
40.3221
79.3149
111.456
93.6104
103.782
76.6782
95.8227
59.2236
87.7914
79.7233
40.4878
41.8927
111.062
93.6014
103.507
76.5084
95.6665
59.0184
40.4878
86.7737
87.8244
110.384
93.2398
102.886
76.293
95.1791
86.7737
58.8058
)
;
    }
}


// ************************************************************************* //
