/*--------------------------------*- C++ -*----------------------------------*\
| =========                 |                                                 |
| \\      /  F ield         | OpenFOAM: The Open Source CFD Toolbox           |
|  \\    /   O peration     | Version:  4.x                                   |
|   \\  /    A nd           | Web:      www.OpenFOAM.org                      |
|    \\/     M anipulation  |                                                 |
\*---------------------------------------------------------------------------*/
FoamFile
{
    version     2.0;
    format      ascii;
    class       volVectorField;
    location    "22.5";
    object      UsNext;
}
// * * * * * * * * * * * * * * * * * * * * * * * * * * * * * * * * * * * * * //

dimensions      [0 1 -1 0 0 0 0];

internalField   nonuniform List<vector> 
114
(
(-2.59816e-09 1.22085e-09 2.83565e-09)
(-4.29539e-09 1.84687e-09 4.19342e-09)
(-6.03641e-09 2.17431e-09 6.17385e-09)
(-6.42153e-09 2.11814e-09 6.49579e-09)
(-5.34406e-09 2.6912e-09 6.75171e-09)
(-2.86631e-09 4.11764e-10 6.95507e-09)
(-3.37763e-09 1.61087e-09 7.19347e-10)
(-8.41764e-10 7.08917e-10 1.47861e-09)
(-2.40161e-09 1.05401e-09 2.08949e-09)
(-3.50902e-09 1.31403e-09 2.84436e-09)
(-5.04941e-09 1.47572e-09 3.80754e-09)
(-6.23552e-09 1.83144e-09 5.21939e-09)
(-7.4057e-09 2.09279e-09 5.68074e-09)
(-6.13104e-09 1.53512e-09 5.67081e-09)
(-5.30981e-09 6.07663e-10 4.58489e-09)
(-3.81215e-10 5.83462e-10 5.90945e-10)
(8.98988e-11 5.48168e-10 1.2704e-09)
(-1.68242e-09 1.0771e-09 1.42957e-09)
(-2.7546e-09 1.73203e-09 1.62021e-09)
(-4.05485e-09 1.61526e-09 2.42453e-09)
(-4.25577e-09 1.66204e-09 3.12338e-09)
(-6.33476e-09 -3.81712e-10 4.05016e-09)
(-5.72173e-09 1.22737e-09 4.61299e-09)
(-5.02733e-09 3.96973e-10 4.55313e-09)
(-5.04949e-10 3.15408e-10 3.76734e-10)
(8.89214e-10 4.94675e-10 7.20947e-10)
(-3.20852e-10 5.35948e-10 -1.17104e-10)
(3.02348e-09 -4.47703e-09 5.74714e-10)
(-1.84384e-09 2.46183e-11 1.88756e-09)
(-9.69405e-10 1.90607e-10 2.10069e-09)
(-1.96302e-09 -6.96182e-10 2.22832e-09)
(-1.31586e-09 -4.98056e-09 4.51153e-09)
(-1.06624e-09 -1.26927e-09 3.12109e-09)
(-5.54235e-09 2.04386e-09 5.54148e-09)
(-5.5867e-09 2.60281e-09 6.12324e-09)
(-4.41177e-09 2.6754e-09 5.91209e-09)
(-2.67548e-09 2.81435e-09 5.06979e-09)
(-3.51301e-10 3.55577e-10 5.20387e-10)
(-1.21081e-09 6.99234e-10 1.36361e-09)
(-2.35781e-09 1.00621e-09 2.23653e-09)
(-3.71173e-09 1.56138e-09 2.9042e-09)
(-4.96834e-09 1.52298e-09 3.71727e-09)
(-5.95898e-09 1.27987e-09 4.99683e-09)
(-5.76446e-09 1.3871e-09 5.24138e-09)
(-4.49131e-09 1.47368e-09 4.72036e-09)
(-3.15601e-09 1.5183e-09 3.63955e-09)
(-4.50933e-10 5.19309e-10 6.27575e-10)
(-8.05975e-10 8.58285e-10 1.12575e-09)
(-1.97273e-09 1.19294e-09 2.0396e-09)
(-2.68811e-09 1.32952e-09 2.10701e-09)
(-3.46872e-09 1.21792e-09 3.01802e-09)
(-4.09515e-09 1.3733e-09 2.98467e-09)
(-4.7614e-09 1.06906e-09 3.90342e-09)
(-4.25827e-09 5.53111e-10 3.7188e-09)
(-2.76563e-09 1.30121e-10 3.44663e-09)
(-2.54137e-11 2.35415e-10 4.20868e-10)
(-1.42752e-10 4.64812e-10 8.4915e-10)
(-9.28347e-10 5.24798e-10 1.12127e-09)
(-1.20434e-09 6.09326e-10 1.05201e-09)
(-1.62002e-09 4.21855e-10 1.93857e-09)
(-1.35258e-09 1.87312e-10 1.66967e-09)
(-1.87751e-09 1.17209e-10 2.24275e-09)
(-1.80714e-09 -1.42115e-10 2.31853e-09)
(-1.01097e-09 -1.75852e-10 1.32644e-09)
(-3.89149e-09 2.4596e-09 4.09886e-09)
(-2.00202e-09 3.76629e-09 2.69283e-09)
(-2.35069e-10 2.38288e-10 7.65855e-10)
(-1.00326e-09 7.93543e-10 1.45171e-09)
(-2.42781e-09 1.22578e-09 2.44745e-09)
(-3.53024e-09 1.57783e-09 2.87248e-09)
(-4.90466e-09 1.65796e-09 3.72683e-09)
(-5.21801e-09 1.29624e-09 4.06662e-09)
(-5.5567e-09 1.23864e-09 3.89975e-09)
(-3.88214e-09 1.52066e-09 3.14334e-09)
(-2.18413e-09 1.71864e-09 2.40069e-09)
(-2.00351e-10 3.93885e-10 5.60599e-10)
(-5.6776e-10 1.09123e-09 1.78137e-09)
(-2.13771e-09 1.38203e-09 2.17973e-09)
(-2.35707e-09 1.31804e-09 2.2547e-09)
(-3.47018e-09 1.27402e-09 3.13029e-09)
(-3.8143e-09 1.48377e-09 3.0529e-09)
(-4.42573e-09 9.48048e-10 3.22627e-09)
(-2.47793e-09 1.27447e-09 2.18168e-09)
(-1.1541e-09 1.17161e-09 1.49169e-09)
(-9.35029e-11 2.07291e-10 4.82035e-10)
(-2.01998e-10 4.26108e-10 1.14224e-09)
(-7.24283e-10 6.90583e-10 1.20935e-09)
(-1.23016e-09 7.39221e-10 1.516e-09)
(-1.65578e-09 5.85834e-10 1.72672e-09)
(-1.32635e-09 7.15898e-10 1.75279e-09)
(-1.50418e-09 6.1969e-10 2.33351e-09)
(-8.74255e-10 4.65184e-10 1.79045e-09)
(-7.18536e-10 3.12703e-10 1.34507e-09)
(-2.60457e-10 3.47443e-10 8.5501e-10)
(-9.4996e-10 9.31777e-10 1.95649e-09)
(-2.34809e-09 1.31994e-09 2.66775e-09)
(-2.70942e-09 1.65727e-09 2.82124e-09)
(-3.97535e-09 1.76934e-09 3.24883e-09)
(-4.33031e-09 1.69478e-09 3.57647e-09)
(-4.82151e-09 1.72929e-09 2.92677e-09)
(-3.16413e-09 2.31512e-09 1.85937e-09)
(-2.0222e-10 2.92588e-10 6.17206e-10)
(-6.77606e-10 1.09976e-09 1.76325e-09)
(-1.23274e-09 1.44908e-09 1.9735e-09)
(-1.83138e-09 1.71703e-09 2.42922e-09)
(-2.84315e-09 1.57385e-09 2.8084e-09)
(-2.77808e-09 1.56467e-09 2.89472e-09)
(-2.45527e-09 9.30052e-10 2.48585e-09)
(3.57719e-11 1.38118e-10 3.9981e-10)
(-3.27452e-11 5.97097e-10 1.18717e-09)
(-5.41383e-10 1.065e-09 1.64736e-09)
(-3.46173e-10 8.29098e-10 1.41562e-09)
(-1.44089e-09 8.65878e-10 1.70853e-09)
(-4.70039e-10 6.71079e-10 1.43427e-09)
)
;

boundaryField
{
    inlet
    {
        type            calculated;
        value           nonuniform List<vector> 
12
(
(-3.37763e-09 1.61087e-09 7.19347e-10)
(-3.81215e-10 5.83462e-10 5.90945e-10)
(-5.04949e-10 3.15408e-10 3.76734e-10)
(-3.51301e-10 3.55577e-10 5.20387e-10)
(-4.50933e-10 5.19309e-10 6.27575e-10)
(-2.54137e-11 2.35415e-10 4.20868e-10)
(-2.35069e-10 2.38288e-10 7.65855e-10)
(-2.00351e-10 3.93885e-10 5.60599e-10)
(-9.35029e-11 2.07291e-10 4.82035e-10)
(-2.60457e-10 3.47443e-10 8.5501e-10)
(-2.0222e-10 2.92588e-10 6.17206e-10)
(3.57719e-11 1.38118e-10 3.9981e-10)
)
;
    }
    outlet
    {
        type            calculated;
        value           nonuniform 0();
    }
    wall
    {
        type            calculated;
        value           nonuniform List<vector> 
66
(
(-3.37763e-09 1.61087e-09 7.19347e-10)
(-3.81215e-10 5.83462e-10 5.90945e-10)
(-5.04949e-10 3.15408e-10 3.76734e-10)
(-8.41764e-10 7.08917e-10 1.47861e-09)
(8.98988e-11 5.48168e-10 1.2704e-09)
(8.89214e-10 4.94675e-10 7.20947e-10)
(-2.40161e-09 1.05401e-09 2.08949e-09)
(-1.68242e-09 1.0771e-09 1.42957e-09)
(-3.20852e-10 5.35948e-10 -1.17104e-10)
(-2.59816e-09 1.22085e-09 2.83565e-09)
(-3.50902e-09 1.31403e-09 2.84436e-09)
(-2.7546e-09 1.73203e-09 1.62021e-09)
(3.02348e-09 -4.47703e-09 5.74714e-10)
(-4.29539e-09 1.84687e-09 4.19342e-09)
(-5.04941e-09 1.47572e-09 3.80754e-09)
(-4.05485e-09 1.61526e-09 2.42453e-09)
(-1.84384e-09 2.46183e-11 1.88756e-09)
(-6.03641e-09 2.17431e-09 6.17385e-09)
(-6.23552e-09 1.83144e-09 5.21939e-09)
(-4.25577e-09 1.66204e-09 3.12338e-09)
(-9.69405e-10 1.90607e-10 2.10069e-09)
(-6.42153e-09 2.11814e-09 6.49579e-09)
(-7.4057e-09 2.09279e-09 5.68074e-09)
(-6.33476e-09 -3.81712e-10 4.05016e-09)
(-1.96302e-09 -6.96182e-10 2.22832e-09)
(-5.34406e-09 2.6912e-09 6.75171e-09)
(-6.13104e-09 1.53512e-09 5.67081e-09)
(-5.72173e-09 1.22737e-09 4.61299e-09)
(-1.31586e-09 -4.98056e-09 4.51153e-09)
(-2.86631e-09 4.11764e-10 6.95507e-09)
(-5.30981e-09 6.07663e-10 4.58489e-09)
(-5.02733e-09 3.96973e-10 4.55313e-09)
(-1.06624e-09 -1.26927e-09 3.12109e-09)
(-5.04949e-10 3.15408e-10 3.76734e-10)
(-2.54137e-11 2.35415e-10 4.20868e-10)
(-9.35029e-11 2.07291e-10 4.82035e-10)
(3.57719e-11 1.38118e-10 3.9981e-10)
(8.89214e-10 4.94675e-10 7.20947e-10)
(-1.42752e-10 4.64812e-10 8.4915e-10)
(-2.01998e-10 4.26108e-10 1.14224e-09)
(-3.27452e-11 5.97097e-10 1.18717e-09)
(-3.20852e-10 5.35948e-10 -1.17104e-10)
(-9.28347e-10 5.24798e-10 1.12127e-09)
(-7.24283e-10 6.90583e-10 1.20935e-09)
(-5.41383e-10 1.065e-09 1.64736e-09)
(3.02348e-09 -4.47703e-09 5.74714e-10)
(-1.20434e-09 6.09326e-10 1.05201e-09)
(-1.23016e-09 7.39221e-10 1.516e-09)
(-3.46173e-10 8.29098e-10 1.41562e-09)
(-1.84384e-09 2.46183e-11 1.88756e-09)
(-1.62002e-09 4.21855e-10 1.93857e-09)
(-1.65578e-09 5.85834e-10 1.72672e-09)
(-1.44089e-09 8.65878e-10 1.70853e-09)
(-9.69405e-10 1.90607e-10 2.10069e-09)
(-1.35258e-09 1.87312e-10 1.66967e-09)
(-1.32635e-09 7.15898e-10 1.75279e-09)
(-4.70039e-10 6.71079e-10 1.43427e-09)
(-1.96302e-09 -6.96182e-10 2.22832e-09)
(-1.87751e-09 1.17209e-10 2.24275e-09)
(-1.50418e-09 6.1969e-10 2.33351e-09)
(-1.31586e-09 -4.98056e-09 4.51153e-09)
(-1.80714e-09 -1.42115e-10 2.31853e-09)
(-8.74255e-10 4.65184e-10 1.79045e-09)
(-1.06624e-09 -1.26927e-09 3.12109e-09)
(-1.01097e-09 -1.75852e-10 1.32644e-09)
(-7.18536e-10 3.12703e-10 1.34507e-09)
)
;
    }
    procBoundary2to0
    {
        type            processor;
        value           nonuniform List<vector> 
44
(
(-3.30084e-09 1.66667e-09 3.39106e-09)
(-4.44968e-09 2.40674e-09 4.4487e-09)
(-5.65124e-09 3.205e-09 5.96091e-09)
(-7.46569e-09 3.59904e-09 6.95869e-09)
(-8.14901e-09 4.77577e-09 6.8233e-09)
(-8.03118e-09 4.60934e-09 7.09162e-09)
(-2.17507e-10 -2.04198e-10 4.36326e-10)
(-9.32533e-10 2.86947e-10 1.41326e-09)
(-2.30918e-09 8.12405e-10 1.96738e-09)
(-2.30918e-09 8.12405e-10 1.96738e-09)
(-4.1438e-09 1.45391e-09 3.40648e-09)
(-5.21174e-09 1.71002e-09 4.42132e-09)
(-5.6735e-09 2.4912e-09 5.54556e-09)
(-6.56306e-09 3.51004e-09 6.72096e-09)
(-6.89802e-09 4.287e-09 6.13332e-09)
(-6.57377e-09 5.95283e-09 4.68173e-09)
(-5.57535e-10 2.96944e-11 5.66074e-10)
(-1.50515e-09 3.4407e-10 1.40907e-09)
(-2.72498e-09 4.64696e-10 2.49549e-09)
(-4.1438e-09 1.45391e-09 3.40648e-09)
(-5.21174e-09 1.71002e-09 4.42132e-09)
(-5.21174e-09 1.71002e-09 4.42132e-09)
(-5.75315e-09 1.87445e-09 4.29467e-09)
(-5.80621e-09 2.22008e-09 4.05229e-09)
(-6.84258e-09 3.90498e-09 5.0044e-09)
(-7.57186e-09 6.80349e-09 5.7622e-09)
(-3.94797e-10 1.02609e-10 6.95134e-10)
(-1.52266e-09 7.61584e-10 1.48374e-09)
(-2.99848e-09 7.01203e-10 2.5692e-09)
(-3.94285e-09 1.25915e-09 3.29389e-09)
(-5.54272e-09 1.57173e-09 4.22328e-09)
(-5.75315e-09 1.87445e-09 4.29467e-09)
(-5.80621e-09 2.22008e-09 4.05229e-09)
(-5.80621e-09 2.22008e-09 4.05229e-09)
(-6.73337e-09 2.87274e-09 3.62825e-09)
(-3.02526e-09 2.4043e-09 2.39088e-09)
(-2.34729e-10 3.33071e-10 9.71995e-10)
(-1.09289e-09 7.63846e-10 1.71722e-09)
(-2.87235e-09 6.73177e-10 2.75096e-09)
(-3.72985e-09 1.05207e-09 3.08596e-09)
(-5.62993e-09 7.94948e-10 3.47166e-09)
(-5.91578e-09 1.64988e-09 3.71257e-09)
(-6.50017e-09 2.68783e-09 3.39358e-09)
(-6.73337e-09 2.87274e-09 3.62825e-09)
)
;
    }
    procBoundary2to3
    {
        type            processor;
        value           nonuniform List<vector> 
12
(
(-5.5295e-10 3.28349e-09 2.7442e-09)
(-2.55724e-09 -2.16714e-10 2.37774e-09)
(-2.72099e-09 -5.70998e-09 3.2824e-09)
(1.82138e-10 -1.42465e-09 1.32114e-09)
(3.72867e-09 3.4708e-09 -3.25472e-10)
(-4.00798e-10 7.26273e-10 1.49314e-10)
(-4.44454e-10 -3.41098e-10 1.59487e-09)
(8.80798e-10 -7.07082e-10 6.62551e-10)
(7.83872e-11 4.10911e-09 -1.67835e-09)
(5.77117e-11 1.76252e-09 -1.1646e-09)
(3.25643e-10 5.27432e-10 -6.07237e-10)
(6.80551e-10 9.46404e-12 2.36558e-10)
)
;
    }
    procBoundary2to6
    {
        type            processor;
        value           nonuniform List<vector> 
32
(
(-3.19794e-09 2.20868e-09 1.41743e-09)
(-1.34265e-09 1.52824e-09 1.54309e-09)
(-9.84101e-10 1.5772e-09 9.06107e-10)
(-4.83812e-10 5.54314e-10 1.42458e-09)
(-3.86721e-10 8.02983e-10 1.15472e-09)
(1.92189e-11 2.92585e-10 6.63075e-10)
(-4.04639e-10 5.59455e-10 9.34939e-10)
(-8.30829e-10 1.02355e-09 1.74278e-09)
(-1.57707e-09 1.19112e-09 2.48134e-09)
(-1.88394e-09 1.37649e-09 2.69911e-09)
(-3.85784e-09 1.41108e-09 2.79174e-09)
(-2.88363e-09 1.49695e-09 3.1291e-09)
(-3.06499e-09 1.45577e-09 2.70345e-09)
(-3.19794e-09 2.20868e-09 1.41743e-09)
(-1.34265e-09 1.52824e-09 1.54309e-09)
(-2.00199e-09 1.98975e-09 1.79711e-09)
(-3.90922e-10 6.65918e-10 8.02646e-10)
(-2.6243e-10 9.87599e-10 1.48052e-09)
(-9.54843e-10 1.42322e-09 1.96378e-09)
(-9.76621e-10 1.30462e-09 2.20179e-09)
(-1.52137e-09 1.44271e-09 2.28461e-09)
(-1.4566e-09 1.42366e-09 2.34324e-09)
(-1.34265e-09 1.52824e-09 1.54309e-09)
(-4.83812e-10 5.54314e-10 1.42458e-09)
(-1.25671e-09 1.54025e-09 1.96573e-09)
(-3.69247e-11 1.46146e-10 3.09448e-10)
(1.45209e-09 1.15006e-09 1.1891e-09)
(-3.98896e-12 6.20718e-10 9.04193e-10)
(-1.03161e-10 9.81726e-10 1.42728e-09)
(-2.61271e-10 7.9979e-10 1.13509e-09)
(-4.83812e-10 5.54314e-10 1.42458e-09)
(-3.74452e-10 7.38819e-10 1.28573e-09)
)
;
    }
}


// ************************************************************************* //
