/*--------------------------------*- C++ -*----------------------------------*\
| =========                 |                                                 |
| \\      /  F ield         | OpenFOAM: The Open Source CFD Toolbox           |
|  \\    /   O peration     | Version:  4.x                                   |
|   \\  /    A nd           | Web:      www.OpenFOAM.org                      |
|    \\/     M anipulation  |                                                 |
\*---------------------------------------------------------------------------*/
FoamFile
{
    version     2.0;
    format      ascii;
    class       volVectorField;
    location    "39.5";
    object      GField;
}
// * * * * * * * * * * * * * * * * * * * * * * * * * * * * * * * * * * * * * //

dimensions      [1 -2 -1 0 0 0 0];

internalField   nonuniform List<vector> 
108
(
(71.5782 -0.883874 -0.890592)
(128.225 -0.655462 -1.7493)
(73.2785 -1.06688 -0.988202)
(135.916 -1.60832 0.141861)
(70.5772 -4.91228 -1.72785)
(144.643 -3.68863 4.6351)
(57.3185 -14.156 -6.01219)
(156.415 -0.23262 11.5245)
(27.8758 -38.5784 -18.265)
(56.1012 -1.14883 -0.872727)
(113.915 -0.533559 -1.15844)
(51.4025 -0.955251 -1.23276)
(114.619 -0.36679 1.76578)
(41.0024 -0.543356 -1.23208)
(107.1 0.208967 7.3072)
(20.0159 0.642344 -0.771026)
(79.9861 -1.40522 12.9404)
(1.31671 0.288867 -0.0175777)
(71.2771 2.00929 -0.313539)
(126.66 2.34751 -0.529713)
(72.2442 2.77488 0.883356)
(134.623 2.25635 1.71684)
(69.2495 7.42031 2.78919)
(145.712 2.36785 6.01156)
(57.5626 18.5475 3.42391)
(166.092 -6.35829 9.58735)
(30.7246 51.9081 -3.96231)
(91.3933 -1.73505 -0.675111)
(139.832 -1.36034 -0.83821)
(93.2515 -3.82711 0.158285)
(145.345 -3.14683 0.725954)
(90.3094 -5.17832 1.15937)
(155.657 -3.85208 3.66231)
(80.385 -6.25819 3.00326)
(176.735 -4.40678 9.10105)
(47.1768 0.750167 -42.3921)
(19.3393 0.254038 -1.34824)
(101.532 0.745175 -0.963883)
(15.5548 0.339668 -1.72843)
(104.684 0.164627 2.04806)
(12.3537 0.191734 -2.73305)
(108.422 -0.67915 7.6265)
(11.3555 -0.0598785 -5.93518)
(111.279 -3.3353 20.2072)
(15.357 -1.79048 -28.8741)
(10.6362 -0.187289 -1.15648)
(94.5569 0.943136 0.661565)
(4.65298 0.0744646 -0.832271)
(93.8107 0.686712 2.24462)
(1.44989 0.132218 -0.41454)
(89.8236 -0.806824 4.91828)
(2.24881 0.704084 -0.750588)
(76.1852 -8.71212 8.83819)
(13.0533 11.6855 -3.13483)
(29.206 1.22143 -2.4816)
(105.341 2.14244 -1.98108)
(28.9589 2.29319 -3.57409)
(112.781 0.0534389 1.26874)
(30.5809 5.82644 -6.32509)
(125.507 -3.71646 6.53072)
(33.141 16.2626 -13.4431)
(145.355 -14.3429 16.5223)
(23.25 58.8056 -42.2725)
(63.4174 -1.57972 -3.30731)
(119.971 -1.19655 -2.43956)
(62.8289 -3.62966 -4.30727)
(124.87 -3.257 -1.44928)
(58.0769 -5.31611 -6.40849)
(135.063 -4.71476 1.56374)
(48.4528 -5.17694 -8.57231)
(161.482 -3.23571 10.8186)
(28.6331 9.9909 -55.7416)
(7.29319 -0.628642 -1.65329)
(92.0614 -0.149148 -0.243668)
(4.75058 -0.623312 -1.52114)
(92.1012 -0.83765 1.42124)
(5.07927 -1.30555 -2.5498)
(90.6636 -1.44634 4.23573)
(7.87174 -3.04115 -5.63157)
(82.4236 2.52865 12.9587)
(21.859 -10.1665 -22.2826)
(3.64819e-05 -8.24914e-06 5.45205e-06)
(86.7888 -0.544741 1.31386)
(3.69642e-05 -7.68075e-06 5.68806e-06)
(86.0473 0.345431 2.50736)
(3.43288e-05 -7.41344e-06 -7.31443e-06)
(84.0793 1.87203 6.50299)
(3.30693e-05 -2.01584e-07 -2.36335e-05)
(72.9485 0.633855 9.5523)
(10.1877 1.39929 -1.43191)
(7.47575 0.62402 -0.564182)
(93.4411 -0.263699 -0.436034)
(3.38446 0.464051 -0.427795)
(96.0303 -0.717323 1.17763)
(6.95017 1.99137 -1.58535)
(98.222 -0.917485 3.8407)
(18.1424 10.261 -7.0369)
(95.5254 -6.9086 9.90874)
(31.4578 43.437 -21.8982)
(47.7625 0.0423857 -2.89248)
(108.275 -0.0743123 -1.59846)
(45.6782 -0.659397 -3.66825)
(111.095 -2.95937 -0.388402)
(40.581 -0.0689299 -5.73463)
(116.985 -4.5082 1.73852)
(34.4494 3.05676 -9.31568)
(137.346 -5.6791 7.64128)
(22.1014 18.6545 -18.5229)
)
;

boundaryField
{
    inlet
    {
        type            calculated;
        value           nonuniform 0();
    }
    outlet
    {
        type            calculated;
        value           nonuniform List<vector> 
12
(
(58.0959 -80.4012 -38.0661)
(2.75826 0.605124 -0.0368221)
(64.1021 108.298 -8.26675)
(96.3787 1.53253 -86.6039)
(33.0015 -3.84768 -62.0493)
(28.0088 25.0739 -6.72647)
(49.8572 126.102 -90.649)
(60.9982 21.284 -118.748)
(47.6606 -22.1667 -48.5842)
(22.196 3.04862 -3.11969)
(68.3382 94.3616 -47.5712)
(48.1972 40.6805 -40.3934)
)
;
    }
    wall
    {
        type            calculated;
        value           uniform (0 0 0);
    }
    procBoundary3to1
    {
        type            processor;
        value           nonuniform List<vector> 
27
(
(66.4146 0.556789 -2.67566)
(121.692 0.860105 -2.90724)
(64.9242 1.57232 -3.66608)
(125.962 1.94029 -0.735984)
(61.3891 0.676821 -6.9978)
(135.24 2.40235 3.39922)
(54.8104 -3.2987 -14.7972)
(157.379 4.54817 15.2027)
(33.4715 -13.7259 -37.1541)
(9.31218 0.45955 -0.382179)
(95.2547 0.872851 0.753772)
(1.74911 0.162447 -0.122429)
(95.0743 1.47177 2.2144)
(4.30254e-05 -1.00057e-05 -8.19434e-06)
(90.9459 1.12193 5.42674)
(4.92553 0.245271 -1.75566)
(81.7996 0.873542 13.048)
(26.8941 -1.61865 -30.1149)
(10.2432 -0.510957 -2.12102)
(92.8197 -0.0589717 0.31518)
(8.40181 -0.702706 -2.65973)
(93.3007 1.3868 0.1226)
(8.82204 -1.68005 -4.01262)
(92.6147 2.52345 2.12736)
(13.6492 -5.9339 -8.18299)
(86.9053 8.76802 8.97494)
(27.3125 -23.4743 -15.1384)
)
;
    }
    procBoundary3to2
    {
        type            processor;
        value           nonuniform List<vector> 
12
(
(122.282 -0.61519 -2.68343)
(112.749 -0.416292 -2.51422)
(121.293 2.34356 -1.83249)
(133.639 0.0152608 -1.72186)
(98.074 0.456265 -2.08169)
(94.3605 0.442101 -1.85202)
(101.675 2.84277 -3.49271)
(116.132 0.381479 -3.62501)
(91.8732 -1.15113 -1.48777)
(88.184 -1.0516 -0.467523)
(91.944 1.27217 -0.81026)
(105.32 1.05458 -2.13334)
)
;
    }
    procBoundary3to7
    {
        type            processor;
        value           nonuniform List<vector> 
36
(
(4.22466e-05 2.60153e-06 3.86192e-08)
(86.631 0.948922 -0.0756188)
(4.16896e-05 3.86205e-06 -6.39348e-08)
(86.2791 1.54859 0.113355)
(3.93218e-05 2.8654e-06 -1.18082e-05)
(84.1466 2.55435 2.2905)
(3.30933e-05 6.84096e-06 -2.38157e-05)
(72.3411 -3.66384 10.3456)
(10.994 3.8048 -4.06046)
(4.10995e-05 2.36188e-07 3.0104e-06)
(85.5564 0.509604 -0.30166)
(4.04129e-05 -3.54324e-07 3.24229e-06)
(83.8449 0.247237 0.807721)
(3.03013 1.02007 -0.344963)
(81.1967 -0.592619 2.83556)
(15.0346 8.11456 -1.06553)
(73.7012 -7.3042 5.17893)
(31.178 30.5081 4.0241)
(21.7356 2.07925 -2.05707)
(96.7066 0.971485 -0.462266)
(20.9849 2.90829 -3.18523)
(100.525 -0.669524 -1.72415)
(21.5511 5.34646 -5.70035)
(105.288 -5.68727 -1.67744)
(22.1594 10.6433 -10.5067)
(112.189 -15.2442 5.59066)
(16.5114 22.9381 -14.2985)
(48.2321 -1.15686 -3.66724)
(106.896 -0.854357 -2.88228)
(45.8027 -1.85802 -4.97002)
(109.448 -1.96679 -2.59318)
(41.3066 -2.44068 -7.65832)
(112.13 -2.21664 -0.77586)
(32.1305 -2.35082 -12.7629)
(116.973 -0.29138 7.03663)
(16.7434 -1.44969 -21.8902)
)
;
    }
}


// ************************************************************************* //
