/*--------------------------------*- C++ -*----------------------------------*\
| =========                 |                                                 |
| \\      /  F ield         | OpenFOAM: The Open Source CFD Toolbox           |
|  \\    /   O peration     | Version:  4.x                                   |
|   \\  /    A nd           | Web:      www.OpenFOAM.org                      |
|    \\/     M anipulation  |                                                 |
\*---------------------------------------------------------------------------*/
FoamFile
{
    version     2.0;
    format      ascii;
    class       volScalarField;
    location    "39.5";
    object      Qsource;
}
// * * * * * * * * * * * * * * * * * * * * * * * * * * * * * * * * * * * * * //

dimensions      [1 -1 -3 0 0 0 0];

internalField   nonuniform List<scalar> 
108
(
9.12953e+09
4.89346e+09
7.38499e+09
4.32454e+09
5.64215e+09
4.93822e+09
6.17005e+09
6.49475e+09
3.39658e+09
6.75021e+09
9.78609e+09
5.46257e+09
6.46403e+09
6.41367e+09
5.83113e+09
6.13156e+09
6.23459e+09
3.63351e+09
7.28304e+09
7.83162e+09
7.74781e+09
6.02062e+09
6.52069e+09
6.56281e+09
7.33737e+09
8.41326e+09
4.73093e+09
5.92644e+09
6.53641e+09
6.28265e+09
8.98071e+09
7.09713e+09
7.95631e+09
5.06158e+09
8.26976e+09
5.63166e+09
8.52434e+09
8.08183e+09
1.02318e+10
1.06258e+10
8.46318e+09
7.95795e+09
6.80685e+09
8.52108e+09
7.59939e+09
7.65003e+09
8.03618e+09
8.10498e+09
8.99108e+09
7.5117e+09
7.87438e+09
9.26896e+09
8.65158e+09
5.76334e+09
1.27327e+10
9.9193e+09
9.05546e+09
1.14168e+10
8.53939e+09
1.0231e+10
8.28174e+09
9.90812e+09
7.91829e+09
9.02123e+09
8.14859e+09
7.8951e+09
9.05933e+09
9.73708e+09
8.72455e+09
7.78382e+09
9.94339e+09
6.1407e+09
8.17989e+09
1.09826e+10
9.15921e+09
1.0323e+10
6.56113e+09
7.79501e+09
9.07688e+09
8.40855e+09
6.92208e+09
9.53941e+09
6.15615e+09
8.136e+09
5.00929e+09
4.37199e+09
9.43297e+09
7.61527e+09
1.06262e+10
5.11297e+09
6.04924e+09
1.0344e+10
9.22866e+09
7.30002e+09
7.44999e+09
1.0031e+10
8.16005e+09
9.37399e+09
5.11586e+09
9.28097e+09
5.80814e+09
6.28674e+09
7.95284e+09
6.91384e+09
9.65035e+09
6.83303e+09
1.07678e+10
8.0077e+09
)
;

boundaryField
{
    inlet
    {
        type            calculated;
        value           nonuniform 0();
    }
    outlet
    {
        type            calculated;
        value           uniform 0;
    }
    wall
    {
        type            calculated;
        value           uniform 0;
    }
    procBoundary3to1
    {
        type            processor;
        value           nonuniform List<scalar> 
27
(
4.56139e+09
8.09643e+09
6.83144e+09
9.98375e+09
6.87366e+09
6.90866e+09
6.29634e+09
7.53031e+09
4.78353e+09
7.93825e+09
8.49289e+09
7.18959e+09
6.81281e+09
5.78552e+09
9.29225e+09
9.39518e+09
1.31383e+10
4.40237e+09
9.52137e+09
7.8939e+09
5.51424e+09
1.11521e+10
8.88769e+09
1.06859e+10
7.47206e+09
9.65832e+09
3.36329e+09
)
;
    }
    procBoundary3to2
    {
        type            processor;
        value           nonuniform List<scalar> 
12
(
5.60182e+09
5.41454e+09
7.50791e+09
6.13112e+09
1.12279e+10
6.41677e+09
7.70192e+09
5.78362e+09
9.26287e+09
5.74877e+09
1.02511e+10
8.64608e+09
)
;
    }
    procBoundary3to7
    {
        type            processor;
        value           nonuniform List<scalar> 
36
(
9.98866e+09
9.1069e+09
6.40733e+09
7.94874e+09
1.10788e+10
1.24927e+10
7.99253e+09
6.53219e+09
6.16209e+09
7.44549e+09
1.13827e+10
7.40328e+09
8.13611e+09
8.37845e+09
6.9456e+09
7.9301e+09
7.69841e+09
6.87866e+09
5.26472e+09
9.42496e+09
6.91181e+09
8.98509e+09
8.34842e+09
1.0541e+10
8.68024e+09
9.17881e+09
6.92294e+09
7.53916e+09
8.42439e+09
9.41276e+09
6.8998e+09
8.34676e+09
8.97145e+09
8.41679e+09
8.00238e+09
3.92317e+09
)
;
    }
}


// ************************************************************************* //
