/*--------------------------------*- C++ -*----------------------------------*\
| =========                 |                                                 |
| \\      /  F ield         | OpenFOAM: The Open Source CFD Toolbox           |
|  \\    /   O peration     | Version:  4.x                                   |
|   \\  /    A nd           | Web:      www.OpenFOAM.org                      |
|    \\/     M anipulation  |                                                 |
\*---------------------------------------------------------------------------*/
FoamFile
{
    version     2.0;
    format      ascii;
    class       volScalarField;
    location    "39.5";
    object      QWallFluid;
}
// * * * * * * * * * * * * * * * * * * * * * * * * * * * * * * * * * * * * * //

dimensions      [1 -1 -3 0 0 0 0];

internalField   nonuniform List<scalar> 
108
(
6.52674e+08
1.04048e+09
6.65071e+08
1.09009e+09
6.46686e+08
1.14643e+09
5.61736e+08
1.22231e+09
4.97438e+08
5.37169e+08
9.46464e+08
5.00917e+08
9.51191e+08
4.18074e+08
9.0252e+08
2.35697e+08
7.20727e+08
2.72023e+07
6.50609e+08
1.03037e+09
6.57874e+08
1.08191e+09
6.38871e+08
1.15334e+09
5.71014e+08
1.28212e+09
5.70077e+08
1.58728e+09
2.23027e+09
1.61386e+09
2.30067e+09
1.57411e+09
2.431e+09
1.43641e+09
2.69324e+09
1.1849e+09
0
0
0
0
0
0
0
0
0
0
0
0
0
0
0
0
0
0
0
0
0
0
0
0
0
0
0
5.9315e+08
9.86664e+08
5.89844e+08
1.01889e+09
5.56616e+08
1.08513e+09
4.85669e+08
1.25362e+09
5.92656e+08
0
0
0
0
0
0
0
0
0
0
0
0
0
0
0
0
0
0
0
0
0
0
0
0
0
0
0
4.72851e+08
9.08826e+08
4.56813e+08
9.27898e+08
4.17745e+08
9.67425e+08
3.75054e+08
1.1013e+09
3.62666e+08
)
;

boundaryField
{
    inlet
    {
        type            calculated;
        value           nonuniform 0();
    }
    outlet
    {
        type            calculated;
        value           uniform 0;
    }
    wall
    {
        type            calculated;
        value           uniform 0;
    }
    procBoundary3to1
    {
        type            processor;
        value           nonuniform List<scalar> 
27
(
6.15068e+08
9.98012e+08
6.04503e+08
1.02579e+09
5.8017e+08
1.0861e+09
5.42895e+08
1.23064e+09
5.04273e+08
0
0
0
0
0
0
0
0
0
0
0
0
0
0
0
0
0
0
)
;
    }
    procBoundary3to2
    {
        type            processor;
        value           nonuniform List<scalar> 
12
(
1.00184e+09
9.38851e+08
9.95387e+08
2.15092e+09
0
0
0
9.61506e+08
0
0
0
8.89029e+08
)
;
    }
    procBoundary3to7
    {
        type            processor;
        value           nonuniform List<scalar> 
36
(
0
0
0
0
0
0
0
0
0
0
0
0
0
0
0
0
0
0
0
0
0
0
0
0
0
0
0
4.77077e+08
8.99759e+08
4.59036e+08
9.16937e+08
4.26668e+08
9.34699e+08
3.65263e+08
9.68093e+08
3.04449e+08
)
;
    }
}


// ************************************************************************* //
