/*--------------------------------*- C++ -*----------------------------------*\
| =========                 |                                                 |
| \\      /  F ield         | OpenFOAM: The Open Source CFD Toolbox           |
|  \\    /   O peration     | Version:  4.x                                   |
|   \\  /    A nd           | Web:      www.OpenFOAM.org                      |
|    \\/     M anipulation  |                                                 |
\*---------------------------------------------------------------------------*/
FoamFile
{
    version     2.0;
    format      ascii;
    class       volVectorField;
    location    "39.5";
    object      UsNext;
}
// * * * * * * * * * * * * * * * * * * * * * * * * * * * * * * * * * * * * * //

dimensions      [0 1 -1 0 0 0 0];

internalField   nonuniform List<vector> 
108
(
(1.62786e-09 -4.80015e-09 4.30676e-09)
(1.28692e-09 -6.60333e-09 4.7661e-09)
(3.23168e-10 -6.5568e-09 3.03698e-09)
(-5.51867e-10 -4.08859e-09 2.74627e-09)
(-7.14186e-10 -3.48672e-09 6.46584e-10)
(1.08319e-10 -1.92521e-09 -1.10067e-09)
(1.11516e-09 -4.9676e-09 -5.75114e-09)
(2.46469e-08 1.13854e-08 -1.43944e-08)
(-1.22979e-07 -4.90579e-10 -1.24069e-08)
(-1.74119e-09 -3.47976e-09 3.53834e-09)
(-2.57191e-09 -4.04391e-09 3.33532e-09)
(-2.35078e-09 -4.01303e-09 2.74023e-09)
(-3.93127e-09 -2.99202e-09 3.26154e-09)
(-6.54185e-09 -2.03375e-09 1.58772e-09)
(-9.19637e-09 3.13468e-10 -5.50135e-10)
(-9.68885e-09 -9.85749e-10 -4.61215e-09)
(-1.07957e-08 8.77739e-09 -1.13703e-08)
(-1.99606e-07 8.15379e-09 -1.88734e-08)
(6.48027e-11 -1.14992e-09 2.28342e-09)
(-8.70751e-11 -2.74443e-09 2.6195e-09)
(-9.84492e-10 -2.64777e-09 2.32849e-09)
(-1.94289e-09 -1.73774e-09 2.49517e-09)
(-4.82221e-09 -9.63105e-10 1.94176e-09)
(-3.92332e-09 9.02604e-10 -1.74086e-09)
(-3.61738e-09 5.96638e-10 -5.15365e-09)
(3.13036e-09 3.41345e-09 -1.43019e-08)
(1.08351e-09 2.94454e-08 -2.28639e-08)
(-2.3457e-10 -1.30004e-09 8.77783e-10)
(-5.56839e-11 -3.05976e-09 1.0217e-09)
(2.66487e-10 -1.11964e-08 1.728e-09)
(-2.3893e-10 -1.07346e-09 1.01369e-09)
(-8.16248e-10 -7.93141e-10 1.35398e-09)
(-2.06766e-10 7.62489e-10 -1.1986e-09)
(1.09138e-08 5.66813e-09 -2.50631e-09)
(1.34889e-08 5.02096e-09 -6.56707e-09)
(-4.38284e-09 6.56545e-07 -3.59449e-08)
(2.00444e-09 -3.59116e-09 4.22678e-09)
(1.58255e-09 -3.37267e-09 4.24595e-09)
(8.94352e-10 -3.66115e-09 3.21574e-09)
(1.92295e-09 -3.83725e-09 1.79138e-09)
(2.08469e-09 -3.33174e-09 -8.47832e-11)
(1.62318e-09 -2.65678e-09 -2.11826e-09)
(2.41299e-09 -1.96632e-09 -7.33264e-09)
(8.65718e-09 2.71623e-10 -1.28127e-08)
(-1.93429e-08 -1.79933e-09 -1.11176e-08)
(-2.78962e-10 -2.28982e-09 3.17631e-09)
(-7.82433e-10 -2.71106e-09 3.24306e-09)
(-1.57301e-09 -3.43472e-09 2.44078e-09)
(-1.31256e-09 -2.69981e-09 2.8027e-09)
(-2.53862e-09 -2.1351e-09 1.59618e-09)
(-3.25992e-09 -7.29482e-10 -7.7633e-10)
(-6.12271e-09 -3.61899e-09 -4.81703e-09)
(-1.36768e-09 -1.7255e-09 -1.19229e-08)
(2.00521e-09 -2.20382e-09 -1.34063e-08)
(-6.23147e-11 -1.46728e-09 2.38086e-09)
(-2.07486e-10 -1.44652e-09 2.23024e-09)
(-4.66751e-10 -1.90561e-09 1.82046e-09)
(-5.27662e-10 -1.29843e-09 2.07542e-09)
(-6.96638e-10 -6.40399e-10 7.44869e-10)
(-3.16377e-10 -6.2084e-12 -6.40746e-10)
(-6.40556e-10 9.98229e-10 -4.7667e-09)
(-5.12137e-10 -1.32591e-10 -1.21053e-08)
(1.48238e-09 -4.88059e-10 -1.55267e-08)
(-1.14705e-11 -7.15202e-10 1.10729e-09)
(-4.59695e-10 -1.78412e-09 1.0191e-09)
(-1.8614e-10 -9.99652e-10 8.43782e-10)
(4.02671e-10 -1.0457e-09 7.47949e-10)
(9.04697e-10 -1.21163e-10 8.47378e-11)
(2.22062e-09 -2.09664e-10 -6.14834e-10)
(3.42492e-09 6.38895e-10 -2.94942e-09)
(3.83843e-09 1.36104e-09 -6.56622e-09)
(4.40277e-10 6.0745e-10 -2.19292e-08)
(3.30334e-09 -1.68142e-09 3.57434e-09)
(2.91875e-09 -1.66653e-09 4.03767e-09)
(2.79219e-09 -1.41667e-09 4.82529e-09)
(3.74758e-09 -2.97685e-09 1.61744e-09)
(4.20112e-09 -3.29844e-09 -1.46135e-10)
(4.57333e-09 -2.35788e-09 -2.48169e-09)
(4.47612e-09 -1.75735e-09 -6.21757e-09)
(5.93812e-09 -1.4919e-09 -8.15274e-09)
(4.45954e-09 -9.17667e-10 -5.77942e-09)
(1.44207e-09 -2.17439e-09 3.0936e-09)
(1.25557e-09 -1.70641e-09 3.11003e-09)
(2.53233e-09 -2.02047e-09 3.4225e-09)
(2.25304e-09 -1.97598e-09 2.3901e-09)
(2.22529e-09 -2.04806e-09 -9.2672e-11)
(2.27748e-09 -1.58391e-09 -1.60717e-09)
(2.1366e-09 -6.48597e-10 -5.33502e-09)
(1.68885e-09 -1.17558e-10 -8.39026e-09)
(2.77582e-10 2.71473e-10 -6.69684e-09)
(1.08616e-09 -1.16973e-09 2.24537e-09)
(1.09588e-09 -1.14244e-09 2.37702e-09)
(1.57803e-09 -1.19778e-09 2.32928e-09)
(1.86121e-09 -1.3518e-09 1.98531e-09)
(1.40397e-09 -1.09287e-09 3.03272e-10)
(1.46539e-09 -4.99728e-10 -9.9257e-10)
(1.10143e-09 3.92147e-10 -3.16348e-09)
(1.39188e-09 1.0674e-09 -7.00527e-09)
(5.96453e-10 -5.48449e-10 -7.42026e-09)
(3.20297e-10 -7.48695e-10 1.24697e-09)
(1.35694e-10 -1.07029e-09 1.273e-09)
(1.0861e-10 -1.34945e-09 1.53894e-09)
(5.56686e-10 -6.44615e-10 8.30261e-10)
(6.36239e-10 -5.22225e-10 2.41343e-10)
(4.04818e-10 6.19028e-11 -1.2354e-10)
(6.92337e-10 5.08867e-11 -1.75412e-09)
(3.52657e-10 5.5097e-11 -4.2174e-09)
(3.52023e-10 -1.98344e-09 -7.26435e-09)
)
;

boundaryField
{
    inlet
    {
        type            calculated;
        value           nonuniform 0();
    }
    outlet
    {
        type            calculated;
        value           nonuniform List<vector> 
12
(
(-1.22979e-07 -4.90579e-10 -1.24069e-08)
(-1.99606e-07 8.15379e-09 -1.88734e-08)
(1.08351e-09 2.94454e-08 -2.28639e-08)
(-4.38284e-09 6.56545e-07 -3.59449e-08)
(-1.93429e-08 -1.79933e-09 -1.11176e-08)
(2.00521e-09 -2.20382e-09 -1.34063e-08)
(1.48238e-09 -4.88059e-10 -1.55267e-08)
(4.40277e-10 6.0745e-10 -2.19292e-08)
(4.45954e-09 -9.17667e-10 -5.77942e-09)
(2.77582e-10 2.71473e-10 -6.69684e-09)
(5.96453e-10 -5.48449e-10 -7.42026e-09)
(3.52023e-10 -1.98344e-09 -7.26435e-09)
)
;
    }
    wall
    {
        type            calculated;
        value           nonuniform List<vector> 
63
(
(1.62786e-09 -4.80015e-09 4.30676e-09)
(-1.74119e-09 -3.47976e-09 3.53834e-09)
(6.48027e-11 -1.14992e-09 2.28342e-09)
(-2.3457e-10 -1.30004e-09 8.77783e-10)
(1.28692e-09 -6.60333e-09 4.7661e-09)
(-2.57191e-09 -4.04391e-09 3.33532e-09)
(-8.70751e-11 -2.74443e-09 2.6195e-09)
(-5.56839e-11 -3.05976e-09 1.0217e-09)
(3.23168e-10 -6.5568e-09 3.03698e-09)
(-2.35078e-09 -4.01303e-09 2.74023e-09)
(-9.84492e-10 -2.64777e-09 2.32849e-09)
(2.66487e-10 -1.11964e-08 1.728e-09)
(-5.51867e-10 -4.08859e-09 2.74627e-09)
(-3.93127e-09 -2.99202e-09 3.26154e-09)
(-1.94289e-09 -1.73774e-09 2.49517e-09)
(-2.3893e-10 -1.07346e-09 1.01369e-09)
(-7.14186e-10 -3.48672e-09 6.46584e-10)
(-6.54185e-09 -2.03375e-09 1.58772e-09)
(-4.82221e-09 -9.63105e-10 1.94176e-09)
(-8.16248e-10 -7.93141e-10 1.35398e-09)
(1.08319e-10 -1.92521e-09 -1.10067e-09)
(-9.19637e-09 3.13468e-10 -5.50135e-10)
(-3.92332e-09 9.02604e-10 -1.74086e-09)
(-2.06766e-10 7.62489e-10 -1.1986e-09)
(1.11516e-09 -4.9676e-09 -5.75114e-09)
(-9.68885e-09 -9.85749e-10 -4.61215e-09)
(-3.61738e-09 5.96638e-10 -5.15365e-09)
(1.09138e-08 5.66813e-09 -2.50631e-09)
(2.46469e-08 1.13854e-08 -1.43944e-08)
(-1.07957e-08 8.77739e-09 -1.13703e-08)
(3.13036e-09 3.41345e-09 -1.43019e-08)
(1.34889e-08 5.02096e-09 -6.56707e-09)
(-1.22979e-07 -4.90579e-10 -1.24069e-08)
(-1.99606e-07 8.15379e-09 -1.88734e-08)
(1.08351e-09 2.94454e-08 -2.28639e-08)
(-4.38284e-09 6.56545e-07 -3.59449e-08)
(-2.3457e-10 -1.30004e-09 8.77783e-10)
(-1.14705e-11 -7.15202e-10 1.10729e-09)
(3.20297e-10 -7.48695e-10 1.24697e-09)
(-5.56839e-11 -3.05976e-09 1.0217e-09)
(-4.59695e-10 -1.78412e-09 1.0191e-09)
(1.35694e-10 -1.07029e-09 1.273e-09)
(2.66487e-10 -1.11964e-08 1.728e-09)
(-1.8614e-10 -9.99652e-10 8.43782e-10)
(1.0861e-10 -1.34945e-09 1.53894e-09)
(-2.3893e-10 -1.07346e-09 1.01369e-09)
(4.02671e-10 -1.0457e-09 7.47949e-10)
(5.56686e-10 -6.44615e-10 8.30261e-10)
(-8.16248e-10 -7.93141e-10 1.35398e-09)
(9.04697e-10 -1.21163e-10 8.47378e-11)
(6.36239e-10 -5.22225e-10 2.41343e-10)
(-2.06766e-10 7.62489e-10 -1.1986e-09)
(2.22062e-09 -2.09664e-10 -6.14834e-10)
(4.04818e-10 6.19028e-11 -1.2354e-10)
(1.09138e-08 5.66813e-09 -2.50631e-09)
(3.42492e-09 6.38895e-10 -2.94942e-09)
(6.92337e-10 5.08867e-11 -1.75412e-09)
(1.34889e-08 5.02096e-09 -6.56707e-09)
(3.83843e-09 1.36104e-09 -6.56622e-09)
(3.52657e-10 5.5097e-11 -4.2174e-09)
(-4.38284e-09 6.56545e-07 -3.59449e-08)
(4.40277e-10 6.0745e-10 -2.19292e-08)
(3.52023e-10 -1.98344e-09 -7.26435e-09)
)
;
    }
    procBoundary3to1
    {
        type            processor;
        value           nonuniform List<vector> 
27
(
(2.44242e-09 -6.89538e-09 6.67431e-09)
(-4.0702e-10 -1.06523e-08 9.7022e-09)
(-3.33948e-09 -3.81443e-09 5.44517e-09)
(-4.58999e-10 -3.20243e-09 2.31689e-09)
(1.17224e-09 -3.5418e-09 -7.56957e-10)
(3.51525e-09 -4.15459e-09 -1.88781e-09)
(6.74497e-09 -4.68826e-09 -7.12356e-09)
(7.08972e-09 -7.20706e-09 -1.79281e-08)
(7.13151e-09 -1.27123e-09 -1.59203e-08)
(7.52101e-10 -1.78928e-09 5.62072e-09)
(1.14386e-09 -2.82665e-09 8.57537e-09)
(1.6783e-09 -3.02269e-09 4.52598e-09)
(1.51718e-09 -3.80655e-09 2.08594e-09)
(3.11199e-09 -4.32107e-09 -9.65153e-10)
(4.79316e-09 -4.28041e-09 -3.2993e-09)
(7.39447e-09 -2.88496e-09 -7.71101e-09)
(9.34306e-09 -2.84062e-09 -1.12123e-08)
(4.04942e-09 -4.82979e-09 -1.48707e-08)
(1.70603e-09 2.80811e-10 4.11903e-09)
(2.76114e-09 4.00558e-10 5.61851e-09)
(3.72288e-09 3.066e-10 5.9478e-09)
(3.96354e-09 -1.25233e-09 2.25243e-09)
(4.13543e-09 -2.11884e-09 -3.42145e-10)
(4.89234e-09 -2.30855e-09 -2.74358e-09)
(6.26807e-09 -6.91545e-10 -6.51948e-09)
(4.61494e-09 -1.36112e-09 -7.24111e-09)
(3.86792e-09 -2.00404e-09 -6.19335e-09)
)
;
    }
    procBoundary3to2
    {
        type            processor;
        value           nonuniform List<vector> 
12
(
(1.63023e-09 -2.94441e-09 3.13932e-09)
(-2.18234e-10 -2.35872e-09 2.65344e-09)
(3.29864e-10 -1.64074e-09 2.14607e-09)
(4.00415e-10 -1.2805e-09 1.39567e-09)
(1.64236e-09 -1.85985e-09 3.14359e-09)
(4.2284e-10 -1.68684e-09 2.51454e-09)
(-1.89904e-11 -1.09533e-09 1.83014e-09)
(3.88328e-11 -5.86143e-10 6.46444e-10)
(2.45872e-09 -6.84738e-10 2.87974e-09)
(9.72496e-10 -1.04513e-09 2.13467e-09)
(7.88541e-10 -1.18868e-09 1.47753e-09)
(4.87469e-10 -5.3676e-10 9.70633e-10)
)
;
    }
    procBoundary3to7
    {
        type            processor;
        value           nonuniform List<vector> 
36
(
(3.63732e-09 -2.25338e-10 2.18399e-09)
(3.87089e-09 -6.00333e-10 2.6332e-09)
(3.80978e-09 -6.57138e-10 3.20056e-09)
(3.52264e-09 -2.00399e-09 9.98619e-10)
(3.90469e-09 -1.51184e-09 -3.34457e-11)
(3.58615e-09 -1.67577e-09 -2.30747e-09)
(2.44976e-09 -8.92537e-10 -3.64956e-09)
(2.10483e-09 3.09064e-10 -4.15851e-09)
(9.12291e-10 -2.13571e-10 -2.93875e-09)
(3.12033e-09 -1.38275e-09 2.22659e-09)
(3.56505e-09 -1.00329e-09 2.31615e-09)
(3.37685e-09 -2.29641e-09 2.46405e-09)
(3.62291e-09 -1.76233e-09 1.82282e-09)
(3.38651e-09 -1.57848e-09 7.24168e-11)
(2.89615e-09 -1.3536e-09 -1.34006e-09)
(2.33042e-09 -6.25803e-10 -2.8376e-09)
(1.51741e-09 2.72305e-10 -5.31162e-09)
(2.54247e-10 1.63709e-10 -3.61507e-09)
(2.54004e-09 -1.69321e-09 8.53096e-10)
(2.81173e-09 -1.26994e-09 1.64502e-09)
(2.78992e-09 -1.2373e-09 2.17988e-09)
(2.77183e-09 -1.13283e-09 1.52618e-09)
(2.77823e-09 -1.23537e-09 2.33968e-10)
(2.00696e-09 -8.17976e-10 -7.54465e-10)
(1.54743e-09 -5.13166e-11 -1.86362e-09)
(1.24608e-09 6.99821e-10 -3.68805e-09)
(1.36286e-09 1.32815e-09 -2.64077e-09)
(5.51274e-10 -1.65259e-09 2.74854e-10)
(1.4394e-09 -1.03712e-09 7.62879e-10)
(1.35789e-09 -4.30464e-10 1.03573e-09)
(9.63286e-10 -6.8897e-10 9.43821e-10)
(1.05292e-09 -6.55497e-10 4.61565e-10)
(9.77369e-10 -3.17442e-10 6.46129e-11)
(6.89144e-10 -6.3618e-11 -8.84803e-10)
(7.28995e-10 7.2773e-10 -1.69916e-09)
(8.22763e-10 6.54322e-10 -4.18269e-10)
)
;
    }
}


// ************************************************************************* //
