/*--------------------------------*- C++ -*----------------------------------*\
| =========                 |                                                 |
| \\      /  F ield         | OpenFOAM: The Open Source CFD Toolbox           |
|  \\    /   O peration     | Version:  4.x                                   |
|   \\  /    A nd           | Web:      www.OpenFOAM.org                      |
|    \\/     M anipulation  |                                                 |
\*---------------------------------------------------------------------------*/
FoamFile
{
    version     2.0;
    format      ascii;
    class       volVectorField;
    location    "49";
    object      U;
}
// * * * * * * * * * * * * * * * * * * * * * * * * * * * * * * * * * * * * * //

dimensions      [0 1 -1 0 0 0 0];

internalField   nonuniform List<vector> 
132
(
(0.00141919 0.000164236 -0.00025801)
(0.0289851 0.000383834 -0.000118414)
(0.0011193 0.000248826 -0.000335013)
(0.0289843 0.000537463 -4.48161e-05)
(0.000300641 9.40524e-05 -0.000127631)
(0.0285915 0.000744616 0.000764842)
(9.70808e-05 4.22912e-05 -5.46925e-05)
(0.0244776 -0.00128421 0.0033086)
(0.0033457 0.00139315 -0.00178912)
(5.3937e-05 7.24179e-06 -6.43734e-06)
(0.0286274 0.000156382 -9.18644e-05)
(1.23241e-08 2.29852e-09 -5.77239e-10)
(0.0279595 1.3064e-05 0.000286897)
(0.00072119 0.000233623 -7.42772e-05)
(0.0269402 -0.000685137 0.000961695)
(0.00416924 0.00227585 -0.000251817)
(0.0241228 -0.00299193 0.0015073)
(0.00952832 0.0103365 0.000987358)
(0.0089713 0.000862029 -0.000730774)
(0.0324137 0.000479173 -0.000234997)
(0.00890993 0.0012133 -0.00120108)
(0.0339791 -8.06536e-05 -0.000616124)
(0.00879949 0.00214561 -0.002031)
(0.0361534 -0.0018733 -0.000529627)
(0.00810063 0.00394929 -0.00338733)
(0.0385992 -0.0054712 0.00159726)
(0.0056657 0.00909018 -0.00506005)
(0.0163295 -0.0005024 -0.00125257)
(0.03537 -0.000358124 -0.00112043)
(0.0160317 -0.00071061 -0.00177534)
(0.0366182 -0.000591666 -0.000989945)
(0.014791 -0.000865556 -0.00279656)
(0.0381312 -0.000610316 1.73031e-05)
(0.0115811 -0.00085492 -0.00468586)
(0.0401236 -4.26226e-05 0.00240914)
(0.00593233 -0.000354407 -0.0086725)
(1.16994e-08 -1.45444e-09 1.22564e-09)
(0.0277486 -0.000392594 0.000476836)
(1.06586e-08 -1.98846e-09 7.81406e-10)
(0.0273857 -0.000138719 0.000847475)
(9.75785e-09 -2.05397e-09 5.21244e-10)
(0.0245544 0.00197261 0.000937638)
(0.00574246 -0.00133889 0.0014617)
(1.13096e-08 5.69085e-10 1.31926e-10)
(0.0269588 -0.000175455 -1.98376e-05)
(1.13998e-08 7.38595e-10 3.12026e-11)
(0.0273956 -7.57508e-05 1.46928e-05)
(1.11815e-08 6.87017e-10 -4.32507e-10)
(0.0278182 0.000483649 9.971e-05)
(1.07742e-08 1.92899e-10 -8.40153e-10)
(0.0273758 0.00102779 0.000364724)
(0.00344092 -0.0005927 0.000136959)
(1.18027e-08 1.40749e-09 -1.00669e-09)
(0.0278437 -0.000727927 -9.9675e-05)
(1.12229e-08 1.93498e-09 -9.15894e-10)
(0.0268485 -0.000688465 0.000296817)
(1.09874e-08 2.48404e-09 -1.65546e-09)
(0.0246406 0.000182258 0.000869059)
(9.943e-09 1.13565e-09 -1.54375e-09)
(0.0192599 0.000131788 0.00151923)
(0.00372652 -0.000644346 0.00028558)
(0.00883211 -9.52075e-05 -0.000717885)
(0.0300317 -0.00083343 -0.000356155)
(0.00488747 -9.42155e-05 -0.00065752)
(0.0286176 -0.00097586 -5.90591e-05)
(0.000788858 2.86663e-06 -0.000147157)
(0.0259167 -0.000117293 0.000698963)
(9.64936e-09 3.12743e-10 -2.24999e-09)
(0.020221 0.000306184 0.00165309)
(0.00288482 8.19183e-05 0.000497147)
(0.00203254 -0.000109052 0.000592236)
(0.0306615 0.000213098 -6.5904e-05)
(0.00403473 -0.00022689 0.00219218)
(0.0290743 -0.000149762 -0.00242133)
(0.00875882 -0.000642055 0.0112706)
(0.000426317 4.86295e-07 5.15361e-05)
(0.0285301 0.000153028 2.01865e-05)
(1.16403e-08 4.82e-10 2.00423e-09)
(0.0283343 -0.00016802 0.000180697)
(0.000188495 1.52935e-05 4.45282e-05)
(0.0278547 -0.000711553 0.000168768)
(0.00273139 0.000763094 0.000739243)
(0.0257417 -0.00266995 -0.00102754)
(0.00922938 0.00747727 0.00372847)
(0.00700321 0.000347908 0.000154999)
(0.0311521 0.000206283 7.78675e-05)
(0.00682563 0.000439083 0.000284542)
(0.0332144 -0.000264885 -0.000127261)
(0.00756686 0.00101307 0.000993978)
(0.0368676 -0.00174622 -0.000396558)
(0.00869015 0.0025639 0.002517)
(0.0431608 -0.00459618 -0.00227462)
(0.00709905 0.0085604 0.00826215)
(0.0163614 -9.5243e-05 0.000185039)
(0.0342983 -0.000145891 0.00072878)
(0.0160161 -0.000494565 0.000415073)
(0.0353645 -0.000596123 0.000743788)
(0.0149959 -0.00106052 0.000929112)
(0.0376414 -0.000846668 0.000203254)
(0.0127541 -0.00171314 0.00170712)
(0.0431772 -0.000471343 -0.000890995)
(0.00736136 -0.00160397 0.00720027)
(0.0114079 -0.00338455 0.00166168)
(0.0415459 0.00127346 -0.0018287)
(0.00744069 -0.00694161 0.00603735)
(0.0118947 -0.000328653 0.000168695)
(0.0318253 -0.0002414 -4.00131e-05)
(0.0108419 -0.000556122 9.90773e-05)
(0.0319764 -0.000367494 -0.000371389)
(0.00949594 -0.000898376 0.000382852)
(0.0316322 -0.000451694 -0.00144012)
(0.00728586 -0.00142932 0.000486581)
(0.0309171 0.00011886 -0.00288003)
(0.00410546 -0.00183729 0.00119226)
(0.015585 0.000129781 -0.000178441)
(0.0337631 2.39666e-05 -0.000252688)
(0.01492 5.84659e-05 -0.000707154)
(0.0342894 -0.000240061 -0.000821341)
(0.0132957 -0.000131234 -0.00145899)
(0.0349401 -0.000327295 -0.00113325)
(0.0105105 -0.000162991 -0.00280509)
(0.0361308 -0.000476198 -0.000350432)
(0.00579303 -0.000472934 -0.00308718)
(0.0199313 -0.000341078 -0.000445338)
(0.0357544 -0.000314529 -0.000433852)
(0.019391 -0.000535619 -0.000813115)
(0.0356635 -0.000384215 -0.000657299)
(0.0181918 -0.000985085 -0.0015804)
(0.0350306 -6.76003e-05 -0.000486231)
(0.0166493 -0.00184066 -0.00358291)
(0.0321593 0.00113412 0.000803774)
(0.0158907 -0.00476835 -0.00666832)
)
;

boundaryField
{
    inlet
    {
        type            fixedValue;
        value           nonuniform 0();
    }
    outlet
    {
        type            zeroGradient;
    }
    wall
    {
        type            fixedValue;
        value           uniform (0 0 0);
    }
    procBoundary7to0
    {
        type            processor;
        value           uniform (0.0283949 -5.86067e-05 -0.000266436);
    }
    procBoundary7to1
    {
        type            processor;
        value           uniform (1.03005e-08 3.56027e-10 1.20446e-09);
    }
    procBoundary7to3
    {
        type            processor;
        value           nonuniform List<vector> 
36
(
(0.00380649 -0.000350822 -0.000730285)
(0.0303329 -0.000214995 -0.00013561)
(0.00311636 -0.000458787 -0.000826261)
(0.0307528 -0.000516125 0.000241789)
(0.0032827 -0.000887537 -0.00140835)
(0.0304573 -0.000663161 0.00123098)
(0.00407676 -0.00166267 -0.00265206)
(0.0279205 0.0010627 0.00384032)
(0.00777953 -0.00413866 -0.00893153)
(1.15061e-08 -8.29524e-10 -3.37783e-10)
(0.0272946 -0.000269441 0.00048552)
(1.14683e-08 -5.30678e-10 -5.61033e-10)
(0.0270677 9.26128e-05 0.000744853)
(1.0519e-08 -1.56575e-09 -2.30217e-09)
(0.0266299 0.000849057 0.00192098)
(1.00033e-08 -8.37259e-10 -3.29136e-09)
(0.0229368 0.00110898 0.00266222)
(0.00367783 -9.98577e-05 -0.000507359)
(0.00108445 0.000102718 -6.01459e-05)
(0.0298074 -0.000219222 -6.62221e-05)
(2.05862e-07 3.24199e-08 -2.0393e-08)
(0.0302643 -0.000301922 0.000368469)
(0.00134418 0.000396105 -0.00026202)
(0.0311946 -0.000230376 0.0012187)
(0.00506241 0.00268518 -0.00174871)
(0.0300624 -0.00210943 0.00325596)
(0.0100535 0.0113898 -0.00704222)
(0.0140044 -8.63135e-05 -0.000682614)
(0.0334692 -0.000236337 -0.000273055)
(0.0128519 -0.000372208 -0.00076163)
(0.0340627 -0.00106488 0.000156959)
(0.0109795 -0.00023586 -0.00119812)
(0.0354943 -0.00133369 0.000813071)
(0.00895275 0.000421204 -0.00203374)
(0.0405965 -0.0012472 0.00267812)
(0.00612754 0.00373007 -0.00515009)
)
;
    }
    procBoundary7to5
    {
        type            processor;
        value           nonuniform List<vector> 
44
(
(0.0259146 0.000586552 7.52902e-05)
(1.16569e-08 6.41636e-10 1.46189e-09)
(0.0255268 0.000215384 0.000299381)
(1.12745e-08 -9.9469e-11 -1.24564e-09)
(0.0245855 -0.000359808 0.000752383)
(1.10977e-08 4.09838e-10 -2.38235e-09)
(0.0210907 -0.00149027 0.00120394)
(0.0064934 0.000230819 -0.00062948)
(1.16217e-08 -8.56985e-10 1.07676e-09)
(0.0275588 -0.000275135 -9.21231e-05)
(1.20674e-08 -1.71633e-09 3.98708e-09)
(0.0289107 0.000265793 0.000315396)
(0.000671504 -0.000221755 0.000206681)
(0.029622 0.000133512 0.000649825)
(0.00275476 -0.00124337 0.00115375)
(0.0282328 0.0019901 -0.000711991)
(0.00647834 -0.00328297 0.00296307)
(1.16217e-08 -8.56985e-10 1.07676e-09)
(0.0275588 -0.000275135 -9.21231e-05)
(0.0275588 -0.000275135 -9.21231e-05)
(0.00114593 -4.39666e-05 0.000189133)
(0.030283 0.000152351 -0.000111077)
(1.15097e-08 -6.8101e-10 1.8859e-09)
(0.0273836 0.00067142 -0.000377896)
(0.00230693 -0.000339655 0.000868222)
(0.0249564 0.000640371 -0.00180957)
(0.00875719 -0.00299218 0.00952273)
(0.00193334 -7.42306e-05 0.00016512)
(0.0296172 0.000246225 1.0729e-05)
(0.00114593 -4.39666e-05 0.000189133)
(0.030283 0.000152351 -0.000111077)
(0.030283 0.000152351 -0.000111077)
(0.0126044 -0.00159972 0.000502268)
(0.0370075 -0.000385995 -0.000803617)
(0.0129172 -0.00152303 0.00376818)
(0.0440105 0.00153933 -0.00393612)
(0.00800517 -0.00214083 0.00974006)
(0.0140075 -0.000624675 0.000222361)
(0.033632 -0.000472847 0.000176125)
(0.0135995 -0.000948299 0.000206096)
(0.0349025 -0.000584692 -0.000421849)
(0.0126044 -0.00159972 0.000502268)
(0.0370075 -0.000385995 -0.000803617)
(0.0370075 -0.000385995 -0.000803617)
)
;
    }
    procBoundary7to6
    {
        type            processor;
        value           nonuniform List<vector> 
12
(
(0.0282707 0.000587395 -0.00015527)
(0.0309776 0.000941951 -0.000314123)
(0.0339 -9.90613e-05 -0.000889417)
(0.0264755 -0.000450355 -0.000122762)
(0.0280652 -0.000428036 -0.000405517)
(0.0306159 -0.000137205 -0.000455442)
(0.0282841 0.000113453 1.84304e-05)
(0.030037 0.000775761 0.000468521)
(0.0333119 0.000216631 0.000580637)
(0.031377 -0.000266254 0.000560193)
(0.0330258 0.000208444 0.000134978)
(0.0351502 -6.78503e-05 -0.000162703)
)
;
    }
}


// ************************************************************************* //
