/*--------------------------------*- C++ -*----------------------------------*\
| =========                 |                                                 |
| \\      /  F ield         | OpenFOAM: The Open Source CFD Toolbox           |
|  \\    /   O peration     | Version:  4.x                                   |
|   \\  /    A nd           | Web:      www.OpenFOAM.org                      |
|    \\/     M anipulation  |                                                 |
\*---------------------------------------------------------------------------*/
FoamFile
{
    version     2.0;
    format      ascii;
    class       volVectorField;
    location    "49";
    object      Urel;
}
// * * * * * * * * * * * * * * * * * * * * * * * * * * * * * * * * * * * * * //

dimensions      [0 1 -1 0 0 0 0];

internalField   nonuniform List<vector> 
132
(
(-0.0177306 2.6357e-05 0.000219985)
(-0.0196543 7.08697e-06 0.000170204)
(-0.0176401 1.77728e-05 0.000143146)
(-0.0195593 1.10222e-05 7.37097e-05)
(-0.0174308 4.0116e-05 4.70555e-05)
(-0.0192189 2.39005e-05 -6.34789e-05)
(-0.0168874 6.17025e-05 3.26834e-07)
(-0.0181178 0.000111837 -0.0001518)
(-0.0158953 -4.94404e-05 0.000336434)
(-0.0179297 6.27702e-07 0.000228285)
(-0.0198758 1.6869e-05 0.000190503)
(-0.0178572 3.0641e-05 0.000163153)
(-0.0197683 3.90698e-05 0.000105397)
(-0.0177195 1.02272e-05 0.000105042)
(-0.0194544 1.41641e-05 1.07253e-05)
(-0.0173429 -0.000200139 0.000120211)
(-0.0184422 -0.00012783 3.07025e-05)
(-0.0163056 -0.00108946 0.000330882)
(-0.0192953 -4.95109e-05 0.000329421)
(-0.021018 1.05991e-05 0.00028608)
(-0.0192392 6.24763e-06 0.000313101)
(-0.0210097 7.05687e-05 0.000267633)
(-0.0190809 -4.80996e-05 0.00033953)
(-0.0208128 5.54021e-05 0.000254984)
(-0.0185239 -0.000329724 0.000484593)
(-0.0199005 -0.000152385 0.000315303)
(-0.0167583 -0.00133704 0.00103447)
(-0.0207301 4.99938e-05 0.000435354)
(-0.0221607 0.000111456 0.000408378)
(-0.0206173 0.000163285 0.000439067)
(-0.0220847 0.000195455 0.000385634)
(-0.0202809 0.000160111 0.000488309)
(-0.0217616 0.000108687 0.000360959)
(-0.0194435 -7.32696e-05 0.000694197)
(-0.0207103 -0.000274513 0.000480322)
(-0.017154 -0.000701063 0.00151039)
(-0.0173899 6.58024e-05 4.38313e-05)
(-0.019329 8.65408e-05 -2.28209e-05)
(-0.0172474 8.78798e-05 -6.09968e-05)
(-0.0190522 9.44704e-05 -0.000175341)
(-0.0167862 0.000109213 -0.000234478)
(-0.018117 3.79069e-05 -0.000401312)
(-0.0159338 0.000253373 -0.000657879)
(-0.0176508 3.74209e-05 0.000133914)
(-0.0195331 6.77371e-05 0.000116768)
(-0.0175472 7.51598e-05 9.38768e-05)
(-0.0194346 9.67373e-05 5.5661e-05)
(-0.0173694 7.99359e-05 2.55729e-05)
(-0.0191414 5.06317e-05 -4.2094e-05)
(-0.0168833 -7.29493e-06 -7.82051e-05)
(-0.018237 -9.96577e-05 -0.000188095)
(-0.0158313 -0.000297363 -0.00028433)
(-0.018552 2.22635e-05 0.000196999)
(-0.020354 0.000102772 0.000183604)
(-0.0183826 9.71985e-05 0.000171548)
(-0.0201473 0.00015675 0.000132924)
(-0.0180911 9.32836e-05 0.000125242)
(-0.0196755 8.07363e-05 5.01502e-05)
(-0.0174365 -4.07679e-05 7.25921e-05)
(-0.0184599 -0.000104414 -5.20243e-05)
(-0.0160565 -0.000435401 1.71683e-06)
(-0.0199146 5.21081e-05 0.00028693)
(-0.0213362 0.000152218 0.000256807)
(-0.0194825 0.000163454 0.000266822)
(-0.0209599 0.000235268 0.000210211)
(-0.0188428 0.000171975 0.000205546)
(-0.0202898 0.000141054 0.000126048)
(-0.017952 4.04592e-05 0.000174795)
(-0.0188705 -9.57071e-05 4.45792e-05)
(-0.0162792 -0.000260573 0.000193351)
(-0.0180601 0.000171554 -0.000136847)
(-0.0199121 0.000179641 -0.00020094)
(-0.0177474 0.000256728 -0.000464732)
(-0.0190832 0.000273937 -0.000545477)
(-0.0166589 0.000420685 -0.00175781)
(-0.0183248 5.68584e-05 4.53012e-05)
(-0.0201664 7.89801e-05 5.12738e-05)
(-0.0181912 0.000116481 4.38235e-05)
(-0.020065 0.000154133 2.15179e-05)
(-0.0180307 0.000167726 -1.89329e-05)
(-0.0198031 0.000210392 -6.8309e-05)
(-0.0176596 0.000137071 -0.000218541)
(-0.0189145 0.000200423 -0.000286538)
(-0.0165346 -0.000414474 -0.000957575)
(-0.0194477 1.11348e-05 8.72243e-05)
(-0.0210792 7.27938e-05 9.69915e-05)
(-0.0193167 0.000106601 9.65899e-05)
(-0.0210328 0.000177299 0.000100031)
(-0.019128 0.000146472 4.25142e-05)
(-0.0208724 0.000258722 5.51972e-05)
(-0.0186304 5.90927e-05 -0.000111348)
(-0.0201761 0.000237409 -7.7473e-05)
(-0.0168267 -0.000552721 -0.000791484)
(-0.020797 4.55302e-05 0.000121112)
(-0.0220951 0.000121191 0.000100586)
(-0.0205952 0.000189605 0.000121619)
(-0.0219198 0.000252146 9.73825e-05)
(-0.0201935 0.000286907 8.3985e-05)
(-0.0215636 0.000293336 8.68409e-05)
(-0.0193864 0.000285815 2.07745e-06)
(-0.0206734 0.000185108 -2.4828e-05)
(-0.0172231 0.00012598 -0.00055274)
(-0.0191849 0.000552041 -0.000493315)
(-0.0206355 0.000416515 -0.000566286)
(-0.0171816 0.0010298 -0.00165333)
(-0.0198029 0.000112864 -4.85522e-06)
(-0.021251 0.000143266 2.79533e-05)
(-0.0196492 0.000201174 3.845e-05)
(-0.021142 0.000234649 6.30701e-05)
(-0.0193641 0.000301719 1.10528e-05)
(-0.0208024 0.000314332 6.3763e-05)
(-0.0186612 0.000386873 -0.000130651)
(-0.0197716 0.000313376 -0.000134286)
(-0.0166861 0.000406604 -0.000724831)
(-0.0206972 4.69423e-05 7.91764e-05)
(-0.0220174 0.000104918 0.000115713)
(-0.0205392 0.000157082 0.00016886)
(-0.0218752 0.000220219 0.000202202)
(-0.0201698 0.000253214 0.000238826)
(-0.0214878 0.000288664 0.000239271)
(-0.0193272 0.000282166 0.000260023)
(-0.0204036 0.000277163 7.11527e-05)
(-0.0171393 0.000229677 1.45065e-05)
(-0.0216913 7.60755e-05 0.000138177)
(-0.0228476 0.000141919 0.000165104)
(-0.0215122 0.00021267 0.000221437)
(-0.0226195 0.000263719 0.000242555)
(-0.0210634 0.000329879 0.000312997)
(-0.0220737 0.000311872 0.000286204)
(-0.0201256 0.000402127 0.000428865)
(-0.02072 0.000274043 0.000180387)
(-0.0181545 0.000652144 0.000522913)
)
;

boundaryField
{
    inlet
    {
        type            calculated;
        value           nonuniform 0();
    }
    outlet
    {
        type            calculated;
        value           nonuniform List<vector> 
16
(
(-0.00332332 -0.00138224 0.00175548)
(-0.00951852 -0.0103359 -0.00102563)
(-0.00565093 -0.00906909 0.00504234)
(-0.00593347 0.000316138 0.00868683)
(-0.00581894 0.00136081 -0.00148495)
(-0.00342244 0.000585933 -0.000150876)
(-0.00377594 0.000654506 -0.000267641)
(-0.00299594 -9.73788e-05 -0.000487568)
(-0.00877747 0.000662628 -0.01117)
(-0.00924373 -0.00741269 -0.00396225)
(-0.0070501 -0.00837051 -0.00822461)
(-0.00728888 0.00158656 -0.00710915)
(-0.00739904 0.00678376 -0.00597184)
(-0.00424052 0.00185452 -0.00134745)
(-0.00579306 0.000637702 0.00300491)
(-0.015804 0.00478375 0.00648346)
)
;
    }
    wall
    {
        type            calculated;
        value           nonuniform List<vector> 
66
(
(8.43186e-10 1.65052e-10 1.48288e-10)
(7.4552e-10 3.53794e-10 4.63461e-11)
(5.07521e-10 -1.39152e-10 8.12167e-12)
(1.02966e-09 3.23017e-10 5.48813e-11)
(8.82283e-10 2.29333e-10 5.97028e-11)
(6.57505e-10 -1.22925e-11 1.285e-11)
(1.03836e-09 1.49997e-10 5.47333e-13)
(1.0973e-09 2.95435e-10 -1.15767e-10)
(7.97388e-10 3.40995e-11 1.09334e-11)
(9.74167e-10 2.91019e-10 -1.3288e-11)
(1.19276e-09 3.37752e-10 1.84081e-11)
(1.10147e-09 1.23149e-10 1.27836e-10)
(8.52297e-10 4.17796e-10 1.54081e-11)
(1.2815e-09 4.09297e-10 9.0209e-11)
(1.57499e-09 -7.67329e-09 3.9327e-11)
(7.14599e-10 4.93326e-10 -1.5297e-10)
(9.7613e-10 3.9034e-10 -5.32583e-11)
(1.07403e-09 2.65931e-10 2.76081e-10)
(2.64317e-10 3.29551e-10 -1.25775e-10)
(4.24894e-10 3.13563e-10 6.7178e-12)
(6.51461e-10 3.6753e-10 -1.08623e-10)
(1.07403e-09 1.99232e-10 2.01597e-11)
(5.46192e-11 7.42031e-10 -9.22579e-11)
(-4.89289e-10 1.56796e-10 1.76475e-10)
(8.03427e-10 1.11843e-10 3.53549e-10)
(1.99884e-09 3.96085e-09 2.29405e-10)
(2.7736e-11 1.57669e-09 2.79549e-10)
(-4.40225e-10 2.04649e-10 2.72736e-10)
(9.66507e-10 3.82872e-09 -3.68292e-10)
(-2.03627e-09 2.81896e-05 -9.42747e-10)
(6.56174e-10 -2.08631e-10 1.32968e-10)
(4.96978e-10 -3.08821e-10 1.23873e-10)
(8.27515e-10 -1.3599e-10 2.49708e-11)
(5.07521e-10 -1.39152e-10 8.12167e-12)
(1.03514e-09 -2.58129e-10 2.49096e-10)
(6.71937e-10 -2.34335e-10 3.0954e-10)
(8.36494e-10 -2.10909e-11 1.62683e-10)
(6.57505e-10 -1.22925e-11 1.285e-11)
(8.48361e-10 7.0325e-11 4.11623e-10)
(5.83033e-10 2.14959e-10 5.40666e-10)
(1.09167e-09 3.14902e-11 1.39807e-10)
(7.97388e-10 3.40995e-11 1.09334e-11)
(6.45822e-10 1.34594e-10 4.27401e-10)
(1.12852e-09 1.42541e-10 3.74424e-10)
(1.6895e-09 1.79953e-10 2.90205e-10)
(1.10147e-09 1.23149e-10 1.27836e-10)
(3.95324e-10 2.70956e-11 2.92387e-10)
(1.24041e-09 2.78829e-10 1.98647e-10)
(1.60288e-09 2.56838e-10 2.11264e-10)
(1.57499e-09 -7.67329e-09 3.9327e-11)
(2.36433e-10 1.08823e-10 3.71969e-10)
(1.16647e-09 7.84439e-10 4.02575e-10)
(2.68127e-09 5.07105e-10 4.73226e-10)
(1.07403e-09 2.65931e-10 2.76081e-10)
(7.49026e-11 -1.61878e-11 -3.7745e-10)
(7.51069e-10 3.38459e-10 -9.15223e-11)
(1.86028e-09 3.80849e-10 2.14438e-10)
(1.07403e-09 1.99232e-10 2.01597e-11)
(2.64408e-10 7.81777e-11 -1.10615e-09)
(5.93065e-10 -7.6408e-11 -4.23151e-10)
(1.34173e-09 1.76105e-10 2.02246e-10)
(1.99884e-09 3.96085e-09 2.29405e-10)
(-1.62823e-10 4.19599e-11 -8.1654e-11)
(-3.25288e-10 4.34461e-11 4.89471e-11)
(8.31137e-10 4.10557e-09 3.25033e-10)
(-2.03627e-09 2.81896e-05 -9.42747e-10)
)
;
    }
    procBoundary7to0
    {
        type            processor;
        value           uniform (-0.0197237 3.7691e-05 0.000267863);
    }
    procBoundary7to1
    {
        type            processor;
        value           uniform (-0.017982 5.42596e-05 0.000209534);
    }
    procBoundary7to3
    {
        type            processor;
        value           nonuniform List<vector> 
36
(
(-0.0187874 5.99871e-05 0.000339721)
(-0.0206751 4.65696e-05 0.000249944)
(-0.018718 6.10282e-05 0.00023679)
(-0.0206515 6.73026e-05 0.000132102)
(-0.0185682 0.000104837 0.000190076)
(-0.0203403 0.000101537 3.86115e-05)
(-0.018033 0.000169776 0.00034814)
(-0.0192478 8.20102e-05 0.00022249)
(-0.0168215 0.000387428 0.00146803)
(-0.018721 1.67155e-05 0.000295318)
(-0.0206449 3.77367e-05 0.000211677)
(-0.0186766 3.87245e-05 0.000188093)
(-0.0205924 3.58348e-05 9.34869e-05)
(-0.0185366 1.5718e-05 0.000117755)
(-0.0202761 -5.27028e-05 -6.93678e-06)
(-0.0179783 -0.000144225 0.000242135)
(-0.0190929 -0.000287368 0.000243504)
(-0.0166879 -0.000673637 0.000998173)
(-0.019779 -1.74769e-05 0.000358717)
(-0.0216799 3.56776e-05 0.000302736)
(-0.0197539 5.15494e-05 0.000273336)
(-0.0217406 7.78733e-05 0.000202425)
(-0.0197387 -1.31935e-05 0.000255447)
(-0.0216337 -5.34117e-05 0.000169846)
(-0.0194082 -0.000420752 0.000520643)
(-0.0207032 -0.000483519 0.000500205)
(-0.0178144 -0.00184959 0.00174674)
(-0.0214785 2.97964e-05 0.000454423)
(-0.0229684 0.000100872 0.000393303)
(-0.0214618 0.000162534 0.000392609)
(-0.0230087 0.000220019 0.000313337)
(-0.0212539 0.000146315 0.000408192)
(-0.0228623 0.000103617 0.000314383)
(-0.0206293 -0.000205268 0.00068829)
(-0.0221287 -0.000445725 0.000725907)
(-0.018321 -0.00128878 0.00204863)
)
;
    }
    procBoundary7to5
    {
        type            processor;
        value           nonuniform List<vector> 
44
(
(-0.0198184 -6.52083e-06 0.000155356)
(-0.0178632 1.26007e-05 0.000118772)
(-0.0196958 -9.53444e-06 4.64714e-05)
(-0.0176641 4.33621e-05 2.59825e-05)
(-0.0193253 7.81256e-05 -7.95758e-05)
(-0.0171193 0.000182636 -1.65572e-05)
(-0.0182619 0.000297253 -9.23657e-05)
(-0.0162667 0.000515126 0.000258306)
(-0.017486 5.81071e-05 0.000100706)
(-0.0193963 6.58135e-05 8.05786e-05)
(-0.0177588 4.96816e-05 7.6645e-06)
(-0.0197319 3.00719e-05 -6.09954e-05)
(-0.0176476 8.34487e-05 -0.000118637)
(-0.0195172 9.45985e-05 -0.000230587)
(-0.0173005 0.000252447 -0.000357605)
(-0.018638 0.000213709 -0.000438857)
(-0.016334 0.000805491 -0.000926251)
(-0.017486 5.81071e-05 0.000100706)
(-0.0193963 6.58135e-05 8.05786e-05)
(-0.0193963 6.58135e-05 8.05786e-05)
(-0.0181242 0.000120716 -2.45334e-05)
(-0.0200797 0.000128278 -4.59091e-05)
(-0.0184341 0.000138747 -0.000194279)
(-0.0202561 0.000128117 -0.000268337)
(-0.0181389 0.000299549 -0.000547179)
(-0.0194075 0.000343399 -0.0006981)
(-0.0169903 0.000889463 -0.00197233)
(-0.0182447 9.78305e-05 -2.11016e-06)
(-0.0201024 8.92574e-05 -2.687e-07)
(-0.0181242 0.000120716 -2.45334e-05)
(-0.0200797 0.000128278 -4.59091e-05)
(-0.0200797 0.000128278 -4.59091e-05)
(-0.0196559 0.000349605 -0.000156432)
(-0.0212875 0.000335416 -0.000162414)
(-0.0199399 0.000479718 -0.00077535)
(-0.0214485 0.000420876 -0.000733419)
(-0.0177377 0.00103238 -0.00221661)
(-0.0198408 0.00017823 -6.96022e-05)
(-0.0213192 0.000187641 -5.83332e-05)
(-0.0197885 0.000242806 -6.26399e-05)
(-0.0213644 0.000253363 -4.88578e-05)
(-0.0196559 0.000349605 -0.000156432)
(-0.0212875 0.000335416 -0.000162414)
(-0.0212875 0.000335416 -0.000162414)
)
;
    }
    procBoundary7to6
    {
        type            processor;
        value           nonuniform List<vector> 
12
(
(-0.0199248 -4.00358e-05 0.000273275)
(-0.0209731 -0.000103113 0.000344911)
(-0.0220998 -3.83391e-05 0.000435494)
(-0.0196174 3.0722e-05 0.00015962)
(-0.0204773 -1.5563e-05 0.000224381)
(-0.0215299 -2.15176e-05 0.000282283)
(-0.0202584 2.31714e-05 3.84146e-05)
(-0.0211239 -6.24253e-05 6.33997e-05)
(-0.0221462 -4.37091e-05 9.28239e-05)
(-0.0212937 7.2666e-05 -4.94291e-05)
(-0.0220416 -1.68374e-05 2.99583e-05)
(-0.0228744 -1.05168e-05 9.01754e-05)
)
;
    }
}


// ************************************************************************* //
