/*--------------------------------*- C++ -*----------------------------------*\
| =========                 |                                                 |
| \\      /  F ield         | OpenFOAM: The Open Source CFD Toolbox           |
|  \\    /   O peration     | Version:  4.x                                   |
|   \\  /    A nd           | Web:      www.OpenFOAM.org                      |
|    \\/     M anipulation  |                                                 |
\*---------------------------------------------------------------------------*/
FoamFile
{
    version     2.0;
    format      ascii;
    class       volVectorField;
    location    "49";
    object      UsNext;
}
// * * * * * * * * * * * * * * * * * * * * * * * * * * * * * * * * * * * * * //

dimensions      [0 1 -1 0 0 0 0];

internalField   nonuniform List<vector> 
132
(
(1.91113e-09 4.06498e-10 1.47828e-09)
(2.13349e-09 4.23956e-10 1.45238e-09)
(2.3484e-09 7.11147e-10 1.82737e-09)
(2.33507e-09 2.58031e-10 5.31747e-10)
(2.13335e-09 1.27193e-10 -2.61275e-13)
(1.8592e-09 1.15359e-10 -8.35874e-10)
(1.22795e-09 1.90429e-10 -1.0622e-09)
(1.02753e-09 2.81876e-10 -1.18829e-09)
(5.0206e-10 4.22392e-11 -3.11162e-10)
(1.82061e-09 -2.31834e-11 7.02594e-10)
(2.17486e-09 1.96277e-10 8.14612e-10)
(2.21865e-09 2.01466e-10 7.77503e-10)
(2.34341e-09 2.05691e-10 4.36571e-10)
(1.88652e-09 2.57935e-11 2.94173e-11)
(1.4713e-09 8.4243e-11 -3.99424e-10)
(1.25598e-09 7.60756e-11 -6.29684e-10)
(8.52796e-10 2.07282e-10 -9.6326e-10)
(3.74451e-10 2.21402e-10 -3.69038e-10)
(1.42287e-09 5.58475e-11 2.76379e-10)
(1.7427e-09 -6.79332e-11 3.79689e-10)
(1.58374e-09 2.43339e-10 7.65659e-10)
(1.31243e-09 3.37788e-10 5.98742e-10)
(1.08742e-09 6.68927e-11 1.16417e-10)
(7.02718e-10 9.76216e-11 1.54034e-11)
(3.88183e-10 1.00075e-10 -5.89212e-10)
(5.85068e-10 2.3206e-10 -1.23146e-09)
(1.86291e-10 3.97125e-10 -5.88553e-10)
(5.70131e-10 -2.03264e-10 7.24809e-11)
(8.99312e-10 -1.67947e-10 2.03611e-10)
(7.55642e-10 1.80267e-10 4.18113e-10)
(5.28979e-10 2.13638e-10 4.4198e-10)
(3.20378e-10 6.95017e-11 2.92538e-10)
(1.70876e-10 1.23291e-10 3.0957e-10)
(1.42878e-11 -6.24661e-12 -3.43072e-10)
(1.81379e-10 9.60383e-11 -1.01197e-09)
(8.25353e-11 1.28832e-10 -8.90391e-11)
(2.15715e-09 2.01444e-10 9.76095e-10)
(2.07845e-09 3.29348e-10 5.52857e-10)
(1.68753e-09 1.91753e-10 5.09731e-11)
(1.48449e-09 4.93859e-10 -3.52139e-10)
(9.25078e-10 5.59958e-10 -6.39697e-10)
(6.9111e-10 5.80896e-10 -7.73854e-10)
(3.05402e-10 4.06565e-10 -4.68515e-11)
(1.73442e-09 2.18803e-10 5.04515e-10)
(1.9244e-09 3.00619e-10 6.23622e-10)
(2.12791e-09 8.25625e-11 6.11563e-10)
(2.19343e-09 4.20217e-10 2.7686e-10)
(2.02836e-09 3.91573e-10 2.35905e-10)
(1.49969e-09 6.86873e-10 -1.55607e-10)
(1.26337e-09 4.2973e-10 -4.28787e-10)
(1.029e-09 4.37641e-10 -3.90474e-10)
(3.47336e-11 2.76167e-10 7.13676e-11)
(1.46812e-09 1.29514e-10 2.69074e-10)
(1.40745e-09 2.92846e-11 3.91055e-10)
(1.53838e-09 3.89284e-10 7.13029e-10)
(1.76463e-09 4.6165e-10 4.83083e-10)
(1.92942e-09 8.28792e-10 2.69502e-10)
(1.8906e-09 1.45737e-09 7.46485e-11)
(1.58296e-09 2.94215e-10 -1.87829e-10)
(9.44794e-10 1.78402e-10 -4.30605e-10)
(4.16602e-10 2.34984e-10 6.62794e-11)
(4.21691e-10 -2.47216e-10 7.69549e-11)
(5.68435e-10 -1.59897e-10 2.47264e-10)
(5.3639e-10 3.08418e-10 5.21852e-10)
(9.85182e-10 2.64465e-10 4.19045e-10)
(1.11643e-09 3.3063e-10 2.36658e-10)
(1.03212e-09 7.62889e-10 3.76912e-10)
(6.51338e-10 3.206e-10 -7.66807e-11)
(5.16818e-10 -5.05933e-11 -4.12867e-10)
(9.38031e-11 1.77747e-10 -9.72697e-12)
(1.27211e-09 3.80708e-10 8.84049e-11)
(9.254e-10 4.43796e-10 -1.66131e-10)
(4.02384e-10 5.12754e-10 -3.71198e-10)
(3.05808e-10 6.0755e-10 -1.41811e-10)
(2.11391e-10 5.16982e-10 1.22893e-10)
(1.52064e-09 2.89153e-10 3.71289e-10)
(1.75008e-09 4.72744e-10 3.2335e-10)
(1.64463e-09 2.69155e-10 2.69876e-10)
(1.41937e-09 5.01005e-10 1.03578e-10)
(1.38307e-09 5.10973e-10 5.47332e-11)
(1.18221e-09 6.93542e-10 -2.34213e-10)
(1.0057e-09 4.99857e-10 -2.67537e-10)
(6.5802e-10 2.44769e-10 1.24199e-10)
(1.4669e-10 3.18576e-10 2.69707e-10)
(1.34568e-09 1.31126e-10 1.21895e-10)
(1.58136e-09 1.99002e-10 3.02081e-10)
(1.75617e-09 4.19906e-10 1.67102e-10)
(1.63672e-09 7.9865e-10 1.65347e-10)
(1.84891e-09 8.25841e-10 2.7467e-10)
(2.15656e-09 9.99803e-10 -4.27555e-11)
(1.85284e-09 4.71661e-10 -8.94832e-11)
(1.74789e-09 1.31972e-10 3.10588e-10)
(1.00798e-09 1.43257e-10 -1.51024e-10)
(7.18051e-10 -8.97613e-11 4.96442e-12)
(7.34059e-10 1.59173e-11 1.07049e-10)
(9.53623e-10 8.56149e-11 1.17926e-10)
(1.5313e-09 3.48109e-10 2.53435e-10)
(1.41094e-09 4.52735e-10 1.8514e-10)
(2.10561e-09 6.44253e-10 3.76858e-10)
(1.6273e-09 3.37723e-10 1.98402e-10)
(1.1384e-09 1.39108e-10 1.17192e-10)
(6.84698e-10 3.25018e-10 -1.33341e-11)
(3.06245e-10 3.5021e-10 -6.6855e-11)
(1.97835e-10 6.81137e-10 1.04572e-11)
(9.02657e-12 1.52972e-09 4.90994e-10)
(6.39538e-10 1.58577e-10 1.32608e-10)
(7.54476e-10 3.21617e-10 3.59928e-11)
(7.58047e-10 1.73515e-10 7.73611e-12)
(6.99077e-10 2.91928e-10 1.03832e-11)
(6.13356e-10 3.82427e-10 6.60977e-11)
(5.60647e-10 4.51667e-10 -1.05024e-10)
(3.78685e-10 3.04485e-10 4.655e-11)
(-2.57616e-10 1.03506e-10 2.20877e-10)
(-3.99005e-10 1.18833e-10 4.06637e-10)
(6.48427e-10 3.79246e-10 4.17454e-11)
(7.31842e-10 2.37795e-10 3.36253e-11)
(8.40487e-10 3.2782e-10 -9.92545e-11)
(8.93261e-10 4.53268e-10 3.85707e-11)
(1.03205e-09 4.84191e-10 1.42707e-10)
(8.19201e-10 4.29409e-10 -5.54473e-11)
(6.08224e-10 3.028e-10 -1.40834e-10)
(8.54003e-10 5.31894e-11 2.4558e-10)
(8.53483e-10 3.24088e-10 -4.40562e-10)
(4.4726e-10 -8.87364e-11 3.89376e-12)
(5.81768e-10 2.19077e-11 -2.42085e-12)
(6.91088e-10 7.34527e-11 5.94275e-12)
(9.59684e-10 2.50881e-10 7.45835e-11)
(1.31362e-09 -6.59261e-09 -2.79867e-11)
(9.15453e-10 3.47934e-10 1.93554e-10)
(9.68455e-10 1.74903e-10 1.38239e-11)
(1.9515e-09 2.92756e-10 1.59778e-10)
(-9.8204e-10 4.44397e-09 3.55647e-10)
)
;

boundaryField
{
    inlet
    {
        type            calculated;
        value           nonuniform 0();
    }
    outlet
    {
        type            calculated;
        value           nonuniform List<vector> 
16
(
(5.0206e-10 4.22392e-11 -3.11162e-10)
(3.74451e-10 2.21402e-10 -3.69038e-10)
(1.86291e-10 3.97125e-10 -5.88553e-10)
(8.25353e-11 1.28832e-10 -8.90391e-11)
(3.05402e-10 4.06565e-10 -4.68515e-11)
(3.47336e-11 2.76167e-10 7.13676e-11)
(4.16602e-10 2.34984e-10 6.62794e-11)
(9.38031e-11 1.77747e-10 -9.72697e-12)
(2.11391e-10 5.16982e-10 1.22893e-10)
(1.4669e-10 3.18576e-10 2.69707e-10)
(1.00798e-09 1.43257e-10 -1.51024e-10)
(6.84698e-10 3.25018e-10 -1.33341e-11)
(9.02657e-12 1.52972e-09 4.90994e-10)
(-3.99005e-10 1.18833e-10 4.06637e-10)
(8.53483e-10 3.24088e-10 -4.40562e-10)
(-9.8204e-10 4.44397e-09 3.55647e-10)
)
;
    }
    wall
    {
        type            calculated;
        value           nonuniform List<vector> 
66
(
(6.39538e-10 1.58577e-10 1.32608e-10)
(6.48427e-10 3.79246e-10 4.17454e-11)
(4.4726e-10 -8.87364e-11 3.89376e-12)
(7.54476e-10 3.21617e-10 3.59928e-11)
(7.31842e-10 2.37795e-10 3.36253e-11)
(5.81768e-10 2.19077e-11 -2.42085e-12)
(7.58047e-10 1.73515e-10 7.73611e-12)
(8.40487e-10 3.2782e-10 -9.92545e-11)
(6.91088e-10 7.34527e-11 5.94275e-12)
(6.99077e-10 2.91928e-10 1.03832e-11)
(8.93261e-10 4.53268e-10 3.85707e-11)
(9.59684e-10 2.50881e-10 7.45835e-11)
(6.13356e-10 3.82427e-10 6.60977e-11)
(1.03205e-09 4.84191e-10 1.42707e-10)
(1.31362e-09 -6.59261e-09 -2.79867e-11)
(5.60647e-10 4.51667e-10 -1.05024e-10)
(8.19201e-10 4.29409e-10 -5.54473e-11)
(9.15453e-10 3.47934e-10 1.93554e-10)
(3.06245e-10 3.5021e-10 -6.6855e-11)
(3.78685e-10 3.04485e-10 4.655e-11)
(6.08224e-10 3.028e-10 -1.40834e-10)
(9.68455e-10 1.74903e-10 1.38239e-11)
(1.97835e-10 6.81137e-10 1.04572e-11)
(-2.57616e-10 1.03506e-10 2.20877e-10)
(8.54003e-10 5.31894e-11 2.4558e-10)
(1.9515e-09 2.92756e-10 1.59778e-10)
(9.02657e-12 1.52972e-09 4.90994e-10)
(-3.99005e-10 1.18833e-10 4.06637e-10)
(8.53483e-10 3.24088e-10 -4.40562e-10)
(-9.8204e-10 4.44397e-09 3.55647e-10)
(5.70131e-10 -2.03264e-10 7.24809e-11)
(4.21691e-10 -2.47216e-10 7.69549e-11)
(7.18051e-10 -8.97613e-11 4.96442e-12)
(4.4726e-10 -8.87364e-11 3.89376e-12)
(8.99312e-10 -1.67947e-10 2.03611e-10)
(5.68435e-10 -1.59897e-10 2.47264e-10)
(7.34059e-10 1.59173e-11 1.07049e-10)
(5.81768e-10 2.19077e-11 -2.42085e-12)
(7.55642e-10 1.80267e-10 4.18113e-10)
(5.3639e-10 3.08418e-10 5.21852e-10)
(9.53623e-10 8.56149e-11 1.17926e-10)
(6.91088e-10 7.34527e-11 5.94275e-12)
(5.28979e-10 2.13638e-10 4.4198e-10)
(9.85182e-10 2.64465e-10 4.19045e-10)
(1.5313e-09 3.48109e-10 2.53435e-10)
(9.59684e-10 2.50881e-10 7.45835e-11)
(3.20378e-10 6.95017e-11 2.92538e-10)
(1.11643e-09 3.3063e-10 2.36658e-10)
(1.41094e-09 4.52735e-10 1.8514e-10)
(1.31362e-09 -6.59261e-09 -2.79867e-11)
(1.70876e-10 1.23291e-10 3.0957e-10)
(1.03212e-09 7.62889e-10 3.76912e-10)
(2.10561e-09 6.44253e-10 3.76858e-10)
(9.15453e-10 3.47934e-10 1.93554e-10)
(1.42878e-11 -6.24661e-12 -3.43072e-10)
(6.51338e-10 3.206e-10 -7.66807e-11)
(1.6273e-09 3.37723e-10 1.98402e-10)
(9.68455e-10 1.74903e-10 1.38239e-11)
(1.81379e-10 9.60383e-11 -1.01197e-09)
(5.16818e-10 -5.05933e-11 -4.12867e-10)
(1.1384e-09 1.39108e-10 1.17192e-10)
(1.9515e-09 2.92756e-10 1.59778e-10)
(8.25353e-11 1.28832e-10 -8.90391e-11)
(9.38031e-11 1.77747e-10 -9.72697e-12)
(6.84698e-10 3.25018e-10 -1.33341e-11)
(-9.8204e-10 4.44397e-09 3.55647e-10)
)
;
    }
    procBoundary7to0
    {
        type            processor;
        value           uniform (1.3206e-09 3.93189e-10 1.15763e-09);
    }
    procBoundary7to1
    {
        type            processor;
        value           uniform (6.88797e-10 6.71563e-10 2.05994e-09);
    }
    procBoundary7to3
    {
        type            processor;
        value           nonuniform List<vector> 
36
(
(1.78618e-09 -1.13363e-10 1.48018e-09)
(1.84488e-09 5.43458e-12 1.90951e-09)
(1.65846e-09 9.10251e-10 2.47241e-09)
(1.98831e-09 -6.8466e-10 7.75783e-10)
(2.0384e-09 -8.60158e-10 -1.57519e-10)
(2.05372e-09 -3.81149e-10 -1.07454e-09)
(1.79741e-09 -2.67839e-10 -1.52973e-09)
(1.55004e-09 -1.17886e-10 -1.20249e-09)
(1.21694e-09 -2.17602e-10 -5.63054e-10)
(1.50545e-09 -1.95611e-10 8.85985e-10)
(1.85414e-09 -2.98622e-10 7.55022e-10)
(2.0853e-09 2.07032e-10 8.73265e-10)
(1.62138e-09 -5.2575e-10 1.63857e-10)
(1.56299e-09 -5.83227e-10 -3.38204e-10)
(1.39274e-09 -4.08162e-10 -7.09974e-10)
(1.0343e-09 -2.33201e-10 -1.10241e-09)
(6.78089e-10 3.05111e-11 -1.38604e-09)
(3.58339e-10 -6.387e-11 -6.12581e-10)
(1.39572e-09 -2.7777e-10 5.62363e-10)
(1.56155e-09 -3.5509e-10 5.24094e-10)
(1.24039e-09 1.03749e-11 6.26096e-10)
(2.19628e-10 -6.49826e-10 3.78826e-10)
(5.7229e-10 -3.87048e-10 -3.24336e-11)
(2.00298e-10 -2.18003e-10 -2.14942e-10)
(-4.75356e-10 -3.17196e-10 -6.83234e-10)
(-1.53619e-10 -2.04864e-12 -2.16345e-09)
(-3.09498e-11 -3.9141e-10 -2.24881e-09)
(7.71964e-10 -3.42785e-10 3.16889e-10)
(7.55615e-10 -3.55437e-10 2.47505e-10)
(6.26748e-10 -3.5784e-10 3.78926e-10)
(1.80634e-10 1.02327e-10 1.80171e-10)
(-4.19198e-11 -1.7288e-10 -7.507e-12)
(-1.87191e-10 -2.32986e-11 -7.58336e-12)
(-7.52356e-10 -1.36821e-11 -5.45095e-10)
(-8.72487e-10 -3.34549e-10 -2.02316e-09)
(-4.45299e-10 -1.23548e-09 -3.88478e-09)
)
;
    }
    procBoundary7to5
    {
        type            processor;
        value           nonuniform List<vector> 
44
(
(1.73317e-09 6.12931e-10 3.02477e-09)
(2.38946e-09 9.82846e-10 2.723e-09)
(2.63197e-09 4.00464e-10 1.35428e-09)
(2.10173e-09 9.72601e-11 3.29135e-10)
(1.71053e-09 4.92023e-11 -3.62224e-10)
(1.27073e-09 1.89678e-10 -8.41755e-10)
(1.05174e-09 8.58961e-11 -1.26335e-09)
(5.33529e-10 6.27614e-11 -5.41949e-10)
(1.70874e-09 5.51576e-10 9.5651e-10)
(1.95474e-09 3.4465e-10 1.13834e-09)
(2.20332e-09 5.21158e-10 1.93817e-09)
(2.27294e-09 4.42259e-10 9.29908e-10)
(1.90626e-09 1.76356e-10 6.32636e-11)
(1.39505e-09 2.57943e-10 -2.91867e-10)
(1.09821e-09 3.87769e-10 -7.4614e-10)
(5.5662e-10 5.16371e-10 -9.91022e-10)
(8.98138e-11 3.24767e-10 -6.08721e-10)
(1.70874e-09 5.51576e-10 9.5651e-10)
(1.95474e-09 3.4465e-10 1.13834e-09)
(1.95474e-09 3.4465e-10 1.13834e-09)
(1.79059e-09 2.85163e-10 4.36155e-10)
(1.42516e-09 3.38319e-10 2.30262e-10)
(1.40187e-09 9.66129e-11 3.28475e-11)
(8.9717e-10 3.13417e-10 -1.205e-10)
(3.34017e-10 5.46799e-10 -5.44136e-10)
(-4.81639e-14 8.79661e-10 -8.07309e-10)
(-1.01548e-10 1.07366e-09 -1.00948e-09)
(1.6996e-09 4.81177e-10 3.22395e-10)
(1.76419e-09 4.36673e-10 5.3049e-10)
(1.79059e-09 2.85163e-10 4.36155e-10)
(1.42516e-09 3.38319e-10 2.30262e-10)
(1.42516e-09 3.38319e-10 2.30262e-10)
(8.06907e-10 2.55311e-10 -7.21494e-12)
(5.0435e-10 2.51788e-10 9.30521e-12)
(2.29098e-10 4.50395e-10 -1.87349e-10)
(-1.49881e-10 8.34447e-10 -3.37983e-10)
(6.59438e-12 1.52071e-09 -5.29091e-10)
(1.12838e-09 2.43475e-10 6.47751e-11)
(1.19435e-09 2.48166e-10 1.2071e-10)
(1.11288e-09 -5.44171e-10 4.27587e-11)
(8.94891e-10 3.80387e-11 7.82358e-11)
(8.06907e-10 2.55311e-10 -7.21494e-12)
(5.0435e-10 2.51788e-10 9.30521e-12)
(5.0435e-10 2.51788e-10 9.30521e-12)
)
;
    }
    procBoundary7to6
    {
        type            processor;
        value           nonuniform List<vector> 
12
(
(1.50675e-09 3.58702e-10 4.95293e-10)
(1.25726e-09 -5.48154e-11 3.29814e-10)
(3.72339e-10 -9.96981e-11 1.03442e-10)
(1.63628e-09 3.05644e-10 3.9036e-10)
(1.25325e-09 -5.08403e-11 2.56679e-10)
(2.40133e-10 -1.8115e-10 5.58788e-11)
(1.29583e-09 2.78878e-10 3.16745e-10)
(1.35967e-09 2.36781e-10 8.48116e-11)
(5.94791e-10 5.4881e-11 -7.17721e-11)
(6.64625e-10 1.37625e-10 1.02581e-10)
(7.45558e-10 4.47805e-10 -4.84604e-11)
(4.44988e-10 1.30879e-10 -1.31759e-10)
)
;
    }
}


// ************************************************************************* //
