/*--------------------------------*- C++ -*----------------------------------*\
  =========                 |
  \\      /  F ield         | OpenFOAM: The Open Source CFD Toolbox
   \\    /   O peration     | Website:  https://openfoam.org
    \\  /    A nd           | Version:  4.x
     \\/     M anipulation  |
\*---------------------------------------------------------------------------*/
FoamFile
{
    version     2.0;
    format      ascii;
    class       Cloud<passiveParticle>;
    location    0;
    object      positions;
}
// * * * * * * * * * * * * * * * * * * * * * * * * * * * * * * * * * * * * * //

352
(
( 0.0733512 -0.0589945 -0.0634912 ) 41
( 0.0863729 -0.0205321 -0.0290801 ) 83
( 0.0504899 -0.0384033 -0.0670938 ) 49
( 0.177595 -0.0800116 -0.0518252 ) 36
( 0.0525475 -0.0751948 -0.0489297 ) 31
( 0.193543 -0.0268067 -0.0537246 ) 54
( 0.145754 -0.0831967 -0.0260725 ) 67
( 0.0554762 -0.0673834 -0.0310116 ) 72
( 0.0537197 -0.0265097 -0.0263574 ) 81
( 0.00982229 -0.0395071 -0.034538 ) 80
( 0.218316 -0.089929 -0.0609701 ) 37
( 0.203765 -0.0501294 -0.0424009 ) 78
( 0.212605 -0.0255903 -0.0484296 ) 55
( 0.079304 -0.0210719 -0.0557504 ) 50
( 0.176918 -0.0714844 -0.0698003 ) 36
( 0.18691 -0.0423421 -0.0351373 ) 86
( 0.194792 -0.0148222 -0.0695871 ) 55
( 0.109566 -0.0279603 -0.0582443 ) 51
( 0.22666 -0.0496926 -0.0706205 ) 47
( 0.242502 -0.0205451 -0.0591751 ) 56
( 0.242749 -0.0704827 -0.0256261 ) 79
( 0.0745847 -0.0366603 -0.0289048 ) 82
( 0.137872 -0.0447245 -0.0393996 ) 75
( 0.205027 -0.0531544 -0.0637541 ) 46
( 0.0960208 -0.0517202 -0.0334041 ) 74
( 0.0621754 -0.0407893 -0.0436774 ) 50
( 0.216118 -0.0646091 -0.0518234 ) 46
( 0.0273957 -0.0143205 -0.0498378 ) 48
( 0.0794299 -0.0729994 -0.0508043 ) 32
( 0.205312 -0.0730407 -0.0375256 ) 69
( 0.11988 -0.0384677 -0.0448863 ) 52
( 0.233417 -0.0560715 -0.0474397 ) 47
( 0.0266842 -0.0169344 -0.0301847 ) 80
( 0.139113 -0.0575316 -0.0244762 ) 76
( 0.0279471 -0.0765938 -0.0367259 ) 63
( 0.141622 -0.0201426 -0.070271 ) 53
( 0.0385403 -0.0747493 -0.0629118 ) 31
( 0.10819 -0.0803051 -0.0393437 ) 65
( 0.0732453 -0.0766366 -0.0323906 ) 64
( 0.111085 -0.0786888 -0.0197695 ) 65
( 0.135807 -0.0456382 -0.0683326 ) 43
( 0.149863 -0.04919 -0.0545863 ) 44
( 0.240751 -0.035683 -0.0718448 ) 26
( 0.171691 -0.0274963 -0.0687096 ) 54
( 0.12741 -0.0901797 -0.0207495 ) 66
( 0.234251 -0.0753513 -0.0528057 ) 38
( 0.0366675 -0.0625805 -0.0474131 ) 40
( 0.172705 -0.0572073 -0.0515048 ) 45
( 0.107658 -0.0761827 -0.0662777 ) 33
( 0.0940895 -0.0217125 -0.0689829 ) 51
( 0.138605 -0.0878782 -0.0550198 ) 34
( 0.188492 -0.0628141 -0.0405366 ) 77
( 0.133704 -0.0181554 -0.0413442 ) 84
( 0.0839157 -0.0382886 -0.0646866 ) 51
( 0.113024 -0.0200438 -0.0403854 ) 84
( 0.0988452 -0.058492 -0.0671919 ) 42
( 0.15099 -0.0110373 -0.03486 ) 94
( 0.0403027 -0.0265487 -0.0410585 ) 81
( 0.0668618 -0.0217801 -0.040436 ) 82
( 0.0341938 -0.0348007 -0.0242903 ) 81
( 0.149102 -0.0793462 -0.0695668 ) 35
( 0.0115597 -0.0272356 -0.0627535 ) 48
( 0.0979116 -0.0660721 -0.0487113 ) 42
( 0.129186 -0.0733323 -0.0308543 ) 66
( 0.0096748 -0.00688823 -0.0306532 ) 89
( 0.240311 -0.0432586 -0.028227 ) 79
( 0.150403 -0.0624885 -0.0398017 ) 76
( 0.167219 -0.0708948 -0.0333482 ) 77
( 0.200781 -0.0859898 -0.0518201 ) 37
( 0.161254 -0.0280824 -0.0351298 ) 85
( 0.189765 -0.035358 -0.0713342 ) 54
( 0.121705 -0.00642255 -0.0519787 ) 61
( 0.187973 -0.0824175 -0.0352445 ) 68
( 0.0275815 -0.0474216 -0.0382096 ) 71
( 0.0539604 -0.0580594 -0.0590507 ) 40
( 0.0305286 -0.090048 -0.0511754 ) 31
( 0.0826548 -0.0436956 -0.045629 ) 41
( 0.15802 -0.0252112 -0.0544845 ) 53
( 0.139381 -0.0319184 -0.0544385 ) 53
( 0.0842707 -0.090172 -0.0421255 ) 65
( 0.0330204 -0.030761 -0.0595058 ) 49
( 0.0500959 -0.0089438 -0.0361377 ) 90
( 0.0913075 -0.0364633 -0.0182263 ) 83
( 0.0186615 -0.00908206 -0.0668472 ) 57
( 0.0705791 -0.0585544 -0.0403605 ) 73
( 0.05363 -0.0228518 -0.05517 ) 49
( 0.175411 -0.0326987 -0.0481925 ) 54
( 0.00991616 -0.0641372 -0.0350985 ) 71
( 0.00991243 -0.0802022 -0.0232385 ) 62
( 0.200939 -0.0503077 -0.0227703 ) 78
( 0.123999 -0.0552742 -0.0556454 ) 43
( 0.187498 -0.0901049 -0.0659243 ) 36
( 0.237698 -0.0901055 -0.065741 ) 38
( 0.115225 -0.0617423 -0.039061 ) 75
( 0.0656963 -0.0145764 -0.0687335 ) 50
( 0.00991879 -0.0628727 -0.0617929 ) 39
( 0.0980735 -0.0328926 -0.0391224 ) 83
( 0.225526 -0.0730678 -0.0351431 ) 70
( 0.177789 -0.0565816 -0.0250133 ) 77
( 0.224923 -0.0262435 -0.0329943 ) 88
( 0.208635 -0.0308849 -0.0670934 ) 55
( 0.0436431 -0.0794366 -0.0203225 ) 63
( 0.217072 -0.0900748 -0.0411385 ) 69
( 0.243738 -0.0902164 -0.0436803 ) 38
( 0.0262505 -0.0614426 -0.0241055 ) 71
( 0.0972236 -0.0142313 -0.0507967 ) 60
( 0.210055 -0.0733069 -0.0685505 ) 37
( 0.12683 -0.0683595 -0.0706991 ) 43
( 0.196922 -0.090295 -0.0195041 ) 69
( 0.169906 -0.0902672 -0.0311196 ) 68
( 0.154632 -0.0876603 -0.0434028 ) 35
( 0.180455 -0.0233675 -0.0294745 ) 86
( 0.193281 -0.0687849 -0.0588224 ) 45
( 0.0798456 -0.0547794 -0.0224254 ) 73
( 0.234507 -0.0679839 -0.0712296 ) 47
( 0.121981 -0.0747794 -0.0525141 ) 34
( 0.188785 -0.0461409 -0.0546578 ) 45
( 0.236031 -0.0359816 -0.0462807 ) 56
( 0.163718 -0.0481107 -0.0363582 ) 76
( 0.0584788 -0.0900847 -0.063148 ) 32
( 0.21675 -0.0900051 -0.0213617 ) 69
( 0.121758 -0.0901133 -0.0652323 ) 34
( 0.150555 -0.0399884 -0.0233744 ) 85
( 0.0436289 -0.0442037 -0.0493766 ) 40
( 0.00991359 -0.0218936 -0.0436889 ) 48
( 0.16184 -0.0574985 -0.0681113 ) 44
( 0.12206 -0.0168154 -0.0689619 ) 52
( 0.124931 -0.0296354 -0.0278841 ) 84
( 0.103454 -0.0472191 -0.0516326 ) 42
( 0.204012 -0.0330224 -0.0322585 ) 87
( 0.0447499 -0.0900399 -0.0371383 ) 63
( 0.114846 -0.0437963 -0.069045 ) 43
( 0.0100576 -0.0448279 -0.053546 ) 39
( 0.0966209 -0.0902301 -0.0267785 ) 65
( 0.028031 -0.0500477 -0.0602819 ) 40
( 0.0783199 -0.0900376 -0.0610848 ) 32
( 0.0625607 -0.00556982 -0.0512727 ) 59
( 0.0645798 -0.0901983 -0.0442322 ) 32
( 0.119914 -0.0595181 -0.0199724 ) 75
( 0.00972554 -0.0236574 -0.0203623 ) 80
( 0.118318 -0.0025785 -0.0328354 ) 93
( 0.0111516 -0.0824322 -0.0584867 ) 30
( 0.220698 -0.0496908 -0.0321125 ) 78
( 0.00988859 -0.00302306 -0.0500899 ) 57
( 0.131229 -0.0421787 0.0067188 ) 118
( 0.111074 -0.0514284 -0.00409679 ) 108
( 0.126768 -0.0172825 0.00200197 ) 118
( 0.170921 -0.0738479 0.0015377 ) 102
( 0.0586136 -0.0722996 0.000498319 ) 98
( 0.0399535 -0.00714756 -0.0191679 ) 90
( 0.226574 -0.0427583 -0.00192238 ) 122
( 0.134346 -0.0623941 0.00505694 ) 109
( 0.0217458 -0.0120702 0.00502756 ) 123
( 0.208779 -0.0191284 -0.0169495 ) 87
( 0.12526 0.00571289 0.0018151 ) 127
( 0.191303 -0.0340431 -0.0167414 ) 86
( 0.0609763 -0.0107874 -0.00639469 ) 125
( 0.0199756 -0.0337128 0.00795248 ) 114
( 0.160425 -0.00402351 -0.012893 ) 128
( 0.0829952 -0.00875563 0.00346721 ) 125
( 0.122776 -0.0127588 -0.0166615 ) 93
( 0.0562531 -0.0564871 0.0138321 ) 107
( 0.11096 -0.0357665 0.00802188 ) 117
( 0.163693 -0.0375752 0.013709 ) 119
( 0.240109 -0.0567284 0.000872809 ) 113
( 0.0912212 -0.0432681 0.000406523 ) 108
( 0.206888 -0.0618914 0.0114805 ) 112
( 0.206422 -0.0497136 -0.00382685 ) 112
( 0.143648 -0.00870304 -0.00352162 ) 128
( 0.151203 -0.0739274 0.00328005 ) 101
( 0.162287 -0.0901587 0.00875254 ) 101
( 0.186839 -0.0488473 0.0118771 ) 111
( 0.228853 -0.0763821 0.00988327 ) 104
( 0.0354369 -0.0823311 -0.00154096 ) 97
( 0.235584 -0.0353086 0.0136995 ) 122
( 0.177437 -0.0174399 -0.0101252 ) 120
( 0.0382759 -0.033592 0.00035514 ) 115
( 0.219884 -0.0644766 -0.00284923 ) 112
( 0.056453 -0.0208814 0.00992766 ) 116
( 0.222179 -0.0901962 -0.00238897 ) 103
( 0.0261775 -0.0647096 -0.00193792 ) 105
( 0.215184 -0.0378958 -0.0169862 ) 87
( 0.0963574 -0.0239947 0.00129556 ) 117
( 0.169563 -0.0182104 0.00812624 ) 120
( 0.101392 -0.0714078 0.0056412 ) 108
( 0.150641 -0.0515889 0.00827141 ) 110
( 0.0563727 -0.0306592 -0.00719062 ) 116
( 0.239232 -0.0749867 -0.00674504 ) 104
( 0.158835 -0.0399036 -0.00526063 ) 119
( 0.0790269 -0.0902199 -0.0177663 ) 64
( 0.213896 -0.0130437 0.00129383 ) 130
( 0.0715459 -0.0901456 0.000501526 ) 98
( 0.194165 -0.0129718 -0.00057539 ) 129
( 0.118589 -0.0308978 -0.0093703 ) 118
( 0.206685 -0.0785384 -0.00707499 ) 103
( 0.179828 -0.0809588 -0.015145 ) 68
( 0.0952161 -0.0900947 0.0123961 ) 99
( 0.0742746 -0.0715174 -0.0133717 ) 98
( 0.149432 -0.0902465 -0.00779847 ) 101
( 0.1184 -0.0902043 -0.00304028 ) 100
( 0.169761 -0.0540724 0.00338485 ) 111
( 0.0151057 -0.090227 -0.00693266 ) 96
( 0.00984176 -0.0843133 0.0111158 ) 96
( 0.191581 -0.068272 0.000593253 ) 111
( 0.184555 -0.0318135 0.00179954 ) 120
( 0.247969 -0.0414374 -0.00906049 ) 122
( 0.139667 -0.0238114 -0.0158719 ) 85
( 0.00988822 -0.0510314 0.00242357 ) 105
( 0.110319 -0.00688797 -0.00227657 ) 126
( 0.134877 -0.0900495 0.00824602 ) 100
( 0.0657876 -0.00340164 0.0118686 ) 125
( 0.0529945 -0.0901609 -0.00641479 ) 97
( 0.0711406 -0.0490352 0.00300327 ) 107
( 0.0423664 -0.070698 0.0130093 ) 106
( 0.0181669 -0.00450749 -0.0129084 ) 123
( 0.231148 -0.0562562 -0.0166455 ) 79
( 0.0747394 -0.0288475 0.00460024 ) 116
( 0.186127 -0.051125 -0.00782923 ) 111
( 0.204209 -0.0302112 -0.00113001 ) 121
( 0.160707 -0.0758373 -0.0152989 ) 67
( 0.134024 -0.0426107 -0.0127403 ) 118
( 0.0415087 -0.013442 -0.000482093 ) 124
( 0.182006 -0.0902883 0.00202354 ) 102
( 0.182552 0.00898865 -0.0387456 ) 95
( 0.0880506 0.0117899 -0.0412743 ) 92
( 0.135921 0.0142624 -0.0561527 ) 61
( 0.0587676 0.00899707 -0.0244024 ) 91
( 0.00979904 0.0117551 -0.0205206 ) 89
( 0.0784016 0.00492005 -0.0571782 ) 59
( 0.124447 0.00385959 -0.0687509 ) 61
( 0.148549 0.0134115 -0.0310929 ) 94
( 0.0433866 0.0103465 -0.0367809 ) 90
( 0.113913 0.0111155 -0.0462851 ) 61
( 0.0551337 0.0121362 -0.0562578 ) 58
( 0.105825 -0.000595823 -0.0623859 ) 60
( 0.177591 0.00186868 -0.00488894 ) 129
( 0.0110053 0.0101029 -0.000697391 ) 123
( 0.087181 0.0111077 -0.00725064 ) 126
( 0.0436597 0.0109859 -0.011705 ) 124
( 0.210077 0.0057836 -0.00268895 ) 130
( 0.0631739 0.00875532 -0.00498338 ) 125
( 0.100417 0.0041326 0.0121128 ) 126
( 0.14647 0.00884854 0.00512632 ) 128
( 0.108031 0.0126909 -0.00531177 ) 126
( 0.166539 0.0012053 0.0115787 ) 128
( 0.0331303 0.00398875 0.00353951 ) 124
( 0.140221 -0.0676853 -0.0559797 ) 44
( 0.0668041 -0.0090293 -0.0253507 ) 91
( 0.00998342 -0.0901594 -0.0403215 ) 62
( 0.0479933 -0.048656 -0.028159 ) 72
( 0.0791938 -0.00605767 -0.0405908 ) 91
( 0.0824445 -0.0656545 0.00351447 ) 107
( 0.0098923 0.00868127 -0.066203 ) 57
( 0.235723 0.00624784 -0.0137478 ) 131
( 0.154277 -0.0372337 -0.0698662 ) 53
( 0.163434 -0.0902225 -0.0611345 ) 35
( 0.043717 -0.00573976 -0.05736 ) 58
( 0.125319 -0.0902157 -0.0405335 ) 66
( 0.0244503 0.00538888 -0.0342342 ) 89
( 0.0933208 -0.0709848 -0.02998 ) 74
( 0.0738776 -0.0235924 -0.0141328 ) 116
( 0.105975 0.0116314 -0.0265028 ) 92
( 0.0275819 0.00520469 -0.0537372 ) 57
( 0.0492918 -0.0617691 -0.0131826 ) 106
( 0.249594 -0.0474544 -0.0551752 ) 47
( 0.097568 -0.00479204 -0.0333428 ) 92
( 0.099825 -0.0900929 -0.0544701 ) 33
( 0.150707 -0.0251143 0.00489831 ) 119
( 0.174226 -0.00468367 -0.0269333 ) 95
( 0.219065 -0.0437184 -0.0532601 ) 46
( 0.192941 0.00531628 0.00720851 ) 129
( 0.232075 -0.0204297 0.00175152 ) 122
( 0.136031 0.00157963 -0.0408109 ) 93
( 0.0975957 -0.0636008 -0.0121212 ) 108
( 0.0604063 -0.0897697 -0.0247905 ) 64
( 0.213502 -0.0656038 -0.0213055 ) 78
( 0.192299 -0.00848316 -0.019949 ) 95
( 0.152081 -0.0589373 -0.00985538 ) 110
( 0.0787615 0.00675029 -0.0245668 ) 91
( 0.0271166 -0.090224 -0.0226202 ) 62
( 0.193414 -0.0685223 -0.0221805 ) 77
( 0.127021 0.0130651 -0.0244336 ) 93
( 0.1097 -0.0427936 -0.0222765 ) 83
( 0.103728 -0.0208893 -0.0177575 ) 83
( 0.159507 -0.023354 -0.0160071 ) 85
( 0.159731 -0.0718896 -0.0544915 ) 35
( 0.00984015 -0.0632332 -0.0131034 ) 105
( 0.0629907 -0.047549 -0.0150824 ) 73
( 0.0270856 -0.022082 -0.0110332 ) 114
( 0.171079 -0.0386234 -0.0206241 ) 86
( 0.139682 -0.00182388 -0.0215458 ) 94
( 0.236943 -0.0901142 -0.0194053 ) 70
( 0.118716 -0.0704387 -0.00358169 ) 109
( 0.0899896 -0.00688645 -0.0150296 ) 92
( 0.233247 -0.0298418 -0.0154975 ) 88
( 0.034386 -0.0492206 -0.0109049 ) 106
( 0.0106735 -0.0426893 -0.0151934 ) 80
( 0.136769 -0.0750295 -0.0102323 ) 100
( 0.193869 0.00992993 -0.0128528 ) 129
( 0.0989726 -0.0891924 -0.00707611 ) 99
( 0.0376236 -0.051883 0.00857044 ) 106
( 0.144424 -0.0614387 -0.076851 ) 14
( 0.173706 -0.0450083 -0.0780457 ) 15
( 0.0860849 -0.073611 -0.0694637 ) 33
( 0.00994342 -0.0444982 -0.0734215 ) 9
( 0.040902 -0.0585476 -0.0740653 ) 10
( 0.056095 -0.0726394 -0.0723867 ) 2
( 0.0676226 -0.0440936 -0.0754175 ) 11
( 0.0422478 -0.0901664 -0.0747547 ) 1
( 0.205591 -0.0901535 -0.0779997 ) 7
( 0.245063 -0.0534038 -0.079754 ) 17
( 0.225223 -0.0237106 -0.0754647 ) 26
( 0.0777466 -0.0263625 -0.0794117 ) 20
( 0.22424 -0.0832421 -0.0788047 ) 8
( 0.0216075 -0.0742075 -0.0732819 ) 0
( 0.085725 -0.0508913 -0.0800147 ) 12
( 0.109444 -0.0279755 -0.0799557 ) 21
( 0.210376 -0.0449516 -0.081118 ) 16
( 0.192876 -0.0612753 -0.0772561 ) 15
( 0.172401 -0.089908 -0.0789019 ) 6
( 0.129014 -0.031543 -0.0806298 ) 22
( 0.0435033 -0.0192889 -0.0719384 ) 19
( 0.134593 -0.087817 -0.0802552 ) 4
( 0.0336184 -0.040378 -0.0774802 ) 19
( 0.112746 -0.0592834 -0.0814197 ) 13
( 0.0702009 -0.089754 -0.0792853 ) 2
( 0.0222423 -0.0241726 -0.079287 ) 18
( 0.0961083 -0.0901185 -0.0744219 ) 3
( 0.18919 -0.0799986 -0.0830398 ) 6
( 0.161695 -0.0711427 -0.082644 ) 14
( 0.206874 -0.0209625 -0.0842766 ) 25
( 0.159747 -0.0247795 -0.0844462 ) 23
( 0.0723907 -0.0663352 -0.0820162 ) 11
( 0.0229785 -0.0565345 -0.0824777 ) 9
( 0.0581071 -0.0279829 -0.0823027 ) 20
( 0.034483 0.000876355 -0.0736916 ) 28
( 0.0547669 -0.00841941 -0.084256 ) 28
( 0.219175 -0.0632656 -0.0831314 ) 16
( 0.113722 -0.085451 -0.0828628 ) 4
( 0.144696 -0.043735 -0.0860824 ) 14
( 0.242485 -0.0208778 -0.0850772 ) 26
( 0.00996934 -0.0900393 -0.0768411 ) 0
( 0.0951516 -0.0674388 -0.0860865 ) 12
( 0.228866 -0.0392516 -0.0874578 ) 26
( 0.0618062 0.00986658 -0.0877499 ) 29
( 0.0372115 -0.0742938 -0.0857156 ) 1
( 0.153679 -0.0900474 -0.0857207 ) 5
( 0.0508803 -0.0461818 -0.08604 ) 10
( 0.00991631 -0.00185454 -0.0831771 ) 27
( 0.191876 -0.0449436 -0.0886735 ) 15
( 0.035243 -0.0122726 -0.0886707 ) 28
( 0.0099267 -0.0701897 -0.088882 ) 9
)
