/*--------------------------------*- C++ -*----------------------------------*\
  =========                 |
  \\      /  F ield         | OpenFOAM: The Open Source CFD Toolbox
   \\    /   O peration     | Website:  https://openfoam.org
    \\  /    A nd           | Version:  4.x
     \\/     M anipulation  |
\*---------------------------------------------------------------------------*/
FoamFile
{
    version     2.0;
    format      ascii;
    class       Cloud<passiveParticle>;
    location    0;
    object      positions;
}
// * * * * * * * * * * * * * * * * * * * * * * * * * * * * * * * * * * * * * //

235
(
( 0.253087 -0.019063 -0.0428586 ) 45
( 0.252485 -0.0641807 -0.0650911 ) 36
( 0.25349 -0.0738301 -0.0477357 ) 27
( 0.2557 -0.0383476 -0.0386476 ) 72
( 0.250422 -0.0262506 0.00333365 ) 86
( 0.256589 -0.0654404 0.0046409 ) 84
( 0.25133 -0.0232691 -0.0165156 ) 72
( 0.25705 -0.0759774 -0.0139325 ) 81
( 0.252511 -0.0902798 -0.00143079 ) 81
( 0.353338 -0.066191 -0.0603693 ) 39
( 0.379206 -0.0900761 -0.0643061 ) 31
( 0.402141 -0.0526079 -0.0630988 ) 41
( 0.312714 -0.0442451 -0.0461171 ) 38
( 0.416274 -0.089996 -0.0797931 ) 5
( 0.361932 -0.0749484 -0.0397825 ) 58
( 0.302724 -0.0282125 -0.0372971 ) 73
( 0.352784 -0.0311764 -0.0498658 ) 48
( 0.412345 -0.0901991 -0.0422738 ) 59
( 0.445891 -0.0468434 -0.0353652 ) 70
( 0.472052 -0.0451824 -0.059499 ) 43
( 0.288084 -0.0267493 -0.0597107 ) 46
( 0.420418 -0.0900879 -0.060316 ) 33
( 0.447499 -0.0150166 -0.0453025 ) 52
( 0.33543 -0.0577374 -0.0578232 ) 39
( 0.437609 -0.0312967 -0.0632877 ) 51
( 0.300352 -0.0423085 -0.0615054 ) 46
( 0.406593 -0.0246689 -0.0793698 ) 23
( 0.490042 -0.0448196 -0.0457447 ) 44
( 0.336779 -0.0761145 -0.0653087 ) 30
( 0.40627 -0.0148216 -0.0567864 ) 50
( 0.342903 -0.054655 -0.0244964 ) 66
( 0.273959 -0.0539801 -0.0586949 ) 36
( 0.47871 -0.0300428 -0.028395 ) 80
( 0.359045 -0.0145137 -0.079571 ) 21
( 0.431217 -0.0440323 -0.0494477 ) 42
( 0.341544 -0.0338426 -0.0338393 ) 75
( 0.466866 -0.0214791 -0.0520452 ) 52
( 0.359351 -0.0509938 -0.0722126 ) 12
( 0.362148 -0.0502893 -0.0525407 ) 40
( 0.417934 -0.029529 -0.0463942 ) 51
( 0.418359 -0.0725092 -0.0692798 ) 33
( 0.468597 -0.0739211 -0.0515323 ) 34
( 0.320836 -0.0476477 -0.0718143 ) 11
( 0.333232 -0.0392954 -0.0508997 ) 47
( 0.430071 -0.0585595 -0.0360459 ) 69
( 0.437448 -0.0728653 -0.0749099 ) 6
( 0.451542 -0.0901619 -0.049159 ) 34
( 0.287377 -0.0901697 -0.0680319 ) 28
( 0.399883 -0.0731789 -0.0767016 ) 5
( 0.468111 -0.0412917 -0.0405614 ) 79
( 0.474052 -0.0209908 -0.0859567 ) 26
( 0.268556 -0.0224446 -0.0728245 ) 18
( 0.408918 -0.0444969 -0.0800003 ) 14
( 0.401493 -0.0900724 -0.0663534 ) 32
( 0.453083 -0.0190621 -0.066225 ) 52
( 0.327454 -0.0742362 -0.0418278 ) 56
( 0.41053 -0.0722957 -0.0509294 ) 32
( 0.378637 -0.0676713 -0.032411 ) 67
( 0.324261 -0.0881729 -0.0751332 ) 2
( 0.339803 -0.0420685 -0.06944 ) 48
( 0.43637 -0.0459085 -0.0767449 ) 15
( 0.269922 -0.0254175 -0.0348591 ) 72
( 0.272576 -0.0863712 -0.0204079 ) 54
( 0.440592 -0.0583465 -0.0617802 ) 42
( 0.384477 -0.0609869 -0.0662828 ) 40
( 0.380613 -0.0416937 -0.0342324 ) 76
( 0.40899 -0.0145448 -0.0371196 ) 77
( 0.456009 -0.07972 -0.0696358 ) 34
( 0.295162 -0.0697584 -0.027221 ) 64
( 0.489845 -0.0756327 -0.0426393 ) 62
( 0.30233 -0.0900976 -0.0443551 ) 28
( 0.379125 -0.0429495 -0.0597884 ) 40
( 0.366531 -0.0276856 -0.0358921 ) 76
( 0.327977 -0.0901836 -0.0298146 ) 56
( 0.458167 -0.0530245 -0.083565 ) 16
( 0.479898 -0.0739844 -0.070103 ) 35
( 0.485331 -0.0614301 -0.0556787 ) 44
( 0.271759 -0.0169985 -0.0539705 ) 45
( 0.413648 -0.0531689 -0.0460778 ) 41
( 0.287439 -0.0667708 -0.0658433 ) 37
( 0.381213 -0.0262162 -0.0492758 ) 49
( 0.298201 -0.0168834 -0.073702 ) 19
( 0.356453 -0.0748628 -0.077936 ) 3
( 0.347128 -0.0870878 -0.0351934 ) 57
( 0.454328 -0.0315329 -0.0842886 ) 25
( 0.483006 -0.0552189 -0.0827516 ) 17
( 0.374272 -0.022462 -0.0675846 ) 49
( 0.307573 -0.0244485 -0.0561482 ) 47
( 0.271057 -0.0738517 -0.057027 ) 27
( 0.425521 -0.0155742 -0.0616969 ) 51
( 0.315763 -0.0602749 -0.0573997 ) 38
( 0.43973 -0.0901031 -0.0650509 ) 33
( 0.356523 -0.0869563 -0.05471 ) 30
( 0.432247 -0.090183 -0.0443673 ) 33
( 0.275997 -0.0669253 -0.0230589 ) 63
( 0.318042 -0.0900309 -0.0563726 ) 29
( 0.372067 -0.0731211 -0.056687 ) 31
( 0.467835 -0.0611025 -0.0365191 ) 70
( 0.456179 -0.0531496 -0.0510298 ) 43
( 0.270499 -0.0901745 -0.0397994 ) 54
( 0.393332 -0.0275232 -0.064888 ) 50
( 0.302272 -0.0791178 -0.0613293 ) 28
( 0.322394 -0.0301363 -0.0362053 ) 74
( 0.268829 -0.0853733 -0.0732162 ) 0
( 0.387914 -0.0577161 -0.0468067 ) 40
( 0.391915 -0.0868597 -0.0277118 ) 59
( 0.4903 -0.045787 -0.0668198 ) 44
( 0.417912 -0.0338997 -0.0657045 ) 51
( 0.481747 -0.0495867 -0.0283446 ) 71
( 0.279757 -0.0392395 -0.0466938 ) 46
( 0.490033 -0.0250013 -0.0438615 ) 53
( 0.436813 -0.0295536 -0.0370229 ) 78
( 0.453977 -0.0421185 -0.0674271 ) 52
( 0.340878 -0.0223205 -0.0774091 ) 21
( 0.470421 -0.0888306 -0.0822533 ) 7
( 0.476086 -0.0900794 -0.0427019 ) 62
( 0.436504 -0.0901246 -0.0846657 ) 6
( 0.373783 -0.0899938 -0.0451757 ) 31
( 0.430471 -0.0716121 -0.0510232 ) 33
( 0.269294 -0.0603855 -0.0404916 ) 63
( 0.451698 -0.0339588 -0.0494045 ) 52
( 0.288682 -0.0568911 -0.0440995 ) 37
( 0.302451 -0.0515983 -0.0307636 ) 64
( 0.393418 -0.0900925 -0.0481577 ) 32
( 0.278667 -0.0396063 -0.0716155 ) 19
( 0.395835 -0.0397281 -0.049442 ) 50
( 0.33715 -0.0903828 -0.0515909 ) 30
( 0.421783 -0.0533761 -0.0650066 ) 42
( 0.324634 -0.0552043 -0.0323688 ) 65
( 0.345978 -0.0634546 -0.0420162 ) 66
( 0.471382 -0.0902152 -0.0624273 ) 34
( 0.2698 -0.0649443 -0.0748336 ) 9
( 0.314739 -0.0706334 -0.0743618 ) 11
( 0.451151 -0.0771817 -0.0887863 ) 7
( 0.305664 -0.0705177 -0.0439046 ) 38
( 0.290016 -0.0900744 -0.0289041 ) 55
( 0.395965 -0.0290363 -0.0328523 ) 77
( 0.372072 -0.0631118 -0.0816764 ) 13
( 0.388825 -0.0890115 -0.0816952 ) 4
( 0.490058 -0.0318962 -0.0811141 ) 26
( 0.460026 -0.0902566 -0.0313536 ) 61
( 0.356635 -0.0314441 -0.069277 ) 48
( 0.314133 -0.0290573 -0.0743597 ) 20
( 0.460065 -0.024564 -0.032802 ) 79
( 0.418495 -0.0740969 -0.032717 ) 60
( 0.49028 -0.08993 -0.0563607 ) 35
( 0.339734 -0.0193662 -0.0146365 ) 75
( 0.297499 -0.0651192 0.0107543 ) 85
( 0.382051 -0.0280994 -0.0187456 ) 76
( 0.454543 -0.0159047 -0.0149414 ) 79
( 0.292999 -0.0901496 -0.00932378 ) 82
( 0.441498 -0.0578245 -0.0196768 ) 69
( 0.300982 -0.0291364 -0.0168508 ) 73
( 0.461214 -0.0479914 -0.0232241 ) 70
( 0.289531 -0.0840759 0.0124229 ) 82
( 0.399627 -0.039681 -0.0147384 ) 77
( 0.276686 -0.052061 -0.00132681 ) 84
( 0.342344 -0.0900492 -0.0161126 ) 57
( 0.447343 -0.0336273 -0.0204306 ) 79
( 0.368084 -0.0533846 -0.019365 ) 67
( 0.316165 -0.0412719 -0.0209373 ) 74
( 0.429224 -0.0730023 -0.0160118 ) 60
( 0.272899 -0.0903858 -0.000983119 ) 81
( 0.287329 -0.0514006 -0.0179808 ) 64
( 0.260481 -0.043182 0.00586712 ) 84
( 0.354989 -0.0308701 -0.0199053 ) 75
( 0.273251 -0.0710888 -0.00391865 ) 84
( 0.29226 -0.0678019 -0.00788178 ) 85
( 0.309205 -0.0901982 -0.0230561 ) 56
( 0.409901 -0.0237807 -0.0198651 ) 77
( 0.306854 -0.0903346 0.00470662 ) 83
( 0.386943 -0.0721873 -0.0150802 ) 58
( 0.267444 -0.0206024 -0.0052221 ) 86
( 0.436488 -0.0156885 -0.0227948 ) 78
( 0.429451 -0.042525 -0.0239174 ) 78
( 0.325675 -0.090177 0.0107331 ) 83
( 0.367028 -0.0151959 -0.0205745 ) 76
( 0.267787 -0.0415337 -0.0231908 ) 72
( 0.388594 -0.042236 -0.0773441 ) 22
( 0.449952 -0.0708461 -0.0450563 ) 43
( 0.284285 -0.0762303 -0.0424316 ) 55
( 0.421577 -0.0594324 -0.0839757 ) 15
( 0.304761 -0.0515258 -0.00824447 ) 85
( 0.439394 -0.0188716 -0.0806892 ) 24
( 0.490025 -0.0900317 -0.0762575 ) 8
( 0.323141 -0.0903143 -0.00889865 ) 83
( 0.398821 -0.0696156 -0.0350435 ) 68
( 0.406708 -0.0722211 -0.0169921 ) 59
( 0.264074 -0.0349411 -0.0580271 ) 45
( 0.464393 -0.0619405 -0.0668535 ) 43
( 0.481931 -0.0282695 -0.0631086 ) 53
( 0.342347 -0.0605563 -0.0763556 ) 12
( 0.255892 -0.0900874 -0.0589104 ) 27
( 0.328577 -0.0234277 -0.0618413 ) 47
( 0.447282 -0.0754036 -0.0260474 ) 61
( 0.357664 -0.0453288 -0.0340038 ) 66
( 0.471738 -0.0392858 -0.0784463 ) 25
( 0.490259 -0.0697261 -0.0238354 ) 71
( 0.413076 -0.0902439 -0.0224569 ) 59
( 0.255934 -0.0567005 -0.0182679 ) 63
( 0.334332 -0.0726426 -0.0231968 ) 57
( 0.353863 -0.0748052 -0.0215919 ) 57
( 0.254403 -0.0900321 -0.0275602 ) 54
( 0.286229 -0.0347022 -0.0286532 ) 73
( 0.311077 -0.0737911 -0.00531297 ) 83
( 0.314911 -0.0715691 -0.0265248 ) 56
( 0.293517 -0.0461829 0.0070808 ) 85
( 0.471641 -0.0761432 -0.0240508 ) 61
( 0.434874 -0.0904095 -0.0248448 ) 60
( 0.335023 -0.038595 -0.0157735 ) 75
( 0.411294 -0.0507917 -0.0264566 ) 68
( 0.365175 -0.0901897 -0.0273587 ) 58
( 0.391214 -0.0549815 -0.0238918 ) 68
( 0.293331 -0.0518142 -0.0775286 ) 10
( 0.250006 -0.0799755 -0.0769012 ) 0
( 0.343832 -0.0901385 -0.0784178 ) 3
( 0.440669 -0.0602085 -0.0899393 ) 15
( 0.490038 -0.0733621 -0.0872432 ) 8
( 0.386877 -0.0225625 -0.0830666 ) 22
( 0.304625 -0.0899408 -0.0779791 ) 1
( 0.469347 -0.0693178 -0.0863449 ) 16
( 0.424592 -0.0317274 -0.0843457 ) 24
( 0.369945 -0.0377214 -0.082697 ) 22
( 0.395882 -0.0573357 -0.0880226 ) 14
( 0.329619 -0.0364788 -0.0857682 ) 20
( 0.263388 -0.0473526 -0.0817735 ) 9
( 0.296645 -0.072237 -0.0826427 ) 1
( 0.297527 -0.033625 -0.0844562 ) 19
( 0.333751 -0.0751451 -0.0868679 ) 3
( 0.286741 -0.0894245 -0.0879134 ) 1
( 0.368896 -0.0900456 -0.0813756 ) 4
( 0.322551 -0.0586835 -0.0883128 ) 11
( 0.350381 -0.0399185 -0.086202 ) 21
( 0.276663 -0.0304595 -0.0892028 ) 18
( 0.310542 -0.016358 -0.0893428 ) 20
)
