/*--------------------------------*- C++ -*----------------------------------*\
| =========                 |                                                 |
| \\      /  F ield         | OpenFOAM: The Open Source CFD Toolbox           |
|  \\    /   O peration     | Version:  4.x                                   |
|   \\  /    A nd           | Web:      www.OpenFOAM.org                      |
|    \\/     M anipulation  |                                                 |
\*---------------------------------------------------------------------------*/
FoamFile
{
    version     2.0;
    format      ascii;
    class       volVectorField;
    location    "1";
    object      ddtUrel;
}
// * * * * * * * * * * * * * * * * * * * * * * * * * * * * * * * * * * * * * //

dimensions      [0 1 -2 0 0 0 0];

internalField   nonuniform List<vector> 
108
(
(0.00333483 6.2223e-05 -0.00124338)
(0.00133544 7.51246e-05 -0.0011806)
(-0.000915489 5.91421e-05 -0.0010206)
(-0.00410097 -9.04195e-05 -0.000748265)
(-0.00981177 -0.000130342 -0.000788277)
(-0.0198478 4.96666e-05 -0.000935908)
(-0.0379032 0.000294379 -0.000866442)
(-0.0462163 0.000602844 -0.000668939)
(-0.0368774 0.0005752 -0.00109071)
(0.00299769 0.000149553 -0.00141318)
(0.00114434 0.000288174 -0.00125079)
(-0.000931026 0.000246602 -0.000959803)
(-0.00476799 -1.56237e-05 -0.000747998)
(-0.0102732 -7.43904e-05 -0.000827395)
(-0.0191327 2.00175e-05 -0.000881979)
(-0.0373278 -3.28063e-05 -0.000879024)
(-0.0463384 0.000152746 -0.000535765)
(-0.038512 0.000519005 -0.000657641)
(0.00128908 0.000306508 -0.00167652)
(-0.000485279 0.000525538 -0.00149193)
(-0.00193889 0.000421655 -0.000976813)
(-0.00594156 0.000270392 -0.000751507)
(-0.0105261 0.000265827 -0.000851919)
(-0.0179606 0.000156825 -0.000883514)
(-0.0352498 -0.000248511 -0.000858051)
(-0.0467855 -0.000639657 -0.00122885)
(-0.0381801 -0.000152898 -0.001638)
(-0.00152659 0.00048378 -0.0021757)
(-0.00312389 0.000634881 -0.0019534)
(-0.00296937 0.00050976 -0.00103483)
(-0.00728206 0.000450227 -0.000942783)
(-0.0103337 0.000564475 -0.00114158)
(-0.0174613 0.000588853 -0.00107263)
(-0.0302 -3.46535e-05 -0.000587771)
(-0.0405789 -0.00132457 -0.00107461)
(-0.0358405 -0.000801678 -0.00183855)
(0.00216695 6.89813e-05 -0.00142273)
(0.000520045 -2.16397e-05 -0.00131401)
(-0.00181662 2.05009e-06 -0.00117733)
(-0.00557621 -2.94057e-05 -0.00108805)
(-0.0116106 -5.48384e-05 -0.00114235)
(-0.0215489 3.89678e-05 -0.00134063)
(-0.0404371 0.000209193 -0.00117359)
(-0.0481862 0.000486017 -0.000991311)
(-0.0388524 0.00063077 -0.00171486)
(0.00186943 0.000183006 -0.00155149)
(0.000199355 0.000179196 -0.00140416)
(-0.0020278 0.000154699 -0.0011702)
(-0.00568625 8.85216e-05 -0.00104504)
(-0.0115417 -1.31806e-05 -0.00108531)
(-0.0210441 3.98706e-05 -0.00125382)
(-0.03988 -5.26289e-05 -0.00115347)
(-0.0480455 -0.000125427 -0.000807987)
(-0.0389465 -1.1765e-05 -0.00147358)
(0.00116673 0.000317914 -0.00181317)
(-0.000338515 0.0004506 -0.00152018)
(-0.00237138 0.000368829 -0.00113034)
(-0.00577347 0.000265833 -0.000983787)
(-0.0112814 0.000148251 -0.00103042)
(-0.0204933 0.000167088 -0.00125996)
(-0.0385104 -0.000264249 -0.00115821)
(-0.0469902 -0.000759231 -0.00109919)
(-0.0383942 -0.000425625 -0.00164929)
(0.000308988 0.000407262 -0.00208865)
(-0.00120712 0.00060835 -0.00162828)
(-0.00227233 0.000575244 -0.00109184)
(-0.00534778 0.000381419 -0.000973872)
(-0.0108616 0.000336639 -0.00110174)
(-0.0195468 0.000272692 -0.00120062)
(-0.0347765 -0.000180357 -0.00111825)
(-0.0424954 -0.000699679 -0.00121422)
(-0.0368678 -0.000625813 -0.00170584)
(0.00158052 -3.55619e-05 -0.0018183)
(0.000134989 -2.15583e-05 -0.00170151)
(-0.00227569 0.000104409 -0.00163851)
(-0.00635736 1.64618e-05 -0.0016736)
(-0.0124926 -4.78e-05 -0.00169575)
(-0.0224325 -5.28978e-06 -0.00175736)
(-0.0418257 2.10701e-06 -0.00182633)
(-0.0496408 0.000151697 -0.00157525)
(-0.0404905 0.000231194 -0.00165551)
(0.00145836 0.000152096 -0.00186628)
(-0.000128531 0.000165046 -0.00174402)
(-0.00249478 0.000202491 -0.00167684)
(-0.00621596 0.000140003 -0.0016585)
(-0.0122306 -4.11632e-06 -0.00161241)
(-0.0222366 1.60741e-05 -0.00166261)
(-0.0418055 -0.00013139 -0.00174705)
(-0.0502624 -0.000251621 -0.00138412)
(-0.0405227 -0.00017204 -0.00145814)
(0.000997987 0.000339785 -0.00196084)
(-0.000334321 0.000517418 -0.00175982)
(-0.00245753 0.000400863 -0.00166698)
(-0.00595651 0.000310102 -0.00159001)
(-0.0117303 0.000123765 -0.00146688)
(-0.0213831 8.03396e-05 -0.00159154)
(-0.0400709 -0.000248273 -0.00172019)
(-0.0483091 -0.000575018 -0.00145973)
(-0.0388043 -0.000341207 -0.00149525)
(0.000132858 0.000437745 -0.00190412)
(-0.000578392 0.000673052 -0.00179291)
(-0.00217499 0.000561412 -0.00160948)
(-0.00554984 0.000371962 -0.0014422)
(-0.0108079 0.00027235 -0.001367)
(-0.0202751 0.000102288 -0.00152809)
(-0.0361015 -0.000222113 -0.00159337)
(-0.0443493 -0.000448115 -0.00136376)
(-0.0371203 -0.000382858 -0.00144537)
)
;

boundaryField
{
    inlet
    {
        type            calculated;
        value           nonuniform 0();
    }
    outlet
    {
        type            calculated;
        value           nonuniform List<vector> 
12
(
(0.00947344 -0.00220273 -0.00142812)
(-0.00111453 0.00369428 0.0031277)
(-0.000711373 0.00123 -0.00581213)
(0.000433489 -0.00227988 -0.00506107)
(-0.000699479 0.00256866 -0.00818358)
(-0.000992225 -0.00171906 -0.00650576)
(-0.00310802 -0.00191712 -0.00523982)
(-0.00756188 -0.00107697 -0.00304965)
(-0.00285241 -0.000500696 -0.00381928)
(-0.00217932 -0.000900034 -0.00289776)
(-0.000779571 -0.000188063 -0.00228347)
(-0.0037906 0.000373894 -0.00122797)
)
;
    }
    wall
    {
        type            calculated;
        value           nonuniform List<vector> 
63
(
(0.0178226 -6.3929e-05 -4.53518e-05)
(0.0235735 -0.00180952 -0.00134358)
(0.0173918 -0.00143165 0.000267352)
(-0.0393053 -8.50636e-05 -0.00316768)
(0.00904925 -3.06973e-05 -0.00112699)
(0.0168034 0.0011499 -0.0010521)
(0.000891301 0.00363112 -0.00182027)
(-0.0715394 0.00423945 -0.00868815)
(0.00957591 0.000339081 -0.0014017)
(0.0185849 0.00309811 0.000215751)
(0.012792 0.00196936 0.000620971)
(-0.00225686 0.00111193 0.00120034)
(0.0244789 -0.000799438 0.00203724)
(0.0102525 -0.00197748 0.00151329)
(-0.00121523 1.68371e-05 0.00211924)
(-0.0627033 0.000386222 -0.000115216)
(0.0350051 -0.00123828 0.00173383)
(0.0122717 -0.00186593 9.63524e-05)
(0.0128378 0.000712677 0.000721286)
(0.00924666 0.00271917 -0.00368914)
(0.0169047 -0.00089412 -0.000459818)
(0.0259749 -0.00109174 0.0005647)
(0.0386121 -0.00147627 0.00149641)
(0.00184124 0.00626633 -0.0034549)
(-0.056241 0.00156296 -0.000268141)
(-0.0599798 -0.000780518 -0.00171678)
(-0.0394707 -0.00240509 0.000827026)
(0.0254087 -0.00106441 0.011969)
(-0.107915 -0.00132521 0.00892864)
(-0.102444 0.00621562 0.0062252)
(-0.137583 -0.000256486 -0.00429625)
(-0.0664962 -0.0194211 2.12794e-05)
(0.00686812 -0.00539904 0.00650437)
(-0.0285882 0.0178156 0.0174213)
(-0.0146205 0.00330849 -0.00485829)
(0.0027815 -0.00253498 -0.00592783)
(-0.00634671 0.00159522 -0.00501258)
(0.00567931 -0.000285003 -0.00314138)
(-0.00980269 0.000182268 0.00105647)
(-0.0176544 0.0020425 -0.00645022)
(-0.00159265 0.00169695 -0.000455826)
(-0.00566596 0.00298395 -0.00127106)
(0.00220137 0.000265492 0.0014545)
(0.00892295 0.00205686 0.00196125)
(0.00127381 0.0022563 -0.00156235)
(0.0137996 0.000202651 -0.00078274)
(0.0198984 -0.000300137 0.00164263)
(0.00422674 0.00050784 -7.77409e-05)
(0.0232189 0.00181028 -0.00210064)
(0.00299361 0.000402246 -0.000266424)
(0.013481 0.00141782 0.0010378)
(0.00337771 0.00611121 -0.00380564)
(-0.00244555 0.00174719 -0.00143018)
(0.000779695 0.00102211 -0.00114498)
(-0.0103815 0.00481448 0.00310023)
(-0.0572068 0.000166832 -0.0006738)
(-0.0464509 -0.000542971 -0.00225944)
(-0.071491 -0.0170776 0.00170348)
(-0.0713897 -0.00169193 -0.000348363)
(-0.101587 -0.000601992 -0.000217127)
(-0.0149991 -0.00139329 -0.00527055)
(-0.0203962 -0.00191733 -0.00479501)
(-0.0151671 0.000121931 -0.000685311)
)
;
    }
    procBoundary3to1
    {
        type            processor;
        value           nonuniform List<vector> 
27
(
(0.00322751 2.19147e-05 -0.00130632)
(0.00134596 -5.52381e-06 -0.00111089)
(-0.000913065 -0.000109428 -0.00088857)
(-0.00468773 -0.000169954 -0.000747176)
(-0.0116197 -9.81492e-05 -0.000829413)
(-0.0200375 6.11771e-05 -0.000761725)
(-0.0370339 0.000343404 -0.000820458)
(-0.045919 0.00105555 -0.000713227)
(-0.0366226 0.00155065 -0.00141696)
(0.00228577 2.2257e-05 -0.00138016)
(0.000669567 -3.07811e-05 -0.00128849)
(-0.00156351 -8.65971e-05 -0.001184)
(-0.00571387 -0.000129522 -0.00106015)
(-0.0121121 -4.98631e-05 -0.00108141)
(-0.0215929 7.90476e-05 -0.00116637)
(-0.0401349 0.000356764 -0.00111887)
(-0.0490702 0.000823141 -0.000998838)
(-0.0403644 0.00101856 -0.00166648)
(0.0017384 -6.74689e-05 -0.00174225)
(0.000566657 -6.51384e-05 -0.00166781)
(-0.0020612 -7.73852e-05 -0.00162085)
(-0.00649607 -9.4434e-05 -0.0015882)
(-0.012607 -3.51601e-05 -0.00159952)
(-0.022414 -1.12913e-05 -0.0016771)
(-0.0415454 0.000236629 -0.00173637)
(-0.0498829 0.000548882 -0.00149152)
(-0.0409156 0.000496056 -0.00158253)
)
;
    }
    procBoundary3to2
    {
        type            processor;
        value           nonuniform List<vector> 
12
(
(0.00450044 -2.70301e-05 -0.0014103)
(0.00412047 1.38229e-05 -0.00147264)
(0.00222198 0.000105143 -0.00171953)
(-0.00157683 0.000275363 -0.00217886)
(0.0031848 5.25399e-05 -0.00158861)
(0.00296871 0.000132763 -0.00168684)
(0.00208934 0.000212678 -0.00198857)
(0.000873836 0.000403111 -0.00265833)
(0.00273371 -5.56895e-07 -0.00200056)
(0.00254397 0.000107459 -0.00205775)
(0.00201172 0.000147543 -0.00221213)
(0.00102844 0.000230515 -0.00239689)
)
;
    }
    procBoundary3to7
    {
        type            processor;
        value           nonuniform List<vector> 
36
(
(0.00152319 1.52115e-05 -0.00226568)
(5.26832e-05 1.85358e-05 -0.00218144)
(-0.00243592 5.59084e-05 -0.00209394)
(-0.00658247 3.84046e-06 -0.00212084)
(-0.0127869 -1.31862e-05 -0.00213478)
(-0.0228794 -1.27962e-05 -0.00215763)
(-0.0422127 -2.18048e-05 -0.0022657)
(-0.0505686 0.00011333 -0.00190249)
(-0.0409499 0.000106749 -0.00164447)
(0.0014895 0.000223915 -0.00229231)
(-9.10152e-06 0.00017322 -0.0021701)
(-0.00242203 0.000147606 -0.00213709)
(-0.00633366 9.77363e-05 -0.0021275)
(-0.0124782 4.39654e-05 -0.00203173)
(-0.0225479 -3.80685e-05 -0.00204592)
(-0.041799 -0.000185635 -0.00209909)
(-0.0508462 -0.000249038 -0.00175874)
(-0.0414536 -0.000184638 -0.00156776)
(0.00138214 0.000450949 -0.00234475)
(0.000126867 0.000380795 -0.00222623)
(-0.00214149 0.000299964 -0.00209473)
(-0.00582803 0.000194247 -0.00201043)
(-0.0118556 8.35231e-05 -0.00193252)
(-0.0216553 -5.96695e-05 -0.00199295)
(-0.0399559 -0.000316518 -0.00211484)
(-0.047697 -0.00054549 -0.00179913)
(-0.0387561 -0.000315956 -0.00151455)
(0.0016148 0.000567615 -0.00220501)
(0.000685867 0.000516494 -0.00217456)
(-0.00199827 0.000406848 -0.00200787)
(-0.00531775 0.000261629 -0.00188616)
(-0.0111219 0.000133555 -0.00185725)
(-0.0204639 -7.7854e-05 -0.00189649)
(-0.0366632 -0.000263629 -0.00190514)
(-0.0434703 -0.000325898 -0.00157806)
(-0.0363978 -0.000166076 -0.00141988)
)
;
    }
}


// ************************************************************************* //
