/*--------------------------------*- C++ -*----------------------------------*\
| =========                 |                                                 |
| \\      /  F ield         | OpenFOAM: The Open Source CFD Toolbox           |
|  \\    /   O peration     | Version:  4.x                                   |
|   \\  /    A nd           | Web:      www.OpenFOAM.org                      |
|    \\/     M anipulation  |                                                 |
\*---------------------------------------------------------------------------*/
FoamFile
{
    version     2.0;
    format      ascii;
    class       volScalarField;
    location    "1";
    object      partTemp;
}
// * * * * * * * * * * * * * * * * * * * * * * * * * * * * * * * * * * * * * //

dimensions      [0 0 0 1 0 0 0];

internalField   nonuniform List<scalar> 
108
(
300.012
300.013
300.01
300.007
299.999
299.989
299.978
299.967
299.963
300.01
300.011
300.011
300.007
300.001
299.991
299.98
299.973
299.966
300.007
300.008
300.009
300.007
300.003
299.997
299.989
299.982
299.974
300.005
300.004
300.005
300.005
300.004
300
299.996
299.99
299.986
300.013
300.015
300.013
300.008
299.999
299.989
299.975
299.961
299.956
300.011
300.013
300.013
300.009
300.002
299.99
299.977
299.966
299.958
300.008
300.009
300.01
300.009
300.005
299.997
299.986
299.975
299.968
300.006
300.002
300.005
300.006
300.005
300
299.993
299.985
299.98
300.012
300.016
300.016
300.012
300.001
299.99
299.974
299.955
299.948
300.01
300.015
300.015
300.012
300.006
299.992
299.976
299.961
299.952
300.007
300.009
300.012
300.012
300.006
299.996
299.986
299.972
299.963
300.004
300.004
300.007
300.007
300.006
300.001
299.993
299.984
299.976
)
;

boundaryField
{
    inlet
    {
        type            zeroGradient;
    }
    outlet
    {
        type            zeroGradient;
    }
    wall
    {
        type            zeroGradient;
    }
    procBoundary3to1
    {
        type            processor;
        value           nonuniform List<scalar> 
27
(
300.012
300.012
300.009
300.005
299.997
299.99
299.977
299.97
299.967
300.013
300.013
300.012
300.007
299.997
299.988
299.977
299.963
299.955
300.012
300.015
300.014
300.012
300.003
299.988
299.971
299.959
299.948
)
;
    }
    procBoundary3to2
    {
        type            processor;
        value           nonuniform List<scalar> 
12
(
300.01
300.008
300.006
300.004
300.01
300.008
300.005
300.003
300.008
300.005
300.004
300.002
)
;
    }
    procBoundary3to7
    {
        type            processor;
        value           nonuniform List<scalar> 
36
(
300.01
300.014
300.016
300.013
300.004
299.989
299.971
299.954
299.942
300.007
300.013
300.015
300.014
300.006
299.996
299.98
299.961
299.948
300.003
300.009
300.011
300.011
300.007
299.999
299.988
299.975
299.962
300.003
300.005
300.007
300.007
300.006
300.002
299.995
299.985
299.978
)
;
    }
}


// ************************************************************************* //
