/*--------------------------------*- C++ -*----------------------------------*\
| =========                 |                                                 |
| \\      /  F ield         | OpenFOAM: The Open Source CFD Toolbox           |
|  \\    /   O peration     | Version:  4.x                                   |
|   \\  /    A nd           | Web:      www.OpenFOAM.org                      |
|    \\/     M anipulation  |                                                 |
\*---------------------------------------------------------------------------*/
FoamFile
{
    version     2.0;
    format      ascii;
    class       surfaceScalarField;
    location    "1";
    object      phi;
}
// * * * * * * * * * * * * * * * * * * * * * * * * * * * * * * * * * * * * * //

dimensions      [0 3 -1 0 0 0 0];

internalField   nonuniform List<scalar> 
249
(
-1.21035e-05
4.66574e-06
2.196e-06
-2.01159e-05
4.9597e-06
1.14571e-06
-2.74159e-05
5.49569e-06
1.16497e-06
-3.06391e-05
4.83784e-06
-1.6337e-07
-3.21485e-05
5.26665e-06
2.62745e-07
-2.91361e-05
2.06913e-06
-8.49882e-07
-2.69664e-05
-8.61449e-08
1.54547e-07
-2.15004e-05
-9.31e-06
9.78279e-07
6.95193e-07
7.76391e-06
-1.16144e-05
8.10579e-06
1.02571e-06
-1.62155e-05
9.23574e-06
-5.11028e-07
-1.9593e-05
9.27103e-06
-9.43467e-07
-2.0729e-05
8.20917e-06
-2.60001e-06
-1.85846e-05
6.51323e-06
-3.6425e-06
-1.54485e-05
2.47117e-06
-3.72012e-06
-1.00869e-05
-1.26836e-06
-4.32009e-06
-5.4038e-06
-1.52524e-05
1.14261e-06
1.28902e-05
-9.57563e-08
-5.29719e-06
7.77646e-06
1.17448e-06
-7.27152e-06
9.75589e-06
3.56624e-07
-7.31081e-06
9.24249e-06
-5.97598e-07
-6.81275e-06
9.42974e-06
-2.1408e-06
-3.32325e-06
7.67045e-06
-4.92849e-06
1.9088e-06
4.05316e-06
-7.01361e-06
6.53167e-06
1.59247e-06
-7.63521e-06
8.02495e-06
-1.21935e-05
-4.67649e-06
2.34001e-05
4.60481e-06
2.21423e-05
3.78627e-06
2.72818e-05
3.49243e-06
3.203e-05
3.79243e-06
3.7999e-05
3.01108e-06
4.40767e-05
1.29383e-06
4.91051e-05
-1.18591e-06
5.50965e-05
-4.55625e-06
4.43329e-05
-1.55849e-06
-2.99527e-05
-8.40475e-06
3.08226e-06
4.54555e-06
-1.75539e-05
3.55811e-06
3.63982e-06
-2.6821e-05
3.76693e-06
4.25378e-06
-3.03053e-05
3.28972e-06
-5.04451e-07
-3.10926e-05
3.00077e-06
-5.0788e-07
-2.75498e-05
1.87413e-06
-2.98995e-06
-2.48566e-05
1.49641e-06
-1.8525e-06
-1.68727e-05
5.61363e-07
-4.8735e-06
2.59184e-06
7.62898e-06
-8.13353e-06
5.79291e-06
2.71755e-06
-1.45313e-05
7.74431e-06
9.7184e-07
-2.04844e-05
7.00864e-06
1.28121e-06
-2.30385e-05
5.2276e-06
-2.31636e-06
-2.37479e-05
2.52256e-06
-2.69002e-06
-2.18639e-05
-1.44952e-07
-3.75907e-06
-2.02721e-05
-1.81611e-06
-2.73631e-06
-1.21771e-05
-1.84227e-06
-4.66333e-06
1.08576e-06
4.09543e-06
-4.45772e-06
5.61202e-06
3.14892e-06
-7.38448e-06
7.64338e-06
2.44403e-06
-9.71728e-06
6.15149e-06
2.00671e-06
-1.06228e-05
4.72449e-06
-1.11631e-06
-1.17819e-05
7.00243e-07
-2.21004e-06
-1.16024e-05
-3.6508e-06
-3.87838e-06
-1.55013e-05
-4.48489e-06
-1.21338e-06
-8.57266e-06
-6.68604e-06
-6.88239e-06
8.79005e-07
3.18129e-06
2.16766e-05
6.40923e-06
2.53477e-05
6.49894e-06
2.71022e-05
7.56771e-06
2.80666e-05
6.36207e-06
2.328e-05
6.50048e-06
1.42063e-05
4.03757e-06
3.14393e-07
4.69906e-06
-4.78174e-06
-3.27247e-06
-9.40626e-07
4.76088e-06
2.15608e-06
2.42852e-06
2.41482e-06
-4.25898e-07
3.43096e-06
-3.52861e-06
2.47628e-06
-8.03236e-06
3.88462e-06
-9.11704e-06
1.82214e-06
-1.21761e-05
1.18968e-06
-2.59148e-06
-9.30015e-07
-9.79845e-07
1.78758e-06
3.75159e-06
-5.16584e-07
4.80931e-06
-2.23002e-06
4.9153e-06
-5.57698e-06
4.77857e-06
-7.85443e-06
5.20001e-06
-9.89675e-06
2.44421e-06
-1.05843e-05
2.28281e-06
-1.29993e-06
-8.45199e-06
1.04206e-05
2.68453e-06
4.55031e-06
1.73631e-06
5.70812e-06
1.66045e-06
4.81507e-06
4.80198e-07
4.92807e-06
-3.51627e-07
3.63039e-06
-1.43995e-08
1.05273e-06
-4.15927e-07
8.11188e-07
3.43238e-06
-1.10998e-05
2.07264e-05
2.46438e-05
2.87703e-05
3.22742e-05
3.60223e-05
3.85391e-05
3.79021e-05
3.76608e-05
2.60017e-05
)
;

boundaryField
{
    inlet
    {
        type            calculated;
        value           nonuniform 0();
    }
    outlet
    {
        type            calculated;
        value           nonuniform List<scalar> 
12
(
-2.77008e-05
-1.76094e-05
-7.20184e-06
9.75699e-05
-1.89512e-05
-1.4966e-05
-7.05158e-06
-3.30262e-05
2.78764e-06
-1.12421e-05
-5.67949e-06
2.97542e-05
)
;
    }
    wall
    {
        type            calculated;
        value           uniform 0;
    }
    procBoundary3to1
    {
        type            processor;
        value           nonuniform List<scalar> 
27
(
7.41033e-07
1.34112e-06
2.35841e-07
-1.74194e-06
-4.23485e-06
-4.39506e-06
-2.36653e-06
2.75847e-06
-2.3563e-06
1.02986e-06
2.5992e-06
2.04586e-06
2.67164e-07
-1.64444e-06
-3.43287e-06
-2.30755e-06
-2.7997e-06
-4.75024e-07
-5.68567e-07
3.47814e-07
3.32181e-07
8.93267e-07
-3.51907e-08
-7.96518e-07
4.75042e-07
-4.14102e-06
-1.09194e-06
)
;
    }
    procBoundary3to2
    {
        type            processor;
        value           nonuniform List<scalar> 
12
(
3.73351e-06
5.80771e-06
2.47286e-06
-1.9952e-05
1.28942e-06
2.61631e-06
1.02631e-06
-2.01928e-05
-4.43481e-06
-2.596e-06
-3.23601e-06
-2.24158e-05
)
;
    }
    procBoundary3to7
    {
        type            processor;
        value           nonuniform List<scalar> 
36
(
2.16778e-06
2.82498e-06
3.04264e-06
-1.00578e-06
-3.45579e-08
-3.07368e-06
-5.75739e-07
-9.48855e-06
4.22786e-06
1.19901e-06
3.43566e-07
1.12316e-06
-1.55409e-06
-1.93789e-06
-2.49822e-06
-3.26928e-06
-6.53357e-06
2.53785e-06
1.90691e-06
1.82177e-06
1.72213e-06
-4.10234e-07
-4.23478e-08
-2.99746e-06
5.24801e-07
-8.19653e-06
1.88316e-06
7.74807e-06
7.37513e-06
8.38558e-06
7.19614e-06
7.36809e-06
5.54709e-06
5.61207e-06
-2.83012e-06
1.59267e-05
)
;
    }
}


// ************************************************************************* //
