/*--------------------------------*- C++ -*----------------------------------*\
| =========                 |                                                 |
| \\      /  F ield         | OpenFOAM: The Open Source CFD Toolbox           |
|  \\    /   O peration     | Version:  4.x                                   |
|   \\  /    A nd           | Web:      www.OpenFOAM.org                      |
|    \\/     M anipulation  |                                                 |
\*---------------------------------------------------------------------------*/
FoamFile
{
    version     2.0;
    format      ascii;
    class       volVectorField;
    location    "1";
    object      U;
}
// * * * * * * * * * * * * * * * * * * * * * * * * * * * * * * * * * * * * * //

dimensions      [0 1 -1 0 0 0 0];

internalField   nonuniform List<vector> 
108
(
(-0.0271087 0.00818964 0.000277321)
(-0.0315166 0.00546756 -0.00173763)
(-0.0708299 0.00613285 0.000712061)
(-0.0672076 0.00617388 0.00279194)
(-0.0887996 0.00956313 0.00443916)
(-0.0732323 0.00448477 0.00204627)
(-0.076237 0.00149182 0.00299258)
(-0.0606262 -0.014806 0.00684546)
(-0.0504788 0.0163168 0.0147143)
(-0.0329619 0.0183858 -0.00116717)
(-0.0239723 0.0209363 -0.00417801)
(-0.0583648 0.0222527 -0.00463197)
(-0.0400774 0.0187846 -0.00620418)
(-0.0660774 0.0177548 -0.00917483)
(-0.0274847 0.00626712 -0.00966876)
(-0.0529333 -0.00206697 -0.0145371)
(0.0023803 -0.0342822 0.00740007)
(-0.0312881 -0.0127637 -0.00873466)
(-0.0236651 0.0236753 -0.00121441)
(-0.00150062 0.0270945 -0.00252633)
(-0.0353411 0.0257539 -0.00482203)
(-0.000665365 0.0237569 -0.00593454)
(-0.0345714 0.0162759 -0.0139973)
(0.018563 0.00650853 -0.0212692)
(-0.00907072 -0.0047201 -0.0281653)
(0.0438635 -0.046655 -0.0110373)
(-0.00347825 0.0807606 0.011318)
(0.0419565 0.0167662 0.0049297)
(0.0715184 0.0239647 0.00590517)
(0.0633112 0.0219945 0.00432968)
(0.0982462 0.0251651 0.00156871)
(0.0933895 0.0237126 -0.00527892)
(0.131505 0.0147618 -0.00968999)
(0.117064 0.0130381 -0.0209915)
(0.165878 -0.0176066 -0.00386476)
(0.059657 0.0422424 -0.0565582)
(-0.020197 0.00464474 0.0124542)
(-0.0216576 0.00147939 0.00803159)
(-0.0701221 0.001761 0.00559374)
(-0.0688885 0.00279772 -0.0037416)
(-0.0901397 0.00493553 -0.00312654)
(-0.071146 0.00576549 -0.0066562)
(-0.0739581 0.00452369 -0.00221601)
(-0.0552964 0.0035438 -0.00173424)
(-0.0344458 0.00443722 0.0269874)
(-0.0237504 0.0126334 0.00718744)
(-0.0167707 0.0173821 0.00201267)
(-0.0588704 0.0181486 -7.76311e-05)
(-0.046894 0.0145673 -0.00746287)
(-0.0738179 0.0109624 -0.0100709)
(-0.048982 0.0042252 -0.0100442)
(-0.0669712 0.00344805 -0.00845467)
(-0.0385697 -0.00047426 -0.00139946)
(-0.0265942 0.00953367 0.00834187)
(-0.0203236 0.0182968 0.00772811)
(-0.00107767 0.0234385 0.00495297)
(-0.0377525 0.0189624 0.00201398)
(-0.0117264 0.0132659 -0.00521037)
(-0.0441944 0.00242734 -0.0119828)
(-0.0162509 -0.00515088 -0.0158343)
(-0.0456604 -0.0132688 -0.0122959)
(-0.0346249 -0.0096089 -0.0139435)
(-0.0113563 -0.00358677 0.0133872)
(0.0431896 0.0114425 0.0142746)
(0.0721739 0.0182771 0.0138851)
(0.0553236 0.0141103 0.0162306)
(0.0850665 0.0119119 0.0145538)
(0.0597926 0.00137877 0.0124981)
(0.0621331 -0.0143762 0.00362328)
(0.0106395 -0.0108538 -0.00279058)
(-0.00787994 -0.0264516 -0.00454346)
(-0.018072 0.00820224 -0.102719)
(-0.00274642 0.00537208 0.0125353)
(0.0291688 0.0048912 0.0119485)
(-0.0169415 0.00637284 0.0176475)
(0.0150057 0.00232942 0.00121264)
(-0.0346857 0.00473747 0.000464299)
(-0.00693939 0.00278586 -0.00957608)
(-0.0431212 -0.00161529 -0.00796428)
(-0.0210937 0.00782916 -0.0250486)
(0.00624668 -0.00190165 0.0146802)
(-0.00540356 0.00632196 0.0081816)
(0.0160226 0.00796376 0.00374935)
(-0.0192703 0.0121522 0.00727656)
(0.00830581 0.010861 -0.00482278)
(-0.0386603 0.01626 -0.00432812)
(-0.0017611 0.00715782 -0.0103409)
(-0.0525026 0.00804769 -0.00648958)
(-0.00296613 -0.012939 -0.0243464)
(-0.00522815 -0.00368373 0.0139739)
(-0.00601144 0.0137512 0.0101836)
(0.021595 0.0179105 0.00858932)
(-0.0130314 0.0144067 0.00909814)
(0.0227213 0.0149477 -0.000528067)
(-0.0204737 0.0118763 0.000222664)
(0.0197394 0.0060995 -0.00515999)
(-0.0208449 0.00454916 0.00588974)
(0.0198831 -0.0338777 -0.0238186)
(-0.00241747 0.0609878 0.00382449)
(0.0510057 0.0110318 0.0217454)
(0.0789369 0.0131976 0.0198641)
(0.0698695 0.0116626 0.02387)
(0.0998944 0.0115886 0.0196218)
(0.0885768 0.00790328 0.0225826)
(0.116408 -0.000255466 0.0183679)
(0.0837206 -0.000184746 0.0284823)
(0.118601 -0.0270403 -0.0132962)
(0.018866 0.0525262 0.0986825)
)
;

boundaryField
{
    inlet
    {
        type            fixedValue;
        value           nonuniform 0();
    }
    outlet
    {
        type            zeroGradient;
    }
    wall
    {
        type            fixedValue;
        value           uniform (0 0 0);
    }
    procBoundary3to1
    {
        type            processor;
        value           nonuniform List<vector> 
27
(
(-0.0372515 -0.0150198 0.00463433)
(-0.0361613 -0.0146691 0.00192497)
(-0.0689489 -0.00856037 0.00366184)
(-0.0608578 0.00228291 0.00496397)
(-0.0847145 0.0122552 0.00902541)
(-0.0676002 0.0183238 0.00661117)
(-0.0825059 0.0109263 0.00455285)
(-0.0712249 0.000161882 -0.000256084)
(-0.0683681 -0.00376104 0.00539533)
(-0.0405277 -0.0119264 0.00564745)
(-0.0393592 -0.0161697 -0.000305856)
(-0.0741022 -0.0131948 0.000104786)
(-0.0640633 -0.00459687 -8.92379e-05)
(-0.0825334 0.00363671 0.00677346)
(-0.0538091 0.0124933 0.00699322)
(-0.0670025 0.00789227 0.0121868)
(-0.0421798 0.0115309 -0.00148036)
(-0.0433147 -0.00175071 0.0323358)
(-0.0217722 -0.0033662 0.0130436)
(-0.008809 -0.00737516 0.00563989)
(-0.0498072 -0.00857213 0.00504956)
(-0.0340647 -0.00747597 -0.00614733)
(-0.0659657 -0.0047638 -0.0027635)
(-0.0340777 0.00140956 -0.0070505)
(-0.0600958 -0.0010324 0.00205675)
(-0.00650361 0.0148174 -0.015218)
(-0.0240224 0.00796208 0.0445896)
)
;
    }
    procBoundary3to2
    {
        type            processor;
        value           nonuniform List<vector> 
12
(
(0.00876679 0.00729755 0.00135401)
(0.00424682 0.0156856 0.000384352)
(0.0116012 0.0213728 0.0014299)
(0.0573911 0.0170997 0.00649148)
(0.0139125 0.00509119 0.00422093)
(0.0108176 0.00750285 0.00139553)
(0.015124 0.016251 0.00282219)
(0.0583267 0.0126747 0.0107147)
(0.0257213 0.00525499 0.00978356)
(0.0191349 0.00546468 0.00491528)
(0.0231996 0.0135303 0.00694875)
(0.0649314 0.0108875 0.0165339)
)
;
    }
    procBoundary3to7
    {
        type            processor;
        value           nonuniform List<vector> 
36
(
(0.00335658 0.000990369 -0.00060587)
(0.0367191 0.00233279 0.00356947)
(0.00179157 0.000543269 -0.000892871)
(0.037833 -0.00320797 -0.0068061)
(-0.00981242 -0.00273943 -0.000665535)
(0.00838959 -0.000911825 -0.00736084)
(-0.0263101 -0.00272477 0.00486384)
(-0.014518 0.014527 -0.0274818)
(0.00531608 -0.0114493 0.00868187)
(0.00356591 0.00112494 -0.00130342)
(0.0170173 0.00513204 -0.00178023)
(-0.00485384 0.00430886 -0.000995265)
(0.0148927 0.00413409 -0.00354989)
(-0.0298212 0.0131137 -0.00628271)
(0.00517301 0.00298679 -0.00333614)
(-0.0417668 0.00546367 -0.0116661)
(0.00691905 -0.0162875 -0.0118652)
(-0.00881514 -0.00926627 -5.82799e-06)
(0.00280837 0.00355158 0.000437115)
(0.0223976 0.0103521 0.00157079)
(-0.00103629 0.00504953 0.00049246)
(0.0238499 0.012074 -0.00163914)
(-0.00752561 0.00552126 -0.00031981)
(0.0302863 0.00515007 -0.0113548)
(-0.000138869 0.00390833 -0.00307845)
(0.0564109 -0.0377529 -0.0214759)
(-0.00103808 0.117994 0.00657864)
(0.0636743 0.00981255 0.0198805)
(0.0898146 0.01125 0.0204204)
(0.0820884 0.011026 0.022104)
(0.11059 0.0109033 0.0196011)
(0.106832 0.00961631 0.0177752)
(0.142748 0.0033375 0.0121969)
(0.130583 0.00479866 0.00226878)
(0.200236 -0.0183561 -0.00220357)
(0.0697418 0.0667978 -0.0113887)
)
;
    }
}


// ************************************************************************* //
