/*--------------------------------*- C++ -*----------------------------------*\
  =========                 |
  \\      /  F ield         | OpenFOAM: The Open Source CFD Toolbox
   \\    /   O peration     | Website:  https://openfoam.org
    \\  /    A nd           | Version:  4.x
     \\/     M anipulation  |
\*---------------------------------------------------------------------------*/
FoamFile
{
    version     2.0;
    format      ascii;
    class       Cloud<passiveParticle>;
    location    0;
    object      positions;
}
// * * * * * * * * * * * * * * * * * * * * * * * * * * * * * * * * * * * * * //

258
(
( 0.0239039 0.0373768 0.0153915 ) 6
( 0.248685 0.0515992 -0.00690152 ) 2
( 0.0274539 0.0279973 0.0324901 ) 6
( 0.032667 0.0721713 0.0175502 ) 25
( 0.242451 0.0711934 0.000272899 ) 2
( 0.197084 0.0713162 0.00281373 ) 1
( 0.225791 0.0399156 -0.0104296 ) 0
( 0.10607 0.045619 0.0369956 ) 18
( 0.167822 0.0195859 0.018739 ) 12
( 0.131515 0.034516 0.0151918 ) 10
( 0.0683763 0.0674875 0.030874 ) 17
( 0.219373 0.0675157 0.00873811 ) 1
( 0.05438 0.0347197 0.0266279 ) 7
( 0.139893 0.0400369 0.0351675 ) 11
( 0.0876983 0.0459038 0.0297762 ) 18
( 0.11113 0.0899894 0.0147643 ) 28
( 0.0347231 0.0152722 0.019616 ) 7
( 0.064599 0.090073 0.0200193 ) 26
( 0.179181 0.0835262 0.0155636 ) 30
( 0.163991 0.0745213 0.0244519 ) 29
( 0.0485227 0.0727936 0.0304774 ) 25
( 0.240547 0.0901437 0.0189343 ) 32
( 0.230018 0.0220722 -0.00346059 ) 0
( 0.108782 0.0619941 0.022496 ) 18
( 0.0964418 0.0291506 0.0242393 ) 9
( 0.189916 0.051015 0.0147434 ) 21
( 0.132705 0.0149087 0.0178058 ) 10
( 0.214904 0.0717515 -0.00994864 ) 4
( 0.139782 0.0520853 0.019725 ) 20
( 0.0154011 0.017884 0.0171811 ) 6
( 0.117465 0.0783803 0.0295166 ) 28
( 0.131742 0.0203039 0.0365652 ) 10
( 0.203613 0.0369153 0.0171329 ) 13
( 0.213899 0.0534461 0.0213137 ) 22
( 0.00976601 0.0745008 0.0216344 ) 24
( 0.206275 0.0518703 0.00317399 ) 1
( 0.0986049 0.0899559 0.0300011 ) 27
( 0.110515 0.0153309 0.0251102 ) 9
( 0.201057 0.0269947 0.0339535 ) 13
( 0.239468 0.0358924 0.0163917 ) 14
( 0.146013 0.0730618 0.0167127 ) 29
( 0.0915169 0.0633111 0.0383153 ) 18
( 0.191164 0.0902302 0.00128952 ) 3
( 0.159661 0.0557233 0.0208596 ) 20
( 0.0196014 0.0901924 0.0281104 ) 24
( 0.216154 0.0867965 0.0209962 ) 31
( 0.23177 0.052932 0.00294989 ) 2
( 0.224364 0.0278518 0.0261515 ) 14
( 0.130397 0.0900909 0.0197346 ) 28
( 0.173304 0.0901604 -0.00756482 ) 3
( 0.00981575 0.0193784 0.0360169 ) 6
( 0.231496 0.0491424 0.0301779 ) 23
( 0.196741 0.0901822 0.0218197 ) 31
( 0.0373012 0.0513591 0.0195612 ) 16
( 0.0683228 0.0502265 0.0209757 ) 17
( 0.0797336 0.083813 0.0312107 ) 26
( 0.240459 0.0165943 0.0122318 ) 0
( 0.195292 0.0703449 0.0223691 ) 22
( 0.149263 0.0902476 0.0258482 ) 29
( 0.150852 0.0258252 0.0271039 ) 11
( 0.208307 0.0902091 -0.00854826 ) 4
( 0.243129 0.0903919 -0.00379319 ) 5
( 0.0920416 0.0724189 0.0206863 ) 27
( 0.0387529 0.0896847 0.024271 ) 25
( 0.0186454 0.0568594 0.022449 ) 15
( 0.227755 0.0748315 0.0315662 ) 32
( 0.00989664 0.0380733 0.0291669 ) 6
( 0.224621 0.0900646 0.00336327 ) 5
( 0.236407 0.0641108 0.0181436 ) 23
( 0.127278 0.0670283 0.0174871 ) 19
( 0.197911 0.0505012 0.0326568 ) 22
( 0.185288 0.028956 0.0172271 ) 12
( 0.0762838 0.0319815 0.0213804 ) 8
( 0.248195 0.0753746 0.0296675 ) 32
( 0.0515853 0.0534784 0.0329279 ) 16
( 0.166899 0.0381323 0.0255017 ) 12
( 0.0536804 0.0151958 0.0535628 ) 34
( 0.0883471 0.0319221 0.0573363 ) 36
( 0.167347 0.0676062 0.042274 ) 21
( 0.113222 0.0418208 0.0190461 ) 10
( 0.048972 0.032002 0.062725 ) 34
( 0.208343 0.0547856 0.0520953 ) 49
( 0.0289776 0.0595428 0.0546023 ) 43
( 0.124659 0.0558368 0.0552637 ) 46
( 0.181609 0.0274839 0.0571169 ) 39
( 0.175609 0.0900167 0.0531968 ) 57
( 0.0314256 0.040348 0.0591678 ) 34
( 0.0713783 0.059625 0.0589461 ) 44
( 0.104801 0.0219624 0.062382 ) 36
( 0.10801 0.0804518 0.0593253 ) 54
( 0.105813 0.059472 0.0601491 ) 45
( 0.0552917 0.08904 0.0560863 ) 52
( 0.150427 0.0695705 0.0569355 ) 47
( 0.132127 0.0398948 0.0639709 ) 37
( 0.0208363 0.0793703 0.0569371 ) 51
( 0.17984 0.0552489 0.0553923 ) 48
( 0.139686 0.0214723 0.0647838 ) 38
( 0.0701956 0.0399231 0.0586792 ) 35
( 0.134453 0.0900802 0.0589105 ) 55
( 0.238399 0.0470226 0.0496335 ) 50
( 0.00987978 0.017085 0.0644136 ) 33
( 0.228659 0.0874759 0.0564463 ) 59
( 0.207456 0.0760471 0.0524486 ) 58
( 0.0839937 0.089151 0.0658635 ) 54
( 0.149087 0.0490304 0.0574634 ) 47
( 0.158956 0.0901146 0.067434 ) 56
( 0.00972228 0.0635637 0.0595152 ) 42
( 0.0955333 0.0379346 0.0744003 ) 63
( 0.249459 0.017594 0.0549326 ) 41
( 0.192466 0.0653712 0.0445299 ) 48
( 0.0446924 0.0526911 0.0697004 ) 43
( 0.0843664 0.0736387 0.0535358 ) 54
( 0.22546 0.0609935 0.0448698 ) 50
( 0.113002 0.0906126 0.0436205 ) 55
( 0.197061 0.051453 0.0679183 ) 49
( 0.12979 0.0724537 0.0458892 ) 55
( 0.166345 0.0903793 0.0356776 ) 29
( 0.0615686 0.0168764 0.0732703 ) 62
( 0.0381561 0.0831335 0.0468813 ) 52
( 0.22944 0.018127 0.0603744 ) 41
( 0.199473 0.0203307 0.0522917 ) 40
( 0.212052 0.0352751 0.0549035 ) 40
( 0.164876 0.0372259 0.0612338 ) 38
( 0.106052 0.0260057 0.0412666 ) 9
( 0.0215637 0.0251696 0.0509397 ) 33
( 0.0136104 0.0395742 0.0678705 ) 33
( 0.166667 0.0246935 0.0444893 ) 39
( 0.0439732 0.0708221 0.0614292 ) 43
( 0.249812 0.0572688 0.0374135 ) 23
( 0.0570321 0.066492 0.0471882 ) 44
( 0.111063 0.0641948 0.0419054 ) 18
( 0.0097607 0.0903065 0.0449853 ) 51
( 0.216812 0.0897953 0.0406178 ) 31
( 0.0941431 0.0902364 0.0491082 ) 54
( 0.249286 0.0459753 0.0689541 ) 50
( 0.17117 0.0719281 0.0607776 ) 57
( 0.0311918 0.0651168 0.035869 ) 16
( 0.179031 0.0560488 0.0313848 ) 21
( 0.152259 0.0549118 0.0390458 ) 20
( 0.0737638 0.0901336 0.048968 ) 53
( 0.0638567 0.0297187 0.0430856 ) 35
( 0.0260562 0.0464125 0.0391574 ) 15
( 0.043168 0.0320621 0.0438594 ) 34
( 0.122984 0.0336685 0.0479388 ) 37
( 0.148535 0.0305888 0.0499682 ) 38
( 0.151683 0.0902394 0.0489956 ) 56
( 0.182788 0.0333351 0.0362878 ) 12
( 0.125929 0.0729204 0.0653015 ) 55
( 0.209593 0.0666916 0.0352461 ) 22
( 0.0887444 0.0515543 0.0540881 ) 45
( 0.197068 0.0900802 0.0417008 ) 31
( 0.106269 0.0404007 0.0559112 ) 36
( 0.116919 0.0472442 0.0742669 ) 73
( 0.24735 0.0787424 0.0561621 ) 59
( 0.0859974 0.0707679 0.0730778 ) 72
( 0.246538 0.0372362 0.0346363 ) 14
( 0.0123822 0.0606089 0.0405239 ) 15
( 0.219714 0.0665818 0.0711659 ) 49
( 0.228808 0.030507 0.0452786 ) 41
( 0.121609 0.0252363 0.0721635 ) 64
( 0.083278 0.0277634 0.0390242 ) 8
( 0.193537 0.0708435 0.0657008 ) 48
( 0.134495 0.0903015 0.0390169 ) 28
( 0.182208 0.0788965 0.0346166 ) 30
( 0.236499 0.0905784 0.0384346 ) 32
( 0.0275021 0.0631836 0.0738249 ) 69
( 0.180347 0.015393 0.0733614 ) 66
( 0.0534562 0.0474267 0.0514505 ) 43
( 0.0537499 0.0904701 0.036708 ) 25
( 0.0638391 0.0502437 0.0743111 ) 71
( 0.0727051 0.0512109 0.0412981 ) 17
( 0.0491311 0.01661 0.0330475 ) 7
( 0.241481 0.017539 0.037031 ) 14
( 0.0348239 0.0902405 0.0651771 ) 52
( 0.21465 0.0412398 0.0366866 ) 13
( 0.158324 0.0589491 0.0717402 ) 74
( 0.127688 0.055644 0.035351 ) 19
( 0.149124 0.0743021 0.0376606 ) 29
( 0.210081 0.083883 0.0703233 ) 58
( 0.134971 0.0572379 0.0733835 ) 73
( 0.0105393 0.0900354 0.0702578 ) 51
( 0.00968 0.0408478 0.0486748 ) 33
( 0.0274623 0.0230565 0.0733978 ) 60
( 0.193798 0.0901225 0.0611344 ) 57
( 0.238458 0.0744942 0.075987 ) 86
( 0.143312 0.0790792 0.0728201 ) 83
( 0.100981 0.0206376 0.0816358 ) 63
( 0.168554 0.0444882 0.0436419 ) 48
( 0.149162 0.0366591 0.0726343 ) 65
( 0.066015 0.0744969 0.0704552 ) 53
( 0.101936 0.0900258 0.0759544 ) 81
( 0.211904 0.0361395 0.0741498 ) 67
( 0.0865462 0.0310885 0.0905426 ) 63
( 0.19362 0.0417627 0.0506004 ) 39
( 0.175322 0.0488675 0.0730114 ) 75
( 0.0728464 0.0192579 0.0571972 ) 35
( 0.0095265 0.0563124 0.077461 ) 69
( 0.165923 0.0755638 0.0789722 ) 83
( 0.188893 0.0345259 0.0740299 ) 66
( 0.0931327 0.0552348 0.082999 ) 72
( 0.244606 0.0429664 0.0903263 ) 77
( 0.121684 0.0901631 0.0740283 ) 82
( 0.0772804 0.0291931 0.073551 ) 62
( 0.0426975 0.0732221 0.0810112 ) 79
( 0.0510636 0.0370893 0.0814344 ) 61
( 0.109233 0.0703287 0.0756904 ) 72
( 0.229361 0.040351 0.0658659 ) 41
( 0.0226919 0.07347 0.0901378 ) 78
( 0.16982 0.03101 0.0795277 ) 66
( 0.0296951 0.0433772 0.0787441 ) 70
( 0.110519 0.0370327 0.0901247 ) 63
( 0.202161 0.0579086 0.0859799 ) 76
( 0.236177 0.0628528 0.0607947 ) 50
( 0.0765393 0.0738868 0.0901886 ) 80
( 0.165134 0.0150053 0.0903435 ) 65
( 0.198362 0.0772309 0.0845788 ) 85
( 0.00974693 0.0261327 0.0817859 ) 60
( 0.227631 0.090524 0.0759674 ) 86
( 0.183302 0.0648086 0.0815412 ) 75
( 0.147999 0.0528663 0.0876784 ) 74
( 0.234311 0.0548172 0.0785271 ) 77
( 0.0517093 0.0903164 0.0751498 ) 79
( 0.130685 0.0671833 0.0901159 ) 73
( 0.0602851 0.061177 0.090237 ) 71
( 0.233487 0.0280799 0.0808851 ) 68
( 0.0711585 0.0904625 0.0804892 ) 80
( 0.140642 0.0900593 0.0901044 ) 83
( 0.010042 0.0900254 0.0901333 ) 78
( 0.135556 0.0289787 0.0858024 ) 64
( 0.201507 0.0204625 0.0799159 ) 67
( 0.18081 0.043944 0.0906863 ) 75
( 0.178006 0.0902406 0.0728845 ) 84
( 0.201456 0.0387255 0.0904464 ) 67
( 0.074627 0.0470181 0.0903492 ) 71
( 0.149905 0.0724774 0.0902543 ) 83
( 0.0399146 0.0558778 0.090231 ) 70
( 0.115101 0.0814089 0.0905319 ) 82
( 0.224725 0.0673233 0.0903288 ) 77
( 0.111489 0.0573847 0.0903294 ) 73
( 0.0374041 0.0900347 0.0901448 ) 79
( 0.0359624 0.0285222 0.0904113 ) 61
( 0.185491 0.0242216 0.0904666 ) 66
( 0.211957 0.0902201 0.0903105 ) 85
( 0.154022 0.0342966 0.0908708 ) 65
( 0.118234 0.018713 0.0906053 ) 64
( 0.249976 0.0706119 0.0908048 ) 77
( 0.160658 0.0901304 0.0905129 ) 83
( 0.129041 0.0472716 0.0901346 ) 73
( 0.0662834 0.0283626 0.0903303 ) 62
( 0.243186 0.0900358 0.0901488 ) 86
( 0.221533 0.0406562 0.0904635 ) 67
( 0.217965 0.0208823 0.0907987 ) 67
( 0.166831 0.0585794 0.0902593 ) 75
( 0.0138224 0.0429846 0.090735 ) 69
( 0.0578193 0.0808281 0.0908153 ) 80
( 0.0882286 0.0902277 0.0902756 ) 81
( 0.180269 0.0821904 0.0905699 ) 84
( 0.0972139 0.0727099 0.090666 ) 81
)
