/*--------------------------------*- C++ -*----------------------------------*\
| =========                 |                                                 |
| \\      /  F ield         | OpenFOAM: The Open Source CFD Toolbox           |
|  \\    /   O peration     | Version:  4.x                                   |
|   \\  /    A nd           | Web:      www.OpenFOAM.org                      |
|    \\/     M anipulation  |                                                 |
\*---------------------------------------------------------------------------*/
FoamFile
{
    version     2.0;
    format      ascii;
    class       volVectorField;
    location    "43.5";
    object      GField;
}
// * * * * * * * * * * * * * * * * * * * * * * * * * * * * * * * * * * * * * //

dimensions      [1 -2 -1 0 0 0 0];

internalField   nonuniform List<vector> 
108
(
(96.1498 -2.98771 -1.81489)
(40.956 -1.38437 -1.16881)
(97.5138 -3.15117 -1.72406)
(43.6797 -1.2922 -1.32208)
(99.3627 -2.37641 -0.854693)
(45.545 -0.760897 -0.967984)
(100.985 -1.69448 -0.701634)
(46.0009 -0.761045 -0.959744)
(102.819 -1.64068 0.573153)
(94.4012 -5.2438 -1.47845)
(33.4309 -2.45626 -0.782877)
(92.2303 -5.36246 -1.07305)
(26.4086 -1.83083 -0.776697)
(90.9683 -3.9282 -0.357193)
(21.6508 -1.31399 -0.475234)
(91.2117 -2.93362 0.0748046)
(17.0663 -1.27479 -0.428004)
(91.5939 -1.7298 0.927075)
(94.1721 -2.99449 -1.33268)
(29.9501 -1.65291 -0.614529)
(89.7786 -3.37175 -0.561078)
(19.5735 -1.15792 -0.17949)
(87.8965 -2.92866 0.258792)
(12.259 -0.866392 0.168199)
(87.5451 -1.70531 -0.380365)
(4.82731 -0.385557 0.209239)
(87.5787 0.457696 -0.52928)
(94.4191 -1.83729 -2.00934)
(29.6754 -0.454446 -0.747974)
(89.0845 -1.64139 -1.20107)
(17.5466 -0.649992 -0.680326)
(86.2537 -1.40833 -0.739296)
(7.02831 -0.354938 -0.190632)
(84.7199 0.135926 -0.535709)
(0.00818943 -0.000645418 -0.000178408)
(83.9539 0.0703185 0.194916)
(96.0753 -2.35208 0.558052)
(41.2593 -1.01187 0.185065)
(97.6805 -2.00965 0.597683)
(43.3866 -0.761132 -0.578785)
(98.7991 -1.59636 -0.139582)
(45.039 -0.655474 -0.847906)
(100.244 -1.13949 -0.00675305)
(44.1061 -0.129718 -0.839801)
(100.042 -0.472943 0.401434)
(95.1258 -4.60759 1.24485)
(36.4394 -2.42473 0.444609)
(94.256 -4.84448 1.83929)
(33.3162 -1.7072 0.102596)
(93.5589 -3.7532 1.08404)
(29.9355 -1.15846 -0.265414)
(93.1129 -2.28768 0.990627)
(25.268 -0.621463 -0.268353)
(93.0046 -1.39826 1.1693)
(94.8522 -3.11017 1.64468)
(32.3117 -1.34279 0.642281)
(91.0606 -2.87666 2.04231)
(23.6888 -0.90924 0.456658)
(88.9008 -1.69086 1.50261)
(16.5577 -0.367018 0.25542)
(88.4244 -0.313507 1.42558)
(10.0547 -0.063179 0.246315)
(88.6815 0.163243 0.824667)
(93.6568 -0.976827 1.23966)
(31.371 0.0760075 1.01104)
(90.1213 -0.175178 2.42498)
(22 -0.0206563 0.656099)
(87.7744 -0.139656 2.51418)
(14.7564 -0.23911 0.690942)
(87.2267 -0.201591 2.28101)
(9.45372 -0.20279 0.464647)
(88.1193 -0.189254 0.406981)
(96.448 -2.26659 1.51315)
(45.7173 -1.17959 1.09695)
(101.627 -1.9444 2.26941)
(53.8241 -0.685114 0.833861)
(104.97 -1.17512 1.7603)
(58.2082 -0.325073 0.571607)
(107.362 -0.777577 2.27253)
(61.7658 -0.384714 1.56758)
(111.286 -1.00526 3.07013)
(95.6382 -4.25242 1.58075)
(41.617 -2.37949 0.933625)
(97.6178 -4.18138 2.33341)
(45.9645 -1.6616 0.934796)
(99.9862 -2.72251 2.17983)
(48.6968 -1.21787 0.904378)
(102.012 -1.9893 2.64267)
(50.771 -1.34881 1.19483)
(104.718 -1.92127 2.47271)
(94.5502 -2.98434 1.86014)
(39.0121 -1.34939 1.26294)
(94.764 -2.90038 2.95479)
(39.9206 -1.24022 1.19619)
(96.0846 -1.73494 2.93665)
(41.4308 -0.565301 0.941848)
(97.989 -0.655377 2.81688)
(43.2843 -0.663268 1.08888)
(100.33 -0.775425 2.66964)
(93.4085 -0.493873 1.62427)
(38.1104 -0.209789 1.08666)
(93.8772 -0.776742 2.36881)
(37.6477 -0.530122 1.00486)
(94.6512 -0.848842 2.29353)
(38.9795 -0.789395 1.05706)
(97.1365 -1.02988 2.49717)
(42.1179 -0.860274 0.655952)
(99.7649 -1.17918 1.59974)
)
;

boundaryField
{
    inlet
    {
        type            calculated;
        value           uniform (67 0 0);
    }
    outlet
    {
        type            calculated;
        value           nonuniform 0();
    }
    wall
    {
        type            calculated;
        value           uniform (0 0 0);
    }
    procBoundary4to0
    {
        type            processor;
        value           nonuniform List<vector> 
36
(
(97.1345 -2.70431 -4.28744)
(40.2735 -1.22043 -2.74503)
(98.8615 -2.62211 -4.45902)
(43.4228 -0.882206 -2.65474)
(100.31 -1.91002 -3.50546)
(44.4983 -0.690649 -2.47762)
(101.293 -1.70494 -2.77561)
(43.6087 -0.0928213 -2.59639)
(101.276 -0.497942 -1.92499)
(96.005 -5.1002 -4.90598)
(32.6703 -2.47762 -2.55561)
(93.7505 -5.76074 -4.93373)
(26.6079 -1.96461 -1.91727)
(92.213 -4.50478 -3.33696)
(20.3492 -1.51624 -1.35208)
(90.8362 -2.28149 -2.34051)
(12.7281 -1.15161 -1.11123)
(90.3902 0.0524845 -2.18617)
(95.2666 -2.60692 -4.90457)
(28.7578 -1.17515 -2.37358)
(90.3789 -2.69566 -4.24544)
(15.6363 -0.482559 -1.14567)
(86.6771 -1.13593 -2.49096)
(4.51222 -0.0804644 -0.352591)
(84.0673 0.520773 -1.77734)
(3.62288e-05 1.18087e-06 1.82186e-06)
(81.3522 1.0993 -0.352571)
(95.1432 -0.522316 -4.66514)
(29.5913 0.0833355 -2.6289)
(90.6853 0.435073 -4.74229)
(17.9749 0.374719 -1.66827)
(89.0022 0.810431 -3.76484)
(10.229 0.353499 -1.14975)
(88.2899 -0.20739 -2.63073)
(5.59726 0.337997 -0.818093)
(88.0048 -0.315725 -0.55305)
)
;
    }
    procBoundary4to5
    {
        type            processor;
        value           nonuniform List<vector> 
12
(
(45.2953 -1.01606 0.62628)
(10.0372 -1.23655 0.171224)
(0.31144 -0.0486324 0.0385733)
(3.98857e-05 -3.69639e-06 1.78552e-06)
(41.7627 0.243401 -0.999308)
(21.4162 -0.889536 -0.249499)
(4.04523 -0.187264 0.175151)
(6.32659 -0.242921 0.56932)
(66.2674 -0.544207 2.24919)
(52.3717 -2.26878 1.15249)
(44.256 -1.71709 1.26941)
(42.3156 -1.78628 0.813017)
)
;
    }
    procBoundary4to6
    {
        type            processor;
        value           nonuniform List<vector> 
27
(
(92.0707 1.09528 -1.75027)
(26.6181 0.685386 -0.552349)
(87.2215 1.26947 -1.16551)
(12.4004 0.273754 -0.395609)
(83.6888 0.591684 -0.61478)
(2.55262 0.0627508 -0.0992809)
(82.2666 -0.430409 -0.275828)
(3.8258e-05 -8.93906e-08 -5.53177e-07)
(81.6406 -1.40225 -0.313382)
(93.033 2.28366 2.87749)
(30.9297 0.954829 0.895903)
(89.9579 2.52422 2.90829)
(21.8261 0.661967 0.889658)
(88.2237 1.71503 2.20058)
(14.0672 0.150457 0.596386)
(87.088 0.733126 0.570637)
(7.1427 -0.0574758 0.567506)
(86.5404 0.220603 -0.00938234)
(94.6196 2.23474 2.36144)
(40.1078 0.762604 1.00573)
(94.9665 1.71038 2.38414)
(40.2092 0.46297 0.688543)
(95.1954 0.700617 2.20954)
(40.0559 -0.174841 0.650307)
(95.4732 -0.473606 2.07793)
(38.3256 -0.673556 0.888534)
(97.2039 -0.722863 1.91531)
)
;
    }
}


// ************************************************************************* //
