/*--------------------------------*- C++ -*----------------------------------*\
| =========                 |                                                 |
| \\      /  F ield         | OpenFOAM: The Open Source CFD Toolbox           |
|  \\    /   O peration     | Version:  4.x                                   |
|   \\  /    A nd           | Web:      www.OpenFOAM.org                      |
|    \\/     M anipulation  |                                                 |
\*---------------------------------------------------------------------------*/
FoamFile
{
    version     2.0;
    format      ascii;
    class       volScalarField;
    location    "43.5";
    object      KslPrev;
}
// * * * * * * * * * * * * * * * * * * * * * * * * * * * * * * * * * * * * * //

dimensions      [1 -3 -1 0 0 0 0];

internalField   nonuniform List<scalar> 
108
(
3384.39
7939.83
3390.05
7586.93
3372.01
7291.01
3308.7
7138.74
3184.94
3476.45
9894.61
3654.68
12663.2
3706.42
15389.9
3684.9
19278
3612.77
3513.52
11129.6
3765.79
17045.1
3822.31
26964.1
3797.13
67278.7
3744.29
3491.5
11243.7
3788.24
18983.3
3876.58
46817.5
3900.23
3.95752e+07
3880.56
3364.16
7854.2
3355.18
7553.13
3361.91
7291.21
3301.38
7390.48
3261.13
3446.62
9004.06
3540.87
9953.2
3578.36
11039.1
3569.66
12969
3541.31
3461.34
10210.9
3679.49
13981.6
3756.29
19863.8
3729.67
32266.4
3684.33
3495.83
10528.1
3708.55
14998.6
3785.09
22176.1
3764.23
34062.8
3674.87
3320.05
6958.95
3168.47
5962.75
3103.8
5537.76
3029.9
5221.2
2901.8
3372.58
7719.69
3355.53
7084.82
3290.42
6676.94
3199.33
6370.23
3083.73
3424.24
8270.01
3452.18
8127.33
3420.95
7827.35
3317.33
7418.28
3202.69
3466.13
8484.9
3495.87
8624.49
3461.41
8263.29
3332.06
7610.37
3211.13
)
;

boundaryField
{
    inlet
    {
        type            zeroGradient;
    }
    outlet
    {
        type            zeroGradient;
    }
    wall
    {
        type            zeroGradient;
    }
    procBoundary4to0
    {
        type            processor;
        value           uniform 0;
    }
    procBoundary4to5
    {
        type            processor;
        value           uniform 0;
    }
    procBoundary4to6
    {
        type            processor;
        value           uniform 0;
    }
}


// ************************************************************************* //
