/*--------------------------------*- C++ -*----------------------------------*\
| =========                 |                                                 |
| \\      /  F ield         | OpenFOAM: The Open Source CFD Toolbox           |
|  \\    /   O peration     | Version:  4.x                                   |
|   \\  /    A nd           | Web:      www.OpenFOAM.org                      |
|    \\/     M anipulation  |                                                 |
\*---------------------------------------------------------------------------*/
FoamFile
{
    version     2.0;
    format      ascii;
    class       volVectorField;
    location    "43.5";
    object      U;
}
// * * * * * * * * * * * * * * * * * * * * * * * * * * * * * * * * * * * * * //

dimensions      [0 1 -1 0 0 0 0];

internalField   nonuniform List<vector> 
108
(
(0.029904 -0.000929202 -0.000564277)
(0.0128917 -0.000435742 -0.00036776)
(0.0309633 -0.00100057 -0.000547369)
(0.0138791 -0.000410583 -0.000420092)
(0.0316675 -0.000757373 -0.00027247)
(0.0145379 -0.000242881 -0.000309071)
(0.0324298 -0.000544161 -0.000225399)
(0.0148166 -0.000245131 -0.000309183)
(0.0334476 -0.000533723 0.000186412)
(0.0296953 -0.00164947 -0.000464919)
(0.0105746 -0.000776903 -0.000247511)
(0.029433 -0.00171128 -0.000342381)
(0.0084938 -0.000588833 -0.000249817)
(0.0293032 -0.00126538 -0.000115126)
(0.0069729 -0.000423201 -0.000153131)
(0.0293919 -0.000945346 2.40337e-05)
(0.00550966 -0.000411568 -0.000138226)
(0.0298789 -0.000564294 0.000302382)
(0.0296814 -0.000943748 -0.000419927)
(0.0095428 -0.000526603 -0.000195716)
(0.0287584 -0.00108002 -0.000179686)
(0.00632411 -0.000374069 -5.80083e-05)
(0.0283998 -0.000946262 8.35712e-05)
(0.00396067 -0.000279932 5.42847e-05)
(0.0283601 -0.000552454 -0.000123271)
(0.00157476 -0.000125792 6.82148e-05)
(0.0284445 0.000148648 -0.000171932)
(0.0297156 -0.000578175 -0.000632319)
(0.00942631 -0.000144306 -0.000237544)
(0.0285931 -0.000526803 -0.000385501)
(0.00565179 -0.000209353 -0.000219182)
(0.0279771 -0.000456816 -0.000239848)
(0.00228255 -0.000115289 -6.19486e-05)
(0.0277183 4.44539e-05 -0.000175316)
(2.66752e-06 -2.14099e-07 -6.53563e-08)
(0.0272732 2.28332e-05 6.32938e-05)
(0.0299142 -0.00073234 0.000173844)
(0.0129515 -0.000317624 5.81598e-05)
(0.0310211 -0.000638211 0.000189846)
(0.0138929 -0.00024372 -0.000185329)
(0.0316767 -0.00051182 -4.47757e-05)
(0.0144199 -0.00020986 -0.000271507)
(0.0321494 -0.000365447 -2.20325e-06)
(0.014299 -4.20555e-05 -0.000272291)
(0.0326837 -0.00015451 0.000131127)
(0.0298127 -0.00144401 0.000390215)
(0.0115323 -0.000767353 0.000140766)
(0.0300123 -0.00154253 0.000585682)
(0.010686 -0.000547576 3.2906e-05)
(0.0300817 -0.00120676 0.000348522)
(0.00964617 -0.0003733 -8.55594e-05)
(0.030116 -0.000739926 0.000320369)
(0.00822979 -0.000202419 -8.74305e-05)
(0.0304327 -0.000457545 0.000382596)
(0.0297938 -0.000976891 0.000516665)
(0.0102783 -0.000427111 0.000204353)
(0.0292761 -0.000924834 0.000656625)
(0.00766516 -0.000294231 0.000147751)
(0.0288641 -0.00054899 0.000487844)
(0.00538147 -0.000119292 8.29864e-05)
(0.0287695 -0.000102012 0.0004638)
(0.00327902 -2.06128e-05 8.03045e-05)
(0.0289369 5.32584e-05 0.000269078)
(0.0297124 -0.000309859 0.000393315)
(0.0100243 2.4317e-05 0.000323094)
(0.0289518 -5.62547e-05 0.000779032)
(0.00715516 -6.7095e-06 0.000213336)
(0.0286613 -4.56011e-05 0.000820935)
(0.00481752 -7.80697e-05 0.000225549)
(0.0286498 -6.62214e-05 0.000749185)
(0.00309106 -6.63163e-05 0.000151906)
(0.0287611 -6.17776e-05 0.000132814)
(0.0300275 -0.000705659 0.000471119)
(0.0143991 -0.000371518 0.000345511)
(0.0320354 -0.000612917 0.000715379)
(0.0171752 -0.000218617 0.000266083)
(0.0336277 -0.000376454 0.000563911)
(0.0188443 -0.000105239 0.000185039)
(0.0347657 -0.000251793 0.000735871)
(0.0200098 -0.000124632 0.000507825)
(0.0361554 -0.000326597 0.000997441)
(0.0299835 -0.00133316 0.000495602)
(0.0132538 -0.000757785 0.000297347)
(0.0310475 -0.00132989 0.000742149)
(0.0146896 -0.000531024 0.000298746)
(0.0321349 -0.000874998 0.000700572)
(0.0157684 -0.000394359 0.000292832)
(0.0330347 -0.000644208 0.00085577)
(0.0164628 -0.000437367 0.000387419)
(0.0341555 -0.00062666 0.000806504)
(0.0297988 -0.000940533 0.000586263)
(0.0124569 -0.000430852 0.000403275)
(0.0304589 -0.000932225 0.000949726)
(0.0129034 -0.000400877 0.000386639)
(0.031053 -0.000560707 0.000949067)
(0.0134624 -0.00018369 0.00030603)
(0.0318266 -0.00021287 0.000914903)
(0.014105 -0.000216142 0.000354821)
(0.0326637 -0.000252454 0.000869129)
(0.0297049 -0.000157033 0.000516543)
(0.0121768 -6.701e-05 0.000347208)
(0.030116 -0.000249166 0.000759919)
(0.0122235 -0.000172113 0.000326274)
(0.0308354 -0.000276534 0.000747178)
(0.0127837 -0.000258893 0.000346661)
(0.0315331 -0.000334331 0.000810637)
(0.0136595 -0.000279009 0.000212726)
(0.0324413 -0.00038345 0.000520193)
)
;

boundaryField
{
    inlet
    {
        type            fixedValue;
        value           uniform (0.01 0 0);
    }
    outlet
    {
        type            zeroGradient;
    }
    wall
    {
        type            fixedValue;
        value           uniform (0 0 0);
    }
    procBoundary4to0
    {
        type            processor;
        value           nonuniform List<vector> 
36
(
(0.029932 -0.000833292 -0.00132084)
(0.0125232 -0.000379461 -0.000853256)
(0.0310203 -0.000822731 -0.00139896)
(0.0136636 -0.00027759 -0.000835425)
(0.0317163 -0.00060392 -0.00110858)
(0.0141333 -0.000219377 -0.000787119)
(0.0320639 -0.0005397 -0.000878736)
(0.0137828 -2.93468e-05 -0.000820686)
(0.0321666 -0.000158153 -0.000611456)
(0.0298405 -0.00158516 -0.00152462)
(0.0102782 -0.000779382 -0.000803756)
(0.0296772 -0.00182354 -0.00156166)
(0.00844799 -0.000623741 -0.000608771)
(0.0293229 -0.00143251 -0.00106127)
(0.00648981 -0.000483601 -0.000431349)
(0.0291409 -0.000731955 -0.000750962)
(0.00407073 -0.000368335 -0.000355465)
(0.0289438 1.67872e-05 -0.000700075)
(0.0296504 -0.00081124 -0.0015263)
(0.00902813 -0.000368816 -0.000744994)
(0.0287316 -0.000856884 -0.00134955)
(0.0049895 -0.000153964 -0.000365583)
(0.0278033 -0.00036439 -0.000799094)
(0.00145437 -2.59824e-05 -0.000113732)
(0.0270492 0.000167525 -0.000571942)
(1.16082e-08 2.88386e-10 4.37368e-10)
(0.0262129 0.00035419 -0.000113638)
(0.0297373 -0.000163138 -0.001458)
(0.00933422 2.6379e-05 -0.000829159)
(0.0289986 0.000139179 -0.00151639)
(0.0057863 0.00012063 -0.000536992)
(0.0285181 0.000259653 -0.00120636)
(0.00331437 0.000114496 -0.000372583)
(0.0285424 -6.70839e-05 -0.00085052)
(0.00179717 0.000108493 -0.00026271)
(0.0281655 -0.000101066 -0.00017703)
)
;
    }
    procBoundary4to5
    {
        type            processor;
        value           nonuniform List<vector> 
12
(
(0.0146541 -0.000328719 0.000202595)
(0.00326685 -0.000402473 5.57079e-05)
(0.000101863 -1.59125e-05 1.25958e-05)
(1.31396e-08 -1.23148e-09 5.29902e-10)
(0.0135549 7.90005e-05 -0.000324359)
(0.00696306 -0.000289223 -8.11347e-05)
(0.00132148 -6.11805e-05 5.72028e-05)
(0.00206622 -7.93415e-05 0.000185921)
(0.0212161 -0.000174231 0.000720092)
(0.0169889 -0.000735981 0.000373851)
(0.0144166 -0.00055935 0.000413507)
(0.0138404 -0.000584254 0.000265907)
)
;
    }
    procBoundary4to6
    {
        type            processor;
        value           nonuniform List<vector> 
27
(
(0.0294681 0.000350598 -0.000560157)
(0.00851425 0.000219267 -0.000176654)
(0.0278972 0.000406039 -0.000372773)
(0.00400903 8.8476e-05 -0.000127912)
(0.0272549 0.000192672 -0.000200234)
(0.00082795 2.03384e-05 -3.2222e-05)
(0.0267917 -0.000140193 -8.98487e-05)
(1.25295e-08 -6.72328e-11 -2.34546e-10)
(0.0266776 -0.000458226 -0.000102416)
(0.0296555 0.000727977 0.000917265)
(0.00990418 0.000305777 0.000286901)
(0.0289632 0.00081273 0.000936375)
(0.00707772 0.0002147 0.000288483)
(0.0285878 0.000555742 0.000713065)
(0.00457784 4.89565e-05 0.000194066)
(0.0283909 0.000238996 0.000186019)
(0.0023253 -1.87189e-05 0.000184738)
(0.0283137 7.21754e-05 -3.07738e-06)
(0.0298561 0.000705166 0.000745127)
(0.0127251 0.000241972 0.000319093)
(0.03041 0.000547711 0.000763443)
(0.0130021 0.000149724 0.000222645)
(0.0309125 0.000227514 0.000717486)
(0.013051 -5.69696e-05 0.000211876)
(0.0312578 -0.000155065 0.000680305)
(0.0125282 -0.000220185 0.000290445)
(0.0314676 -0.000234017 0.000620035)
)
;
    }
}


// ************************************************************************* //
