/*--------------------------------*- C++ -*----------------------------------*\
| =========                 |                                                 |
| \\      /  F ield         | OpenFOAM: The Open Source CFD Toolbox           |
|  \\    /   O peration     | Version:  4.x                                   |
|   \\  /    A nd           | Web:      www.OpenFOAM.org                      |
|    \\/     M anipulation  |                                                 |
\*---------------------------------------------------------------------------*/
FoamFile
{
    version     2.0;
    format      ascii;
    class       volScalarField;
    location    "37";
    object      Cs;
}
// * * * * * * * * * * * * * * * * * * * * * * * * * * * * * * * * * * * * * //

dimensions      [1 -3 0 0 0 0 0];

internalField   nonuniform List<scalar> 
114
(
335
335
334.999
334.999
334.997
334.982
334.999
334.999
334.998
334.996
334.992
334.988
334.945
334.999
334.998
334.996
334.993
334.988
334.982
334.975
334.879
335
335
335
335
335
334.999
334.999
334.998
334.868
335
335
334.999
334.998
334.997
334.995
334.992
334.991
334.961
335
334.999
334.998
334.997
334.995
334.992
334.988
334.985
334.964
335
334.999
335
335
335
335
335
335
334.999
334.999
334.836
335
335
335
335
334.999
334.999
334.997
334.997
334.944
335
335
334.999
334.999
334.998
334.996
334.994
334.993
334.973
335
335
334.999
334.998
335
335
335
335
335
335
335
335
335.809
335
335
335
335
335
335
334.999
334.999
334.888
335
335
335
335
335
334.999
334.999
334.998
334.852
335
335
335
335
335
334.999
)
;

boundaryField
{
    inlet
    {
        type            calculated;
        value           nonuniform 0();
    }
    outlet
    {
        type            calculated;
        value           uniform 335;
    }
    wall
    {
        type            calculated;
        value           nonuniform List<scalar> 
66
(
335
335
335
335
335
335
335
335
335
335
335
335
335
335
335
335
335
335
335
335
335
335
334.999
334.999
335
334.999
334.999
335
334.999
334.998
335.809
334.888
334.852
335
335
335
335
335
335
335
335
335
335
335
335
335
335
335
335
335
334.999
334.999
335
335
334.999
334.999
334.999
335
334.997
334.998
334.999
335
334.982
334.868
334.836
335.809
)
;
    }
    procBoundary5to1
    {
        type            processor;
        value           nonuniform List<scalar> 
32
(
335
335
335
334.999
334.998
334.82
334.999
334.998
334.997
334.995
334.991
334.99
334.811
334.998
334.996
334.993
334.989
334.984
334.977
334.975
334.891
335
335
335
335
335
335
335
335
335
335
335
)
;
    }
    procBoundary5to4
    {
        type            processor;
        value           nonuniform List<scalar> 
12
(
335
335
335
335
335
335
335
335
335
335
335
335
)
;
    }
    procBoundary5to7
    {
        type            processor;
        value           nonuniform List<scalar> 
44
(
334.999
334.998
334.996
334.992
334.986
334.979
334.969
334.919
335
334.999
334.998
334.996
334.993
334.989
334.984
334.978
334.959
334.999
334.998
334.998
334.998
334.996
334.997
334.994
334.991
334.989
334.969
335
335
334.999
334.997
334.998
334.997
334.994
334.998
334.997
334.838
335
335
335
335
335
334.998
334.999
)
;
    }
}


// ************************************************************************* //
