/*--------------------------------*- C++ -*----------------------------------*\
| =========                 |                                                 |
| \\      /  F ield         | OpenFOAM: The Open Source CFD Toolbox           |
|  \\    /   O peration     | Version:  4.x                                   |
|   \\  /    A nd           | Web:      www.OpenFOAM.org                      |
|    \\/     M anipulation  |                                                 |
\*---------------------------------------------------------------------------*/
FoamFile
{
    version     2.0;
    format      ascii;
    class       volScalarField;
    location    "37";
    object      KslNext;
}
// * * * * * * * * * * * * * * * * * * * * * * * * * * * * * * * * * * * * * //

dimensions      [1 -3 -1 0 0 0 0];

internalField   nonuniform List<scalar> 
114
(
3545.93
25528.4
4033.92
1e+10
5685.56
116579
1e+10
3784.85
1e+10
3913.76
296787
4399.12
16849
4126.76
1e+10
4174.85
1e+10
4276.98
659117
4658.95
13201.8
7153.27
3063.91
7383.69
2927.48
8013.34
2755.41
9476.44
2412.2
7732.21
31917.1
3541.85
64079
3475.99
69290.8
3432.69
22758.3
3465.31
6065.14
552006
3679.96
1e+10
3628.57
897082
3517.81
48613
3621.84
13498.2
1e+10
3800.19
7656.71
3204.61
8185.81
3126.74
9025.09
3072.49
11392.1
3077.47
16444.6
14820.8
3467.79
17667.1
3341.21
21434.1
3221.93
20494.6
2990.09
10465.7
77907.3
3654.7
1e+10
3686.68
1e+10
3857.73
34110.3
4160.9
7148.42
42022.5
3609.46
52115.8
3510.29
4852.46
2730.76
4620.26
2535.57
4552.64
2257.87
4767.26
1784.44
5327.82
6107.37
2975.1
5990.64
2789.82
6128.97
2570.7
7026.71
2282.52
9484.31
7403.89
3121.44
7582.07
2969.19
7585.18
2746.67
7726.12
2312.17
7581.14
7422.69
3113.07
7723.66
2996.61
8284.02
2784.29
)
;

boundaryField
{
    inlet
    {
        type            zeroGradient;
    }
    outlet
    {
        type            zeroGradient;
    }
    wall
    {
        type            zeroGradient;
    }
    procBoundary5to1
    {
        type            processor;
        value           uniform 0;
    }
    procBoundary5to4
    {
        type            processor;
        value           uniform 0;
    }
    procBoundary5to7
    {
        type            processor;
        value           uniform 0;
    }
}


// ************************************************************************* //
