/*--------------------------------*- C++ -*----------------------------------*\
| =========                 |                                                 |
| \\      /  F ield         | OpenFOAM: The Open Source CFD Toolbox           |
|  \\    /   O peration     | Version:  4.x                                   |
|   \\  /    A nd           | Web:      www.OpenFOAM.org                      |
|    \\/     M anipulation  |                                                 |
\*---------------------------------------------------------------------------*/
FoamFile
{
    version     2.0;
    format      ascii;
    class       volScalarField;
    location    "37";
    object      Qsource;
}
// * * * * * * * * * * * * * * * * * * * * * * * * * * * * * * * * * * * * * //

dimensions      [1 -1 -3 0 0 0 0];

internalField   nonuniform List<scalar> 
114
(
8.68015e+09
7.46621e+09
7.75199e+09
5.69404e+09
8.36233e+09
5.84379e+09
7.2559e+09
7.0304e+09
5.8814e+09
8.20861e+09
8.37661e+09
1.00349e+10
6.44467e+09
9.94028e+09
6.13266e+09
8.70124e+09
5.86952e+09
5.29826e+09
7.42864e+09
6.23325e+09
6.68577e+09
7.10774e+09
6.59871e+09
8.01762e+09
7.30618e+09
6.99807e+09
9.32901e+09
7.57062e+09
7.83184e+09
5.30429e+09
8.1176e+09
8.24804e+09
9.25152e+09
9.01082e+09
8.87492e+09
1.01531e+10
5.45057e+09
1.06535e+10
6.40735e+09
8.52217e+09
5.52193e+09
7.29201e+09
9.13097e+09
6.16508e+09
8.43644e+09
7.27774e+09
8.12296e+09
4.50501e+09
1.02647e+10
5.07742e+09
7.69106e+09
1.04025e+10
7.74692e+09
9.43528e+09
7.94218e+09
8.88468e+09
6.99408e+09
9.55518e+09
5.3327e+09
6.20555e+09
1.09049e+10
7.01965e+09
9.12279e+09
8.32279e+09
9.2032e+09
1.08088e+10
8.75757e+09
4.82802e+09
7.42009e+09
7.79073e+09
7.82793e+09
7.396e+09
1.13679e+10
9.27803e+09
9.10241e+09
1.10164e+10
8.31661e+09
5.3129e+09
1.17343e+10
9.60888e+09
9.98325e+09
3.71243e+09
8.8032e+09
5.78665e+09
9.75879e+09
7.3222e+09
8.09186e+09
8.38819e+09
1.06171e+10
6.07557e+09
7.47789e+09
9.13293e+09
5.55194e+09
7.88314e+09
8.68216e+09
8.70361e+09
5.92706e+09
1.01533e+10
5.70218e+09
6.49546e+09
8.18938e+09
9.12589e+09
8.75972e+09
6.66825e+09
1.04281e+10
7.44624e+09
9.30539e+09
6.87205e+09
7.62223e+09
7.34862e+09
7.74483e+09
7.63188e+09
1.08032e+10
9.49146e+09
)
;

boundaryField
{
    inlet
    {
        type            calculated;
        value           nonuniform 0();
    }
    outlet
    {
        type            calculated;
        value           uniform 0;
    }
    wall
    {
        type            calculated;
        value           uniform 0;
    }
    procBoundary5to1
    {
        type            processor;
        value           nonuniform List<scalar> 
32
(
1.06034e+10
6.57065e+09
1.07003e+10
8.07038e+09
8.55671e+09
3.60539e+09
6.46231e+09
8.08965e+09
8.15574e+09
9.07187e+09
7.61569e+09
9.43051e+09
3.68587e+09
7.8912e+09
5.51781e+09
1.11445e+10
8.8907e+09
1.06657e+10
7.46828e+09
9.64573e+09
3.36159e+09
6.89887e+09
6.3971e+09
7.97876e+09
7.97876e+09
7.97876e+09
7.85609e+09
1.21937e+10
1.21937e+10
1.21937e+10
5.8761e+09
5.8761e+09
)
;
    }
    procBoundary5to4
    {
        type            processor;
        value           nonuniform List<scalar> 
12
(
1.05268e+10
1.11185e+10
6.74328e+09
7.04925e+09
1.0435e+10
1.05032e+10
8.63468e+09
8.13938e+09
1.00618e+10
9.46716e+09
7.89754e+09
7.93596e+09
)
;
    }
    procBoundary5to7
    {
        type            processor;
        value           nonuniform List<scalar> 
44
(
9.07626e+09
6.39507e+09
7.93555e+09
1.10626e+10
1.24793e+10
7.9879e+09
6.5471e+09
6.22234e+09
9.96733e+09
9.07626e+09
6.54923e+09
8.66094e+09
7.00288e+09
8.22674e+09
8.82939e+09
9.92983e+09
6.15156e+09
3.83961e+09
6.54923e+09
1.01065e+10
6.54923e+09
8.66094e+09
5.0868e+09
7.28876e+09
8.30932e+09
7.6835e+09
4.72387e+09
8.53334e+09
9.14096e+09
7.06809e+09
5.0868e+09
6.50364e+09
5.0868e+09
7.28876e+09
6.28922e+09
9.20404e+09
5.26548e+09
7.62629e+09
7.82808e+09
7.78906e+09
9.49557e+09
5.42057e+09
6.28922e+09
5.7977e+09
)
;
    }
}


// ************************************************************************* //
