/*--------------------------------*- C++ -*----------------------------------*\
| =========                 |                                                 |
| \\      /  F ield         | OpenFOAM: The Open Source CFD Toolbox           |
|  \\    /   O peration     | Version:  4.x                                   |
|   \\  /    A nd           | Web:      www.OpenFOAM.org                      |
|    \\/     M anipulation  |                                                 |
\*---------------------------------------------------------------------------*/
FoamFile
{
    version     2.0;
    format      ascii;
    class       volScalarField;
    location    "21";
    object      alpha.iron;
}
// * * * * * * * * * * * * * * * * * * * * * * * * * * * * * * * * * * * * * //

dimensions      [0 0 0 0 0 0 0];

internalField   nonuniform List<scalar> 
87
(
0.999961
0.999985
0.999971
0.999997
0.999995
0.999992
1
1
0.999999
0.999999
0.999997
0.999993
0.999981
0.999958
0.999927
1
1
1
0.999999
0.999997
0.999995
0.99999
0.999981
0.999964
1
1
1
0.999999
0.999998
0.999998
0.999996
0.999994
0.99999
1
1
1
0.999999
0.999998
0.999996
0.999993
0.999985
0.999972
1
1
1
0.999999
0.999999
0.999997
0.999995
0.999991
0.999982
1
1
1
0.999999
0.999999
0.999998
0.999998
0.999996
0.999993
1
1
1
0.999999
0.999999
0.999998
0.999997
0.999994
0.999989
1
1
1
0.999999
0.999999
0.999998
0.999997
0.999995
0.999992
1
1
1
1
0.999999
0.999999
0.999998
0.999997
0.999996
)
;

boundaryField
{
    inlet
    {
        type            fixedValue;
        value           uniform 1;
    }
    outlet
    {
        type            fixedValue;
        value           nonuniform 0();
    }
    wall
    {
        type            zeroGradient;
    }
    procBoundary6to0
    {
        type            processor;
        value           uniform 0.999947;
    }
    procBoundary6to2
    {
        type            processor;
        value           nonuniform List<scalar> 
32
(
0.999945
0.999985
0.999959
0.999996
0.999995
0.99999
1
1
1
0.999999
0.999998
0.999996
0.999991
0.99998
0.99998
0.99998
1
1
0.999999
0.999999
0.999998
0.999996
0.999993
0.999993
0.999993
1
1
1
0.999999
0.999998
0.999998
0.999998
)
;
    }
    procBoundary6to4
    {
        type            processor;
        value           nonuniform List<scalar> 
27
(
1
1
1
0.999999
0.999998
0.999995
0.999988
0.999974
0.999951
1
1
1
0.999999
0.999998
0.999996
0.999992
0.999983
0.999967
1
1
1
1
0.999999
0.999998
0.999996
0.999993
0.999987
)
;
    }
    procBoundary6to7
    {
        type            processor;
        value           nonuniform List<scalar> 
12
(
0.999933
0.999947
0.999986
0.999898
0.999941
0.999982
0.999953
0.999968
0.999989
0.999981
0.999987
0.999994
)
;
    }
}


// ************************************************************************* //
