/*--------------------------------*- C++ -*----------------------------------*\
| =========                 |                                                 |
| \\      /  F ield         | OpenFOAM: The Open Source CFD Toolbox           |
|  \\    /   O peration     | Version:  4.x                                   |
|   \\  /    A nd           | Web:      www.OpenFOAM.org                      |
|    \\/     M anipulation  |                                                 |
\*---------------------------------------------------------------------------*/
FoamFile
{
    version     2.0;
    format      ascii;
    class       volScalarField;
    location    "21";
    object      KslNext;
}
// * * * * * * * * * * * * * * * * * * * * * * * * * * * * * * * * * * * * * //

dimensions      [1 -3 -1 0 0 0 0];

internalField   nonuniform List<scalar> 
87
(
3758.8
14274.1
3720.94
3294.06
6403.1
3185.4
3648.22
10963.8
3930.94
19485.2
4063.38
50295.2
4100.4
9.94814e+09
4134.21
3570.33
9704.91
3784.4
13044.9
3894.73
18307.5
3940.67
30317.5
3962.99
3443.31
7629.87
3467.84
7523.46
3501.41
7789.9
3486.89
7862.09
3469.15
3611.9
9447.55
3806.66
12235.7
3847.75
15881.4
3860.06
21663.4
3793.5
3519.61
8521.97
3664.12
9514.76
3704.42
10616.5
3736.24
12360
3710.18
3433.17
7103.21
3373.38
6651.37
3338.27
6448.22
3290.47
6311.3
3208.23
3499.42
7644.64
3542.45
7873.83
3515.83
8192.72
3528.05
8741.12
3464.96
3438.75
7159.64
3418.28
6797.26
3372.95
6629.29
3354.75
6638.31
3300.7
3381.72
6576.85
3253.13
5712.76
3106.04
5190.27
3036.84
4903.62
2969.09
)
;

boundaryField
{
    inlet
    {
        type            zeroGradient;
    }
    outlet
    {
        type            zeroGradient;
    }
    wall
    {
        type            zeroGradient;
    }
    procBoundary6to0
    {
        type            processor;
        value           uniform 0;
    }
    procBoundary6to2
    {
        type            processor;
        value           uniform 0;
    }
    procBoundary6to4
    {
        type            processor;
        value           uniform 0;
    }
    procBoundary6to7
    {
        type            processor;
        value           uniform 0;
    }
}


// ************************************************************************* //
