/*--------------------------------*- C++ -*----------------------------------*\
| =========                 |                                                 |
| \\      /  F ield         | OpenFOAM: The Open Source CFD Toolbox           |
|  \\    /   O peration     | Version:  4.x                                   |
|   \\  /    A nd           | Web:      www.OpenFOAM.org                      |
|    \\/     M anipulation  |                                                 |
\*---------------------------------------------------------------------------*/
FoamFile
{
    version     2.0;
    format      ascii;
    class       volVectorField;
    location    "21";
    object      Us;
}
// * * * * * * * * * * * * * * * * * * * * * * * * * * * * * * * * * * * * * //

dimensions      [0 1 -1 0 0 0 0];

internalField   nonuniform List<vector> 
87
(
(-1.62205e-08 1.181e-09 -1.11201e-10)
(-1.03615e-08 9.78825e-11 4.11373e-10)
(-1.18803e-08 1.07456e-09 -1.00418e-09)
(-3.14293e-09 2.88635e-10 1.25199e-09)
(-4.97225e-09 1.00981e-10 -1.02732e-11)
(-3.64808e-09 5.85472e-11 -8.96388e-10)
(2.62373e-10 5.30996e-10 1.10164e-09)
(-2.09036e-10 7.78507e-10 1.97782e-09)
(-1.59919e-09 7.04929e-10 2.84017e-09)
(-3.2949e-09 6.15701e-10 2.80635e-09)
(-8.49718e-09 5.40442e-10 2.47109e-09)
(-1.0326e-08 3.75199e-11 3.32317e-09)
(-1.19032e-08 -2.99462e-10 2.2063e-09)
(-1.20724e-08 5.12506e-10 9.15799e-10)
(-1.36414e-08 9.85992e-10 -6.4159e-10)
(6.69177e-10 8.55361e-10 1.06522e-09)
(8.29254e-10 9.89006e-10 1.71741e-09)
(-3.58931e-10 1.50713e-09 2.24017e-09)
(-2.24071e-09 1.17727e-09 2.40796e-09)
(-4.23895e-09 1.59932e-09 1.92268e-09)
(-6.46096e-09 9.66138e-10 2.19329e-09)
(-8.47255e-09 6.52915e-10 1.14222e-09)
(-8.52261e-09 6.34803e-10 1.44853e-10)
(-9.60282e-09 6.43632e-10 -2.29866e-10)
(3.80324e-10 2.70577e-10 2.02126e-10)
(3.27472e-09 1.40954e-09 1.25516e-09)
(6.08109e-10 9.98042e-10 1.06906e-09)
(-2.94495e-10 1.41277e-09 1.62865e-09)
(-1.00496e-09 1.13235e-09 1.14674e-09)
(-2.74067e-09 7.70849e-10 1.27955e-09)
(-3.07559e-09 4.93481e-10 1.21736e-09)
(-2.16355e-09 2.6971e-10 3.30912e-10)
(-4.13038e-09 4.89571e-10 -1.18406e-10)
(5.93135e-10 5.83681e-10 7.24027e-10)
(9.13523e-10 9.36017e-10 1.70493e-09)
(2.98237e-10 1.01884e-09 2.46422e-09)
(-4.46301e-10 9.22113e-10 2.13161e-09)
(-1.7023e-09 8.37107e-10 2.21451e-09)
(-4.87565e-09 1.22091e-09 2.25534e-09)
(-6.16631e-09 8.02951e-10 1.23602e-09)
(-8.27384e-09 4.55939e-10 8.25113e-10)
(-9.60754e-09 1.05785e-09 -4.20162e-10)
(8.37977e-10 9.25186e-10 9.98414e-10)
(1.48674e-09 6.15028e-10 1.28837e-09)
(8.8435e-10 1.12378e-09 2.05118e-09)
(2.1599e-10 1.23018e-09 2.30962e-09)
(2.17118e-10 1.12866e-09 1.2758e-09)
(-2.91956e-09 1.31196e-09 2.07204e-09)
(-3.97452e-09 7.00214e-10 9.09835e-10)
(-2.23444e-09 -4.48537e-10 -1.04029e-10)
(-7.01187e-09 1.06994e-09 1.85291e-10)
(2.69322e-09 9.50113e-13 -1.00379e-09)
(1.06855e-08 3.15403e-09 -9.97518e-10)
(1.10953e-09 2.51774e-10 1.75434e-09)
(1.13753e-09 9.16467e-10 1.40683e-09)
(6.34677e-10 8.67526e-10 1.03737e-09)
(-4.24362e-11 8.37685e-10 8.08385e-10)
(-6.62375e-10 3.66395e-10 5.05937e-10)
(-3.93138e-10 5.77261e-10 1.14751e-10)
(-1.78299e-09 -3.56363e-10 1.00137e-09)
(7.31037e-10 5.47874e-10 3.0294e-10)
(1.45162e-09 4.67375e-10 7.18097e-10)
(1.48278e-09 4.64834e-10 1.53322e-09)
(8.25677e-10 6.82211e-10 1.13959e-09)
(-5.14834e-10 5.27576e-10 1.29701e-09)
(-1.36646e-09 6.53732e-10 1.31861e-09)
(-2.87703e-09 3.6769e-10 7.47214e-10)
(-3.30735e-09 4.74394e-10 3.84203e-10)
(-4.29384e-09 3.97211e-10 -4.2534e-10)
(3.86081e-09 1.92913e-09 5.56946e-10)
(1.50021e-09 5.75607e-11 5.99194e-10)
(1.12376e-09 4.45312e-10 8.25583e-10)
(1.84556e-09 7.92963e-10 6.89672e-10)
(6.85456e-10 8.28822e-10 6.96634e-10)
(7.59168e-11 7.35665e-10 8.29044e-10)
(-8.88791e-10 5.44694e-10 4.60358e-10)
(4.25498e-09 -9.11258e-10 -1.88472e-10)
(-1.8059e-09 4.26388e-10 4.4432e-10)
(1.14642e-08 3.649e-09 2.15958e-10)
(1.42782e-09 2.82778e-11 2.5608e-10)
(7.51615e-10 1.76628e-10 8.52703e-10)
(8.15222e-10 2.83163e-10 4.20179e-10)
(8.64274e-10 5.42686e-10 7.52042e-10)
(6.29709e-10 3.87723e-10 5.77199e-10)
(5.26875e-10 2.70653e-10 4.08041e-10)
(9.68552e-10 2.56655e-10 -3.34078e-10)
(-5.41754e-10 9.66172e-11 6.10781e-10)
)
;

boundaryField
{
    inlet
    {
        type            zeroGradient;
    }
    outlet
    {
        type            zeroGradient;
    }
    wall
    {
        type            zeroGradient;
    }
    procBoundary6to0
    {
        type            processor;
        value           uniform (-1.72574e-08 1.54787e-09 1.95014e-10);
    }
    procBoundary6to2
    {
        type            processor;
        value           nonuniform List<vector> 
32
(
(-1.62093e-08 5.72084e-10 1.0132e-10)
(-1.27893e-08 -1.718e-10 1.08748e-09)
(-1.25653e-08 -4.7139e-12 -5.05966e-10)
(-5.826e-09 7.02227e-10 2.46941e-09)
(-5.94592e-09 6.86094e-10 1.00979e-09)
(-7.33585e-09 -1.0293e-09 -2.14855e-10)
(3.37232e-10 2.86894e-10 8.3082e-10)
(-4.77912e-10 5.77382e-10 1.98451e-09)
(-2.90184e-09 7.998e-10 2.37273e-09)
(-5.22785e-09 1.12748e-09 2.34366e-09)
(-9.11514e-09 5.74214e-10 2.78042e-09)
(-1.23233e-08 4.89074e-10 3.39489e-09)
(-1.51326e-08 2.23424e-10 1.80833e-09)
(-1.51963e-08 8.89891e-10 2.89367e-10)
(-1.51963e-08 8.89891e-10 2.89367e-10)
(-1.51963e-08 8.89891e-10 2.89367e-10)
(3.35395e-10 2.48635e-10 6.69505e-10)
(1.40605e-11 1.17443e-09 1.77511e-09)
(-1.39181e-09 1.7735e-09 1.59019e-09)
(-3.62629e-09 1.90452e-09 2.03878e-09)
(-7.05271e-09 1.30951e-09 2.62951e-09)
(-8.85548e-09 8.04207e-10 2.59594e-09)
(-9.6613e-09 3.11096e-10 1.75889e-09)
(-9.6613e-09 3.11096e-10 1.75889e-09)
(-9.6613e-09 3.11096e-10 1.75889e-09)
(6.11816e-10 1.75493e-10 2.88005e-10)
(6.58868e-10 5.50866e-10 9.96554e-10)
(3.28763e-11 1.22937e-09 1.47695e-09)
(-3.86492e-10 1.22594e-09 1.4264e-09)
(-3.43243e-09 1.15801e-09 1.45787e-09)
(-2.82507e-09 6.40732e-10 1.33577e-09)
(-2.82507e-09 6.40732e-10 1.33577e-09)
)
;
    }
    procBoundary6to4
    {
        type            processor;
        value           nonuniform List<vector> 
27
(
(4.00299e-10 1.16003e-11 8.99237e-10)
(2.03313e-10 -1.3067e-10 1.80324e-09)
(-1.93426e-09 2.84564e-10 2.92001e-09)
(-3.60086e-09 -1.22383e-10 3.21229e-09)
(-8.39333e-09 -7.86136e-10 2.81155e-09)
(-1.27533e-08 -6.85734e-10 2.88904e-09)
(-1.47297e-08 3.99766e-10 1.35709e-09)
(-1.54116e-08 -2.45956e-10 8.46882e-10)
(-1.60889e-08 1.33077e-09 -9.65191e-10)
(7.54169e-10 1.59697e-10 9.30092e-10)
(8.98216e-10 8.97879e-11 1.49418e-09)
(-3.27532e-10 5.22503e-10 2.6221e-09)
(-1.16958e-09 3.19611e-10 2.41635e-09)
(-3.22614e-09 6.399e-11 2.85402e-09)
(-6.97131e-09 -3.56428e-10 2.61618e-09)
(-7.86798e-09 -9.86315e-10 1.68653e-09)
(-9.2268e-09 -3.47691e-10 3.08058e-10)
(-9.90615e-09 1.21008e-09 -3.09704e-09)
(6.59207e-10 -1.30132e-12 3.97965e-10)
(1.34124e-09 2.76786e-10 5.5226e-10)
(9.1658e-10 -4.77568e-11 1.50982e-09)
(3.72272e-10 2.59707e-10 1.31903e-09)
(-9.59199e-10 8.0491e-10 1.7933e-09)
(-1.68074e-09 7.02018e-10 1.63485e-09)
(-2.34145e-09 9.14956e-11 9.17449e-10)
(7.40538e-09 -7.24038e-09 1.30759e-10)
(-5.01157e-09 -2.05532e-11 -6.78007e-10)
)
;
    }
    procBoundary6to7
    {
        type            processor;
        value           nonuniform List<vector> 
12
(
(-1.49788e-08 3.19194e-09 -3.36302e-09)
(-1.07906e-08 1.35395e-09 -1.13854e-09)
(-5.30111e-09 -3.38288e-10 -6.81362e-10)
(-1.29776e-08 1.27387e-09 -2.20303e-09)
(-1.00152e-08 6.00942e-10 -8.75834e-10)
(-5.18912e-09 -1.77944e-12 8.47059e-11)
(-9.41227e-09 5.26455e-10 -1.39388e-09)
(-5.17458e-09 6.13636e-10 -5.8329e-10)
(-1.06677e-09 2.22523e-10 3.85012e-10)
(-4.22685e-09 3.577e-10 -5.42459e-10)
(-1.1351e-09 1.17953e-10 -3.66805e-10)
(-5.11612e-11 2.57382e-10 1.8623e-10)
)
;
    }
}


// ************************************************************************* //
