/*--------------------------------*- C++ -*----------------------------------*\
| =========                 |                                                 |
| \\      /  F ield         | OpenFOAM: The Open Source CFD Toolbox           |
|  \\    /   O peration     | Version:  4.x                                   |
|   \\  /    A nd           | Web:      www.OpenFOAM.org                      |
|    \\/     M anipulation  |                                                 |
\*---------------------------------------------------------------------------*/
FoamFile
{
    version     2.0;
    format      ascii;
    class       volScalarField;
    location    "8.5";
    object      Cs;
}
// * * * * * * * * * * * * * * * * * * * * * * * * * * * * * * * * * * * * * //

dimensions      [1 -3 0 0 0 0 0];

internalField   nonuniform List<scalar> 
87
(
334.934
334.896
334.914
334.913
334.885
334.855
335
334.997
334.99
334.973
334.951
334.933
334.929
334.946
334.978
335
334.998
334.992
334.978
334.959
334.94
334.929
334.935
334.956
335
334.998
334.994
334.986
334.973
334.957
334.937
334.919
334.901
335
334.998
334.992
334.98
334.962
334.945
334.937
334.942
334.96
335
334.998
334.994
334.983
334.967
334.95
334.939
334.942
334.961
335
334.999
334.995
334.989
334.978
334.965
334.951
334.938
334.927
335
334.998
334.994
334.986
334.973
334.959
334.943
334.931
334.921
335
334.999
334.995
334.988
334.976
334.963
334.949
334.937
334.928
335
334.999
334.995
334.989
334.979
334.966
334.952
334.939
334.928
)
;

boundaryField
{
    inlet
    {
        type            calculated;
        value           uniform 335;
    }
    outlet
    {
        type            calculated;
        value           nonuniform 0();
    }
    wall
    {
        type            calculated;
        value           nonuniform List<scalar> 
57
(
335
335
335
334.998
334.999
334.999
334.994
334.995
334.995
334.986
334.988
334.989
334.973
334.976
334.979
334.959
334.963
334.966
334.943
334.949
334.952
334.931
334.937
334.939
334.921
334.928
334.928
335
335
335
334.998
334.999
334.999
334.994
334.995
334.995
334.986
334.989
334.989
334.973
334.978
334.979
334.957
334.965
334.966
334.913
334.937
334.951
334.952
334.885
334.919
334.938
334.939
334.855
334.901
334.927
334.928
)
;
    }
    procBoundary6to0
    {
        type            processor;
        value           uniform 334.91;
    }
    procBoundary6to2
    {
        type            processor;
        value           nonuniform List<scalar> 
32
(
334.87
334.82
334.841
334.851
334.805
334.764
335
334.997
334.989
334.972
334.946
334.922
334.906
334.912
334.912
334.912
335
334.998
334.99
334.974
334.948
334.92
334.897
334.897
334.897
335
334.998
334.993
334.982
334.965
334.942
334.942
)
;
    }
    procBoundary6to4
    {
        type            processor;
        value           nonuniform List<scalar> 
27
(
335
334.998
334.99
334.973
334.949
334.928
334.918
334.929
334.957
335
334.998
334.993
334.981
334.963
334.945
334.932
334.932
334.948
335
334.998
334.994
334.986
334.972
334.958
334.943
334.932
334.925
)
;
    }
    procBoundary6to7
    {
        type            processor;
        value           nonuniform List<scalar> 
12
(
334.97
334.952
334.836
335.02
334.989
334.89
334.986
334.992
334.919
334.918
334.921
334.919
)
;
    }
}


// ************************************************************************* //
