/*--------------------------------*- C++ -*----------------------------------*\
| =========                 |                                                 |
| \\      /  F ield         | OpenFOAM: The Open Source CFD Toolbox           |
|  \\    /   O peration     | Version:  4.x                                   |
|   \\  /    A nd           | Web:      www.OpenFOAM.org                      |
|    \\/     M anipulation  |                                                 |
\*---------------------------------------------------------------------------*/
FoamFile
{
    version     2.0;
    format      ascii;
    class       volScalarField;
    location    "8.5";
    object      QPartFluidCoeff;
}
// * * * * * * * * * * * * * * * * * * * * * * * * * * * * * * * * * * * * * //

dimensions      [1 -1 -3 -1 0 0 0];

internalField   nonuniform List<scalar> 
87
(
-2.72247e+07
-2.21305e+07
-2.9628e+07
-1.87409e+07
-2.08596e+07
-1.87198e+07
-3.29433e+07
-2.97344e+07
-2.00373e+07
-2.66785e+07
-3.65159e+07
-2.06947e+07
-2.88484e+07
-2.2401e+07
-3.31636e+07
-2.08249e+07
-3.06577e+07
-2.68634e+07
-3.25176e+07
-3.01891e+07
-2.88623e+07
-2.87403e+07
-3.08522e+07
-3.11032e+07
-1.54226e+07
-2.53724e+07
-1.96325e+07
-2.05381e+07
-2.86492e+07
-3.17132e+07
-2.38919e+07
-2.19949e+07
-2.92671e+07
-2.51643e+07
-2.99234e+07
-3.24376e+07
-2.717e+07
-2.21924e+07
-2.62533e+07
-2.61196e+07
-2.07881e+07
-3.16458e+07
-1.7768e+07
-2.93661e+07
-2.90235e+07
-2.75512e+07
-2.5918e+07
-2.14169e+07
-3.27655e+07
-2.15054e+07
-3.26558e+07
-1.58891e+07
-2.22776e+07
-2.03579e+07
-2.60133e+07
-2.70084e+07
-2.05677e+07
-2.47065e+07
-2.20143e+07
-2.28867e+07
-1.53257e+07
-1.80751e+07
-2.37778e+07
-2.3283e+07
-2.3575e+07
-2.15829e+07
-3.39209e+07
-2.90957e+07
-1.49363e+07
-1.72234e+07
-1.94301e+07
-2.50563e+07
-2.04429e+07
-3.16916e+07
-2.01834e+07
-2.57042e+07
-2.06859e+07
-2.80332e+07
-1.40028e+07
-2.04398e+07
-2.22116e+07
-2.08953e+07
-1.71712e+07
-2.78951e+07
-1.83387e+07
-1.83502e+07
-2.36784e+07
)
;

boundaryField
{
    inlet
    {
        type            calculated;
        value           uniform 0;
    }
    outlet
    {
        type            calculated;
        value           nonuniform 0();
    }
    wall
    {
        type            calculated;
        value           uniform 0;
    }
    procBoundary6to0
    {
        type            processor;
        value           uniform 201.643;
    }
    procBoundary6to2
    {
        type            processor;
        value           nonuniform List<scalar> 
32
(
435.671
641.21
776.938
724.301
412.67
746.212
366.967
714.937
768.601
538.875
581.968
506.598
569.382
600.834
600.834
600.834
440.921
595.525
784.856
490.971
674.084
564.537
767.251
767.251
767.251
319.253
477.653
560.496
546.706
501.685
490.52
490.52
)
;
    }
    procBoundary6to4
    {
        type            processor;
        value           nonuniform List<scalar> 
27
(
259.948
506.437
700.37
428.196
656.828
476.948
852.775
457.396
530.411
465.658
646.091
562.356
727.091
812.162
546.198
883.585
646.214
609.644
559.397
530.594
499.299
612.583
639.277
721.453
373.3
397.36
534.938
)
;
    }
    procBoundary6to7
    {
        type            processor;
        value           nonuniform List<scalar> 
12
(
608.016
468.033
425.655
296.617
489.203
447.445
660.227
616.797
452.861
550.865
485.705
479.351
)
;
    }
}


// ************************************************************************* //
