/*--------------------------------*- C++ -*----------------------------------*\
| =========                 |                                                 |
| \\      /  F ield         | OpenFOAM: The Open Source CFD Toolbox           |
|  \\    /   O peration     | Version:  4.x                                   |
|   \\  /    A nd           | Web:      www.OpenFOAM.org                      |
|    \\/     M anipulation  |                                                 |
\*---------------------------------------------------------------------------*/
FoamFile
{
    version     2.0;
    format      ascii;
    class       volVectorField;
    location    "8.5";
    object      Urel;
}
// * * * * * * * * * * * * * * * * * * * * * * * * * * * * * * * * * * * * * //

dimensions      [0 1 -1 0 0 0 0];

internalField   nonuniform List<vector> 
87
(
(-0.0201652 -0.000149419 -0.000301433)
(-0.0194254 -0.000303626 -0.000410853)
(-0.0210862 -0.000273059 -0.000480205)
(-0.0222254 -0.00054567 -0.000380686)
(-0.0213642 -0.000440449 -0.000570832)
(-0.0227851 -0.000387947 -0.000782203)
(-0.0224511 -0.000286435 0.000803629)
(-0.0202913 -0.000262998 0.000671032)
(-0.0208864 -0.000277274 0.000528793)
(-0.0189436 -0.000225122 0.000286987)
(-0.020109 -0.000216403 3.85719e-05)
(-0.0183387 -0.000173396 -0.000132257)
(-0.0198525 -0.000159287 -0.000292187)
(-0.0181722 -0.000118763 -0.000272834)
(-0.0198619 -9.53398e-05 -0.000208969)
(-0.0226622 -0.000588829 0.000815847)
(-0.0206293 -0.000512934 0.000703537)
(-0.0213202 -0.000549795 0.00057102)
(-0.0195707 -0.000446935 0.000342873)
(-0.0207316 -0.000439637 8.7035e-05)
(-0.0191303 -0.000352269 -0.000106665)
(-0.0206107 -0.000337462 -0.000308527)
(-0.0191229 -0.000248315 -0.000326661)
(-0.0207793 -0.000201036 -0.000325704)
(-0.0228962 -0.000690527 0.000846002)
(-0.0211344 -0.000637792 0.000752515)
(-0.0219255 -0.000682782 0.000638628)
(-0.0206313 -0.000594065 0.000427266)
(-0.0217214 -0.000595268 0.000169013)
(-0.0206375 -0.000500062 -7.13658e-05)
(-0.0219159 -0.000473547 -0.000329855)
(-0.0210085 -0.000367515 -0.000440937)
(-0.0224047 -0.000298421 -0.000569664)
(-0.0225408 -0.000279331 0.00032385)
(-0.0205214 -0.00024781 0.000285267)
(-0.0211661 -0.000254115 0.000142362)
(-0.019429 -0.000208629 2.45639e-05)
(-0.0205594 -0.00019033 -0.000172245)
(-0.0189859 -0.000147561 -0.000251166)
(-0.0204086 -0.000127191 -0.000364871)
(-0.0189008 -8.50083e-05 -0.00030754)
(-0.0204553 -5.73126e-05 -0.000215956)
(-0.0227402 -0.000559414 0.000358811)
(-0.0208214 -0.000488808 0.000321413)
(-0.0215575 -0.000512308 0.000187819)
(-0.0199786 -0.000419012 7.41979e-05)
(-0.0211273 -0.000412958 -0.00013428)
(-0.0196942 -0.000323416 -0.000221944)
(-0.0210941 -0.000295439 -0.000364298)
(-0.0197354 -0.000207212 -0.000325722)
(-0.0212837 -0.000164295 -0.000292459)
(-0.022939 -0.000654055 0.000422345)
(-0.0212532 -0.000603821 0.000385482)
(-0.0220833 -0.00063646 0.000279304)
(-0.020889 -0.000553376 0.000148381)
(-0.0220011 -0.000553442 -4.41171e-05)
(-0.0210271 -0.000458034 -0.000181341)
(-0.0222795 -0.000425286 -0.000350313)
(-0.0214521 -0.000315433 -0.000394929)
(-0.0227985 -0.000250623 -0.000447774)
(-0.0226935 -0.000279085 0.000137128)
(-0.0208904 -0.000238864 0.000118108)
(-0.0215945 -0.00023957 9.88499e-06)
(-0.0202016 -0.000194164 -7.30278e-05)
(-0.0212714 -0.0001676 -0.00022357)
(-0.0200936 -0.000119821 -0.000286699)
(-0.0213418 -7.68138e-05 -0.000357869)
(-0.0202096 -3.75224e-05 -0.000308527)
(-0.0214851 1.1068e-05 -0.000217293)
(-0.0228607 -0.000511786 0.000171269)
(-0.0211445 -0.000453959 0.000151935)
(-0.0219312 -0.000464308 4.74283e-05)
(-0.0206837 -0.000391964 -3.14377e-05)
(-0.0217847 -0.00037065 -0.000190299)
(-0.0207601 -0.000295093 -0.000257627)
(-0.0219842 -0.000260983 -0.000353714)
(-0.0210553 -0.000168247 -0.000303391)
(-0.0223097 -0.000133231 -0.000251056)
(-0.0230139 -0.000597081 0.000233496)
(-0.0214142 -0.000551032 0.000214437)
(-0.0222895 -0.000563136 0.000133039)
(-0.021214 -0.000496408 4.17726e-05)
(-0.0223601 -0.000471204 -9.30948e-05)
(-0.0215069 -0.000386361 -0.000185627)
(-0.0227447 -0.00034071 -0.000293664)
(-0.0220245 -0.000242976 -0.000293912)
(-0.0233135 -0.00017783 -0.000291256)
)
;

boundaryField
{
    inlet
    {
        type            calculated;
        value           nonuniform List<vector> 9((-0.0100001 5.58042e-08 1.37846e-06) (-0.00999994 1.91717e-08 7.93393e-07) (-0.01 2.13861e-08 1.04988e-06) (-0.01 7.85444e-08 1.01283e-06) (-0.01 1.2228e-07 6.51204e-07) (-0.00999995 1.04284e-07 6.64815e-07) (-0.0100001 -1.46751e-07 5.47606e-07) (-0.00999995 5.74456e-08 4.47949e-07) (-0.00999971 4.7145e-08 8.45625e-07));
    }
    outlet
    {
        type            calculated;
        value           nonuniform 0();
    }
    wall
    {
        type            calculated;
        value           nonuniform List<vector> 
57
(
(-7.89873e-08 -1.46751e-07 5.47606e-07)
(5.02594e-08 5.74456e-08 4.47949e-07)
(2.85807e-07 4.7145e-08 8.45625e-07)
(-1.34082e-07 2.69975e-07 8.28568e-07)
(-2.60233e-08 1.0008e-07 5.51286e-07)
(6.90681e-08 4.75093e-08 6.16333e-07)
(1.98843e-09 2.19604e-07 6.8694e-07)
(4.70018e-08 1.17962e-07 8.26047e-07)
(1.54172e-08 1.18972e-07 6.18472e-07)
(1.47476e-07 8.11189e-08 1.277e-06)
(2.87972e-07 1.53626e-07 8.89033e-07)
(3.21855e-07 6.02505e-08 4.98639e-07)
(-1.11782e-07 -2.53122e-08 8.45718e-07)
(1.17187e-07 9.9448e-08 1.45509e-06)
(5.31778e-07 -6.75012e-10 1.16652e-06)
(-5.56084e-08 -1.18869e-07 8.40894e-07)
(-1.77432e-08 5.69433e-08 1.23639e-06)
(2.97124e-07 -1.63012e-08 9.23945e-07)
(-6.31026e-08 -1.8297e-08 9.33793e-07)
(-1.2078e-08 -1.91077e-07 9.90946e-07)
(-3.83532e-08 2.45881e-08 6.72167e-07)
(-8.24972e-08 -1.10122e-07 4.96687e-07)
(-3.0781e-07 2.5898e-07 1.49441e-06)
(3.10777e-07 -5.30631e-08 1.05352e-06)
(2.89134e-07 -1.71452e-07 9.54458e-07)
(1.29382e-07 -1.93211e-08 1.06899e-06)
(6.01255e-07 3.23041e-08 8.15199e-07)
(-2.00196e-08 2.13861e-08 1.04988e-06)
(4.74567e-08 1.04284e-07 6.64815e-07)
(2.85807e-07 4.7145e-08 8.45625e-07)
(-1.42617e-08 7.148e-08 8.53126e-07)
(1.51446e-07 1.408e-07 5.95055e-07)
(6.90681e-08 4.75093e-08 6.16333e-07)
(2.90541e-07 -6.78379e-08 1.68081e-06)
(3.51363e-07 3.56188e-08 9.95436e-07)
(1.54172e-08 1.18972e-07 6.18472e-07)
(4.92208e-07 -8.3036e-10 1.10749e-06)
(5.47315e-07 6.63205e-08 8.17248e-07)
(3.21855e-07 6.02505e-08 4.98639e-07)
(5.55633e-07 8.14627e-08 1.25943e-06)
(6.22984e-07 3.18856e-07 1.1935e-06)
(5.31778e-07 -6.75012e-10 1.16652e-06)
(4.25141e-07 7.15159e-08 1.34286e-06)
(6.00429e-07 4.96133e-08 1.22555e-06)
(2.97124e-07 -1.63012e-08 9.23945e-07)
(4.35877e-07 3.02226e-08 1.59326e-06)
(1.74107e-07 -4.81779e-08 1.37689e-06)
(2.29641e-07 -3.73703e-08 1.18788e-06)
(-3.83532e-08 2.45881e-08 6.72167e-07)
(1.89326e-07 2.22074e-07 1.65614e-06)
(3.69496e-07 1.32579e-07 1.30504e-06)
(3.07723e-07 3.58325e-08 1.12918e-06)
(3.10777e-07 -5.30631e-08 1.05352e-06)
(4.1602e-07 3.6221e-07 1.83659e-06)
(1.23776e-07 1.57752e-07 1.18647e-06)
(1.65009e-07 6.46294e-08 1.58168e-06)
(6.01255e-07 3.23041e-08 8.15199e-07)
)
;
    }
    procBoundary6to0
    {
        type            processor;
        value           uniform (-0.0197942 2.6635e-06 -0.000301094);
    }
    procBoundary6to2
    {
        type            processor;
        value           nonuniform List<vector> 
32
(
(-0.0206387 -0.000199702 -0.00043296)
(-0.0200083 -0.00038837 -0.000531549)
(-0.0216176 -0.000381519 -0.000653719)
(-0.0228767 -0.000632691 -0.000448892)
(-0.0219909 -0.000554579 -0.000724709)
(-0.0233666 -0.000538193 -0.00100909)
(-0.0225585 -0.000283684 0.00129587)
(-0.0204253 -0.000263142 0.00108796)
(-0.0210654 -0.000283071 0.000921727)
(-0.0191698 -0.000240526 0.000551338)
(-0.0203221 -0.000233672 0.000207099)
(-0.0186255 -0.000198436 -6.44857e-05)
(-0.0201122 -0.000179103 -0.000308893)
(-0.0185223 -0.000157777 -0.000316048)
(-0.0185223 -0.000157777 -0.000316048)
(-0.0185223 -0.000157777 -0.000316048)
(-0.0227629 -0.000573931 0.00129495)
(-0.0207525 -0.000515558 0.00111213)
(-0.0214823 -0.000555512 0.000958744)
(-0.0197735 -0.000469019 0.000611995)
(-0.020941 -0.000476989 0.000268415)
(-0.0193931 -0.000393339 -4.12947e-05)
(-0.0208719 -0.000383374 -0.000353243)
(-0.0208719 -0.000383374 -0.000353243)
(-0.0208719 -0.000383374 -0.000353243)
(-0.0229854 -0.000687417 0.00129772)
(-0.0212381 -0.000642802 0.00115104)
(-0.0220754 -0.000697763 0.00101614)
(-0.0208099 -0.000621764 0.000707297)
(-0.0219427 -0.000644712 0.000363585)
(-0.0209171 -0.000554329 -5.30108e-06)
(-0.0209171 -0.000554329 -5.30108e-06)
)
;
    }
    procBoundary6to4
    {
        type            processor;
        value           nonuniform List<vector> 
27
(
(-0.0224037 9.63497e-05 0.000794062)
(-0.0202321 6.43086e-05 0.00065645)
(-0.0207929 6.10606e-05 0.000496903)
(-0.018831 4.53304e-05 0.000255287)
(-0.0199441 3.82393e-05 -8.58282e-06)
(-0.0181655 3.10828e-05 -0.000168183)
(-0.0196196 2.58644e-05 -0.000325146)
(-0.0179179 3.22584e-05 -0.000294217)
(-0.0195254 4.17946e-05 -0.000239795)
(-0.022491 9.65583e-05 0.000334052)
(-0.0204552 6.66449e-05 0.000263836)
(-0.0210725 6.89359e-05 0.000106342)
(-0.0193279 5.42291e-05 -1.87573e-05)
(-0.0204284 5.78365e-05 -0.000242081)
(-0.0188746 5.36742e-05 -0.000321323)
(-0.0202509 5.85006e-05 -0.0004616)
(-0.0187498 6.84717e-05 -0.000377961)
(-0.020231 8.72432e-05 -0.000319653)
(-0.0226234 7.54938e-05 0.000150601)
(-0.0207891 6.4353e-05 0.000105374)
(-0.02148 7.54935e-05 -1.92662e-05)
(-0.0200745 6.81511e-05 -0.000116456)
(-0.0211654 8.10189e-05 -0.000290327)
(-0.0200553 8.32524e-05 -0.000366774)
(-0.0213334 0.000114433 -0.000482542)
(-0.0203855 0.000128555 -0.000422113)
(-0.0216428 0.000192829 -0.000368339)
)
;
    }
    procBoundary6to7
    {
        type            processor;
        value           nonuniform List<vector> 
12
(
(-0.0186168 -0.000136106 -0.000101758)
(-0.0197061 -0.000208128 -0.000304372)
(-0.021994 -0.000293108 -0.000694132)
(-0.0181993 -7.24796e-05 -5.40928e-05)
(-0.0193301 -0.000142333 -0.000195235)
(-0.0215521 -0.000218701 -0.000482974)
(-0.0188812 -3.78754e-05 -5.73876e-05)
(-0.0198972 -0.00011002 -0.000144717)
(-0.0220188 -0.000172563 -0.000359679)
(-0.0201858 3.02454e-05 -5.24821e-05)
(-0.0213096 -8.46347e-05 -7.66486e-05)
(-0.0226234 -0.000120958 -0.00017154)
)
;
    }
}


// ************************************************************************* //
