/*--------------------------------*- C++ -*----------------------------------*\
| =========                 |                                                 |
| \\      /  F ield         | OpenFOAM: The Open Source CFD Toolbox           |
|  \\    /   O peration     | Version:  4.x                                   |
|   \\  /    A nd           | Web:      www.OpenFOAM.org                      |
|    \\/     M anipulation  |                                                 |
\*---------------------------------------------------------------------------*/
FoamFile
{
    version     2.0;
    format      ascii;
    class       volVectorField;
    location    "8.5";
    object      UsNext;
}
// * * * * * * * * * * * * * * * * * * * * * * * * * * * * * * * * * * * * * //

dimensions      [0 1 -1 0 0 0 0];

internalField   nonuniform List<vector> 
87
(
(-2.44812e-07 -1.25863e-08 3.77444e-08)
(-1.96346e-07 -2.24683e-08 1.45355e-08)
(-2.25745e-07 -6.543e-09 2.67758e-08)
(-6.73236e-08 -1.904e-09 1.41113e-09)
(-1.0837e-07 -1.05819e-08 -6.25146e-11)
(-8.58232e-08 -4.98263e-10 4.25184e-10)
(6.59286e-09 5.01576e-09 4.87568e-09)
(5.14736e-09 8.6269e-09 4.45026e-09)
(-5.80764e-09 5.46992e-09 3.24925e-09)
(-2.69416e-08 1.69795e-09 1.70328e-10)
(-8.73206e-08 1.79417e-09 -7.24305e-09)
(-1.69032e-07 -1.18978e-08 1.37135e-08)
(-1.92701e-07 -1.4515e-08 1.45868e-08)
(-2.19112e-07 -1.78856e-08 2.22574e-08)
(-2.43411e-07 -7.38274e-09 3.05238e-08)
(9.28523e-09 4.33109e-09 6.08572e-09)
(7.25084e-09 4.90231e-09 4.29218e-09)
(-9.73261e-10 5.97147e-09 2.36516e-09)
(-3.27266e-08 5.22127e-09 -1.49623e-09)
(-6.32272e-08 9.25458e-09 -1.03818e-08)
(-1.21794e-07 2.02223e-10 5.24537e-10)
(-1.68702e-07 -1.01888e-08 4.10626e-09)
(-1.90052e-07 -1.47679e-08 3.73455e-09)
(-2.21345e-07 7.39662e-11 2.46163e-08)
(3.36962e-09 1.54363e-09 1.03664e-09)
(9.36584e-09 3.21668e-09 2.28662e-09)
(1.02494e-09 4.69132e-09 3.36517e-09)
(-1.47154e-08 8.2943e-09 -9.60919e-10)
(-2.56956e-08 9.2433e-09 -3.60133e-09)
(-6.96483e-08 6.39995e-09 -2.5949e-09)
(-1.03392e-07 -6.18199e-09 8.47534e-09)
(-1.17937e-07 1.83997e-08 8.1157e-09)
(-1.51867e-07 4.55042e-09 1.96646e-10)
(6.63897e-09 5.09302e-09 2.38764e-09)
(2.52176e-09 8.50179e-09 5.93586e-09)
(-6.98804e-09 7.78782e-09 5.52286e-09)
(-2.24437e-08 7.74702e-09 3.24868e-09)
(-5.70497e-08 7.74703e-09 -2.42044e-10)
(-1.35934e-07 7.40467e-09 1.05535e-08)
(-1.72966e-07 -4.22419e-09 5.58573e-09)
(-1.98386e-07 -1.70577e-08 1.74422e-08)
(-2.09229e-07 -8.98548e-09 1.94504e-08)
(7.47634e-09 5.67925e-09 4.94083e-09)
(5.0734e-09 4.96399e-09 3.00095e-09)
(-3.66393e-09 6.30265e-09 3.84882e-09)
(-2.42385e-08 8.79721e-09 -9.90537e-10)
(-4.29757e-08 1.05847e-08 -7.4109e-09)
(-1.23356e-07 1.30838e-08 6.0724e-09)
(-1.42298e-07 -3.49522e-09 3.58246e-09)
(-2.06358e-07 9.82868e-08 7.42465e-09)
(-2.07201e-07 -7.92823e-09 3.2979e-08)
(2.59979e-08 -1.15994e-09 -6.28517e-09)
(2.66556e-08 3.96877e-09 -9.44893e-09)
(9.44565e-10 1.22468e-09 5.59053e-09)
(-8.96796e-09 4.4867e-09 -7.37608e-10)
(-2.16443e-08 7.77527e-09 -4.83513e-09)
(-5.06211e-08 5.75955e-09 -2.5797e-09)
(-7.69553e-08 1.61932e-09 4.98386e-09)
(-9.84279e-08 6.29534e-09 -2.32185e-09)
(-1.23815e-07 -5.47904e-09 2.24139e-08)
(5.20785e-09 4.34989e-09 1.79868e-10)
(5.20367e-09 6.57821e-09 2.62823e-09)
(-1.84595e-09 3.09754e-09 4.32243e-09)
(-1.96673e-08 2.09321e-09 5.27002e-09)
(-4.32788e-08 1.6172e-09 9.1652e-09)
(-8.32098e-08 -7.86555e-11 1.10669e-08)
(-1.35571e-07 -1.69791e-08 2.40576e-09)
(-1.43808e-07 -1.14202e-08 6.93929e-09)
(-1.68642e-07 -2.77942e-08 -1.63668e-08)
(4.67529e-08 2.31318e-08 2.95869e-09)
(7.56343e-09 1.12351e-09 1.63017e-09)
(6.02704e-09 4.34516e-09 2.72465e-09)
(-1.55226e-08 4.57638e-09 2.15074e-09)
(-3.49541e-08 5.10431e-09 5.65576e-10)
(-6.36947e-08 6.48566e-09 1.38931e-09)
(-1.02734e-07 -1.91262e-08 -5.43042e-09)
(-2.11124e-07 1.78745e-07 2.66037e-08)
(-1.41216e-07 -1.21968e-08 1.76926e-08)
(1.51054e-07 4.83121e-08 3.8272e-09)
(9.7873e-09 9.90445e-10 8.89127e-12)
(3.57581e-09 1.89322e-09 3.81841e-09)
(-5.18645e-09 3.56647e-09 2.90732e-09)
(-1.2162e-08 1.90038e-09 -1.08519e-09)
(-3.60056e-08 2.87387e-09 1.03776e-09)
(-5.16993e-08 2.81342e-09 1.57628e-09)
(-5.28811e-08 -1.75403e-09 -5.53561e-09)
(-7.45663e-08 -1.40008e-08 2.7553e-08)
)
;

boundaryField
{
    inlet
    {
        type            calculated;
        value           nonuniform List<vector> 9((6.59286e-09 5.01576e-09 4.87568e-09) (9.28523e-09 4.33109e-09 6.08572e-09) (3.36962e-09 1.54363e-09 1.03664e-09) (6.63897e-09 5.09302e-09 2.38764e-09) (7.47634e-09 5.67925e-09 4.94083e-09) (2.59979e-08 -1.15994e-09 -6.28517e-09) (5.20785e-09 4.34989e-09 1.79868e-10) (4.67529e-08 2.31318e-08 2.95869e-09) (1.51054e-07 4.83121e-08 3.8272e-09));
    }
    outlet
    {
        type            calculated;
        value           nonuniform 0();
    }
    wall
    {
        type            calculated;
        value           nonuniform List<vector> 
57
(
(5.20785e-09 4.34989e-09 1.79868e-10)
(4.67529e-08 2.31318e-08 2.95869e-09)
(1.51054e-07 4.83121e-08 3.8272e-09)
(5.20367e-09 6.57821e-09 2.62823e-09)
(7.56343e-09 1.12351e-09 1.63017e-09)
(9.7873e-09 9.90445e-10 8.89127e-12)
(-1.84595e-09 3.09754e-09 4.32243e-09)
(6.02704e-09 4.34516e-09 2.72465e-09)
(3.57581e-09 1.89322e-09 3.81841e-09)
(-1.96673e-08 2.09321e-09 5.27002e-09)
(-1.55226e-08 4.57638e-09 2.15074e-09)
(-5.18645e-09 3.56647e-09 2.90732e-09)
(-4.32788e-08 1.6172e-09 9.1652e-09)
(-3.49541e-08 5.10431e-09 5.65576e-10)
(-1.2162e-08 1.90038e-09 -1.08519e-09)
(-8.32098e-08 -7.86555e-11 1.10669e-08)
(-6.36947e-08 6.48566e-09 1.38931e-09)
(-3.60056e-08 2.87387e-09 1.03776e-09)
(-1.35571e-07 -1.69791e-08 2.40576e-09)
(-1.02734e-07 -1.91262e-08 -5.43042e-09)
(-5.16993e-08 2.81342e-09 1.57628e-09)
(-1.43808e-07 -1.14202e-08 6.93929e-09)
(-2.11124e-07 1.78745e-07 2.66037e-08)
(-5.28811e-08 -1.75403e-09 -5.53561e-09)
(-1.68642e-07 -2.77942e-08 -1.63668e-08)
(-1.41216e-07 -1.21968e-08 1.76926e-08)
(-7.45663e-08 -1.40008e-08 2.7553e-08)
(3.36962e-09 1.54363e-09 1.03664e-09)
(2.59979e-08 -1.15994e-09 -6.28517e-09)
(1.51054e-07 4.83121e-08 3.8272e-09)
(9.36584e-09 3.21668e-09 2.28662e-09)
(2.66556e-08 3.96877e-09 -9.44893e-09)
(9.7873e-09 9.90445e-10 8.89127e-12)
(1.02494e-09 4.69132e-09 3.36517e-09)
(9.44565e-10 1.22468e-09 5.59053e-09)
(3.57581e-09 1.89322e-09 3.81841e-09)
(-1.47154e-08 8.2943e-09 -9.60919e-10)
(-8.96796e-09 4.4867e-09 -7.37608e-10)
(-5.18645e-09 3.56647e-09 2.90732e-09)
(-2.56956e-08 9.2433e-09 -3.60133e-09)
(-2.16443e-08 7.77527e-09 -4.83513e-09)
(-1.2162e-08 1.90038e-09 -1.08519e-09)
(-6.96483e-08 6.39995e-09 -2.5949e-09)
(-5.06211e-08 5.75955e-09 -2.5797e-09)
(-3.60056e-08 2.87387e-09 1.03776e-09)
(-6.73236e-08 -1.904e-09 1.41113e-09)
(-1.03392e-07 -6.18199e-09 8.47534e-09)
(-7.69553e-08 1.61932e-09 4.98386e-09)
(-5.16993e-08 2.81342e-09 1.57628e-09)
(-1.0837e-07 -1.05819e-08 -6.25146e-11)
(-1.17937e-07 1.83997e-08 8.1157e-09)
(-9.84279e-08 6.29534e-09 -2.32185e-09)
(-5.28811e-08 -1.75403e-09 -5.53561e-09)
(-8.58232e-08 -4.98263e-10 4.25184e-10)
(-1.51867e-07 4.55042e-09 1.96646e-10)
(-1.23815e-07 -5.47904e-09 2.24139e-08)
(-7.45663e-08 -1.40008e-08 2.7553e-08)
)
;
    }
    procBoundary6to0
    {
        type            processor;
        value           uniform (-2.54436e-07 -2.02183e-08 4.69404e-08);
    }
    procBoundary6to2
    {
        type            processor;
        value           nonuniform List<vector> 
32
(
(-2.28615e-07 -2.18854e-08 4.75239e-08)
(-1.80216e-07 -1.53693e-08 1.62393e-08)
(-2.059e-07 -1.50953e-08 3.09145e-08)
(-8.14395e-08 5.40473e-09 9.33938e-10)
(-1.00579e-07 1.95393e-09 -3.42134e-09)
(-1.35135e-07 -2.3698e-09 -2.22315e-09)
(6.5431e-09 5.09232e-09 5.78615e-09)
(5.35706e-09 7.98977e-09 4.08142e-09)
(-4.76178e-09 7.275e-09 -2.59306e-09)
(-3.71354e-08 6.9335e-09 -7.52087e-09)
(-7.66181e-08 -2.14526e-09 -1.35413e-08)
(-1.46735e-07 -3.62054e-09 1.99315e-09)
(-1.88957e-07 -1.2443e-08 8.9934e-09)
(-2.32063e-07 -1.75843e-08 2.52918e-08)
(-2.32063e-07 -1.75843e-08 2.52918e-08)
(-2.32063e-07 -1.75843e-08 2.52918e-08)
(6.02836e-09 1.94822e-09 6.42624e-09)
(5.78825e-09 5.50445e-09 6.3003e-09)
(-8.65465e-09 7.85254e-09 -3.37835e-09)
(-3.29437e-08 8.73743e-09 -6.59809e-09)
(-7.10283e-08 8.60943e-09 -1.01839e-08)
(-1.15444e-07 1.24743e-09 -5.51534e-09)
(-1.47763e-07 -5.73076e-10 -3.24197e-09)
(-1.47763e-07 -5.73076e-10 -3.24197e-09)
(-1.47763e-07 -5.73076e-10 -3.24197e-09)
(5.93308e-09 4.6112e-11 5.42194e-09)
(4.74527e-09 2.29183e-09 4.69066e-09)
(-1.60099e-10 4.2611e-09 3.85749e-10)
(-1.1175e-08 7.31741e-09 -1.56595e-09)
(-4.18716e-08 9.59544e-09 -7.99703e-09)
(-5.76945e-08 5.224e-09 -3.96246e-09)
(-5.76945e-08 5.224e-09 -3.96246e-09)
)
;
    }
    procBoundary6to4
    {
        type            processor;
        value           nonuniform List<vector> 
27
(
(6.33247e-09 4.54913e-09 4.69266e-09)
(6.82914e-09 6.6432e-09 4.61024e-09)
(-4.27027e-09 1.00635e-08 1.17976e-09)
(-2.99483e-08 1.02939e-08 1.24286e-09)
(-8.84293e-08 -5.95755e-09 -4.08852e-09)
(-1.73017e-07 -1.84777e-08 -3.53226e-09)
(-2.08887e-07 -1.59598e-08 1.94808e-09)
(-2.489e-07 -2.42354e-08 2.43613e-08)
(-2.5721e-07 -1.19342e-08 2.42602e-08)
(7.0319e-09 3.91725e-09 2.28815e-09)
(5.92244e-09 5.30949e-09 2.96677e-09)
(-8.25689e-09 8.62543e-09 4.79849e-09)
(-2.49766e-08 5.96368e-09 5.29972e-09)
(-5.04243e-08 5.29973e-10 7.97584e-09)
(-1.48714e-07 -1.92669e-08 8.10076e-09)
(-1.74873e-07 -2.75459e-08 5.77571e-09)
(-2.07416e-07 -2.03696e-08 6.56036e-09)
(-2.2172e-07 -1.31805e-08 -3.20524e-10)
(4.43205e-09 2.70289e-09 1.12539e-09)
(4.24209e-09 3.88271e-09 2.1765e-09)
(-4.97262e-09 -4.28919e-10 4.91378e-09)
(-1.71157e-08 1.94682e-09 4.27793e-09)
(-3.46588e-08 4.22488e-09 1.2092e-08)
(-7.11998e-08 -2.15789e-09 1.25805e-08)
(-1.10402e-07 -2.0141e-08 1.14145e-08)
(-3.90698e-07 1.24777e-07 3.00759e-09)
(-1.72993e-07 -1.30054e-08 2.94292e-09)
)
;
    }
    procBoundary6to7
    {
        type            processor;
        value           nonuniform List<vector> 
12
(
(-2.61769e-07 -7.56558e-09 4.23815e-08)
(-2.44789e-07 -1.51773e-08 2.89932e-08)
(-2.03218e-07 7.97501e-09 5.8616e-09)
(-2.50201e-07 -1.05584e-08 3.16485e-08)
(-2.38982e-07 -1.31628e-08 3.02721e-08)
(-1.99239e-07 -1.16992e-08 1.98543e-08)
(-2.13198e-07 -1.39817e-08 1.97023e-08)
(-1.98422e-07 -1.2736e-08 2.63382e-08)
(-1.29815e-07 -5.99656e-09 1.89003e-08)
(-1.39718e-07 -1.69421e-08 1.64046e-08)
(-8.81783e-08 -2.08728e-08 9.27725e-09)
(-6.59547e-08 1.39498e-09 6.65477e-09)
)
;
    }
}


// ************************************************************************* //
