/*--------------------------------*- C++ -*----------------------------------*\
| =========                 |                                                 |
| \\      /  F ield         | OpenFOAM: The Open Source CFD Toolbox           |
|  \\    /   O peration     | Version:  4.x                                   |
|   \\  /    A nd           | Web:      www.OpenFOAM.org                      |
|    \\/     M anipulation  |                                                 |
\*---------------------------------------------------------------------------*/
FoamFile
{
    version     2.0;
    format      ascii;
    class       volVectorField;
    location    "8.5";
    object      UsPrev;
}
// * * * * * * * * * * * * * * * * * * * * * * * * * * * * * * * * * * * * * //

dimensions      [0 1 -1 0 0 0 0];

internalField   nonuniform List<vector> 
87
(
(-2.45776e-07 -1.1898e-08 3.83752e-08)
(-1.97785e-07 -2.20276e-08 1.49925e-08)
(-2.26921e-07 -6.1009e-09 2.7234e-08)
(-6.87558e-08 -1.72658e-09 1.71422e-09)
(-1.09546e-07 -1.035e-08 2.58686e-10)
(-8.66249e-08 -3.36454e-10 6.83102e-10)
(5.59929e-09 3.56933e-09 3.61611e-09)
(2.37509e-09 7.00976e-09 3.0489e-09)
(-9.66194e-09 4.67246e-09 2.69303e-09)
(-3.03277e-08 1.65438e-09 3.39038e-10)
(-9.09029e-08 2.26254e-09 -6.61468e-09)
(-1.71305e-07 -1.13646e-08 1.43524e-08)
(-1.94953e-07 -1.37966e-08 1.53623e-08)
(-2.20344e-07 -1.73543e-08 2.27863e-08)
(-2.44465e-07 -6.90899e-09 3.10135e-08)
(8.34159e-09 3.34845e-09 5.2064e-09)
(5.32493e-09 4.02827e-09 3.55912e-09)
(-4.21895e-09 5.37994e-09 1.96187e-09)
(-3.58241e-08 5.14775e-09 -1.46704e-09)
(-6.66222e-08 9.47429e-09 -1.0078e-08)
(-1.24255e-07 5.36724e-10 9.54459e-10)
(-1.70988e-07 -9.74525e-09 4.59338e-09)
(-1.91501e-07 -1.44109e-08 4.12955e-09)
(-2.22636e-07 4.03549e-10 2.50098e-08)
(2.9185e-09 1.27109e-09 6.08438e-10)
(8.01373e-09 2.82864e-09 1.82518e-09)
(-6.96306e-10 4.5662e-09 3.14193e-09)
(-1.66902e-08 8.19991e-09 -9.91531e-10)
(-2.8e-08 9.28007e-09 -3.47478e-09)
(-7.17838e-08 6.55744e-09 -2.3239e-09)
(-1.05209e-07 -6.00194e-09 8.7857e-09)
(-1.18863e-07 1.8523e-08 8.34972e-09)
(-1.52923e-07 4.69349e-09 4.61619e-10)
(5.84633e-09 4.19166e-09 1.57857e-09)
(4.10258e-10 7.53749e-09 5.1426e-09)
(-1.01789e-08 7.12801e-09 5.06787e-09)
(-2.54765e-08 7.59415e-09 3.27778e-09)
(-6.03919e-08 7.89424e-09 3.28596e-11)
(-1.38481e-07 7.71539e-09 1.09538e-08)
(-1.7544e-07 -3.80453e-09 6.03444e-09)
(-1.99821e-07 -1.67045e-08 1.78131e-08)
(-2.1051e-07 -8.60548e-09 1.98061e-08)
(6.80573e-09 5.06555e-09 4.42945e-09)
(3.25638e-09 4.32042e-09 2.47589e-09)
(-6.44443e-09 5.82213e-09 3.52205e-09)
(-2.69909e-08 8.66427e-09 -1.02367e-09)
(-4.62896e-08 1.0633e-08 -7.27635e-09)
(-1.25856e-07 1.32942e-08 6.33241e-09)
(-1.44709e-07 -3.20803e-09 3.90949e-09)
(-2.08007e-07 9.85966e-08 7.69194e-09)
(-2.08623e-07 -7.63111e-09 3.32696e-08)
(2.55192e-08 -1.39239e-09 -6.63142e-09)
(2.57269e-08 3.7428e-09 -9.73267e-09)
(-6.7106e-10 1.05544e-09 5.42837e-09)
(-1.07183e-08 4.43214e-09 -7.70707e-10)
(-2.37017e-08 7.78685e-09 -4.75733e-09)
(-5.22608e-08 5.87223e-09 -2.44935e-09)
(-7.86054e-08 1.71792e-09 5.16602e-09)
(-9.9698e-08 6.4069e-09 -2.12957e-09)
(-1.24888e-07 -5.37539e-09 2.25996e-08)
(4.58787e-09 3.71179e-09 -1.71134e-10)
(3.98775e-09 6.06084e-09 2.36252e-09)
(-4.27782e-09 2.64973e-09 4.12895e-09)
(-2.16682e-08 1.95314e-09 5.27865e-09)
(-4.53841e-08 1.63987e-09 9.28128e-09)
(-8.49512e-08 6.83396e-11 1.12333e-08)
(-1.37533e-07 -1.67265e-08 2.60055e-09)
(-1.44949e-07 -1.12006e-08 7.05563e-09)
(-1.6994e-07 -2.75089e-08 -1.61835e-08)
(4.63392e-08 2.28153e-08 2.79178e-09)
(6.46284e-09 7.25261e-10 1.42466e-09)
(4.43352e-09 4.08213e-09 2.61575e-09)
(-1.76092e-08 4.45513e-09 2.08307e-09)
(-3.69662e-08 5.10604e-09 5.77815e-10)
(-6.55478e-08 6.59396e-09 1.48204e-09)
(-1.04453e-07 -1.89863e-08 -5.27945e-09)
(-2.12452e-07 1.79e-07 2.67243e-08)
(-1.42165e-07 -1.20232e-08 1.77991e-08)
(1.5082e-07 4.81963e-08 3.69347e-09)
(8.9403e-09 8.63966e-10 -1.05393e-10)
(2.18643e-09 1.75785e-09 3.73378e-09)
(-6.60291e-09 3.51085e-09 2.85886e-09)
(-1.36425e-08 1.8992e-09 -1.01425e-09)
(-3.74641e-08 2.91106e-09 1.09774e-09)
(-5.32455e-08 2.88178e-09 1.64863e-09)
(-5.40384e-08 -1.67962e-09 -5.43369e-09)
(-7.55675e-08 -1.39232e-08 2.76165e-08)
)
;

boundaryField
{
    inlet
    {
        type            calculated;
        value           uniform (0 0 0);
    }
    outlet
    {
        type            calculated;
        value           nonuniform 0();
    }
    wall
    {
        type            calculated;
        value           uniform (0 0 0);
    }
    procBoundary6to0
    {
        type            processor;
        value           uniform (0 0 0);
    }
    procBoundary6to2
    {
        type            processor;
        value           uniform (0 0 0);
    }
    procBoundary6to4
    {
        type            processor;
        value           uniform (0 0 0);
    }
    procBoundary6to7
    {
        type            processor;
        value           uniform (0 0 0);
    }
}


// ************************************************************************* //
