/*--------------------------------*- C++ -*----------------------------------*\
  =========                 |
  \\      /  F ield         | OpenFOAM: The Open Source CFD Toolbox
   \\    /   O peration     | Website:  https://openfoam.org
    \\  /    A nd           | Version:  4.x
     \\/     M anipulation  |
\*---------------------------------------------------------------------------*/
FoamFile
{
    version     2.0;
    format      ascii;
    class       Cloud<passiveParticle>;
    location    0;
    object      positions;
}
// * * * * * * * * * * * * * * * * * * * * * * * * * * * * * * * * * * * * * //

407
(
( 0.258242 -0.00231606 0.00717843 ) 0
( 0.25444 0.0363041 0.00411242 ) 9
( 0.260088 0.0751843 -0.0115043 ) 27
( 0.259416 0.0469563 0.0238889 ) 52
( 0.262333 0.0894633 0.0153955 ) 61
( 0.250825 0.0131544 -0.00386615 ) 0
( 0.309342 -0.00715732 0.0175718 ) 36
( 0.335585 -0.00728739 0.0174789 ) 37
( 0.467307 -0.00659019 -0.0027488 ) 7
( 0.386393 -0.0140852 0.0128384 ) 4
( 0.439595 -0.00882431 -0.00443212 ) 6
( 0.398316 -0.00655275 0.0265483 ) 39
( 0.420219 -0.0111172 -0.00555171 ) 6
( 0.400549 -0.0119284 -0.00720308 ) 5
( 0.409163 -0.00886969 0.0103936 ) 5
( 0.322358 -0.00644521 0.00309308 ) 2
( 0.471691 -0.0120898 0.0157454 ) 41
( 0.294148 0.00296451 0.0100859 ) 1
( 0.490172 -0.0125465 -0.0113094 ) 8
( 0.366717 -0.0128578 0.0135351 ) 4
( 0.485926 -0.000564088 0.00401332 ) 8
( 0.3591 -0.00344298 -0.00706014 ) 3
( 0.419358 -0.0111067 0.0273485 ) 40
( 0.307048 -0.0127549 -0.0074023 ) 2
( 0.429111 -0.00399183 0.0116675 ) 6
( 0.452852 -0.0100031 0.0102261 ) 7
( 0.379867 -0.0126044 -0.00566128 ) 4
( 0.311935 0.0461104 0.0294683 ) 54
( 0.281439 0.0837431 0.0156912 ) 62
( 0.486896 0.0276299 0.021441 ) 51
( 0.344092 0.0700637 -0.00228632 ) 21
( 0.459032 0.0599138 -0.00737123 ) 25
( 0.420829 0.0522442 0.0211671 ) 58
( 0.380332 0.0560122 -0.00642002 ) 22
( 0.30044 0.0547208 -0.0119529 ) 19
( 0.352546 0.0132259 0.00118441 ) 3
( 0.301663 0.0187119 0.000364022 ) 10
( 0.392891 0.0669927 0.00379263 ) 23
( 0.284627 0.0216884 -0.012898 ) 10
( 0.368307 0.0207329 0.0159985 ) 47
( 0.398548 0.0834884 0.0130694 ) 32
( 0.437389 0.0260654 0.00860326 ) 15
( 0.468765 0.016707 0.0149707 ) 50
( 0.421746 0.0219819 -0.00305794 ) 15
( 0.376654 0.00382702 0.0107672 ) 4
( 0.415286 0.0573225 0.00318718 ) 23
( 0.296757 0.0519088 0.0181938 ) 53
( 0.345415 0.0251036 -0.0132851 ) 12
( 0.330194 0.0278393 0.0186832 ) 45
( 0.299377 0.0886733 0.0230094 ) 62
( 0.442368 0.0693969 -0.00407892 ) 24
( 0.326608 0.0329215 0.00028241 ) 11
( 0.360145 0.0718301 0.00931159 ) 30
( 0.364743 0.0549428 0.029194 ) 56
( 0.431323 0.0392534 -0.00525758 ) 15
( 0.313935 0.0906442 -0.0108031 ) 29
( 0.336846 0.0470839 -0.00896474 ) 21
( 0.399295 0.0500017 -0.00558603 ) 23
( 0.315824 0.0491343 -0.00119033 ) 20
( 0.348926 0.0222169 0.0184827 ) 46
( 0.428147 0.0576464 -0.011959 ) 24
( 0.287894 0.0477322 0.00126528 ) 19
( 0.387698 0.0447428 0.00946258 ) 22
( 0.314343 0.0599385 0.0155904 ) 54
( 0.49084 0.0630036 -0.00976416 ) 26
( 0.449208 0.0447091 0.000733647 ) 25
( 0.349106 0.0726534 0.0253592 ) 64
( 0.447674 0.0904995 0.0181563 ) 68
( 0.471553 0.0906151 0.0117059 ) 34
( 0.312748 0.0183102 0.0164579 ) 45
( 0.274386 0.0389842 -0.0100262 ) 9
( 0.452631 0.0597695 0.0131201 ) 25
( 0.332457 0.0899638 -0.00444844 ) 29
( 0.411685 0.0902202 9.1217e-05 ) 32
( 0.483982 0.0451235 -0.00914938 ) 26
( 0.390438 0.0332787 -0.0112056 ) 14
( 0.329961 0.0421256 0.036082 ) 45
( 0.37576 0.00468286 -0.0138058 ) 4
( 0.46038 0.00112668 0.0246391 ) 41
( 0.308162 0.0724533 -0.0131074 ) 29
( 0.287322 0.0670579 -0.00313659 ) 19
( 0.399079 0.0128944 0.0254544 ) 39
( 0.490456 0.0184105 0.00464202 ) 17
( 0.299368 0.0723199 0.0116706 ) 28
( 0.274992 0.00812372 0.00955909 ) 0
( 0.358852 0.0901361 0.0017635 ) 30
( 0.438434 0.0414763 0.0208046 ) 49
( 0.412156 0.0105804 0.010035 ) 5
( 0.339124 0.055686 0.0252584 ) 55
( 0.319128 0.0903895 0.0102383 ) 29
( 0.468045 0.0470796 0.0145233 ) 59
( 0.473304 0.0128408 -0.00370724 ) 8
( 0.278786 0.0476783 0.0243499 ) 53
( 0.318963 0.017118 -0.00912629 ) 11
( 0.402795 0.0256832 0.00196352 ) 14
( 0.357832 0.0901807 0.0215346 ) 64
( 0.406928 0.0692437 -0.00967318 ) 23
( 0.36475 0.0211653 -0.0121711 ) 13
( 0.380835 0.0775884 0.0369172 ) 65
( 0.41302 0.0263911 0.023474 ) 48
( 0.465189 0.0398288 -0.00895003 ) 16
( 0.485399 0.0783227 0.000794247 ) 35
( 0.42664 0.0122823 0.0228916 ) 40
( 0.434322 0.0554085 0.00726937 ) 24
( 0.490024 0.0082481 0.0214593 ) 42
( 0.369767 0.0349393 0.00213672 ) 13
( 0.433911 0.0765358 0.0152295 ) 67
( 0.326096 0.0749666 0.0202298 ) 63
( 0.477226 0.032579 0.00449898 ) 17
( 0.381089 0.0189866 -0.00137352 ) 13
( 0.394955 0.00324842 0.00420631 ) 5
( 0.26984 0.0713487 0.00538616 ) 18
( 0.28717 0.0174224 0.0216795 ) 44
( 0.269318 0.0317167 0.0163387 ) 43
( 0.377451 0.0789534 0.00343792 ) 31
( 0.370046 0.0531443 0.0100373 ) 22
( 0.37433 0.038386 0.0227589 ) 47
( 0.475919 0.0602662 0.00232312 ) 26
( 0.321889 0.0732742 0.000877872 ) 29
( 0.36132 0.0521699 -0.00991407 ) 22
( 0.333161 0.0146689 0.00442736 ) 11
( 0.269164 0.0493407 0.0066945 ) 18
( 0.306677 0.0363396 0.0108864 ) 11
( 0.291922 0.0835726 -0.0133656 ) 28
( 0.403286 0.0435224 0.0215061 ) 57
( 0.438112 0.0894446 0.00073242 ) 33
( 0.34627 0.0351331 0.00380024 ) 12
( 0.486098 0.0261467 -0.0129612 ) 17
( 0.409891 0.00562508 -0.00911477 ) 5
( 0.440295 0.0105813 -0.00325638 ) 6
( 0.405246 0.0641204 0.0186072 ) 57
( 0.425309 0.0902842 -0.0141911 ) 33
( 0.267759 0.0226671 -0.00134983 ) 9
( 0.393899 0.0842009 -0.00648114 ) 32
( 0.490176 0.00702784 -0.0137165 ) 8
( 0.37334 0.0904877 -0.0118411 ) 31
( 0.48991 0.0679221 0.0172489 ) 60
( 0.416763 0.0381687 0.00797131 ) 15
( 0.353147 0.0106107 0.0336685 ) 37
( 0.276962 0.090278 -0.00232115 ) 27
( 0.298773 0.0352956 -0.00968292 ) 10
( 0.388273 0.0259072 0.0155181 ) 47
( 0.267389 0.0736915 0.0265786 ) 61
( 0.350858 0.0540544 0.00746093 ) 21
( 0.471386 0.0901136 -0.00789163 ) 34
( 0.46768 0.0719859 0.0153197 ) 68
( 0.455849 0.031802 0.014334 ) 50
( 0.283556 0.00262393 -0.00711693 ) 1
( 0.444544 0.00860615 0.0160477 ) 41
( 0.285518 0.0286752 0.00568475 ) 10
( 0.418779 0.0892107 0.0187378 ) 67
( 0.454754 0.0238942 -0.00363743 ) 16
( 0.423858 0.0748503 -0.00177779 ) 33
( 0.343135 0.0273989 0.0368728 ) 46
( 0.254135 0.0609846 0.0116416 ) 18
( 0.300283 0.0902679 0.00338534 ) 28
( 0.340748 0.0859523 0.0129159 ) 30
( 0.302067 0.00509569 -0.013761 ) 1
( 0.490471 0.0493352 0.00907922 ) 26
( 0.394207 0.0908509 0.0306148 ) 66
( 0.364643 0.0717366 -0.0099784 ) 31
( 0.490577 0.0902276 0.0151643 ) 69
( 0.257674 -0.00484457 -0.0122616 ) 0
( 0.27549 -0.0115625 0.0105525 ) 0
( 0.307847 0.0725342 0.0311058 ) 63
( 0.35336 0.00102398 0.0166721 ) 37
( 0.339659 -0.00143095 -0.00479238 ) 3
( 0.338324 0.090232 0.0320075 ) 64
( 0.456082 0.081625 0.00298235 ) 34
( 0.317505 0.0273482 0.0333125 ) 45
( 0.490199 0.0482963 0.0288103 ) 60
( 0.328162 0.0092591 0.0246697 ) 36
( 0.458523 0.0477125 0.0321718 ) 59
( 0.283421 0.0385222 0.0410551 ) 44
( 0.436597 0.0666684 0.0444415 ) 90
( 0.331781 0.0575761 0.00705167 ) 20
( 0.363225 -0.00489048 0.0411354 ) 38
( 0.254301 0.0363331 0.0525386 ) 75
( 0.472457 -0.00322956 0.0457939 ) 74
( 0.318219 0.0509965 0.0496193 ) 86
( 0.301934 0.0904669 0.0424173 ) 62
( 0.382497 0.0618858 0.0479593 ) 88
( 0.354963 0.0843429 0.053662 ) 96
( 0.490343 0.0327042 0.059572 ) 83
( 0.433874 -0.00719337 0.0483335 ) 72
( 0.430163 0.089705 0.0516727 ) 99
( 0.36427 0.0559827 0.0525519 ) 88
( 0.352236 0.0411478 0.0223051 ) 46
( 0.284907 0.0898917 0.0541499 ) 94
( 0.475754 0.0231575 0.0497863 ) 83
( 0.267712 0.0494578 0.0459921 ) 84
( 0.393109 0.0140137 0.0624776 ) 71
( 0.468589 0.0901709 0.0487683 ) 100
( 0.417418 -0.000686219 0.0572517 ) 72
( 0.443313 0.027388 0.0509675 ) 81
( 0.364047 0.0342541 0.0540251 ) 79
( 0.41399 0.0522877 0.054457 ) 89
( 0.455149 0.0609644 0.0467744 ) 91
( 0.285772 0.051647 0.0564389 ) 85
( 0.405745 0.086468 0.0555698 ) 98
( 0.270243 0.0250121 0.0533131 ) 75
( 0.254943 0.0604254 0.056311 ) 84
( 0.40524 0.0356531 0.0601837 ) 80
( 0.344416 0.0332103 0.0557888 ) 78
( 0.490525 0.0903312 0.0544451 ) 101
( 0.398027 -0.00473409 0.0586376 ) 71
( 0.419922 0.0707296 0.0690454 ) 90
( 0.382043 0.0400839 0.0598787 ) 79
( 0.2863 0.0676793 0.0259043 ) 53
( 0.426477 0.0361906 0.0558163 ) 81
( 0.375903 0.0808117 0.0556492 ) 97
( 0.376807 0.00343977 0.0596455 ) 70
( 0.377343 0.0887296 0.0208493 ) 65
( 0.312636 0.0302061 0.0604571 ) 77
( 0.333954 0.0765062 0.0610139 ) 96
( 0.268793 0.0728758 0.0633772 ) 93
( 0.474104 0.0646291 0.0479889 ) 92
( 0.34556 0.0612947 0.0650918 ) 87
( 0.461345 0.00238907 0.0606485 ) 73
( 0.450227 0.090521 0.0563322 ) 100
( 0.443366 0.00830643 0.0552467 ) 72
( 0.311589 0.0697302 0.0522439 ) 86
( 0.389758 0.0556788 0.0304565 ) 57
( 0.490253 -0.00518508 0.0539745 ) 74
( 0.400814 0.0664912 0.0532723 ) 89
( 0.474613 0.0441756 0.0619866 ) 92
( 0.418714 0.0730007 0.0490275 ) 99
( 0.455071 0.0717523 0.0304464 ) 68
( 0.436539 0.054934 0.0609264 ) 90
( 0.379387 0.0252444 0.0464859 ) 79
( 0.490403 0.0663109 0.0370791 ) 60
( 0.469183 0.0309986 0.0300551 ) 50
( 0.308679 0.0875765 0.060589 ) 95
( 0.438116 0.0746301 0.0621152 ) 99
( 0.303257 0.0200585 0.0441235 ) 76
( 0.2601 0.0901079 0.0351527 ) 61
( 0.291722 0.0216703 0.0738482 ) 106
( 0.265427 0.0324808 0.0357437 ) 43
( 0.457878 0.0230844 0.0627186 ) 82
( 0.449443 0.0301401 0.0326502 ) 50
( 0.337515 0.0548398 0.0487428 ) 87
( 0.426885 0.0169755 0.0494612 ) 81
( 0.292598 0.0734098 0.0438889 ) 94
( 0.395479 0.0473249 0.0476439 ) 89
( 0.341885 -0.0103276 0.0356764 ) 37
( 0.363531 0.0141736 0.0497959 ) 70
( 0.366899 0.0906259 0.0391019 ) 65
( 0.490505 0.0131845 0.0623168 ) 74
( 0.490588 0.0108883 0.0426457 ) 42
( 0.458407 0.015335 0.0447761 ) 82
( 0.407751 0.0188112 0.0502806 ) 80
( 0.40112 0.0536888 0.0716617 ) 119
( 0.391639 0.0106215 0.0433594 ) 71
( 0.383105 -0.00621238 0.0389732 ) 38
( 0.425275 0.0469907 0.0393373 ) 58
( 0.470643 0.0844514 0.0302533 ) 68
( 0.438423 -0.00526143 0.029272 ) 40
( 0.379398 0.0582608 0.0668667 ) 88
( 0.433575 0.0893938 0.0321189 ) 67
( 0.37653 0.0684786 0.020253 ) 56
( 0.284555 0.0154996 0.0410248 ) 44
( 0.301804 0.0401294 0.0479866 ) 76
( 0.376163 0.0443404 0.0415344 ) 56
( 0.345945 0.0901365 0.0703556 ) 96
( 0.362443 0.0706087 0.0658363 ) 88
( 0.490104 0.0898681 0.0348345 ) 69
( 0.362221 0.0713035 0.0401844 ) 56
( 0.490562 0.0513644 0.0527072 ) 92
( 0.273495 0.0684268 0.0447363 ) 84
( 0.437988 0.0604602 0.0261032 ) 58
( 0.326707 0.0900893 0.0485014 ) 95
( 0.490279 0.0320034 0.0399944 ) 51
( 0.264969 0.0901401 0.0543935 ) 93
( 0.270174 0.0421722 0.0643283 ) 75
( 0.322997 0.0610526 0.0660693 ) 86
( 0.341137 0.0741887 0.0431206 ) 96
( 0.414584 0.090033 0.0381739 ) 66
( 0.459975 0.0378688 0.0501865 ) 82
( 0.452905 -0.00395798 0.0427941 ) 41
( 0.408864 0.0565631 0.0362314 ) 57
( 0.484195 -0.00780298 0.0308857 ) 42
( 0.44097 0.0128317 0.0362348 ) 40
( 0.360045 0.0459375 0.0689264 ) 87
( 0.399752 0.0732986 0.03515 ) 66
( 0.288335 0.0703146 0.0628595 ) 85
( 0.395913 0.0729428 0.0707182 ) 98
( 0.473776 0.012155 0.0332958 ) 42
( 0.415347 0.00498664 0.0382568 ) 39
( 0.317957 0.0899517 0.030603 ) 63
( 0.327937 0.0248848 0.0496061 ) 77
( 0.473916 0.059546 0.0287849 ) 60
( 0.36297 0.027867 0.0352598 ) 47
( 0.476438 0.0809434 0.0637521 ) 101
( 0.47574 0.0235322 0.0693738 ) 83
( 0.282738 0.0900868 0.034441 ) 62
( 0.421414 0.0708711 0.0295713 ) 58
( 0.452939 0.0901961 0.036933 ) 68
( 0.409427 0.0357738 0.0403255 ) 48
( 0.325095 0.0642624 0.0366909 ) 54
( 0.424218 0.0900701 0.0705631 ) 99
( 0.458492 0.0735551 0.061436 ) 100
( 0.429778 0.0288485 0.0336581 ) 49
( 0.296111 0.0552673 0.0374568 ) 53
( 0.425373 0.0121541 0.0702153 ) 72
( 0.292067 0.089293 0.0725937 ) 124
( 0.304304 0.054667 0.0630787 ) 85
( 0.404959 0.0901737 0.0749042 ) 128
( 0.355831 0.0267422 0.0703144 ) 78
( 0.36589 0.09012 0.0710402 ) 97
( 0.375511 0.0224856 0.0657121 ) 79
( 0.390976 0.033859 0.033359 ) 48
( 0.268342 0.0169213 0.0712252 ) 75
( 0.489905 0.0542037 0.0722443 ) 122
( 0.475821 0.045167 0.0419774 ) 60
( 0.297937 0.0322447 0.0291948 ) 44
( 0.352648 0.0444824 0.0416242 ) 55
( 0.252383 0.0887528 0.0726047 ) 123
( 0.446367 0.0385767 0.0673598 ) 82
( 0.418979 0.0450182 0.0716288 ) 120
( 0.32725 0.0417098 0.0666052 ) 77
( 0.445407 -0.00452288 0.0699567 ) 73
( 0.416958 0.0605282 0.085772 ) 120
( 0.458088 0.054295 0.0650787 ) 91
( 0.289385 0.0272098 0.0558795 ) 76
( 0.374333 0.0108204 0.0334157 ) 38
( 0.339676 0.0737711 0.0797419 ) 126
( 0.317642 0.00537337 0.0407937 ) 36
( 0.490734 0.0297926 0.0793278 ) 113
( 0.305195 0.0725841 0.0729661 ) 124
( 0.30687 0.0318653 0.082132 ) 107
( 0.25086 0.0264885 0.0720148 ) 105
( 0.278021 0.0575466 0.0742444 ) 115
( 0.39187 0.030115 0.0735597 ) 110
( 0.490565 -0.0142533 0.0714879 ) 104
( 0.434634 0.0529532 0.0804114 ) 120
( 0.38581 0.0907746 0.0695635 ) 97
( 0.325114 0.0904192 0.071104 ) 95
( 0.444532 0.0147228 0.0737124 ) 112
( 0.463309 -0.00902765 0.0768436 ) 103
( 0.377607 0.0751886 0.0767975 ) 127
( 0.443373 0.0458924 0.0447472 ) 90
( 0.449373 0.0699727 0.0782547 ) 121
( 0.443493 0.0884931 0.074626 ) 129
( 0.490722 0.0705849 0.0561032 ) 92
( 0.385439 0.0468264 0.081727 ) 118
( 0.272275 0.0900792 0.0727775 ) 123
( 0.272859 0.0332666 0.0818118 ) 105
( 0.342556 0.046862 0.0777864 ) 117
( 0.358825 0.0768866 0.0842074 ) 126
( 0.490084 0.0104914 0.0896793 ) 104
( 0.467355 0.0381541 0.0791976 ) 112
( 0.314181 0.0500989 0.0798133 ) 116
( 0.465265 0.0102384 0.0781252 ) 103
( 0.318487 0.0181027 0.0742457 ) 107
( 0.370585 0.0340385 0.0808678 ) 109
( 0.258494 0.0618207 0.0757548 ) 114
( 0.400004 0.0716214 0.0898346 ) 128
( 0.287962 0.0725759 0.0826139 ) 124
( 0.462492 0.090518 0.0720035 ) 130
( 0.490757 0.0754978 0.0751257 ) 131
( 0.417173 0.0803328 0.0873982 ) 129
( 0.431102 0.0301233 0.0766616 ) 111
( 0.392909 0.0900839 0.0903633 ) 128
( 0.36646 0.0590867 0.0814437 ) 118
( 0.338915 0.0276963 0.080186 ) 108
( 0.429822 -0.0108473 0.0796562 ) 102
( 0.472923 0.0642305 0.0738424 ) 122
( 0.305342 0.090062 0.0871975 ) 124
( 0.450938 0.0329241 0.0900738 ) 112
( 0.292613 0.042497 0.0732144 ) 106
( 0.490284 0.0461836 0.0902482 ) 122
( 0.403228 0.0470051 0.0903085 ) 119
( 0.453628 0.0517094 0.0842602 ) 121
( 0.263114 0.0899032 0.0902546 ) 123
( 0.410731 0.0281687 0.0774929 ) 110
( 0.264589 0.0498362 0.0902466 ) 114
( 0.320722 0.0715898 0.0849275 ) 125
( 0.4777 -0.00509078 0.0900995 ) 104
( 0.384628 0.0242731 0.0905907 ) 109
( 0.330609 0.0555832 0.0905507 ) 116
( 0.269727 0.0707829 0.0901042 ) 114
( 0.34606 0.0903104 0.0902455 ) 126
( 0.324421 0.0367916 0.090193 ) 107
( 0.256315 0.0270839 0.09057 ) 105
( 0.434022 0.0702276 0.0903588 ) 120
( 0.465538 0.0725257 0.0901928 ) 130
( 0.35647 0.0173301 0.0901502 ) 108
( 0.434583 0.00549038 0.0884806 ) 102
( 0.289736 0.0286223 0.0910923 ) 106
( 0.475184 0.0236873 0.0902127 ) 113
( 0.490005 0.0900004 0.0900746 ) 131
( 0.282998 0.0900799 0.0902324 ) 124
( 0.382377 0.0637781 0.0911597 ) 118
( 0.451877 0.0131279 0.0912595 ) 103
( 0.303592 0.0629735 0.0902767 ) 115
( 0.486335 0.0658856 0.0906877 ) 122
( 0.422255 0.0419699 0.0905934 ) 111
( 0.284153 0.0474687 0.090247 ) 115
( 0.47185 0.0531028 0.0907637 ) 121
( 0.349571 0.0604861 0.0905042 ) 117
( 0.372914 0.0899971 0.0900751 ) 127
( 0.324785 0.0901536 0.090544 ) 125
( 0.456475 0.0902624 0.090471 ) 130
( 0.421901 0.0197895 0.0906932 ) 111
( 0.326673 0.0172108 0.0911856 ) 107
( 0.35397 0.0370754 0.0905034 ) 108
( 0.433358 0.0905407 0.0906396 ) 129
)
