/*--------------------------------*- C++ -*----------------------------------*\
| =========                 |                                                 |
| \\      /  F ield         | OpenFOAM: The Open Source CFD Toolbox           |
|  \\    /   O peration     | Version:  4.x                                   |
|   \\  /    A nd           | Web:      www.OpenFOAM.org                      |
|    \\/     M anipulation  |                                                 |
\*---------------------------------------------------------------------------*/
FoamFile
{
    version     2.0;
    format      ascii;
    class       volScalarField;
    location    "33.5";
    object      Ksl;
}
// * * * * * * * * * * * * * * * * * * * * * * * * * * * * * * * * * * * * * //

dimensions      [1 -3 -1 0 0 0 0];

internalField   nonuniform List<scalar> 
132
(
1e+10
3885.41
1e+10
3816.96
1e+10
3804.9
1e+10
4055.29
15091.6
174075
3874.73
332977
3845.52
46968.7
3868.56
14913.6
3982.71
6578.52
18690.2
3530.31
20368.8
3402.19
19576.3
3233.34
15003.2
2889.68
11248.1
6907.55
3092.43
7203.67
2996.5
8002.24
2916.15
9486.66
2726.04
12072.2
1e+10
3747.08
1e+10
3754.01
1e+10
4096.59
13526.9
1e+10
3852.71
1e+10
3766.94
1e+10
3719.31
1e+10
3778.1
34557.2
427664
3757.79
1e+10
3809.23
1e+10
4051.11
1e+10
4762.25
14466.9
8680.87
3274.71
10159.4
3247.41
12720
3213.46
15125
3140.62
20865.3
29981.2
3409.41
15020.1
3495.88
6292.11
1e+10
3762.21
1e+10
3763.8
1e+10
3882.98
74031.3
4140.56
8755.21
14919.7
3448.84
15822.9
3263.78
15050.5
2975.57
12853.3
2519.79
9920.41
6383.27
3060.6
6530.47
3003.55
7027.06
2898.17
8262.57
2637.69
15130.1
8372.25
2366.1
8074.53
10094.8
3322.94
12650.8
3305.5
16647.7
3265.35
19791.1
3195.54
16932.4
6682.83
3078.43
7075.93
3063.65
8105.16
2949.22
9925.13
2797.49
16550.9
5090.01
2862.43
5220.91
2878.33
5596.16
2868.01
5948.78
3081.98
5804.91
)
;

boundaryField
{
    inlet
    {
        type            zeroGradient;
    }
    outlet
    {
        type            zeroGradient;
    }
    wall
    {
        type            zeroGradient;
    }
    procBoundary7to0
    {
        type            processor;
        value           uniform 3917.79;
    }
    procBoundary7to1
    {
        type            processor;
        value           uniform 1e+10;
    }
    procBoundary7to3
    {
        type            processor;
        value           nonuniform List<scalar> 
36
(
163268
3815.49
4.50079e+09
3848.52
1e+10
3920.52
1e+10
4229.85
14845.3
69889.6
3682.17
7.00962e+06
3628.11
1e+10
3576.15
577030
3470.18
26847.6
48749.9
3643.08
179133
3538.46
86732.4
3488.7
19785
3550.42
6487.63
6710.9
3065.09
6719.11
2927.13
7134.45
2714.38
7465.93
2185.29
6894.83
)
;
    }
    procBoundary7to5
    {
        type            processor;
        value           nonuniform List<scalar> 
44
(
4057.71
1e+10
4082.88
1e+10
4154.87
96991.7
4442.07
11609.1
1e+10
3793.54
1e+10
3616.99
1e+10
3539.68
71421.9
3682.4
15002.8
1e+10
3793.54
3793.54
52683.3
3492.19
1e+10
3843.89
33740.2
4150.12
7417.69
45343.9
3594.37
52683.3
3492.19
3492.19
8513.61
2777.42
8167.09
2351.56
8186.39
7614.93
3116.49
7975.92
2998.48
8513.61
2777.42
2777.42
)
;
    }
    procBoundary7to6
    {
        type            processor;
        value           nonuniform List<scalar> 
12
(
3867.23
3618.57
3181.52
3909.87
3773.4
3329.29
3752.83
3565.39
3162.5
3355.81
3168.8
2944.84
)
;
    }
}


// ************************************************************************* //
