/*--------------------------------*- C++ -*----------------------------------*\
| =========                 |                                                 |
| \\      /  F ield         | OpenFOAM: The Open Source CFD Toolbox           |
|  \\    /   O peration     | Version:  4.x                                   |
|   \\  /    A nd           | Web:      www.OpenFOAM.org                      |
|    \\/     M anipulation  |                                                 |
\*---------------------------------------------------------------------------*/
FoamFile
{
    version     2.0;
    format      ascii;
    class       volScalarField;
    location    "33.5";
    object      p_rgh;
}
// * * * * * * * * * * * * * * * * * * * * * * * * * * * * * * * * * * * * * //

dimensions      [1 -1 -2 0 0 0 0];

internalField   nonuniform List<scalar> 
132
(
22.4998
74.9924
4.32231
68.4102
-13.9293
62.5271
-32.2969
56.3452
-48.7077
21.3403
74.875
2.91556
68.0426
-15.2026
61.4949
-33.0516
55.2748
-49.0176
19.8633
74.9094
0.616939
68.3894
-18.9178
62.6504
-39.4251
58.8253
-60.5308
19.9918
74.9132
0.724482
68.6153
-18.9817
63.1667
-39.8003
59.2687
-60.9852
3.87581
68.3454
-14.4912
62.5245
-32.6553
56.1123
-49.1245
21.9539
74.9992
3.73409
68.5721
-14.5512
62.7376
-32.7972
57.0875
-50.2908
20.7653
74.9124
2.30638
68.4326
-15.7184
62.5252
-33.2926
56.0194
-48.1007
20.5604
75.1616
1.77657
68.8867
-17.1892
63.0744
-36.3028
58.0016
-55.5127
-17.2214
61.7692
-36.2753
56.4825
-53.6792
21.3691
74.954
3.03924
68.2796
-15.0322
61.5691
-32.5889
54.3672
-48.3786
20.7635
74.9265
1.797
68.3031
-17.8141
62.3959
-38.6542
58.2658
-62.6143
20.8406
74.9601
2.10171
68.5746
-17.0383
62.8186
-36.6653
58.3628
-70.7609
-39.1818
58.6245
-64.8246
21.2201
75.2207
2.6165
68.6742
-16.4064
62.4354
-35.3373
56.6519
-56.0108
20.8858
75.0201
2.28061
68.6897
-16.7942
62.9152
-36.1581
58.2537
-61.4388
21.0343
75.0623
2.41959
68.7685
-16.3458
62.8108
-34.7662
57.3668
-54.5412
)
;

boundaryField
{
    inlet
    {
        type            fixedFluxPressure;
        gradient        nonuniform 0();
        value           nonuniform 0();
    }
    outlet
    {
        type            fixedValue;
        value           uniform 0;
    }
    wall
    {
        type            fixedFluxPressure;
        gradient        nonuniform List<scalar> 
66
(
3.59548e-05
1.34611e-05
6.1143e-06
1.72113e-05
3.08877e-06
2.66143e-06
5.4889e-05
1.7709e-05
2.36362e-06
6.49283e-06
2.6156e-06
8.45932e-07
-7.59981e-06
-5.18777e-06
-2.03475e-06
-6.43122e-06
-4.55817e-06
-6.99725e-06
-3.1244e-05
-4.66339e-05
-1.33123e-05
-4.75599e-06
-1.59846e-05
-1.66951e-05
-8.53723e-06
-5.41334e-06
-1.39272e-05
-6.90676e-05
-2.9037e-05
1.0282e-05
-3.80391e-05
-2.97801e-05
-1.10141e-05
-7.96354e-06
-8.09995e-06
-1.17283e-05
-8.76557e-06
-7.91306e-06
-3.71954e-05
-5.6661e-05
-1.42815e-05
-9.39337e-06
-1.36515e-05
-5.57053e-06
-5.37376e-06
-2.72743e-06
-2.09571e-05
-2.84373e-05
-1.40618e-05
-4.77879e-05
-6.1359e-06
-1.24995e-05
-7.35141e-06
-3.75324e-06
-1.52915e-05
-5.2925e-05
-2.08061e-05
-7.13927e-06
1.72662e-06
3.19651e-07
-1.4482e-06
-2.22939e-06
1.47545e-05
6.26881e-05
-1.87744e-06
6.355e-05
)
;
        value           nonuniform List<scalar> 
66
(
21.2201
20.8858
21.0343
75.2207
75.0201
75.0623
2.6165
2.28061
2.41959
68.6742
68.6897
68.7685
-16.4064
-16.7942
-16.3458
62.4354
62.9152
62.8108
-39.1818
-35.3373
-36.1581
-34.7662
58.6245
56.6519
58.2537
57.3668
-64.8246
-56.0108
-61.4388
-54.5412
19.9918
20.5604
20.8406
21.0343
74.9132
75.1616
74.9601
75.0623
0.724481
1.77656
2.10171
2.41959
68.6153
68.8867
68.5746
68.7685
-18.9817
-17.1892
-17.0383
-16.3458
63.1667
63.0744
62.8186
62.8108
-39.8003
-36.3028
-36.6653
-34.7662
59.2687
58.0016
58.3628
57.3668
-60.9852
-55.5127
-70.7609
-54.5412
)
;
    }
    procBoundary7to0
    {
        type            processor;
        value           uniform 81.8493;
    }
    procBoundary7to1
    {
        type            processor;
        value           uniform 22.139;
    }
    procBoundary7to3
    {
        type            processor;
        value           nonuniform List<scalar> 
36
(
19.7557
74.9151
0.997937
68.6021
-17.4741
63.397
-35.2538
58.1973
-50.4249
19.8249
75.1031
0.791386
68.7395
-17.6561
63.5639
-36.4182
59.0828
-53.8678
19.3569
75.0318
0.0362366
68.4553
-19.2498
62.767
-38.7292
58.2707
-55.0848
19.3127
74.9322
-0.0456272
68.8878
-20.3686
63.8905
-42.7043
61.0912
-68.0771
)
;
    }
    procBoundary7to5
    {
        type            processor;
        value           nonuniform List<scalar> 
44
(
75.1015
4.45333
68.5192
-13.0764
61.8722
-29.9453
54.0882
-45.3111
21.9128
74.8534
2.35412
68.4783
-16.4122
62.6861
-35.2614
57.797
-52.7596
21.9128
74.8534
74.8534
1.90015
68.0108
-16.0693
61.4713
-33.9782
54.5669
-49.6702
20.8077
74.8998
1.90015
68.0108
68.0108
-18.1671
62.665
-39.468
58.7605
-65.4562
20.6318
74.9199
1.6202
68.4889
-18.1671
62.665
62.665
)
;
    }
    procBoundary7to6
    {
        type            processor;
        value           nonuniform List<scalar> 
12
(
82.0463
81.8187
81.7173
81.8652
82.0659
81.9047
82.2571
81.9532
81.8128
82.0413
81.8238
81.7852
)
;
    }
}


// ************************************************************************* //
