/*--------------------------------*- C++ -*----------------------------------*\
| =========                 |                                                 |
| \\      /  F ield         | OpenFOAM: The Open Source CFD Toolbox           |
|  \\    /   O peration     | Version:  4.x                                   |
|   \\  /    A nd           | Web:      www.OpenFOAM.org                      |
|    \\/     M anipulation  |                                                 |
\*---------------------------------------------------------------------------*/
FoamFile
{
    version     2.0;
    format      ascii;
    class       volScalarField;
    location    "33.5";
    object      QPartFluid;
}
// * * * * * * * * * * * * * * * * * * * * * * * * * * * * * * * * * * * * * //

dimensions      [1 -1 -3 0 0 0 0];

internalField   nonuniform List<scalar> 
132
(
9.95191e+09
9.04465e+09
6.38254e+09
7.92178e+09
1.10544e+10
1.24713e+10
8.00226e+09
6.60445e+09
6.39455e+09
7.48626e+09
1.13495e+10
7.39207e+09
8.12914e+09
8.44215e+09
6.96666e+09
7.98697e+09
7.78525e+09
6.96979e+09
5.20705e+09
9.37659e+09
6.83409e+09
8.91848e+09
8.22387e+09
1.047e+10
8.61402e+09
9.16719e+09
6.91408e+09
7.04276e+09
7.5073e+09
8.92137e+09
5.96749e+09
7.88485e+09
8.01259e+09
8.04788e+09
7.0384e+09
3.61688e+09
6.55088e+09
8.66631e+09
7.00659e+09
8.22995e+09
8.83637e+09
9.94866e+09
6.19177e+09
3.84236e+09
1.0121e+10
7.31107e+09
8.88613e+09
8.64335e+09
8.31263e+09
5.68412e+09
9.07138e+09
4.61347e+09
6.00732e+09
1.01712e+10
7.55769e+09
7.3411e+09
8.2362e+09
1.05975e+10
9.56071e+09
8.43793e+09
6.36328e+09
6.79462e+09
8.7097e+09
6.21764e+09
8.1278e+09
7.29403e+09
6.83489e+09
6.40842e+09
8.91807e+09
4.15507e+09
5.08998e+09
7.27414e+09
8.29134e+09
7.66888e+09
4.72605e+09
8.51915e+09
9.13156e+09
7.04849e+09
6.48346e+09
9.09202e+09
8.76946e+09
7.72858e+09
1.06634e+10
6.85445e+09
8.21901e+09
9.503e+09
8.65713e+09
9.0177e+09
9.31046e+09
9.91175e+09
8.87881e+09
9.28594e+09
6.76532e+09
6.0494e+09
7.35969e+09
7.23556e+09
8.1605e+09
6.50936e+09
6.82109e+09
8.16066e+09
8.16059e+09
4.9294e+09
5.89774e+09
8.15481e+09
4.92755e+09
7.20123e+09
6.95964e+09
7.35738e+09
8.58917e+09
4.95746e+09
4.87058e+09
6.74952e+09
7.71891e+09
4.34848e+09
6.33158e+09
6.78241e+09
6.31359e+09
7.76193e+09
7.26166e+09
7.10955e+09
7.46581e+09
7.62837e+09
5.87377e+09
6.10051e+09
8.29846e+09
5.91088e+09
7.16769e+09
7.31638e+09
6.98793e+09
6.46917e+09
7.02069e+09
3.56888e+09
)
;

boundaryField
{
    inlet
    {
        type            calculated;
        value           nonuniform 0();
    }
    outlet
    {
        type            calculated;
        value           uniform 0;
    }
    wall
    {
        type            calculated;
        value           uniform 0;
    }
    procBoundary7to0
    {
        type            processor;
        value           uniform 2.58442e+09;
    }
    procBoundary7to1
    {
        type            processor;
        value           uniform 5.85579e+09;
    }
    procBoundary7to3
    {
        type            processor;
        value           nonuniform List<scalar> 
36
(
8.10871e+09
1.08678e+10
9.01684e+09
1.01929e+10
6.47035e+09
7.65548e+09
8.91642e+09
8.31331e+09
6.8018e+09
9.64402e+09
6.22702e+09
8.13829e+09
5.0326e+09
4.38032e+09
9.52752e+09
7.66671e+09
1.10254e+10
5.1072e+09
6.05935e+09
1.03666e+10
9.2129e+09
7.30145e+09
7.40242e+09
1.00103e+10
8.15842e+09
9.37031e+09
4.96699e+09
8.8263e+09
4.92065e+09
5.86177e+09
7.06491e+09
6.53462e+09
8.76412e+09
6.58287e+09
9.71752e+09
7.75475e+09
)
;
    }
    procBoundary7to5
    {
        type            processor;
        value           nonuniform List<scalar> 
44
(
9.9379e+09
6.12267e+09
8.71223e+09
5.86285e+09
5.30886e+09
7.47536e+09
6.26162e+09
6.77426e+09
1.02629e+10
5.07707e+09
7.28891e+09
9.13437e+09
6.15591e+09
8.42494e+09
7.26319e+09
8.1204e+09
4.48483e+09
1.02629e+10
5.07707e+09
5.07707e+09
9.57839e+09
9.9653e+09
1.1341e+10
9.26445e+09
9.09322e+09
1.10012e+10
8.28205e+09
5.29456e+09
1.17129e+10
9.57839e+09
9.9653e+09
9.9653e+09
1.03432e+10
8.5303e+09
6.99363e+09
8.19064e+09
6.41149e+09
7.15729e+09
6.46333e+09
7.28417e+09
6.71862e+09
1.03432e+10
8.5303e+09
8.5303e+09
)
;
    }
    procBoundary7to6
    {
        type            processor;
        value           nonuniform List<scalar> 
12
(
8.07023e+09
8.91011e+09
5.60538e+09
9.9679e+09
9.41434e+09
8.81988e+09
9.55434e+09
9.9808e+09
6.89575e+09
4.52153e+09
8.47286e+09
7.19723e+09
)
;
    }
}


// ************************************************************************* //
