/*--------------------------------*- C++ -*----------------------------------*\
| =========                 |                                                 |
| \\      /  F ield         | OpenFOAM: The Open Source CFD Toolbox           |
|  \\    /   O peration     | Version:  4.x                                   |
|   \\  /    A nd           | Web:      www.OpenFOAM.org                      |
|    \\/     M anipulation  |                                                 |
\*---------------------------------------------------------------------------*/
FoamFile
{
    version     2.0;
    format      ascii;
    class       volScalarField;
    location    "33.5";
    object      QWallFluidCoeff;
}
// * * * * * * * * * * * * * * * * * * * * * * * * * * * * * * * * * * * * * //

dimensions      [1 -1 -3 -1 0 0 0];

internalField   nonuniform List<scalar> 
132
(
0
0
0
0
0
0
0
0
0
0
0
0
0
0
0
0
0
0
0
0
0
0
0
0
0
0
0
-1.56689e+06
-2.98177e+06
-1.50019e+06
-3.03527e+06
-1.37543e+06
-3.08584e+06
-1.17592e+06
-3.17965e+06
-937613
0
0
0
0
0
0
0
0
0
0
0
0
0
0
0
0
0
0
0
0
0
0
0
0
0
-1.28441e+06
-2.799e+06
-1.12294e+06
-2.79712e+06
-928034
-2.78811e+06
-791501
-2.75805e+06
-591990
0
0
0
0
0
0
0
0
0
0
0
0
0
0
0
0
0
0
0
0
0
0
0
-1.63591e+06
-2.93906e+06
-1.58579e+06
-2.96768e+06
-1.48688e+06
-3.02444e+06
-1.2754e+06
-3.14771e+06
-757270
-1.26665e+06
-3.48104e+06
-1.26022e+06
-1.12276e+06
-2.73845e+06
-924962
-2.72329e+06
-737918
-2.72367e+06
-631205
-2.70258e+06
-692944
-1.56634e+06
-2.90774e+06
-1.48208e+06
-2.91763e+06
-1.31647e+06
-2.94001e+06
-1.09377e+06
-3.00142e+06
-702167
-3.88272e+06
-6.1409e+06
-3.77807e+06
-6.13167e+06
-3.54786e+06
-5.98593e+06
-3.27674e+06
-5.51199e+06
-3.26168e+06
)
;

boundaryField
{
    inlet
    {
        type            calculated;
        value           nonuniform 0();
    }
    outlet
    {
        type            calculated;
        value           uniform 0;
    }
    wall
    {
        type            calculated;
        value           uniform 0;
    }
    procBoundary7to0
    {
        type            processor;
        value           uniform 0;
    }
    procBoundary7to1
    {
        type            processor;
        value           uniform 0;
    }
    procBoundary7to3
    {
        type            processor;
        value           uniform 0;
    }
    procBoundary7to5
    {
        type            processor;
        value           uniform 0;
    }
    procBoundary7to6
    {
        type            processor;
        value           uniform 0;
    }
}


// ************************************************************************* //
