/*--------------------------------*- C++ -*----------------------------------*\
| =========                 |                                                 |
| \\      /  F ield         | OpenFOAM: The Open Source CFD Toolbox           |
|  \\    /   O peration     | Version:  4.x                                   |
|   \\  /    A nd           | Web:      www.OpenFOAM.org                      |
|    \\/     M anipulation  |                                                 |
\*---------------------------------------------------------------------------*/
FoamFile
{
    version     2.0;
    format      ascii;
    class       volVectorField;
    location    "33.5";
    object      UsNext;
}
// * * * * * * * * * * * * * * * * * * * * * * * * * * * * * * * * * * * * * //

dimensions      [0 1 -1 0 0 0 0];

internalField   nonuniform List<vector> 
132
(
(-5.74667e-09 -2.95446e-09 7.65691e-09)
(-7.31595e-09 -3.05756e-09 8.88357e-09)
(-7.58941e-09 -2.53237e-09 8.48045e-09)
(-8.46261e-09 -3.37383e-09 3.64156e-09)
(-6.82513e-09 -1.64561e-09 1.08912e-10)
(-5.94181e-09 -2.8132e-10 -4.47706e-09)
(-5.04564e-09 -1.27854e-10 -8.2948e-09)
(-4.06105e-09 4.69026e-10 -9.7696e-09)
(-3.12263e-09 4.32071e-11 -7.64694e-09)
(-7.37996e-09 -3.05075e-09 6.5657e-09)
(-8.02669e-09 -2.98234e-09 8.61588e-09)
(-8.96332e-09 -4.21559e-09 7.04933e-09)
(-1.00367e-08 -3.97319e-09 5.00804e-09)
(-7.39193e-09 -1.56717e-09 7.91658e-11)
(-6.16962e-09 -5.7003e-10 -3.14273e-09)
(-4.06388e-09 4.96443e-10 -7.54993e-09)
(-3.43002e-09 1.10212e-09 -1.32935e-08)
(-2.92391e-09 -6.24779e-11 -1.09772e-08)
(-6.68225e-09 -3.87798e-09 3.31619e-09)
(-8.16773e-09 -2.352e-09 6.25418e-09)
(-8.83693e-09 -3.17301e-09 5.97546e-09)
(-9.06893e-09 -3.48544e-09 3.63451e-09)
(-7.81264e-09 -1.21665e-09 3.08808e-10)
(-5.39491e-09 -8.12182e-10 -3.35212e-09)
(-3.92715e-09 2.5643e-10 -6.40122e-09)
(-2.05046e-09 5.76115e-10 -8.82137e-09)
(3.48351e-09 1.3011e-09 -7.07101e-09)
(-5.76771e-09 -2.55056e-09 1.05103e-09)
(-5.61299e-09 -1.20634e-09 1.59476e-09)
(-5.58132e-09 -2.36099e-09 2.90294e-09)
(-6.48875e-09 -2.09238e-09 1.75336e-09)
(-5.85003e-09 -1.19401e-09 3.22018e-10)
(-3.681e-09 -9.56667e-10 -1.12889e-09)
(-2.13713e-09 -7.30415e-10 -3.40819e-09)
(-2.11373e-10 2.88827e-10 -3.26668e-09)
(2.39223e-09 5.61631e-10 -2.06783e-09)
(-5.47678e-09 -4.36288e-09 5.53127e-09)
(-5.49429e-09 -3.22684e-09 3.09122e-09)
(-3.29756e-09 -1.19881e-09 2.17849e-10)
(-3.34429e-09 -3.53585e-10 -3.06315e-09)
(-3.21425e-09 -2.18196e-11 -5.16431e-09)
(-2.04592e-09 1.07463e-09 -7.51065e-09)
(-5.07326e-10 2.48012e-10 -5.78633e-09)
(-6.1662e-09 -3.09267e-09 4.91553e-09)
(-5.62682e-09 -3.20539e-09 5.83841e-09)
(-6.24883e-09 -4.67813e-09 5.14604e-09)
(-6.73747e-09 -3.67064e-09 2.82007e-09)
(-5.95548e-09 -1.38114e-09 -5.66576e-10)
(-4.47672e-09 -7.99565e-10 -3.1543e-09)
(-3.77924e-09 -2.33383e-10 -5.3235e-09)
(-2.78012e-09 1.40277e-09 -7.93709e-09)
(-3.18112e-10 8.85592e-10 -4.65079e-09)
(-6.91128e-09 -2.85766e-09 3.29714e-09)
(-6.9973e-09 -1.54369e-09 4.25293e-09)
(-7.75399e-09 -3.79134e-09 2.72087e-09)
(-7.82331e-09 -2.68868e-09 2.18216e-09)
(-8.052e-09 -1.78336e-09 -1.00644e-10)
(-6.51944e-09 -2.15955e-09 -3.28676e-09)
(-4.8232e-09 -6.92738e-10 -4.93472e-09)
(-2.77115e-09 5.94182e-10 -4.90082e-09)
(9.54339e-09 4.93807e-09 -3.15721e-09)
(-5.57607e-09 -1.57642e-09 1.3135e-09)
(-6.655e-09 -1.63191e-09 1.01133e-09)
(-7.77246e-09 -2.5434e-09 1.53418e-09)
(-7.91495e-09 -7.79278e-10 1.23751e-09)
(-6.54347e-09 -1.0113e-09 3.20778e-10)
(-5.86424e-09 -1.76008e-09 -2.08859e-09)
(-4.21983e-09 -1.5781e-09 -2.87329e-09)
(-2.34372e-09 4.59198e-11 -2.05885e-09)
(3.52922e-09 1.37055e-09 -1.23651e-09)
(-1.15325e-09 -1.76266e-09 3.74393e-10)
(6.80336e-11 -6.45551e-10 -1.044e-09)
(1.5858e-10 -3.98383e-10 -3.26694e-09)
(1.35192e-10 -2.43773e-10 -4.54631e-09)
(9.46765e-11 -1.82936e-10 -2.51548e-09)
(-3.42241e-09 -2.74469e-09 3.01443e-09)
(-4.50243e-09 -2.9098e-09 4.68595e-09)
(-4.65321e-09 -2.68222e-09 4.52611e-09)
(-3.42993e-09 -3.20258e-09 2.34324e-09)
(-2.63539e-09 -1.9572e-09 -1.13762e-10)
(-1.41273e-09 -1.04304e-09 -1.70066e-09)
(-1.15759e-09 -5.18888e-10 -3.73997e-09)
(-7.51663e-10 5.05451e-10 -5.24263e-09)
(-1.69581e-10 9.97631e-11 -3.12742e-09)
(-5.88193e-09 -2.63208e-09 2.36986e-09)
(-5.78482e-09 -2.36886e-09 1.69759e-09)
(-6.55671e-09 -3.1193e-09 3.05618e-09)
(-6.88196e-09 -2.47302e-09 1.06196e-09)
(-5.94926e-09 -2.09142e-09 -4.14528e-10)
(-5.63086e-09 -1.76159e-09 -2.22483e-09)
(-5.67918e-09 -1.26239e-09 -2.72933e-09)
(-3.41212e-09 4.72735e-10 -2.49204e-09)
(-1.34571e-09 2.93859e-10 -2.36942e-09)
(-4.23761e-09 -7.94304e-10 1.58339e-09)
(-5.29057e-09 -1.30777e-09 9.93249e-10)
(-6.87497e-09 -9.94463e-10 1.15157e-09)
(-7.72116e-09 -8.11965e-10 8.26693e-10)
(-5.57251e-09 -9.07209e-10 -2.45332e-10)
(-6.46947e-09 -1.15038e-09 -2.39522e-09)
(-6.14728e-09 -1.13363e-09 -2.2481e-09)
(-2.78588e-09 -2.48e-10 -1.26197e-09)
(-1.50771e-09 -5.65469e-11 -8.73516e-10)
(1.72197e-09 4.80138e-10 -1.68517e-09)
(1.95598e-09 -1.02181e-09 -3.04938e-09)
(1.86354e-09 -4.67131e-10 -7.80747e-10)
(-5.41563e-10 -2.28054e-09 1.62779e-09)
(-9.61871e-10 -2.80499e-09 2.36095e-09)
(-1.01449e-09 -2.03444e-09 1.96047e-09)
(-6.78076e-10 -1.63538e-09 8.87016e-10)
(-1.26029e-10 -1.2663e-09 -2.06703e-10)
(8.3155e-10 -8.22588e-10 -8.95342e-10)
(9.61022e-10 -5.26437e-10 -1.0627e-09)
(3.25393e-09 5.95205e-10 -2.35648e-09)
(1.44059e-09 1.08339e-09 -1.84981e-09)
(-2.52536e-09 -3.1861e-09 9.24026e-10)
(-2.52773e-09 -2.65458e-09 4.5838e-10)
(-3.21746e-09 -2.77035e-09 1.13955e-09)
(-3.13605e-09 -1.64249e-09 3.87701e-10)
(-3.14752e-09 -1.28414e-09 -2.89476e-10)
(-2.17534e-09 -1.04198e-09 -6.99145e-10)
(-1.96144e-09 -8.51551e-10 -6.04244e-10)
(-1.05738e-09 9.90396e-10 -1.37918e-09)
(-2.01149e-10 2.71467e-09 -7.94282e-10)
(-1.82609e-09 -7.20146e-10 5.52919e-10)
(-2.54774e-09 -1.26175e-09 4.2437e-10)
(-3.56529e-09 -8.22592e-10 2.06986e-10)
(-4.03421e-09 -4.32181e-10 1.34044e-10)
(-4.82184e-09 -3.87583e-09 -1.65028e-10)
(-3.19199e-09 -5.93179e-10 -1.10588e-09)
(-3.23879e-09 -5.42949e-10 -3.61698e-10)
(-2.10522e-09 -3.28741e-10 -7.98238e-10)
(-1.40577e-09 5.03269e-09 8.14259e-10)
)
;

boundaryField
{
    inlet
    {
        type            calculated;
        value           nonuniform 0();
    }
    outlet
    {
        type            calculated;
        value           nonuniform List<vector> 
16
(
(-3.12263e-09 4.32071e-11 -7.64694e-09)
(-2.92391e-09 -6.24779e-11 -1.09772e-08)
(3.48351e-09 1.3011e-09 -7.07101e-09)
(2.39223e-09 5.61631e-10 -2.06783e-09)
(-5.07326e-10 2.48012e-10 -5.78633e-09)
(-3.18112e-10 8.85592e-10 -4.65079e-09)
(9.54339e-09 4.93807e-09 -3.15721e-09)
(3.52922e-09 1.37055e-09 -1.23651e-09)
(9.46765e-11 -1.82936e-10 -2.51548e-09)
(-1.69581e-10 9.97631e-11 -3.12742e-09)
(-1.34571e-09 2.93859e-10 -2.36942e-09)
(-1.50771e-09 -5.65469e-11 -8.73516e-10)
(1.86354e-09 -4.67131e-10 -7.80747e-10)
(1.44059e-09 1.08339e-09 -1.84981e-09)
(-2.01149e-10 2.71467e-09 -7.94282e-10)
(-1.40577e-09 5.03269e-09 8.14259e-10)
)
;
    }
    wall
    {
        type            calculated;
        value           nonuniform List<vector> 
66
(
(-5.41563e-10 -2.28054e-09 1.62779e-09)
(-2.52536e-09 -3.1861e-09 9.24026e-10)
(-1.82609e-09 -7.20146e-10 5.52919e-10)
(-9.61871e-10 -2.80499e-09 2.36095e-09)
(-2.52773e-09 -2.65458e-09 4.5838e-10)
(-2.54774e-09 -1.26175e-09 4.2437e-10)
(-1.01449e-09 -2.03444e-09 1.96047e-09)
(-3.21746e-09 -2.77035e-09 1.13955e-09)
(-3.56529e-09 -8.22592e-10 2.06986e-10)
(-6.78076e-10 -1.63538e-09 8.87016e-10)
(-3.13605e-09 -1.64249e-09 3.87701e-10)
(-4.03421e-09 -4.32181e-10 1.34044e-10)
(-1.26029e-10 -1.2663e-09 -2.06703e-10)
(-3.14752e-09 -1.28414e-09 -2.89476e-10)
(-4.82184e-09 -3.87583e-09 -1.65028e-10)
(8.3155e-10 -8.22588e-10 -8.95342e-10)
(-2.17534e-09 -1.04198e-09 -6.99145e-10)
(-3.19199e-09 -5.93179e-10 -1.10588e-09)
(1.72197e-09 4.80138e-10 -1.68517e-09)
(9.61022e-10 -5.26437e-10 -1.0627e-09)
(-1.96144e-09 -8.51551e-10 -6.04244e-10)
(-3.23879e-09 -5.42949e-10 -3.61698e-10)
(1.95598e-09 -1.02181e-09 -3.04938e-09)
(3.25393e-09 5.95205e-10 -2.35648e-09)
(-1.05738e-09 9.90396e-10 -1.37918e-09)
(-2.10522e-09 -3.28741e-10 -7.98238e-10)
(1.86354e-09 -4.67131e-10 -7.80747e-10)
(1.44059e-09 1.08339e-09 -1.84981e-09)
(-2.01149e-10 2.71467e-09 -7.94282e-10)
(-1.40577e-09 5.03269e-09 8.14259e-10)
(-5.76771e-09 -2.55056e-09 1.05103e-09)
(-5.57607e-09 -1.57642e-09 1.3135e-09)
(-4.23761e-09 -7.94304e-10 1.58339e-09)
(-1.82609e-09 -7.20146e-10 5.52919e-10)
(-5.61299e-09 -1.20634e-09 1.59476e-09)
(-6.655e-09 -1.63191e-09 1.01133e-09)
(-5.29057e-09 -1.30777e-09 9.93249e-10)
(-2.54774e-09 -1.26175e-09 4.2437e-10)
(-5.58132e-09 -2.36099e-09 2.90294e-09)
(-7.77246e-09 -2.5434e-09 1.53418e-09)
(-6.87497e-09 -9.94463e-10 1.15157e-09)
(-3.56529e-09 -8.22592e-10 2.06986e-10)
(-6.48875e-09 -2.09238e-09 1.75336e-09)
(-7.91495e-09 -7.79278e-10 1.23751e-09)
(-7.72116e-09 -8.11965e-10 8.26693e-10)
(-4.03421e-09 -4.32181e-10 1.34044e-10)
(-5.85003e-09 -1.19401e-09 3.22018e-10)
(-6.54347e-09 -1.0113e-09 3.20778e-10)
(-5.57251e-09 -9.07209e-10 -2.45332e-10)
(-4.82184e-09 -3.87583e-09 -1.65028e-10)
(-3.681e-09 -9.56667e-10 -1.12889e-09)
(-5.86424e-09 -1.76008e-09 -2.08859e-09)
(-6.46947e-09 -1.15038e-09 -2.39522e-09)
(-3.19199e-09 -5.93179e-10 -1.10588e-09)
(-2.13713e-09 -7.30415e-10 -3.40819e-09)
(-4.21983e-09 -1.5781e-09 -2.87329e-09)
(-6.14728e-09 -1.13363e-09 -2.2481e-09)
(-3.23879e-09 -5.42949e-10 -3.61698e-10)
(-2.11373e-10 2.88827e-10 -3.26668e-09)
(-2.34372e-09 4.59198e-11 -2.05885e-09)
(-2.78588e-09 -2.48e-10 -1.26197e-09)
(-2.10522e-09 -3.28741e-10 -7.98238e-10)
(2.39223e-09 5.61631e-10 -2.06783e-09)
(3.52922e-09 1.37055e-09 -1.23651e-09)
(-1.50771e-09 -5.65469e-11 -8.73516e-10)
(-1.40577e-09 5.03269e-09 8.14259e-10)
)
;
    }
    procBoundary7to0
    {
        type            processor;
        value           uniform (-7.17751e-09 -1.92126e-09 6.93574e-09);
    }
    procBoundary7to1
    {
        type            processor;
        value           uniform (-5.38467e-09 -6.45866e-10 8.1271e-09);
    }
    procBoundary7to3
    {
        type            processor;
        value           nonuniform List<vector> 
36
(
(-8.79744e-09 -4.28354e-09 9.81683e-09)
(-9.74867e-09 -3.57529e-09 1.16398e-08)
(-1.2118e-08 -3.12266e-09 1.14837e-08)
(-1.36069e-08 -5.21703e-09 6.19577e-09)
(-1.12174e-08 -4.45982e-09 -9.11818e-10)
(-9.45509e-09 -2.85813e-09 -5.99195e-09)
(-7.49106e-09 -7.56597e-10 -1.29678e-08)
(-1.66065e-09 2.74916e-10 -1.70649e-08)
(-1.51014e-10 4.82806e-10 -1.26372e-08)
(-1.09758e-08 -4.33676e-09 8.38084e-09)
(-1.28349e-08 -3.54899e-09 1.09043e-08)
(-1.56239e-08 -7.60656e-09 1.05108e-08)
(-1.53405e-08 -4.04145e-09 6.14643e-09)
(-1.33576e-08 -2.45715e-09 6.7554e-10)
(-1.15403e-08 -1.10816e-09 -5.23152e-09)
(-8.90834e-09 6.27518e-10 -1.34084e-08)
(-7.15964e-09 1.01578e-09 -2.17371e-08)
(-7.25853e-09 1.81623e-09 -2.30299e-08)
(-1.09134e-08 -1.44736e-09 6.70785e-09)
(-1.20455e-08 -1.51685e-09 8.56623e-09)
(-1.44975e-08 -6.81982e-09 7.86868e-09)
(-1.32671e-08 -2.23481e-09 5.30758e-09)
(-1.23667e-08 -8.60438e-10 3.0896e-10)
(-9.07452e-09 -3.62383e-10 -4.04497e-09)
(-8.57643e-09 1.45188e-09 -9.14977e-09)
(-3.6204e-09 2.54658e-09 -1.53949e-08)
(-2.28052e-09 -1.83768e-09 -1.50518e-08)
(-7.4326e-09 3.32886e-10 2.74861e-09)
(-8.7833e-09 -1.18752e-09 3.58588e-09)
(-9.3803e-09 -3.45154e-09 4.31753e-09)
(-7.54457e-09 -2.84198e-09 1.86428e-09)
(-7.87178e-09 -7.075e-10 1.36008e-10)
(-4.99053e-09 -1.06647e-09 -2.24002e-09)
(-3.23764e-09 3.16827e-11 -4.87501e-09)
(-2.07828e-09 -1.46061e-09 -6.41959e-09)
(1.54857e-10 -1.90206e-09 -5.54784e-09)
)
;
    }
    procBoundary7to5
    {
        type            processor;
        value           nonuniform List<vector> 
44
(
(-6.2376e-09 -1.69469e-09 1.03816e-08)
(-6.6754e-09 -1.10778e-10 9.16508e-09)
(-6.51519e-09 -1.47883e-09 4.77161e-09)
(-5.84065e-09 -1.61343e-09 3.82949e-10)
(-4.30852e-09 -1.10938e-09 -3.45854e-09)
(-3.72503e-09 -3.31203e-10 -6.69419e-09)
(-2.92413e-09 -5.39106e-10 -9.88734e-09)
(-2.61612e-09 -5.29418e-09 -7.66051e-09)
(-4.51416e-09 -2.65503e-09 5.74216e-09)
(-4.66275e-09 -3.40666e-09 6.71859e-09)
(-3.90688e-09 -1.23703e-09 7.53487e-09)
(-4.42707e-09 -1.14161e-09 3.59559e-09)
(-3.15531e-09 -5.23242e-10 2.61565e-10)
(-2.29381e-09 -2.85796e-10 -2.47479e-09)
(-2.39551e-09 -4.24761e-11 -5.43113e-09)
(-2.00458e-09 3.04946e-10 -6.4725e-09)
(-8.45379e-10 -2.5975e-10 -4.59023e-09)
(-4.51416e-09 -2.65503e-09 5.74216e-09)
(-4.66275e-09 -3.40666e-09 6.71859e-09)
(-4.66275e-09 -3.40666e-09 6.71859e-09)
(-1.54241e-09 -2.44927e-09 3.51913e-09)
(-1.66989e-09 -2.21143e-09 2.37606e-09)
(-4.53644e-10 -5.88313e-10 7.01827e-10)
(4.83767e-10 -4.04442e-10 -1.16976e-09)
(-3.47282e-10 -7.07168e-11 -2.85999e-09)
(-1.84404e-10 -8.52726e-10 -3.90256e-09)
(3.50455e-10 -1.03362e-09 -3.28413e-09)
(9.1585e-10 -2.25488e-09 1.60172e-09)
(-1.27654e-09 -2.63951e-09 4.44531e-09)
(-1.54241e-09 -2.44927e-09 3.51913e-09)
(-1.66989e-09 -2.21143e-09 2.37606e-09)
(-1.66989e-09 -2.21143e-09 2.37606e-09)
(1.11523e-09 -9.89866e-10 3.53416e-10)
(1.79697e-09 1.92224e-10 -5.47611e-10)
(1.22486e-09 -3.07571e-11 -1.17059e-09)
(9.82311e-10 -9.15258e-11 -1.85511e-09)
(1.17171e-09 -1.12607e-10 -8.58328e-10)
(6.49784e-10 -1.46123e-09 1.13934e-09)
(5.20055e-10 -2.05253e-09 1.63733e-09)
(9.1546e-10 -1.25972e-09 1.32139e-09)
(3.27258e-10 -1.33133e-09 1.06142e-09)
(1.11523e-09 -9.89866e-10 3.53416e-10)
(1.79697e-09 1.92224e-10 -5.47611e-10)
(1.79697e-09 1.92224e-10 -5.47611e-10)
)
;
    }
    procBoundary7to6
    {
        type            processor;
        value           nonuniform List<vector> 
12
(
(-5.62917e-09 -2.01873e-09 5.21374e-09)
(-6.44719e-09 -2.082e-09 3.72167e-09)
(-1.80283e-09 -5.85422e-10 1.43928e-09)
(-4.89491e-09 -2.30105e-09 4.28802e-09)
(-5.38385e-09 -1.63546e-09 2.77888e-09)
(-3.7074e-09 -6.503e-10 1.02465e-09)
(-2.28259e-09 -2.08852e-09 3.19123e-09)
(-4.4458e-09 -2.04984e-09 2.57267e-09)
(-2.96345e-09 -9.43154e-10 1.41941e-09)
(-7.00896e-10 -2.64535e-09 9.42202e-10)
(-1.76919e-09 -2.76947e-09 1.17772e-09)
(-1.22081e-09 -7.2705e-10 1.05206e-09)
)
;
    }
}


// ************************************************************************* //
