/*--------------------------------*- C++ -*----------------------------------*\
| =========                 |                                                 |
| \\      /  F ield         | OpenFOAM: The Open Source CFD Toolbox           |
|  \\    /   O peration     | Version:  4.x                                   |
|   \\  /    A nd           | Web:      www.OpenFOAM.org                      |
|    \\/     M anipulation  |                                                 |
\*---------------------------------------------------------------------------*/
FoamFile
{
    version     2.0;
    format      ascii;
    class       volScalarField;
    location    "53";
    object      QWallFluidCoeff;
}
// * * * * * * * * * * * * * * * * * * * * * * * * * * * * * * * * * * * * * //

dimensions      [1 -1 -3 -1 0 0 0];

internalField   nonuniform List<scalar> 
87
(
-5.37129e+06
-7.49889e+06
-5.45598e+06
-7.86646e+06
-5.39799e+06
-8.53817e+06
-4.96128e+06
-1.01042e+07
-3.52811e+06
-2.39116e+06
-3.60587e+06
-2.4228e+06
-3.77364e+06
-2.36119e+06
-4.04752e+06
-2.1152e+06
-4.58947e+06
-1.80986e+06
-2.04584e+06
-3.31671e+06
-2.00819e+06
-3.40055e+06
-1.9252e+06
-3.59626e+06
-1.80468e+06
-4.08797e+06
-1.6989e+06
-1.83675e+06
-3.20256e+06
-1.82463e+06
-3.26549e+06
-1.7227e+06
-3.33705e+06
-1.4497e+06
-3.40908e+06
-985700
0
0
0
0
0
0
0
0
0
0
0
0
0
0
0
0
0
0
-1.71621e+06
-3.13958e+06
-1.64979e+06
-3.21225e+06
-1.50998e+06
-3.31622e+06
-1.29396e+06
-3.43546e+06
-1.2057e+06
0
0
0
0
0
0
0
0
0
0
0
0
0
0
0
0
0
0
-1.28828e+06
-2.80504e+06
-938466
0
0
0
)
;

boundaryField
{
    inlet
    {
        type            calculated;
        value           nonuniform 0();
    }
    outlet
    {
        type            calculated;
        value           uniform 0;
    }
    wall
    {
        type            calculated;
        value           uniform 0;
    }
    procBoundary1to0
    {
        type            processor;
        value           uniform 0;
    }
    procBoundary1to3
    {
        type            processor;
        value           uniform 0;
    }
    procBoundary1to5
    {
        type            processor;
        value           uniform 0;
    }
    procBoundary1to7
    {
        type            processor;
        value           uniform 0;
    }
}


// ************************************************************************* //
