/*--------------------------------*- C++ -*----------------------------------*\
  =========                 |
  \\      /  F ield         | OpenFOAM: The Open Source CFD Toolbox
   \\    /   O peration     | Website:  https://openfoam.org
    \\  /    A nd           | Version:  4.x
     \\/     M anipulation  |
\*---------------------------------------------------------------------------*/
FoamFile
{
    version     2.0;
    format      ascii;
    class       vectorField;
    location    0;
    object      v;
}
// * * * * * * * * * * * * * * * * * * * * * * * * * * * * * * * * * * * * * //

356
(
( 3.69454e-09 9.3932e-10 1.04253e-09 )  
( 1.00631e-09 5.45142e-12 6.3799e-11 )  
( -1.00274e-08 5.52029e-09 1.61141e-08 )  
( 1.48928e-09 1.10051e-09 6.0843e-10 )  
( -1.0654e-09 -7.54632e-10 6.36858e-10 )  
( 1.02715e-09 7.18195e-10 2.29204e-09 )  
( 1.01047e-09 6.0066e-11 1.346e-09 )  
( 2.26027e-10 1.95489e-10 -1.00436e-10 )  
( 1.17478e-09 4.65014e-10 1.23375e-09 )  
( 8.57235e-10 4.39519e-10 4.26294e-10 )  
( 1.78338e-10 2.27868e-10 2.23602e-10 )  
( -1.39482e-09 4.27626e-10 -3.27157e-09 )  
( -2.8432e-10 8.64937e-10 1.71018e-09 )  
( 4.2629e-10 3.52456e-10 2.95202e-09 )  
( 1.91536e-09 4.74155e-10 2.3793e-10 )  
( -1.01198e-09 -5.06466e-12 1.10909e-09 )  
( -1.98649e-10 1.1926e-10 1.31619e-09 )  
( 2.38064e-09 -8.25376e-10 1.25744e-09 )  
( 1.91924e-09 -6.03763e-10 -5.40633e-11 )  
( 3.01936e-09 -1.37799e-09 5.10266e-09 )  
( 2.74054e-09 -1.72398e-09 3.72547e-09 )  
( -6.81618e-09 2.23026e-09 1.01669e-08 )  
( 1.37486e-09 2.31386e-10 2.84854e-10 )  
( 9.56545e-10 -3.8395e-10 -2.71024e-10 )  
( 6.52482e-10 1.57157e-10 2.13908e-09 )  
( 1.43946e-09 -6.76424e-11 -3.32372e-11 )  
( 1.52946e-09 5.82612e-10 4.28032e-10 )  
( -2.02637e-10 -2.50658e-10 2.86331e-09 )  
( 4.92818e-10 6.47403e-10 3.76998e-10 )  
( 3.90446e-09 5.28668e-10 2.54668e-09 )  
( -1.08798e-09 -7.30594e-10 1.94402e-09 )  
( 1.45074e-09 -5.96441e-10 -2.36177e-10 )  
( -4.36049e-09 4.81627e-09 9.63109e-09 )  
( 3.95543e-10 4.71901e-10 4.80848e-10 )  
( 5.32548e-10 -2.03305e-10 -2.74918e-10 )  
( 4.55311e-10 2.63923e-10 1.06296e-09 )  
( 1.65701e-09 -5.33366e-10 2.601e-10 )  
( 2.59977e-10 9.14925e-10 2.07218e-09 )  
( 1.46391e-09 -1.38988e-10 -1.03061e-09 )  
( 2.06512e-09 2.21078e-10 1.1685e-09 )  
( 9.47756e-10 2.69985e-11 -4.15547e-10 )  
( 1.36291e-09 -8.99967e-10 -3.95037e-10 )  
( 6.76955e-10 -3.58183e-10 9.32841e-11 )  
( 4.06609e-09 -2.75919e-09 4.61791e-09 )  
( 1.83635e-09 -3.35322e-10 4.35586e-10 )  
( 5.2976e-10 -9.95387e-11 -7.36665e-10 )  
( -4.48575e-09 -2.46158e-09 5.5507e-09 )  
( 7.2388e-10 8.94654e-10 1.18547e-09 )  
( -5.40369e-11 -5.68533e-11 3.75894e-10 )  
( 3.79148e-09 -1.27448e-09 -3.61603e-09 )  
( 2.01458e-09 -1.83666e-10 5.20394e-11 )  
( 1.25822e-10 -2.72021e-11 -8.1457e-10 )  
( -1.20101e-10 3.01611e-10 8.62438e-10 )  
( 1.40228e-09 -2.76772e-10 1.38061e-10 )  
( 2.6745e-09 -1.39432e-10 2.47247e-11 )  
( 1.30534e-09 -2.96169e-10 -1.30197e-11 )  
( 3.66559e-09 -1.01695e-09 -6.57838e-10 )  
( 1.16495e-09 4.47223e-11 4.66101e-10 )  
( 6.81852e-10 4.63111e-10 4.71699e-10 )  
( 1.18806e-09 2.82737e-10 2.81893e-10 )  
( 4.9643e-10 3.78519e-10 4.45072e-10 )  
( -7.91428e-10 -7.76346e-11 -2.22827e-10 )  
( 3.27194e-10 6.16005e-10 3.19975e-10 )  
( 2.51223e-09 -6.91668e-10 -8.12948e-10 )  
( 9.25171e-10 -2.09757e-10 -9.36898e-10 )  
( 1.59039e-10 2.39e-10 2.17912e-10 )  
( -1.90181e-09 7.6121e-09 7.97937e-09 )  
( 4.03488e-10 -2.90188e-10 -1.17542e-10 )  
( -7.48621e-11 -1.62803e-10 6.36891e-10 )  
( 1.02475e-09 2.71806e-10 -6.44784e-10 )  
( 9.43776e-10 1.10529e-10 5.10153e-10 )  
( 1.94653e-09 -3.46824e-10 1.30766e-09 )  
( 1.46402e-09 -3.28368e-10 2.34603e-10 )  
( -8.70017e-10 -1.75876e-10 1.16149e-09 )  
( 4.20098e-10 5.28252e-10 8.45322e-10 )  
( 1.7207e-09 1.4082e-09 1.34432e-09 )  
( 1.6238e-10 3.36405e-10 1.29624e-09 )  
( 2.35943e-09 4.93728e-10 5.39992e-10 )  
( 1.38798e-09 -2.33487e-10 3.59741e-10 )  
( 1.4442e-09 -5.16046e-10 4.41186e-11 )  
( 8.6147e-10 4.65839e-11 -3.77622e-10 )  
( 7.59153e-10 8.6371e-10 3.85201e-10 )  
( 6.52853e-10 1.58884e-10 3.42447e-10 )  
( 1.0107e-09 5.10744e-11 1.39262e-10 )  
( 3.84612e-10 5.94728e-10 2.27206e-10 )  
( 1.83845e-09 2.68122e-10 9.28099e-10 )  
( 1.22838e-09 8.21757e-10 4.01425e-10 )  
( 7.50099e-10 9.58538e-11 7.00154e-10 )  
( 1.26219e-10 2.40796e-10 5.76484e-10 )  
( 1.16241e-10 1.58834e-10 7.82818e-10 )  
( 7.77142e-11 5.1833e-10 1.5621e-09 )  
( 1.49144e-09 -1.17445e-09 -9.81727e-10 )  
( -1.011e-09 2.42329e-10 8.03524e-10 )  
( 1.47013e-09 -1.58309e-09 4.96471e-09 )  
( 1.50648e-09 -3.7065e-10 -9.24565e-10 )  
( 1.60367e-09 5.53556e-10 2.03429e-10 )  
( 8.53248e-11 6.21794e-10 6.15135e-10 )  
( 1.35222e-09 -6.99763e-11 8.31822e-11 )  
( -2.84749e-09 -6.73281e-10 4.8007e-09 )  
( -1.04264e-10 1.61979e-11 7.50517e-10 )  
( -1.96536e-09 3.14654e-09 4.78521e-09 )  
( 2.39741e-09 -1.02349e-09 2.82602e-09 )  
( 6.65619e-10 2.01521e-10 1.08166e-09 )  
( 1.50769e-09 2.93202e-10 -9.27731e-10 )  
( -1.1683e-08 -4.34445e-09 9.39997e-09 )  
( 3.45061e-10 4.05143e-10 9.25215e-10 )  
( 1.3563e-09 -2.73009e-12 1.60845e-10 )  
( -3.08222e-10 1.13042e-09 8.50304e-10 )  
( 1.19846e-09 -1.24773e-09 -1.15914e-09 )  
( -3.3313e-10 3.12013e-11 1.36756e-09 )  
( -3.7918e-10 -1.63121e-10 5.9153e-10 )  
( -2.41413e-10 1.45282e-10 -1.84591e-11 )  
( 8.3276e-10 3.36302e-10 7.17392e-10 )  
( -5.14381e-10 9.10515e-10 6.66978e-10 )  
( 1.55217e-09 1.10927e-10 4.81606e-10 )  
( 1.24857e-09 -3.09641e-09 6.28358e-09 )  
( 1.22254e-09 -7.94551e-10 -2.06675e-09 )  
( 4.95152e-11 2.15791e-10 1.09558e-09 )  
( -8.29846e-10 4.40441e-09 7.47376e-09 )  
( 1.53886e-10 -9.71205e-11 2.90188e-10 )  
( 1.97272e-09 3.26065e-10 2.96909e-09 )  
( -6.36572e-10 9.23847e-10 -1.41058e-10 )  
( -1.14819e-10 -3.852e-10 -1.62591e-09 )  
( 8.40369e-10 1.0264e-10 3.14224e-10 )  
( 9.95528e-10 9.65608e-10 9.3843e-10 )  
( 1.3275e-10 3.65843e-10 1.77527e-10 )  
( 1.64848e-10 -3.87031e-10 1.36395e-10 )  
( 1.98013e-09 -4.50828e-10 1.09262e-10 )  
( 1.33827e-09 -1.30996e-10 -3.49163e-11 )  
( 2.32541e-09 -7.00965e-10 -5.20498e-10 )  
( -5.12636e-10 8.01693e-10 2.1438e-09 )  
( 4.43319e-10 1.4464e-10 8.87641e-10 )  
( 2.07888e-09 -1.42856e-09 -5.30098e-10 )  
( 1.36225e-10 4.04451e-10 4.02418e-10 )  
( 8.94966e-10 6.21561e-11 -5.99472e-10 )  
( 4.14542e-10 1.11804e-09 9.86718e-10 )  
( 2.63868e-09 6.20978e-10 2.93832e-09 )  
( 1.05311e-09 3.32692e-10 2.01768e-10 )  
( 1.74742e-09 3.92853e-10 2.08894e-09 )  
( 9.41882e-10 -1.64289e-10 -3.59284e-10 )  
( 1.47561e-10 2.98408e-10 3.09798e-10 )  
( 1.19198e-09 -3.08996e-10 3.07397e-10 )  
( -2.94781e-10 3.25187e-10 1.12274e-09 )  
( -2.57786e-10 2.06738e-09 2.35599e-09 )  
( 1.98198e-10 3.86286e-10 1.94232e-10 )  
( 7.04599e-10 1.97072e-10 1.2412e-10 )  
( 1.09319e-09 1.88703e-10 1.51479e-11 )  
( 1.72504e-09 3.48665e-10 3.05092e-10 )  
( -6.62755e-11 2.02602e-10 5.24705e-10 )  
( 7.48924e-10 8.76346e-11 4.6544e-10 )  
( 5.19445e-10 1.79476e-10 3.27398e-10 )  
( -1.34853e-09 2.47265e-09 3.75499e-09 )  
( 7.2652e-10 1.74245e-10 -7.88285e-11 )  
( 2.29741e-10 1.67861e-10 2.58315e-10 )  
( 4.54072e-10 1.21397e-09 2.31763e-09 )  
( 2.02051e-09 2.82938e-10 7.52459e-10 )  
( 8.03545e-11 3.72529e-10 9.58991e-10 )  
( 7.71142e-10 1.05358e-10 2.91258e-10 )  
( 2.7175e-10 3.64473e-10 3.38599e-10 )  
( 1.6834e-09 3.49456e-10 7.50694e-10 )  
( 1.1629e-09 2.19768e-10 2.70156e-10 )  
( 1.43789e-09 7.63202e-11 3.52948e-10 )  
( 5.77389e-10 9.07633e-11 4.08286e-10 )  
( 1.05042e-09 2.80662e-10 1.40179e-10 )  
( 8.99388e-10 1.4172e-10 5.51437e-10 )  
( -2.12963e-09 1.09342e-09 2.62854e-09 )  
( 7.83401e-10 1.19333e-10 9.75733e-11 )  
( -4.18484e-10 8.5507e-10 1.60329e-09 )  
( -3.92591e-10 7.4488e-10 1.70775e-09 )  
( 1.80207e-09 2.43331e-10 5.28633e-10 )  
( 1.79515e-10 7.45199e-11 1.80914e-10 )  
( -1.39821e-11 1.53063e-10 2.09074e-10 )  
( 1.88392e-10 4.14278e-10 8.19936e-10 )  
( -1.64415e-09 8.96219e-10 4.21758e-09 )  
( 4.16575e-10 1.14788e-10 5.51165e-10 )  
( 4.78279e-10 1.47098e-09 2.95772e-09 )  
( 1.43486e-09 7.61716e-10 8.96372e-10 )  
( 4.29879e-10 2.63178e-10 3.16858e-10 )  
( -9.07709e-10 -1.3867e-10 2.16163e-09 )  
( 8.13106e-10 1.6016e-10 2.29808e-10 )  
( 8.14171e-10 7.26906e-10 8.37043e-10 )  
( 3.21803e-10 1.79787e-10 6.76261e-10 )  
( -4.66105e-10 1.56246e-09 2.60011e-09 )  
( 1.05762e-09 2.56976e-10 1.05613e-10 )  
( 1.9366e-09 7.05183e-10 9.70349e-10 )  
( 9.07692e-10 2.60017e-11 1.42274e-10 )  
( 5.67145e-10 2.4657e-10 2.78746e-10 )  
( 7.66118e-10 2.1747e-10 2.93519e-10 )  
( -1.23702e-09 -1.89047e-09 7.72352e-09 )  
( 6.75232e-10 2.49838e-10 4.98536e-10 )  
( 8.0787e-10 4.57391e-11 6.60931e-10 )  
( 5.73269e-10 1.47963e-09 2.78512e-09 )  
( 6.06961e-10 9.40972e-11 2.76623e-10 )  
( 1.26042e-09 1.20399e-09 1.03157e-09 )  
( 1.20878e-09 4.65409e-10 1.34147e-10 )  
( -1.05391e-09 -4.57782e-10 2.73182e-09 )  
( -3.97952e-10 3.84755e-10 7.31163e-10 )  
( 3.74919e-10 4.39533e-11 2.6952e-11 )  
( 1.09674e-09 1.06626e-11 3.53044e-10 )  
( 1.05886e-10 1.21448e-11 1.0834e-10 )  
( 4.35116e-10 5.35665e-12 -1.83131e-10 )  
( 3.53654e-10 2.10913e-10 5.30626e-10 )  
( 1.43062e-10 1.3493e-10 5.06198e-10 )  
( 1.00198e-10 1.08897e-10 3.64311e-10 )  
( -4.15143e-10 5.6746e-10 1.04319e-09 )  
( 3.66607e-10 8.03829e-10 9.97558e-10 )  
( -1.21801e-09 2.16643e-09 3.69194e-09 )  
( 1.18694e-09 2.90422e-10 2.41513e-10 )  
( 1.16325e-10 9.25995e-11 3.66002e-10 )  
( 1.95497e-09 5.09057e-10 5.45023e-10 )  
( 3.52381e-10 -5.39223e-12 -9.61903e-11 )  
( 9.63474e-10 5.2767e-11 1.60674e-10 )  
( 2.86749e-10 6.07876e-11 3.46452e-10 )  
( 7.65899e-10 9.01128e-11 3.79119e-10 )  
( 4.74699e-10 1.53074e-10 4.85095e-10 )  
( 1.50541e-10 1.40016e-10 2.41732e-10 )  
( -1.55233e-09 3.45202e-09 3.425e-09 )  
( 9.11278e-10 2.48609e-10 2.48513e-10 )  
( 7.85408e-11 6.13298e-10 8.78428e-10 )  
( 4.08886e-10 1.17603e-09 1.95775e-09 )  
( -1.28377e-10 1.44327e-10 2.39404e-10 )  
( 8.07822e-10 2.73323e-10 3.34817e-11 )  
( 5.47038e-10 1.41572e-10 3.26532e-10 )  
( -2.25289e-10 1.34677e-10 3.80436e-10 )  
( 1.3064e-09 1.24768e-10 6.46161e-10 )  
( 7.43755e-10 -3.33406e-11 2.90243e-10 )  
( 1.23882e-09 -3.35733e-10 3.40824e-10 )  
( 6.69606e-10 4.77543e-11 2.96555e-10 )  
( 4.81642e-11 1.28734e-10 1.93772e-10 )  
( 1.06401e-09 2.17926e-10 2.76274e-10 )  
( 1.66829e-09 -4.52594e-10 3.38445e-10 )  
( 1.10149e-09 -1.44397e-10 3.48061e-10 )  
( 4.77084e-10 1.25509e-10 3.15317e-10 )  
( 1.00479e-09 -3.3071e-10 2.99258e-10 )  
( 7.99028e-10 3.24008e-10 9.55174e-11 )  
( 1.43054e-09 -2.47709e-10 1.42384e-10 )  
( 1.89938e-09 7.19769e-10 9.13558e-10 )  
( 8.34887e-11 1.17561e-10 1.9892e-10 )  
( 9.54111e-10 -1.82307e-10 2.49365e-10 )  
( 6.12486e-10 5.02435e-12 3.77033e-10 )  
( 1.80153e-09 1.03156e-09 1.26091e-09 )  
( 8.24618e-10 -1.1457e-11 2.43416e-10 )  
( 2.06803e-09 1.21023e-10 1.39997e-10 )  
( 1.85884e-09 1.91475e-10 5.23225e-10 )  
( 1.62237e-09 9.98469e-11 6.37231e-10 )  
( 1.42528e-09 1.58454e-10 4.37884e-10 )  
( 2.20675e-09 3.43552e-10 9.37899e-10 )  
( 4.88261e-10 5.4629e-11 2.62728e-10 )  
( -1.8235e-10 -5.13793e-10 -4.20232e-10 )  
( 8.1542e-10 1.02702e-10 2.89186e-10 )  
( 7.3754e-11 1.64735e-10 6.23215e-10 )  
( 7.11846e-10 3.21382e-10 7.68248e-10 )  
( 9.24954e-10 1.56479e-10 2.64044e-10 )  
( 9.25096e-10 -2.17085e-11 2.09829e-10 )  
( 1.54468e-10 3.18523e-10 1.55418e-10 )  
( 2.32644e-09 7.52598e-10 1.71299e-09 )  
( 1.59114e-09 -5.53001e-10 2.99271e-10 )  
( -5.56676e-10 -1.25601e-10 -1.05324e-10 )  
( 7.31976e-10 4.18254e-10 1.98647e-10 )  
( 3.80072e-10 -2.29354e-11 -5.36293e-10 )  
( 2.91417e-10 3.34843e-10 3.08574e-10 )  
( 2.04909e-09 1.32036e-11 4.56019e-11 )  
( 8.48155e-10 9.78037e-11 2.2918e-10 )  
( 9.94507e-10 -2.40911e-10 4.30885e-10 )  
( 4.87778e-10 5.24539e-10 2.55519e-10 )  
( 6.63958e-10 1.31677e-10 6.0542e-10 )  
( -3.39385e-09 1.81962e-09 1.19133e-08 )  
( 7.53842e-10 -9.02778e-11 2.71701e-10 )  
( 3.14477e-09 -3.81021e-10 -3.67507e-09 )  
( 1.46154e-09 4.09581e-10 5.04196e-10 )  
( 1.34361e-09 4.67761e-10 7.44832e-10 )  
( -4.49614e-10 6.79181e-10 3.45492e-09 )  
( 1.98817e-09 1.28727e-09 8.10997e-10 )  
( 1.28701e-10 2.51352e-09 4.50211e-09 )  
( 1.15545e-09 -2.38715e-10 3.97471e-10 )  
( 1.11965e-09 6.51973e-11 2.05338e-10 )  
( 8.74541e-10 1.14479e-10 8.30938e-10 )  
( -2.1355e-09 -1.18196e-09 2.85678e-09 )  
( 1.28376e-09 1.13756e-09 1.35493e-09 )  
( 3.09363e-10 1.1505e-10 2.36088e-10 )  
( 7.99772e-10 1.67835e-11 4.34303e-10 )  
( 1.24926e-10 9.05033e-11 5.30684e-10 )  
( -3.45219e-10 1.35986e-11 8.78904e-10 )  
( 9.90816e-10 -2.50942e-10 4.53745e-10 )  
( 1.09784e-09 9.89892e-11 1.4769e-10 )  
( 1.00379e-09 8.78752e-11 1.23862e-10 )  
( 1.21769e-09 2.8956e-10 5.81848e-10 )  
( -5.60509e-10 -3.2357e-10 -2.44807e-10 )  
( 9.62891e-11 8.56549e-11 3.12098e-10 )  
( 9.86535e-10 1.32436e-10 5.17405e-10 )  
( 3.53655e-10 3.02904e-10 4.22458e-10 )  
( 3.04956e-10 1.68122e-11 4.94104e-10 )  
( 1.2784e-09 5.92057e-12 5.45552e-10 )  
( 1.42141e-10 -1.69474e-09 8.91125e-09 )  
( 8.15922e-10 3.08835e-11 -9.84082e-11 )  
( 9.30459e-10 -2.18555e-11 1.8609e-10 )  
( -1.11921e-09 3.58256e-09 4.99452e-09 )  
( 4.57396e-10 2.25133e-10 5.67837e-10 )  
( 1.54142e-10 1.92711e-10 2.19645e-10 )  
( 5.17117e-10 2.72596e-11 -9.35196e-11 )  
( 1.79253e-09 1.0029e-09 8.77145e-10 )  
( 4.63795e-10 3.66058e-11 -4.27037e-12 )  
( 4.45591e-10 1.97136e-10 4.68193e-10 )  
( -4.20809e-10 -6.29549e-10 -2.78371e-11 )  
( 1.46394e-09 -4.74251e-10 7.17068e-10 )  
( 6.3755e-09 -1.82411e-10 -2.49748e-09 )  
( 2.48536e-11 6.34496e-10 2.26633e-10 )  
( 4.96769e-10 2.02278e-09 8.12369e-10 )  
( 6.0209e-09 3.2179e-09 2.98673e-09 )  
( 3.38786e-09 2.82304e-09 7.22318e-10 )  
( -1.73402e-09 8.30381e-10 9.97487e-10 )  
( -1.45588e-09 9.54687e-10 -3.37902e-10 )  
( 6.95522e-09 -5.7889e-09 8.6545e-09 )  
( 3.44192e-09 -2.97058e-09 3.65134e-09 )  
( 2.53275e-09 1.05991e-09 2.12303e-10 )  
( -1.12352e-09 7.21924e-10 -1.84995e-10 )  
( -9.94468e-10 6.90806e-10 7.24353e-10 )  
( 3.27659e-09 -2.369e-09 -2.05062e-10 )  
( 1.89343e-09 -6.86693e-10 2.81526e-10 )  
( 3.58965e-09 -4.10052e-10 2.78953e-09 )  
( 1.39604e-09 6.5757e-11 9.46915e-10 )  
( -1.20234e-09 6.41941e-10 6.87059e-10 )  
( 1.82812e-09 -1.19493e-09 3.17809e-10 )  
( 1.21581e-09 1.04879e-09 2.53821e-10 )  
( -2.80264e-09 -6.35418e-10 -7.50395e-10 )  
( 1.00941e-09 1.1903e-09 4.28131e-10 )  
( 1.21593e-09 -1.65655e-09 -1.68574e-10 )  
( 8.88776e-09 5.18943e-09 2.79509e-09 )  
( 7.51373e-10 9.33797e-10 3.47317e-10 )  
( 5.5068e-09 -2.19906e-09 -2.13246e-09 )  
( -1.61913e-09 4.45067e-10 1.65735e-09 )  
( 2.18924e-10 -5.23076e-10 6.90658e-10 )  
( 3.67912e-09 -2.00109e-09 2.29797e-09 )  
( 2.17146e-09 -6.82207e-10 4.31741e-10 )  
( 5.37117e-09 3.57989e-09 4.79525e-10 )  
( 1.76896e-12 1.10955e-09 4.43284e-10 )  
( 1.62278e-09 6.71377e-10 2.88159e-10 )  
( 8.50376e-10 5.76823e-10 1.73081e-10 )  
( 9.59523e-10 2.40697e-10 1.29831e-10 )  
( 4.61549e-09 1.38542e-10 3.79233e-09 )  
( -1.20307e-09 -8.21188e-10 -8.09145e-10 )  
( 1.11607e-09 -1.26211e-10 3.71058e-10 )  
( 3.00544e-09 -4.26513e-09 3.24137e-09 )  
( -9.57825e-10 4.53887e-10 4.20267e-10 )  
( 3.09447e-09 -2.85119e-09 -4.15966e-10 )  
( 4.73819e-09 -3.41789e-09 4.44921e-09 )  
( 1.03979e-09 7.90959e-12 1.0533e-10 )  
( -1.43368e-09 1.06711e-09 1.03997e-09 )  
( -2.26371e-09 -5.51272e-11 1.47873e-11 )  
( 9.50713e-10 1.34813e-09 5.38227e-10 )  
( 2.89602e-10 6.78963e-10 1.52945e-10 )  
( 4.10295e-09 2.60076e-10 1.19889e-09 )  
( 7.02375e-10 3.20501e-10 1.37349e-10 )  
( -1.69701e-10 6.52081e-10 2.88774e-10 )  
( 1.75883e-09 -6.84637e-10 1.64993e-10 )  
( -6.66635e-10 3.57003e-10 4.02568e-10 )  
)
