/*--------------------------------*- C++ -*----------------------------------*\
  =========                 |
  \\      /  F ield         | OpenFOAM: The Open Source CFD Toolbox
   \\    /   O peration     | Website:  https://openfoam.org
    \\  /    A nd           | Version:  4.x
     \\/     M anipulation  |
\*---------------------------------------------------------------------------*/
FoamFile
{
    version     2.0;
    format      ascii;
    class       Cloud<passiveParticle>;
    location    0;
    object      positions;
}
// * * * * * * * * * * * * * * * * * * * * * * * * * * * * * * * * * * * * * //

312
(
( 0.211597 -0.00559976 -0.0726908 ) 4
( 0.187088 -0.00943198 -0.0457058 ) 34
( 0.223468 -0.0130687 -0.0586222 ) 36
( 0.203047 -0.0136529 -0.0353133 ) 64
( 0.23557 -0.00379801 -0.0713091 ) 36
( 0.220411 -0.00513151 -0.0324567 ) 64
( 0.176613 -0.009345 -0.0624329 ) 34
( 0.236004 -0.00904943 -0.0438668 ) 36
( 0.205731 -0.00151863 -0.0507322 ) 35
( 0.16758 -0.0112835 -0.0447203 ) 34
( 0.226278 -0.0111277 -0.0147022 ) 65
( 0.225247 0.0300916 -0.0273426 ) 74
( 0.0457646 0.0271863 -0.0469722 ) 38
( 0.215135 0.0376286 -0.0425624 ) 73
( 0.185352 0.022289 -0.0700919 ) 43
( 0.113527 0.0388553 -0.0534816 ) 41
( 0.032375 0.0742176 -0.0323206 ) 85
( 0.201793 0.0640976 -0.045067 ) 53
( 0.212381 0.0180015 -0.0410326 ) 73
( 0.0749163 0.0448108 -0.0509449 ) 48
( 0.0697571 0.0214974 -0.0471333 ) 39
( 0.032274 0.0515534 -0.0611026 ) 47
( 0.173451 0.018403 -0.0546815 ) 43
( 0.125913 0.0707909 -0.0484839 ) 50
( 0.0266219 0.0590273 -0.0436108 ) 46
( 0.0238044 0.0902936 -0.0398976 ) 84
( 0.043301 0.0901344 -0.0543223 ) 56
( 0.0625224 0.0501678 -0.0659051 ) 48
( 0.078241 0.0721602 -0.0575113 ) 57
( 0.138003 0.0576306 -0.0571822 ) 50
( 0.180633 0.0552026 -0.0492601 ) 52
( 0.0592367 0.0312552 -0.0608992 ) 39
( 0.203214 0.00505925 -0.029174 ) 64
( 0.100158 0.0434134 -0.0349106 ) 78
( 0.0790166 0.0455053 -0.0254525 ) 77
( 0.239232 0.052456 -0.0724496 ) 23
( 0.156916 0.0557787 -0.0682824 ) 51
( 0.215903 0.0777004 -0.0409918 ) 91
( 0.244016 0.0826175 -0.0398824 ) 92
( 0.168067 0.066558 -0.0389328 ) 81
( 0.0925447 0.0600452 -0.0672858 ) 49
( 0.145284 0.0710991 -0.0444594 ) 51
( 0.110924 0.0824342 -0.0427446 ) 87
( 0.154398 0.0565505 -0.0289551 ) 80
( 0.136342 0.0382212 -0.0531551 ) 41
( 0.210406 0.0742429 -0.0597267 ) 62
( 0.0254415 0.0819931 -0.0577857 ) 55
( 0.186216 0.0389681 -0.0592984 ) 43
( 0.18513 0.0889766 -0.0709407 ) 61
( 0.168801 0.0901214 -0.0375098 ) 90
( 0.223345 0.06416 -0.0707653 ) 54
( 0.118324 0.0218133 -0.0623763 ) 41
( 0.113986 0.0888644 -0.0613203 ) 59
( 0.0724464 0.0629148 -0.0321035 ) 77
( 0.092525 0.0772646 -0.0356243 ) 87
( 0.133731 0.0243632 -0.039206 ) 70
( 0.196307 0.0526737 -0.0696391 ) 53
( 0.144863 0.00354227 -0.069996 ) 33
( 0.218413 0.0258924 -0.0583126 ) 44
( 0.0270882 0.0247921 -0.0326774 ) 66
( 0.0995957 0.017694 -0.0675292 ) 40
( 0.0900698 0.0248275 -0.0214959 ) 69
( 0.125508 0.0399834 -0.0697485 ) 41
( 0.124079 0.0635358 -0.0278346 ) 79
( 0.00983353 0.0177752 -0.0395034 ) 66
( 0.106537 0.0460354 -0.0707867 ) 49
( 0.0581444 0.0798819 -0.0461349 ) 57
( 0.100001 0.0251788 -0.0491517 ) 40
( 0.154448 0.0242561 -0.0524928 ) 42
( 0.225765 0.0635896 -0.0509481 ) 54
( 0.157041 0.00536959 -0.0468801 ) 33
( 0.181718 0.0316091 -0.0414255 ) 72
( 0.202651 0.0124737 -0.0703812 ) 35
( 0.088172 0.0572356 -0.0427368 ) 78
( 0.097759 0.0749228 -0.0553225 ) 58
( 0.124672 0.0517382 -0.0436878 ) 50
( 0.0899732 0.0619876 -0.0230655 ) 78
( 0.191205 0.071157 -0.0642415 ) 52
( 0.231452 0.0689605 -0.0326422 ) 83
( 0.0349058 0.0416923 -0.0389757 ) 67
( 0.144537 0.073154 -0.0678231 ) 60
( 0.0618913 0.0465871 -0.0360536 ) 77
( 0.0762098 0.0886065 -0.0352391 ) 86
( 0.155512 0.0545342 -0.0485444 ) 51
( 0.00998482 0.0726746 -0.0468369 ) 55
( 0.193001 0.0220182 -0.0284539 ) 72
( 0.0379281 0.0181545 -0.0644979 ) 38
( 0.135959 0.045582 -0.0287265 ) 79
( 0.00989961 0.081317 -0.0289938 ) 84
( 0.010813 0.0545519 -0.0549511 ) 46
( 0.169326 0.0438975 -0.032071 ) 81
( 0.0567116 0.0722492 -0.0644565 ) 57
( 0.150992 0.0900379 -0.0594665 ) 60
( 0.0282662 0.0328977 -0.0554493 ) 38
( 0.114661 0.0289972 -0.0362503 ) 70
( 0.229986 0.0121095 -0.0340801 ) 65
( 0.248798 0.0608144 -0.0242658 ) 83
( 0.0279842 0.0556733 -0.0187457 ) 76
( 0.242007 0.0556003 -0.0425288 ) 83
( 0.0959824 0.0900507 -0.0694539 ) 58
( 0.165081 0.0708564 -0.0580538 ) 51
( 0.188449 0.0902902 -0.0347501 ) 90
( 0.232017 0.0279729 -0.0742547 ) 14
( 0.239065 0.0160678 -0.0599967 ) 45
( 0.196676 0.0449584 -0.0434933 ) 53
( 0.164441 0.0285347 -0.0691751 ) 42
( 0.063729 0.0612411 -0.0495712 ) 48
( 0.247523 0.0106249 -0.0428878 ) 36
( 0.184879 0.0743518 -0.0457478 ) 61
( 0.0835479 0.0270194 -0.0603195 ) 40
( 0.171154 0.0773784 -0.0226182 ) 90
( 0.167444 0.0393808 -0.0527855 ) 43
( 0.176699 0.0581241 -0.068517 ) 52
( 0.114075 0.0902959 -0.0250267 ) 88
( 0.227051 0.0901969 -0.0298791 ) 92
( 0.165865 0.0204168 -0.0366419 ) 71
( 0.204988 0.0901372 -0.0702202 ) 62
( 0.18888 0.0064196 -0.057481 ) 34
( 0.120852 0.0661725 -0.0671315 ) 50
( 0.0586064 0.0274768 -0.0318592 ) 68
( 0.0472699 0.056774 -0.0272654 ) 76
( 0.0843685 0.0320267 -0.0390024 ) 69
( 0.249888 0.0885684 -0.022036 ) 92
( 0.00991004 0.0284624 -0.0677839 ) 37
( 0.222379 0.0110192 -0.0709275 ) 36
( 0.132817 0.0897491 -0.0675524 ) 59
( 0.0490315 0.0481998 -0.0510624 ) 47
( 0.163292 0.0825037 -0.0740537 ) 29
( 0.185386 0.0613841 -0.0308035 ) 81
( 0.00970084 0.0356786 -0.0493276 ) 37
( 0.207159 0.090029 -0.028235 ) 91
( 0.211302 0.0510812 -0.0566286 ) 53
( 0.0854135 0.0901645 -0.0526879 ) 58
( 0.233308 0.0281723 -0.0453312 ) 45
( 0.202815 0.032956 -0.0684897 ) 44
( 0.128713 0.0902647 -0.0480786 ) 59
( 0.0548823 0.0732229 -0.0190688 ) 85
( 0.0355319 0.0693645 -0.0693055 ) 47
( 0.231353 0.045055 -0.0556557 ) 54
( 0.0282564 0.0901528 -0.0195194 ) 85
( 0.228616 0.0901001 -0.0498527 ) 63
( 0.14909 0.0901828 -0.0397004 ) 89
( 0.010449 0.0351157 -0.0297392 ) 66
( 0.151437 0.0373564 -0.037936 ) 71
( 0.143464 0.0277978 -0.0686258 ) 42
( 0.043356 0.0673029 -0.0504229 ) 47
( 0.167737 0.00693963 -0.0699131 ) 34
( 0.170775 0.0900657 -0.0572244 ) 61
( 0.196792 0.0238348 -0.0518356 ) 44
( 0.137117 0.0900842 -0.0227466 ) 88
( 0.0527671 0.027316 -0.00503122 ) 94
( 0.135481 0.0700983 8.06081e-05 ) 105
( 0.0832759 0.0549761 -0.00355825 ) 103
( 0.089446 0.0423314 0.010554 ) 96
( 0.217821 0.0166426 0.0112604 ) 100
( 0.114796 0.0250166 0.00872414 ) 97
( 0.0430277 0.03475 0.0105556 ) 94
( 0.110146 0.0412283 -0.00204588 ) 96
( 0.175596 0.0361769 -0.0120181 ) 99
( 0.168817 0.0486531 0.00178905 ) 107
( 0.191133 0.0822168 -0.0167549 ) 90
( 0.124999 0.0510672 0.00637912 ) 105
( 0.153859 0.0394214 0.0108573 ) 98
( 0.0490076 0.0902084 0.00758508 ) 109
( 0.125194 0.0234424 -0.00779564 ) 97
( 0.00985218 0.0488414 0.00689942 ) 101
( 0.0110341 0.0659918 -0.0165122 ) 75
( 0.103367 0.0901012 -0.00349929 ) 111
( 0.15895 0.0681903 -0.00999138 ) 106
( 0.193301 0.0595663 -0.0127633 ) 107
( 0.0293289 0.0881163 0.00605979 ) 109
( 0.0272566 0.0433888 -0.00308755 ) 101
( 0.0907269 0.0902234 0.0119057 ) 111
( 0.0756078 0.0182187 0.00723567 ) 95
( 0.062837 0.0800399 -0.00214576 ) 110
( 0.207071 0.027254 -0.00115203 ) 100
( 0.133892 0.0427996 -0.00903635 ) 97
( 0.0581706 0.0697161 0.0138862 ) 103
( 0.00990501 0.0682298 0.00299462 ) 101
( 0.124243 0.0776352 -0.0140475 ) 112
( 0.232317 0.0781049 -0.015208 ) 92
( 0.162149 0.079877 0.00558589 ) 113
( 0.163623 0.0259577 0.000287827 ) 98
( 0.145124 0.0901251 0.00641076 ) 113
( 0.0952564 0.0239293 0.00531713 ) 96
( 0.0643356 0.0605349 -0.0057249 ) 103
( 0.0201274 0.027425 -0.0143911 ) 66
( 0.0466232 0.0898394 -0.01194 ) 109
( 0.066303 0.0371185 0.00535986 ) 95
( 0.0927705 0.0732014 -0.00373846 ) 111
( 0.0531935 0.0515883 0.007976 ) 102
( 0.105702 0.0730606 -0.0187526 ) 87
( 0.153633 0.090048 -0.0115664 ) 113
( 0.029222 0.0233359 0.00247242 ) 94
( 0.142458 0.0276213 0.000301804 ) 98
( 0.221036 0.037065 0.0086953 ) 100
( 0.153137 0.0467117 -0.0119416 ) 106
( 0.116931 0.0594645 -0.00964095 ) 105
( 0.076988 0.070206 0.00781132 ) 103
( 0.0110893 0.0868579 -0.00996789 ) 108
( 0.0803618 0.0891334 -0.0047928 ) 110
( 0.191303 0.0389559 -0.000716346 ) 99
( 0.125004 0.0903331 0.000716134 ) 112
( 0.211672 0.0529991 -0.0156871 ) 82
( 0.108916 0.0286656 -0.0172519 ) 69
( 0.0824014 0.0340586 -0.00582046 ) 95
( 0.101097 0.0573513 0.00492236 ) 104
( 0.18267 0.0210203 -0.000697083 ) 99
( 0.0360868 0.0604799 0.00214192 ) 102
( 0.178873 0.071263 -0.00556959 ) 107
( 0.00975583 0.0442731 -0.012283 ) 101
( 0.107789 0.0577702 -0.0547163 ) 49
( 0.00985113 0.0901751 -0.0670868 ) 55
( 0.216666 0.0558571 -0.0346679 ) 82
( 0.139867 0.0605896 -0.0164202 ) 80
( 0.0517694 0.0144459 0.0101148 ) 94
( 0.00983721 0.0296275 0.00234284 ) 93
( 0.00990919 0.0901401 0.00952087 ) 108
( 0.0702004 0.0230236 -0.0165186 ) 68
( 0.220927 0.0444412 -0.0727071 ) 22
( 0.0499454 0.0901439 -0.0313942 ) 85
( 0.158589 -0.0107617 -0.0703339 ) 33
( 0.00983089 0.0560995 -0.0336285 ) 75
( 0.228003 0.0901275 -0.0697114 ) 63
( 0.0942204 0.0431391 -0.0554095 ) 49
( 0.224212 0.00562454 -0.0518733 ) 36
( 0.217607 0.0137627 -0.0187333 ) 64
( 0.230915 0.058226 -0.016004 ) 83
( 0.067164 0.0900603 -0.0606728 ) 57
( 0.240875 0.0425558 -0.0230201 ) 74
( 0.105892 0.0625526 -0.035549 ) 78
( 0.14567 -0.00926435 -0.054149 ) 33
( 0.202554 0.0901072 -0.0486994 ) 62
( 0.139579 0.0278581 -0.0206247 ) 71
( 0.249326 -0.0044739 -0.0301135 ) 65
( 0.0928261 0.0900504 -0.0203598 ) 87
( 0.1165 0.045671 -0.0239095 ) 79
( 0.150093 0.0575913 0.00404603 ) 106
( 0.150654 0.0758987 -0.0260629 ) 89
( 0.159263 0.03049 -0.0211081 ) 71
( 0.188326 0.0424341 -0.0257294 ) 72
( 0.114286 0.0737671 0.00388777 ) 112
( 0.0407298 0.0312915 -0.0200947 ) 67
( 0.035878 0.073062 -0.0129435 ) 109
( 0.173152 0.0166771 -0.0176427 ) 72
( 0.175243 0.0641303 0.0124363 ) 107
( 0.172982 0.0556127 -0.016359 ) 81
( 0.0960853 0.0446753 -0.0154386 ) 78
( 0.0755249 0.073488 -0.0158088 ) 86
( 0.205365 0.0345874 -0.019383 ) 73
( 0.203766 0.0703783 -0.0264368 ) 82
( 0.0636824 0.0415573 -0.0137059 ) 95
( 0.0453263 0.0476454 -0.00975383 ) 102
( 0.0653487 0.0902181 -0.0188518 ) 86
( 0.011728 0.0704842 -0.06662 ) 46
( 0.10996 0.0787633 -0.0780827 ) 27
( 0.178197 0.0403602 -0.0774803 ) 12
( 0.0290467 0.0316746 -0.0760799 ) 7
( 0.237954 0.0776284 -0.0814789 ) 32
( 0.198934 0.0749887 -0.0821545 ) 31
( 0.178352 -0.0141516 -0.081706 ) 3
( 0.0516093 0.0238118 -0.0777131 ) 7
( 0.112272 0.0290263 -0.0799452 ) 10
( 0.0684972 0.0163312 -0.0702947 ) 39
( 0.0746406 0.0625917 -0.0755116 ) 17
( 0.138889 0.0535158 -0.0765754 ) 20
( 0.218264 0.0793142 -0.0833763 ) 31
( 0.016582 0.0466589 -0.0722075 ) 15
( 0.153437 0.0405222 -0.080619 ) 11
( 0.080923 0.0442288 -0.0700927 ) 48
( 0.0503573 0.0601693 -0.0789267 ) 16
( 0.154618 0.0164491 -0.0816078 ) 11
( 0.045605 0.0419989 -0.0722786 ) 7
( 0.045757 0.0859887 -0.0736861 ) 25
( 0.0851951 0.00826082 -0.0774004 ) 0
( 0.0787547 0.0820192 -0.0751004 ) 26
( 0.129615 0.0192585 -0.080036 ) 10
( 0.133542 -0.00672209 -0.0828029 ) 1
( 0.160814 0.0659728 -0.0849383 ) 20
( 0.186092 0.00360762 -0.0770436 ) 3
( 0.0267359 0.0900581 -0.0774471 ) 24
( 0.234367 0.0125717 -0.0867612 ) 5
( 0.0881495 -0.0102076 -0.0842362 ) 0
( 0.214243 0.02492 -0.0827021 ) 13
( 0.0184196 0.016138 -0.0825171 ) 6
( 0.209854 0.0570312 -0.0835966 ) 22
( 0.0104936 0.0799884 -0.0841578 ) 24
( 0.130433 0.0758699 -0.0816809 ) 28
( 0.0925398 0.0315241 -0.079936 ) 9
( 0.0656995 0.0374833 -0.0809747 ) 8
( 0.120112 0.0539774 -0.0830816 ) 19
( 0.0314995 0.0548314 -0.0825631 ) 16
( 0.179158 0.0730613 -0.0814449 ) 30
( 0.101877 0.0617646 -0.0847583 ) 18
( 0.19642 0.0407972 -0.0856582 ) 13
( 0.108499 0.00600932 -0.0809765 ) 0
( 0.146667 0.0900824 -0.0818302 ) 29
( 0.0626158 0.0901268 -0.083285 ) 26
( 0.233177 0.0420326 -0.0883 ) 14
( 0.173241 0.0222289 -0.0859215 ) 12
( 0.0913701 0.0891988 -0.0888093 ) 27
( 0.00991294 0.0600986 -0.0851985 ) 15
( 0.0108334 0.034321 -0.0868042 ) 6
( 0.0374664 0.0144095 -0.0881037 ) 7
( 0.19535 0.0203556 -0.087207 ) 13
( 0.0314856 0.0739824 -0.0882495 ) 25
( 0.0852038 0.0513528 -0.0881926 ) 18
( 0.0768372 0.0226543 -0.0884019 ) 8
( 0.134884 0.0371115 -0.0871658 ) 10
( 0.115027 -0.0111458 -0.0887734 ) 1
( 0.229312 0.0615732 -0.0895946 ) 23
( 0.0632644 0.0711737 -0.0894274 ) 17
)
