/*--------------------------------*- C++ -*----------------------------------*\
| =========                 |                                                 |
| \\      /  F ield         | OpenFOAM: The Open Source CFD Toolbox           |
|  \\    /   O peration     | Version:  4.x                                   |
|   \\  /    A nd           | Web:      www.OpenFOAM.org                      |
|    \\/     M anipulation  |                                                 |
\*---------------------------------------------------------------------------*/
FoamFile
{
    version     2.0;
    format      ascii;
    class       volScalarField;
    location    "58.5";
    object      particleRelTemp;
}
// * * * * * * * * * * * * * * * * * * * * * * * * * * * * * * * * * * * * * //

dimensions      [0 0 0 0 0 0 0];

internalField   nonuniform List<scalar> 
108
(
7.54358e-10
5.30893e-10
1.81546e-10
-5.61536e-11
-3.13235e-10
-4.90042e-10
-5.91091e-10
-6.35228e-10
-6.51348e-10
5.79389e-10
3.63478e-10
1.80069e-10
-1.29931e-10
-3.45251e-10
-4.93004e-10
-5.88762e-10
-6.27512e-10
-6.63653e-10
3.01112e-10
1.6845e-10
2.49255e-11
-1.75265e-10
-3.62966e-10
-4.8713e-10
-5.58101e-10
-5.91068e-10
-6.20222e-10
1.15679e-10
1.8691e-13
-1.64839e-10
-2.54347e-10
-3.62931e-10
-4.6607e-10
-5.20485e-10
-5.49025e-10
-5.66515e-10
7.9233e-10
5.3876e-10
2.46715e-10
-1.0145e-10
-3.56926e-10
-4.99895e-10
-6.09055e-10
-6.52403e-10
-6.597e-10
6.60552e-10
4.18081e-10
1.73588e-10
-1.02854e-10
-3.39815e-10
-5.23081e-10
-6.06871e-10
-6.42414e-10
-6.6013e-10
4.14024e-10
2.24654e-10
3.7441e-11
-1.70316e-10
-3.71498e-10
-4.98308e-10
-5.7723e-10
-6.1098e-10
-6.28381e-10
2.25058e-10
6.60527e-11
-7.19941e-11
-2.3135e-10
-3.67803e-10
-4.80336e-10
-5.47357e-10
-5.73447e-10
-5.88969e-10
8.12752e-10
5.9712e-10
2.14648e-10
-8.30096e-11
-3.71086e-10
-5.47627e-10
-6.17861e-10
-6.44503e-10
-6.48633e-10
7.12699e-10
4.41209e-10
1.4414e-10
-1.69191e-10
-3.92714e-10
-5.39765e-10
-6.13972e-10
-6.39443e-10
-6.50827e-10
4.09063e-10
2.56502e-10
6.52154e-12
-1.91925e-10
-3.97144e-10
-5.23633e-10
-5.84262e-10
-6.16389e-10
-6.22864e-10
2.41293e-10
9.88776e-11
-7.45356e-11
-2.64607e-10
-3.93617e-10
-4.94613e-10
-5.67552e-10
-5.85723e-10
-5.93752e-10
)
;

boundaryField
{
    inlet
    {
        type            calculated;
        value           nonuniform 0();
    }
    outlet
    {
        type            calculated;
        value           nonuniform List<scalar> 
12
(
-6.51348e-10
-6.63653e-10
-6.20222e-10
-5.66515e-10
-6.597e-10
-6.6013e-10
-6.28381e-10
-5.88969e-10
-6.48633e-10
-6.50827e-10
-6.22864e-10
-5.93752e-10
)
;
    }
    wall
    {
        type            calculated;
        value           nonuniform List<scalar> 
63
(
7.54358e-10
5.79389e-10
3.01112e-10
1.15679e-10
5.30893e-10
3.63478e-10
1.6845e-10
1.8691e-13
1.81546e-10
1.80069e-10
2.49255e-11
-1.64839e-10
-5.61536e-11
-1.29931e-10
-1.75265e-10
-2.54347e-10
-3.13235e-10
-3.45251e-10
-3.62966e-10
-3.62931e-10
-4.90042e-10
-4.93004e-10
-4.8713e-10
-4.6607e-10
-5.91091e-10
-5.88762e-10
-5.58101e-10
-5.20485e-10
-6.35228e-10
-6.27512e-10
-5.91068e-10
-5.49025e-10
-6.51348e-10
-6.63653e-10
-6.20222e-10
-5.66515e-10
1.15679e-10
2.25058e-10
2.41293e-10
1.8691e-13
6.60527e-11
9.88776e-11
-1.64839e-10
-7.19941e-11
-7.45356e-11
-2.54347e-10
-2.3135e-10
-2.64607e-10
-3.62931e-10
-3.67803e-10
-3.93617e-10
-4.6607e-10
-4.80336e-10
-4.94613e-10
-5.20485e-10
-5.47357e-10
-5.67552e-10
-5.49025e-10
-5.73447e-10
-5.85723e-10
-5.66515e-10
-5.88969e-10
-5.93752e-10
)
;
    }
    procBoundary3to1
    {
        type            processor;
        value           nonuniform List<scalar> 
27
(
6.58736e-10
4.59036e-10
2.07919e-10
-1.23976e-10
-3.63146e-10
-4.9574e-10
-5.97152e-10
-6.10601e-10
-6.25641e-10
8.6056e-10
5.52619e-10
2.15654e-10
-1.06315e-10
-3.94646e-10
-5.16846e-10
-5.9875e-10
-6.37245e-10
-6.44422e-10
9.76712e-10
5.31751e-10
2.52104e-10
-8.39379e-11
-3.66103e-10
-5.51427e-10
-6.23868e-10
-6.39971e-10
-6.39691e-10
)
;
    }
    procBoundary3to2
    {
        type            processor;
        value           nonuniform List<scalar> 
12
(
8.47841e-10
6.75588e-10
4.5794e-10
2.00347e-10
9.94896e-10
8.17858e-10
5.52528e-10
2.78004e-10
1.0821e-09
8.33393e-10
5.19367e-10
3.59121e-10
)
;
    }
    procBoundary3to7
    {
        type            processor;
        value           nonuniform List<scalar> 
36
(
7.42863e-10
4.42696e-10
1.47673e-10
-2.08523e-10
-4.31056e-10
-5.75793e-10
-6.19833e-10
-6.10725e-10
-6.17932e-10
5.3045e-10
3.35389e-10
1.16174e-11
-2.0584e-10
-4.24906e-10
-5.4604e-10
-6.05057e-10
-6.16365e-10
-6.12423e-10
2.87159e-10
1.50318e-10
-7.85409e-11
-2.49405e-10
-4.1487e-10
-5.29439e-10
-5.84926e-10
-5.97075e-10
-5.95484e-10
1.53011e-10
9.22383e-12
-1.07591e-10
-3.10719e-10
-4.04461e-10
-5.18221e-10
-5.65535e-10
-5.70211e-10
-5.68986e-10
)
;
    }
}


// ************************************************************************* //
