/*--------------------------------*- C++ -*----------------------------------*\
| =========                 |                                                 |
| \\      /  F ield         | OpenFOAM: The Open Source CFD Toolbox           |
|  \\    /   O peration     | Version:  4.x                                   |
|   \\  /    A nd           | Web:      www.OpenFOAM.org                      |
|    \\/     M anipulation  |                                                 |
\*---------------------------------------------------------------------------*/
FoamFile
{
    version     2.0;
    format      ascii;
    class       volScalarField;
    location    "58.5";
    object      QPartFluidCoeff;
}
// * * * * * * * * * * * * * * * * * * * * * * * * * * * * * * * * * * * * * //

dimensions      [1 -1 -3 -1 0 0 0];

internalField   nonuniform List<scalar> 
108
(
-2.8301e+07
-1.28413e+07
-2.2775e+07
-1.0795e+07
-1.67402e+07
-1.26975e+07
-1.88458e+07
-1.62424e+07
-1.13107e+07
-2.05978e+07
-2.93597e+07
-1.6458e+07
-1.83021e+07
-1.97123e+07
-1.62864e+07
-1.95097e+07
-1.77506e+07
-1.26079e+07
-2.2138e+07
-2.26759e+07
-2.36632e+07
-1.64561e+07
-1.96097e+07
-1.80216e+07
-2.25345e+07
-2.3749e+07
-1.36629e+07
-1.44592e+07
-1.43482e+07
-1.55403e+07
-2.22562e+07
-1.84242e+07
-1.83814e+07
-1.20671e+07
-1.851e+07
-1.4296e+07
-2.85974e+07
-2.70147e+07
-3.40262e+07
-3.56263e+07
-2.85878e+07
-2.67968e+07
-2.30276e+07
-2.89209e+07
-2.71208e+07
-2.5335e+07
-2.67398e+07
-2.67814e+07
-2.99688e+07
-2.50063e+07
-2.62398e+07
-3.09575e+07
-2.82403e+07
-1.85966e+07
-4.24859e+07
-3.30391e+07
-3.02822e+07
-3.80816e+07
-2.85254e+07
-3.41466e+07
-2.76711e+07
-3.30347e+07
-2.60242e+07
-2.80957e+07
-2.38922e+07
-2.43815e+07
-2.68109e+07
-3.05594e+07
-2.54435e+07
-2.43113e+07
-2.89033e+07
-1.85103e+07
-2.76027e+07
-3.68155e+07
-3.1016e+07
-3.47185e+07
-2.22175e+07
-2.6335e+07
-3.07562e+07
-2.83711e+07
-2.35277e+07
-3.18609e+07
-2.04537e+07
-2.72323e+07
-1.67526e+07
-1.46193e+07
-3.14419e+07
-2.54447e+07
-3.52524e+07
-1.71212e+07
-2.00858e+07
-3.4361e+07
-3.06036e+07
-2.42278e+07
-2.46057e+07
-3.32536e+07
-2.69752e+07
-3.10027e+07
-1.70379e+07
-2.9121e+07
-1.61975e+07
-1.91858e+07
-2.31754e+07
-2.13451e+07
-2.84538e+07
-2.08491e+07
-3.16846e+07
-2.50208e+07
)
;

boundaryField
{
    inlet
    {
        type            calculated;
        value           nonuniform 0();
    }
    outlet
    {
        type            calculated;
        value           uniform 0;
    }
    wall
    {
        type            calculated;
        value           uniform 0;
    }
    procBoundary3to1
    {
        type            processor;
        value           nonuniform List<scalar> 
27
(
298.348
536.385
470.325
677.407
476.577
440.678
437.454
478.409
327.473
678.49
634.027
543.35
514.508
438.714
691.844
703.867
1001.34
341.582
618.444
587.429
412.91
841.45
670.192
823.79
581.489
733.94
256.37
)
;
    }
    procBoundary3to2
    {
        type            processor;
        value           nonuniform List<scalar> 
12
(
347.401
337.906
492.342
301.006
849.137
484.051
581.367
364.383
703.554
433.062
772.562
584.471
)
;
    }
    procBoundary3to7
    {
        type            processor;
        value           nonuniform List<scalar> 
36
(
771.142
695.229
491.512
604.891
864.717
950.373
606.615
495.477
466.182
567.759
867.164
564.397
619.385
634.871
526.632
596.005
587.623
510.939
405.012
716.515
529.394
683.253
638.4
799.892
655.717
695.543
524.588
535.253
570.313
680.498
452.619
601.213
609.824
606.646
533.231
275.088
)
;
    }
}


// ************************************************************************* //
