/*--------------------------------*- C++ -*----------------------------------*\
| =========                 |                                                 |
| \\      /  F ield         | OpenFOAM: The Open Source CFD Toolbox           |
|  \\    /   O peration     | Version:  4.x                                   |
|   \\  /    A nd           | Web:      www.OpenFOAM.org                      |
|    \\/     M anipulation  |                                                 |
\*---------------------------------------------------------------------------*/
FoamFile
{
    version     2.0;
    format      ascii;
    class       volVectorField;
    location    "58.5";
    object      U;
}
// * * * * * * * * * * * * * * * * * * * * * * * * * * * * * * * * * * * * * //

dimensions      [0 1 -1 0 0 0 0];

internalField   nonuniform List<vector> 
108
(
(0.0225337 -0.000390669 -0.000233834)
(0.0399566 -0.000392433 -0.000457528)
(0.0232004 -0.000474163 -0.00024904)
(0.042521 -0.000763573 7.99093e-05)
(0.0223901 -0.00173277 -0.000416261)
(0.0455981 -0.00139773 0.00135874)
(0.0184531 -0.00460277 -0.00162948)
(0.0502821 0.000229403 0.00329621)
(0.00905899 -0.0116777 -0.00533729)
(0.0168673 -0.000460928 -0.000154732)
(0.0352414 -0.000278575 -9.93035e-05)
(0.0149164 -0.000455172 -0.000186378)
(0.0347471 -0.000229533 0.00097447)
(0.010757 -0.000421402 -0.000120325)
(0.0319059 6.31786e-05 0.00245445)
(0.00359105 -0.000100102 -7.73526e-05)
(0.0237449 8.034e-06 0.00299205)
(3.19893e-08 8.67867e-10 -3.54763e-10)
(0.022269 0.000622116 0.00011938)
(0.0394908 0.000801814 5.63138e-05)
(0.0226218 0.000851286 0.000607128)
(0.0417674 0.000802138 0.000743221)
(0.0215568 0.00226929 0.00139616)
(0.0451076 0.00073592 0.00192089)
(0.0178779 0.00550588 0.00189451)
(0.0519019 -0.00273456 0.00266246)
(0.00972174 0.0143397 5.13836e-05)
(0.0279774 -0.000661929 8.33054e-05)
(0.0428572 -0.000589285 4.39896e-05)
(0.0286076 -0.00134799 0.000482211)
(0.0448236 -0.00105852 0.000543994)
(0.027866 -0.00183975 0.00099629)
(0.0475527 -0.00108542 0.00133068)
(0.0246478 -0.00237576 0.00191113)
(0.05363 -0.00102232 0.00269562)
(0.0133171 -0.00114256 -0.00898753)
(0.00684614 4.42569e-05 -0.000523949)
(0.0324774 0.000184641 -0.000376346)
(0.00597114 9.16943e-05 -0.000664024)
(0.0341067 0.000121344 0.00056821)
(0.00524663 6.13333e-05 -0.00107277)
(0.0358695 -0.000417354 0.00235798)
(0.00490472 -3.85107e-05 -0.0023746)
(0.0381851 -0.0011769 0.00634128)
(0.00571558 -0.000969922 -0.0109793)
(0.00229298 -3.56146e-05 -0.000322818)
(0.0298131 0.000286271 0.000210877)
(0.000568294 1.06043e-05 -0.000132782)
(0.029716 0.000169888 0.000864206)
(0.000303488 2.66013e-05 -0.000106099)
(0.028432 -0.00034299 0.00180721)
(0.000915886 0.000268582 -0.00038412)
(0.0239209 -0.00278146 0.00292358)
(0.00368202 0.00309854 -0.0015166)
(0.0102173 0.000470934 -0.000990444)
(0.0339483 0.000712796 -0.000739745)
(0.0103708 0.000859808 -0.00141587)
(0.036686 -7.67311e-05 0.000207468)
(0.0110935 0.00211613 -0.00251841)
(0.0411291 -0.00126277 0.00204586)
(0.0117968 0.0056687 -0.00505549)
(0.0482475 -0.00462369 0.00545891)
(0.00790355 0.0188526 -0.0149471)
(0.0202271 -0.000566032 -0.0013539)
(0.0378867 -0.000481315 -0.00111587)
(0.0200569 -0.00123963 -0.0018014)
(0.0397313 -0.001031 -0.00076282)
(0.0186526 -0.00185841 -0.00265331)
(0.0430307 -0.00128989 0.000456073)
(0.0156788 -0.0020108 -0.00365734)
(0.0517292 -0.000592712 0.00408303)
(0.00940456 0.00192996 -0.0187571)
(0.00389478 -0.000365251 -0.000731382)
(0.0304101 -0.00023713 -0.000218034)
(0.00320396 -0.000470794 -0.000833087)
(0.0309053 -0.000545476 0.00016217)
(0.00342846 -0.000918955 -0.00144016)
(0.0306484 -0.000691613 0.0011528)
(0.00420412 -0.00172122 -0.0026971)
(0.0281021 0.0011097 0.00370598)
(0.00789255 -0.00425474 -0.00927409)
(9.64035e-09 -9.166e-10 -7.70303e-10)
(0.0272384 -0.000224156 0.00044041)
(8.44983e-09 -1.52082e-10 -5.82101e-10)
(0.0269616 3.74153e-05 0.000638258)
(7.29827e-09 -1.12105e-09 -5.84252e-10)
(0.0264358 0.000877553 0.00182895)
(8.53541e-09 -6.25556e-10 -1.25958e-09)
(0.0227789 0.00123351 0.00267459)
(0.00380868 -0.000188169 -0.000526918)
(0.000808077 7.83092e-05 -4.26334e-05)
(0.0297821 -0.000232142 -6.29051e-05)
(9.02491e-09 2.10694e-09 6.53922e-10)
(0.0302183 -0.000318852 0.000318575)
(0.00115304 0.000346459 -0.000218689)
(0.0310729 -0.000287651 0.00115224)
(0.00477648 0.00256067 -0.00161896)
(0.0298651 -0.00219892 0.00319506)
(0.00996518 0.0111046 -0.00706157)
(0.0138404 -0.000107354 -0.000647935)
(0.0333753 -0.000350064 -0.000257176)
(0.0125845 -0.000386335 -0.000700321)
(0.0339053 -0.00102555 0.000155538)
(0.0106551 -0.000236787 -0.00112114)
(0.0351735 -0.00126477 0.000778521)
(0.00847664 0.000369631 -0.00189452)
(0.0399073 -0.00106228 0.00270364)
(0.00601208 0.00352994 -0.00531749)
)
;

boundaryField
{
    inlet
    {
        type            fixedValue;
        value           nonuniform 0();
    }
    outlet
    {
        type            zeroGradient;
    }
    wall
    {
        type            fixedValue;
        value           uniform (0 0 0);
    }
    procBoundary3to1
    {
        type            processor;
        value           nonuniform List<vector> 
27
(
(0.0202674 0.00013028 -0.000694239)
(0.0373331 0.000268031 -0.000717608)
(0.0199788 0.000516676 -0.000925695)
(0.0389102 0.000602361 -6.04533e-05)
(0.0189718 0.000289439 -0.0019535)
(0.0416137 0.000678074 0.00127446)
(0.0171163 -0.000897263 -0.00438866)
(0.0489819 0.00122631 0.00450541)
(0.0106058 -0.00408797 -0.0119117)
(0.00261117 0.000126568 -0.000179507)
(0.0298476 0.000325261 0.000186583)
(0.000457824 4.40456e-05 -4.96418e-05)
(0.0298275 0.000417222 0.000729103)
(4.82439e-06 5.19726e-07 -9.67966e-07)
(0.0287663 0.000103286 0.00180758)
(0.00246127 0.000214066 -0.000980169)
(0.0264023 -0.000401001 0.00421922)
(0.0096284 0.000503891 -0.0116656)
(0.0018453 -0.00010389 -0.000414218)
(0.0291819 8.11539e-06 0.000177036)
(0.00127363 -9.9063e-05 -0.000431594)
(0.0296555 0.000516505 0.000117967)
(0.00182496 -0.00028697 -0.000869653)
(0.0298083 0.000978449 0.000489819)
(0.00406663 -0.0014677 -0.00243842)
(0.028191 0.00282558 0.00255556)
(0.00882296 -0.00680721 -0.00560684)
)
;
    }
    procBoundary3to2
    {
        type            processor;
        value           nonuniform List<vector> 
12
(
(0.0378002 -0.000268742 -0.00073141)
(0.0345735 -0.000245171 -0.000727436)
(0.0373756 0.000747591 -0.000341422)
(0.0405814 -0.000153091 -0.000292278)
(0.0311181 5.12696e-05 -0.000709446)
(0.0294202 0.000138149 -0.000228805)
(0.0321951 0.00104462 -0.00129973)
(0.0362091 -3.64015e-05 -0.00139337)
(0.029668 -5.61047e-05 -0.000654469)
(0.0273817 -0.000519424 5.67406e-05)
(0.0291055 -0.00012493 -0.000112609)
(0.0328483 0.000174616 -0.000472884)
)
;
    }
    procBoundary3to7
    {
        type            processor;
        value           nonuniform List<vector> 
36
(
(0.00203226 0.000234753 -0.000341377)
(0.0291782 0.00038804 -0.00013328)
(0.00142723 0.000320131 -0.000400234)
(0.0291832 0.000576037 -4.43101e-05)
(0.000400512 0.000127655 -0.000164474)
(0.0287909 0.000768587 0.000743854)
(0.000132694 5.87381e-05 -7.42687e-05)
(0.0247092 -0.00133846 0.00307972)
(0.00335849 0.00139233 -0.00187383)
(0.000142402 1.83244e-05 -1.82865e-05)
(0.0286696 0.000225418 -0.000139125)
(9.1683e-09 1.64122e-09 -9.88441e-10)
(0.0280001 4.26749e-05 0.000237572)
(0.000690099 0.000216424 -8.07563e-05)
(0.0269571 -0.000692229 0.000962766)
(0.00414492 0.00221745 -0.000305607)
(0.0241536 -0.00299665 0.00156422)
(0.00952273 0.0103739 0.000739958)
(0.00924641 0.000918359 -0.000726481)
(0.0325846 0.00050508 -0.000302641)
(0.0092004 0.00128721 -0.00118494)
(0.0341779 -6.39319e-05 -0.0005605)
(0.00896904 0.00220335 -0.0019879)
(0.0364296 -0.00194493 -0.000475284)
(0.00813444 0.00395323 -0.00329704)
(0.03905 -0.00565869 0.00135809)
(0.00573509 0.00921379 -0.00519349)
(0.0164073 -0.00052662 -0.00126082)
(0.0354672 -0.000362384 -0.00118683)
(0.0161053 -0.000736334 -0.00174082)
(0.0366852 -0.000562956 -0.000933424)
(0.0147957 -0.000910861 -0.00267882)
(0.0381372 -0.000556027 0.00021741)
(0.011415 -0.000952539 -0.00449321)
(0.0401784 0.000110901 0.0023016)
(0.00591257 -0.000526161 -0.00869187)
)
;
    }
}


// ************************************************************************* //
