/*--------------------------------*- C++ -*----------------------------------*\
| =========                 |                                                 |
| \\      /  F ield         | OpenFOAM: The Open Source CFD Toolbox           |
|  \\    /   O peration     | Version:  4.x                                   |
|   \\  /    A nd           | Web:      www.OpenFOAM.org                      |
|    \\/     M anipulation  |                                                 |
\*---------------------------------------------------------------------------*/
FoamFile
{
    version     2.0;
    format      ascii;
    class       volScalarField;
    location    "20.5";
    object      magGField;
}
// * * * * * * * * * * * * * * * * * * * * * * * * * * * * * * * * * * * * * //

dimensions      [1 -2 -1 0 0 0 0];

internalField   nonuniform List<scalar> 
108
(
77.1434
125.059
78.6445
129.703
74.7882
133.904
61.5949
146.265
55.7755
70.2479
119.214
71.4404
123.665
67.4398
123.579
53.8947
117.164
32.5101
76.1864
122.977
76.6941
125.235
68.762
119.658
48.0192
97.845
25.3892
93.3279
137.759
97.1039
144.09
96.5359
154.534
89.2146
171.341
88.2271
20.4688
93.1907
13.3458
94.3143
9.87705
96.9114
16.7859
97.842
70.1011
24.6636
97.657
20.4957
102.272
17.7941
111.107
15.9058
128.995
45.0965
30.1146
97.1121
23.6527
98.0629
16.7532
99.1113
14.8329
93.1709
40.2887
67.894
119.8
69.2637
127.457
67.5466
144.777
64.8099
189.826
106.037
0.0236558
84.237
5.97781e-05
84.0684
2.68141e-05
83.8425
4.12585e-05
79.3522
15.8496
3.59606
86.3742
5.36461e-05
86.9918
2.46483e-05
87.9884
8.18044
90.1803
41.0898
6.95536
87.6662
4.5578e-05
88.8163
2.1903e-05
90.3947
5.1714
96.189
22.8351
50.307
105.019
48.436
107.749
44.2443
113.9
38.0684
132.313
18.6533
)
;

boundaryField
{
    inlet
    {
        type            calculated;
        value           nonuniform 0();
    }
    outlet
    {
        type            calculated;
        value           nonuniform List<scalar> 
12
(
115.764
67.3095
53.0341
178.415
150.647
96.8058
86.4322
226.194
34.5442
89.5031
49.5824
40.7036
)
;
    }
    wall
    {
        type            calculated;
        value           uniform 0;
    }
    procBoundary3to1
    {
        type            processor;
        value           nonuniform List<scalar> 
27
(
71.1277
119.162
66.4385
116.919
52.863
106.969
30.4619
81.8401
14.3308
18.4778
94.7144
7.72456
95.4378
0.0627792
94.5185
0.592629
87.1331
20.4851
6.06331e-05
83.14
5.37674e-05
82.0111
3.3898e-05
79.9803
4.98045e-05
70.6861
18.3839
)
;
    }
    procBoundary3to2
    {
        type            processor;
        value           nonuniform List<scalar> 
12
(
120.369
115.222
118.864
130.74
92.5238
95.2143
97.0135
114.803
84.7337
86.0839
87.1875
102.375
)
;
    }
    procBoundary3to7
    {
        type            processor;
        value           nonuniform List<scalar> 
36
(
3.174
82.4723
6.19313e-05
80.3725
4.57724e-05
78.195
1.31106e-05
74.5516
9.27312
13.4867
88.7849
11.3233
89.9125
9.98367
89.6751
11.2732
83.1759
20.858
21.8152
91.1336
20.6367
92.7827
20.5755
92.7416
26.9118
88.0924
61.3377
51.9467
107.05
52.2863
113.798
52.3711
125.469
50.2282
151.192
56.0835
)
;
    }
}


// ************************************************************************* //
