/*--------------------------------*- C++ -*----------------------------------*\
| =========                 |                                                 |
| \\      /  F ield         | OpenFOAM: The Open Source CFD Toolbox           |
|  \\    /   O peration     | Version:  4.x                                   |
|   \\  /    A nd           | Web:      www.OpenFOAM.org                      |
|    \\/     M anipulation  |                                                 |
\*---------------------------------------------------------------------------*/
FoamFile
{
    version     2.0;
    format      ascii;
    class       volScalarField;
    location    "20.5";
    object      QPartFluidCoeff;
}
// * * * * * * * * * * * * * * * * * * * * * * * * * * * * * * * * * * * * * //

dimensions      [1 -1 -3 -1 0 0 0];

internalField   nonuniform List<scalar> 
108
(
-2.87228e+07
-1.29036e+07
-2.27277e+07
-1.08836e+07
-1.68414e+07
-1.26985e+07
-1.86838e+07
-1.67471e+07
-1.10803e+07
-2.15468e+07
-2.99657e+07
-1.70888e+07
-1.88022e+07
-2.12274e+07
-1.70932e+07
-2.0573e+07
-1.90298e+07
-1.31651e+07
-2.22902e+07
-2.26752e+07
-2.38086e+07
-1.63895e+07
-1.95412e+07
-1.71718e+07
-2.16958e+07
-2.14471e+07
-1.20397e+07
-1.45134e+07
-1.31818e+07
-1.67845e+07
-2.21441e+07
-1.83115e+07
-1.82008e+07
-1.21187e+07
-1.71381e+07
-1.67918e+07
-2.85353e+07
-2.64834e+07
-3.39257e+07
-3.48799e+07
-2.79026e+07
-2.61752e+07
-2.26782e+07
-2.83265e+07
-2.68762e+07
-2.61205e+07
-2.70613e+07
-2.83355e+07
-3.03189e+07
-2.60598e+07
-2.73254e+07
-3.25455e+07
-3.12321e+07
-2.09463e+07
-4.26225e+07
-3.27541e+07
-2.99122e+07
-3.73126e+07
-2.7667e+07
-3.27246e+07
-2.60893e+07
-3.12086e+07
-2.49393e+07
-2.81871e+07
-2.38083e+07
-2.34645e+07
-2.78045e+07
-3.06316e+07
-2.55293e+07
-2.44333e+07
-2.90556e+07
-2.01124e+07
-2.68494e+07
-3.56798e+07
-2.97715e+07
-3.34526e+07
-2.13165e+07
-2.54643e+07
-2.96083e+07
-2.77854e+07
-2.25337e+07
-3.20196e+07
-2.04608e+07
-2.70438e+07
-1.66293e+07
-1.44829e+07
-3.15158e+07
-2.59526e+07
-3.69341e+07
-1.84312e+07
-2.01146e+07
-3.40818e+07
-3.04128e+07
-2.39308e+07
-2.41683e+07
-3.28552e+07
-2.6698e+07
-3.10013e+07
-1.55062e+07
-2.93256e+07
-1.61555e+07
-1.93581e+07
-2.32181e+07
-2.15085e+07
-2.85276e+07
-2.14526e+07
-3.18924e+07
-2.49323e+07
)
;

boundaryField
{
    inlet
    {
        type            calculated;
        value           nonuniform 0();
    }
    outlet
    {
        type            calculated;
        value           uniform 0;
    }
    wall
    {
        type            calculated;
        value           uniform 0;
    }
    procBoundary3to1
    {
        type            processor;
        value           nonuniform List<scalar> 
27
(
300.889
530.824
478.289
668.161
465.858
417.172
391.64
404.145
275.893
690.67
641.52
543.405
512.75
428.934
687.457
680.903
965.437
306.429
608.971
580.551
403.653
818.796
646.127
779.348
540.133
697.862
240.584
)
;
    }
    procBoundary3to2
    {
        type            processor;
        value           nonuniform List<scalar> 
12
(
229.781
341.792
492.734
299.198
845.725
488.099
582.214
362.683
691.877
434.756
771.803
581.974
)
;
    }
    procBoundary3to7
    {
        type            processor;
        value           nonuniform List<scalar> 
36
(
759.562
682.61
480.794
591.841
827.626
926.138
601.065
494.539
455.233
589.551
866.135
571.109
617.226
640.857
531.231
587.682
589.641
507.193
398.588
705.527
520.81
671.472
625.705
782.309
656.458
677.524
563.772
534.626
566.633
681.013
452.852
609.693
620.152
627.391
564.378
299.546
)
;
    }
}


// ************************************************************************* //
