/*--------------------------------*- C++ -*----------------------------------*\
| =========                 |                                                 |
| \\      /  F ield         | OpenFOAM: The Open Source CFD Toolbox           |
|  \\    /   O peration     | Version:  4.x                                   |
|   \\  /    A nd           | Web:      www.OpenFOAM.org                      |
|    \\/     M anipulation  |                                                 |
\*---------------------------------------------------------------------------*/
FoamFile
{
    version     2.0;
    format      ascii;
    class       volScalarField;
    location    "20.5";
    object      rho;
}
// * * * * * * * * * * * * * * * * * * * * * * * * * * * * * * * * * * * * * //

dimensions      [1 -3 0 0 0 0 0];

internalField   nonuniform List<scalar> 
108
(
6699.82
6699.67
6699.46
6699.17
6698.76
6698.24
6697.65
6697.14
6733.51
6699.99
6699.86
6699.62
6699.27
6698.78
6698.16
6697.42
6696.7
6781.42
6698.89
6698.77
6698.68
6698.58
6698.39
6698.03
6697.41
6696.73
6695.47
6699.91
6699.91
6699.85
6699.74
6699.54
6699.31
6698.86
6698.5
6902.5
6699.06
6698.46
6697.77
6697.21
6696.78
6696.75
6696.98
6697.33
6698.75
6699.33
6698.78
6698.11
6697.52
6697
6696.71
6696.6
6696.53
6696.71
6699.62
6699.15
6698.5
6697.83
6697.15
6696.73
6696.33
6696.32
6695.92
6699.91
6699.8
6699.61
6699.36
6698.98
6698.65
6698.12
6697.83
6688
6698.73
6698.25
6697.89
6697.67
6697.76
6697.97
6698.57
6699.04
6700.98
6699.19
6698.69
6698.22
6697.81
6697.73
6697.68
6698.14
6698.12
6700.15
6699.29
6698.79
6698.26
6697.77
6697.55
6697.35
6697.63
6697.5
6701.62
6699.84
6699.67
6699.43
6699.1
6698.72
6698.29
6697.91
6697.5
6692.18
)
;

boundaryField
{
    inlet
    {
        type            calculated;
        value           nonuniform 0();
    }
    outlet
    {
        type            calculated;
        value           uniform 6700;
    }
    wall
    {
        type            calculated;
        value           nonuniform List<scalar> 
63
(
6699.82
6699.99
6698.89
6699.91
6699.67
6699.86
6698.77
6699.91
6699.46
6699.62
6698.68
6699.85
6699.17
6699.27
6698.58
6699.74
6698.76
6698.78
6698.39
6699.54
6698.24
6698.16
6698.03
6699.31
6697.65
6697.42
6697.41
6698.86
6697.14
6696.7
6696.73
6698.5
6733.51
6781.42
6695.47
6902.5
6699.91
6699.91
6699.84
6699.91
6699.8
6699.67
6699.85
6699.61
6699.43
6699.74
6699.36
6699.1
6699.54
6698.98
6698.72
6699.31
6698.65
6698.29
6698.86
6698.12
6697.91
6698.5
6697.83
6697.5
6902.5
6688
6692.18
)
;
    }
    procBoundary3to1
    {
        type            processor;
        value           nonuniform List<scalar> 
27
(
6699.77
6699.63
6699.42
6699.09
6698.6
6697.93
6697.2
6696.88
6697.01
6699.1
6698.59
6697.97
6697.49
6697.21
6697.33
6697.93
6698.32
6699.67
6699
6698.74
6698.56
6698.34
6698.46
6698.72
6699.48
6699.78
6702.01
)
;
    }
    procBoundary3to2
    {
        type            processor;
        value           nonuniform List<scalar> 
12
(
6699.9
6700.03
6699.06
6699.88
6699.51
6699.7
6699.88
6699.95
6699.23
6699.57
6699.67
6699.92
)
;
    }
    procBoundary3to7
    {
        type            processor;
        value           nonuniform List<scalar> 
36
(
6699.34
6699.03
6698.77
6698.57
6698.62
6698.83
6699.32
6699.86
6705.13
6699.49
6699.21
6698.97
6698.74
6698.72
6698.75
6699.14
6699.35
6702
6699.59
6699.35
6699.1
6698.81
6698.7
6698.57
6698.81
6698.74
6700.5
6699.88
6699.8
6699.68
6699.52
6699.31
6699.04
6698.81
6698.42
6691.29
)
;
    }
}


// ************************************************************************* //
