/*--------------------------------*- C++ -*----------------------------------*\
| =========                 |                                                 |
| \\      /  F ield         | OpenFOAM: The Open Source CFD Toolbox           |
|  \\    /   O peration     | Version:  4.x                                   |
|   \\  /    A nd           | Web:      www.OpenFOAM.org                      |
|    \\/     M anipulation  |                                                 |
\*---------------------------------------------------------------------------*/
FoamFile
{
    version     2.0;
    format      ascii;
    class       volScalarField;
    location    "20.5";
    object      Sm;
}
// * * * * * * * * * * * * * * * * * * * * * * * * * * * * * * * * * * * * * //

dimensions      [1 -3 -1 0 0 0 0];

internalField   nonuniform List<scalar> 
108
(
6.97475e-65
3.25488e-65
5.73479e-65
2.55742e-65
4.10736e-65
3.02241e-65
4.72734e-65
4.26238e-65
4.18487e-65
5.19233e-65
7.43975e-65
4.10737e-65
4.64985e-65
5.42483e-65
3.87489e-65
5.50233e-65
5.11486e-65
5.26985e-65
5.50236e-65
5.50237e-65
6.19983e-65
3.71992e-65
4.88239e-65
3.71992e-65
5.73487e-65
5.26989e-65
4.02991e-65
4.64994e-65
3.56495e-65
4.10745e-65
5.88992e-65
4.80494e-65
4.64996e-65
3.17748e-65
5.34746e-65
4.41747e-65
7.51714e-65
6.27716e-65
9.06705e-65
8.52459e-65
7.59463e-65
6.27723e-65
6.04472e-65
6.58722e-65
8.91212e-65
6.66471e-65
6.19971e-65
7.51716e-65
7.28467e-65
6.8197e-65
6.27722e-65
8.60215e-65
7.05223e-65
6.97472e-65
1.03847e-64
7.51723e-65
7.43972e-65
8.44719e-65
6.81978e-65
7.36225e-65
6.58728e-65
7.20728e-65
7.90475e-65
7.74979e-65
5.65737e-65
6.35485e-65
6.50985e-65
8.05979e-65
5.65738e-65
6.74235e-65
6.81988e-65
5.6574e-65
7.67205e-65
9.06696e-65
8.75697e-65
8.52451e-65
6.12215e-65
6.27716e-65
8.52455e-65
7.12964e-65
7.43963e-65
9.06701e-65
5.03721e-65
7.74955e-65
4.33975e-65
4.64974e-65
7.9046e-65
7.28464e-65
8.83459e-65
6.12221e-65
5.11478e-65
8.13714e-65
8.2146e-65
5.81221e-65
6.81967e-65
7.98215e-65
6.66474e-65
7.20722e-65
5.4248e-65
8.52471e-65
4.02987e-65
5.42482e-65
6.1223e-65
5.57981e-65
7.12979e-65
6.19982e-65
7.90479e-65
8.52474e-65
)
;

boundaryField
{
    inlet
    {
        type            calculated;
        value           nonuniform 0();
    }
    outlet
    {
        type            calculated;
        value           uniform 0;
    }
    wall
    {
        type            calculated;
        value           uniform 0;
    }
    procBoundary3to1
    {
        type            processor;
        value           nonuniform List<scalar> 
27
(
3.48739e-65
5.50232e-65
5.81231e-65
7.12975e-65
5.50231e-65
4.33987e-65
4.95985e-65
4.57237e-65
4.49486e-65
8.13712e-65
6.58721e-65
6.19972e-65
5.26976e-65
5.26977e-65
7.36218e-65
8.05967e-65
1.03071e-64
4.88229e-65
7.90457e-65
6.35464e-65
5.11471e-65
9.06698e-65
8.29203e-65
8.75703e-65
6.81966e-65
7.90461e-65
3.48733e-65
)
;
    }
    procBoundary3to2
    {
        type            processor;
        value           nonuniform List<scalar> 
12
(
2.63491e-65
3.9524e-65
5.26988e-65
3.09997e-65
9.2221e-65
5.19231e-65
5.96731e-65
4.26241e-65
8.13708e-65
4.88226e-65
8.36965e-65
6.66481e-65
)
;
    }
    procBoundary3to7
    {
        type            processor;
        value           nonuniform List<scalar> 
36
(
9.91938e-65
7.827e-65
6.43208e-65
6.74207e-65
1.03069e-64
1.03844e-64
7.98205e-65
5.65719e-65
8.36955e-65
7.67204e-65
9.45442e-65
7.28454e-65
6.89707e-65
8.29201e-65
5.65718e-65
7.5171e-65
6.35469e-65
8.0596e-65
4.80476e-65
7.43962e-65
6.12219e-65
7.12963e-65
7.43962e-65
8.05962e-65
7.51717e-65
7.2072e-65
8.60214e-65
6.50976e-65
6.58726e-65
8.67965e-65
5.50228e-65
7.28472e-65
6.74227e-65
7.90474e-65
5.88984e-65
4.33988e-65
)
;
    }
}


// ************************************************************************* //
