/*--------------------------------*- C++ -*----------------------------------*\
| =========                 |                                                 |
| \\      /  F ield         | OpenFOAM: The Open Source CFD Toolbox           |
|  \\    /   O peration     | Version:  4.x                                   |
|   \\  /    A nd           | Web:      www.OpenFOAM.org                      |
|    \\/     M anipulation  |                                                 |
\*---------------------------------------------------------------------------*/
FoamFile
{
    version     2.0;
    format      ascii;
    class       volScalarField;
    location    "18.5";
    object      p;
}
// * * * * * * * * * * * * * * * * * * * * * * * * * * * * * * * * * * * * * //

dimensions      [1 -1 -2 0 0 0 0];

internalField   nonuniform List<scalar> 
132
(
23.6494
73.0308
5.74233
65.6266
-11.9417
58.9145
-29.5164
52.4252
-45.5468
22.2064
72.9634
3.38436
66.1433
-15.3653
59.9511
-34.1806
55.0046
-51.6263
22.3296
72.7919
3.6677
65.6839
-15.1712
58.98
-34.3201
53.3337
-51.268
22.0129
72.6218
2.93762
65.9085
-17.1073
60.215
-39.7812
57.5519
-67.601
-1870.9
-1812.16
-1888.74
-1819.44
-1906.78
-1826.73
-1924.69
-1853.48
-1804.95
-1870.73
-1811.87
-1887.81
-1819.31
-1904.66
-1827.21
-1920.67
-1854.06
-1804.65
-1871.71
-1812.17
-1888.91
-1819.16
-1905.7
-1826.47
-1920.29
-1854.38
-1804.88
-1872.33
-1811.92
-1890.3
-1818.83
-1907.81
-1825.68
-1922.65
-3766.6
-3697.63
-3783.32
-3705.56
-3797.99
-3732.01
-3682.66
-3750.08
-3689.79
-3768.25
-3696.57
-3786.51
-3702.55
-3803.34
-3732.11
-3682.92
-3750.23
-3690.4
-3768.68
-3697.59
-3787.4
-3704.04
-3804.78
-3732.52
-3683.04
-3750.98
-3690.03
-3770.43
-3696.26
-3792.21
-3699.93
-3821.99
-5662.26
-5582.64
-5678.03
-5609.69
-5560.58
-5627.45
-5567.62
-5645.33
-5574.56
-5662.42
-5581.66
-5677.84
-5609.73
-5560.76
-5627.35
-5568.02
-5645.13
-5575.19
-5662.51
-5582.1
-5678.69
-5609.83
-5560.74
-5627.78
-5567.81
-5646.11
-5574.74
-5664.8
-5580.83
-5683.57
)
;

boundaryField
{
    inlet
    {
        type            calculated;
        value           nonuniform 0();
    }
    outlet
    {
        type            calculated;
        value           nonuniform List<scalar> 
16
(
0
0
0
0
-1877.91
-1877.91
-1877.91
-1877.91
-3755.83
-3755.83
-3755.83
-3755.83
-5633.74
-5633.74
-5633.74
-5633.74
)
;
    }
    wall
    {
        type            calculated;
        value           nonuniform List<scalar> 
66
(
-6548.61
-6548.66
-6548.77
-6499.48
-6499.68
-6499.67
-6566.33
-6566.26
-6566.7
-6506.48
-6506.9
-6506.71
-6584.16
-6583.99
-6584.99
-6513.37
-6514.03
-6513.6
-6601.08
-6601.22
-6601.33
-6603.64
-6521.44
-6520.48
-6520.9
-6519.65
-6616.97
-6616.76
-6617.27
-6621.59
22.0129
-1854.38
-3732.52
-5609.83
72.6218
-1804.88
-3683.04
-5560.74
2.93762
-1872.33
-3750.98
-5627.78
65.9085
-1811.92
-3690.03
-5567.81
-17.1073
-1890.3
-3770.43
-5646.11
60.215
-1818.83
-3696.26
-5574.74
-39.7812
-1907.81
-3792.21
-5664.8
57.5519
-1825.68
-3699.93
-5580.83
-67.601
-1922.65
-3821.99
-5683.58
)
;
    }
    procBoundary7to0
    {
        type            processor;
        value           uniform 80.5451;
    }
    procBoundary7to1
    {
        type            processor;
        value           uniform 22.6389;
    }
    procBoundary7to3
    {
        type            processor;
        value           nonuniform List<scalar> 
36
(
1900.49
1950.54
1882.32
1943.54
1864.22
1937.3
1846.43
1931.1
1829.73
1900.6
1950.63
1882.4
1943.88
1864.39
1937.27
1846.05
1930.93
1828.06
1900.18
1950.86
1881.67
1943.65
1863.35
1937.14
1844.44
1931.21
1825.38
1900.03
1950.54
1881.53
1943.83
1862.29
1937.79
1841.35
1933.73
1817.4
)
;
    }
    procBoundary7to5
    {
        type            processor;
        value           nonuniform List<scalar> 
44
(
73.1179
4.32342
66.2497
-14.1007
59.8774
-32.1151
54.0409
-47.902
-1853.49
-1804.86
-1871.42
-1811.84
-1889.12
-1818.59
-1906.79
-1826.93
-1924.09
-1853.49
-1804.86
-1804.86
-3749.17
-3690.33
-3769.75
-3696.51
-3788.73
-3702.08
-3805.29
-3731.5
-3682.65
-3749.17
-3690.33
-3690.33
-5644.99
-5575.52
-5666.33
-5579.6
-5684.48
-5609.63
-5560.74
-5627.3
-5568.12
-5644.99
-5575.52
-5575.52
)
;
    }
    procBoundary7to6
    {
        type            processor;
        value           nonuniform List<scalar> 
12
(
80.2677
80.1763
79.8763
-1797.52
-1797.17
-1797.55
-3675.27
-3675.31
-3675.69
-5553.29
-5553.35
-5553.47
)
;
    }
}


// ************************************************************************* //
