/*--------------------------------*- C++ -*----------------------------------*\
| =========                 |                                                 |
| \\      /  F ield         | OpenFOAM: The Open Source CFD Toolbox           |
|  \\    /   O peration     | Version:  4.x                                   |
|   \\  /    A nd           | Web:      www.OpenFOAM.org                      |
|    \\/     M anipulation  |                                                 |
\*---------------------------------------------------------------------------*/
FoamFile
{
    version     2.0;
    format      ascii;
    class       volVectorField;
    location    "18.5";
    object      UsNext;
}
// * * * * * * * * * * * * * * * * * * * * * * * * * * * * * * * * * * * * * //

dimensions      [0 1 -1 0 0 0 0];

internalField   nonuniform List<vector> 
132
(
(-1.59294e-07 9.82984e-09 -1.88258e-08)
(-1.76478e-07 1.33398e-08 -1.13099e-08)
(-1.87367e-07 1.46418e-08 -5.26142e-09)
(-1.90332e-07 6.89885e-09 -4.98179e-10)
(-1.52503e-07 1.27297e-08 5.05916e-09)
(-8.94942e-08 1.62787e-08 1.71032e-08)
(-6.50805e-08 -9.06727e-10 1.30552e-08)
(-4.18964e-08 5.95737e-10 9.05669e-09)
(-1.64265e-08 4.20052e-09 -1.77265e-09)
(-1.48151e-07 1.40699e-08 -1.88148e-08)
(-1.67432e-07 1.29916e-08 -1.36059e-08)
(-1.784e-07 1.47113e-08 -8.06884e-09)
(-1.91947e-07 1.08827e-09 8.53434e-09)
(-1.36444e-07 4.13106e-09 1.94922e-09)
(-1.06e-07 -1.23898e-09 1.37875e-08)
(-7.68266e-08 -3.45012e-09 1.2554e-08)
(-5.21202e-08 -1.06776e-09 7.9848e-09)
(-2.381e-08 3.44842e-09 -3.55108e-09)
(-1.19103e-07 -3.59233e-09 -9.479e-09)
(-1.48307e-07 1.39439e-08 -1.03051e-08)
(-1.5496e-07 7.29253e-09 -9.41771e-09)
(-1.5493e-07 -7.40385e-10 -3.91478e-09)
(-1.28038e-07 -6.63651e-09 -3.4025e-09)
(-9.87422e-08 -1.30673e-08 7.55677e-10)
(-7.51462e-08 -4.81624e-10 5.78179e-10)
(-5.05175e-08 -3.16176e-09 1.86533e-09)
(-2.87435e-08 -4.46782e-10 -8.62126e-09)
(-7.56953e-08 -2.08335e-09 -7.92796e-09)
(-1.00985e-07 1.21938e-08 -2.00957e-08)
(-9.54798e-08 -4.70446e-10 -9.4454e-09)
(-1.07657e-07 3.40833e-09 -6.39868e-09)
(-9.39798e-08 -9.71217e-09 -7.69744e-11)
(-9.97934e-08 -1.10319e-08 -5.46329e-09)
(-5.1351e-08 -8.4062e-10 2.59866e-09)
(-2.5217e-08 -3.10512e-09 -5.76874e-09)
(-1.25154e-08 9.09974e-10 -6.42539e-09)
(-1.65847e-07 8.30356e-09 -3.01275e-09)
(-1.69676e-07 -4.43284e-09 -6.39889e-09)
(-1.24797e-07 -1.24116e-09 -4.47893e-09)
(-9.33529e-08 4.75595e-09 5.57042e-09)
(-6.31426e-08 3.05839e-09 6.16345e-09)
(-3.76836e-08 7.82738e-10 4.23098e-09)
(-1.77574e-08 1.42357e-09 -3.08849e-09)
(-1.34627e-07 -1.35318e-09 -1.36444e-08)
(-1.48558e-07 7.27828e-09 -7.2524e-09)
(-1.59045e-07 1.35204e-08 -4.54417e-09)
(-1.63128e-07 3.06258e-09 -7.32094e-09)
(-1.32406e-07 2.96093e-09 -1.0206e-08)
(-8.15889e-08 5.1079e-09 5.93076e-09)
(-5.806e-08 7.66237e-10 1.84213e-09)
(-4.17226e-08 3.07545e-09 2.18e-09)
(-1.7537e-08 -1.14648e-09 -1.51777e-09)
(-1.18251e-07 -4.03595e-09 -6.35226e-09)
(-1.22249e-07 4.6031e-09 -7.61618e-09)
(-1.36206e-07 -8.42462e-10 -1.18707e-08)
(-1.52471e-07 9.36315e-09 -7.84089e-09)
(-1.22357e-07 -8.60068e-09 -1.17944e-08)
(-8.54836e-08 -1.59826e-08 -5.8318e-09)
(-6.19164e-08 1.92125e-09 -4.54985e-10)
(-3.3871e-08 -6.52419e-10 -7.66126e-10)
(-2.73377e-08 -8.33911e-09 -3.76527e-09)
(-7.4736e-08 3.61246e-09 9.35378e-10)
(-8.42511e-08 5.033e-09 -1.36685e-08)
(-8.97408e-08 -1.19357e-08 -1.68634e-08)
(-1.1625e-07 8.47332e-09 -4.92662e-10)
(-8.44474e-08 -2.34241e-09 -3.79411e-09)
(-5.70371e-08 -8.83653e-09 -1.54542e-08)
(-2.59814e-08 5.66265e-09 -6.6804e-09)
(-2.0429e-08 -9.93465e-10 -2.37359e-09)
(-1.31016e-08 -5.73829e-09 -3.44567e-09)
(-1.07245e-07 -5.97408e-09 -1.32077e-08)
(-7.59179e-08 -6.41929e-10 -4.92539e-10)
(-5.059e-08 2.72458e-09 1.7422e-09)
(-3.31516e-08 3.13665e-10 -2.72382e-09)
(-1.32653e-08 -6.31846e-10 -3.57587e-09)
(-1.08234e-07 -9.75578e-09 -1.05634e-08)
(-1.33367e-07 -8.43751e-10 7.46067e-10)
(-1.27121e-07 5.16371e-09 2.47661e-09)
(-1.1784e-07 -8.09994e-11 -1.0508e-08)
(-1.06065e-07 -4.08419e-09 -1.65808e-08)
(-7.53939e-08 -2.3553e-09 2.54332e-09)
(-5.24054e-08 3.80578e-09 4.74537e-09)
(-3.53804e-08 4.22125e-09 2.46021e-09)
(-1.49686e-08 -2.9577e-09 -1.06351e-09)
(-8.37344e-08 -4.89529e-09 -1.4733e-09)
(-8.39478e-08 2.06588e-09 -7.8738e-09)
(-1.03089e-07 -5.73505e-09 4.87939e-09)
(-1.15452e-07 -1.32961e-09 -7.5913e-09)
(-9.3909e-08 -6.92646e-09 -1.4136e-08)
(-7.65794e-08 -5.27263e-09 -7.75665e-09)
(-4.54267e-08 1.45247e-09 -6.3075e-10)
(-2.8217e-08 -3.54382e-09 -2.39566e-09)
(-1.29016e-08 -5.63716e-09 -2.64836e-09)
(-4.57533e-08 -1.32539e-09 6.11913e-09)
(-5.90199e-08 -2.56332e-09 -6.76413e-09)
(-7.94554e-08 7.2334e-10 1.66861e-10)
(-1.02903e-07 -4.226e-09 -3.80686e-09)
(-7.04188e-08 -3.55439e-09 -6.78859e-09)
(-4.99161e-08 8.03929e-09 -1.93498e-08)
(-3.12432e-08 -9.75725e-10 -4.31162e-09)
(-1.43325e-08 -2.0501e-09 -1.83645e-09)
(-7.06386e-09 -1.7751e-08 -1.12722e-09)
(-4.48828e-08 -1.17674e-10 -7.29401e-09)
(-3.51113e-08 2.27736e-09 -3.4208e-09)
(-7.62688e-09 5.14077e-10 -5.64328e-09)
(-6.21539e-08 -1.25131e-08 -4.33029e-09)
(-7.84362e-08 -8.82501e-09 -7.45873e-10)
(-8.04151e-08 -3.94003e-09 -7.16215e-10)
(-7.68586e-08 -2.19642e-09 -8.47715e-09)
(-6.95402e-08 -4.70599e-09 -7.74376e-09)
(-7.68487e-08 1.86411e-09 3.97706e-09)
(-4.99506e-08 6.85278e-09 -1.56448e-09)
(-2.79869e-08 2.69997e-09 1.20443e-09)
(-6.6721e-09 2.97746e-09 -2.22831e-09)
(-3.40943e-08 -1.29385e-08 -2.59054e-10)
(-4.52228e-08 -6.21439e-09 -3.51323e-09)
(-6.98687e-08 -6.90098e-09 2.85921e-09)
(-7.53536e-08 -1.72599e-09 -2.89202e-09)
(-5.97483e-08 -3.41432e-09 -8.63465e-09)
(-5.0504e-08 4.54177e-09 -7.31596e-09)
(-3.65636e-08 2.53245e-09 -1.21386e-09)
(-2.2772e-08 -2.39544e-10 -1.42114e-09)
(-8.96295e-09 -1.03719e-08 -2.2415e-09)
(-1.99214e-08 -1.81993e-09 2.09622e-09)
(-3.43167e-08 2.36593e-09 -3.70491e-09)
(-5.16205e-08 3.94118e-09 1.22526e-09)
(-6.95815e-08 1.45862e-09 -1.49459e-09)
(-4.7423e-08 -2.03099e-09 -3.32776e-09)
(-3.44742e-08 3.79153e-09 -1.70249e-08)
(-2.14055e-08 9.21399e-10 -3.70109e-09)
(-1.3608e-08 -1.42682e-08 -1.39484e-09)
(-5.53152e-09 -9.6262e-05 4.11009e-09)
)
;

boundaryField
{
    inlet
    {
        type            calculated;
        value           nonuniform 0();
    }
    outlet
    {
        type            calculated;
        value           nonuniform List<vector> 
16
(
(-1.64265e-08 4.20052e-09 -1.77265e-09)
(-2.381e-08 3.44842e-09 -3.55108e-09)
(-2.87435e-08 -4.46782e-10 -8.62126e-09)
(-1.25154e-08 9.09974e-10 -6.42539e-09)
(-1.77574e-08 1.42357e-09 -3.08849e-09)
(-1.7537e-08 -1.14648e-09 -1.51777e-09)
(-2.73377e-08 -8.33911e-09 -3.76527e-09)
(-1.31016e-08 -5.73829e-09 -3.44567e-09)
(-1.32653e-08 -6.31846e-10 -3.57587e-09)
(-1.49686e-08 -2.9577e-09 -1.06351e-09)
(-1.29016e-08 -5.63716e-09 -2.64836e-09)
(-7.06386e-09 -1.7751e-08 -1.12722e-09)
(-7.62688e-09 5.14077e-10 -5.64328e-09)
(-6.6721e-09 2.97746e-09 -2.22831e-09)
(-8.96295e-09 -1.03719e-08 -2.2415e-09)
(-5.53152e-09 -9.6262e-05 4.11009e-09)
)
;
    }
    wall
    {
        type            calculated;
        value           nonuniform List<vector> 
66
(
(-6.21539e-08 -1.25131e-08 -4.33029e-09)
(-3.40943e-08 -1.29385e-08 -2.59054e-10)
(-1.99214e-08 -1.81993e-09 2.09622e-09)
(-7.84362e-08 -8.82501e-09 -7.45873e-10)
(-4.52228e-08 -6.21439e-09 -3.51323e-09)
(-3.43167e-08 2.36593e-09 -3.70491e-09)
(-8.04151e-08 -3.94003e-09 -7.16215e-10)
(-6.98687e-08 -6.90098e-09 2.85921e-09)
(-5.16205e-08 3.94118e-09 1.22526e-09)
(-7.68586e-08 -2.19642e-09 -8.47715e-09)
(-7.53536e-08 -1.72599e-09 -2.89202e-09)
(-6.95815e-08 1.45862e-09 -1.49459e-09)
(-6.95402e-08 -4.70599e-09 -7.74376e-09)
(-5.97483e-08 -3.41432e-09 -8.63465e-09)
(-4.7423e-08 -2.03099e-09 -3.32776e-09)
(-7.68487e-08 1.86411e-09 3.97706e-09)
(-5.0504e-08 4.54177e-09 -7.31596e-09)
(-3.44742e-08 3.79153e-09 -1.70249e-08)
(-4.48828e-08 -1.17674e-10 -7.29401e-09)
(-4.99506e-08 6.85278e-09 -1.56448e-09)
(-3.65636e-08 2.53245e-09 -1.21386e-09)
(-2.14055e-08 9.21399e-10 -3.70109e-09)
(-3.51113e-08 2.27736e-09 -3.4208e-09)
(-2.79869e-08 2.69997e-09 1.20443e-09)
(-2.2772e-08 -2.39544e-10 -1.42114e-09)
(-1.3608e-08 -1.42682e-08 -1.39484e-09)
(-7.62688e-09 5.14077e-10 -5.64328e-09)
(-6.6721e-09 2.97746e-09 -2.22831e-09)
(-8.96295e-09 -1.03719e-08 -2.2415e-09)
(-5.53152e-09 -9.6262e-05 4.11009e-09)
(-7.56953e-08 -2.08335e-09 -7.92796e-09)
(-7.4736e-08 3.61246e-09 9.35378e-10)
(-4.57533e-08 -1.32539e-09 6.11913e-09)
(-1.99214e-08 -1.81993e-09 2.09622e-09)
(-1.00985e-07 1.21938e-08 -2.00957e-08)
(-8.42511e-08 5.033e-09 -1.36685e-08)
(-5.90199e-08 -2.56332e-09 -6.76413e-09)
(-3.43167e-08 2.36593e-09 -3.70491e-09)
(-9.54798e-08 -4.70446e-10 -9.4454e-09)
(-8.97408e-08 -1.19357e-08 -1.68634e-08)
(-7.94554e-08 7.2334e-10 1.66861e-10)
(-5.16205e-08 3.94118e-09 1.22526e-09)
(-1.07657e-07 3.40833e-09 -6.39868e-09)
(-1.1625e-07 8.47332e-09 -4.92662e-10)
(-1.02903e-07 -4.226e-09 -3.80686e-09)
(-6.95815e-08 1.45862e-09 -1.49459e-09)
(-9.39798e-08 -9.71217e-09 -7.69744e-11)
(-8.44474e-08 -2.34241e-09 -3.79411e-09)
(-7.04188e-08 -3.55439e-09 -6.78859e-09)
(-4.7423e-08 -2.03099e-09 -3.32776e-09)
(-9.97934e-08 -1.10319e-08 -5.46329e-09)
(-5.70371e-08 -8.83653e-09 -1.54542e-08)
(-4.99161e-08 8.03929e-09 -1.93498e-08)
(-3.44742e-08 3.79153e-09 -1.70249e-08)
(-5.1351e-08 -8.4062e-10 2.59866e-09)
(-2.59814e-08 5.66265e-09 -6.6804e-09)
(-3.12432e-08 -9.75725e-10 -4.31162e-09)
(-2.14055e-08 9.21399e-10 -3.70109e-09)
(-2.5217e-08 -3.10512e-09 -5.76874e-09)
(-2.0429e-08 -9.93465e-10 -2.37359e-09)
(-1.43325e-08 -2.0501e-09 -1.83645e-09)
(-1.3608e-08 -1.42682e-08 -1.39484e-09)
(-1.25154e-08 9.09974e-10 -6.42539e-09)
(-1.31016e-08 -5.73829e-09 -3.44567e-09)
(-7.06386e-09 -1.7751e-08 -1.12722e-09)
(-5.53152e-09 -9.6262e-05 4.11009e-09)
)
;
    }
    procBoundary7to0
    {
        type            processor;
        value           uniform (-1.45439e-07 -2.71665e-09 -2.44893e-08);
    }
    procBoundary7to1
    {
        type            processor;
        value           uniform (-1.51294e-07 5.03071e-09 -1.48196e-08);
    }
    procBoundary7to3
    {
        type            processor;
        value           nonuniform List<vector> 
36
(
(-1.78047e-07 1.85547e-08 -2.17761e-08)
(-1.9108e-07 2.30003e-08 -1.24383e-08)
(-2.04569e-07 2.49182e-08 -4.24205e-09)
(-2.0916e-07 1.20562e-08 1.27661e-08)
(-1.63975e-07 1.15195e-09 2.14166e-08)
(-1.39017e-07 -5.47557e-09 3.16371e-08)
(-6.6723e-08 -6.19299e-09 3.04483e-08)
(-3.52911e-08 -1.12724e-09 1.1397e-08)
(-2.30148e-08 1.02027e-08 2.08689e-09)
(-1.64847e-07 1.49101e-08 -2.65423e-08)
(-1.82687e-07 1.93502e-08 -1.47445e-08)
(-1.88375e-07 1.76481e-08 -1.02205e-08)
(-1.86691e-07 4.6561e-09 2.19096e-08)
(-1.4733e-07 5.24891e-10 1.56374e-08)
(-1.09206e-07 -2.02576e-08 2.95331e-08)
(-7.74089e-08 -1.01319e-08 2.58244e-08)
(-5.36531e-08 -4.58028e-09 1.58861e-08)
(-3.39042e-08 1.07961e-08 -9.30838e-09)
(-1.47247e-07 1.40519e-08 -1.95293e-08)
(-1.54063e-07 1.88839e-08 -1.08719e-08)
(-1.70209e-07 1.25062e-08 -9.56678e-09)
(-1.74788e-07 -9.73639e-09 1.20811e-08)
(-1.31044e-07 -1.41192e-08 2.14302e-09)
(-9.37151e-08 -1.85486e-08 4.12919e-09)
(-7.34936e-08 -1.49175e-08 1.94845e-08)
(-3.74199e-08 -1.87908e-09 2.48436e-10)
(-1.38564e-08 -3.48178e-09 -1.99711e-08)
(-9.0548e-08 1.15385e-08 -2.21114e-08)
(-9.80028e-08 1.33787e-08 -1.70499e-08)
(-1.08754e-07 1.10461e-08 -9.237e-09)
(-1.02542e-07 -9.62552e-09 -3.71851e-09)
(-9.61069e-08 -2.18971e-08 -4.48962e-09)
(-7.39482e-08 -5.42742e-09 -9.72132e-10)
(-4.21375e-08 -4.32715e-09 6.27096e-09)
(-1.94472e-08 -8.09502e-09 -1.03985e-08)
(-1.08825e-08 -1.21058e-08 -4.13549e-08)
)
;
    }
    procBoundary7to5
    {
        type            processor;
        value           nonuniform List<vector> 
44
(
(-1.69389e-07 9.25538e-09 -7.76172e-09)
(-1.68201e-07 1.77133e-08 5.94432e-10)
(-1.62397e-07 1.63031e-08 3.13886e-09)
(-1.38632e-07 1.55789e-08 7.64695e-10)
(-1.04554e-07 1.45739e-08 5.89788e-10)
(-6.73424e-08 2.10659e-09 5.22272e-09)
(-3.90064e-08 5.5578e-09 5.01232e-09)
(-1.93505e-08 4.74828e-09 -1.1543e-09)
(-1.43945e-07 -9.57164e-10 -1.40174e-08)
(-1.58662e-07 7.53561e-09 -2.7608e-09)
(-1.45595e-07 1.16902e-08 6.654e-10)
(-1.43973e-07 1.31809e-08 -2.8508e-09)
(-1.15845e-07 8.74302e-09 6.75723e-10)
(-8.75519e-08 7.19766e-09 -4.5321e-09)
(-6.08657e-08 4.33984e-09 2.93375e-10)
(-3.7011e-08 3.24661e-10 3.28311e-10)
(-1.37706e-08 3.18866e-09 -1.68211e-09)
(-1.43945e-07 -9.57164e-10 -1.40174e-08)
(-1.58662e-07 7.53561e-09 -2.7608e-09)
(-1.58662e-07 7.53561e-09 -2.7608e-09)
(-1.39193e-07 1.80368e-09 -3.7266e-09)
(-1.29987e-07 5.73536e-10 -7.49425e-09)
(-9.55878e-08 2.31316e-09 -2.63429e-09)
(-7.08579e-08 -2.19263e-10 -5.84666e-09)
(-4.75746e-08 6.58357e-10 -1.65099e-09)
(-2.84072e-08 1.78707e-09 -4.53156e-09)
(-1.7304e-08 3.55209e-09 -5.72939e-09)
(-1.17048e-07 -9.21953e-09 -1.75805e-08)
(-1.34371e-07 1.67088e-10 -8.52749e-09)
(-1.39193e-07 1.80368e-09 -3.7266e-09)
(-1.29987e-07 5.73536e-10 -7.49425e-09)
(-1.29987e-07 5.73536e-10 -7.49425e-09)
(-7.25054e-08 -4.62322e-09 -6.33728e-09)
(-5.92271e-08 -2.49738e-09 -3.81816e-09)
(-3.37355e-08 -1.70841e-09 -3.80443e-09)
(-2.04122e-08 5.03999e-10 -2.21938e-09)
(-9.61728e-09 1.55747e-09 -4.23483e-09)
(-7.70919e-08 -1.49641e-08 -2.21783e-09)
(-7.28727e-08 -6.17239e-09 -1.29863e-09)
(-5.7429e-08 7.75822e-08 -4.73336e-10)
(-7.85367e-08 4.25466e-09 -2.87075e-09)
(-7.25054e-08 -4.62322e-09 -6.33728e-09)
(-5.92271e-08 -2.49738e-09 -3.81816e-09)
(-5.92271e-08 -2.49738e-09 -3.81816e-09)
)
;
    }
    procBoundary7to6
    {
        type            processor;
        value           nonuniform List<vector> 
12
(
(-1.31729e-07 -5.22028e-09 -1.81111e-08)
(-1.16468e-07 -1.21635e-09 -1.99779e-08)
(-3.96881e-08 -1.52568e-09 -1.68441e-08)
(-1.23794e-07 -3.41922e-09 -1.14738e-08)
(-1.01012e-07 -8.79465e-10 -8.84847e-09)
(-5.19894e-08 2.82368e-09 -1.0169e-08)
(-9.6681e-08 -5.47253e-09 -8.70229e-09)
(-8.78493e-08 -4.61705e-09 1.53624e-09)
(-3.47351e-08 -9.25257e-09 6.30541e-09)
(-6.54192e-08 -1.02595e-08 -1.09385e-08)
(-4.28847e-08 -1.42931e-08 4.78975e-09)
(-1.91767e-08 -6.44636e-09 5.53031e-09)
)
;
    }
}


// ************************************************************************* //
