/*--------------------------------*- C++ -*----------------------------------*\
| =========                 |                                                 |
| \\      /  F ield         | OpenFOAM: The Open Source CFD Toolbox           |
|  \\    /   O peration     | Version:  4.x                                   |
|   \\  /    A nd           | Web:      www.OpenFOAM.org                      |
|    \\/     M anipulation  |                                                 |
\*---------------------------------------------------------------------------*/
FoamFile
{
    version     2.0;
    format      ascii;
    class       volScalarField;
    location    "30";
    object      pSmooth;
}
// * * * * * * * * * * * * * * * * * * * * * * * * * * * * * * * * * * * * * //

dimensions      [1 -1 -2 0 0 0 0];

internalField   nonuniform List<scalar> 
87
(
19.5875
74.771
0.1
69.0836
0.1
64.9943
0.1
64.5344
0.1
19.1373
74.6257
0.1
68.8156
0.1
64.6609
0.1
63.699
0.1
19.4285
74.8283
0.124655
68.7626
0.1
63.801
0.1
60.8055
0.1
19.6538
74.93
0.503063
68.9079
0.1
63.8811
0.1
60.804
0.1
19.2512
74.9145
0.1
68.869
0.1
63.7794
0.1
60.7064
0.1
19.5971
75.2733
0.687388
68.8365
0.1
62.9642
0.1
57.0223
0.1
19.7268
74.8707
0.53604
68.7649
0.1
63.6849
0.1
60.75
0.1
19.4305
74.7687
0.137478
68.5337
0.1
63.1865
0.1
59.7292
0.1
20.3685
74.8043
1.89242
68.4389
0.1
62.7147
0.1
58.1147
0.1
20.9282
75.2685
2.49342
20.8746
75.2274
22.9186
)
;

boundaryField
{
    inlet
    {
        type            zeroGradient;
    }
    outlet
    {
        type            fixedValue;
        value           uniform 0;
    }
    wall
    {
        type            zeroGradient;
    }
    procBoundary1to0
    {
        type            processor;
        value           nonuniform List<scalar> 
12
(
81.1329
81.1128
81.4223
81.4648
81.5426
82.0559
81.4604
81.6492
81.7972
81.8765
82.0643
82.0787
)
;
    }
    procBoundary1to3
    {
        type            processor;
        value           nonuniform List<scalar> 
27
(
19.0579
74.622
0.1
68.6834
0.1
64.2647
0.1
61.8367
0.1
18.8684
75.1317
0.1
68.8704
0.1
63.6445
0.1
59.7114
0.1
20.7623
74.8402
2.11568
68.4978
0.1
63.0733
0.1
57.2711
0.1
)
;
    }
    procBoundary1to5
    {
        type            processor;
        value           nonuniform List<scalar> 
32
(
69.0387
0.1
63.0673
0.1
56.6979
0.1
2.12873
68.7533
0.1
62.7957
0.1
57.2875
0.1
75.0726
5.2587
68.4563
0.1
61.8187
0.1
54.013
0.1
20.1611
74.9359
69.0387
2.12873
1.13997
20.337
2.12873
75.0726
75.0226
75.0726
21.646
)
;
    }
    procBoundary1to7
    {
        type            processor;
        value           uniform 22.9013;
    }
}


// ************************************************************************* //
