/*--------------------------------*- C++ -*----------------------------------*\
| =========                 |                                                 |
| \\      /  F ield         | OpenFOAM: The Open Source CFD Toolbox           |
|  \\    /   O peration     | Version:  4.x                                   |
|   \\  /    A nd           | Web:      www.OpenFOAM.org                      |
|    \\/     M anipulation  |                                                 |
\*---------------------------------------------------------------------------*/
FoamFile
{
    version     2.0;
    format      ascii;
    class       volVectorField;
    location    "30";
    object      UsPrev;
}
// * * * * * * * * * * * * * * * * * * * * * * * * * * * * * * * * * * * * * //

dimensions      [0 1 -1 0 0 0 0];

internalField   nonuniform List<vector> 
87
(
(3.56056e-09 7.70476e-09 2.6516e-08)
(-1.82355e-08 1.1664e-06 1.08235e-07)
(-2.21128e-08 -1.39772e-09 1.88232e-08)
(-1.66449e-08 -1.43323e-09 -1.07175e-10)
(-7.92449e-09 1.558e-09 5.02313e-10)
(-2.30772e-09 2.12208e-09 -2.39966e-09)
(1.20008e-08 -4.02181e-09 -1.12085e-08)
(7.78196e-07 1.33472e-08 -5.42396e-08)
(4.02769e-07 -2.44957e-08 -7.89486e-08)
(-4.7124e-09 -4.52696e-09 1.1593e-08)
(-7.23503e-09 -1.13848e-08 2.4983e-08)
(-2.83681e-08 -6.86318e-09 8.26376e-09)
(-1.90782e-08 -2.43371e-09 -2.1163e-09)
(-1.66637e-08 -1.77925e-09 -8.86628e-09)
(-6.79232e-09 -3.19468e-09 -9.30802e-09)
(2.39574e-09 -8.51516e-09 -2.27822e-08)
(4.37568e-09 -1.23145e-08 -2.36156e-08)
(-7.30048e-09 -3.82522e-08 -4.09188e-08)
(-3.88484e-09 -4.84835e-09 5.63211e-09)
(-4.0902e-09 -1.02873e-08 6.66323e-09)
(1.89529e-09 -1.45236e-08 3.6652e-09)
(-1.4249e-08 -3.76172e-09 -5.9634e-10)
(-1.15511e-08 -3.5414e-09 -8.83614e-09)
(2.21759e-09 -1.97272e-09 -9.7737e-09)
(1.24562e-08 -3.01288e-09 -2.16141e-08)
(2.80993e-08 1.01715e-08 -2.89036e-08)
(2.03729e-08 1.74302e-08 -2.80936e-08)
(-1.13249e-08 5.28194e-09 1.81019e-08)
(-5.27993e-09 3.14314e-09 4.52771e-08)
(-3.43863e-09 1.8278e-10 1.58363e-08)
(-4.49965e-09 -1.67671e-09 1.53124e-10)
(-2.58764e-09 -5.0665e-10 -6.59478e-10)
(4.80495e-10 -8.41661e-10 -3.64196e-09)
(4.79027e-09 -1.43568e-09 -8.33857e-09)
(7.70059e-09 -2.66941e-09 -1.72336e-08)
(1.79657e-09 -8.45057e-09 -2.72117e-08)
(-1.01947e-08 2.21682e-09 1.29842e-08)
(-7.76039e-09 -2.21389e-09 2.25735e-08)
(-6.62853e-09 2.15417e-09 1.1459e-08)
(-1.17752e-08 -1.88809e-09 -1.57893e-09)
(-8.06852e-09 -2.11811e-09 -9.16025e-09)
(-5.16315e-09 -2.8471e-09 -1.33272e-08)
(4.99858e-10 -2.73364e-09 -1.84877e-08)
(5.69266e-09 -1.57551e-09 -2.25031e-08)
(1.18833e-08 -6.49063e-09 -2.84119e-08)
(-2.31846e-09 -3.4419e-10 5.38456e-09)
(-2.376e-09 -1.0034e-09 6.89345e-09)
(-5.39788e-09 -2.56355e-09 4.04497e-09)
(-8.3421e-09 -3.46905e-09 -3.67486e-10)
(-4.27343e-09 -3.84595e-09 -8.60866e-09)
(1.05864e-09 -4.50129e-09 -1.40661e-08)
(7.53051e-09 -2.77206e-09 -2.14291e-08)
(1.23785e-08 1.14227e-09 -2.44421e-08)
(3.65674e-09 2.31429e-09 -2.51638e-08)
(-3.52087e-09 9.89199e-10 2.27347e-09)
(-1.6518e-09 1.75418e-09 5.81188e-09)
(-2.61719e-09 8.73082e-12 5.94165e-09)
(-2.42531e-09 -2.22401e-10 1.83227e-10)
(-1.92941e-09 -3.03768e-10 -1.28798e-09)
(-9.46144e-10 -3.04239e-10 -3.30957e-09)
(3.40646e-10 1.44915e-09 -5.36743e-09)
(1.03081e-09 1.49905e-09 -5.83114e-09)
(1.52903e-09 7.00065e-10 -1.06517e-08)
(-3.93164e-09 3.24211e-09 4.41391e-09)
(-1.61392e-09 1.77723e-09 6.69988e-09)
(-1.73295e-09 1.02333e-09 6.74288e-09)
(-4.55731e-09 -1.10261e-09 2.53409e-10)
(-2.7615e-09 -1.62566e-09 -3.65939e-09)
(-2.88543e-09 -1.1161e-09 -6.15783e-09)
(4.38769e-11 1.78953e-09 -1.20226e-08)
(1.36386e-09 -1.18154e-09 -1.31785e-08)
(-1.70255e-09 2.50777e-09 -8.83607e-09)
(-7.41452e-10 1.9358e-09 2.83891e-09)
(1.52804e-09 2.60893e-09 3.68128e-09)
(-2.06287e-10 2.8075e-09 3.93548e-09)
(-2.72856e-09 5.11101e-10 -4.04748e-10)
(-1.20681e-09 -1.04493e-09 -5.09766e-09)
(-1.99059e-10 -2.43424e-09 -9.33282e-09)
(1.45353e-09 8.21544e-10 -1.50056e-08)
(-8.21098e-11 -3.77854e-10 -1.2164e-08)
(-2.46196e-09 4.00216e-09 -1.18905e-08)
(-2.82926e-09 1.15293e-09 1.08658e-09)
(-1.94488e-09 1.339e-10 9.92576e-10)
(-2.55421e-09 6.80203e-10 9.53805e-10)
(-4.39354e-09 2.69671e-09 9.96535e-10)
(-3.74668e-09 2.74166e-09 3.41891e-09)
(-2.68386e-09 2.57723e-09 3.1174e-10)
)
;

boundaryField
{
    inlet
    {
        type            calculated;
        value           nonuniform 0();
    }
    outlet
    {
        type            calculated;
        value           uniform (0 0 0);
    }
    wall
    {
        type            calculated;
        value           uniform (0 0 0);
    }
    procBoundary1to0
    {
        type            processor;
        value           uniform (0 0 0);
    }
    procBoundary1to3
    {
        type            processor;
        value           uniform (0 0 0);
    }
    procBoundary1to5
    {
        type            processor;
        value           uniform (0 0 0);
    }
    procBoundary1to7
    {
        type            processor;
        value           uniform (0 0 0);
    }
}


// ************************************************************************* //
