/*--------------------------------*- C++ -*----------------------------------*\
  =========                 |
  \\      /  F ield         | OpenFOAM: The Open Source CFD Toolbox
   \\    /   O peration     | Website:  https://openfoam.org
    \\  /    A nd           | Version:  4.x
     \\/     M anipulation  |
\*---------------------------------------------------------------------------*/
FoamFile
{
    version     2.0;
    format      ascii;
    class       vectorField;
    location    0;
    object      v;
}
// * * * * * * * * * * * * * * * * * * * * * * * * * * * * * * * * * * * * * //

313
(
( 3.49558e-09 -2.08134e-09 2.33785e-09 )  
( 1.29136e-09 4.44024e-10 1.66656e-09 )  
( 2.45865e-09 -1.6207e-09 3.49383e-09 )  
( 9.99662e-10 5.49738e-10 2.30596e-09 )  
( 3.91102e-09 -3.6677e-09 3.3284e-09 )  
( 2.10618e-09 -1.71805e-10 2.51728e-09 )  
( 2.02167e-09 -4.08796e-10 9.2333e-10 )  
( 2.74889e-09 -9.78198e-10 3.41582e-09 )  
( 2.01898e-09 -4.92683e-10 1.81604e-09 )  
( 1.22842e-09 -1.49344e-10 9.41104e-10 )  
( 6.3745e-10 1.81162e-09 3.84926e-09 )  
( 2.04561e-09 8.58355e-11 8.64926e-10 )  
( 4.65463e-10 6.09601e-11 4.41455e-11 )  
( 1.8133e-09 -4.49287e-10 7.9551e-10 )  
( 2.93236e-09 -8.274e-10 8.00542e-10 )  
( 7.93297e-10 -2.89225e-10 2.24505e-10 )  
( 1.53436e-10 -3.05682e-11 6.83786e-11 )  
( 1.44051e-09 -3.95266e-10 8.01893e-10 )  
( 2.46724e-09 -2.49206e-10 1.23807e-09 )  
( 4.64282e-10 -4.26384e-12 8.87648e-11 )  
( 7.25717e-10 3.73853e-11 4.53595e-11 )  
( 3.38863e-10 7.1999e-11 -9.34536e-11 )  
( 2.03442e-09 -3.58292e-10 5.69216e-10 )  
( 1.02872e-09 -2.95525e-10 -4.20735e-10 )  
( 2.08143e-10 9.61348e-11 -8.66877e-11 )  
( 6.99445e-11 -4.62023e-11 -1.35673e-12 )  
( 1.59292e-10 -6.31245e-11 -5.16054e-11 )  
( 7.00748e-10 -6.22365e-11 -1.00443e-10 )  
( 6.54346e-10 -2.52312e-10 -2.19739e-11 )  
( 1.23399e-09 -6.32292e-10 1.71138e-10 )  
( 1.41131e-09 -6.85195e-10 5.24528e-10 )  
( 6.57495e-10 5.53224e-11 -1.86938e-11 )  
( 2.3684e-09 4.13625e-10 1.74002e-09 )  
( 2.41854e-10 1.02242e-10 3.46336e-10 )  
( 2.11173e-10 3.23467e-12 3.18157e-10 )  
( 2.80043e-09 -1.46349e-09 1.26947e-09 )  
( 1.63095e-09 -6.58675e-10 2.72156e-10 )  
( 1.11702e-09 -5.75317e-10 4.686e-10 )  
( 1.22465e-09 -2.69304e-10 4.27339e-10 )  
( 9.50288e-10 -4.89209e-10 2.97743e-10 )  
( 7.56902e-10 -2.27383e-11 1.74317e-10 )  
( 8.72662e-10 -4.56102e-10 1.09108e-10 )  
( 1.01893e-09 -1.12288e-11 -3.68601e-10 )  
( 6.47664e-10 -2.61128e-10 3.2997e-10 )  
( 8.99459e-10 -6.87868e-10 3.06673e-10 )  
( 1.82616e-09 -5.78465e-10 4.93473e-10 )  
( 1.18185e-10 -5.64881e-11 -5.42468e-11 )  
( 2.13081e-09 -6.64489e-10 5.62833e-10 )  
( 1.05793e-09 -5.79516e-10 5.77896e-10 )  
( 2.6849e-10 -1.45198e-10 1.62649e-10 )  
( 2.27709e-09 -1.49264e-09 1.14345e-09 )  
( 1.10329e-09 -4.42437e-10 3.80707e-10 )  
( 6.20009e-10 7.83684e-12 -4.25348e-10 )  
( 2.43588e-10 4.39932e-11 1.43412e-10 )  
( 1.21315e-10 -1.72819e-10 7.30547e-11 )  
( 6.80834e-10 -5.29226e-10 5.98165e-10 )  
( 2.35372e-09 -9.08621e-10 7.98277e-10 )  
( 1.86694e-09 -4.18387e-10 6.22189e-10 )  
( 2.62056e-09 -1.36001e-09 8.65907e-10 )  
( 2.45894e-10 1.39151e-10 2.01089e-10 )  
( 1.1345e-09 -2.35169e-10 2.2631e-10 )  
( 4.53497e-10 -2.90494e-10 3.73246e-10 )  
( 1.36279e-09 -6.46687e-10 8.20774e-11 )  
( 4.46169e-10 -1.72665e-10 3.01764e-10 )  
( 9.86656e-11 6.26015e-11 8.83301e-11 )  
( 1.25435e-09 -3.19922e-10 2.45032e-10 )  
( 3.09379e-10 -5.48955e-11 -1.51371e-10 )  
( 6.90567e-10 -1.61431e-10 2.94692e-10 )  
( 1.46089e-09 -3.16335e-10 1.33702e-10 )  
( 1.78623e-09 -9.01252e-10 7.16681e-10 )  
( 1.18047e-09 -3.00886e-10 6.26516e-10 )  
( 1.23234e-09 -4.64764e-10 6.17712e-10 )  
( 2.99933e-09 -1.65443e-09 1.43252e-09 )  
( 3.44997e-10 2.84437e-12 1.16077e-10 )  
( 6.65097e-10 -5.42848e-11 6.91445e-11 )  
( 7.0144e-10 -2.35353e-10 1.69166e-10 )  
( 1.18373e-10 -2.04147e-11 3.25421e-10 )  
( 1.63832e-09 -6.73988e-10 4.34237e-10 )  
( 1.53954e-09 -3.96875e-10 5.14592e-10 )  
( 2.86639e-10 6.3942e-11 5.19739e-12 )  
( 1.04164e-09 -6.19045e-10 8.70048e-11 )  
( 2.87476e-10 4.16557e-11 9.1643e-11 )  
( 4.19847e-11 -1.88296e-10 -2.95139e-11 )  
( 1.20114e-09 -5.39908e-10 3.06671e-10 )  
( -9.26309e-12 -4.89663e-11 -9.78659e-11 )  
( 1.46021e-09 1.84697e-10 9.9715e-10 )  
( 5.6376e-10 2.57572e-10 3.61225e-11 )  
( 5.26236e-10 -2.87686e-10 4.30088e-10 )  
( 5.75827e-11 -5.46504e-11 -1.78934e-11 )  
( 1.13681e-10 7.8946e-11 -1.42384e-10 )  
( 7.70069e-10 -3.9463e-10 5.93097e-10 )  
( 3.6567e-10 -6.37047e-11 -1.07173e-10 )  
( 4.99734e-10 -2.60897e-10 -3.47171e-11 )  
( 3.70087e-10 2.00801e-10 -6.30944e-11 )  
( 5.71699e-10 -4.26953e-10 4.26104e-10 )  
( 2.47646e-09 -1.50428e-10 1.76998e-09 )  
( 2.26575e-09 -5.96448e-10 3.66706e-10 )  
( 1.13006e-10 1.53253e-10 2.35914e-10 )  
( 2.21252e-09 -6.39363e-10 1.05823e-09 )  
( 4.23785e-10 -2.88507e-11 2.78478e-11 )  
( 9.59659e-10 -4.27676e-10 2.23076e-10 )  
( 4.30329e-10 -2.52231e-10 2.07199e-10 )  
( 3.02952e-09 -2.36637e-09 1.64395e-09 )  
( 3.30214e-09 -2.11431e-09 1.86558e-09 )  
( 1.48186e-09 -6.73708e-10 9.89407e-10 )  
( 2.34998e-09 -7.66882e-10 1.99303e-10 )  
( 4.4202e-10 2.06937e-12 -6.08878e-11 )  
( 3.1475e-09 -1.14975e-09 1.89288e-09 )  
( 1.06176e-09 -6.43727e-10 3.95499e-10 )  
( 9.40911e-10 -1.29042e-10 4.13975e-11 )  
( 7.12391e-10 -2.53517e-10 2.79739e-10 )  
( 1.65914e-09 -5.65669e-10 1.60934e-10 )  
( 1.79074e-09 -7.40745e-10 4.26931e-10 )  
( 4.7789e-10 -1.56201e-10 -1.46446e-10 )  
( 8.48747e-10 -1.02429e-10 3.12966e-10 )  
( 1.26053e-09 -7.71754e-11 5.18497e-10 )  
( 1.061e-09 -3.60859e-10 2.36175e-10 )  
( 2.19528e-09 -3.77056e-10 1.1937e-09 )  
( 7.27267e-10 -4.34117e-10 -2.46458e-10 )  
( 5.25811e-10 -5.48567e-11 1.61603e-10 )  
( 7.03766e-11 -1.04414e-10 2.8811e-10 )  
( 5.56525e-10 -3.33879e-11 2.20555e-10 )  
( 7.03407e-11 1.39848e-10 -5.23811e-11 )  
( 3.48724e-09 -2.47351e-09 1.8473e-09 )  
( 7.68045e-10 -4.99234e-10 -4.14479e-10 )  
( 3.51334e-10 1.70261e-11 -8.15679e-11 )  
( 1.15381e-09 -3.44261e-10 9.11835e-12 )  
( 9.00996e-10 -6.18265e-10 5.18204e-10 )  
( 1.26473e-10 1.62439e-10 -9.81912e-11 )  
( 5.82847e-10 -3.98269e-10 3.7574e-10 )  
( 1.83841e-09 -7.87676e-10 1.09716e-09 )  
( 2.41198e-10 -1.26227e-10 -4.60476e-11 )  
( 2.73364e-09 -8.86898e-10 1.1425e-09 )  
( 2.73936e-09 -1.4599e-09 6.15907e-10 )  
( 5.4618e-10 -1.3801e-10 -4.43581e-10 )  
( 1.60648e-10 -1.22309e-10 1.3951e-10 )  
( 3.53783e-10 2.8812e-11 -5.05614e-11 )  
( 2.64185e-09 -1.0798e-09 9.83146e-10 )  
( 4.37167e-11 -5.96999e-11 7.04781e-11 )  
( 9.22311e-10 -2.24105e-10 3.13382e-10 )  
( 2.56952e-10 -1.74851e-10 8.786e-11 )  
( 1.61669e-10 8.55131e-11 6.03382e-11 )  
( 7.93365e-10 -9.89731e-11 2.30453e-10 )  
( 1.46896e-09 -4.04624e-10 1.05798e-10 )  
( 3.23923e-10 -4.73712e-12 -1.19957e-10 )  
( 2.40643e-09 -6.79643e-10 7.49281e-10 )  
( 4.2932e-10 -9.22311e-11 1.03535e-10 )  
( 2.09822e-09 -5.19199e-10 9.76432e-10 )  
( 2.81821e-10 -2.03538e-10 1.54799e-10 )  
( 4.35356e-10 -1.31382e-10 3.5161e-10 )  
( 5.42057e-10 -1.42777e-10 2.86782e-10 )  
( 4.24288e-10 4.09103e-11 3.90971e-10 )  
( 6.20784e-10 -2.30036e-10 2.56174e-10 )  
( 3.45299e-09 5.95828e-10 7.87878e-10 )  
( 9.2439e-10 6.51559e-11 4.13034e-10 )  
( 2.83491e-10 -6.75174e-11 2.60399e-10 )  
( 4.39327e-10 -1.0989e-10 3.29571e-10 )  
( 1.3323e-09 -1.56718e-11 7.75529e-10 )  
( 1.33084e-09 -1.4857e-10 8.00326e-10 )  
( 6.68168e-10 -1.08681e-10 4.03111e-10 )  
( 6.62565e-10 -2.9168e-10 3.90916e-10 )  
( 1.18119e-09 -1.20137e-10 4.60027e-10 )  
( 7.73913e-11 -7.86211e-11 4.51269e-11 )  
( 9.8935e-10 -5.66443e-11 5.83673e-10 )  
( 4.18839e-11 9.69259e-11 1.81997e-11 )  
( 4.04003e-11 7.81174e-11 5.15496e-11 )  
( 1.05494e-10 -1.20608e-10 7.83648e-12 )  
( 8.18304e-10 -1.93604e-10 2.58374e-10 )  
( 1.26727e-09 -9.08569e-11 6.30954e-10 )  
( 7.90122e-11 -1.33712e-10 7.00469e-12 )  
( 1.32759e-10 6.56535e-11 1.57053e-10 )  
( 9.64712e-11 -1.01522e-10 5.14983e-11 )  
( 9.58115e-10 -2.70256e-10 3.29047e-10 )  
( 1.71453e-10 -7.79524e-11 1.3068e-10 )  
( 2.42771e-09 1.7194e-10 9.88964e-10 )  
( 7.20896e-10 -3.16601e-10 4.9192e-10 )  
( 2.43043e-10 -9.74619e-11 1.60407e-10 )  
( -1.40076e-11 1.0682e-10 2.80552e-11 )  
( 3.58176e-10 -1.9476e-10 2.26579e-10 )  
( 1.57486e-09 -1.15098e-10 4.11409e-10 )  
( 4.68778e-10 -1.27653e-10 1.85261e-10 )  
( 1.66517e-09 9.17687e-11 5.38908e-10 )  
( 2.59668e-10 -1.70023e-10 7.5809e-11 )  
( 8.62786e-10 -2.74949e-10 3.21857e-10 )  
( 3.77232e-10 -2.89381e-11 3.10847e-10 )  
( 1.3557e-10 2.10868e-11 1.51124e-10 )  
( 9.98088e-11 -1.04051e-10 9.49078e-12 )  
( 4.14744e-10 -2.1951e-10 3.27695e-10 )  
( 3.23158e-10 -2.0584e-10 2.07627e-10 )  
( 3.54445e-10 -1.19634e-10 3.07573e-10 )  
( 3.30068e-10 -1.555e-10 3.17801e-10 )  
( 2.49364e-10 -1.54246e-10 1.40545e-10 )  
( 3.92983e-10 -2.13795e-11 1.91396e-10 )  
( 1.22252e-09 -1.52491e-10 5.15506e-10 )  
( 2.80931e-09 3.77142e-10 6.18556e-10 )  
( 7.51673e-10 6.11855e-11 3.97633e-10 )  
( 4.88302e-10 -2.63517e-10 3.25195e-10 )  
( 2.39961e-10 -1.19322e-10 1.64851e-10 )  
( 1.72265e-11 -1.31689e-10 2.42702e-11 )  
( 7.15151e-11 -7.1289e-11 1.08375e-10 )  
( 1.89901e-09 8.44021e-11 8.80842e-10 )  
( 2.5853e-10 -1.14074e-10 6.9014e-11 )  
( 1.62659e-09 1.69224e-10 8.50188e-10 )  
( 6.59132e-10 -2.12795e-10 4.84871e-10 )  
( 5.40185e-10 -2.30883e-10 3.81454e-10 )  
( 5.0578e-10 -6.98532e-11 2.41718e-10 )  
( 1.94395e-09 6.29223e-10 6.68078e-10 )  
( 4.04152e-10 -2.33453e-11 1.87097e-10 )  
( 9.19654e-10 -2.24169e-10 4.01404e-10 )  
( 6.80011e-11 4.37507e-11 3.96103e-11 )  
( 7.27137e-10 -9.42153e-11 1.45061e-10 )  
( 2.13934e-11 9.38006e-13 -1.13293e-11 )  
( 1.37958e-09 -2.91728e-10 8.35062e-10 )  
( 5.4756e-10 -1.24398e-10 2.65981e-10 )  
( 6.79818e-10 -1.66385e-10 3.46895e-10 )  
( 9.44976e-11 1.06822e-10 1.26602e-10 )  
( 6.08375e-12 -5.2495e-11 2.4091e-11 )  
( 5.90673e-10 -1.23114e-10 2.63197e-10 )  
( 2.52775e-09 -2.0806e-09 1.65819e-09 )  
( 1.31265e-10 -5.08972e-11 -5.19081e-11 )  
( 2.01213e-09 -5.95568e-10 6.49424e-10 )  
( 9.96129e-11 1.04537e-10 1.91532e-11 )  
( 1.03753e-09 -5.14244e-10 2.5559e-10 )  
( 7.05273e-10 -1.02469e-10 1.01856e-10 )  
( 2.77622e-09 -1.22262e-09 1.99438e-09 )  
( 2.65273e-09 5.64233e-10 1.52058e-09 )  
( 2.12892e-09 -1.30217e-10 5.20614e-10 )  
( 1.82698e-10 -5.3595e-11 -2.52826e-10 )  
( 2.19306e-09 -5.97735e-10 8.76454e-10 )  
( 3.23642e-10 -2.64418e-11 2.25294e-10 )  
( 1.23655e-09 -3.33981e-10 6.20189e-10 )  
( 6.38012e-10 -3.54823e-10 2.68729e-10 )  
( 9.36288e-10 -2.39456e-10 5.20282e-10 )  
( 3.53209e-09 -1.89828e-10 2.84673e-09 )  
( -6.20367e-11 -5.59622e-11 3.92921e-11 )  
( 2.23524e-10 -1.32045e-10 2.93232e-10 )  
( 8.34542e-10 -4.2886e-11 3.94568e-10 )  
( 5.95544e-10 -2.6634e-10 1.58215e-10 )  
( 1.01875e-09 5.9877e-11 5.02087e-10 )  
( 1.17224e-09 -2.78943e-10 8.29521e-10 )  
( 3.88899e-10 -3.08303e-10 1.66432e-10 )  
( 2.50723e-10 -6.69217e-11 3.21896e-10 )  
( 1.95519e-10 -5.53903e-11 1.15633e-10 )  
( 1.30705e-09 -1.36018e-11 9.60085e-10 )  
( 9.94186e-10 -1.66537e-10 6.09632e-10 )  
( 9.91478e-10 -4.61718e-10 7.35033e-10 )  
( 2.44787e-10 9.73974e-11 3.69272e-10 )  
( 1.74073e-10 6.34912e-12 1.35463e-10 )  
( 1.35515e-09 3.09117e-10 9.16626e-10 )  
( 1.16831e-09 4.95665e-11 7.16245e-10 )  
( 2.94345e-10 -1.86465e-10 3.18724e-10 )  
( 2.89172e-10 -1.42867e-10 3.31301e-10 )  
( 9.96192e-11 -5.95048e-11 6.45751e-11 )  
( 5.09283e-11 5.40411e-11 -1.08315e-10 )  
( 5.92139e-10 -3.40814e-11 -1.86538e-11 )  
( 2.42065e-09 -8.14313e-10 4.55042e-10 )  
( 3.98764e-10 1.59276e-10 2.67405e-11 )  
( 2.10598e-09 -1.26148e-09 1.05599e-09 )  
( 1.78019e-09 -1.15287e-09 5.37913e-10 )  
( 2.56e-09 -4.54207e-10 1.06799e-09 )  
( 6.67263e-10 8.94598e-11 1.5067e-11 )  
( 1.15217e-09 -5.04117e-10 3.21907e-10 )  
( 9.44646e-10 4.15541e-11 1.50018e-10 )  
( 7.57953e-10 -2.53723e-11 2.37213e-10 )  
( 1.58168e-09 -8.79806e-10 3.62474e-10 )  
( 2.0253e-09 -2.0223e-09 6.65542e-10 )  
( 2.2846e-10 -8.12808e-12 -5.5368e-11 )  
( 1.8455e-09 -8.96658e-10 3.13566e-10 )  
( 8.66837e-10 -9.86268e-11 9.91433e-12 )  
( 4.29807e-10 1.45739e-11 -1.39504e-11 )  
( 2.65497e-09 -9.88148e-10 4.98372e-10 )  
( 5.07901e-10 1.62202e-10 -6.67009e-11 )  
( 8.31939e-11 -3.65644e-11 6.15666e-11 )  
( 1.20264e-09 -2.18622e-10 2.16516e-10 )  
( 3.6842e-10 -3.73355e-11 6.20036e-10 )  
( 1.34307e-09 -6.56157e-10 4.42438e-10 )  
( 1.78708e-09 -5.07688e-10 7.35816e-10 )  
( 1.83678e-09 -8.4312e-10 2.32241e-10 )  
( 2.86429e-09 -8.72606e-10 1.2113e-09 )  
( 4.33637e-11 -3.04574e-11 5.72113e-11 )  
( 4.08885e-09 -4.57387e-09 2.38771e-09 )  
( 1.2215e-09 -1.58315e-10 2.32442e-10 )  
( 3.395e-09 -2.87112e-09 1.14152e-09 )  
( 3.54099e-10 2.41297e-10 2.08084e-11 )  
( 2.98554e-09 -2.03782e-09 1.07779e-09 )  
( -1.88904e-10 -4.05398e-11 7.24868e-11 )  
( 1.14283e-09 -8.51507e-10 -7.35054e-11 )  
( 1.14954e-09 -2.62082e-10 1.52783e-10 )  
( 8.82947e-10 -1.56957e-10 4.32685e-11 )  
( 1.43981e-09 -3.14139e-10 7.04864e-10 )  
( 3.31828e-10 5.26005e-11 -6.31605e-12 )  
( 1.50316e-09 -5.43779e-10 6.0326e-10 )  
( 1.24617e-09 -2.66408e-10 5.07983e-10 )  
( 2.73972e-09 -8.46941e-10 7.47819e-10 )  
( 1.66863e-09 -1.98146e-10 3.19813e-10 )  
( 9.30469e-10 -3.17826e-10 -3.30481e-10 )  
( 2.9722e-10 -4.4604e-11 4.52024e-10 )  
( 2.25623e-09 -2.03024e-09 1.729e-09 )  
( 3.11412e-09 -1.89137e-09 6.48067e-10 )  
( 8.6192e-10 -2.04518e-09 8.59018e-11 )  
( 5.33067e-11 8.69751e-11 5.35551e-11 )  
( -2.32932e-10 3.8523e-10 9.83433e-12 )  
( 4.53088e-10 -6.36962e-11 1.20105e-10 )  
( 3.34233e-09 -2.41004e-09 1.0884e-09 )  
( 1.37018e-10 -2.71874e-11 5.55562e-11 )  
( 1.00842e-09 -2.95687e-11 1.54582e-10 )  
( 9.17039e-10 -1.83261e-10 2.4876e-10 )  
( 1.72986e-09 -8.61455e-10 3.15314e-10 )  
( 1.66981e-09 -3.33772e-10 6.63803e-10 )  
( 2.72031e-09 -1.99809e-09 1.57768e-09 )  
( 6.19004e-10 1.17353e-10 4.26412e-10 )  
( 2.21579e-09 -7.04363e-10 9.29843e-10 )  
( 4.35065e-09 -3.81192e-09 3.21071e-09 )  
)
