/*--------------------------------*- C++ -*----------------------------------*\
| =========                 |                                                 |
| \\      /  F ield         | OpenFOAM: The Open Source CFD Toolbox           |
|  \\    /   O peration     | Version:  4.x                                   |
|   \\  /    A nd           | Web:      www.OpenFOAM.org                      |
|    \\/     M anipulation  |                                                 |
\*---------------------------------------------------------------------------*/
FoamFile
{
    version     2.0;
    format      ascii;
    class       volVectorField;
    location    "53.5";
    object      U;
}
// * * * * * * * * * * * * * * * * * * * * * * * * * * * * * * * * * * * * * //

dimensions      [0 1 -1 0 0 0 0];

internalField   nonuniform List<vector> 
87
(
(0.0280826 0.000678363 -0.0008465)
(0.0430796 0.000464342 -0.000889616)
(0.028909 0.000837251 -0.00143106)
(0.0460559 0.00057134 -0.000753514)
(0.0286319 0.000995741 -0.00262196)
(0.051333 0.000681538 8.22046e-05)
(0.0255956 0.000655136 -0.00557029)
(0.063672 0.00118752 0.00284946)
(0.0130713 -0.00292429 -0.010613)
(0.0244137 -0.000645815 -0.000895575)
(0.0409647 -0.000654085 -0.00090575)
(0.0250612 -0.000966029 -0.00126308)
(0.0438422 -0.000312986 -0.000577297)
(0.0242647 -0.00172639 -0.00201454)
(0.0482348 0.000620803 0.000723016)
(0.0209082 -0.00372515 -0.00404456)
(0.0563639 0.0034156 0.00366998)
(0.0108235 -0.00945256 -0.010118)
(0.0203081 0.000189993 -0.000676776)
(0.0373903 0.000296655 -0.000747387)
(0.020062 0.000514374 -0.000940231)
(0.0389494 0.000591157 -5.18047e-05)
(0.0189761 0.000256107 -0.00196601)
(0.0416195 0.000654592 0.00121846)
(0.0171042 -0.000953945 -0.00441859)
(0.0488585 0.00121179 0.00452806)
(0.0105091 -0.0041505 -0.0117587)
(0.0179394 0.000422385 -0.000196355)
(0.035991 0.000264103 -0.000195898)
(0.0178646 0.000674017 -0.000384122)
(0.0372737 0.000412024 9.26392e-05)
(0.0167481 0.00105502 -0.000794686)
(0.0386643 0.000639808 0.000991241)
(0.0134521 0.001258 -0.00256429)
(0.0396161 0.000420331 0.00397794)
(0.00613919 0.0010459 -0.0055723)
(0.00961136 -0.000284737 -0.000111945)
(0.032662 -0.00042403 -4.471e-05)
(0.00854573 -0.000304994 -7.6848e-05)
(0.0343066 0.000484099 0.000596433)
(0.00705267 -0.000672963 -0.000360587)
(0.0364564 0.00193736 0.00205266)
(0.00625068 -0.00162314 -0.00136767)
(0.0385344 0.00522366 0.005139)
(0.00560273 -0.00531928 -0.00676396)
(0.00259509 0.000131782 -0.000169328)
(0.0298754 0.000323925 0.00021624)
(0.000367644 3.5047e-05 -3.78882e-05)
(0.0298339 0.00040639 0.000758349)
(1.1045e-08 2.95423e-10 -2.10148e-09)
(0.0286451 0.000111551 0.00181065)
(0.00218727 0.000183651 -0.000871335)
(0.0261814 -0.000357202 0.00422002)
(0.00940812 0.000442132 -0.0112493)
(0.0167413 0.000465108 -0.00140903)
(0.0357907 0.000371866 -0.00133343)
(0.0160309 0.000755015 -0.00201262)
(0.0373826 0.000713486 -0.00124482)
(0.0141561 0.000678307 -0.00324108)
(0.0392486 0.00104462 0.000116314)
(0.0108832 0.000380043 -0.00521382)
(0.0404982 0.00121065 0.00353161)
(0.00617234 -4.79236e-05 -0.00893633)
(0.00888256 -0.000687084 -0.000947776)
(0.0328275 -0.000232392 -0.000594094)
(0.00886143 -0.0010163 -0.0011561)
(0.0346532 0.000292182 0.000152253)
(0.00855222 -0.00181866 -0.00207763)
(0.0366965 0.0014268 0.00113637)
(0.00810012 -0.00341051 -0.00387481)
(0.0389614 0.00426345 0.00391638)
(0.00627443 -0.00765016 -0.00851242)
(0.00183519 -0.000102366 -0.00040524)
(0.0292108 3.27973e-06 0.000191539)
(0.00131552 -0.000104465 -0.000440366)
(0.0296857 0.000513676 0.000112733)
(0.00187067 -0.000302004 -0.000878066)
(0.0298121 0.000974693 0.000575116)
(0.00406857 -0.0014942 -0.00242412)
(0.0282335 0.00284486 0.00250583)
(0.00886564 -0.00692879 -0.00553655)
(0.0118861 0.000151476 -0.000422718)
(0.0315458 0.000580083 -0.000144395)
(0.00808514 0.000444441 -0.000401055)
(0.00184097 -0.000276213 -0.000171985)
(0.0292348 0.000620185 -0.000339678)
(1.00066e-08 4.20965e-10 8.73871e-10)
)
;

boundaryField
{
    inlet
    {
        type            fixedValue;
        value           nonuniform 0();
    }
    outlet
    {
        type            zeroGradient;
    }
    wall
    {
        type            fixedValue;
        value           uniform (0 0 0);
    }
    procBoundary1to0
    {
        type            processor;
        value           nonuniform List<vector> 
12
(
(0.0406622 0.000122124 -0.00114649)
(0.0386892 -0.00100358 -0.00120093)
(0.0361301 -0.000177452 -0.0010958)
(0.0348023 -3.11778e-05 -0.000551208)
(0.0317275 -0.000890265 -0.000558282)
(0.0296283 0.00011363 -0.000402466)
(0.0343971 -5.27294e-05 -0.00125767)
(0.0314412 -0.00078143 -0.00099044)
(0.0287501 -0.000341444 3.64635e-05)
(0.0321091 -6.24064e-05 -0.000569838)
(0.0289597 1.88903e-05 -0.000688407)
(0.0261284 0.000312242 -8.65695e-05)
)
;
    }
    procBoundary1to3
    {
        type            processor;
        value           nonuniform List<vector> 
27
(
(0.0225666 -0.000337406 -0.00024085)
(0.0399685 -0.000355695 -0.000471698)
(0.0232627 -0.000442966 -0.000273163)
(0.0425271 -0.000744519 7.0433e-05)
(0.0224384 -0.00170843 -0.000450379)
(0.045573 -0.00138546 0.00136314)
(0.0184731 -0.00459108 -0.00166438)
(0.0502152 0.000217187 0.00332013)
(0.00903425 -0.0116179 -0.00534146)
(0.00684146 5.79061e-05 -0.000516474)
(0.0324357 0.000200729 -0.000371991)
(0.00589942 0.000100909 -0.000653105)
(0.0340291 8.99882e-05 0.000580557)
(0.00512453 7.42885e-05 -0.00105122)
(0.0357751 -0.000330247 0.00236946)
(0.00480207 -2.13031e-05 -0.0023319)
(0.0380392 -0.00115536 0.00636336)
(0.00567368 -0.000877444 -0.0108146)
(0.003868 -0.000357249 -0.000726578)
(0.0303725 -0.000240775 -0.000171617)
(0.00318854 -0.000472151 -0.000828046)
(0.0308499 -0.000549025 0.000200641)
(0.00342373 -0.000923717 -0.00144029)
(0.0306018 -0.000686559 0.00117582)
(0.00420053 -0.00171243 -0.00269577)
(0.0280803 0.00109536 0.00374746)
(0.00787253 -0.00421526 -0.00915482)
)
;
    }
    procBoundary1to5
    {
        type            processor;
        value           nonuniform List<vector> 
32
(
(0.0294999 0.00112476 0.000215787)
(0.002699 0.000247318 -0.000255397)
(0.0254813 0.000372708 0.000959903)
(9.44857e-09 1.78305e-09 -1.39226e-09)
(0.0180036 -0.000661375 0.00197731)
(0.00164679 0.000571696 -5.24058e-05)
(0.000378398 -7.95042e-05 -5.5038e-05)
(0.0290681 0.00113525 0.000342851)
(0.000546642 -0.000153408 -0.00013234)
(0.0282116 0.00117825 0.00162669)
(0.0015442 -0.000462327 -0.000653489)
(0.0245431 0.002893 0.00411473)
(0.00631756 -0.000969761 -0.00515966)
(0.0258782 0.000546623 5.47553e-05)
(1.11501e-08 7.56831e-10 1.26304e-09)
(0.0254992 0.000191962 0.000225096)
(1.07827e-08 2.71359e-10 -9.27351e-10)
(0.0246015 -0.000364191 0.000723156)
(1.0715e-08 5.75726e-10 -1.79247e-09)
(0.0212045 -0.00154487 0.00122682)
(0.00660713 0.000292567 -0.000786128)
(0.0146968 -0.000246553 0.000237533)
(0.0343858 -0.00027397 0.000780102)
(0.0294999 0.00112476 0.000215787)
(0.000378398 -7.95042e-05 -5.5038e-05)
(0.0142655 -0.00032984 0.000853193)
(0.0035122 -0.000431081 6.76061e-05)
(0.000378398 -7.95042e-05 -5.5038e-05)
(0.0258782 0.000546623 5.47553e-05)
(0.0302423 -7.745e-05 0.000253442)
(0.0258782 0.000546623 5.47553e-05)
(1.10787e-08 -8.25392e-10 2.45362e-09)
)
;
    }
    procBoundary1to7
    {
        type            processor;
        value           uniform (0.00180802 0.000211317 -0.000309402);
    }
}


// ************************************************************************* //
