/*--------------------------------*- C++ -*----------------------------------*\
| =========                 |                                                 |
| \\      /  F ield         | OpenFOAM: The Open Source CFD Toolbox           |
|  \\    /   O peration     | Version:  4.x                                   |
|   \\  /    A nd           | Web:      www.OpenFOAM.org                      |
|    \\/     M anipulation  |                                                 |
\*---------------------------------------------------------------------------*/
FoamFile
{
    version     2.0;
    format      ascii;
    class       volVectorField;
    location    "4";
    object      DDtUrel;
}
// * * * * * * * * * * * * * * * * * * * * * * * * * * * * * * * * * * * * * //

dimensions      [0 1 -2 0 0 0 0];

internalField   nonuniform List<vector> 
108
(
(0.0068465 -4.2358e-06 0.000449919)
(0.00645504 3.25787e-06 0.00030005)
(0.00586208 1.55919e-05 0.000222619)
(0.00512254 3.51189e-05 0.000152831)
(0.00287653 7.96677e-05 4.75537e-05)
(0.000393125 0.000140052 -8.30347e-05)
(-0.00194313 0.000309563 -0.000190926)
(-0.00558996 0.000522721 -0.000364264)
(-0.00707848 0.000687597 -0.000428545)
(0.00688807 -5.4818e-06 0.000350723)
(0.00663935 6.27912e-05 0.000274758)
(0.00607585 0.000132729 0.000178961)
(0.00503744 8.01461e-05 7.95794e-05)
(0.00304863 6.10739e-05 -2.09476e-06)
(0.000675603 0.000340324 -0.000279141)
(-0.00182048 0.000657284 -0.00051231)
(-0.00592556 0.00124627 -0.000857823)
(-0.00777446 0.0017781 -0.00123959)
(0.00733424 3.2885e-05 0.000321841)
(0.00713531 5.20791e-05 0.000261639)
(0.00658617 3.33859e-05 0.000119766)
(0.00564215 -8.97977e-07 0.000244408)
(0.00344113 2.05384e-05 0.000226634)
(0.000430299 0.000273086 -0.000470179)
(-0.00209944 0.000687544 -0.000930937)
(-0.00655111 0.0018748 -0.00156504)
(-0.008493 0.00281568 -0.00233545)
(0.00783038 -2.27059e-05 0.000367077)
(0.00747695 -3.99235e-05 0.000298209)
(0.00691978 -0.000111859 0.000113823)
(0.0058115 -0.000251622 4.7876e-05)
(0.00375383 -0.000528458 -0.000131645)
(0.000673085 -7.20051e-05 -0.000696581)
(-0.00196365 0.000524188 -0.00116538)
(-0.00752204 0.0022386 -0.00250928)
(-0.0102557 0.00372524 -0.00355687)
(0.00633158 1.99727e-06 0.000331721)
(0.00595107 2.22186e-05 0.000237117)
(0.00552925 1.99783e-05 0.000237302)
(0.00453643 7.87655e-05 5.51064e-05)
(0.00264062 8.66676e-05 -0.000176324)
(0.000666721 0.000117302 -0.000136905)
(-0.00163438 0.000132041 -0.000144594)
(-0.00498304 0.00020361 -0.000204689)
(-0.00621313 0.000274173 -4.1342e-05)
(0.00649687 -6.10489e-05 0.000299657)
(0.00628211 7.29302e-06 0.000249654)
(0.00570502 4.72208e-05 0.000193882)
(0.00476047 0.0001446 9.11609e-05)
(0.00275014 0.00026718 -9.81457e-05)
(0.000480989 0.000300974 -0.000241173)
(-0.00185625 0.000476904 -0.000420639)
(-0.00541894 0.000925206 -0.000567385)
(-0.00695107 0.00122948 -0.000604238)
(0.00689949 3.42536e-06 0.000265043)
(0.00684908 1.31132e-05 0.000280522)
(0.00621673 6.55212e-06 0.000202268)
(0.00597619 7.95365e-06 0.000276935)
(0.00260538 -6.91416e-05 2.59744e-05)
(-0.000827555 0.000229748 -0.000466465)
(-0.00238933 0.000753941 -0.000747481)
(-0.00626432 0.00156437 -0.00104779)
(-0.0078973 0.0022809 -0.00124302)
(0.00730604 2.28928e-05 0.000332476)
(0.00701616 -1.16168e-05 0.000283959)
(0.00637963 -0.000136965 0.000125397)
(0.00516364 -0.000406524 -6.99588e-05)
(0.00271468 -0.000695495 -0.000309759)
(1.57033e-05 8.35473e-05 -0.000628957)
(-0.00245929 0.000870694 -0.00101763)
(-0.00680365 0.0019643 -0.00164057)
(-0.00895357 0.00310597 -0.00191981)
(0.00572013 -2.40327e-05 0.000112855)
(0.00554231 4.23831e-05 0.000124232)
(0.00498273 7.21729e-05 8.18087e-05)
(0.00394439 8.01484e-05 -8.0308e-05)
(0.00255291 3.55345e-05 -0.000228256)
(0.00116206 4.42923e-05 -0.00014378)
(-0.000595268 1.26369e-05 1.91233e-05)
(-0.0034542 2.77267e-05 8.89199e-05)
(-0.0042361 0.000118435 0.000528182)
(0.00607341 -7.98237e-05 0.000202353)
(0.00588021 3.18538e-05 0.000154442)
(0.00513044 0.000139979 6.15124e-05)
(0.00392826 8.56084e-05 -5.03386e-05)
(0.00246691 0.000115765 -0.00024112)
(0.000853188 0.000308491 -0.00028854)
(-0.00104582 0.000488214 -0.000287903)
(-0.00436454 0.00110126 -0.000283445)
(-0.00590976 0.00165727 7.28061e-05)
(0.00665872 -1.2994e-05 0.00020152)
(0.00697018 -2.79671e-05 0.000206677)
(0.00538827 -0.000150784 1.76457e-05)
(0.00365225 -0.000136255 -0.000124166)
(0.0021084 -9.34048e-06 -0.000426355)
(0.000144356 0.000324413 -0.000485079)
(-0.00174469 0.000783479 -0.000606926)
(-0.00581405 0.00204712 -0.000729801)
(-0.00761144 0.00289413 -0.000301359)
(0.00723974 3.38969e-05 0.000212429)
(0.00685731 -0.00025187 0.000148987)
(0.00568042 -0.000634422 -4.11251e-05)
(0.00414191 -0.000493168 -0.000279735)
(0.00245142 -0.000325406 -0.000569744)
(0.000176786 0.000306134 -0.000690045)
(-0.00180655 0.000968094 -0.00106681)
(-0.00693091 0.00260452 -0.00118434)
(-0.00991898 0.00375792 -0.000699297)
)
;

boundaryField
{
    inlet
    {
        type            calculated;
        value           nonuniform 0();
    }
    outlet
    {
        type            calculated;
        value           nonuniform List<vector> 
12
(
(-0.0121586 0.00239261 -0.000773291)
(-0.0162112 0.0053409 -0.00355104)
(-0.0134162 0.00789691 -0.00779526)
(-0.0284984 0.0132212 -0.0157031)
(-0.00951317 0.000145394 0.000831478)
(-0.0119517 -0.00107145 -0.000623624)
(-0.0118995 0.00177462 -0.00129565)
(-0.0122156 0.00544101 -0.00362302)
(-0.00212054 0.00088324 0.00496011)
(-0.0147044 0.00465414 0.00426422)
(-0.0144592 0.00707366 0.00857991)
(-0.0283385 0.00968704 0.0115071)
)
;
    }
    wall
    {
        type            calculated;
        value           nonuniform List<vector> 
63
(
(0.00963774 -9.34977e-05 0.00200166)
(0.00764232 -0.000352983 0.000477836)
(0.00918999 0.000294273 0.000264272)
(0.0122652 -0.000268056 0.000679259)
(0.00774541 -0.000105887 0.000295927)
(0.00779851 0.000441515 0.000378413)
(0.00961932 0.000542308 0.000315442)
(0.010594 -0.000232708 0.000827858)
(0.00659233 4.27471e-05 0.000202132)
(0.00784472 0.00145477 0.000192101)
(0.00954118 0.000307272 -0.00115942)
(0.0113772 -0.000261625 -0.000323444)
(0.0131977 3.04911e-05 0.000867708)
(0.00684879 0.000160064 -0.000747445)
(0.0100278 0.000311931 0.00171049)
(0.0113939 -0.000100317 0.000177847)
(0.00375607 0.00020817 0.000947408)
(0.00454178 -0.00146855 7.74516e-05)
(0.00886806 0.00110209 0.00483849)
(0.0111869 -0.00407487 0.0005632)
(-0.00262987 -0.000146702 0.000370644)
(0.00328976 0.00115825 -0.000549638)
(0.00124343 0.00072993 -0.00113644)
(0.00198935 -0.00205795 -0.00190437)
(0.000884645 0.000944074 0.000268868)
(0.00473088 0.00130025 -0.000127493)
(0.00377029 -0.00142654 -0.00149712)
(0.00944663 -0.00466387 0.000502948)
(-0.0134842 0.00166704 -0.000744065)
(-0.013893 0.00270577 -0.000974317)
(-0.0144834 0.00443483 -0.00198117)
(-0.0218498 0.00492801 -0.00902216)
(-0.0121586 0.00239261 -0.000773291)
(-0.0162112 0.0053409 -0.00355104)
(-0.0134162 0.00789691 -0.00779526)
(-0.0284984 0.0132212 -0.0157031)
(0.0122652 -0.000268056 0.000679259)
(0.00810651 0.000360088 0.000683788)
(0.0112221 0.00166842 3.47448e-06)
(0.010594 -0.000232708 0.000827858)
(0.00773837 0.00103041 0.00101996)
(0.0102103 -0.000829478 0.00076788)
(0.0113772 -0.000261625 -0.000323444)
(0.00924697 0.00133508 0.000554277)
(0.00683093 -0.00527934 0.000376397)
(0.0113939 -0.000100317 0.000177847)
(0.00782916 -0.00182086 -0.000704013)
(0.00432867 -0.00209281 -0.000528037)
(0.0111869 -0.00407487 0.0005632)
(0.00150104 -0.00771858 -0.000826493)
(0.00504792 -0.0016955 -0.00198929)
(0.00198935 -0.00205795 -0.00190437)
(-0.000605432 -0.000591241 -0.000506738)
(-3.58822e-05 0.000709496 0.000554207)
(0.00944663 -0.00466387 0.000502948)
(-0.000157322 0.000997427 -0.000484917)
(0.00883236 -0.00124341 -0.00215237)
(-0.0218498 0.00492801 -0.00902216)
(-0.0129718 0.000223566 -0.00330479)
(-0.0169843 0.00645238 0.00157412)
(-0.0284984 0.0132212 -0.0157031)
(-0.0122156 0.00544101 -0.00362302)
(-0.0283385 0.00968704 0.0115071)
)
;
    }
    procBoundary3to1
    {
        type            processor;
        value           nonuniform List<vector> 
27
(
(0.00686946 -8.56654e-06 0.000381386)
(0.0065638 -4.54271e-05 0.00031283)
(0.00589633 -0.00012189 0.000248757)
(0.00474986 -7.86192e-05 0.000125247)
(0.00290298 3.28952e-05 5.04893e-05)
(0.000662756 -6.0573e-05 -7.27939e-06)
(-0.00191834 -0.000114593 2.2874e-06)
(-0.00556273 -0.000203497 -2.21839e-05)
(-0.00716935 -0.000373696 4.06131e-05)
(0.00651847 3.67013e-05 0.000365695)
(0.00618058 -1.60821e-06 0.000269131)
(0.00549574 -6.35387e-05 0.000190057)
(0.00434412 -6.43072e-05 6.88635e-05)
(0.00264334 -8.0119e-05 -3.09883e-05)
(0.00064114 -0.000197119 -6.12664e-05)
(-0.00181332 -0.000325538 -2.69902e-05)
(-0.00537456 -0.000572791 2.41545e-05)
(-0.00680557 -0.000820511 0.000230059)
(0.00605378 -4.55474e-05 0.000233486)
(0.00571684 3.93487e-05 0.00015974)
(0.0050032 5.43266e-05 9.23221e-05)
(0.00390132 -3.29731e-05 1.24264e-05)
(0.00247156 -0.000142618 -7.21301e-05)
(0.0008214 -0.000330663 -7.70136e-05)
(-0.00121027 -0.000539481 -4.43218e-05)
(-0.00459859 -0.00106856 3.27134e-05)
(-0.00577277 -0.00152143 0.000387889)
)
;
    }
    procBoundary3to2
    {
        type            processor;
        value           nonuniform List<vector> 
12
(
(0.00680673 1.46759e-05 0.000398856)
(0.00688788 4.779e-05 0.000369647)
(0.00732266 4.9139e-05 0.000382326)
(0.00778063 -2.57999e-05 0.00041363)
(0.00661201 9.58457e-07 0.000386641)
(0.00657739 1.11791e-05 0.00034744)
(0.00694785 2.6958e-05 0.000356264)
(0.00730096 3.13242e-06 0.00041769)
(0.00604593 -1.79037e-05 0.000238683)
(0.00617875 -1.02019e-05 0.000261272)
(0.00664159 1.14231e-05 0.000287158)
(0.0071602 2.28298e-05 0.000350569)
)
;
    }
    procBoundary3to7
    {
        type            processor;
        value           nonuniform List<vector> 
36
(
(0.00551884 -4.05041e-05 8.93688e-05)
(0.00509394 3.73548e-05 -1.0633e-05)
(0.00439616 5.75181e-05 -0.000113946)
(0.00360557 2.95689e-05 -0.000139056)
(0.00255473 -1.84882e-05 -0.000213458)
(0.0020061 -4.83337e-05 -0.000169966)
(0.00110685 -9.46145e-05 0.00012194)
(-0.00081764 -0.000107899 0.000398735)
(-0.000551332 -9.16324e-05 0.000713349)
(0.00573726 -7.50049e-05 0.000138457)
(0.00534737 1.13036e-05 1.45609e-05)
(0.00446903 5.21724e-05 -0.000129377)
(0.00354323 4.47549e-05 -0.000161817)
(0.00236394 0.000113623 -0.000271604)
(0.00114931 0.000252776 -0.000355706)
(-0.000397429 0.000439823 -0.000273365)
(-0.00303611 0.00107704 -0.000327205)
(-0.00360087 0.00199682 -0.000323361)
(0.00624731 -6.41995e-05 0.00015337)
(0.00620412 -0.000134692 3.71232e-06)
(0.00464064 -0.000199724 -0.000286972)
(0.00336015 -0.00012222 -0.000260868)
(0.0022009 -2.11081e-05 -0.000277276)
(0.000260436 0.00031094 -0.00064819)
(-0.00146347 0.000731163 -0.000847282)
(-0.00533573 0.00224169 -0.00138351)
(-0.00638367 0.00340926 -0.00178554)
(0.00694561 -0.000127296 9.50462e-05)
(0.00633185 -0.000424014 -0.000112148)
(0.00527428 -0.000653186 -0.000352798)
(0.00371197 -0.000442889 -0.0005094)
(0.00231071 -0.000314653 -0.000690278)
(0.000131712 0.000343964 -0.00109388)
(-0.00136662 0.00093968 -0.00149562)
(-0.00714672 0.00305637 -0.00271911)
(-0.0103316 0.00455838 -0.00334915)
)
;
    }
}


// ************************************************************************* //
