/*--------------------------------*- C++ -*----------------------------------*\
| =========                 |                                                 |
| \\      /  F ield         | OpenFOAM: The Open Source CFD Toolbox           |
|  \\    /   O peration     | Version:  4.x                                   |
|   \\  /    A nd           | Web:      www.OpenFOAM.org                      |
|    \\/     M anipulation  |                                                 |
\*---------------------------------------------------------------------------*/
FoamFile
{
    version     2.0;
    format      ascii;
    class       volScalarField;
    location    "4";
    object      KslPrev;
}
// * * * * * * * * * * * * * * * * * * * * * * * * * * * * * * * * * * * * * //

dimensions      [1 -3 -1 0 0 0 0];

internalField   nonuniform List<scalar> 
108
(
713577
3532.1
3.49766e+08
3846.55
2519.64
2766
57046.6
2732.62
7006.04
19068.3
3009.09
11343.7
2511.51
11420.8
2469.04
10950.4
2049.09
5988.76
267928
3052.1
8236.02
2504.46
4681.37
2319.8
13728.3
2199.26
4978.02
5277.85
2459.65
4675.27
2196.6
3817.51
1994.58
4301.38
1566.68
3298.95
58975.5
3701.78
5.48226e+08
2886.36
7347.28
3532.82
35803.3
3192.1
4975.55
38144.7
3322.85
13646.4
2932.26
12093.8
2784.9
13738.8
2860.43
11650.1
23524.5
3935.56
11684.4
60991.6
1655.98
5450.93
8180.48
3756.93
19567.7
5148.03
2622.26
4650.25
2156.78
3838.26
2284
7992.98
2450.02
4521.3
21922.1
3703.96
52792.8
3542.21
15563.6
3791.58
11288.5
4148.14
3529.25
32174.4
3265.37
33210.8
2701.5
10731.6
2841.38
7989.47
2333.62
3309.67
792117
8798.67
2198.41
3254.47
13425.9
2888.83
26061.4
2469.69
5046.95
4623.13
2294.58
3544.6
2254.22
4298.57
2204.09
5511.16
1803.31
4330.16
)
;

boundaryField
{
    inlet
    {
        type            zeroGradient;
    }
    outlet
    {
        type            zeroGradient;
    }
    wall
    {
        type            zeroGradient;
    }
    procBoundary3to1
    {
        type            processor;
        value           uniform 0;
    }
    procBoundary3to2
    {
        type            processor;
        value           uniform 0;
    }
    procBoundary3to7
    {
        type            processor;
        value           uniform 0;
    }
}


// ************************************************************************* //
