/*--------------------------------*- C++ -*----------------------------------*\
| =========                 |                                                 |
| \\      /  F ield         | OpenFOAM: The Open Source CFD Toolbox           |
|  \\    /   O peration     | Version:  4.x                                   |
|   \\  /    A nd           | Web:      www.OpenFOAM.org                      |
|    \\/     M anipulation  |                                                 |
\*---------------------------------------------------------------------------*/
FoamFile
{
    version     2.0;
    format      ascii;
    class       volScalarField;
    location    "4";
    object      magGField;
}
// * * * * * * * * * * * * * * * * * * * * * * * * * * * * * * * * * * * * * //

dimensions      [1 -2 -1 0 0 0 0];

internalField   nonuniform List<scalar> 
108
(
0.437552
97.0519
0.0300735
87.8606
131.314
121.199
5.7408
119.609
45.3501
17.8782
113.521
29.7038
133.596
29.0926
137.271
30.2751
161.029
53.4371
1.25722
112.116
40.9716
134.82
71.5957
147.496
24.4254
153.073
65.9353
64.8288
139.038
72.5906
154.054
88.3178
171.171
78.4459
212.796
101.272
5.80136
93.7704
0.0263552
118.277
45.6515
95.0852
9.19354
102.828
63.2114
8.99747
103.957
24.6463
114.554
27.4651
121.461
24.1559
116.528
27.4237
14.7027
87.461
28.7278
5.4473
200.543
62.5236
41.1451
90.3616
16.753
67.2139
132.152
73.1063
158.903
88.2953
152.063
42.4131
138.693
73.356
15.729
93.8941
6.41075
96.5017
21.4236
87.2018
28.1866
75.505
85.1442
10.7131
105.915
10.1236
124.966
30.9847
117.805
40.8487
140.375
94.2893
0.414517
39.2407
152.52
104.181
25.0036
118.561
13.0372
138.61
64.8457
75.9137
152.671
96.5622
152.741
79.891
157.724
62.1813
192.492
78.0679
)
;

boundaryField
{
    inlet
    {
        type            calculated;
        value           nonuniform 0();
    }
    outlet
    {
        type            calculated;
        value           nonuniform List<scalar> 
12
(
94.7184
111.979
137.485
209.283
135.833
58.8174
35.9015
155.896
185.711
205.254
140.622
168.517
)
;
    }
    wall
    {
        type            calculated;
        value           uniform 0;
    }
    procBoundary3to1
    {
        type            processor;
        value           nonuniform List<scalar> 
27
(
10.2962
105.741
5.64435
114.806
0.0227137
122.495
0.0133744
110.001
14.4049
9.33193
105.161
0.0275858
106.248
0.0228685
109.072
0.976518
117.964
24.015
5.67929
104.821
0.167089
103.919
1.86328
110.204
26.0131
136.891
84.0205
)
;
    }
    procBoundary3to2
    {
        type            processor;
        value           nonuniform List<scalar> 
12
(
96.4204
106.774
106.822
130.612
89.1769
101.986
90.9972
126.147
92.0058
98.2962
75.247
125.206
)
;
    }
    procBoundary3to7
    {
        type            processor;
        value           nonuniform List<scalar> 
36
(
21.1861
92.7945
20.1604
85.8449
23.9612
63.9788
76.8219
53.6236
142.378
11.5971
101.196
21.1047
105.332
29.5359
108.492
58.9161
85.0422
121.47
0.739341
91.2506
46.509
127.913
12.4626
102.243
27.9693
128.436
144.415
82.612
139.967
86.6265
155.074
94.2872
168.514
79.9734
220.33
155.576
)
;
    }
}


// ************************************************************************* //
