/*--------------------------------*- C++ -*----------------------------------*\
| =========                 |                                                 |
| \\      /  F ield         | OpenFOAM: The Open Source CFD Toolbox           |
|  \\    /   O peration     | Version:  4.x                                   |
|   \\  /    A nd           | Web:      www.OpenFOAM.org                      |
|    \\/     M anipulation  |                                                 |
\*---------------------------------------------------------------------------*/
FoamFile
{
    version     2.0;
    format      ascii;
    class       volScalarField;
    location    "4";
    object      nu;
}
// * * * * * * * * * * * * * * * * * * * * * * * * * * * * * * * * * * * * * //

dimensions      [0 2 -1 0 0 0 0];

internalField   nonuniform List<scalar> 
108
(
9.99811e-07
9.99527e-07
9.99348e-07
9.9933e-07
9.99404e-07
9.99468e-07
9.99616e-07
9.99702e-07
9.99625e-07
9.99949e-07
9.99641e-07
9.99394e-07
9.99261e-07
9.99219e-07
9.99232e-07
9.99327e-07
9.99379e-07
9.99033e-07
1.00015e-06
9.99805e-07
9.9954e-07
9.99322e-07
9.99223e-07
9.99181e-07
9.99197e-07
9.99272e-07
9.98646e-07
1.00098e-06
1.00067e-06
1.00041e-06
1.00014e-06
9.99944e-07
9.99822e-07
9.99692e-07
9.9966e-07
9.91849e-07
9.99636e-07
9.9943e-07
9.99274e-07
9.99242e-07
9.9927e-07
9.99319e-07
9.99462e-07
9.99578e-07
9.99077e-07
9.99749e-07
9.99524e-07
9.99329e-07
9.99205e-07
9.99181e-07
9.99224e-07
9.99307e-07
9.99418e-07
9.99196e-07
9.99875e-07
9.9962e-07
9.9935e-07
9.99188e-07
9.99213e-07
9.99268e-07
9.99217e-07
9.99337e-07
9.99377e-07
1.00069e-06
1.00048e-06
1.00023e-06
9.99994e-07
9.99924e-07
9.9983e-07
9.99719e-07
9.99636e-07
9.98e-07
9.9986e-07
9.99692e-07
9.99518e-07
9.99343e-07
9.99241e-07
9.99261e-07
9.99397e-07
9.99538e-07
9.99467e-07
9.9975e-07
9.99597e-07
9.99449e-07
9.99317e-07
9.9921e-07
9.9919e-07
9.99267e-07
9.99368e-07
9.99061e-07
9.99804e-07
9.99532e-07
9.99426e-07
9.99356e-07
9.99241e-07
9.99254e-07
9.99257e-07
9.99339e-07
9.98435e-07
1.00049e-06
1.00032e-06
1.00024e-06
1.00012e-06
9.99967e-07
9.99855e-07
9.99736e-07
9.99688e-07
9.9039e-07
)
;

boundaryField
{
    inlet
    {
        type            calculated;
        value           nonuniform 0();
    }
    outlet
    {
        type            calculated;
        value           uniform 1e-06;
    }
    wall
    {
        type            calculated;
        value           nonuniform List<scalar> 
63
(
9.99811e-07
9.99949e-07
1.00015e-06
1.00098e-06
9.99527e-07
9.99641e-07
9.99805e-07
1.00067e-06
9.99348e-07
9.99394e-07
9.9954e-07
1.00041e-06
9.9933e-07
9.99261e-07
9.99322e-07
1.00014e-06
9.99404e-07
9.99219e-07
9.99223e-07
9.99944e-07
9.99468e-07
9.99232e-07
9.99181e-07
9.99822e-07
9.99616e-07
9.99327e-07
9.99197e-07
9.99692e-07
9.99702e-07
9.99379e-07
9.99272e-07
9.9966e-07
9.99625e-07
9.99033e-07
9.98646e-07
9.91849e-07
1.00098e-06
1.00069e-06
1.00049e-06
1.00067e-06
1.00048e-06
1.00032e-06
1.00041e-06
1.00023e-06
1.00024e-06
1.00014e-06
9.99994e-07
1.00012e-06
9.99944e-07
9.99924e-07
9.99967e-07
9.99822e-07
9.9983e-07
9.99855e-07
9.99692e-07
9.99719e-07
9.99736e-07
9.9966e-07
9.99636e-07
9.99688e-07
9.91849e-07
9.98e-07
9.9039e-07
)
;
    }
    procBoundary3to1
    {
        type            processor;
        value           nonuniform List<scalar> 
27
(
9.99848e-07
9.9952e-07
9.99388e-07
9.99298e-07
9.99387e-07
9.99541e-07
9.99706e-07
9.99846e-07
9.99927e-07
9.9956e-07
9.99352e-07
9.99235e-07
9.99219e-07
9.9927e-07
9.99358e-07
9.99481e-07
9.99597e-07
9.99567e-07
9.9955e-07
9.99415e-07
9.99285e-07
9.9927e-07
9.9931e-07
9.9938e-07
9.99445e-07
9.99521e-07
9.99183e-07
)
;
    }
    procBoundary3to2
    {
        type            processor;
        value           nonuniform List<scalar> 
12
(
1.00019e-06
1.00029e-06
1.00052e-06
1.00127e-06
9.99907e-07
9.99998e-07
1.00013e-06
1.00089e-06
9.99983e-07
9.99903e-07
9.99998e-07
1.00066e-06
)
;
    }
    procBoundary3to7
    {
        type            processor;
        value           nonuniform List<scalar> 
36
(
9.99826e-07
9.99717e-07
9.99629e-07
9.99513e-07
9.99415e-07
9.99445e-07
9.99721e-07
9.99846e-07
9.99975e-07
9.99741e-07
9.9964e-07
9.99552e-07
9.9944e-07
9.99342e-07
9.99329e-07
9.99451e-07
9.99554e-07
9.99806e-07
9.99749e-07
9.99544e-07
9.99451e-07
9.99436e-07
9.99353e-07
9.99367e-07
9.99397e-07
9.99457e-07
9.99438e-07
1.00034e-06
1.00024e-06
1.00016e-06
1.00009e-06
1.00001e-06
9.99947e-07
9.99827e-07
9.99787e-07
9.93049e-07
)
;
    }
}


// ************************************************************************* //
