/*--------------------------------*- C++ -*----------------------------------*\
| =========                 |                                                 |
| \\      /  F ield         | OpenFOAM: The Open Source CFD Toolbox           |
|  \\    /   O peration     | Version:  4.x                                   |
|   \\  /    A nd           | Web:      www.OpenFOAM.org                      |
|    \\/     M anipulation  |                                                 |
\*---------------------------------------------------------------------------*/
FoamFile
{
    version     2.0;
    format      ascii;
    class       volScalarField;
    location    "4";
    object      p_rgh;
}
// * * * * * * * * * * * * * * * * * * * * * * * * * * * * * * * * * * * * * //

dimensions      [1 -1 -2 0 0 0 0];

internalField   nonuniform List<scalar> 
108
(
1.80605
65.2321
-21.1645
60.7797
-55.9324
79.1092
-48.6016
72.363
-76.5084
1.33778
65.5011
-24.4441
59.7287
-48.6812
70.0827
-61.8331
74.5649
-91.7534
3.07957
65.4698
-23.2097
64.9353
-46.4597
65.7722
-61.0151
71.9343
-91.6969
7.08812
70.7144
-17.8828
67.8309
-42.4575
70.4707
-64.826
77.4568
-142.894
2.15671
65.2279
-21.808
62.3803
-43.4525
70.1856
-51.3449
71.5723
-76.1552
1.77306
65.411
-21.2653
60.5548
-44.5507
67.7882
-57.1596
73.9358
-78.8135
5.69473
64.025
-15.6037
65.0422
-55.1913
61.8698
-51.9854
74.2388
-71.9851
5.83666
69.4615
-16.8977
67.5558
-43.2405
70.309
-60.174
75.3091
-92.2826
8.32778
67.2113
-12.3397
63.9869
-32.5109
68.0897
-46.505
70.6161
-63.6942
3.34039
66.1181
-19.0887
63.3281
-39.9666
67.5585
-58.1519
74.0445
-84.1197
9.86864
65.3931
-26.4183
61.2226
-41.55
67.8511
-57.174
72.1621
-82.6677
5.91462
67.7085
-18.3587
67.1692
-40.2869
69.8572
-62.8133
76.2484
-113.509
)
;

boundaryField
{
    inlet
    {
        type            fixedFluxPressure;
        gradient        nonuniform 0();
        value           nonuniform 0();
    }
    outlet
    {
        type            fixedValue;
        value           uniform 0;
    }
    wall
    {
        type            fixedFluxPressure;
        gradient        nonuniform List<scalar> 
63
(
-0.23631
0.0038956
-0.0522424
-0.00429653
-0.00386589
-0.00224569
-0.00581421
-0.00354159
-373.763
-0.0105253
-0.00963015
-0.0051436
-0.00566513
-0.00522499
-0.00428089
-0.000803491
-0.00562895
-0.0216901
-0.0135889
-0.00871468
-0.0031473
-0.000278499
0.0029545
-0.000479428
-0.163249
-0.0162208
-0.00685955
0.00487367
-0.00357854
-0.00373017
-0.00259751
-0.000527723
-0.00491502
-0.00498909
-0.000170858
0.000305285
-0.0027837
-0.00253285
0.00473959
-0.00199224
-0.000133815
-5.52851e-05
0.0100081
-0.00131911
-0.00138003
-0.00180698
-0.00131779
-0.00194614
-0.000866999
-0.00395133
-0.0043252
0.000732654
-0.000860302
-0.000853169
-0.00678126
-0.00587264
-0.00105343
-0.000593019
-0.000664059
-0.00106172
-0.00261651
-0.00164561
-0.00136852
)
;
        value           nonuniform List<scalar> 
63
(
1.80268
1.33784
3.07882
7.08806
65.232
65.5011
65.4697
70.7144
-26.504
-24.4443
-23.2098
-17.8829
60.7796
59.7286
64.9352
67.8308
-55.9325
-48.6815
-46.4599
-42.4576
79.1091
70.0827
65.7722
70.4707
-48.6039
-61.8333
-61.0152
-64.8259
72.363
74.5648
71.9343
77.4568
-76.5085
-91.7535
-91.6969
-142.894
7.08808
5.83663
5.91469
70.7144
69.4615
67.7085
-17.8827
-16.8977
-18.3587
67.8308
67.5558
67.1692
-42.4575
-43.2405
-40.2869
70.4707
70.309
69.8572
-64.8261
-60.1741
-62.8133
77.4568
75.3091
76.2484
-142.894
-92.2826
-113.509
)
;
    }
    procBoundary3to1
    {
        type            processor;
        value           nonuniform List<scalar> 
27
(
0.024977
65.2551
-24.531
60.4186
-44.6465
72.3307
-52.4413
74.7447
-72.2409
0.156295
65.6531
-23.3776
63.3368
-41.9866
70.5827
-55.4947
72.7305
-75.5741
2.40004
66.9368
-19.452
64.8465
-38.1639
68.768
-56.3752
73.2681
-82.0572
)
;
    }
    procBoundary3to2
    {
        type            processor;
        value           nonuniform List<scalar> 
12
(
74.8601
74.4779
76.2764
78.8587
72.7318
72.9513
71.9221
75.6988
72.9787
72.7456
72.9138
73.9982
)
;
    }
    procBoundary3to7
    {
        type            processor;
        value           nonuniform List<scalar> 
36
(
5.64871
67.7208
-12.3046
67.1585
-29.3356
69.9037
-44.755
75.145
-61.9288
3.18066
67.7887
-17.4199
65.914
-37.2773
67.4899
-55.8
74.2939
-68.8931
3.06081
65.2001
-16.8047
67.6356
-38.378
66.629
-56.242
72.313
-78.5594
3.54405
67.8357
-17.502
67.0159
-40.0843
69.7596
-64.0094
76.683
-102.242
)
;
    }
}


// ************************************************************************* //
