/*--------------------------------*- C++ -*----------------------------------*\
| =========                 |                                                 |
| \\      /  F ield         | OpenFOAM: The Open Source CFD Toolbox           |
|  \\    /   O peration     | Version:  4.x                                   |
|   \\  /    A nd           | Web:      www.OpenFOAM.org                      |
|    \\/     M anipulation  |                                                 |
\*---------------------------------------------------------------------------*/
FoamFile
{
    version     2.0;
    format      ascii;
    class       volScalarField;
    location    "4";
    object      QPartFluid;
}
// * * * * * * * * * * * * * * * * * * * * * * * * * * * * * * * * * * * * * //

dimensions      [1 -1 -3 0 0 0 0];

internalField   nonuniform List<scalar> 
108
(
6.38208e+09
3.39519e+09
5.44537e+09
2.81103e+09
3.97941e+09
3.45134e+09
4.75805e+09
4.41519e+09
3.74202e+09
4.9651e+09
8.66902e+09
4.56466e+09
4.97853e+09
5.02668e+09
4.9718e+09
5.94157e+09
5.67026e+09
4.47221e+09
5.53663e+09
5.93741e+09
4.11735e+09
4.37877e+09
5.16484e+09
5.36237e+09
5.92642e+09
6.89553e+09
4.21985e+09
3.98055e+09
3.73757e+09
4.5391e+09
6.36031e+09
4.21038e+09
5.89864e+09
3.53045e+09
5.31246e+09
5.21969e+09
7.71989e+09
7.72903e+09
9.30028e+09
1.03614e+10
8.61988e+09
7.66025e+09
6.75903e+09
8.50218e+09
8.51401e+09
6.90268e+09
7.64747e+09
7.93384e+09
8.09826e+09
6.88051e+09
8.11757e+09
9.65444e+09
9.48689e+09
6.50772e+09
1.1618e+10
8.7667e+09
7.15866e+09
8.41474e+09
8.18498e+09
8.61248e+09
7.41439e+09
9.58684e+09
7.73582e+09
8.12075e+09
6.9448e+09
6.66326e+09
7.77774e+09
8.84249e+09
7.54116e+09
7.13833e+09
8.33389e+09
5.7285e+09
8.59983e+09
1.10776e+10
8.91536e+09
1.14028e+10
7.07873e+09
7.89199e+09
9.49592e+09
8.25465e+09
8.22334e+09
9.61749e+09
6.21466e+09
7.46646e+09
5.26829e+09
4.83036e+09
1.01229e+10
8.4927e+09
1.23662e+10
6.54606e+09
6.65794e+09
9.11715e+09
7.47165e+09
6.65774e+09
7.26745e+09
1.03818e+10
8.50009e+09
1.05182e+10
5.71469e+09
6.34021e+09
4.97342e+09
5.85561e+09
7.43288e+09
6.71784e+09
9.04263e+09
7.02827e+09
1.04708e+10
9.41557e+09
)
;

boundaryField
{
    inlet
    {
        type            calculated;
        value           nonuniform 0();
    }
    outlet
    {
        type            calculated;
        value           uniform 0;
    }
    wall
    {
        type            calculated;
        value           uniform 0;
    }
    procBoundary3to1
    {
        type            processor;
        value           nonuniform List<scalar> 
27
(
3.42105e+09
6.34117e+09
4.9126e+09
8.30551e+09
5.15796e+09
5.2649e+09
4.35004e+09
5.56092e+09
3.60006e+09
8.5346e+09
8.14329e+09
5.97575e+09
7.20546e+09
5.41321e+09
8.85447e+09
8.73845e+09
1.3609e+10
4.2214e+09
8.07081e+09
7.99407e+09
5.42325e+09
1.15005e+10
9.03943e+09
1.10818e+10
7.72349e+09
1.06377e+10
3.82234e+09
)
;
    }
    procBoundary3to2
    {
        type            processor;
        value           nonuniform List<scalar> 
12
(
2.68157e+09
4.06284e+09
3.48007e+09
3.80238e+09
1.06367e+10
6.04601e+09
7.65052e+09
4.84246e+09
9.18262e+09
5.69757e+09
1.01481e+10
1.00746e+10
)
;
    }
    procBoundary3to7
    {
        type            processor;
        value           nonuniform List<scalar> 
36
(
1.09975e+10
9.61437e+09
6.94129e+09
8.17119e+09
1.15133e+10
1.13827e+10
8.57337e+09
7.06193e+09
9.2655e+09
7.81833e+09
1.1632e+10
7.923e+09
8.36481e+09
9.23938e+09
7.32283e+09
8.54297e+09
8.18729e+09
9.04251e+09
6.07232e+09
9.07493e+09
6.93134e+09
9.09705e+09
8.24316e+09
1.0893e+10
9.44938e+09
1.02153e+10
1.00089e+10
5.80285e+09
8.48468e+09
9.48356e+09
6.36797e+09
8.89742e+09
9.01272e+09
9.4713e+09
8.80851e+09
5.31001e+09
)
;
    }
}


// ************************************************************************* //
