/*--------------------------------*- C++ -*----------------------------------*\
| =========                 |                                                 |
| \\      /  F ield         | OpenFOAM: The Open Source CFD Toolbox           |
|  \\    /   O peration     | Version:  4.x                                   |
|   \\  /    A nd           | Web:      www.OpenFOAM.org                      |
|    \\/     M anipulation  |                                                 |
\*---------------------------------------------------------------------------*/
FoamFile
{
    version     2.0;
    format      ascii;
    class       volScalarField;
    location    "4";
    object      SPartFluid;
}
// * * * * * * * * * * * * * * * * * * * * * * * * * * * * * * * * * * * * * //

dimensions      [1 -3 -1 0 0 0 0];

internalField   nonuniform List<scalar> 
108
(
6.97468e-65
3.25557e-65
5.81342e-65
2.55746e-65
4.10551e-65
3.01911e-65
4.71717e-65
3.86441e-65
4.55764e-65
5.03697e-65
7.75092e-65
4.26327e-65
4.64979e-65
5.42284e-65
3.87092e-65
5.56983e-65
4.9487e-65
5.40947e-65
5.5022e-65
5.1932e-65
4.03076e-65
3.64249e-65
4.95879e-65
3.94992e-65
5.72724e-65
5.26148e-65
4.0217e-65
4.64968e-65
3.56523e-65
4.10797e-65
5.89011e-65
4.10699e-65
5.03575e-65
3.17532e-65
5.34247e-65
4.41251e-65
7.5171e-65
6.27871e-65
8.99155e-65
8.52414e-65
7.59049e-65
6.269e-65
6.0307e-65
6.41068e-65
9.03323e-65
6.50913e-65
6.20095e-65
7.67372e-65
7.28432e-65
6.81668e-65
6.26911e-65
8.50696e-65
7.03304e-65
6.95114e-65
1.03833e-64
7.51832e-65
7.44105e-65
8.36959e-65
6.89419e-65
7.20019e-65
6.73116e-65
7.19081e-65
7.8838e-65
7.74908e-65
5.6581e-65
6.35577e-65
6.20002e-65
8.21302e-65
5.65414e-65
6.88909e-65
6.81018e-65
5.64716e-65
7.67113e-65
8.99078e-65
8.29345e-65
9.06653e-65
6.11805e-65
6.19028e-65
8.58143e-65
6.79564e-65
7.71934e-65
8.98766e-65
5.11564e-65
7.59605e-65
4.49465e-65
4.647e-65
7.89433e-65
7.26946e-65
8.80834e-65
6.10073e-65
5.65683e-65
8.29314e-65
8.21594e-65
5.81222e-65
6.81653e-65
7.97391e-65
6.65423e-65
7.18911e-65
5.40998e-65
5.73478e-65
3.87544e-65
5.42572e-65
6.12238e-65
5.57836e-65
7.12545e-65
6.19241e-65
7.89247e-65
8.50736e-65
)
;

boundaryField
{
    inlet
    {
        type            calculated;
        value           nonuniform 0();
    }
    outlet
    {
        type            calculated;
        value           uniform 0;
    }
    wall
    {
        type            calculated;
        value           uniform 0;
    }
    procBoundary3to1
    {
        type            processor;
        value           nonuniform List<scalar> 
27
(
3.4882e-65
5.50344e-65
5.50241e-65
7.43891e-65
5.49909e-65
4.33601e-65
4.94801e-65
4.5595e-65
4.47924e-65
8.13789e-65
6.58877e-65
5.6581e-65
5.81195e-65
5.26613e-65
7.351e-65
8.04205e-65
1.02754e-64
4.86299e-65
7.90393e-65
6.35604e-65
5.1158e-65
9.06675e-65
8.28727e-65
8.74425e-65
6.80206e-65
7.87908e-65
3.47314e-65
)
;
    }
    procBoundary3to2
    {
        type            processor;
        value           nonuniform List<scalar> 
12
(
2.63406e-65
3.95106e-65
3.0987e-65
3.09899e-65
9.37322e-65
5.18991e-65
6.27413e-65
4.26042e-65
7.97789e-65
4.87954e-65
8.36547e-65
8.90788e-65
)
;
    }
    procBoundary3to7
    {
        type            processor;
        value           nonuniform List<scalar> 
36
(
9.917e-65
7.82731e-65
6.43278e-65
6.74128e-65
1.05324e-64
1.04445e-64
7.9605e-65
5.6376e-65
8.33748e-65
7.67043e-65
9.455e-65
7.28528e-65
6.7417e-65
8.442e-65
5.64983e-65
7.50102e-65
6.33574e-65
8.03144e-65
5.50112e-65
7.36259e-65
6.20016e-65
7.12924e-65
7.4369e-65
8.05224e-65
7.50509e-65
7.19062e-65
8.57749e-65
5.11403e-65
7.28495e-65
8.75799e-65
5.57975e-65
7.20604e-65
6.73809e-65
7.97305e-65
5.88137e-65
4.33263e-65
)
;
    }
}


// ************************************************************************* //
