/*--------------------------------*- C++ -*----------------------------------*\
| =========                 |                                                 |
| \\      /  F ield         | OpenFOAM: The Open Source CFD Toolbox           |
|  \\    /   O peration     | Version:  4.x                                   |
|   \\  /    A nd           | Web:      www.OpenFOAM.org                      |
|    \\/     M anipulation  |                                                 |
\*---------------------------------------------------------------------------*/
FoamFile
{
    version     2.0;
    format      ascii;
    class       volScalarField;
    location    "49";
    object      magGField;
}
// * * * * * * * * * * * * * * * * * * * * * * * * * * * * * * * * * * * * * //

dimensions      [1 -2 -1 0 0 0 0];

internalField   nonuniform List<scalar> 
114
(
55.462
111.875
64.1147
117.351
69.796
122.758
99.2969
41.8231
103.711
49.6071
107.066
54.4121
109.901
56.3082
112.372
99.9927
44.646
106.137
55.7589
111.902
63.5742
116.749
68.6651
121.358
100.329
49.0208
109.377
64.2147
118.765
76.6848
127.242
85.5456
133.238
27.3478
96.0296
23.819
98.2498
97.8766
34.1359
96.8367
28.93
95.1859
22.4258
93.8155
14.623
93.841
98.0349
37.2393
98.4855
36.6604
99.1969
35.8516
100.348
33.9681
102.551
98.6246
43.9255
103.287
51.8089
108.053
58.1844
112.43
62.3075
116.513
14.5233
92.5831
95.6658
31.198
92.3839
20.8554
89.5151
10.7069
87.2833
1.72873
86.0807
96.5756
33.4626
94.1874
26.1484
92.2363
18.8876
91.0228
10.4501
90.9874
97.3723
40.1477
99.1514
43.523
101.358
46.2975
102.055
46.4742
103.571
94.9499
29.0786
90.595
18.979
88.4931
11.1579
87.5626
4.3452
94.9766
34.3671
93.3414
30.2641
93.0273
27.6652
93.8619
96.5031
41.0438
98.4478
44.3968
100.653
47.4466
)
;

boundaryField
{
    inlet
    {
        type            calculated;
        value           uniform 67;
    }
    outlet
    {
        type            calculated;
        value           nonuniform 0();
    }
    wall
    {
        type            calculated;
        value           uniform 0;
    }
    procBoundary2to0
    {
        type            processor;
        value           nonuniform List<scalar> 
44
(
54.4084
111.344
61.6688
115.773
65.8113
117.619
100.938
44.9926
106.829
106.829
32.4388
96.1878
24.4505
94.7937
16.4721
94.9179
97.0605
35.1359
97.4392
32.4388
96.1878
96.1878
16.6232
91.4541
11.6119
90.8915
95.0715
30.6156
92.499
22.0581
90.9976
16.6232
91.4541
91.4541
9.13717
88.7258
95.1559
30.3898
91.0331
19.848
89.6
13.206
88.999
9.13717
)
;
    }
    procBoundary2to3
    {
        type            processor;
        value           nonuniform List<scalar> 
12
(
72.6023
54.5695
71.677
90.917
21.4505
7.21088
32.0076
64.169
12.0411
3.54537e-05
3.40702
43.7473
)
;
    }
    procBoundary2to6
    {
        type            processor;
        value           nonuniform List<scalar> 
32
(
87.529
26.8476
96.0707
103.272
50.1243
106.047
92.1084
26.3193
87.0649
11.7233
83.3547
1.81311
81.7847
87.529
26.8476
3.42968e-05
94.433
30.6342
90.9495
20.9808
88.2662
12.3345
26.8476
103.272
86.7735
96.2486
39.7789
96.6837
40.712
96.0006
103.272
38.6479
)
;
    }
}


// ************************************************************************* //
