/*--------------------------------*- C++ -*----------------------------------*\
| =========                 |                                                 |
| \\      /  F ield         | OpenFOAM: The Open Source CFD Toolbox           |
|  \\    /   O peration     | Version:  4.x                                   |
|   \\  /    A nd           | Web:      www.OpenFOAM.org                      |
|    \\/     M anipulation  |                                                 |
\*---------------------------------------------------------------------------*/
FoamFile
{
    version     2.0;
    format      ascii;
    class       volScalarField;
    location    "49";
    object      p_rgh;
}
// * * * * * * * * * * * * * * * * * * * * * * * * * * * * * * * * * * * * * //

dimensions      [1 -1 -2 0 0 0 0];

internalField   nonuniform List<scalar> 
114
(
74.4119
95.0422
56.0093
87.9705
37.2776
81.2207
109.246
92.2589
102.506
74.6254
95.5089
56.4395
88.4837
37.873
81.6627
108.813
92.0132
102.097
74.3712
95.1216
56.2327
88.1634
37.733
81.3253
108.525
91.9054
101.879
74.3315
94.9681
56.3471
88.0945
38.0149
81.3238
56.2094
88.5665
37.289
81.6173
110.115
92.7964
103.336
74.8883
96.235
56.5891
89.1305
37.8545
82.1385
109.63
92.4413
102.768
74.5045
95.6122
56.2128
88.4783
37.4994
81.5438
109.189
92.2499
102.411
74.4479
95.3594
56.3127
88.345
37.7908
81.4912
37.8999
81.626
110.961
93.2793
104.039
75.5642
96.6874
57.5242
89.2179
39.2138
81.7599
110.519
93.0895
103.661
75.2065
96.3656
57.0378
89.1522
38.5424
81.9819
110.035
92.8005
103.137
75.0335
95.944
57.0919
88.7879
38.6286
81.8403
111.568
93.7536
104.414
75.6887
96.9411
57.4659
89.4569
39.1694
110.934
93.2753
103.739
75.2278
96.2592
56.8468
88.7931
110.409
93.0421
103.337
75.1413
95.9797
56.8728
)
;

boundaryField
{
    inlet
    {
        type            fixedFluxPressure;
        gradient        nonuniform List<scalar> 
12
(
-3.44502e-06
-4.58454e-07
-6.10908e-07
-3.7337e-07
-3.62644e-07
-2.45275e-07
-3.52603e-07
-2.56439e-07
-2.10771e-07
-3.30695e-07
-1.3511e-07
-6.41359e-08
)
;
        value           nonuniform List<scalar> 
12
(
109.246
108.813
108.525
110.115
109.63
109.189
110.961
110.519
110.035
111.568
110.934
110.409
)
;
    }
    outlet
    {
        type            fixedValue;
        value           nonuniform 0();
    }
    wall
    {
        type            fixedFluxPressure;
        gradient        nonuniform List<scalar> 
66
(
2.29146e-07
-1.35085e-08
-2.42121e-07
-1.95351e-09
7.33317e-07
2.56704e-08
-2.10534e-07
-7.41274e-07
-1.87159e-06
-1.36126e-06
-7.82357e-07
-1.49995e-06
-4.99828e-07
-1.89848e-06
-8.2786e-07
-1.29325e-06
6.73639e-07
-3.16554e-06
-1.67752e-06
-1.4869e-06
9.73624e-07
-3.34223e-06
-2.31926e-06
-2.41297e-06
-1.59685e-06
-1.26124e-05
-7.54509e-06
-6.63884e-06
-2.26862e-06
-8.79529e-06
-6.81765e-06
-5.17698e-06
-2.86336e-06
-1.45082e-07
-3.05546e-08
-1.78865e-07
-2.44953e-07
-1.67229e-07
-2.04807e-07
-4.6522e-07
-8.25034e-07
6.58993e-08
-2.39863e-07
-2.3393e-07
-1.74945e-07
-8.64063e-07
2.67772e-09
-6.17379e-07
-9.97747e-07
-1.74037e-06
-5.61211e-07
-4.97697e-07
-5.00925e-07
-1.5008e-06
-1.8521e-06
-1.45854e-06
-9.33433e-07
-1.15501e-06
-9.81305e-07
-5.60775e-07
-5.65807e-06
-2.31095e-06
-2.15933e-06
-2.94435e-06
-9.47917e-07
-4.11797e-07
)
;
        value           nonuniform List<scalar> 
66
(
109.246
108.813
108.525
92.2589
92.0132
91.9054
102.506
102.097
101.879
74.4119
74.6254
74.3712
74.3315
95.0422
95.5089
95.1216
94.9681
56.0093
56.4395
56.2327
56.3471
87.9705
88.4837
88.1634
88.0945
37.2776
37.873
37.733
38.0149
81.2207
81.6627
81.3253
81.3238
108.525
109.189
110.035
110.409
91.9054
92.2499
92.8005
93.0421
101.879
102.411
103.137
103.337
74.3315
74.4479
75.0335
75.1413
94.9681
95.3594
95.944
95.9797
56.3471
56.3127
57.0919
56.8728
88.0945
88.345
88.7879
38.0149
37.7908
38.6286
81.3238
81.4912
81.8403
)
;
    }
    procBoundary2to0
    {
        type            processor;
        value           nonuniform List<scalar> 
44
(
74.4681
95.1674
56.1824
88.2242
37.9252
81.5334
109.054
92.1512
102.245
102.245
74.7485
95.8848
56.5096
89.0214
37.9827
82.1487
110.025
92.5624
103.085
74.7485
95.8848
95.8848
56.6288
88.7534
38.2826
81.7752
110.878
93.141
103.781
75.1546
96.2549
56.6288
88.7534
88.7534
38.7475
81.975
111.418
93.7005
104.298
75.57
96.6794
57.2805
89.0992
38.7475
)
;
    }
    procBoundary2to3
    {
        type            processor;
        value           nonuniform List<scalar> 
12
(
18.2536
19.4773
18.6357
19.2368
18.2079
19.4144
18.4526
18.9152
19.2181
21.359
19.9049
20.0583
)
;
    }
    procBoundary2to6
    {
        type            processor;
        value           nonuniform List<scalar> 
32
(
82.1174
38.0935
81.5937
88.6599
38.3974
81.6122
112.199
93.9786
104.879
76.4165
97.1297
58.3733
89.2012
82.1174
38.0935
40.5652
111.573
93.7106
104.431
75.9151
96.9614
57.6544
38.0935
88.6599
89.4688
110.971
93.4492
103.884
75.8176
96.573
88.6599
57.6087
)
;
    }
}


// ************************************************************************* //
