/*--------------------------------*- C++ -*----------------------------------*\
| =========                 |                                                 |
| \\      /  F ield         | OpenFOAM: The Open Source CFD Toolbox           |
|  \\    /   O peration     | Version:  4.x                                   |
|   \\  /    A nd           | Web:      www.OpenFOAM.org                      |
|    \\/     M anipulation  |                                                 |
\*---------------------------------------------------------------------------*/
FoamFile
{
    version     2.0;
    format      ascii;
    class       volScalarField;
    location    "49";
    object      QPartFluidCoeff;
}
// * * * * * * * * * * * * * * * * * * * * * * * * * * * * * * * * * * * * * //

dimensions      [1 -1 -3 -1 0 0 0];

internalField   nonuniform List<scalar> 
114
(
-2.37859e+07
-1.86449e+07
-1.01767e+07
-1.99048e+07
-1.21237e+07
-1.53314e+07
-1.93877e+07
-2.31045e+07
-2.04439e+07
-1.45893e+07
-2.44607e+07
-1.66389e+07
-2.33288e+07
-2.23754e+07
-1.49051e+07
-1.29297e+07
-2.05565e+07
-1.69875e+07
-1.79782e+07
-1.93746e+07
-1.7489e+07
-2.26773e+07
-1.80088e+07
-2.17124e+07
-1.32887e+07
-1.3353e+07
-1.72027e+07
-1.51408e+07
-1.31953e+07
-1.36558e+07
-1.02032e+07
-1.78088e+07
-1.32716e+07
-3.28279e+07
-4.10091e+07
-2.20442e+07
-3.74254e+07
-1.57751e+07
-2.6452e+07
-3.19725e+07
-3.05696e+07
-2.95993e+07
-2.32617e+07
-3.7148e+07
-2.89532e+07
-2.1344e+07
-1.95348e+07
-3.33839e+07
-3.55404e+07
-3.0621e+07
-3.14058e+07
-2.9579e+07
-3.05743e+07
-2.96848e+07
-2.56391e+07
-1.68817e+07
-1.7938e+07
-2.78634e+07
-2.00943e+07
-2.53339e+07
-2.17781e+07
-2.23996e+07
-2.36764e+07
-1.60689e+07
-2.69151e+07
-3.10014e+07
-2.28691e+07
-1.91122e+07
-2.24809e+07
-2.28358e+07
-2.25034e+07
-2.5516e+07
-3.26996e+07
-2.39532e+07
-1.91058e+07
-1.66388e+07
-2.317e+07
-3.02905e+07
-3.48721e+07
-3.05834e+07
-2.33062e+07
-3.15434e+07
-2.82033e+07
-3.40827e+07
-1.66983e+07
-2.53326e+07
-2.32729e+07
-2.49456e+07
-1.59325e+07
-2.27768e+07
-3.23081e+07
-1.77855e+07
-2.57807e+07
-1.6328e+07
-3.16203e+07
-3.43372e+07
-2.38557e+07
-2.74669e+07
-2.09265e+07
-2.52928e+07
-2.50315e+07
-1.95721e+07
-2.63827e+07
-3.50961e+07
-2.20767e+07
-3.0421e+07
-2.57616e+07
-3.43831e+07
-1.41965e+07
-2.10176e+07
-2.50467e+07
-2.41835e+07
-2.25229e+07
-2.16898e+07
)
;

boundaryField
{
    inlet
    {
        type            calculated;
        value           uniform 0;
    }
    outlet
    {
        type            calculated;
        value           nonuniform 0();
    }
    wall
    {
        type            calculated;
        value           uniform 0;
    }
    procBoundary2to0
    {
        type            processor;
        value           nonuniform List<scalar> 
44
(
382.726
420.609
369.533
300.85
390.831
642.899
225.145
342.631
265.222
265.222
416.567
855.423
509.263
794.782
520.795
479.596
601.942
531.91
589.273
416.567
855.423
855.423
607.843
663.567
486.219
407.648
521.954
655.382
723.749
680.402
754.057
607.843
663.567
663.567
421.598
198.192
364.942
509.042
743.491
773.828
417.027
743.799
648.051
421.598
)
;
    }
    procBoundary2to3
    {
        type            processor;
        value           nonuniform List<scalar> 
12
(
641.918
467.57
502.009
327.978
647.268
574.558
963.243
637.108
624.89
722.159
455.693
660.98
)
;
    }
    procBoundary2to6
    {
        type            processor;
        value           nonuniform List<scalar> 
32
(
613.413
515.811
678.322
431.186
471.453
425.421
752.352
676.822
459.829
603.697
836.928
459.487
658.045
613.413
515.811
504.196
476.456
696.54
618.049
771.97
669.059
659.618
515.811
431.186
661.422
353.692
573.062
450.541
464.159
657.921
431.186
714.223
)
;
    }
}


// ************************************************************************* //
