/*--------------------------------*- C++ -*----------------------------------*\
| =========                 |                                                 |
| \\      /  F ield         | OpenFOAM: The Open Source CFD Toolbox           |
|  \\    /   O peration     | Version:  4.x                                   |
|   \\  /    A nd           | Web:      www.OpenFOAM.org                      |
|    \\/     M anipulation  |                                                 |
\*---------------------------------------------------------------------------*/
FoamFile
{
    version     2.0;
    format      ascii;
    class       volScalarField;
    location    "42";
    object      Ksl;
}
// * * * * * * * * * * * * * * * * * * * * * * * * * * * * * * * * * * * * * //

dimensions      [1 -3 -1 0 0 0 0];

internalField   nonuniform List<scalar> 
108
(
4894.72
2751.41
4746.78
2584.12
4871
2387.84
5645.04
2103.58
6469.69
6370.79
3109.74
7042.76
3092.58
9140.08
3296.24
21601.6
4157.24
1e+10
4919.92
2790.06
4850.79
2638.54
5049.95
2433.59
5682.94
2032.99
5615.11
3795.31
2505.5
3778.08
2428.48
3888.51
2261.01
4251.45
1897.97
5490.27
16948.3
3445.92
20543.8
3302.53
24591
3117.43
23660.3
2859.93
9201.34
40802.4
3710.52
161761
3699.15
1e+10
3856.12
207065
4334.6
18868.7
11468.8
3329.78
11330.6
3115.15
10386.4
2771.35
8270.44
2267.6
4159.38
5399.53
2902.07
5476.33
2809.63
5906.69
2596.45
6786.57
2071.55
4919.27
34230.6
3651.07
46022.4
3618.66
41503.3
3615.2
25712.1
3777.16
8736.15
1e+10
3944.54
1e+10
3934.62
1e+10
3974.73
1e+10
4427.95
31288.3
49089.5
3680.89
107820
3558.12
45921.1
3448.54
15250.2
3406.57
5581.81
7193.05
3165.38
7612.46
3088.25
8632.84
2940.78
9666.79
2428.66
9977.79
)
;

boundaryField
{
    inlet
    {
        type            zeroGradient;
    }
    outlet
    {
        type            zeroGradient;
    }
    wall
    {
        type            zeroGradient;
    }
    procBoundary3to1
    {
        type            processor;
        value           nonuniform List<scalar> 
27
(
5376.58
2955.41
5485.67
2850.24
5747.27
2623.9
6094.91
2185.64
6346.38
41514.1
3719.18
291273
3707.73
1e+10
3817.12
57219.4
4089.43
7700.91
34547.1
3700.94
41943.7
3660.92
37453
3613.94
20212.4
3688.77
8052.52
)
;
    }
    procBoundary3to2
    {
        type            processor;
        value           nonuniform List<scalar> 
12
(
2876.95
3123.44
2912.33
2630.7
3556.46
3701.43
3432.91
2971.32
3653.74
3878.91
3727.62
3231.04
)
;
    }
    procBoundary3to7
    {
        type            processor;
        value           nonuniform List<scalar> 
36
(
1.22834e+06
3757.61
1.09981e+06
3727.81
1e+10
3782.78
1e+10
4218.11
25181.4
6.52758e+09
3825.94
1e+10
3868.39
129149
3964.5
20061.8
4220.76
6991.73
13682.6
3402.33
13748.4
3231.3
12872.1
3053.77
11284.8
2740.17
8746.85
6702.52
3056.02
6911.24
2946.9
7460.42
2840.35
8578.11
2602.42
8774.87
)
;
    }
}


// ************************************************************************* //
