/*--------------------------------*- C++ -*----------------------------------*\
| =========                 |                                                 |
| \\      /  F ield         | OpenFOAM: The Open Source CFD Toolbox           |
|  \\    /   O peration     | Version:  4.x                                   |
|   \\  /    A nd           | Web:      www.OpenFOAM.org                      |
|    \\/     M anipulation  |                                                 |
\*---------------------------------------------------------------------------*/
FoamFile
{
    version     2.0;
    format      ascii;
    class       volScalarField;
    location    "42";
    object      KslNext;
}
// * * * * * * * * * * * * * * * * * * * * * * * * * * * * * * * * * * * * * //

dimensions      [1 -3 -1 0 0 0 0];

internalField   nonuniform List<scalar> 
108
(
4894.72
2751.41
4746.78
2584.12
4871
2387.84
5645.04
2103.58
6469.69
6370.79
3109.74
7042.76
3092.58
9140.08
3296.24
21601.6
4157.24
1e+10
4919.92
2790.06
4850.79
2638.54
5049.95
2433.59
5682.94
2032.99
5615.11
3795.31
2505.5
3778.08
2428.48
3888.51
2261.01
4251.45
1897.97
5490.27
16948.3
3445.92
20543.8
3302.53
24591
3117.43
23660.3
2859.93
9201.34
40802.4
3710.52
161761
3699.15
1e+10
3856.12
207065
4334.6
18868.7
11468.8
3329.78
11330.6
3115.15
10386.4
2771.35
8270.44
2267.6
4159.38
5399.53
2902.07
5476.33
2809.63
5906.69
2596.45
6786.57
2071.55
4919.27
34230.6
3651.07
46022.4
3618.66
41503.3
3615.2
25712.1
3777.16
8736.15
1e+10
3944.54
1e+10
3934.62
1e+10
3974.73
1e+10
4427.95
31288.3
49089.5
3680.89
107820
3558.12
45921.1
3448.54
15250.2
3406.57
5581.81
7193.05
3165.38
7612.46
3088.25
8632.84
2940.78
9666.79
2428.66
9977.79
)
;

boundaryField
{
    inlet
    {
        type            zeroGradient;
    }
    outlet
    {
        type            zeroGradient;
    }
    wall
    {
        type            zeroGradient;
    }
    procBoundary3to1
    {
        type            processor;
        value           uniform 0;
    }
    procBoundary3to2
    {
        type            processor;
        value           uniform 0;
    }
    procBoundary3to7
    {
        type            processor;
        value           uniform 0;
    }
}


// ************************************************************************* //
