/*--------------------------------*- C++ -*----------------------------------*\
  =========                 |
  \\      /  F ield         | OpenFOAM: The Open Source CFD Toolbox
   \\    /   O peration     | Website:  https://openfoam.org
    \\  /    A nd           | Version:  4.x
     \\/     M anipulation  |
\*---------------------------------------------------------------------------*/
FoamFile
{
    version     2.0;
    format      ascii;
    class       vectorField;
    location    0;
    object      v;
}
// * * * * * * * * * * * * * * * * * * * * * * * * * * * * * * * * * * * * * //

356
(
( 5.62429e-09 2.19926e-09 -4.41017e-09 )  
( 1.12807e-08 6.80918e-10 -7.97376e-09 )  
( 9.33748e-09 1.25018e-08 -1.08023e-10 )  
( 7.17435e-09 4.92178e-10 -4.58306e-09 )  
( 1.48574e-08 -2.44277e-09 -1.51115e-08 )  
( 4.01197e-09 1.81863e-09 -2.95773e-09 )  
( 2.4284e-08 -6.91571e-09 -2.11945e-08 )  
( 1.24164e-08 -2.39795e-09 -1.4399e-08 )  
( 4.90791e-09 2.16868e-09 -5.21494e-09 )  
( 6.03683e-09 2.25763e-09 -7.34614e-09 )  
( 1.31623e-09 1.81287e-10 -2.60223e-09 )  
( 5.84019e-09 -9.93921e-09 -1.80984e-08 )  
( 2.15037e-08 -8.26368e-10 -1.85331e-08 )  
( 2.01155e-08 -4.43337e-09 -1.71469e-08 )  
( 1.30627e-08 6.87578e-10 -7.27233e-09 )  
( 1.42751e-08 -3.64194e-09 -1.42483e-08 )  
( 2.1111e-08 -3.56237e-09 -1.96786e-08 )  
( 2.7078e-08 -7.89438e-09 -2.22093e-08 )  
( 1.5837e-08 -2.10337e-09 -1.00985e-08 )  
( 1.51339e-08 -5.4335e-09 -1.58651e-08 )  
( 2.04477e-08 -3.63285e-09 -1.81714e-08 )  
( 3.75835e-09 9.2421e-09 -6.41525e-09 )  
( 9.82072e-09 2.25535e-09 -8.71994e-09 )  
( 2.01062e-08 -2.72804e-09 -1.68638e-08 )  
( 2.02032e-08 -5.57929e-09 -2.01738e-08 )  
( 8.89195e-09 -7.53717e-10 -9.27278e-09 )  
( 8.19467e-09 1.50454e-09 -6.5049e-09 )  
( 2.0461e-08 -6.30048e-09 -2.07875e-08 )  
( 3.52365e-09 2.68705e-10 -3.90201e-09 )  
( 8.52891e-09 1.38184e-09 -2.78872e-09 )  
( 1.64791e-08 -2.31981e-09 -1.97771e-08 )  
( 1.94192e-08 -3.04349e-09 -1.38571e-08 )  
( 1.4899e-08 6.1284e-09 -9.23683e-09 )  
( 3.20852e-09 1.37542e-10 -5.35161e-09 )  
( 1.46706e-08 -6.45707e-10 -1.59525e-08 )  
( 2.13926e-09 2.77738e-10 -3.39974e-09 )  
( 2.06677e-08 -4.51134e-09 -1.1089e-08 )  
( 1.62632e-09 2.32056e-09 -1.68214e-09 )  
( 9.63955e-09 -4.74158e-10 -8.27592e-09 )  
( 4.21003e-09 1.56541e-09 -3.98258e-09 )  
( 5.9413e-09 4.22908e-10 -8.36453e-09 )  
( 2.01134e-08 -4.58581e-09 -1.33229e-08 )  
( 2.13529e-08 -3.80077e-09 -1.58562e-08 )  
( 1.65853e-08 -8.67551e-09 -9.27512e-09 )  
( 2.62974e-08 -5.98506e-09 -2.07789e-08 )  
( 6.36274e-09 -8.37024e-10 -4.16619e-09 )  
( -2.93644e-09 -1.2557e-10 -9.48837e-09 )  
( 4.46709e-09 1.78077e-09 -1.43614e-09 )  
( 1.86121e-08 -3.67711e-09 -1.681e-08 )  
( 1.37741e-08 -3.03698e-09 -9.67472e-09 )  
( 1.39898e-08 1.55179e-10 -8.6716e-09 )  
( 1.15115e-08 -3.95111e-09 -8.42471e-09 )  
( 2.05005e-08 1.17512e-09 -1.87956e-08 )  
( 2.3636e-08 -3.06309e-09 -1.72153e-08 )  
( 1.21639e-08 3.89624e-10 -8.10387e-09 )  
( 1.96372e-08 -2.74242e-09 -1.31329e-08 )  
( 1.33854e-08 -1.82804e-09 -7.52662e-09 )  
( 2.32375e-08 -2.70296e-09 -1.95884e-08 )  
( 5.8573e-09 1.63454e-09 -5.28493e-09 )  
( 1.01252e-08 3.85124e-10 -7.354e-09 )  
( 3.67966e-09 1.23951e-09 -5.16573e-09 )  
( 1.11988e-08 -2.89947e-09 -1.11387e-08 )  
( 1.77173e-09 8.08755e-10 -2.21379e-09 )  
( 1.00713e-08 -8.35787e-10 -7.89828e-09 )  
( 1.33251e-08 -2.31962e-09 -1.06758e-08 )  
( 1.34861e-09 -7.01072e-11 -2.85729e-09 )  
( 1.52403e-08 1.39302e-08 -8.83851e-09 )  
( 1.77016e-08 -7.09406e-10 -1.59649e-08 )  
( 1.83459e-08 -3.91923e-10 -1.75671e-08 )  
( 1.54245e-08 -2.19111e-09 -1.98743e-08 )  
( 2.03098e-08 -2.59113e-09 -2.02195e-08 )  
( 2.61846e-08 -1.07537e-08 -1.95326e-08 )  
( 1.93233e-08 -2.03371e-09 -1.48802e-08 )  
( 1.61718e-08 -5.35067e-09 -1.81612e-08 )  
( 2.98232e-09 1.59603e-09 -3.69232e-09 )  
( 5.85999e-09 2.41208e-09 -2.84792e-09 )  
( 2.67964e-09 -4.79703e-10 -1.26983e-09 )  
( 1.11828e-08 1.6623e-09 -7.52369e-09 )  
( 2.55842e-08 -3.56061e-09 -1.85718e-08 )  
( 2.50926e-08 -4.76366e-09 -1.50834e-08 )  
( 3.35034e-09 9.1162e-10 -3.77561e-09 )  
( 5.16712e-09 1.06182e-09 -4.01449e-09 )  
( 8.94821e-09 -2.86742e-09 -6.74865e-09 )  
( 1.00062e-08 2.16005e-10 -9.32174e-09 )  
( 1.81839e-09 1.09078e-09 -2.63157e-09 )  
( 7.34682e-09 2.23159e-09 -4.95463e-09 )  
( 7.92949e-09 1.42917e-09 -5.7779e-09 )  
( 2.39324e-08 -4.30385e-09 -1.89515e-08 )  
( -1.4285e-09 1.12317e-09 -1.83941e-09 )  
( -3.37581e-10 6.60377e-10 -8.81196e-10 )  
( 1.58947e-08 5.19074e-11 -2.18597e-08 )  
( 1.88118e-08 -3.08293e-09 -1.00109e-08 )  
( 1.03737e-08 -1.73464e-09 -1.27309e-08 )  
( 3.20784e-09 -1.85014e-09 -4.83373e-09 )  
( 1.55311e-08 -8.39058e-10 -1.09679e-08 )  
( 9.57453e-09 1.18739e-09 -6.91447e-09 )  
( 3.50096e-10 9.5536e-10 -6.60796e-10 )  
( 1.48032e-08 7.20581e-11 -8.5577e-09 )  
( 6.16504e-09 1.07779e-09 -1.14985e-08 )  
( 1.91583e-08 -1.93325e-09 -1.71421e-08 )  
( 5.07242e-09 4.81243e-10 -1.23524e-08 )  
( 2.53697e-08 -8.7704e-09 -1.58468e-08 )  
( 2.80635e-09 8.55267e-10 -4.85412e-09 )  
( 7.63938e-09 -2.34271e-09 -1.19076e-08 )  
( -1.07556e-08 -1.72955e-09 4.39919e-10 )  
( -6.30659e-11 3.70459e-10 -3.64791e-09 )  
( 1.55206e-08 -2.21621e-09 -7.42581e-09 )  
( 1.16781e-08 -3.54581e-09 -2.31328e-08 )  
( 1.42317e-08 -5.31925e-09 -9.48195e-09 )  
( 7.43758e-09 3.35044e-10 -1.31342e-08 )  
( 1.1571e-08 5.24427e-10 -1.02712e-08 )  
( 1.2618e-08 -5.11601e-10 -1.13463e-08 )  
( 2.00271e-08 -3.37871e-10 -1.56785e-08 )  
( 1.73765e-08 5.74771e-09 -1.967e-08 )  
( 6.56483e-09 2.03667e-09 -8.19648e-09 )  
( 8.9849e-09 -5.45203e-09 -8.55209e-09 )  
( 1.4055e-08 -2.5293e-09 -9.42538e-09 )  
( 2.07775e-08 -6.8917e-09 -1.83301e-08 )  
( 1.53094e-08 6.86499e-09 -8.0402e-09 )  
( 2.05622e-08 -3.95853e-10 -1.77062e-08 )  
( 2.47562e-09 1.07899e-09 1.13829e-09 )  
( 5.96531e-09 -1.55188e-09 -1.05031e-08 )  
( 8.81814e-09 -2.40492e-09 -5.8949e-09 )  
( 1.05445e-08 9.31093e-10 -2.27647e-08 )  
( 5.64264e-09 1.65546e-09 -2.66746e-09 )  
( 4.79067e-10 3.95949e-10 -1.87263e-09 )  
( 1.80348e-08 -5.87079e-09 -1.78964e-08 )  
( 2.02208e-08 -5.72939e-09 -1.15754e-08 )  
( 1.99329e-08 -1.31971e-09 -1.50084e-08 )  
( 1.48492e-08 -1.51567e-09 -8.33532e-09 )  
( 1.70238e-08 -7.00684e-10 -2.04398e-08 )  
( 2.74312e-09 -4.85855e-10 -3.27624e-09 )  
( 1.67946e-08 -3.32672e-09 -8.91522e-09 )  
( 9.27044e-10 1.23561e-09 -2.09967e-09 )  
( 3.98738e-09 9.05887e-10 -5.13591e-09 )  
( 3.03801e-09 1.45256e-09 -6.65559e-10 )  
( 4.415e-09 4.08253e-10 -3.81845e-10 )  
( 8.44994e-09 7.91727e-10 -6.21964e-09 )  
( 2.9015e-09 1.27426e-09 -5.39492e-10 )  
( 1.33701e-08 -8.47563e-10 -1.2242e-08 )  
( 7.52581e-10 -3.6784e-10 -3.51148e-09 )  
( 2.14874e-08 -1.13937e-09 -1.65368e-08 )  
( -1.09968e-09 7.32824e-10 -4.77381e-10 )  
( 2.03335e-08 1.18116e-08 -1.73306e-08 )  
( 1.14393e-09 2.93884e-10 -1.8446e-09 )  
( 6.53877e-09 -2.21676e-09 -1.29817e-08 )  
( 5.49138e-09 -2.56072e-09 -1.44679e-08 )  
( -2.02835e-09 -2.50239e-10 -1.30087e-08 )  
( 9.39283e-09 -7.83199e-10 -1.38419e-08 )  
( 6.25255e-10 7.25975e-10 -3.66623e-09 )  
( 4.15122e-09 -1.22405e-09 -6.88478e-09 )  
( 1.06186e-09 1.68046e-09 -1.25698e-08 )  
( 6.59549e-09 -5.713e-09 -1.01495e-08 )  
( -1.23367e-09 -2.78833e-10 -4.45262e-09 )  
( 6.04438e-09 3.90353e-10 -1.79647e-08 )  
( -7.9781e-09 8.51352e-11 -1.70648e-08 )  
( 1.34201e-08 -3.41722e-09 -1.46062e-08 )  
( 1.09652e-09 4.67358e-10 -8.12989e-09 )  
( -1.34814e-09 -5.49892e-10 -3.57252e-09 )  
( 5.27196e-09 -8.77447e-10 -2.18028e-08 )  
( -6.09139e-09 3.27801e-10 -9.67628e-09 )  
( 9.30783e-09 -5.21889e-10 -1.30832e-08 )  
( -1.28574e-09 -2.80689e-09 -5.47593e-09 )  
( -3.3681e-09 -2.74206e-09 -1.54028e-08 )  
( -2.52371e-09 4.40234e-10 -1.79153e-08 )  
( 2.31748e-09 4.38983e-09 -1.16664e-08 )  
( 2.98498e-09 -2.01099e-09 -7.64622e-09 )  
( 2.95688e-09 9.54051e-10 -1.47614e-08 )  
( 3.72044e-09 -9.67705e-10 -1.95714e-08 )  
( 1.4142e-09 -1.75791e-09 -1.6621e-08 )  
( 9.59244e-09 6.30216e-10 -1.54323e-08 )  
( 6.24947e-09 9.0544e-11 -8.79909e-09 )  
( 1.01898e-09 1.64625e-09 -1.17264e-08 )  
( -3.45024e-10 3.46721e-09 -9.24386e-09 )  
( -1.51101e-10 -6.51938e-10 -2.34171e-09 )  
( -4.19372e-09 3.58682e-09 -9.91777e-09 )  
( 3.04742e-09 9.25243e-10 -1.57444e-08 )  
( -1.96239e-11 -5.28163e-10 -5.21635e-09 )  
( 4.65033e-09 4.27188e-09 -1.5487e-08 )  
( -2.01366e-09 -4.43216e-10 -6.09184e-09 )  
( 5.4169e-09 9.53242e-10 -9.48978e-09 )  
( 1.86895e-10 -2.57469e-10 -2.34206e-09 )  
( 8.85207e-09 1.60275e-09 -1.57118e-08 )  
( -9.01389e-09 -1.8952e-09 -1.07314e-08 )  
( -6.83469e-09 2.9971e-09 -1.5984e-08 )  
( 3.36863e-09 2.84326e-10 -7.42111e-09 )  
( 3.75806e-09 -3.23503e-09 -1.53743e-08 )  
( 1.52796e-09 1.63651e-10 -6.92774e-09 )  
( 3.49463e-09 2.44173e-09 -5.78088e-09 )  
( 5.20584e-09 -2.61375e-09 -1.98783e-08 )  
( 1.14953e-09 1.68232e-09 -2.13288e-09 )  
( -4.23412e-09 3.63245e-11 -1.51637e-08 )  
( -4.70247e-10 1.303e-09 -1.80333e-09 )  
( -3.17674e-09 8.87146e-10 -1.23239e-08 )  
( 6.22993e-09 -1.16638e-09 -1.58837e-08 )  
( 6.77709e-09 3.1396e-09 -1.77894e-08 )  
( 1.66782e-08 -1.41112e-09 -1.41399e-08 )  
( 9.03711e-10 -1.3197e-09 -4.74633e-09 )  
( 1.92617e-09 3.50087e-09 -6.48241e-09 )  
( 7.49411e-09 8.45612e-10 -1.03168e-08 )  
( 1.54017e-09 7.71216e-10 -4.53125e-09 )  
( 4.12711e-09 -1.12051e-09 -1.50604e-08 )  
( -1.01397e-10 1.0757e-09 -8.46448e-10 )  
( -3.13585e-10 2.79214e-10 -8.0913e-10 )  
( 6.37226e-09 -1.39178e-09 -1.17077e-08 )  
( 4.52208e-10 -3.27772e-09 -1.69455e-08 )  
( 2.92983e-09 5.8801e-09 -1.53867e-08 )  
( 1.04271e-08 -2.17343e-10 -1.80178e-08 )  
( -5.5855e-10 4.90186e-10 -1.02519e-09 )  
( -5.14328e-09 -1.78999e-09 -1.72556e-08 )  
( 3.1137e-09 5.46389e-10 -5.10416e-09 )  
( -5.60165e-09 5.49909e-10 -6.17851e-09 )  
( 3.46101e-10 2.84318e-10 -3.18382e-09 )  
( -1.54255e-09 -3.48514e-09 -6.98401e-09 )  
( -9.78271e-10 -1.10599e-09 -1.8859e-09 )  
( 1.13383e-10 -5.49455e-10 -4.19183e-09 )  
( 1.03991e-08 8.31697e-09 -1.33704e-08 )  
( -2.37459e-09 -2.08491e-09 -7.14276e-09 )  
( 9.33382e-09 -2.50334e-09 -1.38803e-08 )  
( -1.01279e-09 -1.59192e-09 -1.86982e-08 )  
( 1.4588e-08 -1.96872e-09 -1.56115e-08 )  
( 1.21713e-08 7.06257e-10 -1.48002e-08 )  
( -8.71606e-10 1.56611e-10 -5.98439e-09 )  
( 5.71865e-09 -5.69656e-10 -8.8157e-09 )  
( 2.12049e-08 5.84183e-10 -1.95271e-08 )  
( 1.23447e-08 -2.60914e-09 -1.14159e-08 )  
( 1.5609e-08 1.25675e-09 -1.50744e-08 )  
( 5.05474e-09 -3.67745e-10 -8.50354e-09 )  
( 2.45006e-10 9.44354e-11 -2.45942e-09 )  
( 8.029e-09 -4.86852e-10 -9.5111e-09 )  
( 1.57277e-08 8.56979e-10 -1.35087e-08 )  
( 1.68617e-08 -6.80824e-10 -1.70525e-08 )  
( 3.25526e-09 -5.16267e-10 -6.72673e-09 )  
( 1.72887e-08 -9.48405e-10 -1.55495e-08 )  
( 5.62166e-09 4.17498e-10 -5.64842e-09 )  
( 1.42751e-08 -5.78517e-10 -8.93051e-09 )  
( 3.71258e-10 1.85585e-09 -2.01134e-08 )  
( -9.28784e-10 2.01359e-10 -2.56369e-09 )  
( 2.08557e-10 2.93165e-09 -1.00338e-08 )  
( 2.46238e-09 -1.97455e-10 -8.08191e-09 )  
( 2.93319e-10 1.07166e-09 -1.40891e-08 )  
( -1.05654e-09 1.32626e-09 -7.82597e-09 )  
( -1.36081e-08 1.12199e-09 -8.15493e-09 )  
( -2.88984e-09 1.15963e-09 -1.57975e-08 )  
( -4.14561e-09 1.434e-09 -1.57658e-08 )  
( 8.07574e-09 -1.09689e-10 -1.62668e-08 )  
( -8.96512e-09 1.52488e-09 -2.04912e-08 )  
( -1.02138e-10 8.51382e-10 -5.53525e-09 )  
( 1.45077e-08 -3.36738e-09 -1.29009e-08 )  
( 9.18322e-09 8.38686e-10 -8.05931e-09 )  
( -8.58038e-10 3.8879e-10 -6.15432e-10 )  
( 3.05432e-09 1.26187e-09 -6.68798e-09 )  
( 1.17575e-08 -3.96513e-10 -9.07532e-09 )  
( 9.4592e-10 -3.94475e-10 -5.07807e-09 )  
( 4.01889e-10 6.05946e-10 -1.73681e-09 )  
( 1.00481e-08 -2.02119e-09 -1.42576e-08 )  
( 2.38429e-08 -6.73565e-09 -1.67347e-08 )  
( 9.13457e-09 -2.58179e-09 -9.42915e-09 )  
( 5.48427e-09 6.45626e-10 -4.04811e-09 )  
( 8.39659e-09 -1.80359e-09 -4.99556e-09 )  
( 1.67325e-09 4.20995e-10 -3.98142e-09 )  
( 6.90626e-09 -5.0112e-10 -9.69544e-09 )  
( 5.53628e-09 9.51645e-10 -7.08978e-09 )  
( 1.39296e-08 -2.83472e-09 -1.4717e-08 )  
( 3.12221e-09 -1.03166e-10 -3.49301e-09 )  
( 3.85716e-09 7.57082e-10 -6.16409e-09 )  
( 1.86449e-08 7.78892e-09 -4.77061e-09 )  
( 1.53321e-08 -4.38101e-09 -9.38254e-09 )  
( 9.09155e-09 -1.74679e-09 -7.44029e-09 )  
( -3.81547e-09 -4.15202e-09 -1.58116e-08 )  
( 1.49041e-08 1.98101e-11 -2.1645e-08 )  
( 1.79633e-08 -4.03351e-09 -1.72754e-08 )  
( -6.13765e-09 4.93501e-09 -1.35943e-08 )  
( -4.50159e-09 1.38858e-09 -1.11318e-08 )  
( 2.17919e-08 -2.51319e-09 -1.81734e-08 )  
( 6.53619e-09 -2.16843e-09 -1.04364e-08 )  
( 1.99723e-09 5.14678e-10 -2.9088e-09 )  
( 1.07079e-08 1.22497e-09 -1.65107e-08 )  
( 1.03272e-08 -2.08712e-09 -1.74022e-08 )  
( 9.93107e-09 -2.80615e-09 -1.48636e-08 )  
( 8.78773e-09 4.03476e-10 -1.19679e-08 )  
( -2.95928e-11 6.80498e-10 -2.13551e-09 )  
( 1.87945e-08 -2.40954e-09 -1.95162e-08 )  
( 1.59529e-08 -1.40121e-09 -1.5889e-08 )  
( 1.08686e-08 -1.19883e-09 -1.51518e-08 )  
( 7.26688e-09 1.94851e-09 -1.33005e-08 )  
( 9.67057e-09 -1.79118e-09 -2.14515e-08 )  
( 1.54142e-08 -2.26392e-09 -1.49543e-08 )  
( -1.81636e-10 5.89323e-10 -1.63463e-09 )  
( 3.52383e-09 9.89371e-10 -7.964e-09 )  
( 1.19775e-09 1.38618e-10 -5.23295e-09 )  
( 1.652e-08 -1.1054e-09 -1.55591e-08 )  
( 1.63452e-08 -3.71905e-09 -1.98932e-08 )  
( 1.84131e-09 8.86557e-10 4.5812e-10 )  
( 7.11855e-09 -1.04443e-09 -9.56637e-09 )  
( 4.95126e-09 8.49179e-10 -8.70416e-09 )  
( 7.29873e-10 4.95598e-09 -1.03336e-08 )  
( 1.25473e-09 -5.37139e-10 -4.96304e-09 )  
( 1.13458e-09 -1.24883e-10 -2.3036e-09 )  
( 8.71862e-09 -1.60085e-09 -1.4056e-08 )  
( 7.01515e-09 -2.33666e-10 -1.72785e-08 )  
( 2.25538e-09 -1.89563e-10 -5.06279e-09 )  
( -5.04374e-10 -1.12652e-09 -3.76076e-09 )  
( 1.32e-08 -6.53163e-09 -1.3373e-08 )  
( 2.40142e-08 -8.73386e-09 -2.01797e-08 )  
( 1.36778e-08 4.84133e-11 -8.17737e-09 )  
( 5.26105e-10 2.18344e-09 -2.40276e-09 )  
( 2.71205e-09 2.64437e-09 -5.37166e-09 )  
( 1.00814e-08 4.31751e-09 -1.94218e-09 )  
( 9.87862e-09 1.91962e-09 -5.76855e-09 )  
( -1.49492e-09 9.22489e-10 -1.44454e-09 )  
( 4.4401e-10 -3.3302e-09 -1.49218e-08 )  
( 2.11348e-08 -8.58612e-09 -5.34925e-09 )  
( 2.27133e-08 -4.91131e-09 -1.24319e-08 )  
( 1.20598e-08 1.95486e-09 -7.96884e-09 )  
( -3.12957e-09 2.00867e-10 -1.52767e-08 )  
( -1.03517e-09 1.8153e-09 -1.78179e-09 )  
( 1.19703e-08 -2.14219e-09 -8.26215e-09 )  
( 1.49056e-08 -2.40917e-09 -9.59271e-09 )  
( 2.40446e-08 -8.06741e-09 -1.8622e-08 )  
( 2.49848e-08 -5.97473e-09 -2.40862e-08 )  
( 9.02652e-09 -5.56944e-09 -1.09998e-08 )  
( 1.71845e-08 -3.38181e-09 -1.1111e-08 )  
( 6.58738e-09 6.67243e-10 -5.72051e-09 )  
( 8.57538e-09 -6.4512e-09 -7.69585e-09 )  
( 4.90626e-09 2.15427e-09 -5.43168e-09 )  
( 1.34499e-08 -4.56279e-09 -7.58107e-09 )  
( 5.71539e-09 4.50732e-09 -7.79229e-10 )  
( 2.98098e-09 1.3774e-09 -3.05458e-09 )  
( 1.17083e-08 -2.73296e-09 -5.5007e-09 )  
( 7.40386e-09 -5.48729e-09 -1.75674e-08 )  
( 1.37386e-08 -1.19214e-08 -1.42248e-08 )  
( 3.7449e-08 -1.48198e-08 -1.72663e-08 )  
( 2.40457e-08 -7.03928e-09 -1.92298e-08 )  
( 1.12371e-08 2.95839e-09 -5.55458e-09 )  
( 4.30933e-10 2.42626e-09 -4.3863e-09 )  
( 8.33067e-09 -7.64903e-11 -6.28865e-09 )  
( 3.85428e-09 4.15662e-10 -4.06313e-09 )  
( 6.38222e-09 -7.47342e-10 -7.37385e-09 )  
( 2.55381e-08 -1.47872e-08 -2.05315e-08 )  
( 1.21135e-08 -5.59051e-09 -6.21938e-09 )  
( 1.87527e-08 -9.47754e-09 -1.58935e-08 )  
( 2.67701e-08 -6.04843e-09 -7.1563e-09 )  
( -1.46445e-09 7.50928e-10 -9.67399e-10 )  
( 1.27192e-08 -3.92786e-09 -6.87529e-09 )  
( 1.55744e-08 -2.20671e-09 -1.27417e-08 )  
( 5.0913e-09 2.28405e-12 -7.48272e-09 )  
( -1.704e-09 9.0336e-10 -3.38604e-09 )  
( 5.81335e-09 -5.78866e-09 -8.36594e-09 )  
( 6.7122e-09 3.18483e-10 -6.11396e-09 )  
( -6.37293e-10 7.12858e-10 -2.02891e-09 )  
( 3.74925e-08 -4.41758e-09 -2.43032e-08 )  
( 2.43623e-09 8.48677e-10 -4.75946e-09 )  
( -1.00418e-09 1.58714e-09 -1.52034e-09 )  
( 1.20303e-08 -5.31878e-10 -9.47182e-09 )  
( -1.77991e-09 1.33392e-10 -1.88184e-09 )  
)
