/*--------------------------------*- C++ -*----------------------------------*\
| =========                 |                                                 |
| \\      /  F ield         | OpenFOAM: The Open Source CFD Toolbox           |
|  \\    /   O peration     | Version:  4.x                                   |
|   \\  /    A nd           | Web:      www.OpenFOAM.org                      |
|    \\/     M anipulation  |                                                 |
\*---------------------------------------------------------------------------*/
FoamFile
{
    version     2.0;
    format      ascii;
    class       volScalarField;
    location    "55";
    object      KslPrev;
}
// * * * * * * * * * * * * * * * * * * * * * * * * * * * * * * * * * * * * * //

dimensions      [1 -3 -1 0 0 0 0];

internalField   nonuniform List<scalar> 
108
(
4877.41
2750.14
4722.87
2577.35
4836.02
2373.87
5584.18
2082.11
6432.79
6449.28
3145.53
7279.2
3154.22
9987.21
3400.64
28755.6
4370.37
5.56598e+08
4904.38
2797.46
4853.09
2647.76
5053.72
2444.6
5707.12
2040.06
5848.2
3805.81
2519.67
3794.97
2447.55
3906.48
2287.58
4277.66
1939.03
6265.11
15808.4
3442.34
18310.1
3278.65
20602.6
3059.72
19838.2
2773.13
8317.24
44010.8
3750.38
117911
3742.78
200669
3852.92
90913.7
4364.74
19762.9
10774.3
3314.1
10540.8
3087.09
9602.97
2731.13
7785.32
2219.59
4066.97
5337.37
2899.51
5416.16
2804.97
5846.87
2587.61
6647.04
2060.54
4845.25
26237.2
3641.73
31692.8
3575.43
28276.1
3551.26
20201.6
3697.34
7931.12
6.13677e+09
4017.68
6.60594e+09
4021.97
8.69509e+09
4093.69
1e+10
4569.08
26005.3
101930
3733.18
456547
3617.62
84932
3531.34
18931.7
3528.47
6169.65
7680.4
3240.8
8445.16
3193.42
10015.9
3088.9
12109.5
2636.31
11614.2
)
;

boundaryField
{
    inlet
    {
        type            zeroGradient;
    }
    outlet
    {
        type            zeroGradient;
    }
    wall
    {
        type            zeroGradient;
    }
    procBoundary3to1
    {
        type            processor;
        value           uniform 0;
    }
    procBoundary3to2
    {
        type            processor;
        value           uniform 0;
    }
    procBoundary3to7
    {
        type            processor;
        value           uniform 0;
    }
}


// ************************************************************************* //
