/*--------------------------------*- C++ -*----------------------------------*\
| =========                 |                                                 |
| \\      /  F ield         | OpenFOAM: The Open Source CFD Toolbox           |
|  \\    /   O peration     | Version:  4.x                                   |
|   \\  /    A nd           | Web:      www.OpenFOAM.org                      |
|    \\/     M anipulation  |                                                 |
\*---------------------------------------------------------------------------*/
FoamFile
{
    version     2.0;
    format      ascii;
    class       volScalarField;
    location    "55";
    object      QWallFluid;
}
// * * * * * * * * * * * * * * * * * * * * * * * * * * * * * * * * * * * * * //

dimensions      [1 -1 -3 0 0 0 0];

internalField   nonuniform List<scalar> 
108
(
6.59879e+08
1.04501e+09
6.75459e+08
1.0999e+09
6.60702e+08
1.16401e+09
5.76891e+08
1.25144e+09
4.93334e+08
5.25863e+08
9.35969e+08
4.77197e+08
9.32125e+08
3.6815e+08
8.72689e+08
1.54397e+08
6.85441e+08
381762
6.54807e+08
1.02968e+09
6.60841e+08
1.08126e+09
6.41432e+08
1.15214e+09
5.69779e+08
1.28331e+09
5.34962e+08
1.58262e+09
2.21854e+09
1.60639e+09
2.28324e+09
1.56699e+09
2.40259e+09
1.42982e+09
2.63499e+09
1.02495e+09
0
0
0
0
0
0
0
0
0
0
0
0
0
0
0
0
0
0
0
0
0
0
0
0
0
0
0
6.00141e+08
9.88896e+08
5.96917e+08
1.02219e+09
5.63122e+08
1.0898e+09
4.97781e+08
1.26055e+09
6.14683e+08
0
0
0
0
0
0
0
0
0
0
0
0
0
0
0
0
0
0
0
0
0
0
0
0
0
0
0
4.39475e+08
8.84714e+08
4.07895e+08
8.91971e+08
3.56162e+08
9.13103e+08
2.99616e+08
1.0076e+09
2.97444e+08
)
;

boundaryField
{
    inlet
    {
        type            calculated;
        value           nonuniform 0();
    }
    outlet
    {
        type            calculated;
        value           uniform 0;
    }
    wall
    {
        type            calculated;
        value           uniform 0;
    }
    procBoundary3to1
    {
        type            processor;
        value           nonuniform List<scalar> 
27
(
6.12631e+08
9.91913e+08
6.02354e+08
1.01803e+09
5.76997e+08
1.07837e+09
5.40889e+08
1.22711e+09
5.10295e+08
0
0
0
0
0
0
0
0
0
0
0
0
0
0
0
0
0
0
)
;
    }
    procBoundary3to2
    {
        type            processor;
        value           nonuniform List<scalar> 
12
(
1.00317e+09
9.33843e+08
9.94134e+08
2.14272e+09
0
0
0
9.62492e+08
0
0
0
8.74174e+08
)
;
    }
    procBoundary3to7
    {
        type            processor;
        value           nonuniform List<scalar> 
36
(
0
0
0
0
0
0
0
0
0
0
0
0
0
0
0
0
0
0
0
0
0
0
0
0
0
0
0
4.99474e+08
9.15202e+08
4.89334e+08
9.39377e+08
4.59025e+08
9.62084e+08
3.89099e+08
1.00714e+09
3.45642e+08
)
;
    }
}


// ************************************************************************* //
