/*--------------------------------*- C++ -*----------------------------------*\
| =========                 |                                                 |
| \\      /  F ield         | OpenFOAM: The Open Source CFD Toolbox           |
|  \\    /   O peration     | Version:  4.x                                   |
|   \\  /    A nd           | Web:      www.OpenFOAM.org                      |
|    \\/     M anipulation  |                                                 |
\*---------------------------------------------------------------------------*/
FoamFile
{
    version     2.0;
    format      ascii;
    class       volScalarField;
    location    "55";
    object      SPartFluid;
}
// * * * * * * * * * * * * * * * * * * * * * * * * * * * * * * * * * * * * * //

dimensions      [1 -3 -1 0 0 0 0];

internalField   nonuniform List<scalar> 
108
(
6.97494e-65
3.255e-65
5.81256e-65
2.55754e-65
4.10758e-65
3.02258e-65
4.72767e-65
4.18507e-65
4.26234e-65
5.19253e-65
7.44006e-65
4.10755e-65
4.65007e-65
5.4251e-65
3.8751e-65
5.50268e-65
4.9601e-65
5.42484e-65
5.50257e-65
5.50257e-65
6.20009e-65
3.72006e-65
4.88259e-65
3.72008e-65
5.73516e-65
5.27014e-65
4.03009e-65
4.65006e-65
3.87505e-65
3.79756e-65
5.89009e-65
4.80508e-65
4.65009e-65
3.17757e-65
5.65763e-65
4.10759e-65
7.51748e-65
6.27756e-65
8.99012e-65
8.52512e-65
7.59511e-65
6.27763e-65
6.04514e-65
6.58755e-65
9.22234e-65
6.66505e-65
6.20007e-65
7.5176e-65
7.28511e-65
6.82011e-65
6.27762e-65
8.60273e-65
6.89766e-65
6.82009e-65
1.03851e-64
7.51761e-65
7.44011e-65
8.44763e-65
6.82012e-65
7.36264e-65
6.58765e-65
7.20768e-65
7.82768e-65
7.75011e-65
5.65758e-65
6.6651e-65
6.2001e-65
8.06013e-65
5.6576e-65
6.74264e-65
6.82015e-65
5.65763e-65
7.67267e-65
9.0677e-65
8.75765e-65
8.5251e-65
6.12254e-65
6.27756e-65
8.52512e-65
7.13006e-65
7.43999e-65
9.06765e-65
5.03758e-65
7.75012e-65
4.34005e-65
4.65004e-65
7.9051e-65
7.28511e-65
8.83514e-65
6.12258e-65
5.11508e-65
8.13762e-65
8.21512e-65
5.81258e-65
6.82008e-65
7.98261e-65
6.66511e-65
7.20763e-65
5.50258e-65
8.52512e-65
4.03006e-65
5.42508e-65
6.12259e-65
5.58008e-65
7.13011e-65
6.20011e-65
7.90514e-65
8.52513e-65
)
;

boundaryField
{
    inlet
    {
        type            calculated;
        value           nonuniform 0();
    }
    outlet
    {
        type            calculated;
        value           uniform 0;
    }
    wall
    {
        type            calculated;
        value           uniform 0;
    }
    procBoundary3to1
    {
        type            processor;
        value           nonuniform List<scalar> 
27
(
3.48744e-65
5.58e-65
5.73513e-65
7.13015e-65
5.50263e-65
4.34013e-65
4.96018e-65
4.57257e-65
4.49496e-65
8.05989e-65
6.51003e-65
6.20013e-65
5.2701e-65
5.2701e-65
7.20767e-65
7.90521e-65
1.03077e-64
4.88246e-65
7.8278e-65
6.27776e-65
5.11513e-65
9.06759e-65
8.29254e-65
8.91257e-65
6.97509e-65
7.90509e-65
3.4875e-65
)
;
    }
    procBoundary3to2
    {
        type            processor;
        value           nonuniform List<scalar> 
12
(
4.10747e-65
3.95251e-65
5.27005e-65
3.10004e-65
9.22248e-65
5.19254e-65
5.96757e-65
4.26256e-65
8.13758e-65
4.88256e-65
8.37012e-65
6.66509e-65
)
;
    }
    procBoundary3to7
    {
        type            processor;
        value           nonuniform List<scalar> 
36
(
9.92026e-65
7.82769e-65
6.43261e-65
6.74256e-65
1.06176e-64
1.03851e-64
7.98257e-65
5.65755e-65
8.37007e-65
7.67264e-65
9.45517e-65
7.2851e-65
6.89757e-65
8.29256e-65
5.65754e-65
7.51757e-65
6.43256e-65
7.9826e-65
4.80507e-65
7.44011e-65
6.12258e-65
7.13009e-65
7.44008e-65
8.06009e-65
7.51759e-65
7.20759e-65
8.60261e-65
6.5101e-65
6.5876e-65
8.68012e-65
5.50257e-65
7.28509e-65
6.74259e-65
7.90511e-65
5.89008e-65
4.34006e-65
)
;
    }
}


// ************************************************************************* //
