/*--------------------------------*- C++ -*----------------------------------*\
| =========                 |                                                 |
| \\      /  F ield         | OpenFOAM: The Open Source CFD Toolbox           |
|  \\    /   O peration     | Version:  4.x                                   |
|   \\  /    A nd           | Web:      www.OpenFOAM.org                      |
|    \\/     M anipulation  |                                                 |
\*---------------------------------------------------------------------------*/
FoamFile
{
    version     2.0;
    format      ascii;
    class       volVectorField;
    location    "55";
    object      U;
}
// * * * * * * * * * * * * * * * * * * * * * * * * * * * * * * * * * * * * * //

dimensions      [0 1 -1 0 0 0 0];

internalField   nonuniform List<vector> 
108
(
(0.0225572 -0.000355299 -0.000246707)
(0.0399011 -0.000356955 -0.000479412)
(0.0232625 -0.000467612 -0.000283939)
(0.0424929 -0.000776657 6.45009e-05)
(0.0224357 -0.00175313 -0.000447054)
(0.0455532 -0.00142564 0.00136158)
(0.0184573 -0.00465369 -0.00165065)
(0.0502081 0.000157393 0.00327896)
(0.00905277 -0.0116455 -0.00542969)
(0.0169813 -0.000448244 -0.000160609)
(0.0351651 -0.000244904 -8.05016e-05)
(0.0150572 -0.000447156 -0.000182057)
(0.0347035 -0.00022084 0.00099232)
(0.0108767 -0.000415639 -8.97843e-05)
(0.0318329 4.36476e-05 0.00242051)
(0.0036901 -8.42386e-05 -9.47895e-05)
(0.0236222 -3.27063e-05 0.00294901)
(2.02837e-06 -8.85224e-10 -3.14043e-08)
(0.02232 0.000631961 0.000120228)
(0.0394352 0.000797365 4.27764e-05)
(0.0226634 0.000880943 0.000604329)
(0.0417623 0.000792305 0.000733956)
(0.021611 0.00231593 0.00138406)
(0.0451375 0.000730013 0.00191676)
(0.0179251 0.00558397 0.0018678)
(0.0519857 -0.00267901 0.00265702)
(0.00974113 0.0144044 -7.32317e-06)
(0.0280371 -0.000650722 8.2675e-05)
(0.0428138 -0.00057365 4.64335e-05)
(0.0286529 -0.00134289 0.000482451)
(0.0448165 -0.00104926 0.00054622)
(0.0278944 -0.0018458 0.00099767)
(0.0475721 -0.00109387 0.0013261)
(0.0246584 -0.00238678 0.00191835)
(0.053682 -0.00104895 0.00269408)
(0.0133541 -0.00112918 -0.00907367)
(0.00695215 5.91303e-05 -0.000531014)
(0.0323676 0.000182616 -0.000389564)
(0.00600966 0.000120064 -0.000672295)
(0.0340072 1.42859e-05 0.000550134)
(0.00521018 0.000103984 -0.00107763)
(0.0357805 -0.000393903 0.00235541)
(0.00486436 9.93017e-07 -0.00237843)
(0.0379997 -0.0011915 0.00635204)
(0.00566058 -0.000897671 -0.0109054)
(0.00248333 -3.46645e-05 -0.000300069)
(0.029717 0.000312612 0.000202347)
(0.000915185 2.16889e-05 -0.000192326)
(0.0296457 0.000179506 0.000861547)
(0.000515234 4.886e-05 -0.000171966)
(0.0284364 -0.000369035 0.00183797)
(0.00104801 0.000315816 -0.00044374)
(0.0239478 -0.00279708 0.00293172)
(0.00371945 0.00314763 -0.00165569)
(0.0102861 0.000469628 -0.001017)
(0.0338651 0.00067379 -0.000699996)
(0.0104312 0.000871686 -0.00146084)
(0.0366401 -0.000114062 0.000200514)
(0.011132 0.00212445 -0.00252845)
(0.0411052 -0.0012457 0.00204376)
(0.0117993 0.00567182 -0.00505382)
(0.0482305 -0.00459343 0.00547601)
(0.00789213 0.0189047 -0.0149474)
(0.0202873 -0.000562782 -0.00135369)
(0.0378292 -0.000455459 -0.0010944)
(0.0201124 -0.00123922 -0.00180197)
(0.0397168 -0.00101541 -0.000750536)
(0.0186758 -0.00185447 -0.00263816)
(0.0430607 -0.0013019 0.000461249)
(0.0156884 -0.00199017 -0.00362697)
(0.0518103 -0.000618547 0.00408227)
(0.00941187 0.00199451 -0.0187798)
(0.00405236 -0.000327568 -0.000748468)
(0.0302781 -0.000216623 -0.000209829)
(0.0032997 -0.000440516 -0.000851012)
(0.0307502 -0.000503474 0.000200892)
(0.00342966 -0.000873355 -0.00143337)
(0.0305334 -0.000668376 0.00119671)
(0.00420221 -0.0016538 -0.00267688)
(0.0280923 0.00109381 0.00370102)
(0.00788092 -0.00414962 -0.00912866)
(5.32866e-08 -1.06073e-08 -1.64e-07)
(0.0272574 -0.000150816 0.000331579)
(3.34498e-08 -7.89572e-09 -1.9489e-07)
(0.0269362 7.99928e-05 0.000716668)
(-3.25301e-08 -2.35071e-08 -1.05507e-07)
(0.0264036 0.000872251 0.00187649)
(-4.81158e-09 -1.84023e-08 -3.47786e-08)
(0.0228269 0.00121253 0.00267799)
(0.00383676 -0.000165064 -0.000539028)
(0.00106257 7.8641e-05 -5.83234e-05)
(0.0296043 -0.000230767 -7.0506e-05)
(0.000235115 3.31257e-05 -2.30569e-05)
(0.0302891 -0.000331034 0.000322592)
(0.00120994 0.000339988 -0.000232533)
(0.0311013 -0.000334508 0.00116919)
(0.00482953 0.0025027 -0.00162513)
(0.029887 -0.00219789 0.00321248)
(0.00997684 0.0110312 -0.00704414)
(0.0139787 -8.26808e-05 -0.00066638)
(0.0333043 -0.000361542 -0.000265101)
(0.0126993 -0.000346141 -0.000730262)
(0.0339094 -0.00099957 0.000167179)
(0.0107412 -0.000228568 -0.00115083)
(0.0352396 -0.00126649 0.00079008)
(0.00854554 0.00038373 -0.00191255)
(0.0399859 -0.00110454 0.00270493)
(0.00600876 0.0035264 -0.00524394)
)
;

boundaryField
{
    inlet
    {
        type            fixedValue;
        value           nonuniform 0();
    }
    outlet
    {
        type            zeroGradient;
    }
    wall
    {
        type            fixedValue;
        value           uniform (0 0 0);
    }
    procBoundary3to1
    {
        type            processor;
        value           nonuniform List<vector> 
27
(
(0.0202665 0.000163555 -0.000685652)
(0.0372407 0.00030803 -0.000672049)
(0.0200481 0.000508504 -0.000955341)
(0.0388376 0.000563428 4.83534e-05)
(0.0189393 0.000240014 -0.00197315)
(0.0415768 0.000618032 0.00121692)
(0.0170744 -0.000937439 -0.00439796)
(0.0488753 0.00116777 0.00447943)
(0.0105336 -0.00408817 -0.0117713)
(0.00283567 0.00013758 -0.000174449)
(0.0297385 0.000314503 0.000158787)
(0.000866276 8.11768e-05 -8.44577e-05)
(0.0296713 0.000405867 0.000683123)
(0.000577898 6.51751e-05 -0.000110337)
(0.0287699 0.000114494 0.00180088)
(0.00231261 0.000202244 -0.00090838)
(0.0262545 -0.000418282 0.00423914)
(0.00950474 0.000502867 -0.0113174)
(0.00209604 -0.000109504 -0.000436425)
(0.0291312 1.90228e-05 9.39822e-05)
(0.0014545 -0.000110398 -0.000468091)
(0.0295864 0.00049862 7.94775e-05)
(0.00178627 -0.000283736 -0.000813276)
(0.0296324 0.000963846 0.000879664)
(0.00401434 -0.0014734 -0.00236419)
(0.0281738 0.00281634 0.00245445)
(0.00887558 -0.0068757 -0.00549933)
)
;
    }
    procBoundary3to2
    {
        type            processor;
        value           nonuniform List<vector> 
12
(
(0.0377036 -0.000249876 -0.000729837)
(0.0344868 -0.000216516 -0.000685374)
(0.0372926 0.00075412 -0.000347597)
(0.0405165 -0.000139614 -0.000284443)
(0.0309933 6.90429e-05 -0.000702974)
(0.0293137 0.000149013 -0.000311084)
(0.0320969 0.00100639 -0.00126746)
(0.0361317 -1.22303e-05 -0.00138012)
(0.0295767 -0.000140153 -0.000647627)
(0.027286 -0.000483007 9.11364e-05)
(0.0289495 -4.24293e-05 -0.000121563)
(0.0327521 0.000160735 -0.000460589)
)
;
    }
    procBoundary3to7
    {
        type            processor;
        value           nonuniform List<vector> 
36
(
(0.00210538 0.000204433 -0.000311555)
(0.0290359 0.000339664 -0.000147579)
(0.00150251 0.000302682 -0.000394834)
(0.0289998 0.000578229 -2.87129e-05)
(0.000527566 0.000159899 -0.000207376)
(0.0286011 0.000470167 0.000733017)
(0.000357673 0.000155401 -0.000194134)
(0.0246469 -0.00119425 0.00311169)
(0.00341773 0.00140889 -0.00187967)
(0.000583206 7.46255e-05 -7.31528e-05)
(0.028447 0.000230676 -0.000131188)
(0.000145591 2.91821e-05 -2.09128e-05)
(0.0280218 2.82736e-05 0.000286063)
(0.000730918 0.000232562 -8.49158e-05)
(0.0269869 -0.000732353 0.00106148)
(0.00403906 0.00217371 -0.000320097)
(0.0242522 -0.00299043 0.00152285)
(0.00957919 0.0103442 0.000780956)
(0.0092763 0.000943419 -0.000755375)
(0.0324978 0.000526078 -0.000339204)
(0.00923277 0.00136221 -0.00116604)
(0.0341199 -0.00017304 -0.000551121)
(0.00899044 0.00222734 -0.00196032)
(0.0363926 -0.00195305 -0.000479399)
(0.00814373 0.00399607 -0.00330048)
(0.0389678 -0.00560464 0.00143785)
(0.00572536 0.00918977 -0.0051616)
(0.0164557 -0.000515473 -0.0012585)
(0.0353786 -0.00034026 -0.00115304)
(0.0161901 -0.000748119 -0.00174685)
(0.0366587 -0.000543737 -0.000879068)
(0.0148166 -0.000928133 -0.00272229)
(0.0381629 -0.000567884 0.00018847)
(0.0114569 -0.000953947 -0.00451475)
(0.0402288 6.67784e-05 0.00233012)
(0.0059301 -0.000492536 -0.00865662)
)
;
    }
}


// ************************************************************************* //
