/*--------------------------------*- C++ -*----------------------------------*\
| =========                 |                                                 |
| \\      /  F ield         | OpenFOAM: The Open Source CFD Toolbox           |
|  \\    /   O peration     | Version:  4.x                                   |
|   \\  /    A nd           | Web:      www.OpenFOAM.org                      |
|    \\/     M anipulation  |                                                 |
\*---------------------------------------------------------------------------*/
FoamFile
{
    version     2.0;
    format      ascii;
    class       volScalarField;
    location    "28.5";
    object      Cs;
}
// * * * * * * * * * * * * * * * * * * * * * * * * * * * * * * * * * * * * * //

dimensions      [1 -3 0 0 0 0 0];

internalField   nonuniform List<scalar> 
108
(
334.995
334.993
334.992
334.992
334.993
334.993
334.992
334.988
335.421
334.998
334.998
334.998
334.998
334.997
334.997
334.994
334.989
336.454
334.997
334.995
334.993
334.99
334.986
334.98
334.975
334.969
335.71
334.999
334.998
334.997
334.997
334.996
334.995
334.993
334.992
342.326
334.996
334.991
334.983
334.974
334.962
334.953
334.934
334.935
334.728
334.998
334.996
334.991
334.985
334.974
334.965
334.948
334.944
334.74
334.998
334.997
334.995
334.991
334.983
334.975
334.958
334.953
334.688
334.999
334.999
334.998
334.998
334.997
334.996
334.992
334.989
334.5
334.987
334.969
334.956
334.946
334.933
334.921
334.911
334.91
334.876
334.996
334.99
334.982
334.969
334.952
334.938
334.923
334.917
334.788
334.997
334.993
334.986
334.975
334.959
334.947
334.932
334.93
334.813
334.999
334.999
334.998
334.997
334.995
334.993
334.986
334.982
334.677
)
;

boundaryField
{
    inlet
    {
        type            calculated;
        value           nonuniform 0();
    }
    outlet
    {
        type            calculated;
        value           uniform 335;
    }
    wall
    {
        type            calculated;
        value           nonuniform List<scalar> 
63
(
334.995
334.998
334.997
334.999
334.993
334.998
334.995
334.998
334.992
334.998
334.993
334.997
334.992
334.998
334.99
334.997
334.993
334.997
334.986
334.996
334.993
334.997
334.98
334.995
334.992
334.994
334.975
334.993
334.988
334.989
334.969
334.992
335.421
336.454
335.71
342.326
334.999
334.999
334.999
334.998
334.999
334.999
334.997
334.998
334.998
334.997
334.998
334.997
334.996
334.997
334.995
334.995
334.996
334.993
334.993
334.992
334.986
334.992
334.989
334.982
342.326
334.5
334.677
)
;
    }
    procBoundary3to1
    {
        type            processor;
        value           nonuniform List<scalar> 
27
(
334.999
334.998
334.998
334.997
334.996
334.994
334.988
334.983
334.973
334.995
334.991
334.985
334.977
334.962
334.952
334.933
334.936
334.862
334.986
334.976
334.967
334.958
334.947
334.938
334.93
334.924
334.86
)
;
    }
    procBoundary3to2
    {
        type            processor;
        value           nonuniform List<scalar> 
12
(
334.998
334.999
334.998
334.999
334.998
334.999
334.999
334.999
334.996
334.998
334.999
334.999
)
;
    }
    procBoundary3to7
    {
        type            processor;
        value           nonuniform List<scalar> 
36
(
334.995
334.99
334.983
334.973
334.963
334.949
334.942
334.932
334.986
334.997
334.994
334.989
334.982
334.974
334.962
334.954
334.941
334.934
334.998
334.996
334.994
334.989
334.983
334.976
334.966
334.958
334.85
334.999
334.999
334.999
334.998
334.996
334.995
334.991
334.986
334.675
)
;
    }
}


// ************************************************************************* //
