/*--------------------------------*- C++ -*----------------------------------*\
| =========                 |                                                 |
| \\      /  F ield         | OpenFOAM: The Open Source CFD Toolbox           |
|  \\    /   O peration     | Version:  4.x                                   |
|   \\  /    A nd           | Web:      www.OpenFOAM.org                      |
|    \\/     M anipulation  |                                                 |
\*---------------------------------------------------------------------------*/
FoamFile
{
    version     2.0;
    format      ascii;
    class       volScalarField;
    location    "28.5";
    object      pSmooth;
}
// * * * * * * * * * * * * * * * * * * * * * * * * * * * * * * * * * * * * * //

dimensions      [1 -1 -2 0 0 0 0];

internalField   nonuniform List<scalar> 
108
(
18.9871
74.5376
0.1
68.5559
0.1
64.2495
0.1
62.2157
0.1
19.5346
74.7263
0.1
68.7469
0.1
63.9534
0.1
60.9595
0.1
19.0197
74.6656
0.1
68.8534
0.1
64.541
0.1
62.8032
0.1
19.2645
74.588
0.1
68.8382
0.1
64.5967
0.1
64.0547
0.1
18.743
75.288
0.1
68.9013
0.1
63.8392
0.1
60.2039
0.1
19.5096
74.9896
0.286418
68.7665
0.1
63.3996
0.1
59.1444
0.1
18.8469
74.8647
0.1
68.8171
0.1
63.7911
0.1
61.3924
0.1
19.2533
74.719
0.1
68.7994
0.1
64.1473
0.1
62.8953
0.1
21.234
75.0571
1.90268
68.4803
0.1
63.1124
0.1
57.3617
0.1
20.5914
75.16
2.03414
68.7584
0.1
63.1585
0.1
58.4788
0.1
19.8798
75.0113
0.844149
68.4623
0.1
62.7347
0.1
57.6537
0.1
19.7352
74.8231
0.498215
68.6445
0.1
63.3624
0.1
60.4149
0.1
)
;

boundaryField
{
    inlet
    {
        type            zeroGradient;
    }
    outlet
    {
        type            fixedValue;
        value           uniform 0;
    }
    wall
    {
        type            zeroGradient;
    }
    procBoundary3to1
    {
        type            processor;
        value           nonuniform List<scalar> 
27
(
19.4329
74.8384
0.53841
68.8814
0.1
63.9274
0.1
60.5191
0.1
19.5804
75.2259
1.02988
68.9788
0.1
63.4153
0.1
57.486
0.1
20.2687
74.8232
2.09928
68.7223
0.1
62.8381
0.1
57.6874
0.1
)
;
    }
    procBoundary3to2
    {
        type            processor;
        value           nonuniform List<scalar> 
12
(
81.3273
81.3926
81.3303
81.131
81.7133
81.7487
81.6893
81.3877
81.6889
81.7984
81.9041
81.6604
)
;
    }
    procBoundary3to7
    {
        type            processor;
        value           nonuniform List<scalar> 
36
(
22.5175
75.1489
4.3625
68.7153
0.1
62.9421
0.1
57.1777
0.1
21.617
74.9504
3.45479
68.3868
0.1
61.8355
0.1
55.43
0.1
20.2598
74.8872
1.17344
68.5074
0.1
62.9905
0.1
59.2709
0.1
20.271
74.8453
1.11199
68.6306
0.1
63.3434
0.1
59.9582
0.1
)
;
    }
}


// ************************************************************************* //
