/*--------------------------------*- C++ -*----------------------------------*\
| =========                 |                                                 |
| \\      /  F ield         | OpenFOAM: The Open Source CFD Toolbox           |
|  \\    /   O peration     | Version:  4.x                                   |
|   \\  /    A nd           | Web:      www.OpenFOAM.org                      |
|    \\/     M anipulation  |                                                 |
\*---------------------------------------------------------------------------*/
FoamFile
{
    version     2.0;
    format      ascii;
    class       volScalarField;
    location    "28.5";
    object      QPartFluid;
}
// * * * * * * * * * * * * * * * * * * * * * * * * * * * * * * * * * * * * * //

dimensions      [1 -1 -3 0 0 0 0];

internalField   nonuniform List<scalar> 
108
(
8.48173e+09
3.8543e+09
6.72636e+09
3.24995e+09
5.00393e+09
3.78645e+09
5.52465e+09
5.14798e+09
2.68957e+09
6.30895e+09
8.94059e+09
5.0511e+09
5.61748e+09
6.24595e+09
5.13336e+09
6.14464e+09
5.71002e+09
3.76081e+09
6.64241e+09
6.81209e+09
7.09519e+09
4.95194e+09
5.90953e+09
5.36258e+09
6.74378e+09
6.98002e+09
3.88478e+09
4.34738e+09
4.31121e+09
4.68546e+09
6.68636e+09
5.5154e+09
5.52629e+09
3.62352e+09
5.56307e+09
4.53317e+09
8.55897e+09
8.04232e+09
1.01621e+10
1.0545e+10
8.36555e+09
7.88086e+09
6.72327e+09
8.47711e+09
7.29729e+09
7.7995e+09
8.14667e+09
8.41635e+09
9.11296e+09
7.77697e+09
8.0933e+09
9.63441e+09
9.03481e+09
5.77372e+09
1.2739e+10
9.93304e+09
9.02984e+09
1.13975e+10
8.4565e+09
1.01617e+10
8.11152e+09
9.83367e+09
7.69633e+09
8.42856e+09
7.16894e+09
7.31847e+09
8.05034e+09
9.19371e+09
7.67406e+09
7.30687e+09
8.70373e+09
5.57956e+09
8.09969e+09
1.07787e+10
8.9856e+09
1.01226e+10
6.43534e+09
7.65903e+09
8.9659e+09
8.4665e+09
6.97499e+09
9.71274e+09
6.22759e+09
8.18288e+09
5.02991e+09
4.37159e+09
9.51005e+09
7.68015e+09
1.10723e+10
5.14486e+09
6.05201e+09
1.03541e+10
9.18701e+09
7.27603e+09
7.32243e+09
9.93383e+09
8.0805e+09
9.28179e+09
4.87902e+09
8.78588e+09
4.90587e+09
5.83372e+09
7.04588e+09
6.51239e+09
8.72576e+09
6.5658e+09
9.64601e+09
7.70955e+09
)
;

boundaryField
{
    inlet
    {
        type            calculated;
        value           nonuniform 0();
    }
    outlet
    {
        type            calculated;
        value           uniform 0;
    }
    wall
    {
        type            calculated;
        value           uniform 0;
    }
    procBoundary3to1
    {
        type            processor;
        value           nonuniform List<scalar> 
27
(
3.95298e+09
7.09923e+09
6.22594e+09
8.92029e+09
6.23584e+09
5.71178e+09
5.47914e+09
5.96797e+09
4.0277e+09
7.90787e+09
8.49421e+09
7.16398e+09
6.81085e+09
5.7237e+09
9.16875e+09
9.17401e+09
1.28692e+10
4.19828e+09
9.1981e+09
7.7702e+09
5.36136e+09
1.09569e+10
8.63614e+09
1.04925e+10
7.3632e+09
9.61701e+09
3.3711e+09
)
;
    }
    procBoundary3to2
    {
        type            processor;
        value           nonuniform List<scalar> 
12
(
4.61208e+09
4.50439e+09
6.52538e+09
3.9843e+09
1.1221e+10
6.46541e+09
7.72287e+09
4.82597e+09
9.16034e+09
5.77677e+09
1.02573e+10
7.74795e+09
)
;
    }
    procBoundary3to7
    {
        type            processor;
        value           nonuniform List<scalar> 
36
(
1.00889e+10
9.08409e+09
6.42591e+09
7.92467e+09
1.10338e+10
1.25342e+10
8.02478e+09
6.69955e+09
6.55742e+09
7.61169e+09
1.13863e+10
7.44666e+09
8.13271e+09
8.36738e+09
6.94002e+09
7.8742e+09
7.78199e+09
7.00234e+09
5.22744e+09
9.38933e+09
6.86065e+09
8.93368e+09
8.23098e+09
1.04568e+10
8.53555e+09
9.13183e+09
6.81e+09
7.05341e+09
7.51592e+09
8.95546e+09
5.97806e+09
7.92873e+09
8.00918e+09
8.03129e+09
6.95617e+09
3.53479e+09
)
;
    }
}


// ************************************************************************* //
