/*--------------------------------*- C++ -*----------------------------------*\
| =========                 |                                                 |
| \\      /  F ield         | OpenFOAM: The Open Source CFD Toolbox           |
|  \\    /   O peration     | Version:  4.x                                   |
|   \\  /    A nd           | Web:      www.OpenFOAM.org                      |
|    \\/     M anipulation  |                                                 |
\*---------------------------------------------------------------------------*/
FoamFile
{
    version     2.0;
    format      ascii;
    class       volScalarField;
    location    "28.5";
    object      QWallFluidCoeff;
}
// * * * * * * * * * * * * * * * * * * * * * * * * * * * * * * * * * * * * * //

dimensions      [1 -1 -3 -1 0 0 0];

internalField   nonuniform List<scalar> 
108
(
-2.13281e+06
-3.40215e+06
-2.18726e+06
-3.52729e+06
-2.15191e+06
-3.57926e+06
-1.74888e+06
-3.45102e+06
-716711
-1.89941e+06
-3.23305e+06
-1.88922e+06
-3.33699e+06
-1.7872e+06
-3.37824e+06
-1.42593e+06
-3.25757e+06
-802311
-2.16515e+06
-3.41048e+06
-2.18015e+06
-3.54615e+06
-2.11124e+06
-3.68908e+06
-1.80849e+06
-3.8708e+06
-1.31686e+06
-5.34336e+06
-7.48118e+06
-5.4498e+06
-7.73804e+06
-5.31535e+06
-8.2069e+06
-4.83757e+06
-9.10878e+06
-4.33924e+06
0
0
0
0
0
0
0
0
0
0
0
0
0
0
0
0
0
0
0
0
0
0
0
0
0
0
0
-2.00078e+06
-3.31214e+06
-2.00428e+06
-3.4426e+06
-1.92424e+06
-3.70911e+06
-1.71853e+06
-4.346e+06
-2.05959e+06
0
0
0
0
0
0
0
0
0
0
0
0
0
0
0
0
0
0
0
0
0
0
0
0
0
0
0
-1.57663e+06
-3.05803e+06
-1.57701e+06
-3.16009e+06
-1.53992e+06
-3.34647e+06
-1.4901e+06
-3.82563e+06
-1.58111e+06
)
;

boundaryField
{
    inlet
    {
        type            calculated;
        value           nonuniform 0();
    }
    outlet
    {
        type            calculated;
        value           uniform 0;
    }
    wall
    {
        type            calculated;
        value           uniform 0;
    }
    procBoundary3to1
    {
        type            processor;
        value           uniform 0;
    }
    procBoundary3to2
    {
        type            processor;
        value           uniform 0;
    }
    procBoundary3to7
    {
        type            processor;
        value           uniform 0;
    }
}


// ************************************************************************* //
