/*--------------------------------*- C++ -*----------------------------------*\
| =========                 |                                                 |
| \\      /  F ield         | OpenFOAM: The Open Source CFD Toolbox           |
|  \\    /   O peration     | Version:  4.x                                   |
|   \\  /    A nd           | Web:      www.OpenFOAM.org                      |
|    \\/     M anipulation  |                                                 |
\*---------------------------------------------------------------------------*/
FoamFile
{
    version     2.0;
    format      ascii;
    class       volScalarField;
    location    "28.5";
    object      SPartFluid;
}
// * * * * * * * * * * * * * * * * * * * * * * * * * * * * * * * * * * * * * //

dimensions      [1 -3 -1 0 0 0 0];

internalField   nonuniform List<scalar> 
108
(
6.975e-65
3.255e-65
5.735e-65
2.5575e-65
4.10751e-65
3.02251e-65
4.72752e-65
4.57253e-65
3.87502e-65
5.1925e-65
7.44001e-65
4.10751e-65
4.65001e-65
5.42502e-65
3.87502e-65
5.50253e-65
5.11503e-65
5.27003e-65
5.50252e-65
5.50252e-65
6.20002e-65
3.72002e-65
4.88253e-65
3.72003e-65
5.73504e-65
5.27004e-65
4.03003e-65
4.65003e-65
3.87503e-65
3.79753e-65
5.89004e-65
4.80504e-65
4.65004e-65
3.17753e-65
5.65756e-65
4.10754e-65
7.51748e-65
6.27747e-65
9.06747e-65
8.52499e-65
7.59499e-65
6.27751e-65
6.04501e-65
6.58753e-65
8.91254e-65
6.66499e-65
6.19999e-65
7.51749e-65
7.285e-65
6.82001e-65
6.27751e-65
8.60253e-65
7.05253e-65
6.97503e-65
1.0385e-64
7.51751e-65
7.44001e-65
8.44752e-65
6.82003e-65
7.36253e-65
6.58753e-65
7.20754e-65
7.90505e-65
7.75003e-65
5.65753e-65
6.66503e-65
6.20003e-65
8.06004e-65
5.65754e-65
6.74255e-65
6.82006e-65
5.65755e-65
7.67246e-65
9.06745e-65
8.75746e-65
8.52497e-65
6.12249e-65
6.2775e-65
8.52501e-65
7.13002e-65
7.44002e-65
9.06747e-65
5.03748e-65
7.74997e-65
4.33999e-65
4.65e-65
7.90501e-65
7.28502e-65
8.83503e-65
6.12252e-65
5.115e-65
8.1375e-65
8.215e-65
5.8125e-65
6.82001e-65
7.98252e-65
6.66503e-65
7.20754e-65
5.42503e-65
8.52502e-65
4.03001e-65
5.42502e-65
6.12252e-65
5.58002e-65
7.13004e-65
6.20004e-65
7.90506e-65
8.52506e-65
)
;

boundaryField
{
    inlet
    {
        type            calculated;
        value           nonuniform 0();
    }
    outlet
    {
        type            calculated;
        value           uniform 0;
    }
    wall
    {
        type            calculated;
        value           uniform 0;
    }
    procBoundary3to1
    {
        type            processor;
        value           nonuniform List<scalar> 
27
(
3.4875e-65
5.58e-65
5.735e-65
7.13e-65
5.50251e-65
4.34002e-65
4.96002e-65
4.57253e-65
4.49503e-65
7.12998e-65
6.58748e-65
6.19998e-65
5.26999e-65
5.27e-65
7.36251e-65
8.06002e-65
1.03075e-64
4.88252e-65
8.91246e-65
6.35497e-65
5.11498e-65
9.06747e-65
8.29248e-65
8.7575e-65
6.82001e-65
7.90502e-65
3.48751e-65
)
;
    }
    procBoundary3to2
    {
        type            processor;
        value           nonuniform List<scalar> 
12
(
4.1075e-65
3.95251e-65
5.27002e-65
3.10002e-65
9.22248e-65
5.1925e-65
5.96751e-65
4.26252e-65
8.13747e-65
4.88249e-65
8.37e-65
6.66502e-65
)
;
    }
    procBoundary3to7
    {
        type            processor;
        value           nonuniform List<scalar> 
36
(
9.91995e-65
7.82746e-65
6.43247e-65
6.74248e-65
1.03075e-64
1.0385e-64
7.98251e-65
5.65751e-65
8.37002e-65
7.67248e-65
9.45497e-65
7.28498e-65
6.89748e-65
8.29249e-65
5.6575e-65
7.51752e-65
6.35502e-65
8.06003e-65
4.805e-65
7.44e-65
6.1225e-65
7.13e-65
7.44001e-65
8.06002e-65
7.51753e-65
7.20753e-65
8.60254e-65
6.51002e-65
6.58752e-65
8.68002e-65
5.50252e-65
7.28503e-65
6.74253e-65
7.90504e-65
5.89004e-65
4.34003e-65
)
;
    }
}


// ************************************************************************* //
