/*--------------------------------*- C++ -*----------------------------------*\
  =========                 |
  \\      /  F ield         | OpenFOAM: The Open Source CFD Toolbox
   \\    /   O peration     | Website:  https://openfoam.org
    \\  /    A nd           | Version:  4.x
     \\/     M anipulation  |
\*---------------------------------------------------------------------------*/
FoamFile
{
    version     2.0;
    format      ascii;
    class       Cloud<passiveParticle>;
    location    0;
    object      positions;
}
// * * * * * * * * * * * * * * * * * * * * * * * * * * * * * * * * * * * * * //

407
(
( 0.258241 -0.00231469 0.00717598 ) 0
( 0.25444 0.0363061 0.00410798 ) 9
( 0.26009 0.0751889 -0.011507 ) 27
( 0.259415 0.046957 0.0238868 ) 52
( 0.262352 0.0894542 0.0153936 ) 61
( 0.250826 0.0131562 -0.00387085 ) 0
( 0.309341 -0.00715649 0.01757 ) 36
( 0.335583 -0.00728682 0.0174776 ) 37
( 0.467306 -0.00659001 -0.00275037 ) 7
( 0.386391 -0.0140851 0.0128372 ) 4
( 0.439594 -0.0088241 -0.0044344 ) 6
( 0.398315 -0.00655315 0.0265471 ) 39
( 0.420217 -0.0111171 -0.00555371 ) 6
( 0.400547 -0.0119296 -0.00720447 ) 5
( 0.409162 -0.00887064 0.0103918 ) 5
( 0.322357 -0.00644454 0.00309123 ) 2
( 0.47169 -0.0120893 0.0157442 ) 41
( 0.294147 0.00296573 0.010084 ) 1
( 0.490171 -0.0125457 -0.0113106 ) 8
( 0.366715 -0.0128572 0.0135342 ) 4
( 0.485926 -0.00056385 0.0040128 ) 8
( 0.359099 -0.00344239 -0.00706238 ) 3
( 0.419357 -0.0111067 0.0273469 ) 40
( 0.307046 -0.0127538 -0.00740468 ) 2
( 0.42911 -0.0039917 0.0116659 ) 6
( 0.45285 -0.0100031 0.0102245 ) 7
( 0.379866 -0.012604 -0.00566226 ) 4
( 0.311934 0.0461115 0.0294671 ) 54
( 0.281459 0.0837402 0.0156821 ) 62
( 0.486895 0.0276303 0.0214407 ) 51
( 0.344092 0.0700623 -0.00228843 ) 21
( 0.459031 0.0599134 -0.00737249 ) 25
( 0.420827 0.0522435 0.0211661 ) 58
( 0.38033 0.0560128 -0.00642108 ) 22
( 0.30044 0.0547211 -0.0119564 ) 19
( 0.352545 0.0132259 0.00118356 ) 3
( 0.301662 0.0187125 0.000361746 ) 10
( 0.392889 0.0669935 0.00379211 ) 23
( 0.284626 0.0216895 -0.0129008 ) 10
( 0.368305 0.0207328 0.0159965 ) 47
( 0.398548 0.0834885 0.0130694 ) 32
( 0.437388 0.0260652 0.00860074 ) 15
( 0.468764 0.0167069 0.0149702 ) 50
( 0.421744 0.0219814 -0.00306001 ) 15
( 0.376654 0.00382745 0.0107661 ) 4
( 0.415284 0.057322 0.00318623 ) 23
( 0.296755 0.0519081 0.0181926 ) 53
( 0.345413 0.0251038 -0.0132869 ) 12
( 0.330192 0.0278391 0.0186816 ) 45
( 0.299389 0.0886766 0.023005 ) 62
( 0.442367 0.0693961 -0.00407896 ) 24
( 0.326606 0.0329218 0.000280847 ) 11
( 0.360144 0.0718309 0.0093088 ) 30
( 0.364741 0.05494 0.0291933 ) 56
( 0.431322 0.0392532 -0.00525884 ) 15
( 0.313937 0.0906435 -0.0108074 ) 29
( 0.336845 0.0470844 -0.00896514 ) 21
( 0.399293 0.0500018 -0.00558734 ) 23
( 0.315823 0.0491345 -0.00119271 ) 20
( 0.348924 0.022217 0.0184816 ) 46
( 0.428145 0.057646 -0.0119611 ) 24
( 0.287894 0.0477333 0.00126205 ) 19
( 0.387697 0.0447426 0.00946084 ) 22
( 0.314341 0.0599389 0.0155895 ) 54
( 0.49084 0.0630038 -0.0097643 ) 26
( 0.449207 0.0447089 0.000732108 ) 25
( 0.349106 0.0726535 0.0253579 ) 64
( 0.447675 0.0904992 0.0181569 ) 68
( 0.471553 0.0906148 0.0117057 ) 34
( 0.312747 0.0183109 0.0164564 ) 45
( 0.274384 0.0389867 -0.0100303 ) 9
( 0.45263 0.059769 0.0131196 ) 25
( 0.332458 0.089963 -0.00445236 ) 29
( 0.411685 0.0902199 9.08122e-05 ) 32
( 0.483982 0.0451235 -0.00915085 ) 26
( 0.390437 0.0332791 -0.0112078 ) 14
( 0.329959 0.0421263 0.0360818 ) 45
( 0.375759 0.00468286 -0.0138078 ) 4
( 0.460378 0.00112683 0.0246377 ) 41
( 0.308164 0.0724526 -0.0131131 ) 29
( 0.287322 0.0670604 -0.00314064 ) 19
( 0.399078 0.0128939 0.0254534 ) 39
( 0.490455 0.018411 0.00464176 ) 17
( 0.299368 0.0723231 0.0116666 ) 28
( 0.274991 0.00812569 0.00955664 ) 0
( 0.358851 0.0901355 0.00176075 ) 30
( 0.438434 0.0414752 0.020803 ) 49
( 0.412155 0.0105796 0.0100327 ) 5
( 0.339123 0.055687 0.0252581 ) 55
( 0.319129 0.0903892 0.0102357 ) 29
( 0.468043 0.0470795 0.014523 ) 59
( 0.473303 0.0128407 -0.00370814 ) 8
( 0.278785 0.0476778 0.0243476 ) 53
( 0.318961 0.0171192 -0.00912878 ) 11
( 0.402794 0.0256827 0.00196079 ) 14
( 0.357834 0.0901804 0.0215324 ) 64
( 0.406927 0.0692434 -0.00967386 ) 23
( 0.364748 0.0211652 -0.012173 ) 13
( 0.380836 0.0775892 0.0369187 ) 65
( 0.413019 0.0263905 0.023473 ) 48
( 0.465188 0.0398288 -0.00895213 ) 16
( 0.485399 0.0783228 0.000794481 ) 35
( 0.426638 0.0122817 0.0228904 ) 40
( 0.434321 0.0554077 0.00726838 ) 24
( 0.490023 0.00824846 0.0214591 ) 42
( 0.369766 0.0349405 0.00213622 ) 13
( 0.433911 0.0765352 0.0152296 ) 67
( 0.326097 0.074966 0.0202265 ) 63
( 0.477226 0.0325809 0.00449774 ) 17
( 0.381088 0.0189868 -0.00137566 ) 13
( 0.394954 0.00324721 0.00420449 ) 5
( 0.269842 0.0713523 0.00538427 ) 18
( 0.287169 0.0174238 0.0216778 ) 44
( 0.269317 0.031718 0.0163359 ) 43
( 0.377449 0.0789547 0.00343405 ) 31
( 0.370046 0.053146 0.0100377 ) 22
( 0.37433 0.0383866 0.0227583 ) 47
( 0.475918 0.0602653 0.00232258 ) 26
( 0.321891 0.0732738 0.000873562 ) 29
( 0.361318 0.0521716 -0.00991902 ) 22
( 0.333159 0.0146691 0.00442527 ) 11
( 0.269164 0.0493421 0.00669157 ) 18
( 0.306676 0.0363401 0.010884 ) 11
( 0.291926 0.0835734 -0.013372 ) 28
( 0.403284 0.0435215 0.0215046 ) 57
( 0.438111 0.0894438 0.000732734 ) 33
( 0.346269 0.0351331 0.0037993 ) 12
( 0.486099 0.026147 -0.0129622 ) 17
( 0.409886 0.00562483 -0.00911694 ) 5
( 0.440294 0.0105814 -0.00325874 ) 6
( 0.405245 0.0641201 0.0186063 ) 57
( 0.425309 0.090284 -0.0141915 ) 33
( 0.267759 0.0226688 -0.00135369 ) 9
( 0.393899 0.0842009 -0.00648264 ) 32
( 0.490176 0.0070286 -0.0137169 ) 8
( 0.37334 0.0904882 -0.0118447 ) 31
( 0.48991 0.0679188 0.0172479 ) 60
( 0.416762 0.038168 0.00797005 ) 15
( 0.353146 0.0106113 0.0336681 ) 37
( 0.276969 0.0902781 -0.00232496 ) 27
( 0.298771 0.0352961 -0.00968631 ) 10
( 0.388272 0.0259067 0.0155163 ) 47
( 0.267392 0.0736862 0.0265834 ) 61
( 0.350857 0.0540549 0.00746225 ) 21
( 0.471386 0.0901136 -0.00789224 ) 34
( 0.467679 0.0719854 0.0153194 ) 68
( 0.455847 0.0318019 0.0143328 ) 50
( 0.283555 0.00262524 -0.00711916 ) 1
( 0.444543 0.00860679 0.0160458 ) 41
( 0.285517 0.0286762 0.00568223 ) 10
( 0.41878 0.0892109 0.0187379 ) 67
( 0.454753 0.0238942 -0.00363929 ) 16
( 0.423857 0.0748497 -0.00177806 ) 33
( 0.343134 0.0273999 0.036872 ) 46
( 0.254137 0.0609856 0.0116377 ) 18
( 0.300289 0.0902705 0.00338119 ) 28
( 0.340749 0.0859527 0.012914 ) 30
( 0.302065 0.0050968 -0.0137634 ) 1
( 0.49047 0.0493348 0.0090789 ) 26
( 0.394207 0.0908508 0.0306146 ) 66
( 0.364643 0.0717371 -0.00998266 ) 31
( 0.490577 0.0902276 0.0151644 ) 69
( 0.257673 -0.00484324 -0.0122644 ) 0
( 0.275489 -0.0115605 0.0105503 ) 0
( 0.307844 0.0725329 0.0311004 ) 63
( 0.353358 0.00102451 0.0166717 ) 37
( 0.339657 -0.00143078 -0.00479422 ) 3
( 0.338324 0.0902319 0.0320063 ) 64
( 0.456081 0.0816242 0.00298269 ) 34
( 0.317503 0.0273488 0.0333113 ) 45
( 0.490199 0.0482959 0.0288101 ) 60
( 0.32816 0.00925945 0.0246682 ) 36
( 0.458522 0.0477117 0.0321708 ) 59
( 0.28342 0.0385218 0.0410535 ) 44
( 0.436598 0.0666677 0.0444412 ) 90
( 0.331779 0.057576 0.00705089 ) 20
( 0.363231 -0.00488771 0.0411337 ) 38
( 0.254301 0.0363333 0.0525364 ) 75
( 0.472457 -0.00322956 0.0457944 ) 74
( 0.318218 0.0509973 0.0496185 ) 86
( 0.301939 0.0904664 0.0424155 ) 62
( 0.382496 0.061885 0.0479581 ) 88
( 0.354963 0.0843433 0.0536616 ) 96
( 0.490343 0.032704 0.0595718 ) 83
( 0.433874 -0.00719405 0.0483331 ) 72
( 0.430162 0.0897036 0.0516735 ) 99
( 0.36427 0.0559826 0.0525512 ) 88
( 0.352233 0.0411471 0.0223056 ) 46
( 0.284908 0.0898894 0.0541465 ) 94
( 0.475753 0.0231571 0.049786 ) 83
( 0.267713 0.0494577 0.0459919 ) 84
( 0.393108 0.0140139 0.0624771 ) 71
( 0.46859 0.0901705 0.0487684 ) 100
( 0.417417 -0.000687157 0.0572502 ) 72
( 0.443313 0.0273875 0.0509666 ) 81
( 0.364046 0.0342541 0.0540247 ) 79
( 0.413989 0.0522873 0.0544561 ) 89
( 0.455149 0.0609631 0.0467736 ) 91
( 0.285772 0.0516477 0.0564401 ) 85
( 0.405746 0.0864686 0.0555705 ) 98
( 0.270243 0.0250131 0.0533116 ) 75
( 0.254943 0.0604251 0.0563108 ) 84
( 0.40524 0.0356527 0.0601829 ) 80
( 0.344415 0.0332104 0.0557884 ) 78
( 0.490525 0.090331 0.0544454 ) 101
( 0.398026 -0.00473298 0.0586359 ) 71
( 0.419925 0.0707301 0.0690455 ) 90
( 0.382042 0.040084 0.0598786 ) 79
( 0.286303 0.067674 0.0258994 ) 53
( 0.426477 0.0361903 0.055815 ) 81
( 0.375904 0.0808104 0.0556502 ) 97
( 0.376806 0.00344126 0.0596454 ) 70
( 0.377346 0.0887217 0.0208468 ) 65
( 0.312635 0.0302058 0.0604565 ) 77
( 0.333953 0.0765065 0.0610131 ) 96
( 0.268792 0.0728764 0.0633795 ) 93
( 0.474104 0.0646284 0.0479885 ) 92
( 0.34556 0.0612956 0.0650902 ) 87
( 0.461344 0.00238915 0.0606484 ) 73
( 0.450229 0.0905217 0.0563325 ) 100
( 0.443365 0.00830601 0.055246 ) 72
( 0.31159 0.0697304 0.0522431 ) 86
( 0.389756 0.0556766 0.0304554 ) 57
( 0.490253 -0.0051853 0.0539743 ) 74
( 0.400813 0.066491 0.0532711 ) 89
( 0.474612 0.0441753 0.0619865 ) 92
( 0.418714 0.0730005 0.0490277 ) 99
( 0.455071 0.0717519 0.0304463 ) 68
( 0.436539 0.0549335 0.0609257 ) 90
( 0.379386 0.0252439 0.0464852 ) 79
( 0.490403 0.066311 0.0370787 ) 60
( 0.469183 0.030998 0.0300559 ) 50
( 0.308677 0.0875757 0.0605891 ) 95
( 0.438118 0.0746294 0.0621146 ) 99
( 0.303256 0.0200587 0.0441225 ) 76
( 0.260105 0.0901076 0.0351502 ) 61
( 0.291721 0.0216707 0.0738477 ) 106
( 0.265426 0.032481 0.0357416 ) 43
( 0.457877 0.0230843 0.0627182 ) 82
( 0.449443 0.0301388 0.032649 ) 50
( 0.337514 0.0548411 0.0487419 ) 87
( 0.426884 0.0169751 0.0494605 ) 81
( 0.292599 0.0734086 0.0438854 ) 94
( 0.395478 0.0473243 0.0476433 ) 89
( 0.341883 -0.0103268 0.0356755 ) 37
( 0.363529 0.0141738 0.0497956 ) 70
( 0.3669 0.0906257 0.039102 ) 65
( 0.490505 0.0131842 0.0623166 ) 74
( 0.490588 0.0108879 0.0426452 ) 42
( 0.458406 0.0153343 0.0447758 ) 82
( 0.40775 0.0188107 0.0502798 ) 80
( 0.40112 0.0536863 0.0716612 ) 119
( 0.391637 0.0106211 0.0433587 ) 71
( 0.383105 -0.00621254 0.0389718 ) 38
( 0.425274 0.0469901 0.0393362 ) 58
( 0.470644 0.0844508 0.030253 ) 68
( 0.438423 -0.00526211 0.0292714 ) 40
( 0.379397 0.0582611 0.0668662 ) 88
( 0.433576 0.0893907 0.0321198 ) 67
( 0.376529 0.068483 0.0202515 ) 56
( 0.284554 0.0155001 0.0410235 ) 44
( 0.301804 0.0401284 0.0479858 ) 76
( 0.376164 0.0443397 0.0415341 ) 56
( 0.345947 0.0901367 0.0703556 ) 96
( 0.362443 0.0706091 0.0658359 ) 88
( 0.490104 0.089868 0.0348347 ) 69
( 0.362222 0.0713022 0.0401826 ) 56
( 0.490562 0.0513642 0.0527069 ) 92
( 0.273496 0.0684271 0.0447407 ) 84
( 0.437987 0.0604589 0.0261025 ) 58
( 0.32671 0.0900891 0.0484982 ) 95
( 0.490278 0.0320032 0.0399942 ) 51
( 0.26497 0.0901398 0.054393 ) 93
( 0.270174 0.0421732 0.0643282 ) 75
( 0.322997 0.0610528 0.0660692 ) 86
( 0.341137 0.0741886 0.0431195 ) 96
( 0.414585 0.0900329 0.0381743 ) 66
( 0.459974 0.0378685 0.050186 ) 82
( 0.452905 -0.00395845 0.0427932 ) 41
( 0.408863 0.0565629 0.0362305 ) 57
( 0.484195 -0.00780282 0.0308857 ) 42
( 0.440969 0.012831 0.0362341 ) 40
( 0.360045 0.0459375 0.0689257 ) 87
( 0.399752 0.0732984 0.0351494 ) 66
( 0.288334 0.0703169 0.0628574 ) 85
( 0.395913 0.0729413 0.0707175 ) 98
( 0.473775 0.0121541 0.0332954 ) 42
( 0.415346 0.00498642 0.0382554 ) 39
( 0.317958 0.0899495 0.0305999 ) 63
( 0.327936 0.0248848 0.0496048 ) 77
( 0.473916 0.0595457 0.0287845 ) 60
( 0.362969 0.0278678 0.0352591 ) 47
( 0.476438 0.0809429 0.063752 ) 101
( 0.47574 0.023532 0.0693735 ) 83
( 0.282758 0.0900846 0.0344349 ) 62
( 0.421414 0.0708708 0.0295719 ) 58
( 0.45294 0.0901961 0.0369332 ) 68
( 0.409426 0.0357731 0.0403246 ) 48
( 0.325094 0.0642633 0.0366893 ) 54
( 0.424219 0.0900706 0.0705638 ) 99
( 0.458491 0.0735541 0.0614347 ) 100
( 0.429777 0.0288481 0.0336571 ) 49
( 0.296109 0.0552641 0.0374566 ) 53
( 0.425372 0.0121526 0.0702145 ) 72
( 0.292065 0.0892934 0.0725923 ) 124
( 0.304304 0.0546681 0.0630785 ) 85
( 0.40496 0.0901736 0.0749052 ) 128
( 0.355829 0.0267425 0.0703142 ) 78
( 0.365892 0.0901198 0.0710398 ) 97
( 0.37551 0.0224863 0.0657122 ) 79
( 0.390974 0.0338579 0.0333572 ) 48
( 0.268342 0.016922 0.0712243 ) 75
( 0.489904 0.0542037 0.0722439 ) 122
( 0.47582 0.045167 0.0419774 ) 60
( 0.297937 0.0322457 0.029193 ) 44
( 0.352646 0.0444822 0.0416242 ) 55
( 0.252381 0.0887529 0.0726051 ) 123
( 0.446366 0.0385768 0.0673593 ) 82
( 0.418979 0.0450175 0.0716276 ) 120
( 0.327249 0.0417099 0.066604 ) 77
( 0.445406 -0.00452364 0.0699557 ) 73
( 0.416957 0.0605278 0.0857703 ) 120
( 0.458088 0.0542946 0.0650786 ) 91
( 0.289384 0.0272098 0.0558787 ) 76
( 0.374331 0.0108196 0.0334153 ) 38
( 0.339675 0.0737714 0.0797413 ) 126
( 0.31764 0.00537415 0.0407925 ) 36
( 0.490733 0.0297924 0.0793276 ) 113
( 0.305195 0.0725838 0.0729659 ) 124
( 0.30687 0.031866 0.0821319 ) 107
( 0.25086 0.0264884 0.0720136 ) 105
( 0.27802 0.0575476 0.0742443 ) 115
( 0.39187 0.0301151 0.0735595 ) 110
( 0.490565 -0.0142532 0.0714879 ) 104
( 0.434634 0.0529528 0.0804111 ) 120
( 0.385811 0.0907745 0.0695637 ) 97
( 0.325113 0.0904191 0.0711036 ) 95
( 0.444531 0.0147218 0.073712 ) 112
( 0.463308 -0.0090277 0.0768433 ) 103
( 0.377608 0.0751885 0.0767978 ) 127
( 0.443372 0.0458916 0.0447459 ) 90
( 0.449375 0.0699735 0.0782548 ) 121
( 0.443494 0.0884931 0.0746261 ) 129
( 0.490721 0.0705846 0.056103 ) 92
( 0.385438 0.0468262 0.0817268 ) 118
( 0.272274 0.0900797 0.0727779 ) 123
( 0.272858 0.0332666 0.0818115 ) 105
( 0.342555 0.046863 0.0777849 ) 117
( 0.358825 0.0768868 0.0842073 ) 126
( 0.490084 0.0104915 0.0896796 ) 104
( 0.467355 0.0381539 0.079198 ) 112
( 0.314181 0.0500993 0.0798135 ) 116
( 0.465265 0.0102384 0.0781249 ) 103
( 0.318486 0.0181031 0.0742455 ) 107
( 0.370584 0.0340388 0.0808676 ) 109
( 0.258493 0.0618206 0.0757552 ) 114
( 0.400004 0.0716214 0.0898337 ) 128
( 0.287961 0.0725765 0.0826128 ) 124
( 0.462493 0.0905179 0.0720036 ) 130
( 0.490756 0.0754969 0.0751257 ) 131
( 0.417173 0.0803323 0.0873972 ) 129
( 0.431101 0.0301221 0.076661 ) 111
( 0.392909 0.0900836 0.0903638 ) 128
( 0.366459 0.0590867 0.0814433 ) 118
( 0.338914 0.0276971 0.0801859 ) 108
( 0.429821 -0.0108482 0.0796551 ) 102
( 0.472923 0.0642302 0.0738424 ) 122
( 0.305342 0.0900622 0.0871944 ) 124
( 0.450936 0.0329242 0.0900737 ) 112
( 0.292613 0.0424986 0.0732144 ) 106
( 0.490284 0.0461837 0.0902478 ) 122
( 0.403228 0.0470046 0.0903088 ) 119
( 0.453628 0.0517097 0.0842603 ) 121
( 0.263113 0.089904 0.0902548 ) 123
( 0.410731 0.0281679 0.0774922 ) 110
( 0.264589 0.049836 0.0902465 ) 114
( 0.320722 0.0715891 0.0849272 ) 125
( 0.4777 -0.0050906 0.0900998 ) 104
( 0.384628 0.0242733 0.0905906 ) 109
( 0.33061 0.0555829 0.0905513 ) 116
( 0.269726 0.0707814 0.0901037 ) 114
( 0.34606 0.0903104 0.0902455 ) 126
( 0.324421 0.0367917 0.0901932 ) 107
( 0.256315 0.0270832 0.0905694 ) 105
( 0.434024 0.070228 0.0903589 ) 120
( 0.465538 0.0725263 0.0901928 ) 130
( 0.356469 0.0173304 0.0901501 ) 108
( 0.434583 0.00548923 0.08848 ) 102
( 0.289735 0.0286227 0.0910919 ) 106
( 0.475184 0.0236871 0.0902129 ) 113
( 0.490006 0.0900014 0.0900751 ) 131
( 0.282997 0.0900801 0.0902322 ) 124
( 0.382377 0.0637778 0.0911597 ) 118
( 0.451877 0.0131277 0.0912594 ) 103
( 0.303592 0.0629737 0.0902767 ) 115
( 0.486335 0.0658852 0.0906878 ) 122
( 0.422255 0.0419693 0.0905927 ) 111
( 0.284153 0.0474692 0.090247 ) 115
( 0.47185 0.0531025 0.0907639 ) 121
( 0.349571 0.0604861 0.0905038 ) 117
( 0.372915 0.0900005 0.0900752 ) 127
( 0.324784 0.0901532 0.090544 ) 125
( 0.456476 0.0902626 0.090471 ) 130
( 0.421901 0.0197887 0.0906931 ) 111
( 0.326672 0.0172111 0.0911855 ) 107
( 0.353969 0.0370759 0.0905034 ) 108
( 0.433358 0.0905404 0.0906395 ) 129
)
