/*--------------------------------*- C++ -*----------------------------------*\
| =========                 |                                                 |
| \\      /  F ield         | OpenFOAM: The Open Source CFD Toolbox           |
|  \\    /   O peration     | Version:  4.x                                   |
|   \\  /    A nd           | Web:      www.OpenFOAM.org                      |
|    \\/     M anipulation  |                                                 |
\*---------------------------------------------------------------------------*/
FoamFile
{
    version     2.0;
    format      ascii;
    class       volVectorField;
    location    "29";
    object      Us;
}
// * * * * * * * * * * * * * * * * * * * * * * * * * * * * * * * * * * * * * //

dimensions      [0 1 -1 0 0 0 0];

internalField   nonuniform List<vector> 
108
(
(-1.42557e-10 -3.71564e-11 -2.10913e-10)
(1.56771e-10 -5.50544e-11 -4.47072e-10)
(-7.68423e-10 -5.19325e-11 -8.58011e-10)
(5.49551e-10 -2.67748e-10 -1.49469e-09)
(1.54277e-09 -4.3444e-10 -2.55784e-09)
(3.28423e-09 7.8685e-10 -4.24134e-09)
(2.40973e-09 3.8302e-11 -3.79407e-09)
(3.00813e-09 -1.70632e-10 -4.72785e-09)
(-1.95048e-09 1.6907e-09 -1.96932e-09)
(-1.43735e-10 -5.24755e-11 -6.22207e-10)
(-4.43435e-10 1.62309e-10 -7.68874e-10)
(-6.98459e-10 -6.56959e-10 -1.67593e-09)
(-3.15366e-10 -6.37582e-10 -3.00546e-09)
(-1.32723e-10 -1.52252e-09 -4.3659e-09)
(1.88761e-09 5.74203e-11 -5.98297e-09)
(1.43812e-09 -1.3624e-10 -5.1179e-09)
(8.20156e-10 9.74186e-10 -5.97613e-09)
(-1.69666e-09 3.59597e-09 -4.14083e-09)
(-3.36926e-10 -6.08337e-12 -7.82108e-10)
(-7.14527e-10 -2.6103e-10 -1.92312e-09)
(-1.70697e-09 -7.166e-10 -2.64961e-09)
(-2.25282e-09 -3.6466e-10 -4.57698e-09)
(-2.66877e-09 -1.5244e-09 -5.43164e-09)
(-1.87411e-09 -1.1322e-10 -5.46824e-09)
(-1.81331e-09 7.32695e-10 -5.81789e-09)
(-8.33378e-10 -1.4244e-10 -6.97678e-09)
(-1.02952e-09 2.75934e-09 -5.4166e-09)
(-3.1967e-10 5.65973e-11 -1.15781e-09)
(-8.39193e-10 1.39807e-13 -1.74835e-09)
(-2.15382e-09 -1.16471e-10 -2.21046e-09)
(-3.47625e-09 1.17887e-10 -3.04775e-09)
(-4.02302e-09 -3.87748e-10 -5.01657e-09)
(-3.61676e-09 9.89892e-11 -6.07136e-09)
(-4.52422e-09 2.84695e-09 -4.50181e-09)
(-2.23615e-09 9.75683e-10 -5.79716e-09)
(-1.41797e-10 1.18305e-09 -4.88412e-09)
(-1.00006e-10 1.2859e-10 -1.92423e-10)
(-6.51462e-11 1.80695e-10 -3.79843e-10)
(-4.97774e-10 1.4122e-10 -7.39415e-10)
(-5.53492e-11 1.11252e-10 -1.16937e-09)
(-1.45178e-10 5.89028e-11 -1.78271e-09)
(7.643e-10 3.59005e-10 -2.14008e-09)
(4.976e-10 5.52413e-10 -1.96527e-09)
(1.02303e-09 3.67192e-10 -2.54287e-09)
(-6.50198e-10 9.99028e-10 -1.6269e-09)
(-1.42698e-10 -4.50013e-11 -5.38281e-10)
(-1.11964e-10 7.26556e-11 -6.71487e-10)
(-4.21711e-10 3.68458e-11 -1.0398e-09)
(2.41318e-11 -1.38453e-10 -2.40992e-09)
(-4.57745e-10 1.22046e-10 -3.06738e-09)
(4.80804e-10 2.51464e-10 -3.26542e-09)
(2.04282e-10 -1.6007e-10 -3.4826e-09)
(-2.68981e-11 2.79236e-11 -3.91843e-09)
(-9.01609e-10 2.30442e-09 -3.68229e-09)
(-2.52418e-10 2.4297e-11 -4.2525e-10)
(-5.11519e-10 2.6523e-11 -1.14388e-09)
(-1.25627e-09 -4.356e-10 -1.347e-09)
(-1.52534e-09 -3.41623e-10 -2.43229e-09)
(-2.35004e-09 -5.31167e-10 -3.21442e-09)
(-9.28903e-10 5.90662e-10 -3.66475e-09)
(-9.3648e-10 7.66876e-10 -3.58942e-09)
(-1.24898e-09 1.21233e-09 -3.9756e-09)
(-2.36572e-09 2.58356e-09 -4.35844e-09)
(-3.53749e-10 1.90257e-10 -4.72178e-10)
(-5.38185e-10 2.39817e-10 -8.27944e-10)
(-1.71807e-09 1.49329e-10 -1.11604e-09)
(-1.92073e-09 5.40096e-11 -1.65745e-09)
(-2.67836e-09 1.42063e-10 -2.85861e-09)
(-2.34322e-09 1.05732e-09 -2.81325e-09)
(-1.58726e-09 1.11861e-09 -2.0868e-09)
(-7.18932e-10 7.94491e-10 -3.28612e-09)
(1.15587e-09 1.92156e-09 -1.93018e-09)
(-2.21067e-10 1.34289e-10 4.3683e-10)
(-2.03955e-11 1.09608e-10 -6.21445e-11)
(-4.44336e-10 1.7807e-10 -1.2938e-10)
(-2.60603e-10 1.20859e-10 -4.7074e-10)
(-9.79293e-11 3.94358e-10 -4.88387e-10)
(2.30368e-10 4.50222e-10 -5.75683e-10)
(4.83812e-10 7.03619e-10 -1.10718e-09)
(1.61392e-10 3.51671e-10 -1.027e-09)
(-4.78985e-10 7.56297e-10 -4.52594e-10)
(-5.84155e-10 -3.16515e-11 9.1359e-10)
(-1.79974e-10 4.82302e-11 -1.97245e-10)
(-2.50837e-10 -1.41765e-10 -4.30603e-10)
(-6.81753e-11 1.81708e-11 -5.33463e-10)
(-7.3138e-10 2.71747e-10 -1.1221e-09)
(8.99564e-10 -5.55967e-11 -8.16832e-10)
(-3.69747e-11 6.7496e-11 -9.39901e-10)
(1.06872e-11 6.03202e-10 -1.72974e-09)
(-7.21019e-10 1.29682e-09 -1.62233e-09)
(-3.73525e-10 1.0639e-10 9.53431e-11)
(-4.08221e-10 1.15679e-10 -1.513e-10)
(-6.25919e-10 -6.09994e-11 -4.43354e-10)
(-6.79042e-10 4.11877e-11 -6.63336e-10)
(-1.20911e-09 2.47155e-10 -1.40587e-09)
(3.56363e-10 2.7665e-10 -1.36247e-09)
(-5.28358e-10 5.77788e-10 -1.16301e-09)
(-1.2577e-10 1.05884e-09 -1.60354e-09)
(-1.42594e-09 2.35756e-09 -1.48751e-09)
(-3.43305e-10 1.81645e-10 -3.80246e-11)
(-2.66586e-10 3.29257e-10 8.86421e-12)
(-9.62235e-10 -1.3989e-10 -2.92732e-10)
(-5.23209e-10 4.3292e-11 -7.69015e-10)
(-7.71874e-10 1.31203e-10 -9.50415e-10)
(-2.58029e-10 8.1727e-10 -6.65024e-10)
(2.91039e-10 8.54975e-10 -6.25898e-10)
(2.41682e-08 -1.28933e-08 -1.1413e-09)
(3.26637e-09 1.38257e-09 -1.14856e-09)
)
;

boundaryField
{
    inlet
    {
        type            zeroGradient;
    }
    outlet
    {
        type            zeroGradient;
    }
    wall
    {
        type            zeroGradient;
    }
    procBoundary4to0
    {
        type            processor;
        value           nonuniform List<vector> 
36
(
(-1.00381e-10 3.30671e-10 -4.26727e-10)
(2.41339e-11 -1.20793e-10 -1.36486e-09)
(2.38558e-10 7.58397e-10 -1.60183e-09)
(9.46194e-10 -2.86351e-10 -2.65586e-09)
(2.01375e-09 2.65632e-11 -3.46358e-09)
(4.17412e-09 2.64986e-11 -5.86517e-09)
(4.27629e-09 -3.9761e-10 -5.61932e-09)
(3.04837e-09 1.03489e-09 -7.07729e-09)
(1.05309e-09 1.2524e-09 -3.6399e-09)
(-7.3863e-11 1.38958e-10 -8.2481e-10)
(2.3346e-10 -3.4059e-10 -1.95891e-09)
(1.83371e-13 -7.00471e-10 -3.0156e-09)
(2.04154e-09 -7.43337e-10 -4.74508e-09)
(3.58251e-09 -1.47733e-09 -5.72966e-09)
(3.24688e-09 -1.20367e-09 -7.72654e-09)
(2.7774e-09 -3.89075e-10 -6.59371e-09)
(1.97244e-09 5.49284e-10 -8.22309e-09)
(1.78472e-09 2.26457e-09 -6.10505e-09)
(-2.39706e-10 -1.52879e-10 -1.97873e-09)
(-1.28098e-11 -1.19985e-10 -2.8554e-09)
(1.19621e-10 -2.58743e-10 -3.47778e-09)
(-1.03399e-09 -7.07825e-10 -5.87663e-09)
(2.15854e-09 -5.07945e-10 -7.18793e-09)
(2.56145e-10 -7.70222e-10 -8.94032e-09)
(4.45795e-10 -3.04848e-10 -7.93818e-09)
(5.33532e-10 -1.50556e-10 -8.52013e-09)
(-7.85017e-10 1.6279e-09 -5.88492e-09)
(-3.44192e-10 -6.36901e-11 -1.78039e-09)
(3.75076e-10 1.02061e-10 -3.23883e-09)
(-1.35718e-09 3.9732e-10 -3.90965e-09)
(-2.5726e-09 4.97454e-10 -5.91073e-09)
(-2.20241e-09 -1.4384e-10 -8.06975e-09)
(1.28862e-10 1.49052e-11 -8.95068e-09)
(-3.66039e-10 9.29342e-10 -8.43818e-09)
(-7.85434e-10 6.06917e-10 -7.2161e-09)
(4.77978e-09 -9.52374e-10 -7.07671e-09)
)
;
    }
    procBoundary4to5
    {
        type            processor;
        value           nonuniform List<vector> 
12
(
(6.3837e-10 1.01817e-09 -4.04688e-09)
(1.11191e-09 2.55586e-09 -5.43914e-09)
(1.74806e-09 3.01517e-09 -6.05515e-09)
(2.94469e-09 1.74344e-09 -4.99452e-09)
(-1.02555e-10 1.51809e-09 -2.65321e-09)
(-2.23221e-10 3.2997e-09 -3.15706e-09)
(4.13079e-10 5.47035e-09 -3.49045e-09)
(4.77966e-09 4.40234e-09 -6.72925e-10)
(5.06241e-10 9.14202e-10 -8.3495e-10)
(-2.40906e-10 1.26891e-09 -1.26659e-09)
(1.33206e-09 2.44092e-09 -9.06983e-10)
(4.91904e-09 3.38116e-09 -1.2982e-09)
)
;
    }
    procBoundary4to6
    {
        type            processor;
        value           nonuniform List<vector> 
27
(
(-2.95626e-10 3.20267e-10 -1.08132e-09)
(-6.29362e-10 5.79062e-10 -2.03508e-09)
(-1.72482e-09 7.19427e-10 -2.32855e-09)
(-2.17053e-09 5.95955e-10 -3.58229e-09)
(-2.06181e-09 4.54728e-10 -5.4123e-09)
(1.13503e-10 7.45979e-10 -4.06292e-09)
(8.70374e-10 8.04109e-10 -4.29099e-09)
(2.64037e-09 1.83931e-09 -4.54506e-09)
(3.69722e-09 1.65133e-10 -4.11849e-09)
(-1.35316e-10 2.32779e-10 -4.69312e-10)
(-8.06423e-10 7.07737e-10 -1.02747e-09)
(-1.78377e-09 6.97323e-10 -8.96494e-10)
(-1.50505e-09 5.47347e-10 -1.84993e-09)
(-1.78552e-09 1.43638e-10 -2.25552e-09)
(-9.61752e-10 9.4717e-10 -2.324e-09)
(5.70718e-11 8.42984e-10 -2.4658e-09)
(1.37657e-09 1.76237e-09 -3.11335e-09)
(2.71133e-09 7.49936e-10 -2.73707e-09)
(-1.1313e-10 1.60543e-10 -1.50429e-10)
(-1.23331e-10 3.92361e-10 -3.08045e-10)
(-7.71519e-10 3.03312e-10 -2.84246e-10)
(-5.00658e-10 2.86492e-10 -6.48225e-10)
(-7.13845e-10 3.07196e-10 -5.16804e-10)
(-5.80539e-10 9.16403e-10 -7.42536e-10)
(4.00983e-10 8.10506e-10 -7.85652e-10)
(2.00259e-09 1.00008e-09 -1.20029e-09)
(3.47542e-09 1.5268e-09 -4.59295e-10)
)
;
    }
}


// ************************************************************************* //
