/*--------------------------------*- C++ -*----------------------------------*\
| =========                 |                                                 |
| \\      /  F ield         | OpenFOAM: The Open Source CFD Toolbox           |
|  \\    /   O peration     | Version:  4.x                                   |
|   \\  /    A nd           | Web:      www.OpenFOAM.org                      |
|    \\/     M anipulation  |                                                 |
\*---------------------------------------------------------------------------*/
FoamFile
{
    version     2.0;
    format      ascii;
    class       volScalarField;
    location    "29.5";
    object      QPartFluid;
}
// * * * * * * * * * * * * * * * * * * * * * * * * * * * * * * * * * * * * * //

dimensions      [1 -1 -3 0 0 0 0];

internalField   nonuniform List<scalar> 
132
(
5.18299e+09
4.26005e+09
3.69931e+09
2.96869e+09
4.32307e+09
4.49732e+09
5.88637e+09
3.94938e+09
2.02473e+09
4.64953e+09
5.10683e+09
5.53077e+09
5.60856e+09
3.85109e+09
6.74207e+09
5.33391e+09
5.81941e+09
5.26815e+09
3.11609e+09
5.88041e+09
5.75102e+09
5.07668e+09
5.57593e+09
4.90877e+09
3.99826e+09
5.19566e+09
8.53572e+09
2.97747e+09
4.5352e+09
3.5088e+09
4.26483e+09
6.98197e+09
8.63777e+09
7.59344e+09
7.74954e+09
7.6124e+09
7.13399e+09
6.79753e+09
7.27369e+09
4.98013e+09
9.46759e+09
8.01848e+09
8.53043e+09
9.62186e+09
8.6509e+09
9.21751e+09
9.28485e+09
9.00315e+09
5.29765e+09
9.46294e+09
8.40614e+09
7.53387e+09
9.06634e+09
6.78749e+09
1.05334e+10
6.92951e+09
6.3561e+09
7.96252e+09
7.04371e+09
7.79326e+09
5.51047e+09
1.13218e+10
5.58483e+09
6.96726e+09
8.13301e+09
6.95831e+09
7.48241e+09
5.66293e+09
8.04129e+09
7.03767e+09
5.40221e+09
6.24708e+09
8.28029e+09
7.98558e+09
6.90629e+09
9.26804e+09
6.70195e+09
9.41973e+09
1.00912e+10
1.01085e+10
6.70402e+09
7.18724e+09
8.07012e+09
9.23242e+09
9.78631e+09
7.9459e+09
9.1501e+09
6.24503e+09
5.34511e+09
6.90178e+09
8.63119e+09
9.53502e+09
8.86179e+09
9.89911e+09
7.92469e+09
8.66185e+09
4.34746e+09
4.999e+09
6.76473e+09
5.20123e+09
7.08594e+09
7.80655e+09
5.91324e+09
4.36492e+09
6.06118e+09
5.1317e+09
9.60836e+09
9.09395e+09
8.09746e+09
7.20753e+09
6.69732e+09
1.04523e+10
7.29468e+09
6.94363e+09
5.18082e+09
5.60771e+09
9.03513e+09
6.15615e+09
8.68223e+09
8.51187e+09
8.20654e+09
4.9521e+09
9.31281e+09
4.8213e+09
6.7233e+09
9.79865e+09
1.01935e+10
5.46633e+09
9.74551e+09
8.45975e+09
5.47948e+09
2.58634e+09
)
;

boundaryField
{
    inlet
    {
        type            calculated;
        value           uniform 0;
    }
    outlet
    {
        type            calculated;
        value           nonuniform 0();
    }
    wall
    {
        type            calculated;
        value           uniform 0;
    }
    procBoundary0to1
    {
        type            processor;
        value           nonuniform List<scalar> 
12
(
4.32065e+09
4.56594e+09
3.95651e+09
7.45057e+09
9.08611e+09
7.94056e+09
7.07761e+09
6.40685e+09
9.23351e+09
6.57238e+09
7.938e+09
5.82914e+09
)
;
    }
    procBoundary0to2
    {
        type            processor;
        value           nonuniform List<scalar> 
44
(
7.14295e+09
5.59329e+09
3.06518e+09
5.98083e+09
3.64782e+09
4.61147e+09
5.81342e+09
6.93905e+09
7.14295e+09
6.13511e+09
7.14295e+09
5.59329e+09
9.85546e+09
1.22633e+10
6.6236e+09
1.12266e+10
4.73011e+09
7.95051e+09
9.60277e+09
9.21599e+09
9.85546e+09
8.91156e+09
9.85546e+09
1.22633e+10
7.7737e+09
9.16183e+09
6.86009e+09
5.7489e+09
6.75287e+09
6.89903e+09
6.77851e+09
7.78411e+09
7.7737e+09
9.8627e+09
7.7737e+09
9.16183e+09
4.89333e+09
9.49571e+09
1.03004e+10
7.19104e+09
8.23966e+09
6.30197e+09
7.57752e+09
7.62248e+09
)
;
    }
    procBoundary0to4
    {
        type            processor;
        value           nonuniform List<scalar> 
36
(
4.92304e+09
7.10895e+09
8.42133e+09
5.9745e+09
7.14817e+09
5.97749e+09
8.92561e+09
6.85283e+09
9.62729e+09
7.01799e+09
7.29183e+09
9.38388e+09
1.00258e+10
1.01107e+10
8.55491e+09
8.12215e+09
5.70575e+09
1.11128e+10
6.68763e+09
1.0278e+10
8.31436e+09
9.35703e+09
8.11725e+09
6.28933e+09
7.29736e+09
1.03028e+10
6.73719e+09
3.45787e+09
6.73282e+09
9.39617e+09
5.71619e+09
8.79844e+09
6.70702e+09
1.10054e+10
6.02299e+09
7.04112e+09
)
;
    }
    procBoundary0to6
    {
        type            processor;
        value           uniform 8.08384e+09;
    }
    procBoundary0to7
    {
        type            processor;
        value           uniform 9.96526e+09;
    }
}


// ************************************************************************* //
