/*--------------------------------*- C++ -*----------------------------------*\
| =========                 |                                                 |
| \\      /  F ield         | OpenFOAM: The Open Source CFD Toolbox           |
|  \\    /   O peration     | Version:  4.x                                   |
|   \\  /    A nd           | Web:      www.OpenFOAM.org                      |
|    \\/     M anipulation  |                                                 |
\*---------------------------------------------------------------------------*/
FoamFile
{
    version     2.0;
    format      ascii;
    class       volVectorField;
    location    "1.5";
    object      DDtUrel;
}
// * * * * * * * * * * * * * * * * * * * * * * * * * * * * * * * * * * * * * //

dimensions      [0 1 -2 0 0 0 0];

internalField   nonuniform List<vector> 
87
(
(0.0822278 0.00147038 0.00430766)
(0.0769349 0.00183083 0.00385731)
(0.0648784 0.00225665 0.00323426)
(0.0456687 0.00273468 0.0024342)
(0.0231005 0.0032849 0.00175078)
(0.000895194 0.00234861 0.00116891)
(-0.0258817 0.00171377 0.00143384)
(-0.0652333 0.00184934 0.00226192)
(-0.0797867 0.00094927 0.00460328)
(0.0799135 0.000350021 0.00379359)
(0.0747261 0.000105171 0.00304682)
(0.0638098 -0.000309778 0.00220622)
(0.0467909 -0.000393681 0.0012497)
(0.025793 -5.52905e-05 0.000497329)
(0.00311123 0.00059972 0.000321726)
(-0.0245323 0.00135813 0.000839122)
(-0.0647127 0.00152234 0.00104431)
(-0.0785468 0.000616671 0.00160045)
(0.0765744 0.000121499 0.00344966)
(0.0722182 -0.000453274 0.0028269)
(0.0626308 -0.00113492 0.00218157)
(0.0476537 -0.00139702 0.00118695)
(0.0274582 -0.0011206 0.000314702)
(0.00450003 -0.000140838 -4.12974e-05)
(-0.0240478 0.00107343 -0.000123131)
(-0.0639383 0.00135445 -0.00042479)
(-0.0777172 0.00084183 -0.000110505)
(0.0794376 0.00121239 0.00360386)
(0.0745151 0.00163787 0.00262888)
(0.0639518 0.0021075 0.00197318)
(0.0466618 0.00260125 0.00130265)
(0.0251615 0.00309831 0.000550137)
(0.000609829 0.00200677 0.00031166)
(-0.0284918 0.00123729 -0.000367205)
(-0.0713604 -0.000411725 0.0016821)
(-0.0850882 -0.00325912 0.00609848)
(0.0763183 0.000599333 0.00359163)
(0.0715697 0.000426687 0.00271049)
(0.0610476 8.32422e-05 0.00183863)
(0.0447746 -0.000226674 0.000883624)
(0.0240303 -0.000256078 -2.06796e-05)
(0.000395878 -0.000213734 -0.000466043)
(-0.0283449 -0.00033166 -0.000317049)
(-0.0696013 -0.000866806 0.000682333)
(-0.0809411 -0.00211459 0.00211136)
(0.0729497 0.000354543 0.0033887)
(0.0686302 -4.63961e-06 0.00252178)
(0.0589128 -0.000634814 0.00172354)
(0.0443016 -0.00103555 0.000866712)
(0.0246721 -0.00117898 -3.09059e-05)
(0.00177693 -0.000836294 -0.000661459)
(-0.0270722 -0.000489808 -0.000763932)
(-0.0666818 -0.000481573 -0.000865751)
(-0.0787786 -0.000766052 -0.00059001)
(0.0778416 0.0016333 0.00225991)
(0.071433 0.00257569 0.000907865)
(0.0592141 0.00288439 -0.00022924)
(0.0425417 0.00298877 -0.00106075)
(0.0225866 0.00330512 -0.00163946)
(-0.00199605 0.00151843 -0.00186906)
(-0.0289049 0.000347478 -0.00264451)
(-0.0770658 -0.00409814 0.00133469)
(-0.0947475 -0.00965143 0.00522765)
(0.0722108 0.000788084 0.00258077)
(0.0667524 0.00071361 0.00172254)
(0.0555294 0.000674485 0.000720465)
(0.040228 0.000576111 -0.000120587)
(0.0208697 0.000363328 -0.000867331)
(-0.00246427 -0.000358614 -0.00133606)
(-0.0306214 -0.00123221 -0.00166822)
(-0.0729236 -0.00393194 -8.03923e-05)
(-0.0832901 -0.00718484 0.00220624)
(0.0679809 0.000445998 0.0025757)
(0.0634416 0.000348123 0.00179241)
(0.0534813 1.86445e-05 0.00093933)
(0.0392801 -0.000264484 0.000305454)
(0.0210345 -0.000560628 -0.000361727)
(-0.000793848 -0.000769064 -0.000981387)
(-0.028781 -0.00135519 -0.00110115)
(-0.0688175 -0.00254605 -0.000787796)
(-0.0806226 -0.0037415 -0.000606406)
(0.073657 0.00180326 0.000614295)
(0.0664617 0.00287621 -0.000112131)
(0.0539468 0.00345405 -0.00154184)
(0.0673897 0.000952637 0.00136015)
(0.0610658 0.000985396 0.000578323)
(0.063102 0.000494627 0.00148143)
)
;

boundaryField
{
    inlet
    {
        type            calculated;
        value           nonuniform 0();
    }
    outlet
    {
        type            calculated;
        value           nonuniform List<vector> 9((-0.114605 0.0119316 0.0168099) (-0.114704 0.0043879 -0.00207339) (-0.116738 0.00320699 0.0010085) (-0.128941 -0.00931486 0.0399222) (-0.111865 0.000404968 0.00410645) (-0.11353 0.00258754 -0.00677904) (-0.212755 -0.0421681 0.0499141) (-0.0952369 -0.0276513 0.0182674) (-0.114192 -0.0106305 -0.0122022));
    }
    wall
    {
        type            calculated;
        value           nonuniform List<vector> 
57
(
(0.107216 0.00606232 0.00778818)
(0.102761 -0.00184067 0.00408733)
(0.0898574 0.000939773 0.00265506)
(0.11305 0.00750896 0.010693)
(0.103901 -0.00390092 0.00261076)
(0.0968385 -0.00331402 0.00304037)
(0.0941252 0.010414 0.0107989)
(0.0923661 -0.00790835 0.000660514)
(0.0890345 -0.00789223 0.00458098)
(0.0500811 0.0124716 0.00915949)
(0.0667901 -0.00877507 -0.00175953)
(0.0753388 -0.00937741 0.00158885)
(0.00742673 0.0189162 0.00892104)
(0.0397983 -0.00743033 -0.00310574)
(0.0462008 -0.00971988 -0.00058119)
(0.00986825 0.00776274 0.00364177)
(0.0300512 -0.00031945 -0.00102908)
(0.0330022 -0.00389318 0.000931234)
(0.0188279 0.0017364 0.00694079)
(0.0304303 0.00828464 0.00653504)
(0.0256367 0.00572768 0.00202138)
(-0.128287 0.013161 0.00292403)
(-0.135879 0.0117961 0.00178644)
(-0.133899 0.00742981 -0.00245542)
(-0.114605 0.0119316 0.0168099)
(-0.114704 0.0043879 -0.00207339)
(-0.116738 0.00320699 0.0010085)
(0.107216 0.00606232 0.00778818)
(0.097082 0.000584945 0.00567646)
(0.122387 0.0037707 0.00232189)
(0.123127 0.00197215 -0.00327873)
(0.11305 0.00750896 0.010693)
(0.103824 0.00176975 0.00286785)
(0.110339 0.012279 -0.00441587)
(0.106593 0.011041 0.000551003)
(0.0941252 0.010414 0.0107989)
(0.106292 0.00537716 0.00534451)
(0.0865687 0.0109256 -0.00686514)
(0.0836807 0.0129042 -0.00634586)
(0.0500811 0.0124716 0.00915949)
(0.0818111 0.00967319 0.00658026)
(0.0652228 0.00756477 -0.00669396)
(0.00742673 0.0189162 0.00892104)
(0.0526567 0.017301 0.00369031)
(0.0548168 0.0168239 -0.00562299)
(0.00986825 0.00776274 0.00364177)
(0.0229895 0.0082188 0.00811957)
(0.0201735 0.00128282 -0.000841021)
(0.0188279 0.0017364 0.00694079)
(0.0090667 0.0101775 -0.00786607)
(0.0667217 0.0131488 -0.0215228)
(-0.128287 0.013161 0.00292403)
(-0.172406 0.00921529 -0.00359876)
(-0.193475 -0.00183217 0.022198)
(-0.114605 0.0119316 0.0168099)
(-0.128941 -0.00931486 0.0399222)
(-0.212755 -0.0421681 0.0499141)
)
;
    }
    procBoundary1to0
    {
        type            processor;
        value           nonuniform List<vector> 
12
(
(0.0846011 0.000998494 0.00484763)
(0.0823973 0.000186396 0.00450573)
(0.078882 0.000127755 0.00409621)
(0.0807149 0.000911632 0.00456566)
(0.0783233 0.000430405 0.00433935)
(0.0748383 0.000255003 0.00396151)
(0.0782326 0.00107263 0.00356214)
(0.073815 0.000594037 0.00330451)
(0.0701055 0.000220856 0.00303664)
(0.0741902 0.00118791 0.00154117)
(0.0691618 0.000669643 0.00212033)
(0.0656058 0.000241772 0.00215129)
)
;
    }
    procBoundary1to3
    {
        type            processor;
        value           nonuniform List<vector> 
27
(
(0.0745386 -2.57725e-06 0.00344405)
(0.0707953 -0.000408901 0.00288014)
(0.0621991 -0.000692617 0.00219276)
(0.0483728 -0.000715664 0.00118203)
(0.0287141 -5.65541e-05 0.000184192)
(0.00525108 0.000784903 -0.000349153)
(-0.024801 0.00181389 -0.000899945)
(-0.0652686 0.00189248 -0.00142342)
(-0.0776284 0.0013748 -0.00138612)
(0.0710208 7.22573e-05 0.00322803)
(0.0674267 -0.000208271 0.00260756)
(0.0588787 -0.0005474 0.00204906)
(0.0453955 -0.000652051 0.00121811)
(0.0262234 -0.000289581 0.000189542)
(0.00289441 0.000198626 -0.000605547)
(-0.0260612 0.000580622 -0.00127548)
(-0.0653281 0.000617172 -0.00148757)
(-0.0772588 0.000533413 -0.00146654)
(0.0659393 5.33393e-05 0.00238686)
(0.0615349 -8.79868e-05 0.0017119)
(0.0530654 -0.000336937 0.000869043)
(0.0397987 -0.000385645 0.000162991)
(0.0225908 -0.000186896 -0.000545922)
(0.00133771 9.70422e-05 -0.000938122)
(-0.0258902 -8.59605e-05 -0.00105391)
(-0.0655019 -0.000340312 -0.000457587)
(-0.0796663 -0.000157047 -0.000164723)
)
;
    }
    procBoundary1to5
    {
        type            processor;
        value           nonuniform List<vector> 
32
(
(0.036855 0.00406617 -0.00281432)
(0.0161262 0.00426183 -0.00369343)
(-0.00896543 0.00234082 -0.00434045)
(-0.0364637 0.000343102 -0.0047845)
(-0.0812345 -0.00752672 -0.00429898)
(-0.0960321 -0.013772 -0.00309363)
(0.0498884 0.00108097 -0.000527348)
(0.035108 0.00122452 -0.0013536)
(0.0161668 0.00104121 -0.00204185)
(-0.00656999 0.000114275 -0.00242533)
(-0.0340537 -0.00107923 -0.00263082)
(-0.0739437 -0.00561978 -0.00182502)
(-0.0837825 -0.0100011 -0.000724871)
(0.0574875 0.000572321 0.000716919)
(0.0479809 0.000424825 -0.000146584)
(0.0349067 0.000212812 -0.000790702)
(0.0171648 -0.000228522 -0.0012519)
(-0.00382966 -0.00076823 -0.00145598)
(-0.0308472 -0.00161023 -0.00133316)
(-0.0696922 -0.00351433 -0.000582858)
(-0.082398 -0.00588677 0.000126015)
(0.0666577 0.00229547 -0.000687227)
(0.0594258 0.00293152 -0.00131836)
(0.036855 0.00406617 -0.00281432)
(0.0498884 0.00108097 -0.000527348)
(0.047983 0.00326773 -0.00250596)
(0.0626384 0.00107813 0.000247605)
(0.0498884 0.00108097 -0.000527348)
(0.0574875 0.000572321 0.000716919)
(0.0558527 0.00122621 -0.000518648)
(0.0574875 0.000572321 0.000716919)
(0.0596957 0.000546089 0.000528306)
)
;
    }
    procBoundary1to7
    {
        type            processor;
        value           uniform (0.0615134 1.79278e-05 0.00134929);
    }
}


// ************************************************************************* //
