/*--------------------------------*- C++ -*----------------------------------*\
| =========                 |                                                 |
| \\      /  F ield         | OpenFOAM: The Open Source CFD Toolbox           |
|  \\    /   O peration     | Version:  4.x                                   |
|   \\  /    A nd           | Web:      www.OpenFOAM.org                      |
|    \\/     M anipulation  |                                                 |
\*---------------------------------------------------------------------------*/
FoamFile
{
    version     2.0;
    format      ascii;
    class       volScalarField;
    location    "1.5";
    object      ddtVoidfraction;
}
// * * * * * * * * * * * * * * * * * * * * * * * * * * * * * * * * * * * * * //

dimensions      [0 0 -1 0 0 0 0];

internalField   nonuniform List<scalar> 
87
(
-0.0195857
-0.0327074
-0.0509907
-0.0650667
-0.0515011
-0.0335157
-0.0205579
-0.0127624
-0.00912326
-0.0129333
-0.0213792
-0.035318
-0.0508015
-0.0354509
-0.0226765
-0.0132452
-0.00833176
-0.00670592
-0.00184391
0.00147249
0.00890624
0.0205864
0.00879758
0.000675637
-0.00134955
-0.00254469
-0.00331857
-0.02208
-0.0413401
-0.0751645
-0.113494
-0.0758027
-0.0422977
-0.0229954
-0.0131127
-0.00959821
-0.0144115
-0.0289667
-0.0649241
-0.14348
-0.065066
-0.0299186
-0.0151556
-0.00887773
-0.00705084
8.859e-05
0.00767372
0.0360194
0.109114
0.0356768
0.00743162
0.000185037
-0.00177645
-0.00269592
-0.0242091
-0.0505547
-0.110775
-0.220958
-0.111509
-0.0523547
-0.0240223
-0.0130735
-0.0104771
-0.0161522
-0.0410813
-0.145054
-0.697033
-0.144351
-0.0419336
-0.0161621
-0.00884012
-0.0073862
0.00256449
0.0192795
0.114395
0.656005
0.114009
0.0193158
0.00327825
-0.000352178
-0.00203019
-0.0203866
-0.0382826
-0.0702409
-0.0127827
-0.025953
0.00116283
)
;

boundaryField
{
    inlet
    {
        type            calculated;
        value           nonuniform 0();
    }
    outlet
    {
        type            calculated;
        value           uniform 0;
    }
    wall
    {
        type            calculated;
        value           nonuniform List<scalar> 
57
(
-0.0195857
-0.0129333
-0.00184391
-0.0327074
-0.0213792
0.00147249
-0.0509907
-0.035318
0.00890624
-0.0650667
-0.0508015
0.0205864
-0.0515011
-0.0354509
0.00879758
-0.0335157
-0.0226765
0.000675637
-0.0205579
-0.0132452
-0.00134955
-0.0127624
-0.00833176
-0.00254469
-0.00912326
-0.00670592
-0.00331857
-0.0195857
-0.02208
-0.0242091
-0.0203866
-0.0327074
-0.0413401
-0.0505547
-0.0382826
-0.0509907
-0.0751645
-0.110775
-0.0702409
-0.0650667
-0.113494
-0.220958
-0.0515011
-0.0758027
-0.111509
-0.0335157
-0.0422977
-0.0523547
-0.0205579
-0.0229954
-0.0240223
-0.0127624
-0.0131127
-0.0130735
-0.00912326
-0.00959821
-0.0104771
)
;
    }
    procBoundary1to0
    {
        type            processor;
        value           nonuniform List<scalar> 
12
(
-0.0114072
-0.00762375
-0.00157703
-0.0118141
-0.00770902
-0.000690641
-0.0117319
-0.00759027
0.000142893
-0.00996387
-0.0062735
9.5487e-05
)
;
    }
    procBoundary1to3
    {
        type            processor;
        value           nonuniform List<scalar> 
27
(
0.00627485
0.012178
0.021222
0.0303774
0.0216149
0.0117992
0.00613225
0.00280267
0.000974933
0.00850922
0.0180728
0.0394286
0.0676834
0.0391171
0.0174698
0.00775727
0.00367814
0.00171032
0.0106855
0.0247964
0.0681376
0.157856
0.0673824
0.0241642
0.00988029
0.00520576
0.00336946
)
;
    }
    procBoundary1to5
    {
        type            processor;
        value           nonuniform List<scalar> 
32
(
-0.108151
-0.068332
-0.0396894
-0.0207353
-0.0112167
-0.00870737
-0.0607772
-0.140251
-0.0612844
-0.0281487
-0.0132653
-0.00722443
-0.0056661
0.0081199
0.0360561
0.108019
0.0352586
0.00684178
0.000854985
8.84785e-05
-0.000181361
-0.0131832
-0.0227619
-0.108151
-0.0607772
-0.0376938
-0.00852333
-0.0607772
0.0081199
-0.0150127
0.0081199
2.84265e-05
)
;
    }
    procBoundary1to7
    {
        type            processor;
        value           uniform 0.00809249;
    }
}


// ************************************************************************* //
