/*--------------------------------*- C++ -*----------------------------------*\
| =========                 |                                                 |
| \\      /  F ield         | OpenFOAM: The Open Source CFD Toolbox           |
|  \\    /   O peration     | Version:  4.x                                   |
|   \\  /    A nd           | Web:      www.OpenFOAM.org                      |
|    \\/     M anipulation  |                                                 |
\*---------------------------------------------------------------------------*/
FoamFile
{
    version     2.0;
    format      ascii;
    class       volVectorField;
    location    "1.5";
    object      impParticleForces;
}
// * * * * * * * * * * * * * * * * * * * * * * * * * * * * * * * * * * * * * //

dimensions      [1 1 -2 0 0 0 0];

internalField   nonuniform List<vector> 
87
(
(0.00396522 -0.000110659 0.000434206)
(0.00388879 -0.000131628 0.000444573)
(0.0036417 -0.000120815 0.000462858)
(0.00343791 -0.000105264 0.000500643)
(0.00299794 -3.69741e-05 0.000555745)
(0.00253071 3.19321e-05 0.000641193)
(0.00206864 6.07404e-05 0.000724202)
(0.00166017 2.28417e-05 0.00076326)
(0.0013988 -4.44363e-05 0.000813316)
(0.00388438 -8.81363e-05 0.000422429)
(0.00372599 -9.99378e-05 0.000430069)
(0.0034608 -8.66227e-05 0.000445495)
(0.00314917 -5.11614e-05 0.000475579)
(0.00271969 1.21809e-05 0.000523996)
(0.00227252 7.39405e-05 0.000595287)
(0.00178773 0.000103424 0.000668242)
(0.00143025 7.03626e-05 0.000697663)
(0.00122612 2.12871e-05 0.000731237)
(0.003803 -2.81277e-05 0.00040836)
(0.00360031 -2.77934e-05 0.000412899)
(0.00327999 -7.4156e-06 0.000421195)
(0.00290684 3.05069e-05 0.000440289)
(0.0024503 8.84505e-05 0.000469181)
(0.00200941 0.000139103 0.000509554)
(0.00154726 0.000161549 0.000553396)
(0.00126015 0.000137934 0.000579761)
(0.0010993 0.000111473 0.000609603)
(0.00414592 -0.0001144 0.000459148)
(0.00402016 -0.000131882 0.000466801)
(0.00381649 -0.000130835 0.000483625)
(0.00361072 -0.000115625 0.000517131)
(0.00321376 -5.47251e-05 0.000575881)
(0.00284144 7.1979e-06 0.000675564)
(0.00242275 3.1614e-05 0.000776946)
(0.00203078 -1.90051e-05 0.000828497)
(0.00170625 -0.000135024 0.000914193)
(0.00406377 -9.68151e-05 0.000443634)
(0.00388305 -0.000108024 0.000448588)
(0.00362293 -0.000100855 0.000460282)
(0.00334585 -7.40631e-05 0.000487116)
(0.00292957 -1.32857e-05 0.000534279)
(0.00252849 4.21967e-05 0.000606869)
(0.00209544 7.19397e-05 0.000696185)
(0.001764 2.79458e-05 0.000727603)
(0.00153377 -4.83908e-05 0.000760172)
(0.0039521 -3.36627e-05 0.000421938)
(0.00373948 -3.43159e-05 0.000425365)
(0.00342163 -1.85782e-05 0.000430874)
(0.00307452 1.49519e-05 0.000442241)
(0.00261541 6.83087e-05 0.00047015)
(0.00219528 0.00011638 0.000511985)
(0.00175466 0.000141115 0.000566361)
(0.00147017 0.000119663 0.000596092)
(0.00132843 7.74948e-05 0.000640441)
(0.00436061 -9.61088e-05 0.000480227)
(0.00427342 -0.000116926 0.000494586)
(0.00411081 -0.000124251 0.000509245)
(0.00393832 -0.000119585 0.000535266)
(0.00358177 -7.8131e-05 0.000576015)
(0.00334128 -4.82342e-05 0.000670253)
(0.00304398 -4.23327e-05 0.000783609)
(0.00275794 -0.000105044 0.000821133)
(0.00227792 -0.00027447 0.000833442)
(0.00426807 -8.0653e-05 0.00046025)
(0.00413176 -9.63606e-05 0.000468916)
(0.00388535 -9.30602e-05 0.000472205)
(0.00364012 -8.26488e-05 0.000488141)
(0.00328104 -4.47622e-05 0.000523552)
(0.00297231 -1.37628e-05 0.000586493)
(0.0026141 -8.82947e-07 0.000664552)
(0.00233307 -5.8689e-05 0.000709387)
(0.00203852 -0.000208163 0.000748522)
(0.00413461 -2.48919e-05 0.000428942)
(0.00396028 -2.62268e-05 0.000434049)
(0.00368146 -1.836e-05 0.000431923)
(0.00338901 8.98894e-07 0.000435973)
(0.00298175 3.06103e-05 0.000453141)
(0.00261004 6.30571e-05 0.000481425)
(0.00221823 7.94061e-05 0.000525835)
(0.00194818 5.54109e-05 0.00056038)
(0.00175864 2.09194e-07 0.000621868)
(0.00457795 -6.92537e-05 0.000482049)
(0.0044965 -8.06817e-05 0.000490491)
(0.00439904 -9.14134e-05 0.000508886)
(0.00447176 -5.52118e-05 0.000458165)
(0.00440062 -7.04234e-05 0.000468092)
(0.00431139 -1.43015e-05 0.00042255)
)
;

boundaryField
{
    inlet
    {
        type            zeroGradient;
    }
    outlet
    {
        type            zeroGradient;
    }
    wall
    {
        type            zeroGradient;
    }
    procBoundary1to0
    {
        type            processor;
        value           nonuniform List<vector> 
12
(
(0.00402632 -8.73581e-05 0.000427413)
(0.00400777 -7.2048e-05 0.000419429)
(0.00396316 -2.45754e-05 0.00040831)
(0.0042309 -9.11826e-05 0.000452584)
(0.00416658 -7.42136e-05 0.000437117)
(0.00407146 -2.43563e-05 0.000418249)
(0.00440536 -7.72619e-05 0.000468718)
(0.00434016 -6.13538e-05 0.000451098)
(0.00422006 -1.907e-05 0.000424069)
(0.00462953 -5.9416e-05 0.000478145)
(0.00451867 -4.41582e-05 0.000450222)
(0.0043917 -1.23971e-05 0.000420938)
)
;
    }
    procBoundary1to3
    {
        type            processor;
        value           nonuniform List<vector> 
27
(
(0.00379264 4.54855e-05 0.000400635)
(0.00357178 6.51599e-05 0.000399446)
(0.0032434 9.68741e-05 0.000397793)
(0.0028631 0.000132943 0.0003925)
(0.00239256 0.000181485 0.000394843)
(0.00201614 0.000205918 0.000401196)
(0.00159882 0.000224985 0.000420438)
(0.00135969 0.000224623 0.000442623)
(0.00117553 0.000233243 0.00047349)
(0.00393788 4.2575e-05 0.00041287)
(0.00372338 6.20745e-05 0.000414537)
(0.00338759 9.12454e-05 0.000411005)
(0.00301358 0.000124814 0.00039973)
(0.00253837 0.000170332 0.000393513)
(0.00215904 0.000196315 0.000398847)
(0.00175794 0.000216713 0.000419677)
(0.00148501 0.000220577 0.000451478)
(0.00128609 0.000226765 0.000509061)
(0.00412285 3.81256e-05 0.000419027)
(0.0039644 5.44748e-05 0.000427183)
(0.00366381 7.2496e-05 0.000412269)
(0.00333869 9.77863e-05 0.00040008)
(0.00291838 0.000125722 0.000389804)
(0.00254176 0.000150898 0.000390251)
(0.00213227 0.000175906 0.000405785)
(0.00185265 0.00018289 0.00042962)
(0.00165229 0.000185849 0.000489483)
)
;
    }
    procBoundary1to5
    {
        type            processor;
        value           nonuniform List<vector> 
32
(
(0.00425756 -9.53409e-05 0.000523345)
(0.00396635 -7.67541e-05 0.000537657)
(0.00380949 -7.66912e-05 0.000591837)
(0.00351235 -0.000107344 0.000647692)
(0.00338691 -0.000224404 0.000700705)
(0.00283488 -0.000514858 0.000709327)
(0.00417038 -6.93267e-05 0.00046463)
(0.00395998 -7.13993e-05 0.000471997)
(0.00364667 -5.22201e-05 0.000485978)
(0.00341408 -4.80894e-05 0.000518494)
(0.0030846 -6.41773e-05 0.000571333)
(0.0029145 -0.000154546 0.000628992)
(0.00252914 -0.000401793 0.000681448)
(0.00420037 -1.79624e-05 0.000427198)
(0.00394766 -1.31547e-05 0.00042027)
(0.00368812 -6.08338e-06 0.000420424)
(0.00333892 9.53461e-06 0.000425635)
(0.00300874 2.45371e-05 0.000441933)
(0.00264996 2.39741e-05 0.000473725)
(0.00238617 -1.11755e-05 0.000517463)
(0.00212204 -9.97918e-05 0.000586659)
(0.00479212 -4.06619e-05 0.000472384)
(0.00473585 -4.7378e-05 0.000478859)
(0.00425756 -9.53409e-05 0.000523345)
(0.00417038 -6.93267e-05 0.00046463)
(0.00466604 -5.66302e-05 0.000491647)
(0.00466432 -3.07356e-05 0.000444996)
(0.00417038 -6.93267e-05 0.00046463)
(0.00420037 -1.79624e-05 0.000427198)
(0.00458351 -3.7366e-05 0.000447038)
(0.00420037 -1.79624e-05 0.000427198)
(0.0044906 -5.62237e-06 0.000410125)
)
;
    }
    procBoundary1to7
    {
        type            processor;
        value           uniform (0.00429163 3.12498e-05 0.000409149);
    }
}


// ************************************************************************* //
