/*--------------------------------*- C++ -*----------------------------------*\
| =========                 |                                                 |
| \\      /  F ield         | OpenFOAM: The Open Source CFD Toolbox           |
|  \\    /   O peration     | Version:  4.x                                   |
|   \\  /    A nd           | Web:      www.OpenFOAM.org                      |
|    \\/     M anipulation  |                                                 |
\*---------------------------------------------------------------------------*/
FoamFile
{
    version     2.0;
    format      ascii;
    class       volScalarField;
    location    "1.5";
    object      p;
}
// * * * * * * * * * * * * * * * * * * * * * * * * * * * * * * * * * * * * * //

dimensions      [1 -1 -2 0 0 0 0];

internalField   nonuniform List<scalar> 
87
(
6946.27
7929.71
8759.18
9386.88
8922.65
8278.55
7305.28
6659.36
5668.95
6292.96
7021.8
7607.93
8134.75
7754.39
7393.86
6720.89
6343.67
5640.35
5254.7
5486.41
5434.67
5510.68
5635.48
5924.84
5789.13
5871.09
5578.36
5123.34
6250.12
7331.59
8245.2
7490.65
6588.78
5485.67
4787.78
3773.2
4452.27
5291.67
6151.24
7128.36
6295.74
5657.77
4884.02
4480.93
3750.79
3312.39
3484.61
3202.89
2852.65
3384.98
3916.07
3859.06
3976.06
3695.67
3228.42
4478.43
5901.49
7394.31
6061.04
4830.01
3594.48
2886
1868.87
2549.43
3517.87
4871.26
7400.5
5048.66
3889.8
2994.64
2570.65
1882.28
1361.05
1415.81
681.832
-1155.71
831.684
1850.26
1901.83
2066.57
1811.53
1113.28
2162.83
3169.59
496.47
1305.57
-549.714
)
;

boundaryField
{
    inlet
    {
        type            calculated;
        value           nonuniform 0();
    }
    outlet
    {
        type            calculated;
        value           nonuniform List<scalar> 9(5633.74 5633.74 5633.74 3755.83 3755.83 3755.83 1877.91 1877.91 1877.91);
    }
    wall
    {
        type            calculated;
        value           nonuniform List<scalar> 
57
(
7884.62
7232.29
6194.25
8868.32
7961.38
6426.11
9697.92
8547.6
6374.37
10325.7
9074.33
6450.27
9861.33
8693.76
6574.95
9217.28
8333.09
6864.19
8244.41
7660.08
6728.33
7598.63
7282.74
6810.15
6607.96
6579.32
6517.34
6946.26
5123.33
3228.42
1113.28
7929.71
6250.12
4478.43
2162.83
8759.18
7331.59
5901.5
3169.59
9386.88
8245.2
7394.31
8922.64
7490.65
6061.04
8278.55
6588.78
4830.01
7305.28
5485.67
3594.48
6659.36
4787.78
2886
5668.95
3773.2
1868.87
)
;
    }
    procBoundary1to0
    {
        type            processor;
        value           nonuniform List<scalar> 
12
(
6209.54
5787.68
5071.72
4350.63
3909.97
3175.5
2434.45
1996.66
1260.58
436.204
51.3398
-628.399
)
;
    }
    procBoundary1to3
    {
        type            processor;
        value           nonuniform List<scalar> 
27
(
4247.7
4222.27
3923.03
3933.23
4152
4718.61
4947.51
5403.28
5528.68
2304.65
2188.87
1730.94
1528.96
1966.76
2699.09
3015.47
3503.86
3649
365.865
154.535
-556.466
-1210.73
-312.006
695.533
1086.58
1605.38
1756.36
)
;
    }
    procBoundary1to5
    {
        type            processor;
        value           nonuniform List<scalar> 
32
(
4077
3309.64
2509.54
1471.18
912.589
-87.1261
2108.71
3099.63
2274.03
1671.79
944.408
615.663
-14.863
-372.463
-649.87
-991.296
-443.884
82.343
14.8331
171.801
-84.2867
-1116.14
-341.204
4077
2108.71
279.136
-1617.31
2108.71
-372.463
-1019
-372.463
-2425.53
)
;
    }
    procBoundary1to7
    {
        type            processor;
        value           uniform -1471.33;
    }
}


// ************************************************************************* //
