/*--------------------------------*- C++ -*----------------------------------*\
| =========                 |                                                 |
| \\      /  F ield         | OpenFOAM: The Open Source CFD Toolbox           |
|  \\    /   O peration     | Version:  4.x                                   |
|   \\  /    A nd           | Web:      www.OpenFOAM.org                      |
|    \\/     M anipulation  |                                                 |
\*---------------------------------------------------------------------------*/
FoamFile
{
    version     2.0;
    format      ascii;
    class       volScalarField;
    location    "1.5";
    object      QPartFluidCoeff;
}
// * * * * * * * * * * * * * * * * * * * * * * * * * * * * * * * * * * * * * //

dimensions      [1 -1 -3 -1 0 0 0];

internalField   nonuniform List<scalar> 
87
(
-1.32098e+07
-2.19816e+07
-1.46734e+07
-2.64699e+07
-1.54265e+07
-1.60478e+07
-1.93128e+07
-1.51322e+07
-1.45161e+07
-1.16857e+07
-1.44474e+07
-1.58576e+07
-1.34607e+07
-1.11166e+07
-2.02933e+07
-2.84913e+07
-2.14248e+07
-1.74327e+07
-8.85423e+06
-1.55846e+07
-1.22923e+07
-2.84402e+07
-2.22346e+07
-2.18851e+07
-2.55753e+07
-2.34957e+07
-1.891e+07
-2.36618e+07
-2.24329e+07
-2.09832e+07
-2.99249e+07
-2.46653e+07
-2.92787e+07
-3.4256e+07
-2.93996e+07
-2.63708e+07
-2.60986e+07
-2.04811e+07
-2.16904e+07
-2.7911e+07
-2.38071e+07
-1.98152e+07
-3.09354e+07
-2.74455e+07
-1.73278e+07
-2.28581e+07
-1.99956e+07
-2.14278e+07
-2.09168e+07
-2.35238e+07
-3.23519e+07
-3.81893e+07
-4.11738e+07
-1.84445e+07
-2.61939e+07
-2.65529e+07
-3.21589e+07
-3.79431e+07
-2.62663e+07
-4.08635e+07
-3.85976e+07
-3.52457e+07
-1.55423e+07
-2.84155e+07
-2.82471e+07
-2.05178e+07
-2.51116e+07
-2.43116e+07
-2.84279e+07
-2.67861e+07
-3.06575e+07
-1.73334e+07
-2.20187e+07
-1.86383e+07
-1.70271e+07
-2.45983e+07
-2.71913e+07
-2.53096e+07
-2.48547e+07
-2.35771e+07
-1.32538e+07
-2.63451e+07
-2.29166e+07
-3.49993e+07
-2.71228e+07
-4.12911e+07
-1.7662e+07
)
;

boundaryField
{
    inlet
    {
        type            calculated;
        value           nonuniform 0();
    }
    outlet
    {
        type            calculated;
        value           uniform 0;
    }
    wall
    {
        type            calculated;
        value           uniform 0;
    }
    procBoundary1to0
    {
        type            processor;
        value           nonuniform List<scalar> 
12
(
143.122
337.626
466.054
544.157
547.509
353.159
432.625
546.112
370.52
529.85
491.332
631.169
)
;
    }
    procBoundary1to3
    {
        type            processor;
        value           nonuniform List<scalar> 
27
(
244.569
189.991
479.888
257.309
475.583
315.432
529.491
330.006
331.48
397.461
428.916
761.89
684.267
865.115
639.014
627.995
605.704
697.569
549.46
713.943
548.021
670.574
461.087
395.493
750.879
509.24
507.505
)
;
    }
    procBoundary1to5
    {
        type            processor;
        value           nonuniform List<scalar> 
32
(
799.05
813.446
831.551
795.32
1097.25
874.043
562.743
582.077
458.662
682.369
711.512
1020.47
772.476
677.374
392.503
537.277
373.896
287.365
493.206
433.982
560.543
610.992
534.908
799.05
562.743
799.878
631.14
562.743
677.374
634.502
677.374
568.014
)
;
    }
    procBoundary1to7
    {
        type            processor;
        value           uniform 696.78;
    }
}


// ************************************************************************* //
