/*--------------------------------*- C++ -*----------------------------------*\
| =========                 |                                                 |
| \\      /  F ield         | OpenFOAM: The Open Source CFD Toolbox           |
|  \\    /   O peration     | Version:  4.x                                   |
|   \\  /    A nd           | Web:      www.OpenFOAM.org                      |
|    \\/     M anipulation  |                                                 |
\*---------------------------------------------------------------------------*/
FoamFile
{
    version     2.0;
    format      ascii;
    class       volScalarField;
    location    "1.5";
    object      SPartFluid;
}
// * * * * * * * * * * * * * * * * * * * * * * * * * * * * * * * * * * * * * //

dimensions      [1 -3 -1 0 0 0 0];

internalField   nonuniform List<scalar> 
87
(
3.72998e-65
5.20533e-65
3.80464e-65
5.43148e-65
3.25614e-65
4.25609e-65
5.24984e-65
4.99999e-65
4.77195e-65
3.65808e-65
3.96803e-65
4.66399e-65
3.87968e-65
3.4837e-65
5.17333e-65
6.46652e-65
4.83685e-65
3.91623e-65
3.50367e-65
5.37173e-65
3.41867e-65
7.44462e-65
5.02417e-65
4.78149e-65
4.83881e-65
4.90267e-65
4.44426e-65
6.52929e-65
5.67515e-65
5.05219e-65
6.52334e-65
5.81669e-65
6.49849e-65
8.10209e-65
7.15039e-65
6.45625e-65
7.23615e-65
5.45096e-65
5.98908e-65
7.45144e-65
6.96779e-65
5.63331e-65
7.30683e-65
7.34654e-65
5.57158e-65
8.10265e-65
6.4651e-65
5.75507e-65
5.81898e-65
5.09863e-65
7.45818e-65
7.97161e-65
9.84286e-65
4.79936e-65
6.99264e-65
5.90868e-65
7.69672e-65
7.92453e-65
5.81709e-65
8.4317e-65
7.0242e-65
5.69422e-65
4.13981e-65
7.78158e-65
7.16253e-65
5.68212e-65
6.37364e-65
6.74085e-65
7.25844e-65
6.52631e-65
7.11587e-65
4.33545e-65
7.86665e-65
6.00508e-65
5.4541e-65
8.78323e-65
8.20625e-65
8.77009e-65
6.72351e-65
7.76419e-65
3.41501e-65
6.60082e-65
5.28268e-65
8.08267e-65
7.07435e-65
1.00379e-64
5.75659e-65
)
;

boundaryField
{
    inlet
    {
        type            calculated;
        value           nonuniform 0();
    }
    outlet
    {
        type            calculated;
        value           uniform 0;
    }
    wall
    {
        type            calculated;
        value           uniform 0;
    }
    procBoundary1to0
    {
        type            processor;
        value           nonuniform List<scalar> 
12
(
1.70991e-65
4.35491e-65
7.15942e-65
6.21425e-65
6.92208e-65
5.13784e-65
4.73644e-65
6.29221e-65
4.97642e-65
4.96194e-65
5.35606e-65
8.23109e-65
)
;
    }
    procBoundary1to3
    {
        type            processor;
        value           nonuniform List<scalar> 
27
(
4.75068e-65
3.27106e-65
5.51993e-65
2.79375e-65
4.17473e-65
3.00226e-65
4.68053e-65
4.05348e-65
4.51057e-65
7.24609e-65
6.62613e-65
9.02499e-65
7.91306e-65
8.19379e-65
6.23022e-65
5.88948e-65
6.16879e-65
8.9066e-65
7.709e-65
9.04468e-65
8.33846e-65
9.09512e-65
6.1128e-65
5.77223e-65
8.87412e-65
6.68377e-65
7.58169e-65
)
;
    }
    procBoundary1to5
    {
        type            processor;
        value           nonuniform List<scalar> 
32
(
6.83658e-65
8.07057e-65
6.35084e-65
6.72301e-65
7.55355e-65
8.37263e-65
6.69329e-65
5.83113e-65
5.82164e-65
6.64714e-65
8.16263e-65
8.43129e-65
7.77671e-65
8.57102e-65
6.07773e-65
7.4647e-65
5.81514e-65
4.55275e-65
6.90142e-65
5.64408e-65
8.48542e-65
6.28416e-65
4.81124e-65
6.83658e-65
6.69329e-65
7.06859e-65
7.14152e-65
6.69329e-65
8.57102e-65
6.83677e-65
8.57102e-65
8.23047e-65
)
;
    }
    procBoundary1to7
    {
        type            processor;
        value           uniform 9.95082e-65;
    }
}


// ************************************************************************* //
