/*--------------------------------*- C++ -*----------------------------------*\
| =========                 |                                                 |
| \\      /  F ield         | OpenFOAM: The Open Source CFD Toolbox           |
|  \\    /   O peration     | Version:  4.x                                   |
|   \\  /    A nd           | Web:      www.OpenFOAM.org                      |
|    \\/     M anipulation  |                                                 |
\*---------------------------------------------------------------------------*/
FoamFile
{
    version     2.0;
    format      ascii;
    class       volScalarField;
    location    "1.5";
    object      thCond;
}
// * * * * * * * * * * * * * * * * * * * * * * * * * * * * * * * * * * * * * //

dimensions      [1 1 -3 -1 0 0 0];

internalField   nonuniform List<scalar> 
87
(
193.098
192.758
192.68
192.33
192.38
192.001
191.636
191.695
191.873
192.885
192.714
192.512
192.309
192.227
191.835
191.489
191.659
191.94
192.608
192.393
192.347
191.877
191.936
191.794
191.587
191.584
191.784
192.057
192.013
191.879
191.516
191.433
191.108
190.79
190.941
191.219
191.791
191.853
191.698
191.362
191.251
191.087
190.78
190.837
191.248
191.506
191.543
191.478
191.247
191.183
190.869
190.65
190.549
191.108
191.28
191.207
190.869
190.65
190.648
190.29
190.314
190.548
190.891
190.993
190.936
190.939
190.69
190.524
190.306
190.262
190.326
190.788
190.81
190.81
190.77
190.34
190.258
190.096
190.114
190.145
190.652
190.798
190.703
190.295
190.524
190.171
190.425
)
;

boundaryField
{
    inlet
    {
        type            zeroGradient;
    }
    outlet
    {
        type            zeroGradient;
    }
    wall
    {
        type            zeroGradient;
    }
    procBoundary1to0
    {
        type            processor;
        value           nonuniform List<scalar> 
12
(
193.438
192.91
192.471
192.238
191.925
191.816
191.634
191.289
191.214
191.102
190.844
190.592
)
;
    }
    procBoundary1to3
    {
        type            processor;
        value           nonuniform List<scalar> 
27
(
192.391
192.295
192.028
192.116
191.969
191.976
191.658
191.626
191.577
191.349
191.276
190.962
190.945
190.902
190.947
190.791
190.715
190.558
190.581
190.401
190.321
190.182
190.285
190.196
189.912
190.054
190.063
)
;
    }
    procBoundary1to5
    {
        type            processor;
        value           nonuniform List<scalar> 
32
(
190.237
190.028
190.007
189.915
189.874
189.884
190.285
190.254
190.115
189.939
189.741
189.692
189.818
190.149
190.23
189.986
189.968
189.949
189.736
189.815
189.688
190.416
190.452
190.237
190.285
190.108
190.196
190.285
190.149
190.121
190.149
190.03
)
;
    }
    procBoundary1to7
    {
        type            processor;
        value           uniform 190.058;
    }
}


// ************************************************************************* //
