/*--------------------------------*- C++ -*----------------------------------*\
  =========                 |
  \\      /  F ield         | OpenFOAM: The Open Source CFD Toolbox
   \\    /   O peration     | Website:  https://openfoam.org
    \\  /    A nd           | Version:  4.x
     \\/     M anipulation  |
\*---------------------------------------------------------------------------*/
FoamFile
{
    version     2.0;
    format      ascii;
    class       vectorField;
    location    0;
    object      v;
}
// * * * * * * * * * * * * * * * * * * * * * * * * * * * * * * * * * * * * * //

313
(
( 3.72802e-09 -2.1611e-09 2.52836e-09 )  
( 1.41347e-09 3.92335e-10 1.87627e-09 )  
( 2.66256e-09 -1.80065e-09 3.71517e-09 )  
( 1.19879e-09 4.36973e-10 2.48667e-09 )  
( 4.24608e-09 -3.80243e-09 3.61509e-09 )  
( 2.4182e-09 -3.60897e-10 2.70638e-09 )  
( 2.1011e-09 -4.68616e-10 1.11444e-09 )  
( 3.05648e-09 -1.18539e-09 3.65256e-09 )  
( 2.24128e-09 -5.51701e-10 2.00794e-09 )  
( 1.28491e-09 -2.54868e-10 1.13347e-09 )  
( 9.19424e-10 1.6611e-09 4.04693e-09 )  
( 2.15904e-09 -1.03257e-10 9.79056e-10 )  
( 4.43413e-10 -2.33711e-11 9.46424e-11 )  
( 1.9106e-09 -6.59183e-10 8.72295e-10 )  
( 3.21428e-09 -9.46808e-10 9.87038e-10 )  
( 7.51648e-10 -3.82456e-10 3.03136e-10 )  
( 1.20831e-10 -6.46504e-11 1.45422e-10 )  
( 1.49546e-09 -5.57587e-10 8.35264e-10 )  
( 2.73566e-09 -4.34725e-10 1.30629e-09 )  
( 3.63511e-10 -7.90743e-11 1.72269e-10 )  
( 6.83292e-10 -2.90271e-11 9.56049e-11 )  
( 3.33525e-10 4.71328e-11 -8.08818e-11 )  
( 2.19858e-09 -4.63519e-10 6.6313e-10 )  
( 1.07207e-09 -3.73189e-10 -4.94079e-10 )  
( 2.11386e-10 6.93109e-11 -7.01759e-11 )  
( 9.28673e-11 -6.79112e-11 2.17446e-11 )  
( 1.59168e-10 -8.16159e-11 -5.46652e-11 )  
( 7.11518e-10 -1.2896e-10 -8.12595e-11 )  
( 6.64741e-10 -3.47328e-10 5.8441e-13 )  
( 1.28684e-09 -7.81777e-10 1.88116e-10 )  
( 1.48486e-09 -8.32964e-10 5.67255e-10 )  
( 6.39203e-10 -1.24764e-11 1.8278e-11 )  
( 2.72337e-09 2.75913e-10 1.92471e-09 )  
( 7.15801e-11 2.72283e-11 4.7977e-10 )  
( 5.46229e-11 -8.41872e-11 4.55466e-10 )  
( 3.23472e-09 -1.72445e-09 1.38123e-09 )  
( 1.81917e-09 -7.94493e-10 2.5283e-10 )  
( 1.13996e-09 -7.10457e-10 4.29544e-10 )  
( 1.28697e-09 -5.08472e-10 3.9943e-10 )  
( 9.3018e-10 -6.25903e-10 3.37845e-10 )  
( 7.58174e-10 -8.25728e-11 2.04007e-10 )  
( 8.58321e-10 -5.69504e-10 9.22348e-11 )  
( 1.09611e-09 -2.25689e-11 -4.40953e-10 )  
( 5.30278e-10 -3.87202e-10 3.60033e-10 )  
( 8.91383e-10 -8.71824e-10 4.23423e-10 )  
( 2.00914e-09 -7.24912e-10 4.311e-10 )  
( 1.32758e-10 -8.13466e-11 -4.79027e-11 )  
( 2.28959e-09 -8.05293e-10 6.89215e-10 )  
( 1.20242e-09 -6.54766e-10 5.79251e-10 )  
( 2.62412e-10 -1.983e-10 1.88691e-10 )  
( 2.61279e-09 -1.77618e-09 1.16008e-09 )  
( 1.10437e-09 -5.63163e-10 5.31302e-10 )  
( 6.91397e-10 -1.79117e-11 -5.34262e-10 )  
( 1.08694e-10 -1.89962e-11 2.36387e-10 )  
( -1.02417e-10 -3.05631e-10 1.14461e-10 )  
( 6.06595e-10 -7.23637e-10 8.00629e-10 )  
( 2.6062e-09 -1.1178e-09 9.06093e-10 )  
( 1.92895e-09 -4.14025e-10 7.66047e-10 )  
( 2.85452e-09 -1.49729e-09 9.42881e-10 )  
( 2.67914e-10 7.46993e-11 2.81133e-10 )  
( 1.12811e-09 -3.29252e-10 3.34741e-10 )  
( 3.4825e-10 -4.48741e-10 5.1346e-10 )  
( 1.45581e-09 -8.29417e-10 1.39132e-10 )  
( 3.0166e-10 -2.86277e-10 4.14553e-10 )  
( 1.30795e-10 1.61362e-11 1.33769e-10 )  
( 1.32168e-09 -4.62685e-10 2.9514e-10 )  
( 3.08625e-10 -9.38952e-11 -1.71992e-10 )  
( 6.25508e-10 -2.31508e-10 4.15356e-10 )  
( 1.51839e-09 -4.04441e-10 1.01763e-10 )  
( 1.94484e-09 -1.12394e-09 7.09686e-10 )  
( 1.20009e-09 -3.97154e-10 7.41469e-10 )  
( 1.22651e-09 -6.81334e-10 7.73809e-10 )  
( 3.2761e-09 -1.78318e-09 1.59523e-09 )  
( 2.13268e-10 -7.7072e-11 1.90672e-10 )  
( 6.7235e-10 -8.63515e-11 5.98037e-11 )  
( 6.32247e-10 -3.25986e-10 2.26825e-10 )  
( -4.80563e-11 -1.00218e-10 4.6421e-10 )  
( 1.83102e-09 -8.33942e-10 4.80883e-10 )  
( 1.5747e-09 -6.43028e-10 5.6472e-10 )  
( 2.73009e-10 9.62867e-12 2.6879e-11 )  
( 1.11586e-09 -7.43525e-10 8.2725e-11 )  
( 1.53037e-10 -9.54353e-12 1.655e-10 )  
( -6.71531e-11 -2.54178e-10 -1.63134e-11 )  
( 1.24826e-09 -6.58738e-10 3.2076e-10 )  
( 2.7035e-11 -6.26561e-11 -9.69437e-11 )  
( 1.5811e-09 3.37593e-13 1.15536e-09 )  
( 5.61674e-10 2.16831e-10 7.19622e-11 )  
( 3.7994e-10 -4.66329e-10 5.61933e-10 )  
( 8.79694e-11 -8.6917e-11 4.51527e-12 )  
( 1.35228e-10 5.1724e-11 -1.22829e-10 )  
( 6.32359e-10 -6.04936e-10 7.31739e-10 )  
( 3.69124e-10 -1.14489e-10 -1.24822e-10 )  
( 5.40092e-10 -3.06665e-10 -7.15659e-11 )  
( 3.58917e-10 1.62264e-10 -5.24728e-11 )  
( 4.83431e-10 -5.74851e-10 5.90014e-10 )  
( 2.80666e-09 -3.19907e-10 1.93121e-09 )  
( 2.32386e-09 -1.03836e-09 3.96333e-10 )  
( 9.11115e-11 1.20504e-10 3.48564e-10 )  
( 2.30454e-09 -9.65856e-10 1.11587e-09 )  
( 4.44527e-10 -5.07512e-11 3.35134e-11 )  
( 1.02664e-09 -5.29384e-10 2.11553e-10 )  
( 4.23474e-10 -3.09956e-10 2.45016e-10 )  
( 3.45965e-09 -2.6239e-09 1.82961e-09 )  
( 3.77068e-09 -2.38586e-09 2.07236e-09 )  
( 1.51389e-09 -8.76482e-10 1.06834e-09 )  
( 2.60455e-09 -8.73363e-10 1.9605e-10 )  
( 4.0312e-10 -5.11199e-11 -3.6167e-11 )  
( 3.60316e-09 -1.43307e-09 2.13277e-09 )  
( 1.09871e-09 -8.01589e-10 4.35811e-10 )  
( 9.06401e-10 -2.14805e-10 9.2636e-11 )  
( 6.82693e-10 -3.40927e-10 3.53408e-10 )  
( 1.77063e-09 -6.87528e-10 2.11869e-10 )  
( 2.06711e-09 -8.72253e-10 4.36943e-10 )  
( 4.68913e-10 -1.96805e-10 -1.51949e-10 )  
( 8.75446e-10 -1.76258e-10 3.53846e-10 )  
( 1.29026e-09 -2.25416e-10 5.98238e-10 )  
( 1.17739e-09 -4.17356e-10 1.73375e-10 )  
( 2.3865e-09 -4.71739e-10 1.35877e-09 )  
( 7.6588e-10 -5.46102e-10 -2.86511e-10 )  
( 4.89593e-10 -1.59475e-10 2.52608e-10 )  
( -9.41386e-11 -2.00237e-10 4.35369e-10 )  
( 4.63261e-10 -1.11711e-10 3.21223e-10 )  
( 1.13368e-10 9.36906e-11 -7.92415e-12 )  
( 3.80348e-09 -2.64954e-09 2.03396e-09 )  
( 8.67589e-10 -6.01e-10 -5.10212e-10 )  
( 3.15472e-10 -3.78439e-11 -9.13235e-11 )  
( 1.32191e-09 -4.33868e-10 -3.80229e-11 )  
( 8.46676e-10 -8.32938e-10 6.21175e-10 )  
( 1.36733e-10 1.2893e-10 -8.36035e-11 )  
( 5.40874e-10 -4.71093e-10 3.87369e-10 )  
( 2.02039e-09 -1.0144e-09 1.1551e-09 )  
( 2.32527e-10 -1.55773e-10 -4.1932e-11 )  
( 3.02868e-09 -1.139e-09 1.27967e-09 )  
( 2.95305e-09 -1.58588e-09 7.57919e-10 )  
( 6.0016e-10 -1.85359e-10 -5.4238e-10 )  
( 6.61385e-11 -1.83314e-10 2.15363e-10 )  
( 3.73887e-10 5.59084e-12 -5.96596e-11 )  
( 3.00537e-09 -1.36438e-09 9.92549e-10 )  
( 1.20676e-12 -7.39918e-11 1.19512e-10 )  
( 1.02591e-09 -3.04922e-10 3.17923e-10 )  
( 2.2253e-10 -2.05196e-10 7.90714e-11 )  
( 1.94498e-10 2.62585e-11 1.0394e-10 )  
( 6.75768e-10 -2.36893e-10 2.71371e-10 )  
( 1.49047e-09 -4.45789e-10 1.12775e-10 )  
( 3.13641e-10 -4.1694e-11 -1.31266e-10 )  
( 2.59216e-09 -7.63059e-10 8.76304e-10 )  
( 5.00891e-10 -1.23267e-10 9.01914e-11 )  
( 2.24414e-09 -6.51883e-10 1.10982e-09 )  
( 2.28873e-10 -2.59079e-10 1.90536e-10 )  
( 4.36066e-10 -2.40451e-10 5.01209e-10 )  
( 5.16532e-10 -2.43592e-10 3.74605e-10 )  
( 3.97535e-10 -1.19838e-11 5.33114e-10 )  
( 6.62001e-10 -3.35159e-10 3.83923e-10 )  
( 3.89533e-09 4.29453e-10 9.17611e-10 )  
( 9.99328e-10 -1.6518e-11 5.74686e-10 )  
( 2.77447e-10 -1.56461e-10 3.86299e-10 )  
( 3.63528e-10 -2.04567e-10 4.73635e-10 )  
( 1.39922e-09 -1.55189e-10 9.19305e-10 )  
( 1.45683e-09 -2.71894e-10 9.86388e-10 )  
( 6.22405e-10 -1.70773e-10 4.95156e-10 )  
( 6.71048e-10 -4.46548e-10 5.12235e-10 )  
( 1.30562e-09 -2.57905e-10 5.81084e-10 )  
( 5.63235e-11 -9.27761e-11 9.02353e-11 )  
( 1.03451e-09 -1.7451e-10 7.80016e-10 )  
( 4.18879e-11 9.4238e-11 2.38079e-11 )  
( 4.22345e-11 4.57324e-11 7.41239e-11 )  
( 3.84144e-11 -1.79205e-10 2.31979e-11 )  
( 7.88112e-10 -2.49742e-10 3.39029e-10 )  
( 1.22358e-09 -1.84845e-10 8.09109e-10 )  
( 7.31134e-11 -1.46101e-10 4.86121e-11 )  
( 1.10255e-10 1.16668e-11 2.39265e-10 )  
( 5.73044e-11 -1.23349e-10 9.18721e-11 )  
( 1.07697e-09 -4.24622e-10 4.62407e-10 )  
( 1.08438e-10 -1.33464e-10 2.07508e-10 )  
( 2.67355e-09 -3.09949e-11 1.18096e-09 )  
( 7.0194e-10 -4.9977e-10 6.4363e-10 )  
( 1.97026e-10 -1.70177e-10 2.39882e-10 )  
( -1.11998e-11 1.07457e-10 3.78192e-11 )  
( 2.82087e-10 -2.82768e-10 3.06587e-10 )  
( 1.60158e-09 -2.50092e-10 5.22718e-10 )  
( 4.49714e-10 -1.82093e-10 2.53381e-10 )  
( 1.86215e-09 -3.31688e-11 6.75333e-10 )  
( 2.46426e-10 -2.08634e-10 1.14865e-10 )  
( 9.39786e-10 -4.05551e-10 4.71157e-10 )  
( 3.49526e-10 -9.58917e-11 4.31295e-10 )  
( 1.55891e-10 -4.37097e-11 2.19051e-10 )  
( 4.98384e-11 -1.39008e-10 5.22652e-11 )  
( 4.0916e-10 -3.35816e-10 4.77393e-10 )  
( 2.37993e-10 -2.85335e-10 3.15347e-10 )  
( 3.59582e-10 -2.13075e-10 4.39711e-10 )  
( 2.04092e-10 -2.38338e-10 4.40223e-10 )  
( 2.39489e-10 -1.94637e-10 1.88508e-10 )  
( 4.38759e-10 -1.02325e-10 2.6702e-10 )  
( 1.35065e-09 -2.9863e-10 6.50047e-10 )  
( 3.12507e-09 1.73502e-10 7.70756e-10 )  
( 7.21464e-10 -2.48226e-11 4.57135e-10 )  
( 3.97883e-10 -3.86106e-10 4.50973e-10 )  
( 1.73377e-10 -1.8243e-10 2.58199e-10 )  
( 1.70921e-11 -1.84067e-10 6.18473e-11 )  
( -2.08479e-11 -1.01037e-10 1.79386e-10 )  
( 2.07158e-09 -8.56848e-11 1.08445e-09 )  
( 2.57886e-10 -1.53813e-10 1.01278e-10 )  
( 1.60541e-09 3.62217e-11 1.05607e-09 )  
( 6.07294e-10 -3.60153e-10 6.55637e-10 )  
( 5.23933e-10 -3.53792e-10 5.41361e-10 )  
( 4.98299e-10 -1.318e-10 3.38525e-10 )  
( 2.2061e-09 5.28255e-10 8.01412e-10 )  
( 4.16185e-10 -6.66122e-11 2.86077e-10 )  
( 9.05568e-10 -3.01274e-10 5.12439e-10 )  
( 8.3435e-11 1.51476e-11 6.83309e-11 )  
( 7.04132e-10 -1.58162e-10 1.63463e-10 )  
( 2.64395e-11 -3.75441e-12 4.94745e-12 )  
( 1.29146e-09 -4.75014e-10 9.72913e-10 )  
( 4.40191e-10 -2.53197e-10 3.48413e-10 )  
( 7.47816e-10 -2.95837e-10 4.6062e-10 )  
( 1.09268e-10 8.7386e-11 1.69109e-10 )  
( 7.25737e-12 -6.57527e-11 4.36934e-11 )  
( 5.85741e-10 -2.25181e-10 3.85446e-10 )  
( 2.93105e-09 -2.38473e-09 1.79531e-09 )  
( 9.722e-11 -6.67031e-11 -4.69647e-11 )  
( 2.06611e-09 -6.15718e-10 8.36033e-10 )  
( 1.02708e-10 7.92861e-11 3.10178e-11 )  
( 1.33499e-09 -6.30547e-10 2.92601e-10 )  
( 6.51281e-10 -1.83699e-10 1.46005e-10 )  
( 3.09697e-09 -1.4083e-09 2.17293e-09 )  
( 3.06192e-09 4.06648e-10 1.69062e-09 )  
( 2.22e-09 -3.96635e-10 6.2846e-10 )  
( 2.10727e-10 -7.61977e-11 -3.01536e-10 )  
( 2.19931e-09 -1.04259e-09 1.02806e-09 )  
( 1.81859e-10 -9.37726e-11 3.06599e-10 )  
( 1.22801e-09 -4.21094e-10 7.84484e-10 )  
( 6.3349e-10 -3.96796e-10 2.29742e-10 )  
( 9.3309e-10 -4.14259e-10 6.80475e-10 )  
( 3.98609e-09 -4.94721e-10 3.0743e-09 )  
( -2.41248e-10 -7.85268e-11 6.257e-11 )  
( 2.81724e-11 -2.3627e-10 4.26602e-10 )  
( 8.88853e-10 -1.39317e-10 4.95015e-10 )  
( 4.9339e-10 -3.5354e-10 1.82616e-10 )  
( 1.01602e-09 -6.96301e-11 6.04575e-10 )  
( 1.16257e-09 -4.84969e-10 9.4405e-10 )  
( 3.82367e-10 -4.05357e-10 2.48972e-10 )  
( 2.20315e-10 -1.48891e-10 4.63123e-10 )  
( 1.29598e-10 -8.80194e-11 2.07827e-10 )  
( 1.39905e-09 -2.2293e-10 1.17371e-09 )  
( 1.0634e-09 -2.83285e-10 7.58546e-10 )  
( 9.32641e-10 -6.1687e-10 8.83896e-10 )  
( 1.23723e-10 4.86848e-11 5.07696e-10 )  
( 7.43252e-11 -4.66359e-11 2.18516e-10 )  
( 1.38285e-09 1.89646e-10 1.07479e-09 )  
( 1.07207e-09 -7.46439e-11 8.25775e-10 )  
( 2.17399e-10 -3.0774e-10 4.75923e-10 )  
( 2.67013e-10 -2.37921e-10 4.82708e-10 )  
( 4.62247e-11 -1.00076e-10 1.09636e-10 )  
( 2.17445e-11 3.70355e-11 -9.33383e-11 )  
( 5.97275e-10 -1.05936e-10 -4.706e-11 )  
( 2.82927e-09 -9.73456e-10 5.1408e-10 )  
( 4.172e-10 1.16556e-10 7.95347e-11 )  
( 2.69526e-09 -1.48799e-09 1.23236e-09 )  
( 2.12448e-09 -1.23556e-09 7.19779e-10 )  
( 2.68054e-09 -4.9562e-10 1.23275e-09 )  
( 6.86837e-10 9.96894e-12 6.5802e-11 )  
( 1.20375e-09 -6.59049e-10 4.29361e-10 )  
( 9.47506e-10 -3.58849e-11 2.33719e-10 )  
( 7.8551e-10 -9.0155e-11 3.2278e-10 )  
( 1.71228e-09 -1.08709e-09 4.27307e-10 )  
( 2.48122e-09 -2.35429e-09 9.23261e-10 )  
( 2.52704e-10 -7.06406e-11 -8.8589e-12 )  
( 2.01212e-09 -1.07104e-09 3.5108e-10 )  
( 8.68642e-10 -1.81924e-10 4.4967e-11 )  
( 4.23678e-10 -3.7594e-11 -1.24258e-12 )  
( 2.92284e-09 -1.14209e-09 5.71662e-10 )  
( 5.11674e-10 1.07277e-10 -3.95105e-11 )  
( 4.8277e-11 -4.99128e-11 8.87759e-11 )  
( 1.21026e-09 -3.11465e-10 3.27626e-10 )  
( 3.49634e-10 -7.44052e-11 8.38271e-10 )  
( 1.40079e-09 -8.19656e-10 5.60254e-10 )  
( 1.82022e-09 -5.57482e-10 9.01578e-10 )  
( 2.08611e-09 -1.01482e-09 2.21685e-10 )  
( 3.1157e-09 -9.80008e-10 1.38534e-09 )  
( 3.13173e-11 -4.93125e-11 1.00916e-10 )  
( 4.5464e-09 -4.82321e-09 2.63737e-09 )  
( 1.18246e-09 -2.33882e-10 3.38885e-10 )  
( 3.70922e-09 -2.96228e-09 1.37242e-09 )  
( 3.83652e-10 2.0435e-10 8.34613e-11 )  
( 3.17036e-09 -2.37476e-09 1.18461e-09 )  
( 1.93555e-10 -9.69995e-11 1.32581e-10 )  
( 1.32274e-09 -1.05135e-09 -9.04552e-11 )  
( 1.17482e-09 -3.78622e-10 2.47299e-10 )  
( 9.25877e-10 -2.68275e-10 8.94752e-11 )  
( 1.55911e-09 -4.46958e-10 8.53641e-10 )  
( 2.9902e-10 2.65362e-11 3.63869e-11 )  
( 1.79194e-09 -6.46498e-10 6.83378e-10 )  
( 1.31928e-09 -4.0761e-10 6.04319e-10 )  
( 3.19233e-09 -9.13803e-10 8.91527e-10 )  
( 1.71657e-09 -2.56478e-10 4.43836e-10 )  
( 1.03328e-09 -3.68446e-10 -3.99598e-10 )  
( 3.10834e-10 -6.78531e-11 6.23055e-10 )  
( 2.92125e-09 -2.37303e-09 1.93571e-09 )  
( 3.56648e-09 -2.38121e-09 8.00485e-10 )  
( 8.17389e-11 -1.07668e-09 2.28434e-10 )  
( 1.14514e-10 3.07525e-11 1.03274e-10 )  
( 2.2209e-09 -5.8631e-10 -9.32108e-11 )  
( 4.60892e-10 -1.25694e-10 1.85464e-10 )  
( 3.6292e-09 -2.38369e-09 1.30566e-09 )  
( -1.28991e-11 -6.89489e-11 9.60209e-11 )  
( 1.03981e-09 -1.22908e-10 2.15415e-10 )  
( 9.70454e-10 -3.15399e-10 3.54935e-10 )  
( 1.91279e-09 -1.08295e-09 3.88859e-10 )  
( 1.70885e-09 -3.81019e-10 8.10707e-10 )  
( 3.57605e-09 -2.31173e-09 1.77649e-09 )  
( 6.76051e-10 1.38523e-10 5.84922e-10 )  
( 2.79632e-09 -7.7753e-10 1.08798e-09 )  
( 4.71864e-09 -3.95257e-09 3.44664e-09 )  
)
