/*--------------------------------*- C++ -*----------------------------------*\
| =========                 |                                                 |
| \\      /  F ield         | OpenFOAM: The Open Source CFD Toolbox           |
|  \\    /   O peration     | Version:  4.x                                   |
|   \\  /    A nd           | Web:      www.OpenFOAM.org                      |
|    \\/     M anipulation  |                                                 |
\*---------------------------------------------------------------------------*/
FoamFile
{
    version     2.0;
    format      ascii;
    class       volScalarField;
    location    "12";
    object      alpha.iron;
}
// * * * * * * * * * * * * * * * * * * * * * * * * * * * * * * * * * * * * * //

dimensions      [0 0 0 0 0 0 0];

internalField   nonuniform List<scalar> 
132
(
1
0.999998
0.999991
0.999978
0.999953
0.999913
0.999851
0.999765
0.99965
1
0.999998
0.999991
0.999975
0.999942
0.999888
0.999801
0.999683
0.999523
1
0.999997
0.99999
0.99997
0.999928
0.999857
0.999745
0.999586
0.999388
1
0.999997
0.999989
1
0.999999
0.999994
0.999981
0.999952
0.999902
0.999819
0.999705
0.99956
1
0.999998
0.999992
0.999972
0.999926
0.999841
0.99971
0.999546
0.999388
1
0.999998
0.99999
0.999964
0.999903
0.99979
0.999632
0.999465
0.999342
1
0.999998
0.999989
0.999958
0.999888
1
0.999999
0.999995
0.999985
0.999961
0.999918
0.999847
0.99975
0.999626
1
0.999999
0.999994
0.999976
0.999934
0.999857
0.999749
0.999632
0.999541
1
0.999999
0.999992
0.999967
0.999911
0.999811
0.99969
0.999594
0.999549
1
0.999998
0.999991
0.999963
0.999899
0.999789
0.99966
1
0.999999
0.999997
0.999991
0.999977
0.999952
0.999912
0.999858
0.999784
1
0.999999
0.999996
0.999984
0.999958
0.999913
0.999852
0.999789
0.999738
1
0.999999
0.999995
0.99998
0.999946
0.99989
0.999821
0.999764
0.999735
1
0.999999
0.999994
0.999976
0.999937
0.999875
0.999796
0.999732
0.999694
)
;

boundaryField
{
    inlet
    {
        type            fixedValue;
        value           uniform 1;
    }
    outlet
    {
        type            fixedValue;
        value           nonuniform 0();
    }
    wall
    {
        type            zeroGradient;
    }
    procBoundary0to1
    {
        type            processor;
        value           nonuniform List<scalar> 
12
(
0.999508
0.999333
0.999184
0.999407
0.999276
0.999317
0.999494
0.999521
0.999609
0.999695
0.999733
0.999764
)
;
    }
    procBoundary0to2
    {
        type            processor;
        value           nonuniform List<scalar> 
44
(
0.999968
0.999922
0.999843
0.999721
0.999549
0.999347
1
0.999997
0.999968
0.999989
0.999968
0.999922
0.999756
0.999578
0.999402
0.999286
1
0.999998
0.999991
0.999966
0.999756
0.999907
0.999756
0.999578
0.999564
0.999516
1
0.999999
0.999993
0.999972
0.999925
0.999838
0.999564
0.999724
0.999564
0.999516
1
0.999999
0.999995
0.999981
0.999952
0.999902
0.99984
0.999788
)
;
    }
    procBoundary0to4
    {
        type            processor;
        value           nonuniform List<scalar> 
36
(
1
0.999999
0.999998
0.999993
0.999981
0.999961
0.99993
0.999891
0.999843
1
0.999999
0.999996
0.999985
0.99996
0.999917
0.999867
0.999828
0.999822
1
0.999999
0.999996
0.999982
0.999953
0.999906
0.999853
0.999817
0.999816
1
0.999999
0.999995
0.999981
0.999949
0.999897
0.999839
0.999802
0.9998
)
;
    }
    procBoundary0to6
    {
        type            processor;
        value           uniform 0.999753;
    }
    procBoundary0to7
    {
        type            processor;
        value           uniform 0.99971;
    }
}


// ************************************************************************* //
