/*--------------------------------*- C++ -*----------------------------------*\
| =========                 |                                                 |
| \\      /  F ield         | OpenFOAM: The Open Source CFD Toolbox           |
|  \\    /   O peration     | Version:  4.x                                   |
|   \\  /    A nd           | Web:      www.OpenFOAM.org                      |
|    \\/     M anipulation  |                                                 |
\*---------------------------------------------------------------------------*/
FoamFile
{
    version     2.0;
    format      ascii;
    class       volVectorField;
    location    "12";
    object      ddtUrel;
}
// * * * * * * * * * * * * * * * * * * * * * * * * * * * * * * * * * * * * * //

dimensions      [0 1 -2 0 0 0 0];

internalField   nonuniform List<vector> 
132
(
(9.99883e-07 8.46596e-08 -2.21521e-07)
(1.09189e-06 3.34892e-08 -2.70363e-07)
(1.23673e-06 -1.20085e-07 -3.42203e-07)
(1.45434e-06 -3.35571e-08 -3.31541e-07)
(1.67681e-06 4.90322e-08 -3.20628e-07)
(1.77362e-06 1.05951e-07 -3.62162e-07)
(1.8796e-06 1.72704e-07 -4.77694e-07)
(2.02365e-06 3.6402e-07 -5.40005e-07)
(2.09875e-06 6.5516e-07 -6.75401e-07)
(1.05382e-06 9.48274e-08 -2.12142e-07)
(1.21333e-06 3.42905e-09 -2.63278e-07)
(1.22868e-06 -2.99804e-07 -4.43625e-07)
(1.55201e-06 -9.11016e-08 -3.02691e-07)
(1.66101e-06 6.86615e-08 -3.17417e-07)
(1.69612e-06 1.16467e-07 -3.67668e-07)
(1.88299e-06 1.58837e-07 -4.69104e-07)
(2.04164e-06 3.70176e-07 -5.66974e-07)
(2.07606e-06 6.38338e-07 -6.74421e-07)
(1.28529e-06 1.26225e-07 -1.89059e-07)
(1.43531e-06 5.18934e-08 -1.94891e-07)
(1.65182e-06 -6.49572e-08 -2.44004e-07)
(1.82037e-06 -3.15601e-09 -2.63782e-07)
(1.7941e-06 1.53072e-07 -3.32922e-07)
(1.71917e-06 1.81453e-07 -3.98059e-07)
(2.05343e-06 1.92304e-07 -4.94619e-07)
(2.26476e-06 3.19465e-07 -6.84518e-07)
(2.58728e-06 4.92307e-07 -8.66345e-07)
(1.34103e-06 9.90562e-08 -1.82932e-07)
(1.58304e-06 6.34782e-08 -1.67899e-07)
(1.8794e-06 1.76241e-08 -2.15421e-07)
(9.43834e-07 8.78797e-08 -2.12879e-07)
(1.06873e-06 6.07149e-08 -2.58008e-07)
(1.18648e-06 -3.55932e-08 -2.97264e-07)
(1.32232e-06 1.14113e-08 -2.88462e-07)
(1.47525e-06 6.22097e-08 -3.11269e-07)
(1.56029e-06 1.26103e-07 -3.44276e-07)
(1.62828e-06 1.93949e-07 -4.23377e-07)
(1.7235e-06 3.76087e-07 -4.96221e-07)
(1.85772e-06 5.67938e-07 -6.34373e-07)
(1.03024e-06 1.07395e-07 -2.15747e-07)
(1.09429e-06 4.02912e-08 -2.41781e-07)
(1.19845e-06 -1.99903e-07 -3.8153e-07)
(1.42924e-06 -8.21499e-10 -2.79683e-07)
(1.45969e-06 1.05868e-07 -3.1502e-07)
(1.47657e-06 1.53953e-07 -3.48634e-07)
(1.60582e-06 2.24865e-07 -3.91206e-07)
(1.60883e-06 3.98081e-07 -5.033e-07)
(1.54108e-06 5.91712e-07 -6.41573e-07)
(1.16518e-06 1.24257e-07 -2.16552e-07)
(1.27469e-06 9.7605e-08 -2.09807e-07)
(1.45565e-06 1.08229e-08 -2.50884e-07)
(1.62413e-06 1.03794e-07 -2.58625e-07)
(1.52897e-06 2.3941e-07 -2.99919e-07)
(1.45534e-06 2.39074e-07 -3.59819e-07)
(1.59406e-06 2.52268e-07 -3.58612e-07)
(1.59877e-06 3.22745e-07 -5.95173e-07)
(1.61893e-06 5.90774e-07 -7.91797e-07)
(1.22513e-06 1.48121e-07 -2.06284e-07)
(1.39833e-06 1.24713e-07 -1.8854e-07)
(1.58512e-06 1.00953e-07 -2.23294e-07)
(1.80239e-06 1.60699e-07 -2.56057e-07)
(1.60861e-06 2.82215e-07 -3.1662e-07)
(8.69871e-07 1.34198e-07 -2.47759e-07)
(9.43751e-07 1.16663e-07 -2.74637e-07)
(1.09036e-06 9.07332e-08 -2.67537e-07)
(1.21977e-06 1.01735e-07 -2.81194e-07)
(1.30305e-06 1.43591e-07 -3.04156e-07)
(1.38298e-06 2.06565e-07 -2.83851e-07)
(1.40073e-06 2.45071e-07 -3.04011e-07)
(1.33525e-06 3.69776e-07 -3.91039e-07)
(1.42434e-06 4.83345e-07 -4.99834e-07)
(8.92984e-07 1.61502e-07 -2.52437e-07)
(1.0078e-06 1.42379e-07 -2.64646e-07)
(1.16046e-06 8.26055e-08 -2.69599e-07)
(1.30661e-06 1.2866e-07 -2.60291e-07)
(1.29505e-06 1.71448e-07 -3.08053e-07)
(1.2641e-06 1.90688e-07 -3.07911e-07)
(1.24548e-06 2.81867e-07 -3.28839e-07)
(1.1379e-06 4.08832e-07 -4.72789e-07)
(1.10029e-06 5.32666e-07 -5.38487e-07)
(1.00949e-06 1.96173e-07 -2.62268e-07)
(1.14642e-06 1.90814e-07 -2.68486e-07)
(1.30239e-06 1.57176e-07 -2.66399e-07)
(1.40246e-06 2.09163e-07 -2.81369e-07)
(1.30242e-06 2.7653e-07 -3.23943e-07)
(1.24787e-06 2.44753e-07 -3.04262e-07)
(1.18605e-06 2.922e-07 -3.15088e-07)
(9.91393e-07 4.03359e-07 -5.42931e-07)
(9.12033e-07 5.70859e-07 -6.98699e-07)
(1.10498e-06 2.30996e-07 -2.75665e-07)
(1.25205e-06 2.10097e-07 -2.71865e-07)
(1.4541e-06 2.14031e-07 -2.64844e-07)
(1.56055e-06 2.8495e-07 -3.06681e-07)
(1.38546e-06 3.13096e-07 -3.606e-07)
(1.31478e-06 2.26225e-07 -3.95107e-07)
(1.26656e-06 2.54751e-07 -4.64174e-07)
(8.63575e-07 2.061e-07 -3.22141e-07)
(9.5387e-07 2.10077e-07 -3.33445e-07)
(1.05083e-06 1.98852e-07 -3.03727e-07)
(1.14128e-06 1.91236e-07 -3.11768e-07)
(1.1178e-06 2.03477e-07 -3.05567e-07)
(1.15486e-06 2.29561e-07 -2.52829e-07)
(1.11861e-06 2.70504e-07 -2.44903e-07)
(1.10296e-06 3.17061e-07 -3.0951e-07)
(1.24629e-06 4.18079e-07 -3.87011e-07)
(8.68099e-07 2.44808e-07 -3.30466e-07)
(9.85222e-07 2.37517e-07 -3.2108e-07)
(1.08699e-06 2.0487e-07 -2.89787e-07)
(1.16143e-06 1.77842e-07 -2.69772e-07)
(1.10381e-06 2.18364e-07 -2.97413e-07)
(1.04995e-06 2.63141e-07 -2.87674e-07)
(9.38041e-07 3.18604e-07 -3.19701e-07)
(8.30854e-07 3.62256e-07 -4.01167e-07)
(8.80089e-07 4.8765e-07 -4.41755e-07)
(9.60336e-07 2.96495e-07 -3.34545e-07)
(1.06803e-06 2.8395e-07 -3.28753e-07)
(1.19378e-06 2.56353e-07 -3.02553e-07)
(1.21664e-06 2.38179e-07 -2.99248e-07)
(1.1827e-06 2.61648e-07 -3.2487e-07)
(1.11077e-06 2.6661e-07 -3.48167e-07)
(8.91949e-07 3.29924e-07 -4.00949e-07)
(6.13852e-07 4.59254e-07 -5.0969e-07)
(5.25048e-07 6.38995e-07 -5.77036e-07)
(9.7951e-07 3.32483e-07 -3.57382e-07)
(1.14572e-06 3.17471e-07 -3.35201e-07)
(1.33995e-06 3.151e-07 -3.21161e-07)
(1.40276e-06 2.93543e-07 -3.44939e-07)
(1.28878e-06 2.84131e-07 -3.97816e-07)
(1.17527e-06 2.30667e-07 -4.05288e-07)
(9.61305e-07 2.6374e-07 -4.69281e-07)
(6.5395e-07 4.69898e-07 -5.41063e-07)
(4.20342e-07 7.55356e-07 -7.0461e-07)
)
;

boundaryField
{
    inlet
    {
        type            calculated;
        value           nonuniform List<vector> 
16
(
(7.78618e-07 2.13916e-07 -1.40854e-07)
(5.18572e-07 2.5936e-07 -6.37786e-08)
(1.65034e-06 4.42748e-07 5.5954e-09)
(-1.61653e-07 2.85559e-07 6.98887e-08)
(7.5765e-07 9.01154e-08 4.61642e-08)
(2.83881e-07 1.44922e-07 8.00446e-08)
(8.36954e-07 7.21739e-08 -8.30809e-08)
(4.39401e-07 2.56602e-07 1.61492e-07)
(3.82983e-07 2.7379e-08 -1.17387e-08)
(2.70747e-07 8.06703e-08 1.70319e-09)
(2.70469e-07 1.30749e-07 3.79147e-08)
(2.40598e-07 2.18449e-07 1.21193e-07)
(3.21963e-07 8.5438e-08 -6.22992e-08)
(2.1907e-07 8.98641e-08 -2.44627e-08)
(5.9924e-07 1.54118e-07 1.09947e-08)
(5.10919e-07 2.45446e-07 -4.27986e-08)
)
;
    }
    outlet
    {
        type            calculated;
        value           nonuniform 0();
    }
    wall
    {
        type            calculated;
        value           nonuniform List<vector> 
66
(
(7.28649e-07 2.52899e-07 -1.30761e-07)
(4.18222e-07 2.94463e-07 -9.13645e-08)
(1.26313e-06 5.62717e-07 -1.46839e-08)
(8.51526e-09 2.59667e-07 7.05571e-08)
(6.47892e-07 4.80655e-07 -2.57418e-07)
(9.17475e-07 3.7987e-07 -4.41967e-08)
(1.95815e-06 2.43671e-07 1.76258e-07)
(2.33708e-06 7.41027e-08 2.8956e-07)
(5.6953e-07 -5.51454e-07 -4.14208e-07)
(-3.69233e-06 -3.45539e-06 -2.59082e-06)
(3.16301e-06 -5.44935e-07 2.61059e-07)
(3.59638e-06 -1.32552e-09 1.54906e-07)
(1.54786e-06 1.949e-07 -4.6681e-07)
(2.65179e-06 -6.81939e-07 2.63336e-08)
(3.00228e-06 -5.32576e-07 3.28495e-08)
(2.45057e-06 8.85332e-08 -2.17958e-07)
(2.66291e-06 9.48509e-08 -1.43671e-07)
(3.51924e-06 4.05699e-07 -2.57934e-07)
(2.77337e-06 -3.03939e-08 -1.79092e-07)
(2.64969e-06 -1.52204e-07 -1.71599e-07)
(2.40236e-06 8.18729e-08 -3.04961e-08)
(2.43296e-06 -4.16475e-07 -7.89716e-07)
(4.62966e-06 -9.8754e-07 -5.19169e-07)
(5.69111e-06 -3.22672e-07 -1.41506e-07)
(3.14537e-06 -1.58781e-07 -3.40153e-07)
(4.76045e-06 -6.10886e-08 -4.10337e-07)
(6.83068e-06 -2.70949e-07 -8.07859e-07)
(2.07549e-06 -5.09444e-08 -2.14963e-07)
(4.31695e-06 1.78899e-07 -9.60518e-08)
(9.57918e-06 2.50028e-07 -2.18439e-07)
(8.73299e-07 2.12496e-07 -1.35116e-07)
(6.51294e-07 9.3942e-08 1.48462e-08)
(3.04029e-07 3.24917e-08 -3.68382e-10)
(3.33953e-07 7.57457e-08 -5.13992e-08)
(9.06437e-07 4.27573e-07 -2.49042e-07)
(1.16749e-06 2.23222e-07 -2.33472e-07)
(5.62782e-07 -2.01546e-09 -1.88137e-07)
(4.79134e-07 9.01548e-08 -1.63093e-07)
(3.60815e-07 -5.86148e-07 -3.77464e-07)
(1.38443e-06 1.11284e-08 -7.60111e-08)
(7.73364e-07 -8.72562e-08 9.08207e-08)
(4.50423e-07 -5.34513e-08 2.97829e-08)
(1.57479e-06 6.87638e-08 -5.06566e-07)
(9.38708e-07 -1.59126e-07 -1.63347e-07)
(7.796e-07 -1.68163e-07 -1.46483e-07)
(1.00879e-06 1.73951e-08 -3.60118e-07)
(3.45781e-06 -1.76697e-08 -2.02006e-07)
(1.40388e-06 -3.45192e-07 -2.54862e-07)
(8.00848e-07 -6.8042e-08 -3.52498e-07)
(9.44638e-07 -6.89182e-08 -3.66948e-07)
(2.77892e-06 -1.24929e-07 -2.53076e-07)
(2.69109e-06 -4.47511e-07 -2.63339e-07)
(2.53598e-06 2.51239e-07 7.33036e-08)
(1.75963e-06 -2.51818e-07 1.84043e-07)
(3.02104e-06 -4.6348e-07 -7.89917e-07)
(9.35899e-07 -5.20746e-07 -5.69433e-07)
(2.62968e-06 -1.14115e-07 5.57546e-08)
(1.85563e-06 -5.53138e-08 4.55345e-07)
(3.65967e-06 -2.53877e-07 -3.15985e-07)
(1.91912e-06 6.90108e-08 -3.08638e-07)
(7.6111e-07 1.65067e-07 -2.22942e-07)
(5.3865e-07 -2.49868e-07 -1.44817e-07)
(1.31398e-06 -9.1749e-08 -2.50106e-07)
(5.43631e-06 -3.71409e-08 -3.47641e-07)
(2.72358e-06 -1.54767e-07 -3.47785e-07)
(1.65435e-06 9.56656e-08 -1.44534e-07)
)
;
    }
    procBoundary0to1
    {
        type            processor;
        value           nonuniform List<vector> 
12
(
(2.14578e-06 1.05903e-06 -9.44293e-07)
(2.16522e-06 9.85453e-07 -9.56128e-07)
(2.39167e-06 8.62217e-07 -1.03428e-06)
(1.53498e-06 8.52486e-07 -6.99182e-07)
(1.32945e-06 8.57786e-07 -7.45419e-07)
(1.2915e-06 8.47345e-07 -8.45568e-07)
(1.19972e-06 6.56386e-07 -5.38381e-07)
(9.11883e-07 7.72877e-07 -6.00148e-07)
(4.84157e-07 8.61465e-07 -7.38472e-07)
(1.11065e-06 5.24002e-07 -3.54784e-07)
(8.24322e-07 7.10768e-07 -4.60262e-07)
(4.42887e-07 9.09373e-07 -6.07657e-07)
)
;
    }
    procBoundary0to2
    {
        type            processor;
        value           nonuniform List<vector> 
44
(
(2.04724e-06 5.82909e-08 -2.45969e-07)
(1.87803e-06 1.66557e-07 -3.63275e-07)
(1.76177e-06 1.71602e-07 -5.19364e-07)
(2.11063e-06 2.23672e-07 -7.68469e-07)
(2.4198e-06 3.08821e-07 -1.09995e-06)
(2.80021e-06 4.99509e-07 -1.42472e-06)
(1.39686e-06 -1.23268e-08 -2.09405e-07)
(1.49411e-06 -1.93372e-09 -1.9495e-07)
(2.04724e-06 5.82909e-08 -2.45969e-07)
(1.82289e-06 -5.76613e-08 -2.62309e-07)
(2.04724e-06 5.82909e-08 -2.45969e-07)
(1.87803e-06 1.66557e-07 -3.63275e-07)
(1.48344e-06 2.24257e-07 -4.48203e-07)
(1.6626e-06 2.22541e-07 -5.69079e-07)
(1.59635e-06 3.36898e-07 -9.04844e-07)
(1.66854e-06 5.4063e-07 -1.11398e-06)
(1.18261e-06 1.14358e-07 -2.49498e-07)
(1.35537e-06 9.94413e-08 -2.29703e-07)
(1.65927e-06 8.14499e-08 -2.71808e-07)
(1.84255e-06 1.00835e-07 -3.12117e-07)
(1.48344e-06 2.24257e-07 -4.48203e-07)
(1.6345e-06 1.42138e-07 -4.24519e-07)
(1.48344e-06 2.24257e-07 -4.48203e-07)
(1.6626e-06 2.22541e-07 -5.69079e-07)
(1.06152e-06 4.02075e-07 -7.23787e-07)
(7.40181e-07 7.31403e-07 -8.35192e-07)
(1.1368e-06 2.13539e-07 -3.08155e-07)
(1.26109e-06 2.04418e-07 -3.06631e-07)
(1.52125e-06 1.9745e-07 -3.10491e-07)
(1.65005e-06 2.17595e-07 -3.59044e-07)
(1.47168e-06 2.17146e-07 -4.81588e-07)
(1.43083e-06 1.95558e-07 -5.80046e-07)
(1.06152e-06 4.02075e-07 -7.23787e-07)
(1.47126e-06 2.41251e-07 -7.71012e-07)
(1.06152e-06 4.02075e-07 -7.23787e-07)
(7.40181e-07 7.31403e-07 -8.35192e-07)
(1.04606e-06 3.29988e-07 -3.719e-07)
(1.23051e-06 3.18197e-07 -3.58771e-07)
(1.4305e-06 2.83026e-07 -3.39398e-07)
(1.51119e-06 2.72843e-07 -4.00351e-07)
(1.41303e-06 2.51263e-07 -4.96335e-07)
(1.34229e-06 2.0563e-07 -5.63752e-07)
(1.23013e-06 2.88351e-07 -6.97496e-07)
(9.93337e-07 4.20825e-07 -8.06854e-07)
)
;
    }
    procBoundary0to4
    {
        type            processor;
        value           nonuniform List<vector> 
36
(
(7.73413e-07 2.33847e-07 -3.45945e-07)
(8.62942e-07 2.46254e-07 -3.42279e-07)
(9.86452e-07 2.48992e-07 -3.08604e-07)
(1.03316e-06 2.31077e-07 -2.92494e-07)
(1.01469e-06 2.52548e-07 -2.86699e-07)
(9.64935e-07 2.52813e-07 -2.54157e-07)
(9.9208e-07 2.68864e-07 -2.44239e-07)
(1.03539e-06 2.96557e-07 -2.62131e-07)
(9.96078e-07 3.88427e-07 -2.56274e-07)
(8.04136e-07 2.77866e-07 -3.53681e-07)
(8.95516e-07 2.84302e-07 -3.47872e-07)
(9.72475e-07 2.55042e-07 -3.11029e-07)
(9.96879e-07 2.31067e-07 -2.86727e-07)
(9.53927e-07 2.44588e-07 -2.95736e-07)
(8.86255e-07 2.48467e-07 -2.96258e-07)
(8.06529e-07 2.67783e-07 -3.11591e-07)
(7.1698e-07 3.45636e-07 -3.35857e-07)
(7.33466e-07 5.07462e-07 -3.54246e-07)
(8.45431e-07 3.24502e-07 -3.57737e-07)
(9.46558e-07 3.20065e-07 -3.44381e-07)
(1.03653e-06 2.76343e-07 -3.1838e-07)
(1.04655e-06 2.39748e-07 -3.01664e-07)
(1.00581e-06 2.39864e-07 -3.03542e-07)
(9.33221e-07 2.50008e-07 -3.75296e-07)
(7.58276e-07 2.8275e-07 -4.28134e-07)
(5.48648e-07 4.32509e-07 -4.39964e-07)
(5.77369e-07 6.29955e-07 -4.49623e-07)
(9.09726e-07 3.72571e-07 -3.89979e-07)
(1.07136e-06 3.56877e-07 -3.69164e-07)
(1.19749e-06 3.03749e-07 -3.53046e-07)
(1.24466e-06 2.76346e-07 -3.41732e-07)
(1.12143e-06 2.5209e-07 -3.79475e-07)
(1.02811e-06 2.01009e-07 -4.43419e-07)
(8.72245e-07 2.61356e-07 -4.91411e-07)
(5.65735e-07 4.35028e-07 -5.36019e-07)
(4.52031e-07 6.9336e-07 -5.81343e-07)
)
;
    }
    procBoundary0to6
    {
        type            processor;
        value           uniform (8.94351e-07 7.17215e-07 -8.90383e-07);
    }
    procBoundary0to7
    {
        type            processor;
        value           uniform (2.08252e-07 9.3029e-07 -8.64266e-07);
    }
}


// ************************************************************************* //
