/*--------------------------------*- C++ -*----------------------------------*\
| =========                 |                                                 |
| \\      /  F ield         | OpenFOAM: The Open Source CFD Toolbox           |
|  \\    /   O peration     | Version:  4.x                                   |
|   \\  /    A nd           | Web:      www.OpenFOAM.org                      |
|    \\/     M anipulation  |                                                 |
\*---------------------------------------------------------------------------*/
FoamFile
{
    version     2.0;
    format      ascii;
    class       volVectorField;
    location    "12";
    object      DDtUrel;
}
// * * * * * * * * * * * * * * * * * * * * * * * * * * * * * * * * * * * * * //

dimensions      [0 1 -2 0 0 0 0];

internalField   nonuniform List<vector> 
132
(
(0.00193519 -8.13275e-05 -0.000207668)
(0.00134522 -4.60683e-05 -0.000113924)
(0.000998486 -1.96863e-05 -3.13602e-05)
(0.000809345 -7.49763e-06 3.16942e-05)
(0.000679089 -6.51813e-06 8.43082e-05)
(0.000585803 -1.65127e-05 0.000136245)
(0.000472541 -3.23852e-05 0.000177635)
(0.000387148 -4.05541e-05 0.000221246)
(0.000265551 -4.13804e-05 0.000225706)
(0.00189411 -8.05202e-05 -0.000210536)
(0.0012908 -4.18937e-05 -0.000114284)
(0.000938604 -1.6501e-05 -3.07606e-05)
(0.000743844 -6.46086e-06 3.23714e-05)
(0.000601063 -7.34626e-06 8.80357e-05)
(0.000491263 -2.17172e-05 0.000142021)
(0.000362256 -4.04159e-05 0.000175595)
(0.000256748 -5.06233e-05 0.000203272)
(0.000133336 -4.32665e-05 0.000177236)
(0.00185569 -5.87574e-05 -0.000212743)
(0.00124157 -2.96012e-05 -0.000113651)
(0.00088167 -1.34137e-05 -2.84098e-05)
(0.000673406 -4.5535e-06 3.75992e-05)
(0.000516441 -5.08617e-06 9.22053e-05)
(0.000393618 -1.40636e-05 0.000150307)
(0.000246671 -2.40377e-05 0.000174687)
(0.000141954 -2.62237e-05 0.000184328)
(3.66071e-05 -2.0483e-05 0.000128742)
(0.00183926 -1.76415e-05 -0.000215579)
(0.00122189 -4.43038e-06 -0.000114685)
(0.000859374 -2.29217e-06 -2.7722e-05)
(0.0018447 -8.70382e-05 -0.000248806)
(0.00122444 -4.89794e-05 -0.000124295)
(0.000856508 -2.21596e-05 -3.3441e-05)
(0.000653037 -1.01144e-05 3.41682e-05)
(0.000521125 -5.16943e-06 8.28596e-05)
(0.00043889 -9.12045e-06 0.000132928)
(0.000359194 -1.7674e-05 0.000165682)
(0.000313847 -2.11114e-05 0.000206193)
(0.000248734 -2.35161e-05 0.000204637)
(0.00180075 -8.60266e-05 -0.000252744)
(0.00116684 -4.39913e-05 -0.000123642)
(0.000794372 -1.80611e-05 -3.00019e-05)
(0.000583553 -7.27972e-06 3.85396e-05)
(0.000445966 -5.31048e-06 8.60607e-05)
(0.000356302 -9.75407e-06 0.000135436)
(0.000274334 -1.90489e-05 0.000153927)
(0.000223395 -2.48367e-05 0.000175361)
(0.000163077 -2.44819e-05 0.000143882)
(0.00176022 -6.25427e-05 -0.000255496)
(0.00111772 -3.03963e-05 -0.000123028)
(0.000740804 -1.2959e-05 -2.71014e-05)
(0.000524069 -4.05629e-06 4.61266e-05)
(0.000383912 -3.9696e-06 9.00785e-05)
(0.000289165 -5.10955e-06 0.000140649)
(0.000208906 -1.16366e-05 0.000143881)
(0.000163266 -1.27961e-05 0.000145153)
(0.000111405 -1.12598e-05 9.72276e-05)
(0.00174396 -1.71564e-05 -0.00025985)
(0.00109615 -6.7277e-06 -0.000123624)
(0.000718446 -2.60676e-06 -2.54072e-05)
(0.000499669 -6.90028e-07 4.83525e-05)
(0.0003618 -4.20234e-06 9.02485e-05)
(0.00176307 -9.6701e-05 -0.000231421)
(0.00111352 -5.33793e-05 -0.000115788)
(0.000732461 -2.27598e-05 -3.4676e-05)
(0.000519747 -8.43328e-06 3.02532e-05)
(0.00039195 -2.61984e-06 7.01764e-05)
(0.000325727 -1.13526e-06 0.000113764)
(0.000272802 -4.01419e-06 0.000134312)
(0.000258437 -3.23946e-06 0.000162962)
(0.000237512 -5.69098e-06 0.000160469)
(0.00171484 -9.58291e-05 -0.000234307)
(0.00105394 -4.83889e-05 -0.00011266)
(0.000672043 -1.89163e-05 -2.85501e-05)
(0.000458203 -3.44778e-06 3.75691e-05)
(0.000332682 -6.44982e-07 7.0972e-05)
(0.00026368 1.06808e-06 0.00011014)
(0.000216855 -5.7047e-06 0.00011661)
(0.000200834 -1.18492e-05 0.000126096)
(0.000179649 -1.11335e-05 0.000101931)
(0.00167123 -6.95682e-05 -0.000233493)
(0.00100223 -3.27357e-05 -0.000110101)
(0.000622044 -1.24243e-05 -2.44103e-05)
(0.000410001 -2.38713e-07 4.35083e-05)
(0.000292136 -5.48237e-07 7.22566e-05)
(0.000224287 1.09531e-06 0.000107896)
(0.000182792 -4.55729e-06 0.000103266)
(0.000166189 -6.72573e-06 9.95396e-05)
(0.00014584 -5.88502e-06 6.59438e-05)
(0.0016533 -1.41597e-05 -0.00023615)
(0.000979608 -6.32369e-06 -0.000109668)
(0.000602639 -3.46859e-06 -2.25854e-05)
(0.000391567 -1.92619e-06 4.58776e-05)
(0.000278704 -3.7971e-06 7.19912e-05)
(0.00021218 -5.97921e-06 0.000106424)
(0.00017564 -4.9578e-06 9.96477e-05)
(0.00172047 -0.000104598 -0.00018731)
(0.00105677 -5.53867e-05 -9.55939e-05)
(0.000666651 -2.16129e-05 -2.98351e-05)
(0.000451276 -4.0759e-06 2.35338e-05)
(0.00032731 3.74268e-07 5.43583e-05)
(0.000270897 3.36649e-06 8.78239e-05)
(0.000234178 3.92573e-06 0.000102784)
(0.000238525 5.03875e-06 0.000124632)
(0.000231387 1.23964e-06 0.000122735)
(0.00166805 -0.000101026 -0.000187071)
(0.000993852 -4.9281e-05 -9.12845e-05)
(0.000606817 -1.77141e-05 -2.4085e-05)
(0.000395919 -1.65289e-07 3.02001e-05)
(0.00027861 2.39927e-06 5.6302e-05)
(0.000223866 5.25882e-06 8.49407e-05)
(0.000190021 1.69461e-06 8.65381e-05)
(0.000190302 -8.15902e-07 8.99436e-05)
(0.000182395 -3.20611e-06 7.05853e-05)
(0.00162561 -7.17894e-05 -0.00018349)
(0.000945516 -3.35436e-05 -8.54745e-05)
(0.000562158 -1.18426e-05 -1.90446e-05)
(0.000357664 1.44934e-06 3.40552e-05)
(0.000246996 1.41282e-06 5.62828e-05)
(0.000196774 3.92752e-06 8.0044e-05)
(0.000163791 -9.41924e-07 7.49325e-05)
(0.000161415 -3.55245e-06 6.81882e-05)
(0.000151679 -5.39079e-06 4.25781e-05)
(0.00160904 -1.70106e-05 -0.000182993)
(0.000923054 -5.61991e-06 -8.48986e-05)
(0.000544336 -2.65313e-06 -1.84051e-05)
(0.000342137 -1.161e-06 3.3789e-05)
(0.000236692 -2.87793e-06 5.57427e-05)
(0.000186183 -3.86527e-06 7.92494e-05)
(0.000157931 -3.68562e-06 7.09496e-05)
(0.000148985 -1.23384e-06 5.89506e-05)
(0.000142561 -1.00977e-06 3.0105e-05)
)
;

boundaryField
{
    inlet
    {
        type            calculated;
        value           nonuniform List<vector> 
16
(
(0.00424941 -0.000180558 -0.000376634)
(0.00412671 -0.00025302 -0.000395193)
(0.00407108 -0.000200872 -0.00040099)
(0.00406228 -8.19768e-05 -0.00042586)
(0.00396196 -0.000201483 -0.000819469)
(0.00382227 -0.000277865 -0.000860578)
(0.00374817 -0.000224012 -0.000878228)
(0.00374032 -7.38588e-05 -0.000946042)
(0.00389582 -0.000245143 -0.000679078)
(0.00372183 -0.000341385 -0.000728069)
(0.00362754 -0.000292928 -0.00070866)
(0.00358016 -2.23503e-05 -0.000752209)
(0.00394798 -0.000286388 -0.00054959)
(0.00373275 -0.000352911 -0.000581035)
(0.00365995 -0.000278026 -0.000560379)
(0.00364727 -7.35631e-05 -0.000551435)
)
;
    }
    outlet
    {
        type            calculated;
        value           nonuniform 0();
    }
    wall
    {
        type            calculated;
        value           nonuniform List<vector> 
66
(
(0.00424941 -0.000180558 -0.000376634)
(0.00412671 -0.00025302 -0.000395193)
(0.00407108 -0.000200872 -0.00040099)
(0.00406228 -8.19768e-05 -0.00042586)
(0.00109348 -2.12268e-05 -4.48248e-05)
(0.000841786 -1.75032e-05 -4.74937e-05)
(0.000706933 -2.47083e-05 -3.49911e-05)
(0.000699563 4.33908e-05 -3.73852e-05)
(0.00110715 2.40544e-05 3.62032e-05)
(0.000860993 3.82497e-05 2.76412e-05)
(0.000716332 -1.56108e-05 3.49389e-05)
(0.000721232 -5.47555e-07 3.55595e-05)
(0.00129772 3.3612e-05 5.588e-05)
(0.00108155 2.87843e-05 2.37807e-05)
(0.000839909 1.96337e-05 6.01247e-05)
(0.0012824 2.74694e-05 7.95371e-05)
(0.000989884 2.06473e-05 9.80777e-05)
(0.000646197 2.41755e-05 9.41652e-05)
(0.00139055 -4.10897e-06 0.000162926)
(0.000976288 -8.36946e-05 0.000220551)
(0.000586872 -3.60375e-05 0.000299796)
(0.00106718 -7.75946e-05 0.000213226)
(0.00057089 -0.000207978 0.000257406)
(-5.28942e-05 -8.81683e-05 0.000311239)
(0.00112857 -9.28796e-05 0.00044919)
(0.000369452 -0.000291755 0.000465533)
(-0.000243561 -8.57329e-05 0.000469017)
(0.000589701 -6.69217e-05 0.000522476)
(-0.000276868 -0.00014153 0.000328262)
(-0.000767735 -4.64076e-05 0.000106684)
(0.00424941 -0.000180558 -0.000376634)
(0.00396196 -0.000201483 -0.000819469)
(0.00389582 -0.000245143 -0.000679078)
(0.00394798 -0.000286388 -0.00054959)
(0.00109348 -2.12268e-05 -4.48248e-05)
(0.000553341 -2.32507e-05 -7.50573e-05)
(0.000259705 -3.48894e-05 -4.94785e-05)
(0.000281009 -2.34755e-05 -5.58158e-05)
(0.00110715 2.40544e-05 3.62032e-05)
(0.00045919 7.25847e-06 2.86336e-05)
(0.00019382 1.30327e-05 -1.97077e-05)
(0.000189208 2.49855e-05 -1.30248e-05)
(0.00129772 3.3612e-05 5.588e-05)
(0.000563318 -8.89732e-06 0.000101677)
(0.000234864 -4.21096e-06 9.73199e-05)
(0.000227742 3.49063e-05 7.99774e-05)
(0.0012824 2.74694e-05 7.95371e-05)
(0.000502504 2.04106e-05 0.000102938)
(0.000177043 4.08903e-06 6.533e-05)
(0.000164005 -4.84392e-06 3.94081e-05)
(0.00139055 -4.10897e-06 0.000162926)
(0.000580121 6.17623e-06 0.000229821)
(0.000294215 1.71507e-05 0.000220094)
(0.000282842 8.5861e-07 0.000157835)
(0.00106718 -7.75946e-05 0.000213226)
(0.000425348 -2.66762e-05 0.000235827)
(0.000173341 6.85898e-06 0.000162804)
(0.000195445 2.47176e-05 0.000124256)
(0.00112857 -9.28796e-05 0.00044919)
(0.000600744 -7.97686e-06 0.000523018)
(0.000347728 6.32166e-05 0.000361895)
(0.000426353 5.76358e-05 0.000301224)
(0.000589701 -6.69217e-05 0.000522476)
(0.000355067 -2.89238e-05 0.000494736)
(0.000293282 2.69285e-05 0.000339982)
(0.000298084 5.2835e-06 0.000322692)
)
;
    }
    procBoundary0to1
    {
        type            processor;
        value           nonuniform List<vector> 
12
(
(0.000185196 -4.92079e-05 0.000204252)
(7.4751e-05 -4.64847e-05 0.000136276)
(1.15349e-05 -9.62397e-06 7.0798e-05)
(0.000226897 -2.3245e-05 0.000192621)
(0.000149265 -2.39198e-05 0.000109376)
(0.000105208 -5.04191e-06 4.21476e-05)
(0.00024942 -2.73394e-06 0.000151781)
(0.00018593 -1.52556e-05 7.16129e-05)
(0.000145002 -2.74944e-06 2.422e-05)
(0.000259158 6.18585e-06 0.000110481)
(0.000198341 -2.86436e-06 3.62136e-05)
(0.000155838 -3.60058e-06 9.30079e-06)
)
;
    }
    procBoundary0to2
    {
        type            processor;
        value           nonuniform List<vector> 
44
(
(0.000643947 -1.17102e-06 3.89364e-05)
(0.000486021 -4.57625e-06 9.40896e-05)
(0.000362882 -7.10978e-06 0.000155038)
(0.00022232 -7.42448e-06 0.000175635)
(0.000132486 -4.15464e-06 0.000180736)
(4.39035e-05 -4.0856e-06 0.000121637)
(0.00184571 3.00248e-05 -0.000212265)
(0.00122904 1.91403e-05 -0.000117277)
(0.000643947 -1.17102e-06 3.89364e-05)
(0.00086788 9.58861e-06 -2.86246e-05)
(0.000643947 -1.17102e-06 3.89364e-05)
(0.000486021 -4.57625e-06 9.40896e-05)
(0.000268358 -7.04573e-06 0.000141517)
(0.000196818 -7.43975e-06 0.000141315)
(0.000162347 -4.76963e-06 0.000140537)
(0.000118217 -2.5326e-06 8.83808e-05)
(0.00175686 3.3206e-05 -0.000252308)
(0.00110823 1.82078e-05 -0.000124802)
(0.000730752 9.23205e-06 -2.81775e-05)
(0.000517703 1.77535e-06 4.45951e-05)
(0.000268358 -7.04573e-06 0.000141517)
(0.00038261 -5.51335e-06 8.84184e-05)
(0.000268358 -7.04573e-06 0.000141517)
(0.000196818 -7.43975e-06 0.000141315)
(0.000160882 -3.91173e-07 9.09028e-05)
(0.000142504 5.55447e-08 5.54505e-05)
(0.00167284 4.15383e-05 -0.00023368)
(0.000998335 1.89944e-05 -0.000109483)
(0.000617946 7.16937e-06 -2.48928e-05)
(0.000408215 -1.7398e-06 4.20973e-05)
(0.000290518 -6.15659e-06 7.2861e-05)
(0.000228224 -1.19464e-05 0.000110679)
(0.000160882 -3.91173e-07 9.09028e-05)
(0.000192965 -8.20974e-06 0.000108029)
(0.000160882 -3.91173e-07 9.09028e-05)
(0.000142504 5.55447e-08 5.54505e-05)
(0.00162475 4.21709e-05 -0.000185998)
(0.000939301 2.02679e-05 -8.47594e-05)
(0.000558455 5.98373e-06 -2.07966e-05)
(0.000355406 -4.02374e-06 3.17874e-05)
(0.000246169 -6.1316e-06 5.61331e-05)
(0.000197868 -9.89235e-06 8.16061e-05)
(0.000170267 -7.12163e-06 7.49962e-05)
(0.000170217 -2.51324e-06 6.72094e-05)
)
;
    }
    procBoundary0to4
    {
        type            processor;
        value           nonuniform List<vector> 
36
(
(0.00170535 -0.000108739 -0.000122313)
(0.00102693 -5.74982e-05 -6.54285e-05)
(0.000632043 -2.22922e-05 -2.3307e-05)
(0.000414689 -2.43642e-06 1.54099e-05)
(0.00029311 4.66522e-06 3.85636e-05)
(0.000238436 9.49281e-06 6.13704e-05)
(0.000208867 6.79267e-06 7.30822e-05)
(0.000217698 7.22281e-06 8.84414e-05)
(0.000215908 1.91143e-06 8.2549e-05)
(0.00165054 -0.000104304 -0.000116065)
(0.000963293 -4.89152e-05 -5.95394e-05)
(0.000573947 -1.70784e-05 -1.78416e-05)
(0.000364432 1.78023e-06 1.86574e-05)
(0.000252408 4.95996e-06 3.90865e-05)
(0.000201647 8.65617e-06 5.82706e-05)
(0.000177835 3.7216e-06 6.04755e-05)
(0.000180626 -2.00466e-06 6.15839e-05)
(0.000178894 -2.91468e-06 4.57246e-05)
(0.00160965 -7.25262e-05 -0.000111214)
(0.000915945 -3.25885e-05 -5.3857e-05)
(0.000534878 -1.18505e-05 -1.27712e-05)
(0.000331867 7.95627e-07 2.20613e-05)
(0.000227363 2.5158e-06 3.91264e-05)
(0.000179675 5.49455e-06 5.47694e-05)
(0.000157576 8.0006e-07 5.19813e-05)
(0.000155299 -4.5501e-06 4.63184e-05)
(0.000155923 -6.17049e-06 2.54826e-05)
(0.00159259 -1.77048e-05 -0.000110054)
(0.000893746 -5.70974e-06 -5.18348e-05)
(0.000517983 -4.29254e-06 -1.25397e-05)
(0.00031475 -2.3477e-06 2.13682e-05)
(0.000216536 -2.40173e-06 3.87081e-05)
(0.000165582 -2.43735e-06 5.25802e-05)
(0.000148984 -2.77624e-06 4.76595e-05)
(0.000139709 -9.93199e-08 3.93315e-05)
(0.000141091 -2.32758e-06 1.45685e-05)
)
;
    }
    procBoundary0to6
    {
        type            processor;
        value           uniform (0.000161499 1.9151e-07 3.6217e-05);
    }
    procBoundary0to7
    {
        type            processor;
        value           uniform (0.0001413 4.95378e-07 -8.74559e-06);
    }
}


// ************************************************************************* //
