/*--------------------------------*- C++ -*----------------------------------*\
| =========                 |                                                 |
| \\      /  F ield         | OpenFOAM: The Open Source CFD Toolbox           |
|  \\    /   O peration     | Version:  4.x                                   |
|   \\  /    A nd           | Web:      www.OpenFOAM.org                      |
|    \\/     M anipulation  |                                                 |
\*---------------------------------------------------------------------------*/
FoamFile
{
    version     2.0;
    format      ascii;
    class       volScalarField;
    location    "12";
    object      Ksl;
}
// * * * * * * * * * * * * * * * * * * * * * * * * * * * * * * * * * * * * * //

dimensions      [1 -3 -1 0 0 0 0];

internalField   nonuniform List<scalar> 
132
(
3321.7
6301.66
3058.09
4745.42
2844.04
3979.25
2674.38
3488.82
2454.1
3357.65
6790.13
3191.79
5307.26
2989.28
4468.5
2822.42
4032.73
2738.39
3385.06
7058.6
3258.57
5648.49
3117.7
4896.92
2969.21
4820.58
3026.74
3400.07
7072.3
3235.6
3400.02
7299.23
3296.53
6318.82
3232.13
5706.94
3177.69
5332.34
3043.96
3429.81
8321
3477.12
8088.33
3542.49
8460.82
3578.68
9450.6
3584.51
3479.76
8935.98
3567.98
9490.2
3686.25
11359
3826.65
15869.8
3820.38
3516.31
9000.55
3604.32
9972.29
3760.85
3420.81
7844.41
3416.25
7311.44
3396.51
7017.71
3361.8
6862.05
3267.93
3472.91
9362.76
3615.81
10949.1
3741.76
14418.5
3834.03
23151.8
3790.34
3530.89
10362.1
3759.62
15962.3
3950.72
31092.5
4013.42
55079.7
3907.18
3558.61
11028.8
3837.61
19598.2
4029.63
55411.6
4075.93
3416.73
7613.49
3404
7101.16
3364.02
6868.71
3312.5
6529.94
3201.16
3487.56
9394.79
3653.12
11220
3719.8
13364
3757.09
16191.5
3690.64
3546.75
9862.62
3756.11
13659
3824.84
18765.9
3815.85
23153.3
3727.19
3533.77
10278.2
3806.18
15508.4
3872.77
21033.1
3859.3
23197
3803.69
)
;

boundaryField
{
    inlet
    {
        type            zeroGradient;
    }
    outlet
    {
        type            zeroGradient;
    }
    wall
    {
        type            zeroGradient;
    }
    procBoundary0to1
    {
        type            processor;
        value           nonuniform List<scalar> 
12
(
3258.77
4177.15
6115.04
5088.42
10816.5
25590.2
6594.22
29892.4
76366
6222.44
17550.8
26261.8
)
;
    }
    procBoundary0to2
    {
        type            processor;
        value           nonuniform List<scalar> 
44
(
5670.3
3114.91
4911.64
2996.1
4820.06
2968.13
3445.85
7300.5
5670.3
3315.85
5670.3
3114.91
12968.8
3906.38
18506.1
3816.82
3486.08
8859.98
3612.63
9838.01
12968.8
3719.42
12968.8
3906.38
440020
3959.92
3527.3
9835.17
3748.2
13855.4
3887.99
23431.5
440020
3953.37
440020
3959.92
3541.84
10218.1
3780.4
14218.6
3833.37
19431.1
3792.8
24180.7
)
;
    }
    procBoundary0to4
    {
        type            processor;
        value           nonuniform List<scalar> 
36
(
3386.31
7675.89
3410.69
7486.78
3418.9
7352.29
3398.38
7497.77
3337.69
3475.52
9858.58
3700.23
14588.9
3809.77
23936.7
3851.8
51500.6
3835.88
3523.02
10606
3806.82
17323.1
3901.09
29044.5
3906.19
39234.3
3886.38
3509.63
10809.5
3866.85
19414.9
4014.73
45837.1
4079.78
60186.2
4053.96
)
;
    }
    procBoundary0to6
    {
        type            processor;
        value           uniform 3708.33;
    }
    procBoundary0to7
    {
        type            processor;
        value           uniform 29160.9;
    }
}


// ************************************************************************* //
