/*--------------------------------*- C++ -*----------------------------------*\
| =========                 |                                                 |
| \\      /  F ield         | OpenFOAM: The Open Source CFD Toolbox           |
|  \\    /   O peration     | Version:  4.x                                   |
|   \\  /    A nd           | Web:      www.OpenFOAM.org                      |
|    \\/     M anipulation  |                                                 |
\*---------------------------------------------------------------------------*/
FoamFile
{
    version     2.0;
    format      ascii;
    class       volScalarField;
    location    "12";
    object      SPartFluid;
}
// * * * * * * * * * * * * * * * * * * * * * * * * * * * * * * * * * * * * * //

dimensions      [1 -3 -1 0 0 0 0];

internalField   nonuniform List<scalar> 
132
(
4.03001e-65
3.64249e-65
3.09998e-65
2.86748e-65
3.79749e-65
4.02997e-65
4.88247e-65
3.48747e-65
1.70498e-65
4.88252e-65
4.64998e-65
4.64998e-65
5.11496e-65
3.17746e-65
5.81242e-65
4.26243e-65
4.64991e-65
4.26238e-65
2.7125e-65
5.34748e-65
4.72747e-65
4.72745e-65
4.26244e-65
4.33991e-65
3.25491e-65
4.18486e-65
7.2072e-65
2.86751e-65
4.41748e-65
3.25498e-65
4.18502e-65
6.66499e-65
8.05997e-65
7.05245e-65
6.81995e-65
7.12992e-65
6.27742e-65
6.43239e-65
6.19987e-65
5.42502e-65
7.98248e-65
6.27746e-65
7.20742e-65
7.28489e-65
7.12987e-65
6.50985e-65
7.74979e-65
6.74226e-65
5.89003e-65
8.13747e-65
6.81994e-65
6.2774e-65
6.66487e-65
6.58733e-65
8.29222e-65
6.04476e-65
4.95976e-65
8.06003e-65
6.12248e-65
6.12243e-65
4.57241e-65
9.14476e-65
5.96753e-65
6.82e-65
7.28498e-65
6.81995e-65
6.58744e-65
5.19243e-65
7.05239e-65
6.89737e-65
4.72739e-65
6.43253e-65
7.0525e-65
6.74246e-65
5.57994e-65
7.36239e-65
5.73488e-65
7.36232e-65
8.83476e-65
6.27729e-65
7.67254e-65
6.27749e-65
6.58744e-65
8.21488e-65
7.82734e-65
7.36229e-65
7.43976e-65
6.19975e-65
4.5723e-65
7.28503e-65
7.59497e-65
7.67241e-65
7.98236e-65
8.36979e-65
7.12978e-65
7.12967e-65
4.57253e-65
4.8825e-65
5.73499e-65
5.34747e-65
6.12245e-65
7.74991e-65
4.80494e-65
4.10743e-65
4.9599e-65
5.50253e-65
8.1375e-65
7.28497e-65
6.74244e-65
5.81242e-65
5.65738e-65
8.36982e-65
6.58733e-65
5.50231e-65
4.57252e-65
4.95998e-65
7.28495e-65
5.73493e-65
7.28486e-65
8.05978e-65
6.74228e-65
5.1148e-65
8.05966e-65
5.27003e-65
5.88999e-65
7.82745e-65
9.22238e-65
4.41742e-65
9.22223e-65
7.12972e-65
5.42476e-65
2.32486e-65
)
;

boundaryField
{
    inlet
    {
        type            calculated;
        value           uniform 0;
    }
    outlet
    {
        type            calculated;
        value           nonuniform 0();
    }
    wall
    {
        type            calculated;
        value           uniform 0;
    }
    procBoundary0to1
    {
        type            processor;
        value           nonuniform List<scalar> 
12
(
3.71994e-65
3.64238e-65
3.48732e-65
6.43233e-65
7.51722e-65
8.13701e-65
7.05228e-65
7.67217e-65
7.90456e-65
6.5873e-65
7.05221e-65
5.73471e-65
)
;
    }
    procBoundary0to2
    {
        type            processor;
        value           nonuniform List<scalar> 
44
(
6.50991e-65
4.88242e-65
2.55741e-65
4.88231e-65
2.24736e-65
2.6348e-65
5.73502e-65
6.50997e-65
6.50991e-65
5.11495e-65
6.50991e-65
4.88242e-65
8.4472e-65
9.76456e-65
5.7346e-65
9.37674e-65
5.42501e-65
6.81997e-65
7.6724e-65
7.74984e-65
8.4472e-65
7.05229e-65
8.4472e-65
9.76456e-65
7.59456e-65
7.98195e-65
7.28503e-65
4.95998e-65
5.50244e-65
6.12239e-65
5.57985e-65
7.12972e-65
7.59456e-65
8.36953e-65
7.59456e-65
7.98195e-65
4.80502e-65
8.13749e-65
8.36994e-65
6.50993e-65
6.43238e-65
6.27732e-65
6.27721e-65
7.74953e-65
)
;
    }
    procBoundary0to4
    {
        type            processor;
        value           nonuniform List<scalar> 
36
(
5.19253e-65
7.36251e-65
7.5175e-65
5.57999e-65
5.96747e-65
5.65746e-65
7.59492e-65
6.7424e-65
8.91233e-65
7.75005e-65
6.35501e-65
7.28498e-65
8.52495e-65
8.21491e-65
7.5174e-65
6.35489e-65
5.42487e-65
9.06723e-65
6.97504e-65
8.7575e-65
6.43248e-65
8.52494e-65
6.97491e-65
5.96739e-65
6.12234e-65
9.6872e-65
5.65729e-65
4.34002e-65
5.735e-65
7.59498e-65
5.19247e-65
7.3624e-65
6.04488e-65
9.53221e-65
5.96727e-65
5.96722e-65
)
;
    }
    procBoundary0to6
    {
        type            processor;
        value           uniform 6.74203e-65;
    }
    procBoundary0to7
    {
        type            processor;
        value           uniform 9.91934e-65;
    }
}


// ************************************************************************* //
