/*--------------------------------*- C++ -*----------------------------------*\
| =========                 |                                                 |
| \\      /  F ield         | OpenFOAM: The Open Source CFD Toolbox           |
|  \\    /   O peration     | Version:  4.x                                   |
|   \\  /    A nd           | Web:      www.OpenFOAM.org                      |
|    \\/     M anipulation  |                                                 |
\*---------------------------------------------------------------------------*/
FoamFile
{
    version     2.0;
    format      ascii;
    class       volScalarField;
    location    "12";
    object      thCond;
}
// * * * * * * * * * * * * * * * * * * * * * * * * * * * * * * * * * * * * * //

dimensions      [1 1 -3 -1 0 0 0];

internalField   nonuniform List<scalar> 
132
(
193.798
193.638
193.515
193.402
193.183
192.977
192.888
193.096
193.3
193.534
193.315
193.169
193.003
193.022
192.702
192.771
192.756
192.764
193.592
193.114
192.986
192.808
192.759
192.695
192.71
192.626
192.268
193.397
193.074
192.995
193.162
192.641
192.279
192.212
192.117
192.016
192.027
192.052
192.123
192.819
192.355
192.264
192.073
191.933
191.838
191.809
191.734
191.812
192.566
192.187
192.112
191.978
191.765
191.663
191.501
191.715
191.694
192.264
192.222
192.088
191.95
191.44
192.408
192.033
191.722
191.634
191.544
191.572
191.378
191.383
191.536
192.132
191.822
191.636
191.55
191.317
191.338
191.109
191.011
191.194
191.849
191.735
191.48
191.174
191.014
190.966
190.915
191.077
191.14
191.716
191.561
191.302
191.05
190.871
190.81
190.755
192.206
191.859
191.513
191.397
191.203
191.005
191.141
191.199
191.018
191.875
191.426
191.192
191.083
191.012
190.917
190.686
190.79
190.75
191.816
191.498
191.043
190.896
190.698
190.527
190.581
190.731
190.524
191.651
191.32
190.842
190.581
190.745
190.336
190.413
190.658
190.766
)
;

boundaryField
{
    inlet
    {
        type            zeroGradient;
    }
    outlet
    {
        type            zeroGradient;
    }
    wall
    {
        type            zeroGradient;
    }
    procBoundary0to1
    {
        type            processor;
        value           nonuniform List<scalar> 
12
(
192.927
192.707
192.332
191.923
191.624
191.307
191.165
190.885
190.675
190.704
190.435
190.332
)
;
    }
    procBoundary0to2
    {
        type            processor;
        value           nonuniform List<scalar> 
44
(
192.558
192.509
192.672
192.43
192.655
192.433
192.972
192.731
192.558
192.771
192.558
192.509
191.371
191.185
191.543
191.243
192.395
192.118
191.883
191.725
191.371
191.603
191.371
191.185
190.84
190.76
191.768
191.729
191.458
191.224
191.139
190.911
190.84
190.687
190.84
190.76
191.506
191.081
190.811
190.757
190.683
190.569
190.467
190.425
)
;
    }
    procBoundary0to4
    {
        type            processor;
        value           nonuniform List<scalar> 
36
(
191.833
191.387
191.067
191.032
190.914
190.846
190.629
190.509
190.156
191.413
191.21
190.896
190.609
190.538
190.542
190.514
190.438
190.071
191.335
190.947
190.772
190.44
190.412
190.431
190.326
190.086
190.223
191.379
191.049
190.683
190.548
190.298
190.277
189.969
190.237
190.234
)
;
    }
    procBoundary0to6
    {
        type            processor;
        value           uniform 190.432;
    }
    procBoundary0to7
    {
        type            processor;
        value           uniform 189.958;
    }
}


// ************************************************************************* //
