/*--------------------------------*- C++ -*----------------------------------*\
| =========                 |                                                 |
| \\      /  F ield         | OpenFOAM: The Open Source CFD Toolbox           |
|  \\    /   O peration     | Version:  4.x                                   |
|   \\  /    A nd           | Web:      www.OpenFOAM.org                      |
|    \\/     M anipulation  |                                                 |
\*---------------------------------------------------------------------------*/
FoamFile
{
    version     2.0;
    format      ascii;
    class       volScalarField;
    location    "33";
    object      Cs;
}
// * * * * * * * * * * * * * * * * * * * * * * * * * * * * * * * * * * * * * //

dimensions      [1 -3 0 0 0 0 0];

internalField   nonuniform List<scalar> 
87
(
335
334.999
334.999
334.998
334.997
334.996
334.996
334.994
336.01
335
335
335
335
334.999
334.999
334.998
334.998
334.564
335
335
334.999
334.999
334.998
334.998
334.995
334.994
334.959
335
335
335
335
335
335
334.998
334.997
334.511
335
334.999
334.999
334.998
334.996
334.995
334.989
334.989
334.669
334.999
334.997
334.995
334.992
334.985
334.981
334.969
334.971
334.869
335
335
335
334.999
334.999
334.998
334.996
334.994
334.758
334.999
334.998
334.996
334.993
334.989
334.984
334.975
334.973
334.719
334.997
334.993
334.987
334.981
334.973
334.966
334.956
334.954
334.852
335
335
335
335
334.999
334.999
)
;

boundaryField
{
    inlet
    {
        type            calculated;
        value           nonuniform 0();
    }
    outlet
    {
        type            calculated;
        value           uniform 335;
    }
    wall
    {
        type            calculated;
        value           nonuniform List<scalar> 
57
(
335
335
335
334.999
335
335
334.999
335
334.999
334.998
335
334.999
334.997
334.999
334.998
334.996
334.999
334.998
334.996
334.998
334.995
334.994
334.998
334.994
336.01
334.564
334.959
335
335
335
335
334.999
335
335
335
334.999
335
335
335
334.998
335
334.999
334.997
335
334.999
334.996
335
334.998
334.996
334.998
334.996
334.994
334.997
334.994
336.01
334.511
334.758
)
;
    }
    procBoundary1to0
    {
        type            processor;
        value           nonuniform List<scalar> 
12
(
335
335
335
335
335
334.999
335
335
334.999
335
335
335
)
;
    }
    procBoundary1to3
    {
        type            processor;
        value           nonuniform List<scalar> 
27
(
335
334.999
334.999
334.998
334.996
334.995
334.993
334.992
335.118
334.999
334.998
334.996
334.992
334.986
334.981
334.971
334.97
334.792
334.997
334.992
334.984
334.974
334.962
334.953
334.94
334.941
334.858
)
;
    }
    procBoundary1to5
    {
        type            processor;
        value           nonuniform List<scalar> 
32
(
335
334.999
334.998
334.997
334.994
334.952
334.998
334.997
334.994
334.989
334.983
334.975
334.899
334.997
334.995
334.991
334.985
334.977
334.97
334.96
334.864
335
335
335
334.998
335
334.999
334.998
334.997
334.999
334.997
334.999
)
;
    }
    procBoundary1to7
    {
        type            processor;
        value           uniform 334.999;
    }
}


// ************************************************************************* //
