/*--------------------------------*- C++ -*----------------------------------*\
| =========                 |                                                 |
| \\      /  F ield         | OpenFOAM: The Open Source CFD Toolbox           |
|  \\    /   O peration     | Version:  4.x                                   |
|   \\  /    A nd           | Web:      www.OpenFOAM.org                      |
|    \\/     M anipulation  |                                                 |
\*---------------------------------------------------------------------------*/
FoamFile
{
    version     2.0;
    format      ascii;
    class       volScalarField;
    location    "33";
    object      p;
}
// * * * * * * * * * * * * * * * * * * * * * * * * * * * * * * * * * * * * * //

dimensions      [1 -1 -2 0 0 0 0];

internalField   nonuniform List<scalar> 
87
(
5652.73
5708.23
5633.1
5702.62
5611.86
5698.7
5587.47
5698.91
5553.69
5652.55
5708.31
5632.98
5702.56
5612.05
5698.42
5588.88
5697.4
5560.93
5652.81
5708.42
5633.28
5702.4
5612.67
5697.69
5590.58
5695.37
5564.73
3775.15
3830.61
3756.05
3824.61
3735.82
3819.49
3714.23
3816.13
3690.44
3774.82
3830.64
3755.75
3824.53
3735.51
3819.16
3714.75
3815.29
3693.9
3775.25
3830.89
3756.1
3824.34
3736.93
3818.16
3718.42
3812.23
3702.62
1897.01
1952.55
1877.56
1946.55
1856.74
1941.78
1834.53
1939.63
1811.18
1896.78
1952.55
1877.33
1946.29
1857.08
1940.99
1836.19
1937.91
1815.14
1897.46
1952.44
1878.48
1946.06
1859.1
1940.65
1839.84
1936.73
1822.21
20.6508
75.1966
2.29827
20.6995
75.1169
22.3888
)
;

boundaryField
{
    inlet
    {
        type            calculated;
        value           nonuniform 0();
    }
    outlet
    {
        type            calculated;
        value           nonuniform List<scalar> 9(5633.74 5633.74 5633.74 3755.83 3755.83 3755.83 1877.91 1877.91 1877.91);
    }
    wall
    {
        type            calculated;
        value           nonuniform List<scalar> 
57
(
6591.69
6591.5
6591.76
6647.19
6647.26
6647.37
6572.05
6571.93
6572.24
6641.57
6641.51
6641.36
6550.81
6551.01
6551.63
6637.65
6637.37
6636.64
6526.42
6527.83
6529.52
6637.85
6636.35
6634.31
6495.48
6498.66
6503.57
5652.73
3775.15
1897.01
20.6508
5708.23
3830.61
1952.55
75.1966
5633.1
3756.05
1877.56
2.29827
5702.62
3824.61
1946.55
5611.86
3735.82
1856.74
5698.7
3819.49
1941.78
5587.47
3714.23
1834.53
5698.91
3816.13
1939.63
5553.69
3690.44
1811.18
)
;
    }
    procBoundary1to0
    {
        type            processor;
        value           nonuniform List<scalar> 
12
(
5714.56
5714.67
5714.95
3837.08
3837.24
3837.63
1959.06
1959.25
1959.42
81.7713
81.9819
81.7462
)
;
    }
    procBoundary1to3
    {
        type            processor;
        value           nonuniform List<scalar> 
27
(
5652.42
5708.27
5632.8
5702.37
5612.55
5697.92
5591.55
5695.38
5569.64
3774.47
3830.68
3754.98
3824.31
3735.17
3818.75
3715.88
3814.48
3698.23
1897.94
1952.54
1879.19
1946.08
1860.67
1940.74
1842.82
1935.35
1827.29
)
;
    }
    procBoundary1to5
    {
        type            processor;
        value           nonuniform List<scalar> 
32
(
68.9314
-16.072
62.7388
-33.4029
55.8322
-47.372
2.17128
68.4619
-15.9143
62.3446
-32.9112
55.7391
-47.5261
74.8686
4.6784
68.2397
-12.8392
61.5386
-29.7348
53.7887
-45.1666
-1858.31
-1803.23
68.9314
2.17128
-1877.49
-1858.06
2.17128
74.8686
-1803.12
74.8686
-1856.87
)
;
    }
    procBoundary1to7
    {
        type            processor;
        value           uniform 22.7931;
    }
}


// ************************************************************************* //
