/*--------------------------------*- C++ -*----------------------------------*\
| =========                 |                                                 |
| \\      /  F ield         | OpenFOAM: The Open Source CFD Toolbox           |
|  \\    /   O peration     | Version:  4.x                                   |
|   \\  /    A nd           | Web:      www.OpenFOAM.org                      |
|    \\/     M anipulation  |                                                 |
\*---------------------------------------------------------------------------*/
FoamFile
{
    version     2.0;
    format      ascii;
    class       volScalarField;
    location    "33";
    object      QPartFluid;
}
// * * * * * * * * * * * * * * * * * * * * * * * * * * * * * * * * * * * * * //

dimensions      [1 -1 -3 0 0 0 0];

internalField   nonuniform List<scalar> 
87
(
4.30486e+09
7.06289e+09
4.20259e+09
6.55774e+09
4.36742e+09
4.88869e+09
5.2306e+09
6.55301e+09
3.99754e+09
4.54413e+09
4.43747e+09
5.84541e+09
5.75424e+09
4.38935e+09
6.62191e+09
7.59293e+09
6.60073e+09
3.82248e+09
3.952e+09
7.11454e+09
6.24148e+09
8.9524e+09
6.27791e+09
5.79925e+09
5.65846e+09
6.21722e+09
4.19629e+09
7.43338e+09
6.59892e+09
6.15687e+09
7.60162e+09
6.38923e+09
7.89989e+09
9.14201e+09
9.12759e+09
5.48824e+09
9.05159e+09
6.7378e+09
7.65033e+09
9.44554e+09
9.25971e+09
7.7465e+09
9.48913e+09
1.05821e+10
4.68612e+09
7.96809e+09
8.51924e+09
7.19712e+09
6.83043e+09
5.74705e+09
9.23374e+09
9.27625e+09
1.30485e+10
4.32952e+09
7.09935e+09
6.99592e+09
8.19976e+09
9.60305e+09
6.08462e+09
9.66765e+09
7.61916e+09
7.485e+09
3.20496e+09
6.44127e+09
8.82797e+09
6.4105e+09
8.04861e+09
8.1003e+09
9.03234e+09
7.58473e+09
9.39112e+09
3.65974e+09
9.39131e+09
7.8643e+09
5.46865e+09
1.1107e+10
8.82936e+09
1.06271e+10
7.44581e+09
9.67293e+09
3.37336e+09
6.52428e+09
5.57051e+09
7.75558e+09
7.89007e+09
1.22003e+10
5.85342e+09
)
;

boundaryField
{
    inlet
    {
        type            calculated;
        value           nonuniform 0();
    }
    outlet
    {
        type            calculated;
        value           uniform 0;
    }
    wall
    {
        type            calculated;
        value           uniform 0;
    }
    procBoundary1to0
    {
        type            processor;
        value           nonuniform List<scalar> 
12
(
2.02017e+09
5.25637e+09
8.53636e+09
7.26649e+09
8.99745e+09
6.36225e+09
5.41128e+09
1.01336e+10
5.37346e+09
6.05486e+09
6.93709e+09
9.32206e+09
)
;
    }
    procBoundary1to3
    {
        type            processor;
        value           nonuniform List<scalar> 
27
(
8.45092e+09
3.84621e+09
6.68584e+09
3.23497e+09
4.92344e+09
3.76448e+09
5.474e+09
5.13877e+09
2.75838e+09
8.50396e+09
8.03586e+09
1.01584e+10
1.05503e+10
8.34253e+09
7.8474e+09
6.69316e+09
8.29832e+09
7.28817e+09
8.10451e+09
1.0858e+10
9.01382e+09
1.01846e+10
6.46787e+09
7.65163e+09
8.91867e+09
8.31992e+09
6.814e+09
)
;
    }
    procBoundary1to5
    {
        type            processor;
        value           nonuniform List<scalar> 
32
(
7.9324e+09
7.43285e+09
7.14039e+09
5.84362e+09
8.00357e+09
5.96475e+09
7.28411e+09
7.04908e+09
5.89176e+09
8.24916e+09
8.39902e+09
1.0088e+10
6.44522e+09
9.9371e+09
6.12258e+09
8.71372e+09
5.86305e+09
5.31356e+09
7.48778e+09
6.26734e+09
6.79037e+09
6.64287e+09
5.69912e+09
7.9324e+09
7.28411e+09
7.56928e+09
8.10281e+09
7.28411e+09
9.9371e+09
8.24295e+09
9.9371e+09
8.50574e+09
)
;
    }
    procBoundary1to7
    {
        type            processor;
        value           uniform 9.94952e+09;
    }
}


// ************************************************************************* //
