/*--------------------------------*- C++ -*----------------------------------*\
| =========                 |                                                 |
| \\      /  F ield         | OpenFOAM: The Open Source CFD Toolbox           |
|  \\    /   O peration     | Version:  4.x                                   |
|   \\  /    A nd           | Web:      www.OpenFOAM.org                      |
|    \\/     M anipulation  |                                                 |
\*---------------------------------------------------------------------------*/
FoamFile
{
    version     2.0;
    format      ascii;
    class       volScalarField;
    location    "33.5";
    object      p_rgh;
}
// * * * * * * * * * * * * * * * * * * * * * * * * * * * * * * * * * * * * * //

dimensions      [1 -1 -2 0 0 0 0];

internalField   nonuniform List<scalar> 
132
(
108.979
92.8225
103.591
72.2792
93.6701
55.5894
87.512
37.3185
81.003
109.066
92.4404
102.413
73.7685
94.4475
55.7154
87.7306
37.2993
81.1285
109.141
92.352
102.301
74.2931
94.9971
55.9408
88.0644
37.6128
81.4123
109.155
92.237
102.359
109.574
92.8256
102.838
74.0551
94.8275
55.9705
88.0917
37.6626
81.4491
109.848
92.7594
102.931
74.4388
95.3675
56.0524
88.3952
37.5418
81.6096
110.087
92.7932
103.153
74.7243
95.8831
56.29
88.8047
37.7042
82.0105
110.131
92.6569
103.212
74.7785
96.0177
109.915
92.7012
102.823
74.5632
95.3056
56.1812
88.1795
37.5655
81.3271
110.361
92.8687
103.27
74.7653
95.806
56.2783
88.5804
37.5559
81.52
110.706
93.0288
103.681
74.997
96.1865
56.3954
88.7604
37.7128
81.703
110.952
93.1849
103.937
75.1561
96.4447
56.6465
88.92
110.419
93.1601
103.388
75.2413
96.0877
56.9903
88.8212
38.7236
81.9745
110.992
93.4307
103.88
75.3837
96.4703
57.1515
89.1865
38.7149
82.1814
111.418
93.7934
104.408
75.8425
96.9613
57.6998
89.358
39.695
81.9515
111.608
93.9152
104.542
75.9381
96.9321
57.9685
89.2533
39.9209
81.8493
)
;

boundaryField
{
    inlet
    {
        type            fixedFluxPressure;
        gradient        nonuniform List<scalar> 
16
(
-0.00027871
-0.000255581
-0.000241839
-0.000234044
-0.000146779
-0.000139397
-0.00013247
-0.000125532
-6.00664e-05
-5.76269e-05
-5.47779e-05
-5.32095e-05
-4.40741e-07
-3.25448e-07
-8.28256e-08
7.79433e-08
)
;
        value           nonuniform List<scalar> 
16
(
108.979
109.066
109.141
109.155
109.574
109.848
110.087
110.131
109.915
110.361
110.706
110.952
110.419
110.992
111.418
111.608
)
;
    }
    outlet
    {
        type            fixedValue;
        value           nonuniform 0();
    }
    wall
    {
        type            fixedFluxPressure;
        gradient        nonuniform List<scalar> 
66
(
-1.51557e-06
-1.03323e-06
-2.76573e-06
-4.04809e-06
-1.09992e-05
-1.28618e-05
-1.62281e-05
-1.63927e-05
-1.13767e-05
-4.7946e-06
-1.00729e-05
-8.82535e-06
-3.33685e-07
-1.34371e-05
-2.63001e-05
-6.20927e-06
-1.34579e-05
-1.60056e-05
-1.50706e-05
-3.18624e-05
-5.25245e-05
-1.20666e-05
-2.56661e-05
-3.40696e-05
-8.46832e-06
-4.8318e-05
-6.99824e-05
-5.88023e-06
-4.19567e-05
-3.82947e-05
-8.39716e-07
-3.41132e-07
2.15567e-07
7.21945e-07
-6.82489e-06
-3.20153e-06
-3.21343e-07
2.4119e-06
-6.23712e-08
-3.25692e-07
2.23057e-06
2.46636e-06
4.33585e-06
4.70878e-06
4.44494e-06
1.59375e-06
-2.868e-07
2.59035e-06
1.74933e-06
2.25802e-06
5.62559e-07
1.1575e-05
4.07641e-06
4.62849e-06
-2.31645e-06
2.37664e-06
3.73328e-06
5.84199e-07
-3.86159e-07
3.94074e-06
3.11869e-06
8.51628e-06
-4.3099e-06
2.25288e-05
1.44075e-05
5.92743e-06
)
;
        value           nonuniform List<scalar> 
66
(
108.979
109.066
109.141
109.155
92.8225
92.4404
92.352
92.237
103.591
102.413
102.301
102.359
72.2792
73.7685
74.2931
93.6701
94.4475
94.9971
55.5894
55.7154
55.9408
87.512
87.7306
88.0644
37.3185
37.2993
37.6128
81.003
81.1285
81.4123
108.979
109.574
109.915
110.419
92.8225
92.8256
92.7012
93.1601
103.591
102.838
102.823
103.388
72.2792
74.0551
74.5632
75.2413
93.6701
94.8275
95.3056
96.0877
55.5894
55.9705
56.1812
56.9903
87.512
88.0917
88.1795
88.8212
37.3185
37.6626
37.5655
38.7236
81.003
81.4491
81.3271
81.9745
)
;
    }
    procBoundary0to1
    {
        type            processor;
        value           nonuniform List<scalar> 
12
(
18.7645
18.5895
18.8835
19.1115
18.7819
19.2716
18.8621
18.6216
19.3104
20.4442
20.5159
22.139
)
;
    }
    procBoundary0to2
    {
        type            processor;
        value           nonuniform List<scalar> 
44
(
74.4096
95.1339
55.9943
88.1222
37.3512
81.4034
109.1
92.1377
74.4096
102.335
74.4096
95.1339
56.2247
88.7319
37.3628
81.8164
110.011
92.6853
103.179
74.7739
56.2247
96.013
56.2247
88.7319
38.0739
81.754
110.7
92.9985
103.723
75.1748
96.3521
56.9359
38.0739
88.9922
38.0739
81.754
111.487
93.6807
104.314
75.6298
96.8295
57.4574
89.3492
39.2855
)
;
    }
    procBoundary0to4
    {
        type            processor;
        value           nonuniform List<scalar> 
36
(
110.566
93.1592
103.44
75.2437
96.0227
56.9684
88.6823
38.3899
81.5716
111.21
93.4559
104.055
75.47
96.4843
57.0502
89.0389
38.5299
81.8982
111.673
93.769
104.428
75.7954
96.7671
57.4887
89.2465
39.145
81.8696
111.863
94.0615
104.683
76.1799
97.0571
58.0408
89.3392
39.7798
81.7825
)
;
    }
    procBoundary0to6
    {
        type            processor;
        value           uniform 82.0463;
    }
    procBoundary0to7
    {
        type            processor;
        value           uniform 22.4998;
    }
}


// ************************************************************************* //
