/*--------------------------------*- C++ -*----------------------------------*\
| =========                 |                                                 |
| \\      /  F ield         | OpenFOAM: The Open Source CFD Toolbox           |
|  \\    /   O peration     | Version:  4.x                                   |
|   \\  /    A nd           | Web:      www.OpenFOAM.org                      |
|    \\/     M anipulation  |                                                 |
\*---------------------------------------------------------------------------*/
FoamFile
{
    version     2.0;
    format      ascii;
    class       volScalarField;
    location    "33.5";
    object      QPartFluid;
}
// * * * * * * * * * * * * * * * * * * * * * * * * * * * * * * * * * * * * * //

dimensions      [1 -1 -3 0 0 0 0];

internalField   nonuniform List<scalar> 
132
(
5.18468e+09
4.25741e+09
3.70064e+09
2.96525e+09
4.32128e+09
4.48908e+09
5.88269e+09
3.94048e+09
2.01958e+09
4.65075e+09
5.10291e+09
5.52828e+09
5.59945e+09
3.84614e+09
6.72487e+09
5.32416e+09
5.8012e+09
5.25448e+09
3.11732e+09
5.87697e+09
5.75109e+09
5.07293e+09
5.57534e+09
4.90439e+09
3.99211e+09
5.1926e+09
8.53451e+09
2.97998e+09
4.53249e+09
3.50885e+09
4.26781e+09
6.97608e+09
8.63864e+09
7.57827e+09
7.74863e+09
7.60318e+09
7.12727e+09
6.78033e+09
7.26459e+09
4.98299e+09
9.46223e+09
8.02101e+09
8.51375e+09
9.61599e+09
8.63288e+09
9.21324e+09
9.24047e+09
8.99522e+09
5.30138e+09
9.45801e+09
8.41283e+09
7.53941e+09
9.08045e+09
6.78368e+09
1.05382e+10
6.94198e+09
6.3614e+09
7.96653e+09
7.03649e+09
7.7981e+09
5.50886e+09
1.13245e+10
5.5869e+09
6.96791e+09
8.13948e+09
6.96443e+09
7.49134e+09
5.67007e+09
8.05553e+09
7.05514e+09
5.41153e+09
6.24936e+09
8.28064e+09
7.99192e+09
6.91456e+09
9.28083e+09
6.71768e+09
9.44227e+09
1.01362e+10
1.01344e+10
6.70838e+09
7.20039e+09
8.08894e+09
9.28107e+09
9.83028e+09
8.02678e+09
9.20353e+09
6.37356e+09
5.37611e+09
6.90659e+09
8.64674e+09
9.55739e+09
8.91866e+09
9.93162e+09
7.96074e+09
8.69839e+09
4.35302e+09
4.99107e+09
6.76952e+09
5.19152e+09
7.08877e+09
7.78877e+09
5.91025e+09
4.34939e+09
6.05216e+09
5.13596e+09
9.60136e+09
9.09684e+09
8.09566e+09
7.20858e+09
6.66847e+09
1.04462e+10
7.24667e+09
6.93242e+09
5.18529e+09
5.59103e+09
9.03902e+09
6.11897e+09
8.68148e+09
8.41983e+09
8.21372e+09
4.89746e+09
9.32145e+09
4.8226e+09
6.71051e+09
9.79025e+09
1.01507e+10
5.45438e+09
9.64287e+09
8.44164e+09
5.3764e+09
2.58442e+09
)
;

boundaryField
{
    inlet
    {
        type            calculated;
        value           uniform 0;
    }
    outlet
    {
        type            calculated;
        value           nonuniform 0();
    }
    wall
    {
        type            calculated;
        value           uniform 0;
    }
    procBoundary0to1
    {
        type            processor;
        value           nonuniform List<scalar> 
12
(
4.30314e+09
4.54196e+09
3.95136e+09
7.43204e+09
9.04757e+09
7.96957e+09
7.10187e+09
6.44371e+09
9.40953e+09
6.51858e+09
7.88103e+09
5.85579e+09
)
;
    }
    procBoundary0to2
    {
        type            processor;
        value           nonuniform List<scalar> 
44
(
7.1339e+09
5.59171e+09
3.0579e+09
5.97307e+09
3.63971e+09
4.60217e+09
5.81576e+09
6.93435e+09
7.1339e+09
6.13662e+09
7.1339e+09
5.59171e+09
9.84275e+09
1.22814e+10
6.59869e+09
1.12269e+10
4.73242e+09
7.94476e+09
9.60315e+09
9.2055e+09
9.84275e+09
8.91059e+09
9.84275e+09
1.22814e+10
7.87012e+09
9.1944e+09
6.86362e+09
5.74931e+09
6.75831e+09
6.90398e+09
6.78827e+09
7.78979e+09
7.87012e+09
9.86885e+09
7.87012e+09
9.1944e+09
4.89742e+09
9.48478e+09
1.02991e+10
7.17017e+09
8.23644e+09
6.27896e+09
7.57139e+09
7.54625e+09
)
;
    }
    procBoundary0to4
    {
        type            processor;
        value           nonuniform List<scalar> 
36
(
4.92562e+09
7.10684e+09
8.42781e+09
5.9779e+09
7.15875e+09
5.98905e+09
8.94603e+09
6.87183e+09
9.65125e+09
7.01938e+09
7.29321e+09
9.39058e+09
1.00362e+10
1.01198e+10
8.58077e+09
8.14252e+09
5.74852e+09
1.1119e+10
6.68941e+09
1.02737e+10
8.31653e+09
9.3473e+09
8.1168e+09
6.28859e+09
7.29912e+09
1.02801e+10
6.74258e+09
3.45643e+09
6.72601e+09
9.38873e+09
5.69292e+09
8.77409e+09
6.64108e+09
1.0988e+10
5.97256e+09
7.04625e+09
)
;
    }
    procBoundary0to6
    {
        type            processor;
        value           uniform 8.07023e+09;
    }
    procBoundary0to7
    {
        type            processor;
        value           uniform 9.95191e+09;
    }
}


// ************************************************************************* //
