/*--------------------------------*- C++ -*----------------------------------*\
| =========                 |                                                 |
| \\      /  F ield         | OpenFOAM: The Open Source CFD Toolbox           |
|  \\    /   O peration     | Version:  4.x                                   |
|   \\  /    A nd           | Web:      www.OpenFOAM.org                      |
|    \\/     M anipulation  |                                                 |
\*---------------------------------------------------------------------------*/
FoamFile
{
    version     2.0;
    format      ascii;
    class       volVectorField;
    location    "33.5";
    object      UsPrev;
}
// * * * * * * * * * * * * * * * * * * * * * * * * * * * * * * * * * * * * * //

dimensions      [0 1 -1 0 0 0 0];

internalField   nonuniform List<vector> 
132
(
(3.90783e-10 -3.24364e-10 -2.07085e-10)
(2.36775e-10 -4.7263e-10 -2.08699e-10)
(-3.97026e-09 -2.76584e-09 -7.63413e-10)
(-3.08514e-09 1.28495e-09 1.9712e-09)
(-8.17408e-10 1.05368e-09 2.0987e-09)
(-2.16953e-09 3.11874e-10 2.00248e-09)
(-2.91551e-09 5.63129e-10 2.25643e-09)
(-5.23779e-09 1.3335e-10 1.07764e-09)
(-7.28873e-09 9.58151e-10 1.17842e-09)
(-8.09119e-11 -6.79408e-10 -1.68141e-10)
(-1.5003e-09 -6.20229e-10 2.27914e-10)
(-3.83347e-09 -1.43785e-09 3.59751e-10)
(-3.74619e-09 1.11229e-09 1.77406e-09)
(-3.33709e-09 1.86241e-10 2.92659e-09)
(-4.23775e-09 -5.92796e-11 3.33112e-09)
(-5.14881e-09 1.50042e-10 4.41407e-09)
(-7.36116e-09 9.37404e-10 5.06901e-09)
(-8.7481e-09 -2.6409e-09 7.29094e-09)
(-1.01348e-09 -3.98656e-10 1.55004e-10)
(-1.59644e-09 -5.51936e-10 7.9532e-10)
(-2.41562e-09 -8.81881e-10 1.39006e-09)
(-2.55476e-09 -3.29794e-10 2.09372e-09)
(-2.9877e-09 -6.02566e-10 2.72881e-09)
(-5.11481e-09 -2.47023e-10 4.7043e-09)
(-5.64302e-09 -2.25908e-10 5.59155e-09)
(-7.80722e-09 -1.72719e-09 6.48838e-09)
(-7.90493e-09 -2.40705e-09 6.20051e-09)
(1.03364e-11 -5.54863e-10 3.96459e-10)
(-9.7455e-10 -4.85789e-10 9.55343e-10)
(-1.33356e-09 -5.42166e-10 1.28471e-09)
(2.16398e-10 -2.56976e-10 -2.78326e-10)
(-8.84495e-10 -4.39576e-10 -2.50593e-10)
(-1.82721e-09 -4.09795e-10 -3.85745e-10)
(-3.25226e-09 4.6942e-10 2.65203e-09)
(-2.20489e-09 1.36799e-10 2.61208e-09)
(-2.42085e-09 -6.14265e-10 2.60581e-09)
(-3.32526e-09 -1.90299e-10 2.48019e-09)
(-5.59008e-09 -2.40792e-10 1.32301e-09)
(-8.24123e-09 -3.43797e-09 5.41806e-09)
(-7.5994e-11 -4.47722e-10 1.2988e-10)
(-1.00394e-09 -8.11132e-10 3.64613e-10)
(-1.82452e-09 -1.06276e-09 1.24983e-09)
(-3.20557e-09 1.78172e-10 2.34092e-09)
(-3.44493e-09 -1.97781e-11 3.58277e-09)
(-3.62633e-09 -5.73654e-10 3.76464e-09)
(-4.99967e-09 -3.1133e-10 4.42635e-09)
(-6.91864e-09 -2.01029e-10 4.86013e-09)
(-9.95491e-09 -3.66005e-12 9.14112e-09)
(-2.00786e-10 -4.16976e-10 4.90998e-10)
(-1.13837e-09 -6.92488e-10 1.03311e-09)
(-1.64225e-09 -8.18514e-10 1.69314e-09)
(-2.20424e-09 -6.98752e-10 2.51443e-09)
(-3.06079e-09 -7.38178e-10 3.4814e-09)
(-4.55506e-09 -1.02499e-09 4.51165e-09)
(-5.50643e-09 -7.42089e-10 6.06114e-09)
(-6.29908e-09 -8.321e-10 7.02741e-09)
(-6.88892e-09 -1.23118e-09 8.14333e-09)
(-2.04434e-10 -4.3277e-10 5.79693e-10)
(-8.90407e-10 -6.11443e-10 1.15125e-09)
(-1.10324e-09 -7.13667e-10 1.74753e-09)
(-2.04627e-09 -1.1248e-09 2.85979e-09)
(-2.75614e-09 -1.11702e-09 3.53521e-09)
(-9.31786e-11 -1.58791e-10 -3.62404e-11)
(-6.68719e-10 -1.30856e-10 2.47069e-10)
(-9.41958e-10 -4.09108e-10 3.96841e-10)
(-1.54199e-09 -2.43273e-10 1.58541e-09)
(-1.45312e-09 -1.0849e-10 1.78226e-09)
(-1.98877e-09 -1.91073e-10 2.75073e-09)
(-2.52255e-09 -4.693e-10 2.63192e-09)
(-3.14066e-09 -1.75554e-10 2.24268e-09)
(-6.48934e-09 -2.14185e-09 6.73748e-09)
(-1.18277e-10 -1.74997e-10 2.46101e-10)
(-6.2642e-10 -3.17565e-10 6.42485e-10)
(-1.02965e-09 -5.99408e-10 1.30848e-09)
(-1.5887e-09 -2.92912e-10 2.10987e-09)
(-2.15308e-09 -4.71241e-10 3.19093e-09)
(-2.63941e-09 -5.85678e-10 3.89174e-09)
(-3.31413e-09 -8.13607e-10 4.1912e-09)
(-4.65002e-09 -9.33896e-10 4.56564e-09)
(-9.34301e-09 6.30404e-10 8.9805e-09)
(-2.03728e-10 -2.46652e-10 4.0238e-10)
(-4.04598e-10 -5.07925e-10 9.71357e-10)
(-6.75119e-10 -7.42396e-10 1.55552e-09)
(-8.05919e-10 -6.20131e-10 2.20691e-09)
(-1.72203e-09 -1.02998e-09 3.14016e-09)
(-1.98072e-09 -7.38546e-10 4.50792e-09)
(-1.16334e-09 -7.94288e-10 5.27237e-09)
(-4.56442e-09 -6.94244e-10 6.30805e-09)
(-6.27461e-09 1.30474e-09 8.37769e-09)
(-1.91601e-10 -4.3866e-10 4.26643e-10)
(-4.10778e-10 -8.82477e-10 1.01578e-09)
(-5.28144e-10 -1.22577e-09 1.40024e-09)
(-9.52782e-10 -1.05912e-09 2.13505e-09)
(-2.14692e-09 -1.45476e-09 3.37476e-09)
(-3.32706e-09 -1.60305e-09 4.34213e-09)
(-3.24353e-09 -2.12214e-09 5.43945e-09)
(1.95592e-11 -1.80181e-10 1.78599e-11)
(-4.41441e-10 -1.76665e-10 3.85701e-10)
(-3.91094e-10 -3.79652e-10 5.25376e-10)
(-7.08591e-10 -7.87233e-11 9.73615e-10)
(-9.84435e-10 -2.54475e-10 1.36291e-09)
(-1.78121e-09 -2.405e-10 2.30399e-09)
(-2.18156e-09 -3.30512e-11 3.10106e-09)
(-4.28406e-09 -5.08898e-10 4.05692e-09)
(-5.1769e-09 -8.14142e-10 5.7936e-09)
(-5.24794e-11 -2.33335e-10 1.54337e-10)
(-5.10464e-10 -2.51567e-10 5.52335e-10)
(-3.51811e-10 -4.21455e-10 1.14888e-09)
(-1.19341e-09 -3.18801e-10 1.96028e-09)
(-1.59448e-09 -4.18687e-10 2.57209e-09)
(-2.10075e-09 -1.37498e-10 3.16403e-09)
(-3.03709e-09 -3.60636e-11 4.02806e-09)
(-4.92198e-09 -4.38139e-10 4.58152e-09)
(-7.033e-09 2.21274e-10 6.14797e-09)
(-1.1712e-10 -3.1323e-10 5.14409e-10)
(-3.34412e-10 -4.24339e-10 8.68693e-10)
(6.41564e-11 -5.3087e-10 1.32037e-09)
(-6.95957e-10 -4.465e-10 2.1658e-09)
(-1.00388e-09 -1.10847e-09 2.77962e-09)
(-1.57656e-09 -5.89702e-10 3.55621e-09)
(-1.46819e-09 -5.68066e-10 4.58398e-09)
(-3.4919e-09 -7.63888e-10 5.2987e-09)
(-4.89267e-09 1.24999e-09 6.96185e-09)
(-9.92841e-11 -2.76518e-10 4.11098e-10)
(-5.43557e-10 -5.63093e-10 7.6039e-10)
(-3.59627e-10 -7.16455e-10 1.20385e-09)
(-1.75256e-09 -1.47014e-09 1.83348e-09)
(-1.98136e-09 -1.736e-09 2.42912e-09)
(-3.10191e-09 -1.47936e-09 3.83969e-09)
(-3.04276e-09 -1.54361e-09 4.81612e-09)
(-3.80252e-09 -1.37371e-09 4.98936e-09)
(-7.23738e-09 -1.85612e-09 6.95334e-09)
)
;

boundaryField
{
    inlet
    {
        type            calculated;
        value           uniform (0 0 0);
    }
    outlet
    {
        type            calculated;
        value           nonuniform 0();
    }
    wall
    {
        type            calculated;
        value           uniform (0 0 0);
    }
    procBoundary0to1
    {
        type            processor;
        value           uniform (0 0 0);
    }
    procBoundary0to2
    {
        type            processor;
        value           uniform (0 0 0);
    }
    procBoundary0to4
    {
        type            processor;
        value           uniform (0 0 0);
    }
    procBoundary0to6
    {
        type            processor;
        value           uniform (0 0 0);
    }
    procBoundary0to7
    {
        type            processor;
        value           uniform (0 0 0);
    }
}


// ************************************************************************* //
