/*--------------------------------*- C++ -*----------------------------------*\
| =========                 |                                                 |
| \\      /  F ield         | OpenFOAM: The Open Source CFD Toolbox           |
|  \\    /   O peration     | Version:  4.x                                   |
|   \\  /    A nd           | Web:      www.OpenFOAM.org                      |
|    \\/     M anipulation  |                                                 |
\*---------------------------------------------------------------------------*/
FoamFile
{
    version     2.0;
    format      ascii;
    class       volScalarField;
    location    "8.5";
    object      Ksl;
}
// * * * * * * * * * * * * * * * * * * * * * * * * * * * * * * * * * * * * * //

dimensions      [1 -3 -1 0 0 0 0];

internalField   nonuniform List<scalar> 
132
(
18246.4
3881.03
17493.1
4023.58
19996
4460.05
30352.8
5840.57
23152.6
18099.7
3690.47
16841.5
3579.76
14965.9
3515.76
11441.8
3586.54
7681.77
17674.2
3706.64
16108.6
3553.34
13502.1
3470.97
9502.97
3395.56
3695.15
5270.1
2921.47
4931.24
2697.69
4965.51
2442.54
5331.64
1938.23
3429.18
1e+10
4606.92
1e+10
5207.45
1e+10
6268.39
20217.8
73131.9
4062.03
58843.1
4118.33
38794
4309.86
21335.7
4891.47
11114
46375
4051.6
63434.9
4060.97
108733
4265.06
64572.9
4837.17
19090.6
6275.97
3235.15
6252.28
3156.02
6650.32
3145.97
7637.92
3318.72
7969.32
1e+10
4683.2
1e+10
5320.5
17432.2
26254.8
3811.29
36691.1
3700.1
50740.6
3671.08
72669.9
4026.97
21068.3
22128.8
3863.82
22304.6
3727.36
20802.3
3577.39
13786.9
3584.81
4863.84
5240.45
2974.24
4962.98
2804.76
4991.31
2523.86
5303.3
1952.03
5261.25
8348.19
3836.96
8072.6
8901.97
3527.29
12505.1
3677.74
26603.2
3937.25
85184.3
4557.44
16907.3
5868.66
3220.92
6312.67
3324.6
7674.18
3462.56
9844.6
3960.36
9614.61
4890.1
2927.91
4605.13
2833.82
4442.92
2631.01
4236.1
2446.2
3614.47
)
;

boundaryField
{
    inlet
    {
        type            zeroGradient;
    }
    outlet
    {
        type            zeroGradient;
    }
    wall
    {
        type            zeroGradient;
    }
    procBoundary7to0
    {
        type            processor;
        value           uniform 3821.6;
    }
    procBoundary7to1
    {
        type            processor;
        value           uniform 20762.8;
    }
    procBoundary7to3
    {
        type            processor;
        value           nonuniform List<scalar> 
36
(
34513.4
3944.66
35850.2
3897.75
30321.8
3893.83
32249.8
4244
20927.3
19697.2
3733.23
20429
3629.68
20893.5
3551.73
18783.4
3394.95
8785.45
24385.9
3793.93
24686.2
3591.85
20492.7
3286.63
14787.1
2675.64
5148.2
5291.84
2942.91
4890.87
2771.45
5113.91
2583.32
6005.11
2057.94
6432.31
)
;
    }
    procBoundary7to5
    {
        type            processor;
        value           nonuniform List<scalar> 
44
(
3721.47
22953.2
3651.1
22326
3555.87
19170.1
3709.35
12755.1
622639
4303.83
85219.2
4144.93
69715.3
4277.47
45186.1
4704.84
12056.8
622639
4303.83
4303.83
1e+10
4475.34
31469.6
3560.15
22651.7
3643.57
11532
39963.5
4286.35
1e+10
4475.34
4475.34
6983.65
3515.26
7142.58
3128.71
9993.07
5795.12
3270.7
5925.25
3337.79
6983.65
3515.26
3515.26
)
;
    }
    procBoundary7to6
    {
        type            processor;
        value           nonuniform List<scalar> 
12
(
3759.31
3818.99
3124.79
4051.36
4043.36
3349.23
3866.03
3898.59
3144.03
3473.33
3267.26
3068.96
)
;
    }
}


// ************************************************************************* //
