/*--------------------------------*- C++ -*----------------------------------*\
| =========                 |                                                 |
| \\      /  F ield         | OpenFOAM: The Open Source CFD Toolbox           |
|  \\    /   O peration     | Version:  4.x                                   |
|   \\  /    A nd           | Web:      www.OpenFOAM.org                      |
|    \\/     M anipulation  |                                                 |
\*---------------------------------------------------------------------------*/
FoamFile
{
    version     2.0;
    format      ascii;
    class       volScalarField;
    location    "8.5";
    object      p;
}
// * * * * * * * * * * * * * * * * * * * * * * * * * * * * * * * * * * * * * //

dimensions      [1 -1 -2 0 0 0 0];

internalField   nonuniform List<scalar> 
132
(
24.0206
71.4735
5.88522
63.9404
-11.9086
56.886
-29.0314
50.6301
-42.6901
23.1838
71.745
4.17311
64.5645
-14.9962
58.2426
-34.4429
53.9088
-52.7027
23.2309
71.6228
4.28747
64.0309
-15.1891
57.1591
-35.3185
52.2987
-53.6992
23.3716
71.8806
4.2446
64.9854
-16.3201
59.3011
-40.3744
57.1522
-72.3213
-1868.72
-1814.22
-1885.58
-1821.74
-1901.66
-1829.42
-1916.57
-1852.78
-1806.08
-1870.59
-1813.69
-1888.19
-1820.96
-1905.19
-1827.65
-1920.76
-1853
-1806.01
-1871.06
-1813.84
-1888.91
-1821.41
-1906.52
-1828.35
-1922.01
-1853.1
-1805.76
-1871.27
-1813.04
-1889.89
-1819.95
-1908.79
-1825.99
-1926.23
-3764.38
-3700.03
-3780.43
-3707.33
-3794.73
-3731.09
-3683.83
-3749.31
-3691.4
-3767.74
-3698.39
-3786.12
-3703.68
-3802.84
-3731.02
-3684.07
-3749.21
-3692.09
-3767.79
-3699.65
-3786.65
-3705.93
-3803.49
-3731.22
-3683.77
-3749.88
-3691.1
-3769.82
-3697.46
-3792.3
-3700.81
-3822.17
-5660.11
-5584.98
-5675.5
-5608.38
-5561.3
-5626.26
-5568.9
-5644.24
-5576.47
-5661.32
-5584.08
-5676.3
-5608.33
-5561.61
-5626.1
-5569.35
-5644.17
-5576.94
-5661.89
-5584.13
-5677.68
-5608.33
-5561.39
-5626.52
-5568.83
-5645.37
-5575.88
-5664.88
-5581.52
-5685.09
)
;

boundaryField
{
    inlet
    {
        type            calculated;
        value           nonuniform 0();
    }
    outlet
    {
        type            calculated;
        value           nonuniform List<scalar> 
16
(
0
0
0
0
-1877.91
-1877.91
-1877.91
-1877.91
-3755.83
-3755.83
-3755.83
-3755.83
-5633.74
-5633.74
-5633.74
-5633.74
)
;
    }
    wall
    {
        type            calculated;
        value           nonuniform List<scalar> 
66
(
-6547.11
-6547.07
-6547.06
-6500.05
-6500.34
-6500.11
-6565.06
-6564.83
-6565.23
-6507.78
-6508.1
-6507.53
-6583.22
-6582.95
-6584.08
-6515.53
-6515.75
-6514.6
-6599.05
-6600.45
-6600.76
-6603.63
-6523.98
-6523.24
-6523.04
-6520.28
-6616.71
-6616
-6617.02
-6624.32
23.3716
-1853.1
-3731.22
-5608.33
71.8806
-1805.76
-3683.77
-5561.39
4.2446
-1871.27
-3749.88
-5626.52
64.9854
-1813.04
-3691.1
-5568.83
-16.3201
-1889.89
-3769.82
-5645.37
59.3011
-1819.95
-3697.46
-5575.88
-40.3744
-1908.79
-3792.3
-5664.88
57.1522
-1825.99
-3700.81
-5581.52
-72.3213
-1926.23
-3822.17
-5685.09
)
;
    }
    procBoundary7to0
    {
        type            processor;
        value           uniform 79.3968;
    }
    procBoundary7to1
    {
        type            processor;
        value           uniform 22.9771;
    }
    procBoundary7to3
    {
        type            processor;
        value           nonuniform List<scalar> 
36
(
1901.89
1949.35
1883.83
1941.77
1865.55
1934.93
1847.37
1928.64
1829.07
1901.44
1949.77
1883.06
1942.66
1864.49
1936.21
1845.17
1930.83
1826.31
1901.22
1949.69
1882.54
1942.19
1863.3
1935.53
1842.29
1930.82
1818.6
1901.02
1949.64
1882.61
1942.92
1862.81
1937.16
1840.17
1934.14
1809.86
)
;
    }
    procBoundary7to5
    {
        type            processor;
        value           nonuniform List<scalar> 
44
(
71.6387
4.36574
64.5325
-14.6114
58.4398
-33.4248
54.0955
-51.4225
-1851.75
-1806.37
-1870.27
-1813.76
-1887.76
-1820.61
-1904.68
-1827.32
-1920.17
-1851.75
-1806.37
-1806.37
-3747.51
-3692.38
-3768.44
-3698.21
-3787.36
-3703.05
-3804.98
-3730.17
-3683.97
-3747.51
-3692.38
-3692.38
-5643.1
-5577.53
-5665.17
-5580.98
-5683.67
-5608.21
-5561.97
-5625.7
-5569.8
-5643.1
-5577.53
-5577.53
)
;
    }
    procBoundary7to6
    {
        type            processor;
        value           nonuniform List<scalar> 
12
(
79.3791
79.5178
79.2579
-1798.16
-1797.96
-1798.18
-3675.87
-3675.77
-3676.04
-5553.52
-5553.69
-5553.67
)
;
    }
}


// ************************************************************************* //
