/*--------------------------------*- C++ -*----------------------------------*\
| =========                 |                                                 |
| \\      /  F ield         | OpenFOAM: The Open Source CFD Toolbox           |
|  \\    /   O peration     | Version:  4.x                                   |
|   \\  /    A nd           | Web:      www.OpenFOAM.org                      |
|    \\/     M anipulation  |                                                 |
\*---------------------------------------------------------------------------*/
FoamFile
{
    version     2.0;
    format      ascii;
    class       surfaceScalarField;
    location    "8.5";
    object      phi;
}
// * * * * * * * * * * * * * * * * * * * * * * * * * * * * * * * * * * * * * //

dimensions      [0 3 -1 0 0 0 0];

internalField   nonuniform List<scalar> 
308
(
6.19234e-06
7.59498e-08
6.32447e-06
2.60405e-08
5.99559e-06
1.55607e-07
-2.82105e-07
5.91449e-06
3.85471e-08
-4.33961e-07
5.21855e-06
3.1125e-07
-4.22184e-07
4.99059e-06
1.02553e-07
-3.52702e-07
3.65967e-06
7.06544e-07
-3.68754e-07
3.89842e-06
-1.80981e-07
4.79044e-07
1.45313e-06
-8.50161e-07
6.51658e-06
7.44577e-08
-1.05328e-07
6.69589e-06
-7.20907e-09
-2.37234e-07
6.72133e-06
1.26549e-07
-3.01319e-07
6.93023e-06
-8.38025e-08
-5.1261e-07
6.85653e-06
3.86558e-07
-5.89986e-07
7.14371e-06
-1.7906e-07
-5.51643e-07
6.6774e-06
1.30349e-06
-1.16588e-06
6.80681e-06
-7.83703e-07
4.48955e-08
4.79106e-06
-2.27448e-06
6.59944e-06
2.87607e-08
-9.46423e-08
6.81462e-06
-6.32317e-08
-1.26992e-07
6.93703e-06
-6.50455e-09
-2.91772e-07
7.25322e-06
-3.34765e-07
-4.58214e-07
7.26932e-06
2.21898e-07
-5.55786e-07
7.71351e-06
-6.47326e-07
-3.65783e-07
7.48061e-06
1.29218e-06
-1.19216e-06
7.57283e-06
-1.26696e-06
3.15938e-07
6.51613e-06
-3.88383e-06
1.06623e-05
3.53354e-07
1.10606e-05
9.863e-07
1.15671e-05
3.40591e-07
1.17468e-05
1.04471e-06
1.24821e-05
-1.28075e-07
1.21866e-05
8.82011e-07
1.40793e-05
-1.20281e-06
1.27716e-05
8.916e-07
-5.46204e-06
4.22245e-06
5.67797e-08
4.28473e-06
-7.88641e-08
3.66414e-06
1.15794e-07
-2.3966e-12
3.73491e-06
3.60822e-08
-3.49029e-07
2.90678e-06
2.96731e-07
-2.66273e-12
3.85179e-06
-7.90595e-08
-2.49905e-08
6.4536e-07
-3.57936e-07
5.08938e-06
4.11783e-08
-2.27954e-08
5.25193e-06
-1.12857e-07
-3.53861e-07
5.04046e-06
7.0446e-08
-1.03517e-07
5.30775e-06
-2.33575e-07
-6.25183e-07
4.89917e-06
1.34969e-07
-2.00582e-07
5.33956e-06
-2.71797e-07
-6.84156e-07
4.50455e-06
3.6669e-07
-4.00823e-07
5.226e-06
-5.48623e-07
-2.06987e-07
1.00336e-06
-9.36643e-07
5.32093e-06
6.16654e-08
-3.71049e-08
5.3121e-06
-1.06365e-07
-1.24649e-07
5.17838e-06
3.87567e-08
-1.26362e-07
5.17449e-06
-3.27533e-07
-3.60369e-07
4.77443e-06
1.24984e-07
-1.45737e-07
5.01464e-06
-5.27192e-07
-3.50605e-07
4.14057e-06
3.1972e-07
-2.71119e-07
4.74418e-06
-8.70222e-07
3.39244e-08
1.01724e-06
-9.73451e-07
9.23433e-06
2.92272e-07
9.38442e-06
7.29845e-07
9.46243e-06
3.01343e-07
9.41107e-06
7.68532e-07
9.2788e-06
1.29181e-07
8.96691e-06
6.66706e-07
8.29144e-06
-2.07621e-07
7.81179e-06
5.01034e-07
-1.71994e-06
4.03814e-06
9.13359e-08
4.10955e-06
-1.48824e-08
3.41142e-06
1.18088e-07
1.39731e-07
4.5488e-06
-1.38214e-07
-4.28311e-07
3.72183e-07
-8.05972e-08
5.85023e-06
6.80637e-08
-3.69493e-08
5.74504e-06
7.53805e-08
-2.84636e-07
5.73852e-06
1.0341e-07
-1.32151e-07
5.71307e-06
-1.37845e-07
-5.3704e-07
5.52092e-06
2.12677e-07
-1.29777e-07
5.53514e-06
-2.13668e-07
-4.99589e-07
4.71874e-06
6.25318e-07
-9.16486e-08
5.31761e-06
-9.55206e-07
1.11313e-08
3.6827e-06
-6.00851e-07
5.97234e-06
9.85152e-08
-2.78619e-08
6.07361e-06
-3.26828e-08
-1.17862e-07
6.14504e-06
1.40465e-07
-2.34847e-07
6.32855e-06
-2.55664e-07
-4.26054e-07
6.35132e-06
4.02962e-07
-3.58798e-07
6.85425e-06
-5.39731e-07
-5.27471e-07
6.45956e-06
1.27253e-06
-5.23641e-07
7.20152e-06
-1.3483e-06
-3.14949e-07
5.8663e-06
-1.0308e-06
1.03125e-05
1.36677e-07
1.06351e-05
3.74609e-07
1.09774e-05
9.95055e-08
1.11199e-05
3.70357e-07
1.17803e-05
-1.28266e-07
1.15692e-05
3.38103e-07
1.33409e-05
-7.06829e-07
1.21789e-05
3.14734e-07
-3.58577e-06
6.8362e-06
-4.68599e-07
6.84232e-06
3.04944e-07
-7.5758e-07
7.63114e-06
4.59539e-08
7.09962e-06
3.74079e-09
6.70512e-06
1.04542e-07
6.01559e-06
-8.1683e-08
5.45772e-06
2.10762e-07
5.10903e-06
-2.05649e-07
4.11721e-06
4.31577e-07
5.02461e-06
-5.91326e-07
1.14971e-06
9.29604e-06
3.4111e-08
9.16844e-06
1.34707e-08
8.90247e-06
1.35668e-07
8.46184e-06
-6.71038e-08
7.95434e-06
3.59461e-07
7.43039e-06
-2.09165e-07
6.42111e-06
9.17212e-07
6.23822e-06
-7.23387e-07
2.36794e-06
1.05325e-05
1.09206e-05
1.11558e-05
1.1459e-05
1.16902e-05
1.18191e-05
1.20295e-05
1.16209e-05
)
;

boundaryField
{
    inlet
    {
        type            calculated;
        value           nonuniform 0();
    }
    outlet
    {
        type            calculated;
        value           nonuniform List<scalar> 
16
(
1.46178e-06
3.45036e-06
4.32028e-06
1.86844e-05
2.20642e-06
3.53016e-06
1.81991e-06
5.08693e-06
2.73965e-06
1.67131e-06
5.07527e-06
1.9911e-05
5.52288e-06
2.51647e-06
3.98919e-06
1.0403e-05
)
;
    }
    wall
    {
        type            calculated;
        value           nonuniform List<scalar> 
66
(
0
0
0
0
0
0
0
0
0
0
0
0
0
0
0
0
0
0
0
0
0
0
0
0
0
-2.46519e-32
0
0
0
0
0
0
0
0
0
0
0
0
0
0
0
0
0
0
0
0
0
0
-3.9443e-31
0
0
0
0
0
0
0
0
0
-9.86076e-32
0
0
0
0
0
0
0
)
;
    }
    procBoundary7to0
    {
        type            processor;
        value           uniform -6.35333e-06;
    }
    procBoundary7to1
    {
        type            processor;
        value           uniform 6.20394e-08;
    }
    procBoundary7to3
    {
        type            processor;
        value           nonuniform List<scalar> 
36
(
1.21443e-07
9.02292e-08
3.73144e-07
5.15337e-07
6.35427e-07
5.32191e-07
6.41782e-07
-2.50798e-07
1.10743e-06
6.91321e-08
9.1181e-08
3.04929e-07
4.26067e-07
5.88372e-07
5.46076e-07
1.03524e-06
4.28414e-07
2.29301e-06
2.47726e-08
-3.21659e-08
3.02411e-07
3.92984e-07
7.04346e-07
3.89866e-07
1.43637e-06
7.50973e-08
5.41131e-06
-7.10672e-07
-1.44784e-06
-8.53544e-07
-1.55927e-06
-3.85303e-07
-1.2338e-06
6.02227e-07
-8.50799e-07
6.06535e-06
)
;
    }
    procBoundary7to5
    {
        type            processor;
        value           nonuniform List<scalar> 
44
(
-4.91722e-08
8.22351e-08
-3.88266e-08
1.71446e-07
-5.40815e-08
3.51348e-07
-2.8602e-07
7.26237e-07
-9.84428e-08
-1.9922e-07
4.79288e-08
-4.91709e-08
8.26134e-08
-1.10528e-07
1.62646e-07
-3.61914e-07
5.07784e-07
-2.88829e-08
-4.60927e-06
6.69354e-08
6.01638e-12
-3.68205e-07
1.95572e-07
-5.54318e-09
4.40306e-07
-5.9584e-07
1.15963e-06
-3.90938e-08
-3.94162e-08
-6.82492e-08
-4.37548e-06
7.51504e-08
5.04284e-08
-4.00018e-07
1.37135e-06
-7.39366e-07
1.99642e-06
1.16167e-07
2.43137e-07
1.57813e-07
2.34167e-07
2.17331e-07
-7.59923e-06
5.47507e-08
)
;
    }
    procBoundary7to6
    {
        type            processor;
        value           nonuniform List<scalar> 
12
(
-6.47889e-06
-6.48387e-06
-1.02762e-05
-5.18421e-06
-5.39896e-06
-9.11158e-06
-5.86505e-06
-6.01203e-06
-1.00584e-05
-7.83021e-06
-9.31206e-06
-1.03617e-05
)
;
    }
}


// ************************************************************************* //
