/*--------------------------------*- C++ -*----------------------------------*\
| =========                 |                                                 |
| \\      /  F ield         | OpenFOAM: The Open Source CFD Toolbox           |
|  \\    /   O peration     | Version:  4.x                                   |
|   \\  /    A nd           | Web:      www.OpenFOAM.org                      |
|    \\/     M anipulation  |                                                 |
\*---------------------------------------------------------------------------*/
FoamFile
{
    version     2.0;
    format      ascii;
    class       volScalarField;
    location    "8.5";
    object      QPartFluid;
}
// * * * * * * * * * * * * * * * * * * * * * * * * * * * * * * * * * * * * * //

dimensions      [1 -1 -3 0 0 0 0];

internalField   nonuniform List<scalar> 
132
(
1.06141e+10
9.33464e+09
6.82756e+09
8.03639e+09
1.13772e+10
1.22736e+10
8.12897e+09
6.16479e+09
6.00082e+09
8.04405e+09
1.17278e+10
7.92635e+09
8.28034e+09
9.20784e+09
7.25871e+09
8.26044e+09
8.00045e+09
7.0508e+09
6.19207e+09
9.42464e+09
7.24175e+09
9.21094e+09
8.71193e+09
1.08591e+10
9.28668e+09
9.47139e+09
8.29842e+09
5.63141e+09
8.28551e+09
9.58126e+09
6.25969e+09
8.48718e+09
8.72738e+09
8.86993e+09
7.95495e+09
4.47243e+09
6.54665e+09
8.41932e+09
6.86941e+09
7.77305e+09
8.48389e+09
9.10293e+09
5.73273e+09
3.92424e+09
1.00796e+10
7.51632e+09
8.84477e+09
8.75048e+09
8.19918e+09
5.71451e+09
8.72669e+09
4.69025e+09
6.47214e+09
1.06391e+10
7.803e+09
7.10848e+09
8.50917e+09
1.08246e+10
9.94243e+09
8.57175e+09
6.69172e+09
5.91969e+09
9.57652e+09
6.69534e+09
8.49998e+09
8.02948e+09
7.13364e+09
7.12005e+09
9.28675e+09
4.87975e+09
4.70355e+09
6.7463e+09
7.48065e+09
6.79963e+09
4.07829e+09
8.73479e+09
9.07382e+09
7.13267e+09
6.44159e+09
8.97143e+09
8.58224e+09
7.28746e+09
1.0153e+10
6.24178e+09
8.16022e+09
9.41659e+09
8.59359e+09
8.94422e+09
9.67883e+09
9.8342e+09
8.9454e+09
9.01297e+09
7.30545e+09
5.99134e+09
7.36617e+09
7.50829e+09
8.38689e+09
6.92755e+09
7.20001e+09
8.78601e+09
8.94622e+09
5.94128e+09
5.64964e+09
7.1269e+09
4.74574e+09
7.28793e+09
6.87639e+09
7.32249e+09
8.36392e+09
4.71336e+09
4.59252e+09
6.17306e+09
6.94489e+09
4.18559e+09
6.42587e+09
6.74341e+09
6.36926e+09
7.65016e+09
7.29002e+09
7.00338e+09
7.36839e+09
7.24942e+09
6.18894e+09
6.34181e+09
8.11181e+09
6.02233e+09
7.28296e+09
7.71298e+09
7.21857e+09
6.91396e+09
7.49524e+09
4.23679e+09
)
;

boundaryField
{
    inlet
    {
        type            calculated;
        value           nonuniform 0();
    }
    outlet
    {
        type            calculated;
        value           uniform 0;
    }
    wall
    {
        type            calculated;
        value           uniform 0;
    }
    procBoundary7to0
    {
        type            processor;
        value           uniform 2.66774e+09;
    }
    procBoundary7to1
    {
        type            processor;
        value           uniform 6.14352e+09;
    }
    procBoundary7to3
    {
        type            processor;
        value           nonuniform List<scalar> 
36
(
8.40483e+09
1.08672e+10
9.54063e+09
1.03555e+10
6.73327e+09
7.8172e+09
9.20321e+09
7.93267e+09
6.9401e+09
9.89587e+09
6.36271e+09
8.62067e+09
5.20207e+09
4.84294e+09
9.84419e+09
8.20223e+09
1.1404e+10
5.652e+09
6.86757e+09
1.06548e+10
9.62587e+09
7.48989e+09
7.84092e+09
1.04518e+10
8.54115e+09
1.00408e+10
5.4298e+09
6.24643e+09
4.81562e+09
6.14308e+09
7.33895e+09
6.91272e+09
9.03794e+09
6.97694e+09
1.02071e+10
8.52076e+09
)
;
    }
    procBoundary7to5
    {
        type            processor;
        value           nonuniform List<scalar> 
44
(
1.02386e+10
6.44802e+09
8.90728e+09
6.27802e+09
5.46276e+09
7.37151e+09
6.62955e+09
6.69696e+09
1.03131e+10
5.06888e+09
7.37838e+09
8.99426e+09
6.20426e+09
8.18042e+09
7.1982e+09
7.74963e+09
4.41777e+09
1.03131e+10
5.06888e+09
5.06888e+09
9.36173e+09
9.50655e+09
1.14153e+10
9.19921e+09
8.79067e+09
1.05894e+10
7.78827e+09
3.83182e+09
1.14177e+10
9.36173e+09
9.50655e+09
9.50655e+09
1.03574e+10
8.09196e+09
6.92138e+09
7.67426e+09
6.30249e+09
7.24522e+09
6.30931e+09
7.67103e+09
6.6911e+09
1.03574e+10
8.09196e+09
8.09196e+09
)
;
    }
    procBoundary7to6
    {
        type            processor;
        value           nonuniform List<scalar> 
12
(
8.16739e+09
8.88838e+09
5.61595e+09
9.94907e+09
9.33095e+09
8.78012e+09
9.49373e+09
9.79675e+09
6.86599e+09
4.48089e+09
8.40994e+09
7.10351e+09
)
;
    }
}


// ************************************************************************* //
