/*--------------------------------*- C++ -*----------------------------------*\
| =========                 |                                                 |
| \\      /  F ield         | OpenFOAM: The Open Source CFD Toolbox           |
|  \\    /   O peration     | Version:  4.x                                   |
|   \\  /    A nd           | Web:      www.OpenFOAM.org                      |
|    \\/     M anipulation  |                                                 |
\*---------------------------------------------------------------------------*/
FoamFile
{
    version     2.0;
    format      ascii;
    class       volScalarField;
    location    "8.5";
    object      QWallFluidCoeff;
}
// * * * * * * * * * * * * * * * * * * * * * * * * * * * * * * * * * * * * * //

dimensions      [1 -1 -3 -1 0 0 0];

internalField   nonuniform List<scalar> 
132
(
0
0
0
0
0
0
0
0
0
0
0
0
0
0
0
0
0
0
0
0
0
0
0
0
0
0
0
-1.95611e+06
-3.1508e+06
-2.07055e+06
-3.38182e+06
-2.08278e+06
-3.69667e+06
-1.95146e+06
-4.41458e+06
-2.70258e+06
0
0
0
0
0
0
0
0
0
0
0
0
0
0
0
0
0
0
0
0
0
0
0
0
0
-1.67781e+06
-2.86413e+06
-1.69284e+06
-2.94022e+06
-1.61433e+06
-2.94595e+06
-1.42788e+06
-2.76364e+06
-1.34028e+06
0
0
0
0
0
0
0
0
0
0
0
0
0
0
0
0
0
0
0
0
0
0
0
-1.92657e+06
-3.04231e+06
-2.0129e+06
-3.2137e+06
-2.01859e+06
-3.50528e+06
-1.89372e+06
-4.18815e+06
-1.85185e+06
-1.26967e+06
-2.34339e+06
-1.26683e+06
-1.24499e+06
-2.62459e+06
-941739
-2.52162e+06
-512092
-2.35986e+06
-197117
-2.03316e+06
-699769
-1.7427e+06
-2.82422e+06
-1.64356e+06
-2.77158e+06
-1.40074e+06
-2.63423e+06
-1.12208e+06
-2.31104e+06
-1.11307e+06
-4.02127e+06
-6.0848e+06
-4.2456e+06
-6.34649e+06
-4.3935e+06
-6.61921e+06
-4.45505e+06
-6.89802e+06
-4.97333e+06
)
;

boundaryField
{
    inlet
    {
        type            calculated;
        value           nonuniform 0();
    }
    outlet
    {
        type            calculated;
        value           uniform 0;
    }
    wall
    {
        type            calculated;
        value           uniform 0;
    }
    procBoundary7to0
    {
        type            processor;
        value           uniform 0;
    }
    procBoundary7to1
    {
        type            processor;
        value           uniform 0;
    }
    procBoundary7to3
    {
        type            processor;
        value           uniform 0;
    }
    procBoundary7to5
    {
        type            processor;
        value           uniform 0;
    }
    procBoundary7to6
    {
        type            processor;
        value           uniform 0;
    }
}


// ************************************************************************* //
