/*--------------------------------*- C++ -*----------------------------------*\
| =========                 |                                                 |
| \\      /  F ield         | OpenFOAM: The Open Source CFD Toolbox           |
|  \\    /   O peration     | Version:  4.x                                   |
|   \\  /    A nd           | Web:      www.OpenFOAM.org                      |
|    \\/     M anipulation  |                                                 |
\*---------------------------------------------------------------------------*/
FoamFile
{
    version     2.0;
    format      ascii;
    class       volVectorField;
    location    "46";
    object      ddtUrel;
}
// * * * * * * * * * * * * * * * * * * * * * * * * * * * * * * * * * * * * * //

dimensions      [0 1 -2 0 0 0 0];

internalField   nonuniform List<vector> 
132
(
(-1.00813e-10 1.74683e-10 1.66545e-10)
(-6.36399e-11 1.8132e-10 1.79834e-10)
(8.03051e-12 1.30678e-10 1.50539e-10)
(-2.96379e-10 -1.26697e-10 -1.40458e-10)
(-1.26591e-09 -1.77278e-10 -1.81267e-10)
(-2.62198e-09 -1.39171e-10 -1.23525e-10)
(-5.36639e-09 -9.08181e-11 -2.61616e-11)
(-1.13119e-08 -5.6881e-11 1.38017e-10)
(-2.6174e-08 -5.93339e-11 4.85003e-10)
(-6.33697e-11 1.89538e-10 1.21013e-10)
(-1.62776e-11 1.96683e-10 1.12778e-10)
(4.08634e-11 1.25952e-10 4.50682e-11)
(-2.65838e-10 -1.41209e-10 -1.08025e-10)
(-1.00898e-09 -1.95405e-10 -1.58395e-10)
(-2.18004e-09 -1.53531e-10 -1.24314e-10)
(-4.34454e-09 -9.10814e-11 -5.2844e-11)
(-8.53844e-09 -4.24455e-11 6.80595e-11)
(-1.72704e-08 -7.45224e-12 2.86702e-10)
(-5.79962e-11 1.71206e-10 6.35881e-11)
(-3.31365e-11 1.52769e-10 4.03378e-11)
(-7.32551e-11 8.2039e-11 -1.15889e-11)
(-3.02173e-10 -8.85716e-11 -8.66069e-11)
(-8.18205e-10 -1.60973e-10 -1.24574e-10)
(-1.63267e-09 -1.35815e-10 -1.18628e-10)
(-3.08943e-09 -8.19493e-11 -8.02067e-11)
(-5.52021e-09 -2.93591e-11 -7.02517e-12)
(-9.74642e-09 2.01288e-11 1.15978e-10)
(-8.27071e-11 1.28064e-10 1.28705e-11)
(-8.58797e-11 9.49835e-11 -1.10173e-11)
(-1.62499e-10 3.56696e-11 -4.58804e-11)
(-3.2469e-11 1.35764e-10 1.8535e-10)
(1.40211e-11 1.30701e-10 1.95653e-10)
(5.40187e-11 6.43711e-11 1.25425e-10)
(-1.8132e-10 -8.49175e-11 -1.66089e-10)
(-9.19178e-10 -1.30107e-10 -2.05602e-10)
(-2.0525e-09 -1.12042e-10 -1.45555e-10)
(-4.10942e-09 -7.87471e-11 -6.22942e-11)
(-8.16276e-09 -4.60201e-11 6.71047e-11)
(-1.63204e-08 -3.02732e-11 2.78831e-10)
(-1.42621e-11 1.48898e-10 1.32393e-10)
(3.58246e-11 1.46506e-10 1.26655e-10)
(6.45332e-11 7.32991e-11 5.21768e-11)
(-1.74827e-10 -8.8051e-11 -1.18702e-10)
(-7.77038e-10 -1.50493e-10 -1.75766e-10)
(-1.73655e-09 -1.26977e-10 -1.42959e-10)
(-3.38645e-09 -8.11167e-11 -7.9959e-11)
(-6.34494e-09 -3.82457e-11 1.76392e-11)
(-1.16475e-08 -6.33661e-12 1.65921e-10)
(-1.53442e-11 1.3183e-10 6.60126e-11)
(7.93049e-12 1.20223e-10 4.51278e-11)
(-1.89595e-11 4.85807e-11 -1.23763e-11)
(-2.06879e-10 -6.7931e-11 -9.28379e-11)
(-6.28489e-10 -1.27413e-10 -1.35925e-10)
(-1.3112e-09 -1.16874e-10 -1.29824e-10)
(-2.44215e-09 -7.37582e-11 -9.73735e-11)
(-4.25365e-09 -2.53944e-11 -3.5495e-11)
(-7.08363e-09 2.20524e-11 5.25607e-11)
(-3.78108e-11 9.97419e-11 1.19193e-11)
(-3.99777e-11 7.84502e-11 -1.18957e-11)
(-8.92634e-11 2.42881e-11 -4.962e-11)
(-2.28099e-10 -4.75577e-11 -9.06078e-11)
(-5.06251e-10 -8.65983e-11 -1.17318e-10)
(1.60951e-11 8.37144e-11 1.51668e-10)
(4.00974e-11 6.95998e-11 1.40129e-10)
(2.98228e-11 2.64387e-11 6.90937e-11)
(-1.7733e-10 -4.17027e-11 -9.2988e-11)
(-6.46754e-10 -7.81727e-11 -1.55039e-10)
(-1.43256e-09 -7.68821e-11 -1.32094e-10)
(-2.75284e-09 -5.90866e-11 -7.9393e-11)
(-5.04389e-09 -3.5153e-11 3.14102e-12)
(-8.85445e-09 -1.37293e-11 1.15757e-10)
(2.14316e-11 9.22801e-11 1.14613e-10)
(4.25796e-11 7.77934e-11 9.92216e-11)
(2.828e-11 2.83792e-11 3.16263e-11)
(-1.54888e-10 -4.9493e-11 -8.36482e-11)
(-5.58468e-10 -9.14757e-11 -1.454e-10)
(-1.23409e-09 -8.87784e-11 -1.33311e-10)
(-2.33046e-09 -6.39416e-11 -9.20806e-11)
(-4.09917e-09 -3.2416e-11 -2.58035e-11)
(-6.81995e-09 -6.14284e-12 6.2597e-11)
(7.31657e-12 8.28292e-11 5.72973e-11)
(1.44579e-11 6.70706e-11 3.67457e-11)
(-1.61254e-11 1.80128e-11 -1.54386e-11)
(-1.65778e-10 -5.0493e-11 -8.21694e-11)
(-4.68514e-10 -9.1234e-11 -1.23781e-10)
(-9.711e-10 -8.89892e-11 -1.23808e-10)
(-1.74988e-09 -6.18704e-11 -9.9388e-11)
(-2.91227e-09 -2.50749e-11 -5.58583e-11)
(-4.52632e-09 1.14159e-11 4.40604e-12)
(-1.59712e-11 6.38538e-11 8.73491e-12)
(-2.25729e-11 4.77854e-11 -1.29934e-11)
(-6.39409e-11 6.63854e-12 -4.78277e-11)
(-1.8137e-10 -4.25867e-11 -8.46773e-11)
(-3.95072e-10 -7.18901e-11 -1.10059e-10)
(-7.39212e-10 -7.21037e-11 -1.15195e-10)
(-1.24754e-09 -4.83583e-11 -1.02272e-10)
(2.72653e-11 4.54381e-11 1.03794e-10)
(3.79852e-11 3.15593e-11 8.53918e-11)
(1.22912e-11 6.06085e-12 3.28957e-11)
(-1.38735e-10 -2.78139e-11 -5.01017e-11)
(-4.3172e-10 -4.87635e-11 -1.01592e-10)
(-9.20657e-10 -5.14074e-11 -1.03979e-10)
(-1.70376e-09 -4.36193e-11 -8.0842e-11)
(-2.89702e-09 -2.90187e-11 -3.36912e-11)
(-4.60356e-09 -9.79303e-12 2.38379e-11)
(2.86513e-11 4.74103e-11 8.271e-11)
(3.94752e-11 3.31446e-11 6.45608e-11)
(1.47252e-11 2.92138e-12 1.42632e-11)
(-1.1223e-10 -3.73059e-11 -5.40127e-11)
(-3.71437e-10 -5.93962e-11 -1.00074e-10)
(-7.99432e-10 -6.21075e-11 -1.04294e-10)
(-1.4628e-09 -5.01247e-11 -8.64568e-11)
(-2.44226e-09 -3.05476e-11 -4.71537e-11)
(-3.76555e-09 -8.82122e-12 2.28671e-12)
(1.21133e-11 4.22895e-11 4.56247e-11)
(1.78088e-11 2.70834e-11 2.57473e-11)
(-8.77613e-12 -4.70672e-12 -1.38412e-11)
(-1.14483e-10 -4.42969e-11 -5.84736e-11)
(-3.21417e-10 -6.86146e-11 -9.3211e-11)
(-6.55786e-10 -7.11239e-11 -9.90192e-11)
(-1.15062e-09 -5.61431e-11 -8.79705e-11)
(-1.84118e-09 -2.90244e-11 -6.07074e-11)
(-2.70653e-09 4.45569e-13 -2.09118e-11)
(-7.25514e-12 3.0974e-11 9.30313e-12)
(-1.09954e-11 1.86021e-11 -5.84991e-12)
(-4.06025e-11 -1.04836e-11 -3.24227e-11)
(-1.33194e-10 -4.69822e-11 -5.94055e-11)
(-2.86995e-10 -6.6962e-11 -8.12683e-11)
(-5.3641e-10 -6.56973e-11 -9.31577e-11)
(-8.73945e-10 -4.88554e-11 -8.82697e-11)
(-1.3175e-09 -2.09781e-11 -7.22184e-11)
(-1.83513e-09 1.99776e-11 -4.79399e-11)
)
;

boundaryField
{
    inlet
    {
        type            calculated;
        value           nonuniform List<vector> 
16
(
(-5.70508e-10 2.27584e-10 2.07011e-10)
(-3.53055e-10 3.95038e-10 1.5387e-10)
(-3.78059e-10 4.32869e-10 1.25049e-10)
(-1.5272e-10 3.3754e-10 5.89889e-11)
(-1.91825e-10 1.51481e-10 4.74918e-10)
(-4.56851e-11 3.01228e-10 2.85474e-10)
(-4.63378e-11 2.47502e-10 1.37969e-10)
(5.2303e-12 2.16373e-10 5.46772e-11)
(2.67111e-11 6.32239e-11 3.46842e-10)
(2.04196e-11 1.61963e-10 2.73574e-10)
(1.00769e-12 1.38665e-10 1.10171e-10)
(4.71021e-11 1.22198e-10 1.60967e-11)
(7.96639e-12 4.31667e-11 2.12121e-10)
(4.38226e-11 6.08314e-11 1.92485e-10)
(-1.49095e-10 6.91522e-11 1.30503e-10)
(-6.13243e-11 3.52603e-11 3.09493e-11)
)
;
    }
    outlet
    {
        type            calculated;
        value           nonuniform 0();
    }
    wall
    {
        type            calculated;
        value           nonuniform List<vector> 
66
(
(-6.21741e-10 2.27896e-10 2.07907e-10)
(-4.23336e-10 3.96169e-10 1.54495e-10)
(-3.81657e-10 4.3145e-10 1.18899e-10)
(-2.18754e-10 3.3873e-10 5.86687e-11)
(-6.6597e-10 4.77437e-10 4.7901e-10)
(-1.13012e-10 7.88839e-10 2.87553e-10)
(-3.47246e-11 4.67682e-10 6.30066e-11)
(-1.8522e-10 1.89462e-10 -2.31515e-11)
(7.51198e-10 1.01814e-09 1.40932e-09)
(1.21074e-09 1.0588e-09 1.67131e-10)
(-2.18664e-10 5.26481e-10 1.95118e-11)
(-7.30804e-10 9.30285e-11 -4.26366e-11)
(1.23648e-09 -8.80621e-10 -9.63106e-10)
(7.67116e-10 -1.19034e-09 -3.61736e-10)
(-8.85892e-11 -4.17465e-10 -1.06959e-10)
(-2.22844e-09 -5.48899e-10 -4.83251e-10)
(-7.63739e-10 -7.91425e-10 -3.87882e-10)
(-1.04611e-09 -6.59807e-10 -1.43447e-10)
(-1.6492e-09 -2.12495e-10 -1.68297e-10)
(-1.19551e-09 -3.86457e-10 -1.86521e-10)
(-7.91619e-10 -3.6612e-10 -1.54109e-10)
(-3.25146e-09 -8.00554e-11 -7.28271e-12)
(-2.77544e-09 -7.30533e-11 -7.51367e-11)
(-2.49938e-09 -1.41449e-10 -1.03362e-10)
(-6.43652e-10 -1.61074e-11 -1.97617e-11)
(-3.01048e-09 5.86149e-11 -1.12397e-11)
(-2.56372e-09 -4.35735e-11 -8.71386e-11)
(-1.44237e-09 -4.54364e-11 6.95529e-12)
(-1.11179e-08 2.69615e-10 2.44401e-10)
(-6.35518e-09 6.73289e-11 8.22583e-11)
(-5.63531e-10 2.27144e-10 2.063e-10)
(-2.22137e-10 1.51728e-10 4.76902e-10)
(2.81675e-11 6.29524e-11 3.46514e-10)
(1.13505e-11 4.26837e-11 2.11712e-10)
(-6.00393e-10 4.76071e-10 4.75851e-10)
(1.33813e-10 3.10471e-10 8.88741e-10)
(1.95067e-10 6.87229e-11 4.5724e-10)
(1.39652e-10 8.14278e-12 2.14341e-10)
(-1.79956e-09 1.01917e-09 1.52731e-09)
(1.10009e-09 2.19723e-10 1.16699e-09)
(6.25768e-10 4.71947e-11 4.17194e-10)
(4.09419e-10 8.7429e-12 1.42975e-10)
(1.3268e-09 -8.82269e-10 -9.66424e-10)
(1.67335e-09 -4.15195e-10 -1.4281e-09)
(5.011e-10 -3.12795e-11 -3.5331e-10)
(1.83776e-10 -1.92526e-11 -6.42433e-11)
(-2.31207e-09 -5.52204e-10 -4.80765e-10)
(5.89274e-11 -2.87969e-10 -8.46088e-10)
(2.45198e-10 -9.03373e-11 -4.66932e-10)
(1.60895e-10 -2.97027e-11 -2.12314e-10)
(-1.34817e-09 -2.12978e-10 -1.78401e-10)
(-1.99701e-10 -1.39928e-10 -3.36976e-10)
(-3.86447e-11 -6.36643e-11 -2.65562e-10)
(7.68175e-11 -1.99236e-11 -1.86237e-10)
(-2.41845e-09 -8.40009e-11 -3.71944e-11)
(-3.50921e-11 -9.15984e-11 -2.18746e-10)
(8.39372e-11 -5.081e-11 -1.86817e-10)
(-1.95006e-10 -3.13962e-11 -1.83449e-10)
(-9.31713e-10 -2.37336e-11 -1.00788e-11)
(-3.28042e-10 -1.48347e-11 -6.89721e-11)
(-2.91021e-11 -2.05165e-11 -8.84857e-11)
(1.26084e-10 -3.67257e-11 -1.16247e-10)
(-7.33839e-10 -4.29333e-11 -1.74075e-11)
(3.51114e-09 1.13517e-12 -1.05311e-10)
(1.864e-09 1.7863e-11 -1.62336e-10)
(6.89868e-10 -2.12702e-12 -1.99413e-10)
)
;
    }
    procBoundary0to1
    {
        type            processor;
        value           nonuniform List<vector> 
12
(
(-6.6669e-08 -1.43146e-10 1.36951e-09)
(-3.37397e-08 7.85235e-12 6.7355e-10)
(-1.56608e-08 6.82195e-11 2.92284e-10)
(-3.22833e-08 -2.98396e-11 6.68678e-10)
(-1.98001e-08 2.27736e-11 3.90301e-10)
(-1.06229e-08 7.12358e-11 1.78685e-10)
(-1.45696e-08 4.71022e-12 2.86012e-10)
(-1.03136e-08 2.61791e-11 1.85016e-10)
(-6.32747e-09 5.72057e-11 8.32875e-11)
(-6.67242e-09 1.13185e-11 1.09998e-10)
(-5.19926e-09 1.56971e-11 7.47068e-11)
(-3.56015e-09 3.00795e-11 3.63035e-11)
)
;
    }
    procBoundary0to2
    {
        type            processor;
        value           nonuniform List<vector> 
44
(
(-3.21125e-10 -5.01338e-11 -8.54736e-11)
(-6.71444e-10 -9.72069e-11 -1.07801e-10)
(-1.17737e-09 -9.06525e-11 -1.16454e-10)
(-2.06934e-09 -5.57381e-11 -9.95941e-11)
(-3.3698e-09 -1.04745e-11 -6.34275e-11)
(-5.3021e-09 4.15663e-11 6.0326e-12)
(-1.55301e-10 8.03806e-11 -2.47108e-11)
(-1.38539e-10 5.16969e-11 -4.36077e-11)
(-3.21125e-10 -5.01338e-11 -8.54736e-11)
(-2.09864e-10 1.24193e-11 -6.67596e-11)
(-3.21125e-10 -5.01338e-11 -8.54736e-11)
(-6.71444e-10 -9.72069e-11 -1.07801e-10)
(-9.49752e-10 -8.39692e-11 -1.22688e-10)
(-1.65351e-09 -5.16641e-11 -1.09254e-10)
(-2.6658e-09 -1.00366e-11 -7.63233e-11)
(-4.06117e-09 3.94428e-11 -2.05188e-11)
(-7.84207e-11 5.97551e-11 -2.6027e-11)
(-8.51345e-11 4.23521e-11 -4.39398e-11)
(-1.34655e-10 7.89744e-12 -6.88205e-11)
(-2.31572e-10 -3.07547e-11 -9.13683e-11)
(-9.49752e-10 -8.39692e-11 -1.22688e-10)
(-4.16405e-10 -5.22879e-11 -1.06265e-10)
(-9.49752e-10 -8.39692e-11 -1.22688e-10)
(-1.65351e-09 -5.16641e-11 -1.09254e-10)
(-1.94532e-09 -1.32961e-11 -7.92726e-11)
(-2.81696e-09 3.12158e-11 -3.84625e-11)
(-4.54539e-11 3.9907e-11 -2.26368e-11)
(-5.52378e-11 2.61035e-11 -3.98363e-11)
(-9.87099e-11 -1.45654e-12 -6.37384e-11)
(-1.87954e-10 -3.09792e-11 -8.6156e-11)
(-3.3763e-10 -4.80041e-11 -1.00849e-10)
(-5.66549e-10 -4.71292e-11 -1.0531e-10)
(-1.94532e-09 -1.32961e-11 -7.92726e-11)
(-8.83495e-10 -2.69101e-11 -9.92884e-11)
(-1.94532e-09 -1.32961e-11 -7.92726e-11)
(-2.81696e-09 3.12158e-11 -3.84625e-11)
(-2.90466e-11 1.94489e-11 -1.44849e-11)
(-3.69762e-11 8.22317e-12 -2.60706e-11)
(-7.1174e-11 -1.13564e-11 -4.67453e-11)
(-1.45475e-10 -3.55654e-11 -6.4556e-11)
(-2.65732e-10 -4.85412e-11 -7.97327e-11)
(-4.43122e-10 -4.72001e-11 -8.11459e-11)
(-6.71796e-10 -3.12532e-11 -8.00661e-11)
(-9.46737e-10 -6.26927e-12 -6.83591e-11)
)
;
    }
    procBoundary0to4
    {
        type            processor;
        value           nonuniform List<vector> 
36
(
(2.23218e-11 2.04854e-11 6.1615e-11)
(2.63186e-11 1.18985e-11 4.57677e-11)
(1.44008e-12 -3.22527e-12 1.14139e-11)
(-9.22545e-11 -2.07902e-11 -3.12972e-11)
(-2.75341e-10 -3.41924e-11 -6.48969e-11)
(-5.65943e-10 -3.64276e-11 -7.46554e-11)
(-1.0063e-09 -3.21351e-11 -6.71962e-11)
(-1.62443e-09 -2.33251e-11 -4.21265e-11)
(-2.39554e-09 -1.12093e-11 -6.02687e-12)
(2.49192e-11 2.08902e-11 5.07824e-11)
(3.11484e-11 1.10403e-11 3.59722e-11)
(1.23171e-11 -7.12273e-12 3.33394e-12)
(-7.17472e-11 -2.67931e-11 -3.54819e-11)
(-2.30284e-10 -3.93324e-11 -6.60472e-11)
(-4.96162e-10 -4.16256e-11 -7.5653e-11)
(-8.81106e-10 -3.70429e-11 -7.13146e-11)
(-1.40952e-09 -2.60076e-11 -4.85377e-11)
(-2.04293e-09 -1.38978e-11 -1.93962e-11)
(1.51164e-11 1.67858e-11 2.97675e-11)
(2.12096e-11 6.2329e-12 1.61322e-11)
(6.60834e-12 -1.28784e-11 -1.0943e-11)
(-6.53865e-11 -3.46561e-11 -3.82681e-11)
(-1.91948e-10 -4.69126e-11 -6.43555e-11)
(-4.11683e-10 -5.27924e-11 -7.41211e-11)
(-7.08349e-10 -4.53793e-11 -7.23782e-11)
(-1.11281e-09 -2.83662e-11 -5.24363e-11)
(-1.56551e-09 -1.01511e-11 -2.71976e-11)
(2.36384e-14 1.01104e-11 7.84708e-12)
(2.30855e-12 2.7549e-13 -1.37456e-12)
(-1.33054e-11 -1.82548e-11 -1.97227e-11)
(-7.22642e-11 -4.02701e-11 -3.77399e-11)
(-1.73581e-10 -5.27973e-11 -5.97411e-11)
(-3.47481e-10 -5.71213e-11 -6.96331e-11)
(-5.63025e-10 -4.50655e-11 -6.89878e-11)
(-8.48206e-10 -2.4778e-11 -5.29474e-11)
(-1.15179e-09 3.23629e-12 -3.48904e-11)
)
;
    }
    procBoundary0to6
    {
        type            processor;
        value           uniform (-1.24013e-09 3.1139e-11 -5.40536e-11);
    }
    procBoundary0to7
    {
        type            processor;
        value           uniform (-2.30043e-09 4.96612e-11 7.03032e-13);
    }
}


// ************************************************************************* //
