/*--------------------------------*- C++ -*----------------------------------*\
| =========                 |                                                 |
| \\      /  F ield         | OpenFOAM: The Open Source CFD Toolbox           |
|  \\    /   O peration     | Version:  4.x                                   |
|   \\  /    A nd           | Web:      www.OpenFOAM.org                      |
|    \\/     M anipulation  |                                                 |
\*---------------------------------------------------------------------------*/
FoamFile
{
    version     2.0;
    format      ascii;
    class       volScalarField;
    location    "46";
    object      KslNext;
}
// * * * * * * * * * * * * * * * * * * * * * * * * * * * * * * * * * * * * * //

dimensions      [1 -3 -1 0 0 0 0];

internalField   nonuniform List<scalar> 
132
(
3316.82
6833.96
3086.99
5256.64
2904.38
4529.84
2789.21
4086.34
2615.45
3335.53
7303.02
3194.72
5890.11
3047.83
5164.12
2928.79
4696.56
2817.74
3346.99
7667.89
3258.75
6396.75
3186.6
5737.72
3076.1
5394.8
3036.99
3364.3
7558.7
3226.76
3367.57
7938.09
3296.97
7037.36
3260.23
6503.75
3216.64
6159.75
3115.92
3398.52
9087.84
3467.57
9110.86
3534.17
9615.33
3534.19
10376.8
3486.2
3436.06
10115.4
3559.15
11498.4
3675.27
14381.8
3745.61
21260.9
3714.42
3483.86
9733.88
3571.39
10745.7
3663.68
3400.59
8102.15
3377.78
7399.22
3323.33
6875.83
3247.87
6501.53
3115.16
3456.21
9449.67
3551.73
10112
3608.77
11025.3
3597.84
12074.1
3482.89
3500.53
10694.1
3687.57
14688.5
3815.74
20887.3
3826.85
27521.2
3744.1
3529.19
11073.8
3727.27
15535
3795.22
20716.2
3760.28
3384.19
8179.78
3390.37
7685.3
3367.64
7547.89
3354.6
7699.81
3321.14
3455.37
10208.9
3625.02
12726.2
3700.31
16667.1
3757.88
26451.7
3733.11
3510.33
11686.2
3776.72
21750.8
3925
76604.9
4026.67
1e+10
4092.39
3500.72
11186.3
3750.35
17716.3
3796.37
28030.1
3788.96
43471.4
3743.6
)
;

boundaryField
{
    inlet
    {
        type            zeroGradient;
    }
    outlet
    {
        type            zeroGradient;
    }
    wall
    {
        type            zeroGradient;
    }
    procBoundary0to1
    {
        type            processor;
        value           uniform 0;
    }
    procBoundary0to2
    {
        type            processor;
        value           uniform 0;
    }
    procBoundary0to4
    {
        type            processor;
        value           uniform 0;
    }
    procBoundary0to6
    {
        type            processor;
        value           uniform 0;
    }
    procBoundary0to7
    {
        type            processor;
        value           uniform 0;
    }
}


// ************************************************************************* //
