/*--------------------------------*- C++ -*----------------------------------*\
| =========                 |                                                 |
| \\      /  F ield         | OpenFOAM: The Open Source CFD Toolbox           |
|  \\    /   O peration     | Version:  4.x                                   |
|   \\  /    A nd           | Web:      www.OpenFOAM.org                      |
|    \\/     M anipulation  |                                                 |
\*---------------------------------------------------------------------------*/
FoamFile
{
    version     2.0;
    format      ascii;
    class       volScalarField;
    location    "46";
    object      p_rgh;
}
// * * * * * * * * * * * * * * * * * * * * * * * * * * * * * * * * * * * * * //

dimensions      [1 -1 -2 0 0 0 0];

internalField   nonuniform List<scalar> 
132
(
108.587
92.4477
103.204
71.9655
93.3232
55.329
87.1902
37.1292
80.7441
108.594
91.9951
101.945
73.3842
94.0073
55.3756
87.3086
36.9751
80.7325
108.781
92.0074
101.982
74.0377
94.746
55.7804
87.8314
37.5481
81.1722
108.591
91.6876
101.801
109.205
92.4642
102.496
73.7286
94.5288
55.6887
87.8265
37.4396
81.2225
109.402
92.3305
102.51
74.0578
94.9899
55.7168
88.0511
37.2388
81.3044
109.757
92.4645
102.886
74.4684
95.6903
56.1146
88.6359
37.6167
81.7922
109.569
92.0811
102.65
74.3268
95.4933
109.525
92.3329
102.418
74.2464
94.9033
55.922
87.79
37.3638
80.9642
109.889
92.4266
102.765
74.3741
95.2931
55.9183
88.0714
37.1871
81.0419
110.379
92.7325
103.343
74.8049
95.864
56.3566
88.4543
37.8732
81.4004
110.422
92.684
103.341
74.7229
95.846
56.2172
88.3699
110.057
92.7959
103.055
74.8833
95.7888
56.6523
88.5566
38.4137
81.7606
110.555
92.9955
103.481
74.9623
96.1209
56.7423
88.8709
38.2798
81.8448
111.109
93.4764
104.143
75.5362
96.691
57.4368
88.9787
39.5409
81.6776
111.007
93.29
103.913
75.1709
96.318
56.9137
88.7493
38.4183
81.627
)
;

boundaryField
{
    inlet
    {
        type            fixedFluxPressure;
        gradient        nonuniform List<scalar> 
16
(
1.52929e-06
3.80654e-07
-8.76877e-07
-4.85161e-07
6.60315e-07
-8.32127e-08
-3.01666e-07
-4.9267e-07
-1.99508e-07
-3.52338e-07
-3.07786e-07
-2.158e-07
-2.42804e-07
-3.20849e-07
-6.40417e-07
-2.8176e-07
)
;
        value           nonuniform List<scalar> 
16
(
108.587
108.594
108.781
108.591
109.205
109.402
109.757
109.569
109.525
109.889
110.379
110.422
110.057
110.555
111.109
111.007
)
;
    }
    outlet
    {
        type            fixedValue;
        value           nonuniform 0();
    }
    wall
    {
        type            fixedFluxPressure;
        gradient        nonuniform List<scalar> 
66
(
-1.84135e-06
-1.79427e-06
-1.86801e-06
-1.17036e-06
-8.56911e-06
-7.97517e-06
-5.87344e-06
-4.35444e-06
-9.04089e-06
-3.02856e-06
-2.61116e-06
-2.01865e-06
7.58116e-06
1.31e-08
-4.83309e-06
1.42658e-06
-9.15652e-08
-2.55039e-06
-2.18573e-06
-4.12393e-06
-5.17254e-06
-4.4487e-06
-4.86943e-06
-4.85034e-06
-3.62845e-07
-1.56155e-05
-1.7506e-05
-2.27689e-06
-2.18881e-05
-1.45143e-05
-1.65076e-06
-1.21055e-06
-5.08037e-07
-3.98114e-07
-7.02633e-06
-5.58524e-06
-1.49371e-06
-7.54155e-07
-2.06629e-05
-1.95847e-06
-3.34524e-07
1.32808e-07
7.66873e-06
5.27855e-06
5.54465e-07
-6.253e-07
1.19322e-06
1.59123e-06
4.3573e-07
-3.26866e-08
8.16301e-07
1.79803e-06
-4.68098e-07
-9.17658e-07
-1.25746e-06
1.18939e-06
5.77138e-07
-6.30208e-07
-3.01895e-06
-9.74776e-07
2.80143e-07
2.00393e-06
2.21534e-07
8.78913e-06
4.73696e-06
2.27998e-06
)
;
        value           nonuniform List<scalar> 
66
(
108.587
108.594
108.781
108.591
92.4477
91.9951
92.0074
91.6876
103.204
101.945
101.982
101.801
71.9655
73.3842
74.0377
93.3232
94.0073
94.746
55.329
55.3756
55.7804
87.1902
87.3086
87.8314
37.1292
36.9751
37.5481
80.7441
80.7325
81.1722
108.587
109.205
109.525
110.057
92.4477
92.4642
92.3329
92.7959
103.204
102.496
102.418
103.055
71.9655
73.7286
74.2464
74.8833
93.3232
94.5288
94.9033
95.7888
55.329
55.6887
55.922
56.6523
87.1902
87.8265
87.79
88.5566
37.1292
37.4396
37.3638
38.4137
80.7441
81.2225
80.9642
81.7606
)
;
    }
    procBoundary0to1
    {
        type            processor;
        value           nonuniform List<scalar> 
12
(
18.7311
18.192
18.9287
18.9727
18.5462
19.2363
18.7151
18.1977
19.6793
20.152
19.9704
22.128
)
;
    }
    procBoundary0to2
    {
        type            processor;
        value           nonuniform List<scalar> 
44
(
73.9839
94.6356
55.611
87.5932
36.9076
80.8759
108.766
91.7825
73.9839
102.044
73.9839
94.6356
55.8145
88.2023
36.9201
81.2806
109.644
92.3046
102.883
74.462
55.8145
95.8216
55.8145
88.2023
37.5057
81.2702
110.479
92.7993
103.561
75.1148
96.2403
57.0977
37.5057
88.8197
37.5057
81.2702
111.126
93.3145
103.987
75.2578
96.5383
57.0523
89.0838
38.778
)
;
    }
    procBoundary0to4
    {
        type            processor;
        value           nonuniform List<scalar> 
36
(
110.189
92.7965
103.041
74.9167
95.6159
56.682
88.2774
38.1443
81.1735
110.778
93.0459
103.597
75.104
96.0213
56.7312
88.587
38.2569
81.4792
111.355
93.4715
104.079
75.5466
96.401
57.2905
88.8771
38.9914
81.5075
111.407
93.6058
104.219
75.7042
96.612
57.5158
88.9188
39.2181
81.3625
)
;
    }
    procBoundary0to6
    {
        type            processor;
        value           uniform 81.7783;
    }
    procBoundary0to7
    {
        type            processor;
        value           uniform 20.4958;
    }
}


// ************************************************************************* //
