/*--------------------------------*- C++ -*----------------------------------*\
  =========                 |
  \\      /  F ield         | OpenFOAM: The Open Source CFD Toolbox
   \\    /   O peration     | Website:  https://openfoam.org
    \\  /    A nd           | Version:  4.x
     \\/     M anipulation  |
\*---------------------------------------------------------------------------*/
FoamFile
{
    version     2.0;
    format      ascii;
    class       vectorField;
    location    0;
    object      v;
}
// * * * * * * * * * * * * * * * * * * * * * * * * * * * * * * * * * * * * * //

325
(
( 7.52915e-09 -3.13719e-10 -4.82808e-10 )  
( 8.87079e-09 -6.94739e-09 2.44531e-09 )  
( -6.88883e-08 -2.22637e-09 -5.83867e-09 )  
( 5.13663e-09 -5.88636e-09 2.70911e-09 )  
( -1.01163e-08 -9.88463e-09 4.15488e-09 )  
( 4.06495e-09 -6.56019e-09 8.75864e-10 )  
( 5.4798e-09 -1.10045e-09 7.84887e-10 )  
( 4.70639e-09 -1.74223e-09 -5.77754e-10 )  
( -7.4542e-08 -1.42889e-09 -1.08656e-08 )  
( 6.14529e-09 -7.73937e-10 2.37815e-10 )  
( -7.95788e-08 3.87314e-09 -8.87382e-09 )  
( -5.05044e-08 -2.69271e-09 -3.13723e-09 )  
( -5.01365e-08 -7.63071e-09 -5.43269e-10 )  
( -6.04217e-08 9.66572e-10 -2.42179e-09 )  
( -7.56772e-08 1.8521e-08 1.65294e-08 )  
( -6.15092e-09 -8.34021e-09 3.5178e-09 )  
( 5.81612e-09 -4.58141e-09 1.58114e-09 )  
( 7.2868e-09 -6.66469e-09 -3.72179e-10 )  
( 4.31595e-09 -6.27791e-09 3.22602e-10 )  
( -4.35493e-08 -1.02951e-08 6.99388e-10 )  
( 2.64549e-09 -7.82311e-09 1.87229e-09 )  
( -4.59845e-08 -7.94994e-09 -1.55621e-09 )  
( -7.583e-08 -8.63835e-09 -4.61435e-09 )  
( -1.84487e-08 -1.03914e-08 2.95711e-09 )  
( 6.91994e-09 -3.16023e-09 6.94852e-10 )  
( -6.9814e-08 -1.19307e-08 -3.69295e-09 )  
( 6.93112e-09 -3.96726e-09 6.5326e-10 )  
( -5.42658e-08 -1.111e-09 -2.22758e-09 )  
( -5.00857e-09 -4.88427e-09 4.96148e-09 )  
( -2.71401e-08 -3.66311e-09 -5.46391e-10 )  
( -7.48366e-09 -4.72957e-09 6.553e-09 )  
( 1.28146e-09 -3.21053e-09 4.60946e-09 )  
( -1.42426e-08 -2.42732e-09 -4.61563e-10 )  
( 7.7318e-09 -5.75771e-09 1.13376e-09 )  
( 9.59096e-09 -6.42251e-09 2.31302e-09 )  
( 7.568e-09 2.89159e-10 -3.24769e-11 )  
( 1.08635e-08 -6.15133e-09 1.11018e-09 )  
( -2.04933e-08 -1.50395e-08 -2.70129e-09 )  
( -1.56824e-08 -1.39249e-08 2.50912e-09 )  
( -3.11024e-08 -9.25013e-09 3.51541e-09 )  
( 8.30462e-09 -2.70935e-09 -7.26118e-12 )  
( 7.81659e-09 -4.09169e-09 1.2816e-09 )  
( 9.19402e-09 -5.9234e-09 6.85482e-11 )  
( -2.87919e-09 -5.97221e-09 4.02383e-09 )  
( 1.48943e-09 -2.0097e-09 -1.06523e-09 )  
( -3.1852e-08 -1.17556e-08 1.5188e-09 )  
( -2.86834e-08 -1.77272e-08 -9.88773e-10 )  
( 6.18152e-09 -7.21359e-09 -5.5357e-10 )  
( -4.11044e-09 -7.25536e-09 -2.43959e-09 )  
( 4.93349e-09 -3.76267e-09 5.47125e-09 )  
( 1.1048e-08 -4.66846e-09 -9.66333e-11 )  
( -1.12485e-08 -5.94534e-09 6.59177e-09 )  
( -3.6486e-08 -9.44742e-09 2.26685e-10 )  
( -5.7438e-08 -4.2375e-09 -1.19637e-08 )  
( -1.23869e-08 -3.62252e-09 1.50707e-09 )  
( 3.55382e-09 -8.35288e-09 -7.41136e-10 )  
( -4.468e-08 -1.00793e-08 1.44747e-09 )  
( 3.40867e-09 -9.79722e-11 -7.07595e-11 )  
( -6.84444e-08 -7.65805e-09 -7.78739e-09 )  
( 3.17592e-09 -6.44409e-10 2.96536e-10 )  
( 2.37866e-09 -3.73534e-09 3.84058e-09 )  
( 4.30036e-09 -1.74641e-09 -4.21992e-10 )  
( 6.57278e-09 -1.24585e-09 1.84287e-09 )  
( -5.09871e-08 -1.38952e-08 4.94182e-10 )  
( 7.91952e-09 -4.87678e-09 1.70226e-11 )  
( -3.19433e-08 -2.59282e-11 -1.36461e-09 )  
( -5.89883e-08 -1.02795e-09 -5.69644e-09 )  
( -1.71298e-08 -1.43656e-08 -3.86208e-09 )  
( -5.03386e-08 3.71153e-10 -3.38555e-09 )  
( 8.98826e-09 -2.28101e-09 3.17491e-09 )  
( 9.821e-09 -5.95225e-09 -3.96216e-10 )  
( -6.47829e-09 -5.37334e-09 2.55106e-09 )  
( -8.90849e-09 -4.32614e-09 -8.50458e-10 )  
( -2.60462e-09 -5.76306e-09 4.5151e-09 )  
( 5.32511e-09 -1.63426e-09 2.23843e-09 )  
( -4.87683e-08 -1.03734e-08 6.91864e-10 )  
( -2.00582e-08 3.94717e-09 -2.61371e-09 )  
( -7.31035e-08 -1.1499e-09 -4.80823e-09 )  
( 4.19026e-09 -2.69002e-09 2.42356e-09 )  
( -6.21145e-08 -3.01846e-09 -2.20435e-09 )  
( -3.6165e-09 -2.32861e-09 3.7187e-09 )  
( -6.05397e-08 -8.23699e-09 -3.97435e-09 )  
( -4.67446e-08 -1.0092e-08 1.52603e-09 )  
( -6.82712e-08 -6.02596e-09 -3.71356e-09 )  
( -4.99307e-08 -8.78944e-09 2.77838e-10 )  
( 8.10255e-09 -1.64282e-09 2.75336e-09 )  
( -4.05906e-08 1.59645e-10 -2.76371e-09 )  
( 2.50452e-09 -4.90719e-10 -5.68681e-10 )  
( -1.90485e-09 -3.99086e-09 5.63805e-09 )  
( -1.67716e-08 4.36972e-09 1.51703e-09 )  
( 5.88322e-09 -6.42699e-10 -6.90649e-10 )  
( 8.31704e-09 -4.79428e-09 1.87184e-09 )  
( -8.99511e-09 -8.88276e-09 -7.58912e-09 )  
( 4.35148e-09 -9.84044e-10 -2.0956e-10 )  
( 5.24601e-09 -9.20688e-10 -1.46418e-10 )  
( 1.38561e-09 -1.09593e-08 2.41829e-09 )  
( 6.75298e-09 -4.53608e-09 -1.37782e-10 )  
( 7.3407e-09 -1.47615e-09 9.58225e-10 )  
( -5.92738e-08 -1.24869e-08 3.22789e-09 )  
( -1.24597e-09 -4.34138e-09 3.05387e-09 )  
( -2.52254e-09 -4.11711e-09 3.70285e-09 )  
( -5.6486e-09 -3.31202e-09 1.48062e-11 )  
( -3.16238e-08 -5.66086e-09 2.89357e-09 )  
( 7.36861e-09 -1.70652e-09 1.06086e-09 )  
( 2.35672e-09 -1.61799e-09 2.29915e-09 )  
( 7.72773e-09 -2.0439e-09 7.72234e-10 )  
( -1.37416e-08 -3.95248e-09 3.261e-09 )  
( -1.35853e-09 -1.28686e-09 9.03782e-09 )  
( -4.62306e-08 -2.74947e-09 -5.12337e-09 )  
( 1.013e-08 -3.19718e-09 3.04708e-10 )  
( 2.14303e-09 -2.6875e-09 3.68146e-09 )  
( 8.82492e-09 -8.486e-10 7.34833e-10 )  
( -1.10246e-08 -2.34267e-09 -3.29738e-10 )  
( -3.28395e-08 -5.64715e-09 1.22944e-09 )  
( -3.28109e-08 5.46241e-09 -1.28674e-09 )  
( 6.03759e-09 -2.61819e-10 4.93999e-09 )  
( 1.00823e-08 -3.21678e-09 3.83177e-09 )  
( -8.44965e-09 -4.23991e-09 1.48602e-09 )  
( 4.28053e-09 8.36793e-10 9.98049e-10 )  
( -3.10618e-08 -1.8954e-08 8.9418e-09 )  
( 8.6511e-09 -1.26424e-09 1.50088e-09 )  
( -1.09446e-08 -4.80531e-09 8.68963e-10 )  
( -2.33124e-08 -1.71648e-09 -1.07856e-09 )  
( -1.48785e-09 -1.57607e-09 1.89161e-09 )  
( 5.53489e-09 -9.10291e-10 2.14569e-09 )  
( -3.92567e-08 -2.03225e-09 -3.6519e-09 )  
( -3.67734e-08 -5.82232e-09 -2.4284e-09 )  
( -2.65414e-08 -9.90454e-09 -3.3386e-09 )  
( 4.20272e-09 2.51781e-10 1.18594e-09 )  
( 7.54486e-09 -7.34305e-10 2.00817e-09 )  
( 8.52701e-09 -1.39124e-09 -1.35251e-09 )  
( -3.61926e-08 -1.03012e-08 -2.12243e-09 )  
( -3.98336e-09 -4.68152e-09 3.83399e-09 )  
( 6.9187e-09 -2.36298e-10 1.31191e-09 )  
( -7.48458e-09 -7.81364e-09 4.45939e-09 )  
( -2.96494e-08 -7.16991e-09 3.09369e-10 )  
( 1.12632e-08 -5.98974e-09 -4.12769e-10 )  
( -9.6597e-09 9.22131e-10 1.11835e-10 )  
( -6.18151e-08 5.60602e-09 -2.36042e-08 )  
( 1.20454e-09 -1.36655e-09 5.64042e-09 )  
( 7.63048e-09 1.55326e-10 1.85851e-09 )  
( -3.33218e-08 -8.82502e-09 -4.04522e-09 )  
( 3.75302e-09 -7.28596e-10 3.73677e-09 )  
( 9.02316e-09 -4.98461e-09 4.39458e-09 )  
( -7.46526e-10 -2.43426e-09 4.40332e-09 )  
( -2.50969e-09 -3.78207e-09 4.82214e-09 )  
( -2.3915e-08 -6.41621e-09 -2.44015e-09 )  
( 5.01392e-09 -9.91971e-11 4.26114e-10 )  
( 6.87088e-09 -9.28634e-10 -5.40929e-10 )  
( 7.62177e-09 -9.0709e-10 2.65147e-09 )  
( 5.73704e-09 -1.85345e-09 7.70966e-10 )  
( -2.79755e-09 -7.03175e-09 1.73186e-09 )  
( -2.92091e-08 -4.72237e-10 3.06459e-10 )  
( -1.90289e-08 -5.77123e-09 -2.04623e-09 )  
( -1.55761e-10 -3.65314e-09 3.56868e-10 )  
( 8.19031e-09 -3.43578e-09 1.79902e-09 )  
( 2.04032e-09 -5.86434e-10 4.75627e-09 )  
( 4.05336e-09 -5.4971e-10 1.12015e-09 )  
( 4.5914e-09 -2.34815e-09 3.65859e-09 )  
( -4.03129e-08 -7.70301e-09 -1.8186e-09 )  
( 1.00897e-09 -1.9695e-09 2.94476e-09 )  
( 9.26096e-09 -4.35498e-09 5.28382e-10 )  
( 1.04059e-08 -2.7828e-09 3.6448e-11 )  
( -1.30521e-08 4.4398e-10 1.53545e-09 )  
( 1.02783e-08 -1.78457e-09 2.02787e-09 )  
( -3.01798e-08 -9.14828e-09 5.01119e-10 )  
( 5.54607e-09 -5.58409e-10 -2.9793e-10 )  
( -4.73078e-08 -5.8086e-09 -7.96331e-09 )  
( -1.63346e-08 -3.0068e-09 1.00462e-09 )  
( -1.4157e-08 -3.47185e-09 5.88334e-09 )  
( -4.27754e-08 -5.04722e-09 8.26443e-11 )  
( 4.36569e-11 -1.7453e-09 4.17698e-09 )  
( -2.29408e-09 -4.8546e-09 5.24596e-09 )  
( 5.63699e-09 -4.93548e-09 2.15102e-09 )  
( -3.42162e-09 -3.35685e-09 4.03924e-09 )  
( 5.74923e-09 -1.42068e-10 3.5538e-11 )  
( -5.73567e-08 -4.3099e-10 -5.45331e-09 )  
( 5.905e-09 -1.21958e-09 1.49365e-09 )  
( -6.64609e-09 -1.37829e-09 1.33074e-09 )  
( -3.40839e-08 -2.06214e-09 -2.13696e-09 )  
( -9.43585e-09 -1.09369e-08 8.80669e-10 )  
( -3.21822e-08 -5.2715e-09 1.86963e-10 )  
( -1.96525e-08 -7.06203e-10 3.15265e-09 )  
( -2.03051e-08 -1.01152e-08 1.67632e-09 )  
( 9.16757e-09 -4.33925e-09 5.36324e-09 )  
( 5.42847e-09 6.64733e-10 1.80538e-09 )  
( 6.96349e-09 -5.2492e-10 3.93155e-09 )  
( -1.74205e-08 -8.0174e-09 1.56474e-09 )  
( 9.12519e-09 -4.31374e-09 3.31129e-10 )  
( 8.18631e-09 -2.11692e-09 1.14416e-09 )  
( 3.15069e-09 -1.69663e-10 -3.46564e-11 )  
( 4.52201e-09 -2.29706e-10 1.2963e-09 )  
( 2.74634e-09 -8.0533e-09 -5.78601e-10 )  
( -6.3048e-08 2.91723e-09 -2.09878e-08 )  
( -3.55609e-08 -3.75579e-09 -6.42395e-09 )  
( -2.31261e-09 -2.64806e-09 4.73653e-09 )  
( 1.77367e-09 -1.80139e-09 9.28938e-10 )  
( -8.62724e-09 -1.33351e-09 6.77846e-09 )  
( -5.9292e-08 -5.55317e-09 -1.97642e-09 )  
( 6.24487e-09 -1.25737e-09 -4.49464e-11 )  
( 7.77576e-09 -1.94559e-09 1.91549e-09 )  
( -7.10483e-10 -1.98094e-09 4.29781e-09 )  
( -4.56593e-08 -6.0478e-09 1.13309e-09 )  
( 3.39324e-09 -5.58003e-10 8.42934e-10 )  
( -3.12244e-08 -1.21201e-08 1.43386e-09 )  
( -1.4484e-08 1.01545e-09 2.26473e-10 )  
( 8.0067e-09 -2.82296e-09 1.76235e-09 )  
( 8.38093e-09 -2.98738e-09 1.71913e-09 )  
( -1.87696e-08 -5.82971e-09 -1.47753e-09 )  
( -2.45516e-08 -1.76452e-09 -4.44808e-09 )  
( 6.76375e-09 -5.02562e-10 1.08781e-09 )  
( -1.1215e-08 -3.2271e-09 5.45041e-10 )  
( -4.27257e-08 -1.19067e-08 -2.93034e-09 )  
( -2.35436e-08 1.12566e-09 1.14187e-09 )  
( 7.5097e-09 -1.86517e-09 -4.40702e-10 )  
( -4.2529e-08 -1.13533e-08 -7.98652e-09 )  
( 3.43313e-09 5.66298e-11 -2.89752e-11 )  
( 6.75569e-09 -3.33686e-09 1.82912e-09 )  
( -2.50846e-08 -7.7079e-09 2.80691e-10 )  
( 6.2908e-09 -1.91378e-09 3.01392e-09 )  
( 7.13233e-09 -1.77739e-09 6.57699e-10 )  
( -6.08652e-09 -5.55077e-09 5.27474e-09 )  
( -3.77142e-09 -3.69959e-10 1.09771e-09 )  
( -1.73595e-08 -7.14427e-10 5.44875e-10 )  
( 6.70319e-09 -1.34699e-09 1.38056e-09 )  
( -2.04621e-08 5.56171e-10 2.10265e-10 )  
( 8.32177e-09 -1.95885e-09 1.20333e-09 )  
( -1.08208e-08 -1.03185e-08 9.51694e-11 )  
( 1.05561e-08 -3.96022e-09 6.77183e-10 )  
( -1.75574e-08 -6.02014e-09 8.91848e-09 )  
( 7.90965e-10 -4.34339e-09 3.48131e-09 )  
( 1.10678e-08 4.36868e-09 -3.04384e-10 )  
( 1.45043e-09 -4.51103e-10 4.2996e-09 )  
( -1.43724e-09 -1.67951e-09 9.53017e-10 )  
( -1.76174e-08 -1.20942e-08 -1.79397e-09 )  
( -3.92796e-08 -6.47342e-09 9.59809e-10 )  
( -2.32094e-08 -5.4079e-09 9.17991e-10 )  
( 7.57947e-09 -1.37082e-09 -5.94187e-10 )  
( -9.19187e-09 -4.9346e-10 1.26609e-09 )  
( -2.28557e-08 -4.44046e-09 -3.17137e-09 )  
( 1.86424e-09 -1.57727e-09 4.99713e-09 )  
( 5.3545e-09 -6.50036e-10 -2.54749e-09 )  
( -3.1079e-08 -7.25724e-09 -2.06617e-09 )  
( -5.47339e-09 -1.82757e-09 3.43211e-09 )  
( 5.9182e-09 -1.8626e-09 1.02349e-09 )  
( 7.39521e-09 -1.86493e-09 2.42505e-09 )  
( 7.59599e-09 -4.02241e-09 -4.39219e-10 )  
( -1.11239e-08 -5.96092e-09 1.03067e-09 )  
( 6.25114e-09 -1.06286e-09 3.60817e-09 )  
( -6.5671e-09 -2.43621e-09 2.60647e-09 )  
( 9.64723e-09 -2.32357e-09 -1.32435e-09 )  
( 3.42614e-09 1.94097e-10 -1.38324e-10 )  
( 3.82868e-09 3.89711e-10 -2.67435e-09 )  
( -8.58537e-09 -1.89152e-10 2.84213e-09 )  
( -3.50459e-08 -6.24763e-09 -5.70909e-09 )  
( -3.79439e-09 5.47468e-10 5.11212e-09 )  
( 8.41772e-10 -2.56346e-09 2.48163e-09 )  
( -4.34254e-09 8.72606e-11 2.06754e-09 )  
( 1.02917e-08 -1.44018e-09 1.83729e-09 )  
( 7.38262e-09 -2.11868e-09 4.02276e-09 )  
( -2.75665e-09 -2.34744e-09 1.87624e-09 )  
( -5.34625e-08 -9.04257e-09 -7.85041e-09 )  
( -2.6288e-09 -2.32276e-10 1.71613e-09 )  
( 4.288e-09 -4.22035e-10 2.80799e-10 )  
( -1.04462e-08 6.19147e-10 -7.82166e-10 )  
( 5.78126e-09 -1.30499e-09 8.65658e-10 )  
( -1.98069e-08 -6.70793e-10 -3.7041e-09 )  
( 3.13284e-09 -2.99806e-09 1.34749e-09 )  
( 5.4253e-09 -3.16893e-10 -4.62928e-11 )  
( 4.63492e-09 -1.35513e-09 1.25224e-09 )  
( -3.80565e-08 -4.34954e-09 -9.17849e-09 )  
( -7.95918e-09 5.50276e-10 -4.26623e-10 )  
( 3.88266e-09 -1.31877e-09 1.00862e-09 )  
( 7.50138e-09 -1.57652e-09 -1.90487e-09 )  
( -7.89474e-09 -1.30579e-09 -8.85268e-10 )  
( -8.87704e-10 -6.52278e-10 3.68201e-09 )  
( -1.51722e-08 1.0926e-10 2.32746e-10 )  
( -4.02284e-09 8.25864e-10 2.35678e-09 )  
( -1.01485e-10 -9.77584e-10 6.28479e-10 )  
( 7.5875e-09 -1.67839e-09 2.10834e-09 )  
( 2.87574e-09 -3.70661e-09 2.5984e-09 )  
( 6.45432e-09 2.61308e-10 6.58878e-11 )  
( -1.30201e-08 -3.63354e-09 2.57228e-09 )  
( -7.79011e-10 1.22149e-09 2.90714e-09 )  
( -1.40591e-08 -9.94836e-10 -1.12866e-10 )  
( 7.37562e-09 -2.50358e-09 1.50294e-09 )  
( 2.10211e-09 -2.4403e-09 1.61708e-09 )  
( 7.35952e-09 1.02025e-09 1.83621e-09 )  
( 3.14809e-09 -1.55427e-10 2.54956e-11 )  
( -2.99392e-08 -4.24968e-09 -4.03148e-09 )  
( -3.93354e-09 -6.32968e-10 6.87125e-10 )  
( 4.83058e-09 -6.40812e-10 -1.27243e-09 )  
( -1.77297e-09 5.06594e-10 3.35601e-09 )  
( -6.74913e-09 -2.41835e-09 1.09801e-09 )  
( -3.14509e-09 4.35709e-10 6.82724e-10 )  
( -1.5528e-08 -4.15175e-09 9.81146e-10 )  
( -3.87353e-09 -1.47258e-09 2.42307e-09 )  
( -8.03686e-09 -2.38294e-09 3.50431e-09 )  
( -2.91282e-09 2.03371e-09 1.85189e-09 )  
( 5.17128e-09 -1.63053e-09 1.02822e-09 )  
( -6.79537e-10 -1.28188e-09 1.48503e-09 )  
( 4.79442e-09 -5.66829e-10 1.89647e-09 )  
( 5.73295e-09 -1.58399e-09 -1.99239e-10 )  
( 2.25041e-09 -1.32293e-09 1.64317e-09 )  
( 9.82427e-10 -5.58214e-10 2.31598e-09 )  
( -8.61834e-09 -4.8206e-10 1.94693e-09 )  
( -4.60894e-09 -1.69996e-09 9.87553e-10 )  
( 5.09388e-09 -1.0936e-09 8.70856e-10 )  
( -2.94602e-09 -9.12164e-11 1.38084e-09 )  
( 4.33991e-09 5.25871e-10 -3.23396e-10 )  
( 2.75174e-09 2.94746e-11 5.13125e-10 )  
( 3.04035e-09 -1.51182e-09 2.37833e-09 )  
( -1.09001e-09 -1.39923e-09 9.67879e-10 )  
( 2.68947e-09 -9.76599e-10 6.84659e-10 )  
( 4.96394e-09 -2.15756e-09 2.83887e-10 )  
( -1.93369e-08 -5.21986e-09 1.28213e-09 )  
( 3.89523e-09 -1.79865e-09 1.74151e-09 )  
( -3.87194e-09 -1.18239e-09 9.32072e-10 )  
( -1.40643e-08 -3.02803e-09 -1.51209e-09 )  
( 6.60144e-09 -1.31425e-09 -3.07465e-10 )  
( 1.76823e-09 -3.45047e-10 2.56692e-10 )  
( -1.18965e-08 -2.45127e-09 -1.17766e-09 )  
( -3.1003e-08 7.17693e-13 3.97352e-11 )  
( -1.35162e-08 -3.31144e-09 1.65139e-09 )  
( -4.18622e-09 -4.94972e-10 2.71907e-09 )  
)
