/*--------------------------------*- C++ -*----------------------------------*\
| =========                 |                                                 |
| \\      /  F ield         | OpenFOAM: The Open Source CFD Toolbox           |
|  \\    /   O peration     | Version:  4.x                                   |
|   \\  /    A nd           | Web:      www.OpenFOAM.org                      |
|    \\/     M anipulation  |                                                 |
\*---------------------------------------------------------------------------*/
FoamFile
{
    version     2.0;
    format      ascii;
    class       volScalarField;
    location    "57.5";
    object      magGField;
}
// * * * * * * * * * * * * * * * * * * * * * * * * * * * * * * * * * * * * * //

dimensions      [1 -2 -1 0 0 0 0];

internalField   nonuniform List<scalar> 
108
(
96.2064
40.9942
97.568
43.7372
99.3842
45.6123
100.985
46.0697
102.774
94.5448
33.6685
92.4434
26.69
91.1483
21.9472
91.4018
17.5325
91.8602
94.2302
29.7955
89.7138
19.1684
87.7671
11.619
87.4604
3.90385
87.6327
94.5303
30.3516
89.5931
19.3721
87.0601
9.82285
85.5567
2.54263
85.1469
96.0725
41.2934
97.6731
43.4215
98.7955
45.1062
100.262
44.2463
100.112
95.2099
36.603
94.4051
33.4758
93.7049
30.1457
93.294
25.5698
93.2902
94.8617
32.2728
90.9916
23.4359
88.6934
15.9765
88.0596
9.04391
88.122
93.6548
31.5433
90.2798
22.1554
88.0915
14.8056
87.7713
9.51994
88.9485
96.4762
45.7519
101.662
53.8503
104.985
58.2337
107.375
61.7958
111.285
95.7401
41.766
97.7868
46.1367
100.175
48.9411
102.294
51.1536
105.122
94.6021
39.0065
94.7795
39.8379
95.977
41.2021
97.7038
42.8091
99.7437
93.4334
38.2513
94.0459
37.9484
94.9848
39.4895
97.7043
42.9552
100.614
)
;

boundaryField
{
    inlet
    {
        type            calculated;
        value           uniform 67;
    }
    outlet
    {
        type            calculated;
        value           nonuniform 0();
    }
    wall
    {
        type            calculated;
        value           uniform 0;
    }
    procBoundary4to0
    {
        type            processor;
        value           nonuniform List<scalar> 
36
(
97.2122
40.4079
98.9374
43.5194
100.334
44.5251
101.283
43.4294
101.169
96.1647
32.9171
93.9459
26.6127
92.2775
20.1161
90.8727
12.6111
90.5714
95.3605
28.7322
90.3399
15.3155
86.4926
4.15345
83.8469
3.50872e-05
81.108
95.0752
30.7701
91.1339
20.8642
89.9041
14.9176
89.4713
11.2479
89.3159
)
;
    }
    procBoundary4to5
    {
        type            processor;
        value           nonuniform List<scalar> 
12
(
45.2441
11.2263
3.69763e-05
3.47784e-05
42.0661
21.8578
2.96128
6.67687
66.2638
52.9604
43.3566
43.9312
)
;
    }
    procBoundary4to6
    {
        type            processor;
        value           nonuniform List<scalar> 
27
(
92.1209
26.144
86.9709
11.3879
83.1549
1.53362
81.4524
3.20399e-05
80.5306
93.0163
31.0157
89.9106
21.9085
88.0858
14.1586
86.8569
7.30549
86.2542
94.6553
40.0627
94.9061
40.0642
94.9885
39.659
95.0179
37.2307
96.2308
)
;
    }
}


// ************************************************************************* //
