/*--------------------------------*- C++ -*----------------------------------*\
| =========                 |                                                 |
| \\      /  F ield         | OpenFOAM: The Open Source CFD Toolbox           |
|  \\    /   O peration     | Version:  4.x                                   |
|   \\  /    A nd           | Web:      www.OpenFOAM.org                      |
|    \\/     M anipulation  |                                                 |
\*---------------------------------------------------------------------------*/
FoamFile
{
    version     2.0;
    format      ascii;
    class       volScalarField;
    location    "57.5";
    object      p;
}
// * * * * * * * * * * * * * * * * * * * * * * * * * * * * * * * * * * * * * //

dimensions      [1 -1 -2 0 0 0 0];

internalField   nonuniform List<scalar> 
108
(
-1767.43
-1784.82
-1774.56
-1802.69
-1781.97
-1820.91
-1789.32
-1839.45
-1796.44
-1766.87
-1784.6
-1774.05
-1802.53
-1781.6
-1820.9
-1789.03
-1839.39
-1796.15
-1766.23
-1784.12
-1773.49
-1802.02
-1781.15
-1820.25
-1788.69
-1838.54
-1796.1
-1766.29
-1784.13
-1773.48
-1802
-1781.05
-1820.23
-1788.68
-1838.62
-1796.13
-3645.21
-3662.55
-3652.24
-3680.29
-3659.61
-3698.52
-3666.84
-3716.78
-3673.99
-3644.78
-3662.42
-3651.94
-3680.23
-3659.36
-3698.47
-3666.68
-3716.91
-3673.93
-3644.18
-3661.9
-3651.32
-3679.87
-3658.84
-3698.18
-3666.36
-3716.5
-3673.68
-3644.16
-3662.12
-3651.44
-3679.94
-3659.08
-3698.36
-3666.66
-3716.98
-3673.97
-5523.44
-5540.72
-5530.54
-5558.24
-5537.82
-5576.41
-5545.21
-5594.93
-5552.43
-5523.03
-5540.56
-5530.28
-5558.26
-5537.67
-5576.49
-5545.11
-5594.97
-5552.27
-5522.49
-5540.16
-5529.79
-5558
-5537.31
-5576.18
-5544.81
-5594.55
-5552.06
-5522.4
-5540.32
-5529.77
-5558.06
-5537.41
-5576.48
-5545.01
-5594.84
-5552.15
)
;

boundaryField
{
    inlet
    {
        type            calculated;
        value           nonuniform List<scalar> 
12
(
-1767.43
-1766.87
-1766.23
-1766.29
-3645.21
-3644.78
-3644.18
-3644.16
-5523.44
-5523.03
-5522.49
-5522.4
)
;
    }
    outlet
    {
        type            calculated;
        value           nonuniform 0();
    }
    wall
    {
        type            calculated;
        value           nonuniform List<scalar> 
63
(
-6462.4
-6461.98
-6461.44
-6461.36
-6479.68
-6479.52
-6479.12
-6479.28
-6469.5
-6469.24
-6468.75
-6468.73
-6497.2
-6497.22
-6496.96
-6497.01
-6476.78
-6476.63
-6476.27
-6476.36
-6515.37
-6515.45
-6515.14
-6515.43
-6484.17
-6484.06
-6483.77
-6483.97
-6533.88
-6533.93
-6533.51
-6533.8
-6491.39
-6491.23
-6491.01
-6491.11
-1767.43
-3645.21
-5523.44
-1784.82
-3662.55
-5540.72
-1774.56
-3652.24
-5530.54
-1802.69
-3680.29
-5558.24
-1781.97
-3659.61
-5537.82
-1820.91
-3698.52
-5576.41
-1789.32
-3666.84
-5545.21
-1839.45
-3716.78
-5594.93
-1796.44
-3673.99
-5552.43
)
;
    }
    procBoundary4to0
    {
        type            processor;
        value           nonuniform List<scalar> 
36
(
110.332
93.0721
103.345
75.1888
96.1006
56.971
88.8615
38.7085
82.0435
110.808
93.2526
103.743
75.2514
96.4008
57.0407
89.1443
38.5454
82.0984
111.41
93.7759
104.455
75.8628
97.0113
57.7815
89.2803
39.8911
81.9729
111.221
93.5032
104.099
75.411
96.5181
57.1506
88.984
38.6117
81.9236
)
;
    }
    procBoundary4to5
    {
        type            processor;
        value           nonuniform List<scalar> 
12
(
-1858.43
-1858.31
-1856.82
-1856.54
-3735.58
-3735.81
-3734.91
-3735.4
-5613.79
-5613.87
-5613.03
-5613.39
)
;
    }
    procBoundary4to6
    {
        type            processor;
        value           nonuniform List<scalar> 
27
(
-1765.84
-1784.09
-1773.13
-1801.58
-1780.84
-1819.57
-1788.77
-1837.33
-1796.07
-3644
-3662.06
-3651.31
-3679.87
-3658.83
-3697.93
-3666.34
-3716.19
-3673.64
-5522.38
-5540.13
-5529.63
-5557.83
-5537.15
-5575.89
-5544.61
-5594.25
-5551.8
)
;
    }
}


// ************************************************************************* //
