/*--------------------------------*- C++ -*----------------------------------*\
| =========                 |                                                 |
| \\      /  F ield         | OpenFOAM: The Open Source CFD Toolbox           |
|  \\    /   O peration     | Version:  4.x                                   |
|   \\  /    A nd           | Web:      www.OpenFOAM.org                      |
|    \\/     M anipulation  |                                                 |
\*---------------------------------------------------------------------------*/
FoamFile
{
    version     2.0;
    format      ascii;
    class       volVectorField;
    location    "57.5";
    object      UsNext;
}
// * * * * * * * * * * * * * * * * * * * * * * * * * * * * * * * * * * * * * //

dimensions      [0 1 -1 0 0 0 0];

internalField   nonuniform List<vector> 
108
(
(2.15493e-11 -3.54968e-12 4.25251e-11)
(-6.26678e-12 1.13206e-11 -6.66009e-12)
(1.26778e-10 -9.73808e-12 -8.72608e-11)
(1.38051e-10 -3.32049e-11 -1.63513e-10)
(2.08436e-10 -7.27405e-11 -2.54939e-10)
(2.24138e-10 -4.42466e-11 -2.51024e-10)
(4.12005e-10 -6.40959e-11 -1.97923e-10)
(1.87898e-10 5.52165e-11 -7.8362e-11)
(7.1846e-10 -1.39359e-10 1.9245e-10)
(3.43766e-11 -2.0852e-12 -1.4412e-11)
(2.86136e-11 1.06619e-11 -6.83838e-11)
(1.49247e-10 -1.23441e-10 -1.78696e-10)
(1.23162e-10 -1.39192e-10 -2.94045e-10)
(2.11897e-10 -1.98751e-10 -3.61167e-10)
(2.35771e-10 -1.66671e-10 -2.40632e-10)
(5.90888e-10 -1.66203e-10 -1.94149e-10)
(7.37726e-10 -2.75815e-10 3.85291e-11)
(1.47494e-09 -8.00769e-10 3.16051e-10)
(2.98615e-11 1.2241e-11 -7.36647e-11)
(6.55164e-11 2.21714e-11 -1.88972e-10)
(1.36428e-10 -1.00012e-10 -2.86187e-10)
(1.2108e-10 -1.59047e-10 -3.95196e-10)
(2.20565e-10 -2.16201e-10 -4.23808e-10)
(2.48682e-10 -2.09726e-10 -3.08814e-10)
(4.64504e-10 -2.31742e-10 -2.01479e-10)
(7.47394e-10 -3.17317e-10 3.86875e-12)
(1.28133e-09 -5.55702e-10 3.91162e-10)
(3.57833e-11 -1.37166e-11 -1.19382e-10)
(1.25675e-11 -4.08782e-11 -1.89737e-10)
(4.9857e-11 -1.37211e-10 -2.82959e-10)
(5.01745e-11 -1.99086e-10 -2.82624e-10)
(2.38418e-10 -2.3671e-10 -3.44466e-10)
(3.25806e-10 -2.30544e-10 -3.11445e-10)
(5.76849e-10 -1.85805e-10 -8.95273e-11)
(6.76755e-10 -2.41919e-10 1.44284e-10)
(8.49906e-10 -2.55281e-10 5.4814e-10)
(-5.65206e-13 1.76517e-11 1.35525e-13)
(-2.24249e-11 3.20798e-11 -2.7193e-11)
(5.30401e-11 -3.82564e-12 -5.70758e-11)
(-2.39678e-12 1.19017e-11 -7.34924e-11)
(8.05964e-11 -6.97089e-12 -1.08751e-10)
(3.49181e-11 -2.03495e-11 -1.46576e-10)
(2.28169e-10 2.05119e-11 -7.31087e-11)
(2.9131e-10 3.16688e-11 2.1369e-11)
(7.88488e-10 4.07268e-11 1.61721e-10)
(1.93961e-11 -1.10834e-11 -1.84807e-11)
(-2.45144e-12 1.29114e-11 -7.31734e-11)
(5.04436e-11 -2.19983e-11 -1.16263e-10)
(1.49484e-11 -6.23698e-11 -2.10157e-10)
(5.31957e-11 -8.84892e-11 -2.15972e-10)
(5.84863e-11 -1.20652e-10 -2.55772e-10)
(2.842e-10 -1.54652e-10 -1.7951e-10)
(3.37422e-10 -1.43342e-10 -1.09672e-11)
(1.13225e-09 -2.79783e-10 2.78053e-10)
(1.84652e-11 -2.501e-13 -6.45639e-11)
(-4.78339e-11 1.33856e-11 -1.25467e-10)
(7.9902e-12 -3.9175e-11 -1.54455e-10)
(-5.43783e-11 -1.22877e-10 -2.13048e-10)
(1.15795e-11 -1.54829e-10 -2.69935e-10)
(2.02385e-11 -1.32343e-10 -2.27101e-10)
(2.22395e-10 -1.47077e-10 -1.88333e-10)
(4.97766e-10 -2.11519e-10 -6.77328e-11)
(9.29946e-10 -6.93903e-10 1.96556e-10)
(4.90918e-12 -1.16202e-11 -8.09795e-11)
(-2.10905e-11 -5.29958e-11 -1.48258e-10)
(-1.40478e-11 -1.16961e-10 -2.08087e-10)
(-2.84397e-11 -1.24113e-10 -2.05402e-10)
(5.97537e-11 -1.62504e-10 -2.53997e-10)
(1.6455e-10 -1.46728e-10 -2.03685e-10)
(2.89957e-10 -1.05547e-10 -1.22511e-10)
(4.55867e-10 -9.4425e-11 -1.76635e-11)
(9.34969e-10 -4.84307e-10 4.61366e-10)
(-5.17013e-12 1.58972e-11 -1.72432e-12)
(-2.84213e-11 2.47385e-11 -2.57479e-11)
(7.41444e-15 1.76292e-11 -1.66827e-11)
(-7.05222e-11 2.32486e-11 -2.59303e-11)
(2.24741e-11 3.78654e-11 -3.84463e-11)
(1.76205e-11 2.43169e-11 -6.51948e-11)
(8.32378e-11 4.28865e-11 -7.13169e-11)
(1.07494e-10 4.10858e-12 3.55516e-12)
(3.91903e-10 -7.39128e-12 -4.67278e-11)
(3.85518e-12 -3.94193e-12 -1.10364e-11)
(-1.92933e-11 -2.13832e-13 -3.40421e-11)
(3.30341e-11 -3.57095e-11 -5.51895e-11)
(-2.94204e-11 -3.8972e-11 -4.85696e-11)
(1.15772e-11 -2.60816e-11 -9.02572e-11)
(-9.19615e-11 -1.56261e-10 -9.83168e-11)
(6.31123e-12 -1.30511e-10 -8.76462e-11)
(1.50787e-10 -5.62319e-11 2.69028e-11)
(4.33006e-10 -2.16187e-10 1.59386e-11)
(1.33446e-11 1.75625e-11 -3.95062e-11)
(-4.71667e-11 1.73844e-11 -4.93331e-11)
(-8.08814e-12 -4.13415e-11 -6.99442e-11)
(-4.73501e-11 -4.54331e-11 -8.16834e-11)
(-5.35594e-11 -5.8957e-11 -1.39562e-10)
(-1.18064e-10 -1.69241e-10 -1.39232e-10)
(5.36638e-11 -1.0236e-10 -1.06296e-10)
(1.40569e-10 -1.33742e-10 -8.38788e-11)
(4.59091e-10 -4.16346e-10 9.82593e-11)
(-2.93316e-13 6.94833e-12 -3.83005e-11)
(-3.6812e-11 -6.02513e-11 -5.31526e-11)
(-1.50819e-11 -9.17905e-11 -9.67145e-11)
(-2.49169e-11 -8.86672e-11 -1.07927e-10)
(2.25967e-11 -1.23282e-10 -1.30766e-10)
(-1.82979e-11 -1.63649e-10 -1.06202e-10)
(1.02092e-10 -1.81982e-10 -1.20033e-10)
(-3.83868e-10 -6.89724e-11 -1.12385e-10)
(3.41806e-10 -2.4211e-10 2.1577e-11)
)
;

boundaryField
{
    inlet
    {
        type            calculated;
        value           nonuniform List<vector> 
12
(
(2.15493e-11 -3.54968e-12 4.25251e-11)
(3.43766e-11 -2.0852e-12 -1.4412e-11)
(2.98615e-11 1.2241e-11 -7.36647e-11)
(3.57833e-11 -1.37166e-11 -1.19382e-10)
(-5.65206e-13 1.76517e-11 1.35525e-13)
(1.93961e-11 -1.10834e-11 -1.84807e-11)
(1.84652e-11 -2.501e-13 -6.45639e-11)
(4.90918e-12 -1.16202e-11 -8.09795e-11)
(-5.17013e-12 1.58972e-11 -1.72432e-12)
(3.85518e-12 -3.94193e-12 -1.10364e-11)
(1.33446e-11 1.75625e-11 -3.95062e-11)
(-2.93316e-13 6.94833e-12 -3.83005e-11)
)
;
    }
    outlet
    {
        type            calculated;
        value           nonuniform 0();
    }
    wall
    {
        type            calculated;
        value           nonuniform List<vector> 
63
(
(-5.17013e-12 1.58972e-11 -1.72432e-12)
(3.85518e-12 -3.94193e-12 -1.10364e-11)
(1.33446e-11 1.75625e-11 -3.95062e-11)
(-2.93316e-13 6.94833e-12 -3.83005e-11)
(-2.84213e-11 2.47385e-11 -2.57479e-11)
(-1.92933e-11 -2.13832e-13 -3.40421e-11)
(-4.71667e-11 1.73844e-11 -4.93331e-11)
(-3.6812e-11 -6.02513e-11 -5.31526e-11)
(7.41444e-15 1.76292e-11 -1.66827e-11)
(3.30341e-11 -3.57095e-11 -5.51895e-11)
(-8.08814e-12 -4.13415e-11 -6.99442e-11)
(-1.50819e-11 -9.17905e-11 -9.67145e-11)
(-7.05222e-11 2.32486e-11 -2.59303e-11)
(-2.94204e-11 -3.8972e-11 -4.85696e-11)
(-4.73501e-11 -4.54331e-11 -8.16834e-11)
(-2.49169e-11 -8.86672e-11 -1.07927e-10)
(2.24741e-11 3.78654e-11 -3.84463e-11)
(1.15772e-11 -2.60816e-11 -9.02572e-11)
(-5.35594e-11 -5.8957e-11 -1.39562e-10)
(2.25967e-11 -1.23282e-10 -1.30766e-10)
(1.76205e-11 2.43169e-11 -6.51948e-11)
(-9.19615e-11 -1.56261e-10 -9.83168e-11)
(-1.18064e-10 -1.69241e-10 -1.39232e-10)
(-1.82979e-11 -1.63649e-10 -1.06202e-10)
(8.32378e-11 4.28865e-11 -7.13169e-11)
(6.31123e-12 -1.30511e-10 -8.76462e-11)
(5.36638e-11 -1.0236e-10 -1.06296e-10)
(1.02092e-10 -1.81982e-10 -1.20033e-10)
(1.07494e-10 4.10858e-12 3.55516e-12)
(1.50787e-10 -5.62319e-11 2.69028e-11)
(1.40569e-10 -1.33742e-10 -8.38788e-11)
(-3.83868e-10 -6.89724e-11 -1.12385e-10)
(3.91903e-10 -7.39128e-12 -4.67278e-11)
(4.33006e-10 -2.16187e-10 1.59386e-11)
(4.59091e-10 -4.16346e-10 9.82593e-11)
(3.41806e-10 -2.4211e-10 2.1577e-11)
(2.15493e-11 -3.54968e-12 4.25251e-11)
(-5.65206e-13 1.76517e-11 1.35525e-13)
(-5.17013e-12 1.58972e-11 -1.72432e-12)
(-6.26678e-12 1.13206e-11 -6.66009e-12)
(-2.24249e-11 3.20798e-11 -2.7193e-11)
(-2.84213e-11 2.47385e-11 -2.57479e-11)
(1.26778e-10 -9.73808e-12 -8.72608e-11)
(5.30401e-11 -3.82564e-12 -5.70758e-11)
(7.41444e-15 1.76292e-11 -1.66827e-11)
(1.38051e-10 -3.32049e-11 -1.63513e-10)
(-2.39678e-12 1.19017e-11 -7.34924e-11)
(-7.05222e-11 2.32486e-11 -2.59303e-11)
(2.08436e-10 -7.27405e-11 -2.54939e-10)
(8.05964e-11 -6.97089e-12 -1.08751e-10)
(2.24741e-11 3.78654e-11 -3.84463e-11)
(2.24138e-10 -4.42466e-11 -2.51024e-10)
(3.49181e-11 -2.03495e-11 -1.46576e-10)
(1.76205e-11 2.43169e-11 -6.51948e-11)
(4.12005e-10 -6.40959e-11 -1.97923e-10)
(2.28169e-10 2.05119e-11 -7.31087e-11)
(8.32378e-11 4.28865e-11 -7.13169e-11)
(1.87898e-10 5.52165e-11 -7.8362e-11)
(2.9131e-10 3.16688e-11 2.1369e-11)
(1.07494e-10 4.10858e-12 3.55516e-12)
(7.1846e-10 -1.39359e-10 1.9245e-10)
(7.88488e-10 4.07268e-11 1.61721e-10)
(3.91903e-10 -7.39128e-12 -4.67278e-11)
)
;
    }
    procBoundary4to0
    {
        type            processor;
        value           nonuniform List<vector> 
36
(
(3.17774e-11 4.61096e-11 1.27456e-10)
(1.19858e-10 1.37418e-11 3.81999e-11)
(3.84214e-10 6.42889e-11 -5.41853e-11)
(2.39818e-10 -4.89972e-11 -2.63696e-10)
(3.77874e-10 -1.9543e-12 -3.71853e-10)
(4.64653e-10 -3.2523e-12 -3.85015e-10)
(5.07419e-10 -8.38067e-11 -3.27037e-10)
(5.17624e-10 -1.93524e-10 -9.813e-11)
(6.33486e-10 -1.97046e-10 1.0119e-10)
(5.98668e-11 4.05098e-11 7.09352e-11)
(1.69163e-10 1.16243e-12 -2.3701e-11)
(3.86843e-10 -1.2391e-10 -2.32935e-10)
(4.53935e-10 -1.31004e-10 -4.38677e-10)
(6.07034e-10 -1.59316e-10 -5.23924e-10)
(5.74522e-10 -1.96727e-10 -3.88412e-10)
(7.74513e-10 -2.4355e-10 -1.90257e-10)
(8.7429e-10 -4.59537e-10 3.08388e-11)
(9.14147e-10 -5.18462e-10 4.9876e-10)
(6.36193e-11 4.15689e-11 -1.08065e-10)
(1.7561e-10 -4.17615e-12 -1.97638e-10)
(3.65157e-10 -1.06479e-10 -3.18459e-10)
(2.12613e-10 -2.20541e-10 -4.88447e-10)
(4.87354e-10 -1.9279e-10 -5.33166e-10)
(5.3076e-10 -3.17309e-10 -3.81834e-10)
(7.69536e-10 -4.12952e-10 -1.72723e-10)
(8.83037e-10 -5.10742e-10 6.16474e-11)
(1.05231e-09 -4.01353e-10 6.71925e-10)
(4.25946e-11 -8.55951e-12 -1.12069e-10)
(9.97768e-11 -3.9631e-11 -1.94303e-10)
(2.58814e-10 -1.07129e-10 -3.14708e-10)
(1.61284e-10 -2.20574e-10 -4.01046e-10)
(3.81976e-10 -2.31779e-10 -4.36949e-10)
(5.02134e-10 -2.73516e-10 -3.39881e-10)
(7.33269e-10 -4.34847e-10 -1.13337e-10)
(7.86751e-10 -4.11895e-10 2.66131e-11)
(9.18504e-10 -5.90598e-10 6.61675e-10)
)
;
    }
    procBoundary4to5
    {
        type            processor;
        value           nonuniform List<vector> 
12
(
(1.24191e-09 -1.1195e-10 4.00949e-10)
(5.51501e-09 2.30903e-09 2.41775e-10)
(1.37072e-09 -5.18117e-10 8.98197e-10)
(1.08293e-09 -5.67986e-10 1.11271e-09)
(1.47338e-09 -4.53052e-10 3.3092e-10)
(2.3775e-09 -8.4559e-10 4.31929e-10)
(1.69172e-09 -7.85521e-10 5.74751e-10)
(1.60137e-09 -4.08725e-10 3.43863e-10)
(1.37409e-09 9.06992e-11 4.16404e-11)
(1.94719e-09 -2.52884e-10 -1.18992e-10)
(6.31619e-10 -2.09802e-10 -2.39377e-11)
(8.26011e-10 -2.90678e-10 9.6863e-11)
)
;
    }
    procBoundary4to6
    {
        type            processor;
        value           nonuniform List<vector> 
27
(
(4.31112e-11 -5.95189e-11 -1.22868e-10)
(-1.70195e-11 -1.28529e-10 -2.07615e-10)
(-1.1957e-10 -1.68873e-10 -2.64255e-10)
(-1.48741e-10 -1.73846e-10 -3.4826e-10)
(2.5672e-11 -2.03036e-10 -3.80013e-10)
(7.68918e-11 -1.3522e-10 -2.98054e-10)
(1.74757e-10 -1.07132e-10 -2.61689e-10)
(4.16019e-10 -3.81765e-11 -8.59014e-11)
(6.73252e-10 -1.80212e-10 3.60217e-10)
(1.52722e-11 -5.38992e-11 -7.64106e-11)
(-1.201e-10 -9.35298e-11 -1.37891e-10)
(-1.41928e-10 -1.39283e-10 -1.73009e-10)
(-1.57108e-10 -1.03871e-10 -2.13545e-10)
(-1.20306e-10 -1.42882e-10 -2.19837e-10)
(-5.5217e-11 -1.04565e-10 -2.0083e-10)
(9.51431e-11 -9.15732e-11 -2.41974e-10)
(1.7483e-10 -6.90772e-12 -9.70387e-11)
(5.12509e-10 -1.9426e-12 2.64055e-10)
(-1.46792e-12 -4.33891e-11 -3.8343e-11)
(-5.32369e-11 -4.00383e-11 -5.6077e-11)
(-7.64897e-11 -1.26608e-10 -1.09306e-10)
(-1.3282e-10 -8.84842e-11 -9.84167e-11)
(-7.6088e-11 -7.72178e-11 -9.0265e-11)
(-1.22769e-10 -1.14864e-10 -1.11501e-10)
(5.22868e-11 -8.02596e-11 -1.23509e-10)
(-6.47433e-11 -1.90936e-10 -8.29815e-11)
(1.13866e-10 -6.22663e-11 5.03458e-12)
)
;
    }
}


// ************************************************************************* //
