/*--------------------------------*- C++ -*----------------------------------*\
| =========                 |                                                 |
| \\      /  F ield         | OpenFOAM: The Open Source CFD Toolbox           |
|  \\    /   O peration     | Version:  4.x                                   |
|   \\  /    A nd           | Web:      www.OpenFOAM.org                      |
|    \\/     M anipulation  |                                                 |
\*---------------------------------------------------------------------------*/
FoamFile
{
    version     2.0;
    format      ascii;
    class       volScalarField;
    location    "24";
    object      Cs;
}
// * * * * * * * * * * * * * * * * * * * * * * * * * * * * * * * * * * * * * //

dimensions      [1 -3 0 0 0 0 0];

internalField   nonuniform List<scalar> 
87
(
334.991
334.99
334.989
334.989
334.988
334.986
334.983
334.98
338.944
334.997
334.996
334.994
334.992
334.988
334.984
334.972
334.965
334.324
334.997
334.995
334.992
334.988
334.98
334.968
334.947
334.921
334.833
334.997
334.995
334.992
334.988
334.982
334.976
334.963
334.957
334.204
334.991
334.984
334.974
334.964
334.946
334.938
334.915
334.916
334.695
334.985
334.972
334.952
334.931
334.906
334.896
334.886
334.891
334.885
334.996
334.993
334.988
334.982
334.972
334.962
334.945
334.934
334.499
334.982
334.963
334.934
334.902
334.873
334.86
334.86
334.87
334.852
334.975
334.961
334.947
334.934
334.926
334.92
334.933
334.929
334.989
334.998
334.996
334.994
334.992
334.987
334.988
)
;

boundaryField
{
    inlet
    {
        type            calculated;
        value           nonuniform 0();
    }
    outlet
    {
        type            calculated;
        value           uniform 335;
    }
    wall
    {
        type            calculated;
        value           nonuniform List<scalar> 
57
(
334.991
334.997
334.997
334.99
334.996
334.995
334.989
334.994
334.992
334.989
334.992
334.988
334.988
334.988
334.98
334.986
334.984
334.968
334.983
334.972
334.947
334.98
334.965
334.921
338.944
334.324
334.833
334.991
334.997
334.996
334.998
334.99
334.995
334.993
334.996
334.989
334.992
334.988
334.994
334.989
334.988
334.982
334.988
334.982
334.972
334.986
334.976
334.962
334.983
334.963
334.945
334.98
334.957
334.934
338.944
334.204
334.499
)
;
    }
    procBoundary1to0
    {
        type            processor;
        value           nonuniform List<scalar> 
12
(
334.992
334.998
334.998
334.998
334.996
334.993
334.998
334.993
334.987
334.999
334.996
334.994
)
;
    }
    procBoundary1to3
    {
        type            processor;
        value           nonuniform List<scalar> 
27
(
334.998
334.996
334.993
334.99
334.983
334.976
334.96
334.945
336.024
334.985
334.971
334.951
334.927
334.899
334.884
334.868
334.874
334.844
334.972
334.952
334.931
334.912
334.898
334.891
334.897
334.901
334.953
)
;
    }
    procBoundary1to5
    {
        type            processor;
        value           nonuniform List<scalar> 
32
(
334.991
334.987
334.981
334.972
334.959
334.624
334.981
334.971
334.963
334.947
334.945
334.931
334.951
334.98
334.97
334.96
334.953
334.948
334.953
334.956
335.035
334.998
334.996
334.991
334.981
334.994
334.99
334.981
334.98
334.985
334.98
334.987
)
;
    }
    procBoundary1to7
    {
        type            processor;
        value           uniform 334.985;
    }
}


// ************************************************************************* //
