/*--------------------------------*- C++ -*----------------------------------*\
| =========                 |                                                 |
| \\      /  F ield         | OpenFOAM: The Open Source CFD Toolbox           |
|  \\    /   O peration     | Version:  4.x                                   |
|   \\  /    A nd           | Web:      www.OpenFOAM.org                      |
|    \\/     M anipulation  |                                                 |
\*---------------------------------------------------------------------------*/
FoamFile
{
    version     2.0;
    format      ascii;
    class       volScalarField;
    location    "24";
    object      Ksl;
}
// * * * * * * * * * * * * * * * * * * * * * * * * * * * * * * * * * * * * * //

dimensions      [1 -3 -1 0 0 0 0];

internalField   nonuniform List<scalar> 
87
(
3699.88
2581.71
3633.85
2467.17
3675.87
2247.09
4140.35
1931.28
7091.93
4202.63
2726.2
4064.6
2582.33
4109.79
2328.24
4654.4
1953.9
5757.17
5036.31
3022.06
5293.24
3028.12
6218.16
3162.43
9092.6
3781.82
15483.3
5385.28
2979.38
5352.23
2845.38
5575.68
2564
6437.54
2113.39
5958.44
8209.45
3332.11
8123.12
3146.49
8405.38
2808.66
8210.54
2365.72
4866.32
17492.7
3719.86
31430.2
3657.88
86446
3606.81
56390.2
3753.58
10763.5
6755.09
3271.83
7560.18
3265.29
8896.31
3159.44
10914.8
2941.58
16880.9
16134.3
3724.9
19471.7
3650.86
20217
3546.61
11951.3
3538.87
5156
4.4325e+09
4114.96
1e+10
4176.35
1e+10
4248.12
159432
4584.75
12257.3
6254.76
3102.89
6572.53
14750.1
3645.93
63568.5
)
;

boundaryField
{
    inlet
    {
        type            zeroGradient;
    }
    outlet
    {
        type            zeroGradient;
    }
    wall
    {
        type            zeroGradient;
    }
    procBoundary1to0
    {
        type            processor;
        value           nonuniform List<scalar> 
12
(
2655.52
2867.13
3081.91
3104.84
3482.3
3724.54
3308.79
3777.47
4027.56
3223.47
3703.1
3949.11
)
;
    }
    procBoundary1to3
    {
        type            processor;
        value           nonuniform List<scalar> 
27
(
4613.19
2821.03
4413.48
2672.8
4482.96
2503.29
5136.68
2155.33
6083.8
15164.9
3667.96
19630.3
3570.48
23358.7
3432.28
16590.7
3318.65
4684.16
126545
3953.24
1e+10
3962.24
1e+10
3970.85
1e+10
4129.07
22127.9
)
;
    }
    procBoundary1to5
    {
        type            processor;
        value           nonuniform List<scalar> 
32
(
3064.62
7700.23
2977.85
10849.2
2914.34
26726.3
17010.6
3590.09
17708.2
3579.18
14939.9
3820.28
8816.14
3934.65
4.06845e+06
3933.79
1e+10
4010.26
9.66621e+09
4261.94
12546.2
7547.92
3306.32
3064.62
17010.6
8419.01
54969.1
17010.6
3934.65
3889.96
3934.65
1e+10
)
;
    }
    procBoundary1to7
    {
        type            processor;
        value           uniform 197034;
    }
}


// ************************************************************************* //
