/*--------------------------------*- C++ -*----------------------------------*\
| =========                 |                                                 |
| \\      /  F ield         | OpenFOAM: The Open Source CFD Toolbox           |
|  \\    /   O peration     | Version:  4.x                                   |
|   \\  /    A nd           | Web:      www.OpenFOAM.org                      |
|    \\/     M anipulation  |                                                 |
\*---------------------------------------------------------------------------*/
FoamFile
{
    version     2.0;
    format      ascii;
    class       volScalarField;
    location    "24";
    object      QPartFluid;
}
// * * * * * * * * * * * * * * * * * * * * * * * * * * * * * * * * * * * * * //

dimensions      [1 -1 -3 0 0 0 0];

internalField   nonuniform List<scalar> 
87
(
4.34757e+09
7.076e+09
4.25905e+09
6.58034e+09
4.42979e+09
4.95883e+09
5.30116e+09
6.50727e+09
3.98079e+09
4.61478e+09
4.46667e+09
5.98612e+09
5.80514e+09
4.50602e+09
6.67294e+09
7.71619e+09
6.70235e+09
4.01706e+09
3.98506e+09
7.03319e+09
6.3558e+09
8.90567e+09
6.25285e+09
5.60245e+09
5.36526e+09
5.49429e+09
3.80005e+09
7.50885e+09
6.62123e+09
6.26441e+09
7.65427e+09
6.49151e+09
7.99844e+09
9.29206e+09
9.39722e+09
5.81869e+09
9.15791e+09
6.76049e+09
7.82059e+09
9.51789e+09
9.37394e+09
7.85069e+09
9.67737e+09
1.08417e+10
5.15642e+09
9.18129e+09
8.50833e+09
7.25342e+09
6.81991e+09
5.7747e+09
9.19332e+09
9.20998e+09
1.29246e+10
4.2102e+09
7.07606e+09
6.9001e+09
8.15371e+09
9.46429e+09
6.07887e+09
9.61149e+09
7.51573e+09
7.30432e+09
3.3437e+09
6.41392e+09
8.7519e+09
6.3329e+09
7.88102e+09
8.02473e+09
8.89793e+09
7.58897e+09
9.1291e+09
3.94658e+09
8.05515e+09
7.65686e+09
5.33667e+09
1.07455e+10
8.52276e+09
1.02323e+10
7.15727e+09
9.20254e+09
3.26239e+09
6.68357e+09
5.65589e+09
8.11036e+09
8.03949e+09
1.22529e+10
5.86996e+09
)
;

boundaryField
{
    inlet
    {
        type            calculated;
        value           nonuniform 0();
    }
    outlet
    {
        type            calculated;
        value           uniform 0;
    }
    wall
    {
        type            calculated;
        value           uniform 0;
    }
    procBoundary1to0
    {
        type            processor;
        value           nonuniform List<scalar> 
12
(
2.02781e+09
5.27432e+09
8.52141e+09
7.26734e+09
9.00678e+09
6.33901e+09
5.37006e+09
1.00874e+10
5.32748e+09
6.06923e+09
6.94208e+09
9.33334e+09
)
;
    }
    procBoundary1to3
    {
        type            processor;
        value           nonuniform List<scalar> 
27
(
8.6181e+09
3.88204e+09
6.85813e+09
3.28971e+09
5.12029e+09
3.86083e+09
5.71263e+09
5.07332e+09
3.32992e+09
8.61718e+09
7.99727e+09
1.03084e+10
1.05529e+10
8.50747e+09
7.92712e+09
6.86734e+09
8.51842e+09
8.01968e+09
8.08303e+09
1.07232e+10
8.92459e+09
1.00451e+10
6.40581e+09
7.60312e+09
8.85037e+09
8.25306e+09
6.72814e+09
)
;
    }
    procBoundary1to5
    {
        type            processor;
        value           nonuniform List<scalar> 
32
(
8.14521e+09
7.83364e+09
7.58017e+09
6.29371e+09
8.61053e+09
6.07268e+09
7.53129e+09
7.11676e+09
6.20898e+09
8.35699e+09
8.80692e+09
1.01685e+10
6.62709e+09
9.90691e+09
6.07084e+09
8.66567e+09
5.8202e+09
5.25317e+09
7.31617e+09
6.14205e+09
6.59385e+09
6.6159e+09
5.617e+09
8.14521e+09
7.53129e+09
7.5023e+09
8.05273e+09
7.53129e+09
9.90691e+09
8.17572e+09
9.90691e+09
8.44538e+09
)
;
    }
    procBoundary1to7
    {
        type            processor;
        value           uniform 9.95204e+09;
    }
}


// ************************************************************************* //
