/*--------------------------------*- C++ -*----------------------------------*\
| =========                 |                                                 |
| \\      /  F ield         | OpenFOAM: The Open Source CFD Toolbox           |
|  \\    /   O peration     | Version:  4.x                                   |
|   \\  /    A nd           | Web:      www.OpenFOAM.org                      |
|    \\/     M anipulation  |                                                 |
\*---------------------------------------------------------------------------*/
FoamFile
{
    version     2.0;
    format      ascii;
    class       volScalarField;
    location    "24";
    object      rho;
}
// * * * * * * * * * * * * * * * * * * * * * * * * * * * * * * * * * * * * * //

dimensions      [1 -3 0 0 0 0 0];

internalField   nonuniform List<scalar> 
87
(
6699.81
6699.8
6699.78
6699.77
6699.75
6699.73
6699.66
6699.59
6778.88
6699.95
6699.92
6699.88
6699.83
6699.75
6699.67
6699.44
6699.31
6686.48
6699.94
6699.91
6699.85
6699.76
6699.61
6699.35
6698.93
6698.42
6696.66
6699.94
6699.9
6699.85
6699.77
6699.65
6699.53
6699.27
6699.14
6684.08
6699.83
6699.68
6699.47
6699.27
6698.92
6698.76
6698.3
6698.32
6693.89
6699.7
6699.44
6699.05
6698.62
6698.13
6697.92
6697.72
6697.81
6697.71
6699.93
6699.86
6699.77
6699.64
6699.45
6699.25
6698.9
6698.67
6689.99
6699.65
6699.26
6698.68
6698.03
6697.46
6697.2
6697.2
6697.41
6697.04
6699.5
6699.21
6698.95
6698.67
6698.52
6698.41
6698.66
6698.59
6699.78
6699.96
6699.93
6699.88
6699.84
6699.74
6699.76
)
;

boundaryField
{
    inlet
    {
        type            calculated;
        value           nonuniform 0();
    }
    outlet
    {
        type            calculated;
        value           uniform 6700;
    }
    wall
    {
        type            calculated;
        value           nonuniform List<scalar> 
57
(
6699.81
6699.95
6699.94
6699.8
6699.92
6699.91
6699.78
6699.88
6699.85
6699.77
6699.83
6699.76
6699.75
6699.75
6699.61
6699.73
6699.67
6699.35
6699.66
6699.44
6698.93
6699.59
6699.31
6698.42
6778.88
6686.48
6696.66
6699.81
6699.94
6699.93
6699.96
6699.8
6699.9
6699.86
6699.93
6699.78
6699.85
6699.77
6699.88
6699.77
6699.77
6699.64
6699.75
6699.65
6699.45
6699.73
6699.53
6699.25
6699.66
6699.27
6698.9
6699.59
6699.14
6698.67
6778.88
6684.08
6689.99
)
;
    }
    procBoundary1to0
    {
        type            processor;
        value           nonuniform List<scalar> 
12
(
6699.84
6699.97
6699.97
6699.97
6699.91
6699.85
6699.96
6699.85
6699.74
6699.98
6699.92
6699.87
)
;
    }
    procBoundary1to3
    {
        type            processor;
        value           nonuniform List<scalar> 
27
(
6699.95
6699.92
6699.86
6699.8
6699.67
6699.51
6699.2
6698.9
6720.49
6699.7
6699.43
6699.02
6698.53
6697.97
6697.69
6697.37
6697.48
6696.88
6699.43
6699.05
6698.62
6698.23
6697.96
6697.81
6697.94
6698.02
6699.06
)
;
    }
    procBoundary1to5
    {
        type            processor;
        value           nonuniform List<scalar> 
32
(
6699.83
6699.74
6699.63
6699.44
6699.17
6692.48
6699.63
6699.42
6699.25
6698.95
6698.89
6698.63
6699.02
6699.59
6699.41
6699.19
6699.06
6698.96
6699.06
6699.12
6700.7
6699.96
6699.93
6699.83
6699.63
6699.88
6699.81
6699.63
6699.59
6699.69
6699.59
6699.75
)
;
    }
    procBoundary1to7
    {
        type            processor;
        value           uniform 6699.7;
    }
}


// ************************************************************************* //
