/*--------------------------------*- C++ -*----------------------------------*\
| =========                 |                                                 |
| \\      /  F ield         | OpenFOAM: The Open Source CFD Toolbox           |
|  \\    /   O peration     | Version:  4.x                                   |
|   \\  /    A nd           | Web:      www.OpenFOAM.org                      |
|    \\/     M anipulation  |                                                 |
\*---------------------------------------------------------------------------*/
FoamFile
{
    version     2.0;
    format      ascii;
    class       volScalarField;
    location    "20";
    object      magGField;
}
// * * * * * * * * * * * * * * * * * * * * * * * * * * * * * * * * * * * * * //

dimensions      [1 -2 -1 0 0 0 0];

internalField   nonuniform List<scalar> 
114
(
111.652
47.0697
118.818
39.7938
134.967
32.5853
18.7618
94.9709
21.0592
95.9594
27.5412
90.0413
52.4125
86.6058
7.17158
86.5496
4.12285
84.4671
4.67706
76.3198
21.7283
42.0532
98.4559
36.8383
98.4984
29.2215
95.2449
20.6031
79.5051
23.6038
5.42941
83.7938
5.60161e-05
81.0472
4.46962e-05
74.59
3.04949e-05
57.9262
3.98169
0.514227
81.4244
8.58146e-05
80.1862
6.52175e-05
77.9811
2.71439e-05
73.8727
9.64937
8.8079e-05
80.8808
51.9955
105.036
52.2258
112.214
52.4976
126.067
54.2581
157.185
78.1598
18.3107
88.7678
17.7612
91.3901
20.39
93.9517
29.9986
93.2337
68.1444
15.7179
88.5745
15.6508
90.0359
16.5737
89.7757
19.5493
82.0377
23.6227
5.06121
80.7017
0.254237
78.6989
66.7635
113.224
68.784
120.908
69.5321
139.283
69.4088
193.95
85.1944
53.2158
102.652
54.4421
105.867
54.5264
109.184
56.7981
112.234
92.5212
43.7069
97.4269
41.8071
99.0132
40.7142
100.258
38.1821
98.0051
31.1811
35.4528
90.9904
34.7623
89.87
34.1181
86.9891
)
;

boundaryField
{
    inlet
    {
        type            calculated;
        value           nonuniform 0();
    }
    outlet
    {
        type            calculated;
        value           nonuniform List<scalar> 
12
(
71.6204
115.204
47.9213
51.8398
8.78899
21.3088
172.101
150.187
52.671
185.578
203.785
69.1278
)
;
    }
    wall
    {
        type            calculated;
        value           uniform 0;
    }
    procBoundary5to1
    {
        type            processor;
        value           nonuniform List<scalar> 
32
(
106.576
38.9694
113.658
35.525
136
31.2266
14.8089
93.8571
14.3837
95.3082
26.1621
94.2344
67.5656
83.3982
0.000107017
82.3913
8.60869e-05
80.4336
3.35745e-05
71.1319
17.6104
52.5189
107.961
51.1987
51.1987
51.1987
19.3622
92.0119
92.0119
92.0119
11.3565
11.3565
)
;
    }
    procBoundary5to4
    {
        type            processor;
        value           nonuniform List<scalar> 
12
(
97.0008
84.8514
82.0481
80.7965
101.353
87.5782
86.9558
81.824
108.053
100.242
95.9488
91.0061
)
;
    }
    procBoundary5to7
    {
        type            processor;
        value           nonuniform List<scalar> 
44
(
82.7637
0.000117509
80.6451
9.29278e-05
78.2197
3.06129e-05
74.1674
9.19861
3.69478
82.7637
0.000101708
81.9043
7.63985e-05
83.1871
4.64551
87.0134
15.9534
7.78462e-05
0.000101708
77.017
0.000101708
81.9043
6.00799e-05
74.0147
1.76317e-05
62.9814
21.1285
9.40718
85.1835
5.61109
6.00799e-05
86.4713
6.00799e-05
74.0147
35.9198
81.6351
39.027
32.3287
91.0071
29.2579
89.4983
26.3718
35.9198
85.3974
)
;
    }
}


// ************************************************************************* //
