/*--------------------------------*- C++ -*----------------------------------*\
| =========                 |                                                 |
| \\      /  F ield         | OpenFOAM: The Open Source CFD Toolbox           |
|  \\    /   O peration     | Version:  4.x                                   |
|   \\  /    A nd           | Web:      www.OpenFOAM.org                      |
|    \\/     M anipulation  |                                                 |
\*---------------------------------------------------------------------------*/
FoamFile
{
    version     2.0;
    format      ascii;
    class       volScalarField;
    location    "20";
    object      p;
}
// * * * * * * * * * * * * * * * * * * * * * * * * * * * * * * * * * * * * * //

dimensions      [1 -1 -2 0 0 0 0];

internalField   nonuniform List<scalar> 
114
(
65.8324
-16.8627
60.1802
-38.2113
56.8666
-61.7398
3.04597
65.3909
-15.8849
59.012
-35.0983
53.791
-51.6925
72.6897
4.61905
65.8861
-13.487
59.4576
-31.2214
53.5255
-47.0792
-1855.44
-1805.23
-1873.55
-1812.01
-1892.21
-1818.43
-1911
-1824.59
-1926.38
-1855.05
-1805.12
-1872.81
-1812.44
-1890.42
-1819.3
-1907.37
-1827.16
-1926.3
-1853.99
-1805.45
-1871.25
-1812.24
-1888.74
-1818.92
-1906.06
-1826.77
-1922.73
-1853.51
-1805.33
-3733.44
-3683.42
-3752.23
-3690.22
-3772.28
-3696.13
-3795.1
-3698.92
-3824.14
-3732.95
-3683.37
-3751.32
-3690.67
-3770.12
-3697.61
-3789.42
-3703.53
-3806.74
-3732.8
-3683.22
-3751
-3690.23
-3769.57
-3696.8
-3788.35
-3702.19
-3805.06
-3731.63
-3683.1
-3749.2
-3690.73
-5611.03
-5561.3
-5629.52
-5568.05
-5649.46
-5573.89
-5672.75
-5576.2
-5709.52
-5610.64
-5561.27
-5628.79
-5568.35
-5647.45
-5575.17
-5666.77
-5580.84
-5685.69
-5610.38
-5561.08
-5628.4
-5568.03
-5646.94
-5574.51
-5665.92
-5579.93
-5684.02
-5609.71
-5561.13
-5627.25
-5568.45
-5644.81
-5575.79
)
;

boundaryField
{
    inlet
    {
        type            calculated;
        value           nonuniform 0();
    }
    outlet
    {
        type            calculated;
        value           nonuniform List<scalar> 
12
(
0
0
0
-1877.91
-1877.91
-1877.91
-3755.83
-3755.83
-3755.83
-5633.74
-5633.74
-5633.74
)
;
    }
    wall
    {
        type            calculated;
        value           nonuniform List<scalar> 
66
(
-6549.97
-6549.58
-6549.32
-6548.64
-6500.24
-6500.2
-6500.01
-6500.04
-6568.45
-6567.71
-6567.31
-6566.15
-6506.97
-6507.26
-6506.93
-6507.33
-6588.37
-6586.34
-6585.82
-6583.68
-6512.78
-6514.05
-6513.37
-6514.64
-6611.63
-6605.63
-6604.77
-6515.07
-6519.68
-6518.76
-6655.99
-6624.45
-6622.8
-1855.44
-3733.44
-5611.03
-1805.23
-3683.42
-5561.3
-1873.55
-3752.23
-5629.52
65.8324
-1812.01
-3690.22
-5568.05
-16.8627
-1892.21
-3772.28
-5649.46
60.1802
-1818.43
-3696.13
-5573.89
-38.2113
-1911
-3795.1
-5672.75
56.8666
-1824.59
-3698.92
-5576.2
-61.7398
-1926.38
-3824.14
-5709.52
)
;
    }
    procBoundary5to1
    {
        type            processor;
        value           nonuniform List<scalar> 
32
(
1943.63
1861.76
1937.63
1840.83
1933.37
1818.03
1881.16
1943.22
1862.54
1936.61
1843.46
1931.32
1827.08
1950.02
1883.06
1943.58
1865.4
1937.46
1847.95
1930.5
1832.52
21.7071
72.3794
2.94158
2.94158
2.94158
21.8618
72.3141
72.3141
72.3141
22.7149
22.7149
)
;
    }
    procBoundary5to4
    {
        type            processor;
        value           nonuniform List<scalar> 
12
(
-1798.02
-1797.65
-1797.75
-1797.61
-3676.21
-3675.88
-3675.91
-3675.62
-5554.24
-5553.95
-5553.9
-5553.73
)
;
    }
    procBoundary5to7
    {
        type            processor;
        value           nonuniform List<scalar> 
44
(
72.5262
5.79799
65.2286
-11.6657
58.6122
-29.1355
52.1526
-45.2087
23.592
72.5262
-1870.83
-1812.55
-1888.57
-1819.75
-1906.5
-1826.91
-1924.5
-1853.45
-1870.83
-1805.43
-1870.83
-1812.55
-3766.5
-3697.82
-3783.11
-3705.69
-3797.84
-3732.07
-3683.09
-3750.04
-3766.5
-3690.2
-3766.5
-3697.82
-5661.97
-5582.89
-5677.7
-5609.75
-5560.99
-5627.4
-5568.03
-5645.16
-5661.97
-5574.94
)
;
    }
}


// ************************************************************************* //
