/*--------------------------------*- C++ -*----------------------------------*\
| =========                 |                                                 |
| \\      /  F ield         | OpenFOAM: The Open Source CFD Toolbox           |
|  \\    /   O peration     | Version:  4.x                                   |
|   \\  /    A nd           | Web:      www.OpenFOAM.org                      |
|    \\/     M anipulation  |                                                 |
\*---------------------------------------------------------------------------*/
FoamFile
{
    version     2.0;
    format      ascii;
    class       volScalarField;
    location    "0.5";
    object      Cs;
}
// * * * * * * * * * * * * * * * * * * * * * * * * * * * * * * * * * * * * * //

dimensions      [1 -3 0 0 0 0 0];

internalField   nonuniform List<scalar> 
114
(
334.41
334.583
334.675
334.799
334.942
335.021
334.287
334.117
334.164
334.324
334.596
334.695
334.819
334.911
334.981
334.178
334.041
334.245
334.402
334.542
334.727
334.821
334.889
334.921
334.243
334.16
334.267
334.406
334.478
334.572
334.664
334.732
334.775
334.862
334.933
335.012
335.053
334.647
334.536
334.58
334.719
334.791
334.856
334.947
335.024
335.073
334.6
334.545
334.596
334.701
334.777
334.839
334.923
335.011
335.06
334.612
334.545
334.572
334.64
334.688
334.747
334.8
334.85
334.894
335.057
335.089
334.808
334.748
334.749
334.828
334.886
334.934
334.999
335.073
335.11
334.79
334.759
334.753
334.81
334.872
334.924
334.98
335.062
335.112
334.787
334.737
334.738
334.775
334.81
334.85
334.882
334.918
334.957
334.891
334.895
334.866
334.886
334.92
334.959
335.024
335.089
334.888
334.872
334.854
334.882
334.918
334.951
335.006
334.885
334.856
334.843
334.855
334.877
334.903
)
;

boundaryField
{
    inlet
    {
        type            calculated;
        value           uniform 335;
    }
    outlet
    {
        type            calculated;
        value           nonuniform 0();
    }
    wall
    {
        type            calculated;
        value           nonuniform List<scalar> 
66
(
334.287
334.178
334.243
334.117
334.041
334.16
334.164
334.245
334.267
334.41
334.324
334.402
334.406
334.583
334.596
334.542
334.478
334.675
334.695
334.727
334.572
334.799
334.819
334.821
334.664
334.942
334.911
334.889
334.732
335.021
334.981
334.921
334.775
334.243
334.612
334.787
334.885
334.16
334.545
334.737
334.856
334.267
334.572
334.738
334.843
334.406
334.64
334.775
334.855
334.478
334.688
334.81
334.877
334.572
334.747
334.85
334.903
334.664
334.8
334.882
334.732
334.85
334.918
334.775
334.894
334.957
)
;
    }
    procBoundary2to0
    {
        type            processor;
        value           nonuniform List<scalar> 
44
(
334.418
334.564
334.63
334.698
334.846
334.988
334.388
334.164
334.34
334.34
334.702
334.731
334.867
334.961
335.036
335.115
334.648
334.538
334.603
334.702
334.731
334.731
334.921
334.987
335.095
335.145
334.802
334.723
334.752
334.821
334.881
334.921
334.987
334.987
335.054
335.109
334.863
334.8
334.844
334.882
334.92
334.954
335.014
335.054
)
;
    }
    procBoundary2to3
    {
        type            processor;
        value           nonuniform List<scalar> 
12
(
335.089
335.045
334.981
334.793
335.113
335.12
335.103
334.921
335.068
335.134
335.11
334.98
)
;
    }
    procBoundary2to6
    {
        type            processor;
        value           nonuniform List<scalar> 
32
(
335.077
335.055
335.108
334.93
334.958
334.989
334.902
334.888
334.89
334.895
334.923
334.99
335.035
335.077
335.055
335.085
334.915
334.891
334.888
334.9
334.942
334.982
335.055
334.93
335.031
334.912
334.891
334.883
334.886
334.899
334.93
334.917
)
;
    }
}


// ************************************************************************* //
