/*--------------------------------*- C++ -*----------------------------------*\
| =========                 |                                                 |
| \\      /  F ield         | OpenFOAM: The Open Source CFD Toolbox           |
|  \\    /   O peration     | Version:  4.x                                   |
|   \\  /    A nd           | Web:      www.OpenFOAM.org                      |
|    \\/     M anipulation  |                                                 |
\*---------------------------------------------------------------------------*/
FoamFile
{
    version     2.0;
    format      ascii;
    class       volScalarField;
    location    "0.5";
    object      Deff;
}
// * * * * * * * * * * * * * * * * * * * * * * * * * * * * * * * * * * * * * //

dimensions      [0 2 -1 0 0 0 0];

internalField   nonuniform List<scalar> 
114
(
9.9552e-08
9.95699e-08
9.95006e-08
9.93255e-08
9.94118e-08
9.9326e-08
9.96178e-08
9.95305e-08
9.96908e-08
9.95958e-08
9.94993e-08
9.94102e-08
9.92333e-08
9.91798e-08
9.92497e-08
9.97038e-08
9.95749e-08
9.96857e-08
9.95444e-08
9.95343e-08
9.94475e-08
9.95089e-08
9.93203e-08
9.93406e-08
9.97518e-08
9.9709e-08
9.9696e-08
9.96151e-08
9.96474e-08
9.96128e-08
9.96452e-08
9.94758e-08
9.94467e-08
9.8783e-08
9.86672e-08
9.88204e-08
9.86603e-08
9.92998e-08
9.91721e-08
9.90872e-08
9.90259e-08
9.89278e-08
9.88482e-08
9.86825e-08
9.87231e-08
9.87842e-08
9.93214e-08
9.91205e-08
9.90408e-08
9.89973e-08
9.89533e-08
9.89122e-08
9.88829e-08
9.88068e-08
9.88036e-08
9.93975e-08
9.93183e-08
9.9178e-08
9.91534e-08
9.90801e-08
9.90839e-08
9.90496e-08
9.89782e-08
9.90031e-08
9.84403e-08
9.84592e-08
9.89553e-08
9.89366e-08
9.88123e-08
9.8703e-08
9.8618e-08
9.84665e-08
9.83554e-08
9.84254e-08
9.84566e-08
9.90718e-08
9.89219e-08
9.87594e-08
9.85971e-08
9.86133e-08
9.8557e-08
9.84532e-08
9.84552e-08
9.83889e-08
9.91423e-08
9.89345e-08
9.88731e-08
9.87803e-08
9.87884e-08
9.86858e-08
9.85376e-08
9.86646e-08
9.85497e-08
9.87981e-08
9.85834e-08
9.84525e-08
9.84081e-08
9.83553e-08
9.82426e-08
9.82005e-08
9.8185e-08
9.87926e-08
9.86491e-08
9.85104e-08
9.84365e-08
9.83549e-08
9.83091e-08
9.81952e-08
9.89464e-08
9.87492e-08
9.86525e-08
9.85198e-08
9.84906e-08
9.84097e-08
)
;

boundaryField
{
    inlet
    {
        type            calculated;
        value           uniform 0;
    }
    outlet
    {
        type            calculated;
        value           nonuniform 0();
    }
    wall
    {
        type            calculated;
        value           uniform 0;
    }
    procBoundary2to0
    {
        type            processor;
        value           uniform 0;
    }
    procBoundary2to3
    {
        type            processor;
        value           uniform 0;
    }
    procBoundary2to6
    {
        type            processor;
        value           uniform 0;
    }
}


// ************************************************************************* //
