/*--------------------------------*- C++ -*----------------------------------*\
| =========                 |                                                 |
| \\      /  F ield         | OpenFOAM: The Open Source CFD Toolbox           |
|  \\    /   O peration     | Version:  4.x                                   |
|   \\  /    A nd           | Web:      www.OpenFOAM.org                      |
|    \\/     M anipulation  |                                                 |
\*---------------------------------------------------------------------------*/
FoamFile
{
    version     2.0;
    format      ascii;
    class       volScalarField;
    location    "0.5";
    object      magGField;
}
// * * * * * * * * * * * * * * * * * * * * * * * * * * * * * * * * * * * * * //

dimensions      [1 -2 -1 0 0 0 0];

internalField   nonuniform List<scalar> 
114
(
3.53866
24.011
61.7854
28.5308
148.643
127.352
107.906
34.8373
78.1178
4.86548
40.8557
62.748
85.7994
190.11
190.057
85.8916
31.3462
80.1014
52.3403
73.847
96.385
113.702
182.37
164.057
113.008
46.1415
114.184
76.0214
182.089
164.526
266.568
281.647
387.578
56.9074
24.0016
116.752
66.0222
65.4182
39.0652
37.6273
12.1686
22.4828
84.3541
71.649
154.605
139.687
94.327
46.3346
70.5048
40.0741
61.3376
102.083
86.5702
151.649
130.228
102.24
64.0656
127.755
92.909
169.084
150.481
257.992
243.062
346.891
88.9419
28.757
71.5969
35.9555
64.2074
7.67354
25.5369
65.8254
43.1129
115.516
84.7399
85.2127
61.2169
82.6893
43.741
58.6864
81.2787
72.9544
130.084
108.574
100.606
69.2738
147.815
121.546
199.657
186.174
277.386
279.604
372.32
77.8996
19.9725
57.4291
11.5704
24.691
38.3486
23.4447
88.137
79.9008
48.8576
84.3351
42.4815
61.5682
50.8545
66.0568
101.512
77.7817
162.861
164.202
234.78
231.297
)
;

boundaryField
{
    inlet
    {
        type            calculated;
        value           uniform 67;
    }
    outlet
    {
        type            calculated;
        value           nonuniform 0();
    }
    wall
    {
        type            calculated;
        value           uniform 0;
    }
    procBoundary2to0
    {
        type            processor;
        value           nonuniform List<scalar> 
44
(
7.41365
27.1283
72.4009
64.8146
177.256
213.04
79.7291
17.8996
34.4562
34.4562
3.87434
14.4736
137.534
147.916
227.423
239.279
68.6472
28.9437
30.2007
3.87434
14.4736
14.4736
51.2131
19.8713
151.457
148.957
70.0486
49.2684
49.7399
2.63163
21.4011
51.2131
19.8713
19.8713
55.0697
17.1112
85.4039
48.3274
92.9198
30.7125
66.3252
7.3873
18.0627
55.0697
)
;
    }
    procBoundary2to3
    {
        type            processor;
        value           nonuniform List<scalar> 
12
(
254.052
292.487
247.138
407.385
195.112
244.359
233.186
315.879
120.127
181.168
193.646
376.977
)
;
    }
    procBoundary2to6
    {
        type            processor;
        value           nonuniform List<scalar> 
32
(
35.2372
86.5685
64.5999
317.206
338.496
432.786
90.36
28.5317
36.1575
15.4724
23.5696
38.7733
35.4282
35.2372
86.5685
119.527
86.7549
39.7978
63.9517
19.3815
40.8741
48.2284
86.5685
317.206
60.1147
94.9687
71.8323
148.226
150.662
220.734
317.206
222.12
)
;
    }
}


// ************************************************************************* //
