/*--------------------------------*- C++ -*----------------------------------*\
| =========                 |                                                 |
| \\      /  F ield         | OpenFOAM: The Open Source CFD Toolbox           |
|  \\    /   O peration     | Version:  4.x                                   |
|   \\  /    A nd           | Web:      www.OpenFOAM.org                      |
|    \\/     M anipulation  |                                                 |
\*---------------------------------------------------------------------------*/
FoamFile
{
    version     2.0;
    format      ascii;
    class       volScalarField;
    location    "0.5";
    object      QWallFluid;
}
// * * * * * * * * * * * * * * * * * * * * * * * * * * * * * * * * * * * * * //

dimensions      [1 -1 -3 0 0 0 0];

internalField   nonuniform List<scalar> 
114
(
5.88694e+07
2.72362e+08
5.80133e+08
3.12659e+08
1.17094e+09
1.03472e+09
0
3.66821e+08
0
0
4.16697e+08
5.87352e+08
7.54407e+08
1.42568e+09
1.42536e+09
0
3.37106e+08
0
5.08028e+08
6.69091e+08
8.27992e+08
9.45e+08
1.37905e+09
1.26711e+09
0
0
0
0
0
0
0
3.90492e+09
5.04122e+09
0
0
0
0
0
0
0
0
0
0
0
0
0
0
0
0
0
0
0
0
0
0
8.67992e+08
5.97198e+08
1.03734e+09
8.04016e+08
1.29808e+09
1.18251e+09
1.82013e+09
1.73537e+09
2.3066e+09
0
0
0
0
0
0
0
0
0
0
0
0
0
0
0
0
0
0
0
0
8.56877e+08
6.35732e+08
1.16572e+09
9.96807e+08
1.48268e+09
1.40202e+09
1.9288e+09
1.94112e+09
2.44091e+09
0
0
0
0
0
0
0
0
0
0
0
0
0
0
0
8.63042e+08
6.97462e+08
1.25971e+09
1.268e+09
1.6879e+09
1.66784e+09
)
;

boundaryField
{
    inlet
    {
        type            calculated;
        value           uniform 0;
    }
    outlet
    {
        type            calculated;
        value           nonuniform 0();
    }
    wall
    {
        type            calculated;
        value           uniform 0;
    }
    procBoundary2to0
    {
        type            processor;
        value           nonuniform List<scalar> 
44
(
0
0
6.58588e+08
6.02777e+08
1.34803e+09
1.56166e+09
0
0
0
0
0
0
0
0
0
0
0
0
0
0
0
0
0
0
0
0
0
0
0
0
0
0
0
0
0
0
0
0
0
0
0
0
0
0
)
;
    }
    procBoundary2to3
    {
        type            processor;
        value           nonuniform List<scalar> 
12
(
1.79786e+09
2.01235e+09
1.75861e+09
5.24629e+09
0
0
0
2.14011e+09
0
0
0
2.4653e+09
)
;
    }
    procBoundary2to6
    {
        type            processor;
        value           nonuniform List<scalar> 
32
(
0
0
0
2.1473e+09
2.26184e+09
2.7532e+09
0
0
0
0
0
0
0
0
0
0
0
0
0
0
0
0
0
2.1473e+09
0
8.18244e+08
6.54447e+08
1.16831e+09
1.18364e+09
1.60662e+09
2.1473e+09
1.61469e+09
)
;
    }
}


// ************************************************************************* //
