/*--------------------------------*- C++ -*----------------------------------*\
| =========                 |                                                 |
| \\      /  F ield         | OpenFOAM: The Open Source CFD Toolbox           |
|  \\    /   O peration     | Version:  4.x                                   |
|   \\  /    A nd           | Web:      www.OpenFOAM.org                      |
|    \\/     M anipulation  |                                                 |
\*---------------------------------------------------------------------------*/
FoamFile
{
    version     2.0;
    format      ascii;
    class       volScalarField;
    location    "0.5";
    object      SPartFluid;
}
// * * * * * * * * * * * * * * * * * * * * * * * * * * * * * * * * * * * * * //

dimensions      [1 -3 -1 0 0 0 0];

internalField   nonuniform List<scalar> 
114
(
6.0308e-65
2.94628e-65
2.63537e-65
4.90992e-65
2.26463e-65
2.65646e-65
5.71486e-65
6.4897e-65
2.93984e-65
3.63869e-65
4.41061e-65
4.18344e-65
5.98283e-65
6.3861e-65
4.05468e-65
4.01877e-65
5.64179e-65
2.79065e-65
5.03344e-65
3.9442e-65
5.17977e-65
2.32253e-65
5.13107e-65
3.11327e-65
4.40171e-65
4.24728e-65
3.87494e-65
4.57049e-65
3.32763e-65
3.77685e-65
2.62436e-65
4.25991e-65
3.41024e-65
8.44384e-65
9.64216e-65
5.62197e-65
9.76705e-65
5.3976e-65
6.78441e-65
7.63247e-65
7.24301e-65
7.08641e-65
6.57104e-65
8.69289e-65
7.70599e-65
5.53614e-65
6.01748e-65
8.47812e-65
8.33699e-65
7.4029e-65
7.47643e-65
7.32752e-65
6.65801e-65
7.53117e-65
6.29932e-65
5.86238e-65
5.16996e-65
6.87411e-65
5.71322e-65
7.01924e-65
5.85678e-65
5.71226e-65
6.65203e-65
4.25824e-65
7.63057e-65
5.77131e-65
7.15689e-65
4.99382e-65
5.44928e-65
5.67545e-65
5.75907e-65
7.55201e-65
8.35568e-65
6.68052e-65
5.21695e-65
5.30884e-65
5.98648e-65
6.98621e-65
8.98289e-65
6.98978e-65
6.69679e-65
7.41443e-65
7.43528e-65
8.45829e-65
5.31102e-65
7.44947e-65
5.99701e-65
6.37735e-65
5.1493e-65
6.07875e-65
8.63781e-65
4.86812e-65
6.73204e-65
4.76237e-65
8.03835e-65
8.26924e-65
6.50628e-65
6.35402e-65
7.68696e-65
6.25601e-65
7.74262e-65
6.84285e-65
6.81751e-65
7.58013e-65
6.43429e-65
7.12985e-65
6.45583e-65
8.70841e-65
5.2254e-65
6.43942e-65
6.21204e-65
7.05964e-65
5.45284e-65
6.3059e-65
)
;

boundaryField
{
    inlet
    {
        type            calculated;
        value           uniform 0;
    }
    outlet
    {
        type            calculated;
        value           nonuniform 0();
    }
    wall
    {
        type            calculated;
        value           uniform 0;
    }
    procBoundary2to0
    {
        type            processor;
        value           nonuniform List<scalar> 
44
(
2.39815e-65
4.17788e-65
4.41864e-65
3.03696e-65
4.52779e-65
6.8756e-65
2.86055e-65
4.40371e-65
3.24415e-65
3.24415e-65
4.46674e-65
9.08427e-65
6.66e-65
7.16415e-65
7.18039e-65
5.16374e-65
8.02233e-65
6.09327e-65
6.00255e-65
4.46674e-65
9.08427e-65
9.08427e-65
6.54534e-65
7.2159e-65
5.9149e-65
4.99397e-65
7.23198e-65
7.52731e-65
7.59794e-65
7.97259e-65
8.37435e-65
6.54534e-65
7.2159e-65
7.2159e-65
5.42499e-65
2.33669e-65
5.22188e-65
5.82312e-65
7.73344e-65
9.10952e-65
4.36736e-65
6.07478e-65
8.43253e-65
5.42499e-65
)
;
    }
    procBoundary2to3
    {
        type            processor;
        value           nonuniform List<scalar> 
12
(
4.77222e-65
5.0739e-65
5.53084e-65
4.65325e-65
7.21298e-65
6.57461e-65
1.03669e-64
7.45238e-65
1.00181e-64
9.06248e-65
4.97746e-65
7.98356e-65
)
;
    }
    procBoundary2to6
    {
        type            processor;
        value           nonuniform List<scalar> 
32
(
6.74106e-65
5.9408e-65
7.19509e-65
4.93069e-65
5.55722e-65
5.33348e-65
1.02907e-64
7.49346e-65
4.35412e-65
7.79762e-65
9.18819e-65
5.5377e-65
8.0154e-65
6.74106e-65
5.9408e-65
6.48848e-65
5.75109e-65
7.80234e-65
6.34243e-65
7.80312e-65
7.88937e-65
7.52767e-65
5.9408e-65
4.93069e-65
6.93043e-65
4.91331e-65
7.1192e-65
5.05574e-65
5.06025e-65
8.74773e-65
4.93069e-65
8.45334e-65
)
;
    }
}


// ************************************************************************* //
