/*--------------------------------*- C++ -*----------------------------------*\
| =========                 |                                                 |
| \\      /  F ield         | OpenFOAM: The Open Source CFD Toolbox           |
|  \\    /   O peration     | Version:  4.x                                   |
|   \\  /    A nd           | Web:      www.OpenFOAM.org                      |
|    \\/     M anipulation  |                                                 |
\*---------------------------------------------------------------------------*/
FoamFile
{
    version     2.0;
    format      ascii;
    class       volScalarField;
    location    "0.5";
    object      T;
}
// * * * * * * * * * * * * * * * * * * * * * * * * * * * * * * * * * * * * * //

dimensions      [0 0 0 1 0 0 0];

internalField   nonuniform List<scalar> 
114
(
299.996
300.002
300.003
300.01
300.013
300.013
299.994
299.994
299.998
299.999
299.999
300
300.004
300.007
300.008
299.995
299.996
300.002
300
299.998
299.995
300.002
300.005
300.005
299.994
299.994
300
300
299.997
299.99
299.993
299.998
299.999
299.998
300.005
300.012
300.013
299.991
299.991
299.991
299.99
299.99
299.996
300.002
300.007
300.01
299.991
299.99
299.992
299.992
299.99
299.991
299.998
300.002
300.004
299.992
299.992
299.993
299.994
299.992
299.99
299.992
299.996
299.997
300.007
300.009
299.988
299.984
299.983
299.981
299.983
299.99
299.998
300.003
300.005
299.988
299.983
299.984
299.984
299.984
299.988
299.993
299.997
300
299.989
299.984
299.985
299.985
299.986
299.987
299.991
299.993
299.995
299.985
299.979
299.979
299.978
299.979
299.986
299.994
299.997
299.986
299.979
299.979
299.979
299.981
299.985
299.989
299.986
299.981
299.982
299.983
299.985
299.987
)
;

boundaryField
{
    inlet
    {
        type            fixedValue;
        value           uniform 300;
    }
    outlet
    {
        type            zeroGradient;
    }
    wall
    {
        type            zeroGradient;
    }
    procBoundary2to0
    {
        type            processor;
        value           nonuniform List<scalar> 
44
(
300.001
299.998
300.002
300.01
300.013
300.014
299.996
299.994
299.995
299.995
299.99
299.989
299.999
300.008
300.013
300.017
299.992
299.991
299.988
299.99
299.989
299.989
299.99
300.002
300.007
300.011
299.988
299.985
299.983
299.981
299.984
299.99
300.002
300.002
300.001
300.007
299.984
299.98
299.979
299.979
299.98
299.986
299.997
300.001
)
;
    }
    procBoundary2to3
    {
        type            processor;
        value           nonuniform List<scalar> 
12
(
300.013
300.008
300.005
299.998
300.018
300.013
300.007
299.999
300.013
300.01
300.004
299.997
)
;
    }
    procBoundary2to6
    {
        type            processor;
        value           nonuniform List<scalar> 
32
(
299.998
299.991
299.996
299.989
299.992
299.994
299.984
299.976
299.976
299.977
299.979
299.986
299.99
299.998
299.991
299.993
299.982
299.977
299.976
299.977
299.979
299.984
299.991
299.989
299.989
299.984
299.979
299.98
299.981
299.983
299.989
299.985
)
;
    }
}


// ************************************************************************* //
