/*--------------------------------*- C++ -*----------------------------------*\
| =========                 |                                                 |
| \\      /  F ield         | OpenFOAM: The Open Source CFD Toolbox           |
|  \\    /   O peration     | Version:  4.x                                   |
|   \\  /    A nd           | Web:      www.OpenFOAM.org                      |
|    \\/     M anipulation  |                                                 |
\*---------------------------------------------------------------------------*/
FoamFile
{
    version     2.0;
    format      ascii;
    class       volScalarField;
    location    "0.5";
    object      thCond;
}
// * * * * * * * * * * * * * * * * * * * * * * * * * * * * * * * * * * * * * //

dimensions      [1 1 -3 -1 0 0 0];

internalField   nonuniform List<scalar> 
114
(
193.248
193.283
193.148
192.808
192.976
192.809
193.376
193.206
193.517
193.333
193.146
192.973
192.629
192.525
192.661
193.543
193.292
193.508
193.233
193.214
193.045
193.164
192.798
192.838
193.636
193.553
193.527
193.37
193.433
193.366
193.429
193.1
193.044
191.755
191.53
191.828
191.517
192.758
192.511
192.346
192.227
192.036
191.882
191.56
191.639
191.757
192.8
192.41
192.256
192.171
192.086
192.006
191.949
191.801
191.795
192.948
192.794
192.522
192.474
192.332
192.339
192.273
192.134
192.183
191.09
191.127
192.09
192.053
191.812
191.6
191.435
191.141
190.925
191.061
191.122
192.316
192.025
191.709
191.394
191.426
191.316
191.115
191.119
190.99
192.453
192.049
191.93
191.75
191.766
191.566
191.279
191.525
191.302
191.785
191.368
191.114
191.028
190.925
190.706
190.624
190.594
191.774
191.495
191.226
191.083
190.924
190.835
190.614
192.072
191.69
191.502
191.244
191.188
191.031
)
;

boundaryField
{
    inlet
    {
        type            zeroGradient;
    }
    outlet
    {
        type            zeroGradient;
    }
    wall
    {
        type            zeroGradient;
    }
    procBoundary2to0
    {
        type            processor;
        value           nonuniform List<scalar> 
44
(
193.594
193.32
193.1
193.072
192.872
192.589
193.834
193.544
193.565
193.565
192.438
191.904
192.02
191.888
191.884
191.914
192.644
192.622
192.536
192.438
191.904
191.904
191.188
191.013
191.301
191.313
192.04
191.892
191.65
191.405
191.217
191.188
191.013
191.013
190.825
190.951
191.933
191.605
191.135
190.875
191.071
190.83
190.541
190.825
)
;
    }
    procBoundary2to3
    {
        type            processor;
        value           nonuniform List<scalar> 
12
(
192.469
192.282
192.315
192.633
191.398
191.42
191.241
191.649
190.463
190.611
190.971
191.022
)
;
    }
    procBoundary2to6
    {
        type            processor;
        value           nonuniform List<scalar> 
32
(
190.605
190.764
190.663
191.069
191.063
190.978
191.015
191.056
191.107
190.646
190.392
190.525
190.252
190.605
190.764
190.333
191.523
191.169
191.093
190.722
190.478
190.452
190.764
191.069
190.396
191.879
191.424
191.388
191.061
190.519
191.069
190.443
)
;
    }
}


// ************************************************************************* //
