/*--------------------------------*- C++ -*----------------------------------*\
| =========                 |                                                 |
| \\      /  F ield         | OpenFOAM: The Open Source CFD Toolbox           |
|  \\    /   O peration     | Version:  4.x                                   |
|   \\  /    A nd           | Web:      www.OpenFOAM.org                      |
|    \\/     M anipulation  |                                                 |
\*---------------------------------------------------------------------------*/
FoamFile
{
    version     2.0;
    format      ascii;
    class       volScalarField;
    location    "35";
    object      particleRelTemp;
}
// * * * * * * * * * * * * * * * * * * * * * * * * * * * * * * * * * * * * * //

dimensions      [0 0 0 0 0 0 0];

internalField   nonuniform List<scalar> 
114
(
-6.87696e-10
-5.99589e-10
-4.352e-10
-3.30451e-10
-1.87314e-10
-1.60371e-10
-8.93462e-10
-8.39229e-10
-7.76989e-10
-6.90654e-10
-5.87346e-10
-4.68764e-10
-3.75918e-10
-2.69092e-10
-2.07521e-10
-9.09322e-10
-8.63571e-10
-7.97274e-10
-7.30983e-10
-6.35379e-10
-5.5661e-10
-4.63038e-10
-3.46215e-10
-3.19308e-10
-9.0848e-10
-8.80993e-10
-8.33884e-10
-7.7603e-10
-6.97941e-10
-6.58046e-10
-5.5202e-10
-4.92676e-10
-4.58279e-10
-3.72565e-10
-2.16318e-10
-8.81761e-11
2.29353e-11
-8.9648e-10
-8.33402e-10
-7.43688e-10
-6.42942e-10
-5.41857e-10
-3.89043e-10
-2.75409e-10
-1.3309e-10
-3.93659e-11
-8.99009e-10
-8.43465e-10
-7.73027e-10
-6.83114e-10
-5.88793e-10
-4.94983e-10
-3.83546e-10
-2.66204e-10
-1.87619e-10
-9.01075e-10
-8.59375e-10
-8.02059e-10
-7.3296e-10
-6.62763e-10
-5.83473e-10
-5.01836e-10
-3.90406e-10
-3.49211e-10
8.40159e-11
1.98878e-10
-8.78296e-10
-8.15573e-10
-7.12461e-10
-5.96573e-10
-4.62365e-10
-2.96386e-10
-1.54135e-10
-2.73282e-12
9.69963e-11
-8.95494e-10
-8.28269e-10
-7.27892e-10
-6.41052e-10
-5.05415e-10
-3.91033e-10
-2.76276e-10
-1.46516e-10
-1.88375e-12
-8.96626e-10
-8.42435e-10
-7.74454e-10
-6.75262e-10
-5.98639e-10
-4.95402e-10
-3.89859e-10
-2.9383e-10
-1.76658e-10
-8.74368e-10
-7.81869e-10
-6.83385e-10
-5.76026e-10
-4.34931e-10
-2.59568e-10
-9.14472e-11
1.31438e-10
-8.9109e-10
-8.10972e-10
-7.36094e-10
-6.12475e-10
-4.88441e-10
-3.48822e-10
-2.62884e-10
-8.99477e-10
-8.37292e-10
-7.54548e-10
-6.70199e-10
-5.67911e-10
-4.42568e-10
)
;

boundaryField
{
    inlet
    {
        type            calculated;
        value           nonuniform List<scalar> 
12
(
-8.93462e-10
-9.09322e-10
-9.0848e-10
-8.9648e-10
-8.99009e-10
-9.01075e-10
-8.78296e-10
-8.95494e-10
-8.96626e-10
-8.74368e-10
-8.9109e-10
-8.99477e-10
)
;
    }
    outlet
    {
        type            calculated;
        value           nonuniform 0();
    }
    wall
    {
        type            calculated;
        value           nonuniform List<scalar> 
66
(
-8.93462e-10
-9.09322e-10
-9.0848e-10
-8.39229e-10
-8.63571e-10
-8.80993e-10
-7.76989e-10
-7.97274e-10
-8.33884e-10
-6.87696e-10
-6.90654e-10
-7.30983e-10
-7.7603e-10
-5.99589e-10
-5.87346e-10
-6.35379e-10
-6.97941e-10
-4.352e-10
-4.68764e-10
-5.5661e-10
-6.58046e-10
-3.30451e-10
-3.75918e-10
-4.63038e-10
-5.5202e-10
-1.87314e-10
-2.69092e-10
-3.46215e-10
-4.92676e-10
-1.60371e-10
-2.07521e-10
-3.19308e-10
-4.58279e-10
-9.0848e-10
-9.01075e-10
-8.96626e-10
-8.99477e-10
-8.80993e-10
-8.59375e-10
-8.42435e-10
-8.37292e-10
-8.33884e-10
-8.02059e-10
-7.74454e-10
-7.54548e-10
-7.7603e-10
-7.3296e-10
-6.75262e-10
-6.70199e-10
-6.97941e-10
-6.62763e-10
-5.98639e-10
-5.67911e-10
-6.58046e-10
-5.83473e-10
-4.95402e-10
-4.42568e-10
-5.5202e-10
-5.01836e-10
-3.89859e-10
-4.92676e-10
-3.90406e-10
-2.9383e-10
-4.58279e-10
-3.49211e-10
-1.76658e-10
)
;
    }
    procBoundary2to0
    {
        type            processor;
        value           nonuniform List<scalar> 
44
(
-6.75508e-10
-5.88272e-10
-4.81388e-10
-3.53298e-10
-2.39232e-10
-1.62214e-10
-9.06544e-10
-8.30883e-10
-7.99224e-10
-7.99224e-10
-5.93611e-10
-4.99495e-10
-4.22031e-10
-2.54038e-10
-1.15789e-10
1.25887e-11
-8.80764e-10
-8.06859e-10
-7.12294e-10
-5.93611e-10
-4.99495e-10
-4.99495e-10
-2.94851e-10
-5.27907e-11
6.74355e-11
1.35297e-10
-8.74803e-10
-7.8356e-10
-6.80987e-10
-5.76198e-10
-4.25748e-10
-2.94851e-10
-5.27907e-11
-5.27907e-11
1.32937e-10
2.76134e-10
-8.73412e-10
-7.98651e-10
-6.86111e-10
-5.37376e-10
-4.04088e-10
-2.18363e-10
1.09412e-11
1.32937e-10
)
;
    }
    procBoundary2to3
    {
        type            processor;
        value           nonuniform List<scalar> 
12
(
-1.99379e-11
-9.85322e-11
-2.42545e-10
-4.06074e-10
1.50011e-10
6.89401e-11
-1.11917e-10
-2.30259e-10
3.69998e-10
2.63682e-10
1.30899e-10
-3.69069e-11
)
;
    }
    procBoundary2to6
    {
        type            processor;
        value           nonuniform List<scalar> 
32
(
2.26943e-10
-1.1874e-10
8.84588e-11
-3.62071e-10
-2.19817e-10
-1.12211e-10
-8.70256e-10
-7.93529e-10
-6.8224e-10
-5.44502e-10
-3.97594e-10
-2.53447e-10
-1.30491e-10
2.26943e-10
-1.1874e-10
2.24402e-11
-8.75065e-10
-8.22634e-10
-7.30185e-10
-6.07331e-10
-4.97224e-10
-3.64323e-10
-1.1874e-10
-3.62071e-10
-2.12213e-10
-8.94624e-10
-8.35436e-10
-7.69804e-10
-6.5434e-10
-5.70107e-10
-3.62071e-10
-4.41529e-10
)
;
    }
}


// ************************************************************************* //
