/*--------------------------------*- C++ -*----------------------------------*\
| =========                 |                                                 |
| \\      /  F ield         | OpenFOAM: The Open Source CFD Toolbox           |
|  \\    /   O peration     | Version:  4.x                                   |
|   \\  /    A nd           | Web:      www.OpenFOAM.org                      |
|    \\/     M anipulation  |                                                 |
\*---------------------------------------------------------------------------*/
FoamFile
{
    version     2.0;
    format      ascii;
    class       volScalarField;
    location    "35";
    object      thCond;
}
// * * * * * * * * * * * * * * * * * * * * * * * * * * * * * * * * * * * * * //

dimensions      [1 1 -3 -1 0 0 0];

internalField   nonuniform List<scalar> 
114
(
192.39
192.355
192.525
192.253
192.378
192.129
192.782
192.522
192.531
192.489
192.229
192.311
192.025
192.011
192.109
192.966
192.624
192.573
192.495
192.488
192.447
192.271
192.238
192.105
193.075
192.92
192.733
192.704
192.828
192.791
192.785
192.496
192.516
191.258
191.057
191.4
191.124
192.233
191.946
191.701
191.555
191.461
191.409
191.068
191.224
191.378
192.287
191.853
191.637
191.57
191.554
191.523
191.401
191.363
191.381
192.445
192.254
191.925
191.906
191.847
191.861
191.778
191.695
191.755
190.738
190.652
191.637
191.594
191.319
191.091
191.021
190.812
190.586
190.742
190.823
191.874
191.563
191.215
190.927
191.005
190.965
190.756
190.786
190.683
192.016
191.595
191.446
191.251
191.403
191.168
190.946
191.178
190.972
191.403
190.976
190.703
190.656
190.565
190.518
190.399
190.352
191.395
191.097
190.771
190.747
190.608
190.526
190.37
191.694
191.297
191.086
190.857
190.884
190.721
)
;

boundaryField
{
    inlet
    {
        type            zeroGradient;
    }
    outlet
    {
        type            zeroGradient;
    }
    wall
    {
        type            zeroGradient;
    }
    procBoundary2to0
    {
        type            processor;
        value           nonuniform List<scalar> 
44
(
192.65
192.614
192.572
192.565
192.444
192.174
193.206
192.886
192.81
192.81
191.786
191.316
191.605
191.389
191.595
191.608
192.1
192.06
191.924
191.786
191.316
191.316
190.72
190.659
190.975
191.025
191.583
191.428
191.168
190.916
190.774
190.72
190.659
190.659
190.585
190.695
191.546
191.212
190.725
190.493
190.654
190.268
190.344
190.585
)
;
    }
    procBoundary2to3
    {
        type            processor;
        value           nonuniform List<scalar> 
12
(
191.756
191.749
191.775
192.103
191.013
191.034
190.836
191.199
190.353
190.358
190.677
190.644
)
;
    }
    procBoundary2to6
    {
        type            processor;
        value           nonuniform List<scalar> 
32
(
190.368
190.502
190.416
190.772
190.775
190.724
190.693
190.715
190.717
190.343
190.092
190.231
190.092
190.368
190.502
190.137
191.194
190.825
190.718
190.333
190.278
190.177
190.502
190.772
190.165
191.546
191.075
190.988
190.642
190.359
190.772
190.178
)
;
    }
}


// ************************************************************************* //
