/*--------------------------------*- C++ -*----------------------------------*\
| =========                 |                                                 |
| \\      /  F ield         | OpenFOAM: The Open Source CFD Toolbox           |
|  \\    /   O peration     | Version:  4.x                                   |
|   \\  /    A nd           | Web:      www.OpenFOAM.org                      |
|    \\/     M anipulation  |                                                 |
\*---------------------------------------------------------------------------*/
FoamFile
{
    version     2.0;
    format      ascii;
    class       volVectorField;
    location    "20.5";
    object      impParticleForces;
}
// * * * * * * * * * * * * * * * * * * * * * * * * * * * * * * * * * * * * * //

dimensions      [1 1 -2 0 0 0 0];

internalField   nonuniform List<vector> 
114
(
(0.00239916 -5.66525e-06 -9.34995e-05)
(0.00243601 -4.57015e-06 -8.80343e-05)
(0.00243697 -3.01358e-06 -7.95228e-05)
(0.00247058 -9.97061e-07 -7.11192e-05)
(0.00244393 2.04446e-06 -5.89355e-05)
(0.00245302 5.781e-06 -4.71451e-05)
(0.00230141 2.07862e-06 -9.64078e-05)
(0.00233127 2.73473e-06 -9.78274e-05)
(0.00237554 3.51512e-06 -9.69887e-05)
(0.00239615 3.93041e-06 -9.26241e-05)
(0.00244092 4.42063e-06 -8.76197e-05)
(0.00243747 4.47469e-06 -7.90813e-05)
(0.00247285 5.11639e-06 -7.08148e-05)
(0.00245692 6.12163e-06 -5.94727e-05)
(0.00245522 8.05231e-06 -4.79007e-05)
(0.00227481 9.54272e-06 -9.3886e-05)
(0.00230992 1.03735e-05 -9.557e-05)
(0.00235356 1.10861e-05 -9.49034e-05)
(0.00237612 1.10414e-05 -9.05863e-05)
(0.00242109 1.11991e-05 -8.55938e-05)
(0.00242105 1.03581e-05 -7.74754e-05)
(0.00245723 1.02933e-05 -6.94528e-05)
(0.00245091 1.00003e-05 -5.90716e-05)
(0.0024642 1.09458e-05 -4.88049e-05)
(0.00223707 1.24625e-05 -9.08961e-05)
(0.00226038 1.30749e-05 -9.16442e-05)
(0.00231341 1.39497e-05 -9.13788e-05)
(0.00232788 1.35998e-05 -8.70925e-05)
(0.00236108 1.33979e-05 -8.20008e-05)
(0.0023694 1.25663e-05 -7.45529e-05)
(0.00238597 1.21397e-05 -6.65885e-05)
(0.00240368 1.1907e-05 -5.75428e-05)
(0.00241699 1.24295e-05 -4.77865e-05)
(0.00249953 -3.58651e-06 -8.15549e-05)
(0.00253201 -1.68068e-06 -7.3225e-05)
(0.00247694 1.24186e-06 -5.91949e-05)
(0.00249498 4.43168e-06 -4.74399e-05)
(0.00232847 2.83955e-06 -9.64395e-05)
(0.00237881 3.62615e-06 -9.94088e-05)
(0.00244346 4.66571e-06 -0.000100637)
(0.00245684 5.07456e-06 -9.52619e-05)
(0.00249182 5.55277e-06 -8.97165e-05)
(0.00247812 5.17389e-06 -8.01095e-05)
(0.0025209 5.74434e-06 -7.24773e-05)
(0.0024835 6.45459e-06 -6.00092e-05)
(0.00247822 8.02541e-06 -4.79138e-05)
(0.00231188 1.10264e-05 -9.47758e-05)
(0.00236796 1.24629e-05 -9.80479e-05)
(0.00243814 1.3958e-05 -9.95547e-05)
(0.0024432 1.32867e-05 -9.36047e-05)
(0.00247145 1.31094e-05 -8.77109e-05)
(0.00246907 1.20458e-05 -7.90923e-05)
(0.00249823 1.1827e-05 -7.11142e-05)
(0.00247907 1.11976e-05 -6.02334e-05)
(0.0024866 1.18149e-05 -4.94028e-05)
(0.00226297 1.38131e-05 -9.07858e-05)
(0.00230313 1.49472e-05 -9.2668e-05)
(0.00237411 1.65086e-05 -9.41857e-05)
(0.00237241 1.558e-05 -8.85466e-05)
(0.0023957 1.51005e-05 -8.29341e-05)
(0.00240774 1.42084e-05 -7.56415e-05)
(0.00242717 1.3814e-05 -6.76891e-05)
(0.00242351 1.31961e-05 -5.82392e-05)
(0.00242304 1.34666e-05 -4.80549e-05)
(0.00243666 2.15858e-07 -5.30538e-05)
(0.00243856 2.75221e-06 -4.1585e-05)
(0.00235292 3.81944e-06 -9.10065e-05)
(0.00238618 4.49797e-06 -9.25174e-05)
(0.00244183 5.5091e-06 -9.30069e-05)
(0.00244788 5.66883e-06 -8.79234e-05)
(0.0024693 5.86936e-06 -8.20169e-05)
(0.00245775 5.6148e-06 -7.33963e-05)
(0.00248216 6.14459e-06 -6.53672e-05)
(0.00244286 6.64309e-06 -5.40151e-05)
(0.00243821 7.90835e-06 -4.27661e-05)
(0.00232157 1.20804e-05 -8.84162e-05)
(0.00236877 1.3494e-05 -9.08636e-05)
(0.00244075 1.53587e-05 -9.24784e-05)
(0.00244843 1.47387e-05 -8.78324e-05)
(0.002465 1.42982e-05 -8.15141e-05)
(0.00244526 1.28053e-05 -7.28017e-05)
(0.00247957 1.2988e-05 -6.54927e-05)
(0.00244908 1.21511e-05 -5.52039e-05)
(0.00246233 1.27078e-05 -4.52104e-05)
(0.0022807 1.51865e-05 -8.55385e-05)
(0.00232165 1.66037e-05 -8.74716e-05)
(0.00237794 1.79344e-05 -8.79563e-05)
(0.00238708 1.72555e-05 -8.38969e-05)
(0.00238782 1.61298e-05 -7.72792e-05)
(0.00240148 1.54028e-05 -7.0716e-05)
(0.00243393 1.54627e-05 -6.3803e-05)
(0.00240468 1.42251e-05 -5.42298e-05)
(0.00241803 1.4531e-05 -4.50848e-05)
(0.00235542 4.45147e-06 -7.93814e-05)
(0.00240664 5.38814e-06 -8.11827e-05)
(0.00245713 6.46649e-06 -8.13157e-05)
(0.00243981 6.0446e-06 -7.60357e-05)
(0.00245603 6.14131e-06 -7.0806e-05)
(0.00242737 5.72301e-06 -6.28667e-05)
(0.00244167 6.18543e-06 -5.53672e-05)
(0.00240129 6.54212e-06 -4.55946e-05)
(0.00232751 1.30342e-05 -7.7556e-05)
(0.00237579 1.45984e-05 -7.94965e-05)
(0.00244164 1.63629e-05 -8.02791e-05)
(0.0024253 1.48261e-05 -7.54771e-05)
(0.00245296 1.46956e-05 -7.09224e-05)
(0.00242545 1.31679e-05 -6.33952e-05)
(0.00244688 1.32066e-05 -5.6596e-05)
(0.00227443 1.58565e-05 -7.49624e-05)
(0.00231637 1.73119e-05 -7.66064e-05)
(0.00237878 1.89061e-05 -7.73864e-05)
(0.00237864 1.78219e-05 -7.36518e-05)
(0.00240198 1.73701e-05 -6.90906e-05)
(0.00238531 1.59038e-05 -6.22587e-05)
)
;

boundaryField
{
    inlet
    {
        type            zeroGradient;
    }
    outlet
    {
        type            zeroGradient;
    }
    wall
    {
        type            zeroGradient;
    }
    procBoundary2to0
    {
        type            processor;
        value           nonuniform List<vector> 
44
(
(0.00239076 -1.4846e-05 -9.27243e-05)
(0.00244094 -1.32195e-05 -8.78484e-05)
(0.00244063 -1.01332e-05 -7.9236e-05)
(0.00245831 -6.54579e-06 -7.02173e-05)
(0.00245605 -1.38939e-06 -5.8687e-05)
(0.00248894 4.93886e-06 -4.74266e-05)
(0.00229443 -7.48592e-06 -9.69198e-05)
(0.00231833 -7.25088e-06 -9.76848e-05)
(0.0023566 -6.63697e-06 -9.66314e-05)
(0.0023566 -6.63697e-06 -9.66314e-05)
(0.00244394 -6.02733e-06 -9.48982e-05)
(0.00250767 -4.83522e-06 -9.13302e-05)
(0.00248982 -1.18247e-05 -8.05024e-05)
(0.00252452 -8.72966e-06 -7.21133e-05)
(0.00247866 -3.5607e-06 -5.88255e-05)
(0.00248836 1.81552e-06 -4.65864e-05)
(0.0023508 -7.76201e-06 -9.91602e-05)
(0.00237865 -7.6122e-06 -0.00010026)
(0.00243323 -7.20706e-06 -0.000100896)
(0.00244394 -6.02733e-06 -9.48982e-05)
(0.00250767 -4.83522e-06 -9.13302e-05)
(0.00250767 -4.83522e-06 -9.13302e-05)
(0.00247278 -3.73876e-06 -7.41356e-05)
(0.0024868 -2.11099e-06 -6.51633e-05)
(0.0024376 -5.79649e-06 -5.28068e-05)
(0.0024375 -1.7824e-06 -4.1269e-05)
(0.00236469 -7.67008e-06 -9.24661e-05)
(0.00240158 -7.66603e-06 -9.44821e-05)
(0.00246 -7.27256e-06 -9.49488e-05)
(0.00246069 -6.18397e-06 -8.91119e-05)
(0.00249236 -5.12705e-06 -8.34976e-05)
(0.00247278 -3.73876e-06 -7.41356e-05)
(0.0024868 -2.11099e-06 -6.51633e-05)
(0.0024868 -2.11099e-06 -6.51633e-05)
(0.00239005 -8.67751e-07 -4.45179e-05)
(0.00237865 1.00697e-06 -3.41194e-05)
(0.00235 -7.76637e-06 -7.94058e-05)
(0.00239727 -7.75922e-06 -8.12002e-05)
(0.00246189 -7.55333e-06 -8.15624e-05)
(0.00245524 -6.4097e-06 -7.67703e-05)
(0.00245456 -5.43866e-06 -7.04675e-05)
(0.00244352 -4.13329e-06 -6.31666e-05)
(0.00244831 -2.71331e-06 -5.50159e-05)
(0.00239005 -8.67751e-07 -4.45179e-05)
)
;
    }
    procBoundary2to3
    {
        type            processor;
        value           nonuniform List<vector> 
12
(
(0.00249352 1.00178e-05 -3.51726e-05)
(0.00248841 1.01566e-05 -3.61166e-05)
(0.002477 1.22516e-05 -3.76478e-05)
(0.00240807 1.33744e-05 -3.70405e-05)
(0.00248686 8.11588e-06 -3.39024e-05)
(0.00249119 9.94327e-06 -3.57122e-05)
(0.00251569 1.29264e-05 -3.87188e-05)
(0.00244655 1.44198e-05 -3.84269e-05)
(0.00243222 5.50643e-06 -2.90011e-05)
(0.00243948 9.37545e-06 -3.12612e-05)
(0.00244554 1.31265e-05 -3.40607e-05)
(0.00241671 1.50362e-05 -3.55015e-05)
)
;
    }
    procBoundary2to6
    {
        type            processor;
        value           nonuniform List<vector> 
32
(
(0.00240966 7.72738e-06 -3.56869e-05)
(0.00240748 1.22268e-05 -4.74399e-05)
(0.00242362 1.26966e-05 -3.85325e-05)
(0.00239003 1.52887e-05 -5.5238e-05)
(0.00237407 1.44427e-05 -4.74541e-05)
(0.00238095 1.44852e-05 -3.92787e-05)
(0.00237498 5.19951e-06 -6.55536e-05)
(0.00240218 5.49263e-06 -6.55457e-05)
(0.00242465 5.98298e-06 -6.42363e-05)
(0.00242197 5.66554e-06 -6.10484e-05)
(0.00244559 5.79123e-06 -5.72954e-05)
(0.00240453 5.28453e-06 -5.08523e-05)
(0.00241854 5.5842e-06 -4.46058e-05)
(0.00240966 7.72738e-06 -3.56869e-05)
(0.00240748 1.22268e-05 -4.74399e-05)
(0.00237257 5.59558e-06 -3.67305e-05)
(0.00233952 1.43334e-05 -6.43506e-05)
(0.00237758 1.53968e-05 -6.48245e-05)
(0.00241478 1.61995e-05 -6.39889e-05)
(0.0024185 1.51083e-05 -6.12545e-05)
(0.00243704 1.46489e-05 -5.75983e-05)
(0.00241132 1.32338e-05 -5.20388e-05)
(0.00240748 1.22268e-05 -4.74399e-05)
(0.00239003 1.52887e-05 -5.5238e-05)
(0.00242207 1.29663e-05 -4.59742e-05)
(0.00228321 1.68458e-05 -6.30617e-05)
(0.00231789 1.80526e-05 -6.37126e-05)
(0.0023461 1.83138e-05 -6.2892e-05)
(0.00235818 1.75723e-05 -6.0589e-05)
(0.00239489 1.7486e-05 -5.72452e-05)
(0.00239003 1.52887e-05 -5.5238e-05)
(0.00238714 1.63921e-05 -5.24718e-05)
)
;
    }
}


// ************************************************************************* //
