/*--------------------------------*- C++ -*----------------------------------*\
| =========                 |                                                 |
| \\      /  F ield         | OpenFOAM: The Open Source CFD Toolbox           |
|  \\    /   O peration     | Version:  4.x                                   |
|   \\  /    A nd           | Web:      www.OpenFOAM.org                      |
|    \\/     M anipulation  |                                                 |
\*---------------------------------------------------------------------------*/
FoamFile
{
    version     2.0;
    format      ascii;
    class       volScalarField;
    location    "20.5";
    object      KslPrev;
}
// * * * * * * * * * * * * * * * * * * * * * * * * * * * * * * * * * * * * * //

dimensions      [1 -3 -1 0 0 0 0];

internalField   nonuniform List<scalar> 
114
(
6056.92
3223.41
5343.61
3105.18
4848.42
2941.64
3489.63
7512.94
3401.62
6477.76
3325.2
5845.87
3216.21
5367.65
3061.65
3430.53
7135.04
3300.62
5925.78
3203.29
5291.89
3093.63
4898.26
2974.26
3371.13
6444.17
3155.83
5132.76
2967.03
4436.14
2795.68
4018.01
2680.44
11504.6
3824.61
13471.4
3770.4
3538.38
8845.29
3673.63
9829.81
3751.15
10911.1
3759.88
12350
3662.5
3500.24
8480.69
3618.85
8865.53
3643.31
9210.02
3644.5
9916.16
3605.38
3418.61
7124.86
3367.76
6252.65
3232.79
5677.67
3131.34
5292.24
2998.7
72310.8
3966.45
3585.07
9615.88
3801.44
12687.8
3908.56
17617.5
3952.26
28768.1
3921.9
3522.98
9220.38
3736.73
11555.3
3837.21
14815.3
3894.43
22545.4
3894.39
3444.14
7669.33
3465.13
7238.16
3389.47
6796.54
3373.01
6624.59
3283.52
3603.08
9840.24
3829.89
12583
3861.68
15391.1
3823.64
19137.5
3553.46
9130.41
3762.75
10872.2
3811.16
12651.6
3784.64
3438.91
7466.41
3466.77
7126.47
3406.29
6774.42
)
;

boundaryField
{
    inlet
    {
        type            zeroGradient;
    }
    outlet
    {
        type            zeroGradient;
    }
    wall
    {
        type            zeroGradient;
    }
    procBoundary2to0
    {
        type            processor;
        value           uniform 0;
    }
    procBoundary2to3
    {
        type            processor;
        value           uniform 0;
    }
    procBoundary2to6
    {
        type            processor;
        value           uniform 0;
    }
}


// ************************************************************************* //
