/*--------------------------------*- C++ -*----------------------------------*\
| =========                 |                                                 |
| \\      /  F ield         | OpenFOAM: The Open Source CFD Toolbox           |
|  \\    /   O peration     | Version:  4.x                                   |
|   \\  /    A nd           | Web:      www.OpenFOAM.org                      |
|    \\/     M anipulation  |                                                 |
\*---------------------------------------------------------------------------*/
FoamFile
{
    version     2.0;
    format      ascii;
    class       volScalarField;
    location    "20.5";
    object      QPartFluidCoeff;
}
// * * * * * * * * * * * * * * * * * * * * * * * * * * * * * * * * * * * * * //

dimensions      [1 -1 -3 -1 0 0 0];

internalField   nonuniform List<scalar> 
114
(
-2.38873e+07
-1.85838e+07
-1.02499e+07
-1.994e+07
-9.43178e+06
-1.01333e+07
-1.92892e+07
-2.31746e+07
-2.03533e+07
-1.47421e+07
-2.44786e+07
-1.68435e+07
-2.34919e+07
-2.29229e+07
-1.5073e+07
-1.28473e+07
-2.06373e+07
-1.69501e+07
-1.80814e+07
-1.93023e+07
-1.75785e+07
-2.26139e+07
-1.82213e+07
-2.17296e+07
-1.32002e+07
-1.33709e+07
-1.70984e+07
-1.5202e+07
-1.31371e+07
-1.36921e+07
-1.01724e+07
-1.77994e+07
-1.31946e+07
-3.29817e+07
-4.07095e+07
-2.21277e+07
-3.72965e+07
-1.57051e+07
-2.65918e+07
-3.1951e+07
-3.08823e+07
-2.96513e+07
-2.39228e+07
-3.74694e+07
-2.96591e+07
-2.15252e+07
-1.94344e+07
-3.35132e+07
-3.54082e+07
-3.07289e+07
-3.14009e+07
-2.9689e+07
-3.05348e+07
-2.98771e+07
-2.56756e+07
-1.68078e+07
-1.80458e+07
-2.77301e+07
-2.01202e+07
-2.52058e+07
-2.1871e+07
-2.23234e+07
-2.37503e+07
-1.59943e+07
-2.61524e+07
-3.05118e+07
-2.27996e+07
-1.9232e+07
-2.2486e+07
-2.28597e+07
-2.25663e+07
-2.60986e+07
-3.29005e+07
-2.43533e+07
-1.91727e+07
-1.65596e+07
-2.32903e+07
-3.01853e+07
-3.50961e+07
-3.05259e+07
-2.3623e+07
-3.14988e+07
-2.84367e+07
-3.40365e+07
-1.65979e+07
-2.54248e+07
-2.31386e+07
-2.50534e+07
-1.58742e+07
-2.28117e+07
-3.21459e+07
-1.7982e+07
-2.56651e+07
-1.62593e+07
-3.18224e+07
-3.43585e+07
-2.46018e+07
-2.75901e+07
-2.14331e+07
-2.54014e+07
-2.64507e+07
-1.95079e+07
-2.64996e+07
-3.49648e+07
-2.21412e+07
-3.02478e+07
-2.57129e+07
-3.42566e+07
-1.41234e+07
-2.11215e+07
-2.4899e+07
-2.42432e+07
-2.23561e+07
-2.16997e+07
)
;

boundaryField
{
    inlet
    {
        type            calculated;
        value           uniform 0;
    }
    outlet
    {
        type            calculated;
        value           nonuniform 0();
    }
    wall
    {
        type            calculated;
        value           uniform 0;
    }
    procBoundary2to0
    {
        type            processor;
        value           nonuniform List<scalar> 
44
(
385.701
420.158
373.205
302.757
395.55
644.817
223.254
343.379
264.369
264.369
418.033
853.692
582.878
795.999
528.684
479.016
599.312
534.541
586.611
418.033
853.692
853.692
604.995
653.794
475.576
403.617
519.816
656.656
719.5
678.476
749.152
604.995
653.794
653.794
422.468
196.585
364.11
511.738
728.985
791.951
415.327
749.823
643.732
422.468
)
;
    }
    procBoundary2to3
    {
        type            processor;
        value           nonuniform List<scalar> 
12
(
651.311
488.589
505.446
329.103
647.06
592.303
966.496
639.163
608.831
726.069
456.113
664.98
)
;
    }
    procBoundary2to6
    {
        type            processor;
        value           nonuniform List<scalar> 
32
(
614.731
510.085
670.379
427.43
469.626
421.704
751.144
679.38
460.037
613.348
839.997
470.684
659.234
614.731
510.085
504.711
474.432
700.103
615.716
776.786
666.841
666.718
510.085
427.43
658.765
351.255
576.2
448.008
466.031
653.552
427.43
716.942
)
;
    }
}


// ************************************************************************* //
