/*--------------------------------*- C++ -*----------------------------------*\
| =========                 |                                                 |
| \\      /  F ield         | OpenFOAM: The Open Source CFD Toolbox           |
|  \\    /   O peration     | Version:  4.x                                   |
|   \\  /    A nd           | Web:      www.OpenFOAM.org                      |
|    \\/     M anipulation  |                                                 |
\*---------------------------------------------------------------------------*/
FoamFile
{
    version     2.0;
    format      ascii;
    class       volScalarField;
    location    "20.5";
    object      QPartFluid;
}
// * * * * * * * * * * * * * * * * * * * * * * * * * * * * * * * * * * * * * //

dimensions      [1 -1 -3 0 0 0 0];

internalField   nonuniform List<scalar> 
114
(
7.16618e+09
5.57514e+09
3.07496e+09
5.98199e+09
2.82953e+09
3.04e+09
5.78675e+09
6.95237e+09
6.10599e+09
4.42263e+09
7.34357e+09
5.05306e+09
7.04756e+09
6.87687e+09
4.52191e+09
3.85418e+09
6.19118e+09
5.08503e+09
5.42442e+09
5.79069e+09
5.27354e+09
6.78417e+09
5.46638e+09
6.51887e+09
3.96005e+09
4.01128e+09
5.12952e+09
4.5606e+09
3.94113e+09
4.10764e+09
3.05172e+09
5.33983e+09
3.95839e+09
9.89449e+09
1.22128e+10
6.63831e+09
1.11889e+10
4.71153e+09
7.97754e+09
9.58529e+09
9.26469e+09
8.89538e+09
7.17685e+09
1.12408e+10
8.89772e+09
6.45755e+09
5.83032e+09
1.0054e+10
1.06225e+10
9.21866e+09
9.42027e+09
8.9067e+09
9.16043e+09
8.96312e+09
7.70268e+09
5.04233e+09
5.41375e+09
8.31904e+09
6.03605e+09
7.56175e+09
6.5613e+09
6.69701e+09
7.12508e+09
4.7983e+09
7.84572e+09
9.15353e+09
6.83988e+09
5.76959e+09
6.74581e+09
6.85791e+09
6.76988e+09
7.82959e+09
9.87013e+09
7.30599e+09
5.75181e+09
4.96789e+09
6.9871e+09
9.05558e+09
1.05288e+10
9.15778e+09
7.08689e+09
9.44965e+09
8.53101e+09
1.02109e+10
4.97938e+09
7.62745e+09
6.94158e+09
7.51601e+09
4.76226e+09
6.8435e+09
9.64377e+09
5.39461e+09
7.69952e+09
4.87779e+09
9.54672e+09
1.03075e+10
7.38054e+09
8.27704e+09
6.42991e+09
7.62041e+09
7.93521e+09
5.85237e+09
7.94987e+09
1.04894e+10
6.64237e+09
9.07433e+09
7.71386e+09
1.0277e+10
4.23701e+09
6.33645e+09
7.46971e+09
7.27296e+09
6.70684e+09
6.50991e+09
)
;

boundaryField
{
    inlet
    {
        type            calculated;
        value           uniform 0;
    }
    outlet
    {
        type            calculated;
        value           nonuniform 0();
    }
    wall
    {
        type            calculated;
        value           uniform 0;
    }
    procBoundary2to0
    {
        type            processor;
        value           nonuniform List<scalar> 
44
(
5.10283e+09
5.55868e+09
4.93751e+09
4.00547e+09
5.23312e+09
8.53093e+09
2.95366e+09
4.5429e+09
3.4976e+09
3.4976e+09
5.53058e+09
1.12943e+10
7.71148e+09
1.05311e+10
6.99449e+09
6.33738e+09
7.92889e+09
7.07197e+09
7.76086e+09
5.53058e+09
1.12943e+10
1.12943e+10
8.00408e+09
8.64969e+09
6.29187e+09
5.33985e+09
6.87717e+09
8.68756e+09
9.51898e+09
8.97624e+09
9.91128e+09
8.00408e+09
8.64969e+09
8.64969e+09
5.58925e+09
2.60081e+09
4.81718e+09
6.77029e+09
9.64447e+09
1.04775e+10
5.49477e+09
9.92015e+09
8.51657e+09
5.58925e+09
)
;
    }
    procBoundary2to3
    {
        type            processor;
        value           nonuniform List<scalar> 
12
(
8.61684e+09
6.46403e+09
6.68705e+09
4.35403e+09
8.5606e+09
7.83616e+09
1.27867e+10
8.45612e+09
8.05483e+09
9.60589e+09
6.03437e+09
8.79768e+09
)
;
    }
    procBoundary2to6
    {
        type            processor;
        value           nonuniform List<scalar> 
32
(
8.13289e+09
6.74842e+09
8.86912e+09
5.65489e+09
6.21315e+09
5.57914e+09
9.93763e+09
8.9882e+09
6.08628e+09
8.11459e+09
1.11132e+10
6.22714e+09
8.72167e+09
8.13289e+09
6.74842e+09
6.67733e+09
6.27674e+09
9.26236e+09
8.14592e+09
1.02769e+10
8.82231e+09
8.82068e+09
6.74842e+09
5.65489e+09
8.71545e+09
4.6471e+09
7.62313e+09
5.92715e+09
6.16559e+09
8.64649e+09
5.65489e+09
9.48515e+09
)
;
    }
}


// ************************************************************************* //
