/*--------------------------------*- C++ -*----------------------------------*\
| =========                 |                                                 |
| \\      /  F ield         | OpenFOAM: The Open Source CFD Toolbox           |
|  \\    /   O peration     | Version:  4.x                                   |
|   \\  /    A nd           | Web:      www.OpenFOAM.org                      |
|    \\/     M anipulation  |                                                 |
\*---------------------------------------------------------------------------*/
FoamFile
{
    version     2.0;
    format      ascii;
    class       volScalarField;
    location    "20.5";
    object      SPartFluid;
}
// * * * * * * * * * * * * * * * * * * * * * * * * * * * * * * * * * * * * * //

dimensions      [1 -3 -1 0 0 0 0];

internalField   nonuniform List<scalar> 
114
(
6.50998e-65
4.88247e-65
2.55744e-65
4.88239e-65
2.24743e-65
2.63491e-65
5.73506e-65
6.51005e-65
5.11502e-65
3.79749e-65
6.19995e-65
4.41742e-65
5.88987e-65
6.12233e-65
3.9524e-65
4.03005e-65
5.65755e-65
4.57252e-65
4.96e-65
4.49498e-65
4.57245e-65
5.34741e-65
4.4174e-65
5.26988e-65
4.41755e-65
4.26255e-65
4.65004e-65
4.57252e-65
3.33251e-65
3.79749e-65
2.71248e-65
4.80495e-65
3.09997e-65
8.44729e-65
9.76469e-65
5.73478e-65
9.2221e-65
5.42506e-65
6.82004e-65
7.6725e-65
7.82744e-65
6.9749e-65
6.27735e-65
8.98973e-65
7.59471e-65
5.19231e-65
6.04507e-65
8.60256e-65
8.29252e-65
7.59497e-65
7.43992e-65
7.28488e-65
7.05233e-65
7.43979e-65
5.96731e-65
5.89007e-65
5.19255e-65
6.97503e-65
5.8125e-65
6.89747e-65
5.88994e-65
5.88992e-65
6.50987e-65
4.26241e-65
7.59462e-65
8.13708e-65
7.28507e-65
4.96003e-65
5.50248e-65
6.04494e-65
5.57989e-65
7.1298e-65
8.3697e-65
6.58721e-65
4.88226e-65
5.34756e-65
6.04504e-65
7.13e-65
9.06744e-65
7.28489e-65
6.43235e-65
7.51728e-65
7.43974e-65
8.36965e-65
5.34756e-65
7.51756e-65
6.04502e-65
6.97497e-65
4.64997e-65
6.5099e-65
8.29234e-65
4.95987e-65
6.66481e-65
4.80504e-65
8.13753e-65
8.36998e-65
6.58743e-65
6.81987e-65
5.88982e-65
6.27725e-65
7.74962e-65
6.89757e-65
6.89754e-65
8.37e-65
5.81246e-65
7.20738e-65
6.89732e-65
8.36975e-65
5.27006e-65
6.51005e-65
6.27751e-65
7.12997e-65
5.50245e-65
6.35489e-65
)
;

boundaryField
{
    inlet
    {
        type            calculated;
        value           uniform 0;
    }
    outlet
    {
        type            calculated;
        value           nonuniform 0();
    }
    wall
    {
        type            calculated;
        value           uniform 0;
    }
    procBoundary2to0
    {
        type            processor;
        value           nonuniform List<scalar> 
44
(
4.72748e-65
4.26246e-65
4.33994e-65
3.25493e-65
4.49488e-65
6.89731e-65
2.86753e-65
4.41753e-65
3.25502e-65
3.25502e-65
4.72745e-65
8.98985e-65
6.58737e-65
8.29226e-65
6.04479e-65
4.9598e-65
8.06008e-65
6.12254e-65
6.12249e-65
4.72745e-65
8.98985e-65
8.98985e-65
7.12979e-65
7.1297e-65
6.1997e-65
4.57228e-65
7.28507e-65
7.59503e-65
7.67247e-65
8.13741e-65
8.21483e-65
7.12979e-65
7.1297e-65
7.1297e-65
5.42473e-65
2.32485e-65
5.27005e-65
5.89003e-65
7.82748e-65
9.22239e-65
4.49491e-65
9.1447e-65
7.12969e-65
5.42473e-65
)
;
    }
    procBoundary2to3
    {
        type            processor;
        value           nonuniform List<scalar> 
12
(
6.97475e-65
5.19233e-65
5.50236e-65
4.64994e-65
7.51714e-65
6.66471e-65
1.03847e-64
7.74979e-65
7.67205e-65
9.06701e-65
5.11478e-65
8.52471e-65
)
;
    }
    procBoundary2to6
    {
        type            processor;
        value           nonuniform List<scalar> 
32
(
6.74214e-65
6.04478e-65
7.12968e-65
5.1149e-65
5.81234e-65
4.95984e-65
1.03851e-64
7.59504e-65
4.95999e-65
7.43992e-65
9.3773e-65
6.12231e-65
7.36224e-65
6.74214e-65
6.04478e-65
6.50971e-65
5.81256e-65
7.90505e-65
6.4325e-65
8.83493e-65
7.05239e-65
7.82732e-65
6.04478e-65
5.1149e-65
7.05228e-65
4.96006e-65
7.20755e-65
5.42502e-65
6.12248e-65
7.59494e-65
5.1149e-65
8.75735e-65
)
;
    }
}


// ************************************************************************* //
