/*--------------------------------*- C++ -*----------------------------------*\
| =========                 |                                                 |
| \\      /  F ield         | OpenFOAM: The Open Source CFD Toolbox           |
|  \\    /   O peration     | Version:  4.x                                   |
|   \\  /    A nd           | Web:      www.OpenFOAM.org                      |
|    \\/     M anipulation  |                                                 |
\*---------------------------------------------------------------------------*/
FoamFile
{
    version     2.0;
    format      ascii;
    class       volVectorField;
    location    "18";
    object      ddtUrel;
}
// * * * * * * * * * * * * * * * * * * * * * * * * * * * * * * * * * * * * * //

dimensions      [0 1 -2 0 0 0 0];

internalField   nonuniform List<vector> 
87
(
(1.34506e-06 -8.5225e-08 -4.01625e-07)
(1.31e-06 1.6003e-07 -6.34592e-07)
(1.12191e-06 1.40475e-07 -6.61719e-07)
(5.23971e-07 -6.9519e-08 -6.20836e-07)
(-5.02133e-08 -2.13291e-07 -7.42505e-07)
(-4.27888e-07 -1.9e-07 -6.00427e-07)
(-8.7941e-07 -1.23803e-07 -3.84828e-07)
(-1.17892e-06 -1.26042e-07 -3.02968e-07)
(-9.29367e-07 -1.16661e-07 -2.48244e-07)
(1.67395e-06 -2.8067e-07 -4.5011e-07)
(1.45122e-06 -6.12675e-08 -6.48086e-07)
(1.22361e-06 -5.13011e-08 -6.76097e-07)
(6.17894e-07 -1.22668e-07 -5.92474e-07)
(1.11636e-07 -2.88415e-07 -6.26816e-07)
(-5.00814e-07 -2.36775e-07 -5.79675e-07)
(-1.03055e-06 -1.18626e-07 -4.47032e-07)
(-1.32605e-06 -1.54673e-07 -3.602e-07)
(-1.04958e-06 -1.46505e-07 -3.00809e-07)
(2.0184e-06 -5.06021e-07 -6.37702e-07)
(1.86672e-06 -3.79996e-07 -7.67677e-07)
(1.53766e-06 -4.19764e-07 -7.56368e-07)
(6.41311e-07 -2.83009e-07 -6.4544e-07)
(6.28457e-08 -2.44094e-07 -6.3853e-07)
(-3.45261e-07 -1.8357e-07 -5.93382e-07)
(-1.06289e-06 -1.13632e-07 -5.24294e-07)
(-1.48653e-06 -1.53016e-07 -4.97852e-07)
(-1.12453e-06 -1.63456e-07 -4.25427e-07)
(1.31797e-06 -1.4657e-07 -3.95989e-07)
(1.24183e-06 -8.16057e-08 -5.24244e-07)
(1.12931e-06 -5.88055e-08 -5.66688e-07)
(6.72161e-07 -1.25447e-07 -5.50266e-07)
(2.29417e-07 -1.76972e-07 -6.0915e-07)
(-1.29255e-07 -1.67522e-07 -5.25337e-07)
(-7.10699e-07 -1.15734e-07 -3.4655e-07)
(-1.04769e-06 -1.2034e-07 -2.71335e-07)
(-9.3822e-07 -1.05705e-07 -2.3375e-07)
(1.54401e-06 -3.12262e-07 -4.2694e-07)
(1.36296e-06 -2.24246e-07 -6.1022e-07)
(1.2296e-06 -1.64298e-07 -6.40079e-07)
(6.80722e-07 -1.56475e-07 -6.01622e-07)
(2.37855e-07 -2.36751e-07 -5.77447e-07)
(-1.73962e-07 -2.08588e-07 -5.09898e-07)
(-8.78227e-07 -1.22686e-07 -3.81012e-07)
(-1.24844e-06 -1.68704e-07 -2.93177e-07)
(-1.05451e-06 -1.46569e-07 -2.70347e-07)
(1.89353e-06 -5.10785e-07 -6.21904e-07)
(1.73567e-06 -3.9394e-07 -7.84609e-07)
(1.5351e-06 -4.18961e-07 -7.85382e-07)
(7.72798e-07 -3.06789e-07 -6.61715e-07)
(2.41058e-07 -2.31026e-07 -5.73237e-07)
(-1.07855e-07 -1.63934e-07 -4.9367e-07)
(-9.31241e-07 -9.80719e-08 -4.32255e-07)
(-1.36287e-06 -1.1165e-07 -3.59198e-07)
(-1.0837e-06 -1.17844e-07 -3.55048e-07)
(1.29749e-06 -1.52423e-07 -4.18053e-07)
(1.18958e-06 -1.74076e-07 -4.68392e-07)
(1.12636e-06 -1.45776e-07 -4.91006e-07)
(7.60884e-07 -1.47751e-07 -4.77142e-07)
(2.76733e-07 -1.54568e-07 -4.66882e-07)
(-1.30009e-07 -1.31222e-07 -3.81089e-07)
(-7.17445e-07 -1.04951e-07 -2.69171e-07)
(-1.05521e-06 -1.1604e-07 -2.12668e-07)
(-9.22062e-07 -1.04787e-07 -1.87504e-07)
(1.40205e-06 -3.06151e-07 -5.1179e-07)
(1.27057e-06 -2.55846e-07 -5.5466e-07)
(1.24435e-06 -1.97311e-07 -6.08423e-07)
(7.90419e-07 -1.98604e-07 -5.52938e-07)
(3.65499e-07 -2.23875e-07 -4.54048e-07)
(1.72257e-08 -1.65491e-07 -3.87477e-07)
(-7.33057e-07 -1.03567e-07 -2.766e-07)
(-1.16441e-06 -1.23378e-07 -2.08726e-07)
(-1.00567e-06 -1.19175e-07 -1.97235e-07)
(1.721e-06 -4.83781e-07 -7.11463e-07)
(1.68087e-06 -3.68245e-07 -7.74798e-07)
(1.46774e-06 -3.33964e-07 -7.96262e-07)
(8.65655e-07 -2.75633e-07 -6.73733e-07)
(4.25011e-07 -2.92778e-07 -4.84045e-07)
(1.15593e-07 -1.66422e-07 -3.88345e-07)
(-7.77236e-07 -9.84672e-08 -2.8456e-07)
(-1.36967e-06 -1.13196e-07 -1.90378e-07)
(-1.13541e-06 -1.10409e-07 -1.84244e-07)
(1.381e-06 -1.59998e-07 -4.54223e-07)
(1.27866e-06 -1.6919e-07 -4.53521e-07)
(1.06805e-06 -1.68449e-07 -4.54713e-07)
(1.41292e-06 -2.5684e-07 -5.82322e-07)
(1.28531e-06 -2.40707e-07 -5.26103e-07)
(1.68679e-06 -3.80273e-07 -7.75634e-07)
)
;

boundaryField
{
    inlet
    {
        type            calculated;
        value           nonuniform 0();
    }
    outlet
    {
        type            calculated;
        value           nonuniform List<vector> 9((1.07615e-07 -8.67386e-08 -1.24681e-07) (2.77274e-07 -4.13955e-08 -1.7536e-07) (3.87423e-07 -6.78063e-07 -1.7128e-07) (2.90751e-07 6.23756e-08 -8.23259e-08) (1.16723e-07 -1.92673e-08 -1.96773e-07) (1.28803e-07 -4.93666e-08 -6.54946e-07) (3.20592e-07 -1.3646e-08 -3.1939e-08) (2.98653e-07 4.56302e-09 -8.3761e-08) (1.94685e-07 -3.17772e-10 -1.72538e-07));
    }
    wall
    {
        type            calculated;
        value           nonuniform List<vector> 
57
(
(-4.44804e-07 3.52187e-08 1.52337e-07)
(2.19102e-06 -4.37889e-07 2.64027e-07)
(5.70532e-07 -7.83379e-07 2.00403e-07)
(-9.33295e-07 2.57076e-06 -1.53666e-06)
(3.51331e-08 1.52169e-06 -1.10223e-06)
(2.74328e-06 -1.09225e-07 -7.57874e-07)
(1.43435e-06 1.96329e-06 -1.17031e-06)
(6.1246e-07 1.1805e-06 -8.91504e-07)
(4.76747e-06 -1.23479e-06 -4.0144e-07)
(-1.37312e-06 -1.56559e-08 -4.32229e-07)
(-6.97454e-07 6.48372e-07 -1.88754e-09)
(-1.82645e-06 4.35117e-07 1.72269e-07)
(-5.82676e-06 -7.30517e-07 -2.65344e-06)
(8.13811e-07 -1.25971e-06 -4.44058e-07)
(-2.32608e-06 -1.65278e-07 -6.94282e-07)
(-3.17659e-06 -8.34502e-08 -9.8331e-07)
(-4.9205e-06 -4.04528e-07 -1.00373e-06)
(-1.61549e-06 -4.87161e-07 -9.41902e-07)
(-2.07631e-06 1.66183e-07 -4.02237e-09)
(-3.41951e-06 4.20197e-07 -3.84226e-07)
(-3.34659e-06 1.09935e-07 -6.43298e-07)
(-3.91982e-06 -9.23267e-08 6.54082e-08)
(-4.08754e-06 -3.64866e-07 -1.72885e-07)
(-5.21097e-06 -7.62555e-07 -7.07551e-07)
(1.05603e-07 -2.19443e-08 1.29809e-07)
(-7.35707e-07 -1.63936e-07 -4.67822e-08)
(-7.35052e-07 -5.97891e-07 8.67672e-08)
(-1.0339e-06 -8.88299e-08 2.46471e-07)
(-1.99694e-06 -2.51895e-07 5.3773e-08)
(3.73091e-08 1.32174e-07 -9.83616e-08)
(8.00413e-07 -8.46228e-10 -3.03656e-07)
(4.56486e-06 2.55063e-06 -1.55059e-06)
(5.97531e-07 -8.75996e-08 -4.46849e-07)
(-1.45749e-07 -5.23125e-07 -1.70696e-07)
(2.66925e-06 -3.50679e-08 -1.11468e-07)
(5.79092e-06 1.97604e-06 -9.99199e-07)
(2.19125e-06 1.60046e-07 -3.11273e-07)
(1.79288e-06 -1.7933e-07 -1.36196e-07)
(1.26379e-06 -1.25069e-07 -8.18018e-08)
(-9.66113e-07 -3.21133e-08 -4.5702e-07)
(-6.02296e-07 -6.6765e-08 -1.5719e-07)
(1.52635e-07 -1.32375e-07 -1.45042e-07)
(-3.19666e-06 -6.61139e-07 -2.40814e-06)
(5.04153e-08 -1.73164e-07 -1.31394e-06)
(-3.10913e-07 -2.20553e-07 -4.50213e-07)
(-7.45022e-07 -3.38707e-07 -1.16607e-06)
(1.73945e-06 -1.65475e-07 -1.03829e-06)
(-1.77375e-08 -6.86689e-08 -2.40592e-07)
(-1.98133e-06 1.39825e-07 4.64383e-09)
(-1.0822e-06 -1.07689e-08 4.89964e-08)
(-1.41336e-06 5.02176e-09 5.43174e-08)
(-4.24609e-06 5.97584e-09 3.70601e-08)
(-1.98033e-06 -2.96467e-08 -2.09086e-07)
(-3.01458e-06 -1.22273e-07 -9.96293e-08)
(1.94029e-07 -1.13501e-09 2.05808e-07)
(-5.36684e-08 -2.38161e-08 -1.06189e-07)
(-3.01006e-08 -2.2549e-08 -7.32664e-08)
)
;
    }
    procBoundary1to0
    {
        type            processor;
        value           nonuniform List<vector> 
12
(
(1.62824e-06 -1.70355e-07 -2.97757e-07)
(1.93436e-06 -2.85288e-07 -3.61984e-07)
(2.29751e-06 -4.4333e-07 -5.54898e-07)
(1.71409e-06 -1.26158e-07 -3.24933e-07)
(1.87247e-06 -2.77115e-07 -3.39885e-07)
(1.98981e-06 -4.07901e-07 -5.40188e-07)
(1.65689e-06 -9.5653e-08 -3.68583e-07)
(1.78875e-06 -2.34309e-07 -4.45357e-07)
(1.82941e-06 -3.86462e-07 -5.93861e-07)
(1.51871e-06 -9.60202e-08 -3.99638e-07)
(1.55981e-06 -1.79397e-07 -5.17943e-07)
(1.68841e-06 -2.81504e-07 -6.56132e-07)
)
;
    }
    procBoundary1to3
    {
        type            processor;
        value           nonuniform List<vector> 
27
(
(2.47886e-06 -6.10506e-07 -9.28233e-07)
(2.17515e-06 -5.7823e-07 -1.04968e-06)
(1.77789e-06 -6.84413e-07 -9.90697e-07)
(9.36453e-07 -4.95226e-07 -8.31401e-07)
(3.28051e-07 -1.88718e-07 -7.25413e-07)
(-1.78397e-07 -8.71006e-08 -6.05522e-07)
(-1.01862e-06 -7.1213e-08 -5.91512e-07)
(-1.29579e-06 -5.45272e-08 -6.11002e-07)
(-1.19823e-06 -8.242e-08 -4.97477e-07)
(2.3014e-06 -5.80174e-07 -9.76242e-07)
(2.21093e-06 -5.6932e-07 -1.11876e-06)
(1.84767e-06 -6.71152e-07 -9.771e-07)
(1.1049e-06 -5.05581e-07 -8.13977e-07)
(4.882e-07 -2.28731e-07 -6.99705e-07)
(4.61737e-08 -9.50245e-08 -5.23752e-07)
(-9.34098e-07 -5.65489e-08 -4.65352e-07)
(-1.32239e-06 -1.69865e-08 -4.62087e-07)
(-1.106e-06 -2.91499e-08 -4.14762e-07)
(2.16763e-06 -5.32319e-07 -1.10864e-06)
(2.22556e-06 -5.37222e-07 -1.15521e-06)
(1.87882e-06 -5.72039e-07 -1.05044e-06)
(1.094e-06 -4.3354e-07 -8.33311e-07)
(5.76661e-07 -2.93896e-07 -5.96548e-07)
(2.08293e-07 -1.65214e-07 -4.49654e-07)
(-8.60923e-07 -1.16244e-07 -3.33486e-07)
(-1.38139e-06 -1.05225e-07 -2.83515e-07)
(-1.12632e-06 -8.1645e-08 -2.50631e-07)
)
;
    }
    procBoundary1to5
    {
        type            processor;
        value           nonuniform List<vector> 
32
(
(7.77593e-07 -1.61946e-07 -3.85314e-07)
(2.93317e-07 -1.6252e-07 -3.45469e-07)
(-1.23399e-07 -1.46005e-07 -2.79501e-07)
(-6.78486e-07 -1.03098e-07 -1.89774e-07)
(-9.89936e-07 -1.02804e-07 -1.53136e-07)
(-9.3445e-07 -1.10041e-07 -1.44161e-07)
(1.24682e-06 -2.19647e-07 -5.1348e-07)
(8.38156e-07 -1.94598e-07 -4.67193e-07)
(4.04898e-07 -2.0243e-07 -3.80546e-07)
(8.6026e-09 -1.71778e-07 -2.96378e-07)
(-7.28271e-07 -1.16301e-07 -2.15154e-07)
(-1.13256e-06 -1.18658e-07 -1.5956e-07)
(-1.00512e-06 -1.24267e-07 -1.44204e-07)
(1.63774e-06 -3.48111e-07 -7.37745e-07)
(1.43032e-06 -3.31215e-07 -7.36243e-07)
(9.34522e-07 -2.70544e-07 -6.06587e-07)
(4.52358e-07 -2.44081e-07 -4.24404e-07)
(1.11895e-07 -1.71986e-07 -3.17915e-07)
(-7.79154e-07 -1.26656e-07 -2.28995e-07)
(-1.30233e-06 -1.37003e-07 -1.6225e-07)
(-1.08105e-06 -1.30168e-07 -1.26813e-07)
(1.20424e-06 -1.32812e-07 -3.98053e-07)
(1.149e-06 -1.5651e-07 -3.80537e-07)
(7.77593e-07 -1.61946e-07 -3.85314e-07)
(1.24682e-06 -2.19647e-07 -5.1348e-07)
(9.74014e-07 -1.67863e-07 -3.44131e-07)
(1.26371e-06 -2.0224e-07 -5.02285e-07)
(1.24682e-06 -2.19647e-07 -5.1348e-07)
(1.63774e-06 -3.48111e-07 -7.37745e-07)
(1.21802e-06 -2.34729e-07 -4.67329e-07)
(1.63774e-06 -3.48111e-07 -7.37745e-07)
(1.52351e-06 -3.30878e-07 -6.91543e-07)
)
;
    }
    procBoundary1to7
    {
        type            processor;
        value           uniform (2.23077e-06 -5.38052e-07 -1.20061e-06);
    }
}


// ************************************************************************* //
