/*--------------------------------*- C++ -*----------------------------------*\
| =========                 |                                                 |
| \\      /  F ield         | OpenFOAM: The Open Source CFD Toolbox           |
|  \\    /   O peration     | Version:  4.x                                   |
|   \\  /    A nd           | Web:      www.OpenFOAM.org                      |
|    \\/     M anipulation  |                                                 |
\*---------------------------------------------------------------------------*/
FoamFile
{
    version     2.0;
    format      ascii;
    class       volScalarField;
    location    "18";
    object      rho;
}
// * * * * * * * * * * * * * * * * * * * * * * * * * * * * * * * * * * * * * //

dimensions      [1 -3 0 0 0 0 0];

internalField   nonuniform List<scalar> 
87
(
6699.68
6699.55
6699.38
6699.15
6698.81
6698.36
6697.7
6697.05
6840.12
6699.51
6699.36
6699.1
6698.7
6698.09
6697.39
6696.66
6696.14
6692.22
6699.38
6699.03
6698.53
6697.85
6697.02
6696.31
6696.24
6697.13
6699.38
6699.45
6699.26
6698.97
6698.55
6697.95
6697.37
6696.8
6696.35
6687.34
6698.8
6698.45
6697.96
6697.38
6696.8
6696.46
6696.79
6696.9
6698.78
6698.29
6697.65
6697.03
6696.78
6697.19
6697.99
6699.49
6700.33
6700.8
6699.33
6699.24
6699
6698.52
6697.82
6697.13
6696.71
6696.23
6688.96
6697.11
6696.06
6695.49
6695.6
6696.17
6696.75
6697.87
6698.02
6701.33
6698.73
6698.52
6698.36
6698.3
6698.82
6699.57
6700.54
6701.03
6703.26
6699.68
6699.6
6699.44
6699.52
6699.37
6699.16
)
;

boundaryField
{
    inlet
    {
        type            calculated;
        value           nonuniform 0();
    }
    outlet
    {
        type            calculated;
        value           uniform 6700;
    }
    wall
    {
        type            calculated;
        value           nonuniform List<scalar> 
57
(
6699.68
6699.51
6699.38
6699.55
6699.36
6699.03
6699.38
6699.1
6698.53
6699.15
6698.7
6697.85
6698.81
6698.09
6697.02
6698.36
6697.39
6696.31
6697.7
6696.66
6696.24
6697.05
6696.14
6697.13
6840.12
6692.22
6699.38
6699.68
6699.45
6699.33
6699.68
6699.55
6699.26
6699.24
6699.6
6699.38
6698.97
6699
6699.44
6699.15
6698.55
6698.52
6698.81
6697.95
6697.82
6698.36
6697.37
6697.13
6697.7
6696.8
6696.71
6697.05
6696.35
6696.23
6840.12
6687.34
6688.96
)
;
    }
    procBoundary1to0
    {
        type            processor;
        value           nonuniform List<scalar> 
12
(
6699.76
6699.62
6699.62
6699.62
6699.15
6698.89
6699.48
6698.37
6698.8
6699.76
6699.49
6699.36
)
;
    }
    procBoundary1to3
    {
        type            processor;
        value           nonuniform List<scalar> 
27
(
6699.4
6699.02
6698.52
6697.89
6697.16
6696.49
6696.18
6696.29
6743.27
6698.11
6697.34
6696.69
6696.37
6696.4
6696.78
6697.71
6698.53
6700.93
6698.08
6697.7
6697.58
6697.64
6698.09
6698.66
6699.5
6700.29
6702.38
)
;
    }
    procBoundary1to5
    {
        type            processor;
        value           nonuniform List<scalar> 
32
(
6699.13
6698.69
6698.08
6697.76
6697.19
6690.47
6699.18
6698.72
6698.71
6698.68
6699.2
6699.1
6702.16
6698.98
6698.85
6698.84
6699.07
6699.52
6700.16
6700.67
6704.41
6699.71
6699.61
6699.13
6699.18
6699.46
6699.4
6699.18
6698.98
6699.33
6698.98
6699.28
)
;
    }
    procBoundary1to7
    {
        type            processor;
        value           uniform 6698.96;
    }
}


// ************************************************************************* //
