/*--------------------------------*- C++ -*----------------------------------*\
| =========                 |                                                 |
| \\      /  F ield         | OpenFOAM: The Open Source CFD Toolbox           |
|  \\    /   O peration     | Version:  4.x                                   |
|   \\  /    A nd           | Web:      www.OpenFOAM.org                      |
|    \\/     M anipulation  |                                                 |
\*---------------------------------------------------------------------------*/
FoamFile
{
    version     2.0;
    format      ascii;
    class       volScalarField;
    location    "18";
    object      SPartFluid;
}
// * * * * * * * * * * * * * * * * * * * * * * * * * * * * * * * * * * * * * //

dimensions      [1 -3 -1 0 0 0 0];

internalField   nonuniform List<scalar> 
87
(
3.71973e-65
5.88956e-65
3.79722e-65
5.11467e-65
3.95229e-65
4.1848e-65
4.41731e-65
5.03733e-65
4.80483e-65
3.64205e-65
3.25466e-65
4.64948e-65
4.18458e-65
3.40968e-65
5.03715e-65
6.58709e-65
4.57227e-65
3.95232e-65
3.487e-65
5.50174e-65
5.81172e-65
7.1291e-65
5.50189e-65
4.33961e-65
4.95962e-65
4.57222e-65
4.49473e-65
6.66424e-65
5.65685e-65
5.3469e-65
6.19938e-65
5.81194e-65
6.587e-65
8.36945e-65
7.28461e-65
6.35467e-65
7.20648e-65
5.11419e-65
6.3541e-65
6.9741e-65
7.28416e-65
5.65692e-65
7.51689e-65
7.59444e-65
5.50211e-65
8.13601e-65
6.58637e-65
6.19898e-65
5.26919e-65
5.26931e-65
7.36168e-65
8.05922e-65
1.03066e-64
4.88212e-65
7.05154e-65
5.73424e-65
7.67146e-65
7.98152e-65
5.73436e-65
8.44669e-65
7.05192e-65
5.73464e-65
4.18472e-65
5.57899e-65
7.0513e-65
5.65658e-65
6.12157e-65
6.97405e-65
6.9742e-65
6.58686e-65
7.20688e-65
4.41714e-65
7.90342e-65
6.35374e-65
5.11403e-65
9.06592e-65
8.29122e-65
8.75636e-65
6.81927e-65
7.90424e-65
3.4872e-65
6.58657e-65
5.26933e-65
8.05892e-65
7.0513e-65
9.9958e-65
5.73387e-65
)
;

boundaryField
{
    inlet
    {
        type            calculated;
        value           nonuniform 0();
    }
    outlet
    {
        type            calculated;
        value           uniform 0;
    }
    wall
    {
        type            calculated;
        value           uniform 0;
    }
    procBoundary1to0
    {
        type            processor;
        value           nonuniform List<scalar> 
12
(
1.7049e-65
3.952e-65
6.89656e-65
6.19934e-65
6.97394e-65
4.95915e-65
4.72691e-65
8.29117e-65
4.57163e-65
4.9594e-65
5.50158e-65
8.05849e-65
)
;
    }
    procBoundary1to3
    {
        type            processor;
        value           nonuniform List<scalar> 
27
(
6.97388e-65
3.25452e-65
5.73422e-65
2.55721e-65
4.10707e-65
3.02226e-65
4.72712e-65
4.26226e-65
4.18476e-65
7.51609e-65
6.27629e-65
9.06596e-65
8.52372e-65
7.59395e-65
6.27681e-65
6.04439e-65
6.58697e-65
8.91181e-65
7.67091e-65
9.06566e-65
8.75583e-65
8.52355e-65
6.12158e-65
6.27671e-65
8.52406e-65
7.12934e-65
7.43935e-65
)
;
    }
    procBoundary1to5
    {
        type            processor;
        value           nonuniform List<scalar> 
32
(
6.81917e-65
8.05907e-65
6.3544e-65
6.74192e-65
7.59449e-65
8.44693e-65
6.81887e-65
5.65663e-65
5.81167e-65
6.66421e-65
8.2141e-65
8.52427e-65
7.90435e-65
8.44585e-65
6.04389e-65
7.51624e-65
5.73411e-65
4.5719e-65
7.28419e-65
5.42448e-65
8.67921e-65
6.35421e-65
4.80448e-65
6.81917e-65
6.81887e-65
6.97412e-65
7.05146e-65
6.81887e-65
8.44585e-65
6.81901e-65
8.44585e-65
8.21365e-65
)
;
    }
    procBoundary1to7
    {
        type            processor;
        value           uniform 9.91801e-65;
    }
}


// ************************************************************************* //
