/*--------------------------------*- C++ -*----------------------------------*\
  =========                 |
  \\      /  F ield         | OpenFOAM: The Open Source CFD Toolbox
   \\    /   O peration     | Website:  https://openfoam.org
    \\  /    A nd           | Version:  4.x
     \\/     M anipulation  |
\*---------------------------------------------------------------------------*/
FoamFile
{
    version     2.0;
    format      ascii;
    class       Cloud<passiveParticle>;
    location    0;
    object      positions;
}
// * * * * * * * * * * * * * * * * * * * * * * * * * * * * * * * * * * * * * //

303
(
( 0.252978 0.0900442 -0.0558173 ) 63
( 0.250459 0.0316231 -0.0549459 ) 45
( 0.25028 0.0300119 -0.0351611 ) 81
( 0.254057 0.069312 -0.0504318 ) 54
( 0.251021 0.068254 -0.0699703 ) 54
( 0.250547 0.0107814 -0.0752871 ) 0
( 0.250048 0.0882477 -0.0217026 ) 99
( 0.250099 0.0359576 -0.0743615 ) 9
( 0.255997 0.0312884 -0.0150701 ) 81
( 0.381182 -0.013964 -0.0338188 ) 76
( 0.421057 -0.0111275 -0.0808171 ) 6
( 0.473703 -0.00617908 -0.0415314 ) 80
( 0.324532 -0.010485 -0.0764026 ) 2
( 0.403997 -0.00383532 -0.0735613 ) 5
( 0.490066 -0.010979 -0.0578479 ) 44
( 0.371721 -0.00591276 -0.0492932 ) 40
( 0.46862 -0.00182024 -0.0854634 ) 7
( 0.342635 -0.00282779 -0.0731178 ) 3
( 0.334692 -0.0140226 -0.0328662 ) 75
( 0.439303 -0.00180123 -0.0578325 ) 42
( 0.321647 -0.0117909 -0.0474315 ) 38
( 0.360808 -0.000885242 -0.0651464 ) 39
( 0.310646 -0.00595218 -0.0628172 ) 38
( 0.354251 -0.0122599 -0.0387157 ) 75
( 0.272139 -0.00316574 -0.0685244 ) 36
( 0.283847 -0.0122195 -0.0389886 ) 73
( 0.436697 0.000610421 -0.0773556 ) 6
( 0.49004 -0.0122163 -0.0777262 ) 8
( 0.302419 -0.00847792 -0.0445065 ) 37
( 0.394161 -0.00441019 -0.0448551 ) 41
( 0.4724 -0.0116088 -0.0684733 ) 44
( 0.275381 -0.0100714 -0.0201224 ) 72
( 0.473074 -0.0126265 -0.0212249 ) 80
( 0.387648 0.0265188 -0.0548126 ) 49
( 0.303849 0.0719179 -0.0647685 ) 64
( 0.337006 0.0639458 -0.04677 ) 57
( 0.325531 0.0165108 -0.0484671 ) 47
( 0.443414 0.0376315 -0.0466894 ) 51
( 0.28662 0.0647052 -0.0582625 ) 55
( 0.331219 0.0508593 -0.0605379 ) 56
( 0.455285 0.0130363 -0.085909 ) 7
( 0.369669 0.034846 -0.053276 ) 49
( 0.490048 0.022766 -0.0532068 ) 53
( 0.324495 0.0376736 -0.0746635 ) 11
( 0.293262 0.0258917 -0.0575245 ) 46
( 0.379218 0.00960745 -0.0642717 ) 40
( 0.470483 0.0687524 -0.0577951 ) 61
( 0.431382 0.071112 -0.0625276 ) 60
( 0.456056 0.0710452 -0.0785154 ) 25
( 0.342735 0.0322601 -0.068938 ) 48
( 0.320121 0.046096 -0.0446834 ) 56
( 0.300975 0.0614018 -0.0451356 ) 55
( 0.368745 0.0542623 -0.0494164 ) 58
( 0.35374 0.0455278 -0.0592016 ) 57
( 0.324367 0.0854195 -0.0375062 ) 101
( 0.353066 0.0836054 -0.0694696 ) 66
( 0.452522 0.0772199 -0.0555919 ) 70
( 0.28636 0.0901524 -0.0309996 ) 100
( 0.417177 0.0203292 -0.0480613 ) 51
( 0.334356 0.0726019 -0.0645101 ) 66
( 0.388221 0.0701316 -0.0536302 ) 58
( 0.47122 0.0901254 -0.0645154 ) 70
( 0.473987 0.0680829 -0.0382072 ) 98
( 0.490004 0.014653 -0.0838763 ) 17
( 0.265359 0.0160725 -0.0366255 ) 81
( 0.399878 0.0666726 -0.0694185 ) 59
( 0.327081 0.0285505 -0.0321343 ) 83
( 0.349227 0.0640741 -0.0204895 ) 93
( 0.39552 0.0136999 -0.0779986 ) 5
( 0.306306 0.0318061 -0.0402858 ) 83
( 0.302945 0.0349623 -0.0723584 ) 10
( 0.458135 0.0434145 -0.0606002 ) 61
( 0.272514 0.0513546 -0.0543097 ) 54
( 0.410964 0.0510409 -0.0599528 ) 59
( 0.457321 0.0242625 -0.0515127 ) 52
( 0.430481 0.0826181 -0.0787159 ) 33
( 0.365715 0.0410948 -0.0348508 ) 85
( 0.316008 0.0314864 -0.0576621 ) 47
( 0.473516 0.0304706 -0.0613183 ) 53
( 0.366634 0.0114885 -0.0796566 ) 4
( 0.290679 0.0899552 -0.0503552 ) 64
( 0.269136 0.0164801 -0.0710715 ) 45
( 0.405313 0.0262725 -0.064093 ) 50
( 0.474268 0.0474007 -0.0500847 ) 62
( 0.441145 0.0386892 -0.0695414 ) 51
( 0.419575 0.0138286 -0.0703915 ) 42
( 0.346451 0.0806652 -0.0509095 ) 66
( 0.438804 0.055858 -0.0404785 ) 96
( 0.437437 0.0204302 -0.0763502 ) 15
( 0.478471 0.0748772 -0.0750688 ) 35
( 0.334569 0.03391 -0.0507958 ) 48
( 0.380775 0.0380819 -0.069435 ) 49
( 0.460882 0.0406573 -0.0375704 ) 88
( 0.401429 0.0836733 -0.0593801 ) 68
( 0.363235 0.0533989 -0.0747416 ) 22
( 0.280328 0.0682355 -0.0394783 ) 91
( 0.422384 0.0628926 -0.0782123 ) 24
( 0.371396 0.089895 -0.0742385 ) 31
( 0.396968 0.0211251 -0.0382091 ) 86
( 0.347132 0.0156601 -0.0790148 ) 12
( 0.352707 0.029664 -0.0442912 ) 48
( 0.27336 0.078913 -0.0546339 ) 63
( 0.490003 0.0338793 -0.078538 ) 17
( 0.383707 0.0741874 -0.0839356 ) 31
( 0.458129 0.0291034 -0.0743782 ) 16
( 0.424206 0.0430624 -0.0791954 ) 24
( 0.287297 0.0824927 -0.0684589 ) 64
( 0.43089 0.0736603 -0.0429398 ) 69
( 0.490014 0.0897869 -0.0822958 ) 35
( 0.293523 0.0527086 -0.0725275 ) 19
( 0.326541 0.00586628 -0.0651796 ) 38
( 0.293743 0.0110833 -0.0708884 ) 37
( 0.351025 0.0159501 -0.0300779 ) 84
( 0.490039 0.053672 -0.0821089 ) 26
( 0.413007 0.0679774 -0.0496041 ) 59
( 0.319281 0.0691397 -0.0770347 ) 20
( 0.457894 0.0583035 -0.046329 ) 61
( 0.380872 0.00957836 -0.0399772 ) 76
( 0.473271 0.0107339 -0.053712 ) 44
( 0.472188 0.0135662 -0.0733336 ) 7
( 0.283961 0.0211195 -0.0407511 ) 82
( 0.269266 0.0318668 -0.0484866 ) 45
( 0.361786 0.018743 -0.0617516 ) 49
( 0.472146 0.0230636 -0.0383427 ) 88
( 0.308162 0.0495781 -0.0292955 ) 92
( 0.370996 0.0729291 -0.0630188 ) 67
( 0.437706 0.0900974 -0.0616561 ) 69
( 0.428939 0.00665106 -0.039573 ) 78
( 0.488674 0.0765069 -0.0485558 ) 71
( 0.391264 0.050805 -0.0566675 ) 59
( 0.474853 0.0497565 -0.0697817 ) 62
( 0.406163 0.0514692 -0.0805564 ) 23
( 0.398378 0.071743 -0.0366221 ) 104
( 0.392187 0.0901566 -0.075743 ) 32
( 0.412475 0.0900741 -0.0746506 ) 32
( 0.273976 0.0093626 -0.0531853 ) 36
( 0.43652 0.0198818 -0.0540016 ) 51
( 0.444061 0.0900547 -0.0430252 ) 69
( 0.356173 0.00637158 -0.0471951 ) 39
( 0.329735 0.0900815 -0.0560042 ) 65
( 0.490192 0.0413571 -0.06013 ) 53
( 0.433032 0.0252993 -0.0351615 ) 87
( 0.342577 0.0155173 -0.0583279 ) 48
( 0.363781 0.0727334 -0.0445142 ) 67
( 0.490253 0.0379954 -0.0405782 ) 89
( 0.469733 0.090045 -0.0845799 ) 34
( 0.419438 0.0507385 -0.0418989 ) 96
( 0.28348 0.0519903 -0.0219289 ) 91
( 0.425758 0.0902831 -0.0339619 ) 105
( 0.363537 0.0902225 -0.0539373 ) 67
( 0.300551 0.0106215 -0.0394446 ) 73
( 0.265806 0.0902367 -0.0402596 ) 99
( 0.300743 0.0440998 -0.0548056 ) 55
( 0.342831 0.0554798 -0.0759744 ) 21
( 0.352711 0.0652379 -0.06175 ) 57
( 0.398316 0.00856228 -0.0590176 ) 41
( 0.382836 0.0900372 -0.0579717 ) 67
( 0.417394 0.00157336 -0.0549103 ) 42
( 0.448727 0.00807356 -0.0435277 ) 43
( 0.295528 0.0668941 -0.0270255 ) 91
( 0.385382 0.0566732 -0.0386926 ) 94
( 0.490525 0.0901603 -0.0624044 ) 71
( 0.399013 0.0329435 -0.0817752 ) 14
( 0.30831 0.0129866 -0.0574211 ) 38
( 0.490127 0.0523867 -0.0263938 ) 98
( 0.490049 0.0903471 -0.0346537 ) 107
( 0.270731 0.0663353 -0.0699037 ) 54
( 0.307653 0.080087 -0.0470023 ) 65
( 0.464299 0.0900764 -0.0459551 ) 70
( 0.321949 0.0658373 -0.0339756 ) 92
( 0.490098 0.00456325 -0.0449925 ) 44
( 0.490013 0.0627413 -0.0643545 ) 62
( 0.26635 0.0471759 -0.0727528 ) 18
( 0.430967 0.0512713 -0.0580756 ) 60
( 0.347206 0.0904346 -0.0339088 ) 102
( 0.311517 0.0901804 -0.0638099 ) 65
( 0.40546 0.0902585 -0.0410628 ) 104
( 0.490358 0.0572999 -0.0452935 ) 62
( 0.382601 0.0575291 -0.0732108 ) 22
( 0.45541 0.0494893 -0.0793353 ) 25
( 0.473214 0.0277144 -0.0873527 ) 17
( 0.267259 0.0901267 -0.0697411 ) 63
( 0.381365 0.0824898 -0.0396573 ) 103
( 0.452335 0.0118959 -0.0662576 ) 43
( 0.445192 0.0894013 -0.0903646 ) 34
( 0.375145 0.0248566 -0.0286463 ) 85
( 0.335112 0.0900452 -0.0751055 ) 30
( 0.453639 0.0899783 -0.0727836 ) 34
( 0.318561 0.0647174 -0.0535832 ) 56
( 0.286864 0.0480208 -0.0410624 ) 91
( 0.447788 0.0599679 -0.0641818 ) 61
( 0.31574 0.0197938 -0.0745481 ) 11
( 0.474014 0.0715876 -0.0149 ) 107
( 0.393388 0.060637 -0.0209754 ) 95
( 0.410586 0.0815431 -0.0243014 ) 104
( 0.317414 0.0370059 -0.0168774 ) 83
( 0.45553 0.0776424 -0.0162669 ) 106
( 0.390594 0.0155873 -0.0202773 ) 86
( 0.49 0.0185211 -0.0308289 ) 89
( 0.323616 0.0607036 -0.0149419 ) 92
( 0.363257 0.0817707 -0.0269967 ) 103
( 0.407679 0.0246418 -0.0171493 ) 86
( 0.440577 0.00383102 -0.023518 ) 78
( 0.466778 0.022968 -0.0192453 ) 88
( 0.348608 0.0851001 -0.0143941 ) 102
( 0.380599 0.0455445 -0.0230138 ) 94
( 0.447746 0.0607651 -0.0235483 ) 97
( 0.431068 0.0440285 -0.0265383 ) 96
( 0.392929 0.0902346 -0.025451 ) 104
( 0.41473 0.0430225 -0.0155165 ) 95
( 0.458239 0.00596993 -0.0147231 ) 79
( 0.490066 0.0721711 -0.0271422 ) 107
( 0.439544 0.0251582 -0.0164746 ) 87
( 0.305685 0.0221667 -0.0230509 ) 83
( 0.423834 0.0142635 -0.0212817 ) 78
( 0.269736 0.090017 -0.0201617 ) 99
( 0.333223 0.0124426 -0.022108 ) 74
( 0.414932 0.0620481 -0.0262598 ) 95
( 0.330883 0.0782994 -0.0202667 ) 101
( 0.270484 0.0348475 -0.0288664 ) 81
( 0.380623 0.0750767 -0.0213236 ) 103
( 0.471455 0.089543 -0.0275698 ) 106
( 0.490086 0.0899622 -0.0146741 ) 107
( 0.259489 0.0469085 -0.0400017 ) 90
( 0.255893 -0.000337624 -0.0572223 ) 36
( 0.459501 -0.00336098 -0.0558408 ) 43
( 0.321354 -0.00174456 -0.0156999 ) 74
( 0.362225 0.0334728 -0.0751184 ) 13
( 0.419416 0.0900489 -0.0548782 ) 69
( 0.318657 0.0054088 -0.0337571 ) 74
( 0.489752 0.00724921 -0.0654009 ) 44
( 0.40932 0.00579843 -0.0368381 ) 77
( 0.280177 0.0330806 -0.0705742 ) 46
( 0.265702 0.0564671 -0.0144966 ) 90
( 0.442735 0.0903511 -0.0234681 ) 105
( 0.474693 0.00637557 -0.0261882 ) 80
( 0.262248 0.0723655 -0.0326285 ) 99
( 0.387655 -0.0083991 -0.0631203 ) 40
( 0.42369 0.0331944 -0.0619404 ) 51
( 0.268932 0.0104208 -0.0179876 ) 72
( 0.427994 -0.012801 -0.0421308 ) 78
( 0.266076 -0.00363752 -0.0404346 ) 72
( 0.396507 -0.002976 -0.0244274 ) 77
( 0.33723 0.000516316 -0.0461714 ) 39
( 0.254331 -0.00877685 -0.0752503 ) 0
( 0.33114 0.047667 -0.0280605 ) 92
( 0.455437 0.0751337 -0.0359558 ) 106
( 0.376857 -0.00563552 -0.0795837 ) 4
( 0.312889 0.0524396 -0.0681198 ) 56
( 0.402839 0.0374022 -0.0478738 ) 50
( 0.253083 0.0510505 -0.0583548 ) 54
( 0.288817 -0.00307378 -0.0577852 ) 37
( 0.348875 0.0496165 -0.0404592 ) 93
( 0.313756 -0.0138247 -0.0291781 ) 74
( 0.415404 0.0333692 -0.0331365 ) 86
( 0.347289 -0.00226781 -0.023003 ) 75
( 0.490138 -0.00980716 -0.0310274 ) 80
( 0.290345 0.0340994 -0.0274133 ) 82
( 0.277423 0.0715866 -0.0197803 ) 99
( 0.367932 0.0606229 -0.0266171 ) 94
( 0.365268 0.00206856 -0.0302499 ) 76
( 0.45222 0.0238676 -0.0322088 ) 88
( 0.305591 0.0854548 -0.0279928 ) 101
( 0.476994 0.0378448 -0.0261734 ) 89
( 0.250345 0.0141008 -0.0235094 ) 72
( 0.420167 -0.00486121 -0.0242482 ) 78
( 0.350121 0.0418315 -0.0224159 ) 84
( 0.468198 0.055279 -0.0242808 ) 97
( 0.295132 -0.0110056 -0.0230162 ) 73
( 0.431856 0.0737069 -0.022992 ) 105
( 0.286582 0.00673313 -0.0261756 ) 73
( 0.45689 -0.0049549 -0.0310967 ) 79
( 0.399526 0.0436502 -0.0284265 ) 95
( 0.449888 0.0412097 -0.0212583 ) 88
( 0.346267 -0.0137398 -0.0568855 ) 39
( 0.281664 -0.0119606 -0.0836192 ) 1
( 0.4709 0.0601997 -0.0862714 ) 25
( 0.380442 0.0250296 -0.084479 ) 13
( 0.383901 0.0443574 -0.0881043 ) 22
( 0.300189 0.0677033 -0.0838937 ) 19
( 0.347301 0.0394492 -0.0869414 ) 12
( 0.445083 0.0342642 -0.0885644 ) 16
( 0.275576 0.0792706 -0.0842516 ) 27
( 0.282885 0.0197348 -0.0851561 ) 10
( 0.329331 0.00859736 -0.0847022 ) 2
( 0.278712 0.0564952 -0.0852957 ) 19
( 0.363943 0.0721287 -0.0816189 ) 31
( 0.301951 0.0874013 -0.0810469 ) 28
( 0.311017 0.0459715 -0.0868747 ) 20
( 0.266298 0.0307912 -0.0846972 ) 9
( 0.343022 0.0738569 -0.0836573 ) 30
( 0.356898 0.0900344 -0.0879278 ) 30
( 0.407956 0.0742767 -0.0859678 ) 32
( 0.253326 0.0900636 -0.0839285 ) 27
( 0.41713 0.0257615 -0.0861419 ) 15
( 0.308608 0.00224343 -0.0808483 ) 2
( 0.438036 0.0548037 -0.0875384 ) 24
( 0.260769 0.0655775 -0.0871561 ) 18
( 0.289901 0.0392808 -0.0868301 ) 10
( 0.302162 0.0234858 -0.0886621 ) 10
( 0.320441 0.0883011 -0.0884776 ) 29
( 0.265778 0.00375013 -0.0860951 ) 0
( 0.328044 0.0560827 -0.0893231 ) 20
)
