/*--------------------------------*- C++ -*----------------------------------*\
| =========                 |                                                 |
| \\      /  F ield         | OpenFOAM: The Open Source CFD Toolbox           |
|  \\    /   O peration     | Version:  4.x                                   |
|   \\  /    A nd           | Web:      www.OpenFOAM.org                      |
|    \\/     M anipulation  |                                                 |
\*---------------------------------------------------------------------------*/
FoamFile
{
    version     2.0;
    format      ascii;
    class       volScalarField;
    location    "21";
    object      KslPrev;
}
// * * * * * * * * * * * * * * * * * * * * * * * * * * * * * * * * * * * * * //

dimensions      [1 -3 -1 0 0 0 0];

internalField   nonuniform List<scalar> 
108
(
3454.01
7533.48
3473.59
7352.25
3472.33
7221.57
3431.9
7262.38
3351.9
3552.59
9357.9
3771.37
12510.6
3867.14
16671.1
3884.74
24531.9
3871.73
3590.31
10173
3877.51
15085.8
3970.37
23078.6
3983.63
51066
3972.57
3574.65
10102.1
3899.47
15216.1
4009.48
26905.5
4048.85
76075.4
3995.46
3442.57
7233.84
3411.97
6844.35
3387.06
6432.41
3285.39
6246.68
3194.29
3525.17
8442.25
3639.96
9608.91
3699.4
11182.8
3715.05
13928.2
3710.15
3552.46
9112.71
3773.38
11700.9
3843.22
14811.5
3796.96
17937.9
3709.63
3581.57
9710.59
3835.02
13823.7
3952.1
21084.1
3963.82
36623.1
3901.91
3387.18
6589.18
3227.59
5712.53
3155.36
5335.37
3079.92
5053.48
2954.98
3441.13
7296.68
3429.15
6765.66
3364.49
6408.61
3279.84
6144.27
3182.49
3497.45
7729.48
3529.06
7662.96
3496.55
7479.42
3398.69
7211.95
3300.22
3538.22
8110.88
3601.5
8712.12
3606
8926.89
3521.34
8653.14
3449.84
)
;

boundaryField
{
    inlet
    {
        type            zeroGradient;
    }
    outlet
    {
        type            zeroGradient;
    }
    wall
    {
        type            zeroGradient;
    }
    procBoundary4to0
    {
        type            processor;
        value           uniform 0;
    }
    procBoundary4to5
    {
        type            processor;
        value           uniform 0;
    }
    procBoundary4to6
    {
        type            processor;
        value           uniform 0;
    }
}


// ************************************************************************* //
