/*--------------------------------*- C++ -*----------------------------------*\
| =========                 |                                                 |
| \\      /  F ield         | OpenFOAM: The Open Source CFD Toolbox           |
|  \\    /   O peration     | Version:  4.x                                   |
|   \\  /    A nd           | Web:      www.OpenFOAM.org                      |
|    \\/     M anipulation  |                                                 |
\*---------------------------------------------------------------------------*/
FoamFile
{
    version     2.0;
    format      ascii;
    class       volScalarField;
    location    "56";
    object      magGField;
}
// * * * * * * * * * * * * * * * * * * * * * * * * * * * * * * * * * * * * * //

dimensions      [1 -2 -1 0 0 0 0];

internalField   nonuniform List<scalar> 
87
(
87.3436
27.6098
96.3198
103.37
50.4105
106.233
92.0753
26.2392
86.9555
11.54
83.2011
1.83943
81.5797
5.30553e-05
80.6435
94.401
30.6333
90.8751
20.8286
88.1417
12.0108
86.6561
4.25873
86.1125
96.2319
39.732
96.6157
40.501
95.8404
38.0362
95.3692
33.8442
93.9022
92.9682
31.0994
89.8704
22.0243
88.0429
14.3011
86.7985
7.49044
86.191
94.5543
36.2471
93.1971
33.0251
92.4598
29.9842
91.8016
26.004
92.4522
95.8638
42.719
98.3328
46.7029
99.6262
49.0696
101.424
50.3498
103.208
94.6053
40.1404
94.879
40.1868
94.986
39.8201
95.0383
37.5401
96.3103
95.2787
42.6862
97.1793
45.9862
98.533
47.9432
100.191
48.6059
101.619
96.3669
45.6236
100.314
52.959
104.436
58.1487
107.409
61.3442
108.725
)
;

boundaryField
{
    inlet
    {
        type            calculated;
        value           uniform 67;
    }
    outlet
    {
        type            calculated;
        value           nonuniform 0();
    }
    wall
    {
        type            calculated;
        value           uniform 0;
    }
    procBoundary6to0
    {
        type            processor;
        value           uniform 89.2283;
    }
    procBoundary6to2
    {
        type            processor;
        value           nonuniform List<scalar> 
32
(
85.9182
9.65739
90.786
101.947
46.295
103.396
94.849
29.1636
90.4549
19.0733
88.3143
11.3244
87.368
4.82492
4.82492
4.82492
94.8646
34.6108
93.3122
30.7131
93.0862
28.3012
94.0058
94.0058
94.0058
96.4137
41.161
98.4011
44.5744
100.67
47.6955
47.6955
)
;
    }
    procBoundary6to4
    {
        type            processor;
        value           nonuniform List<scalar> 
27
(
94.4847
30.3577
89.5205
19.2921
86.9758
9.69634
85.4768
2.5331
85.0802
93.6182
31.5734
90.2241
22.1574
88.0107
14.7421
87.6635
9.36947
88.8221
93.3927
38.2879
93.9986
37.9777
94.9282
39.5052
97.6359
42.9222
100.525
)
;
    }
    procBoundary6to7
    {
        type            processor;
        value           nonuniform List<scalar> 
12
(
0.904402
28.864
51.0865
6.00746e-05
0.00110116
25.0796
1.49499
22.9016
50.7983
34.9575
48.178
61.3566
)
;
    }
}


// ************************************************************************* //
