/*--------------------------------*- C++ -*----------------------------------*\
| =========                 |                                                 |
| \\      /  F ield         | OpenFOAM: The Open Source CFD Toolbox           |
|  \\    /   O peration     | Version:  4.x                                   |
|   \\  /    A nd           | Web:      www.OpenFOAM.org                      |
|    \\/     M anipulation  |                                                 |
\*---------------------------------------------------------------------------*/
FoamFile
{
    version     2.0;
    format      ascii;
    class       volScalarField;
    location    "56";
    object      pSmooth;
}
// * * * * * * * * * * * * * * * * * * * * * * * * * * * * * * * * * * * * * //

dimensions      [1 -1 -2 0 0 0 0];

internalField   nonuniform List<scalar> 
87
(
82.1126
38.2151
81.6175
88.6725
38.5277
81.6362
112.218
94.0038
104.908
76.4827
97.1647
58.4844
89.2675
40.7079
81.9149
111.579
93.7357
104.444
75.9643
96.9935
57.75
89.5109
39.494
82.1118
110.997
93.4784
103.916
75.8778
96.626
57.7133
89.2369
39.596
82.2787
111.973
93.9263
104.649
76.1181
97.1004
58.0618
89.5665
39.7995
82.2211
111.301
93.6105
104.022
75.857
96.5259
57.7265
89.1006
39.3537
81.8446
110.807
93.3797
103.653
75.7708
96.2614
57.6185
88.9022
39.3657
81.7663
111.495
93.7578
104.234
76.0675
96.6945
58.0114
89.1979
39.641
81.9697
111.015
93.5073
103.822
75.8701
96.3789
57.6623
88.9618
39.4426
81.7874
110.635
93.3915
103.53
75.7921
96.2068
57.7478
88.8493
39.6465
81.8397
)
;

boundaryField
{
    inlet
    {
        type            zeroGradient;
    }
    outlet
    {
        type            fixedValue;
        value           nonuniform 0();
    }
    wall
    {
        type            zeroGradient;
    }
    procBoundary6to0
    {
        type            processor;
        value           uniform 82.0118;
    }
    procBoundary6to2
    {
        type            processor;
        value           nonuniform List<scalar> 
32
(
81.8131
38.6978
82.0199
88.8433
38.7806
81.9122
111.549
93.7496
104.406
75.7506
96.9609
57.5975
89.4773
39.3427
39.3427
39.3427
110.909
93.2643
103.708
75.263
96.2445
56.9337
88.7991
88.7991
88.7991
110.409
93.0503
103.331
75.19
95.9822
56.9672
56.9672
)
;
    }
    procBoundary6to4
    {
        type            processor;
        value           nonuniform List<scalar> 
27
(
111.769
93.9679
104.579
76.0837
96.9999
57.8788
89.3406
39.5045
81.8662
111.82
93.8701
104.533
76.0586
96.884
57.6626
89.2856
39.0536
81.9464
111.488
93.5762
104.109
75.8546
96.4604
57.4512
88.8336
39.0918
81.6685
)
;
    }
    procBoundary6to7
    {
        type            processor;
        value           nonuniform List<scalar> 
12
(
21.1347
19.2673
19.8347
23.0807
21.2477
21.3916
21.5662
20.7241
20.969
21.5373
20.9985
21.3742
)
;
    }
}


// ************************************************************************* //
