/*--------------------------------*- C++ -*----------------------------------*\
| =========                 |                                                 |
| \\      /  F ield         | OpenFOAM: The Open Source CFD Toolbox           |
|  \\    /   O peration     | Version:  4.x                                   |
|   \\  /    A nd           | Web:      www.OpenFOAM.org                      |
|    \\/     M anipulation  |                                                 |
\*---------------------------------------------------------------------------*/
FoamFile
{
    version     2.0;
    format      ascii;
    class       volVectorField;
    location    "20.5";
    object      Us;
}
// * * * * * * * * * * * * * * * * * * * * * * * * * * * * * * * * * * * * * //

dimensions      [0 1 -1 0 0 0 0];

internalField   nonuniform List<vector> 
132
(
(1.83545e-09 -9.42386e-10 -4.256e-10)
(2.1972e-09 -1.48682e-09 -9.47043e-10)
(-5.76295e-09 -7.39551e-09 -1.62514e-09)
(-4.68254e-09 3.90361e-10 1.60798e-09)
(-3.77836e-09 -2.83308e-10 2.78987e-09)
(-7.40666e-09 -5.93703e-10 2.2342e-09)
(-1.02447e-08 -3.70998e-10 2.29489e-09)
(-1.48467e-08 1.62366e-09 1.15562e-09)
(-2.08297e-08 7.16184e-09 -9.02249e-10)
(1.37058e-09 -1.9486e-09 -8.02705e-10)
(6.22474e-10 -2.36064e-09 -1.14377e-09)
(-4.72664e-09 -4.21271e-09 -1.08399e-09)
(-5.662e-09 -8.89476e-10 -2.58458e-10)
(-8.06295e-09 -2.29318e-09 1.09126e-09)
(-1.24158e-08 -2.84731e-09 2.12525e-09)
(-2.07953e-08 -9.60339e-10 3.69439e-09)
(-2.57896e-08 2.97171e-09 3.9627e-09)
(-2.75159e-08 3.8594e-09 4.31273e-09)
(1.31881e-09 -1.53552e-09 -1.06277e-09)
(-3.07019e-10 -1.83149e-09 -1.08928e-09)
(-3.53381e-09 -2.46691e-09 -1.38242e-09)
(-5.74602e-09 -2.70615e-09 -7.15694e-10)
(-1.02916e-08 -3.34745e-09 -1.00447e-09)
(-1.69996e-08 -2.72101e-09 2.02725e-09)
(-2.31123e-08 -9.30747e-10 3.79216e-09)
(-2.88717e-08 2.20273e-10 3.39211e-09)
(-3.30062e-08 3.81107e-09 2.74861e-09)
(4.7816e-10 -8.0986e-10 -5.15177e-10)
(2.76566e-11 -1.0132e-09 -7.97999e-10)
(-2.49102e-09 -9.29846e-10 -1.10679e-09)
(1.74903e-09 -5.8552e-10 -6.69303e-10)
(1.57868e-09 -1.09516e-09 -1.31979e-09)
(-1.52744e-09 -1.51652e-09 -1.34455e-09)
(-5.00606e-09 -6.9996e-10 2.35954e-09)
(-5.15533e-09 -1.36257e-09 2.71387e-09)
(-7.01767e-09 -2.71744e-09 2.39619e-09)
(-9.54559e-09 -3.50341e-11 1.73213e-09)
(-1.42658e-08 1.20954e-09 4.44489e-10)
(-1.56718e-08 -2.14132e-09 3.00915e-09)
(1.03242e-09 -1.32783e-09 -7.10245e-10)
(6.2586e-10 -2.26969e-09 -1.29351e-09)
(-2.58396e-09 -3.21656e-09 -1.33952e-09)
(-5.22294e-09 -1.69733e-09 -2.18605e-10)
(-9.6593e-09 -2.5069e-09 2.33351e-09)
(-1.2055e-08 -3.2299e-09 2.64015e-09)
(-1.69862e-08 -1.33132e-09 3.10422e-09)
(-2.18169e-08 2.98652e-09 2.18299e-09)
(-2.62666e-08 6.52641e-09 3.95957e-09)
(1.44025e-09 -1.24035e-09 -5.42854e-10)
(-7.61881e-10 -2.09073e-09 -8.94132e-10)
(-3.79165e-09 -2.59693e-09 -1.00318e-09)
(-7.06163e-09 -2.2559e-09 -4.37281e-10)
(-1.28413e-08 -2.07452e-09 1.33444e-09)
(-1.83329e-08 -2.50955e-09 1.78339e-09)
(-2.34992e-08 -1.4103e-09 3.13415e-09)
(-2.67524e-08 1.77986e-09 2.89682e-09)
(-2.98803e-08 6.17859e-09 8.57771e-10)
(5.37082e-10 -9.24041e-10 -5.15657e-10)
(-6.58108e-10 -1.32441e-09 -8.16796e-10)
(-2.81527e-09 -2.55701e-09 -5.7931e-10)
(-8.65686e-09 -1.5517e-09 6.07021e-11)
(-1.30571e-08 -2.65402e-09 2.1744e-09)
(1.34568e-09 -3.72065e-10 -4.11421e-10)
(2.0353e-09 -9.68191e-10 -3.81878e-10)
(5.64234e-10 -1.24284e-09 6.9389e-11)
(-1.78717e-09 -1.82622e-09 8.18714e-10)
(-3.35242e-09 -1.57187e-09 1.15239e-09)
(-5.5677e-09 -2.44485e-09 1.40512e-09)
(-6.99684e-09 -1.71074e-09 5.7622e-10)
(-8.62142e-09 8.37414e-10 1.93254e-10)
(-1.39607e-08 4.61492e-10 2.83797e-09)
(1.28917e-09 -1.10294e-09 -3.19907e-10)
(1.94193e-09 -1.71014e-09 -5.44027e-12)
(-4.92728e-10 -2.63557e-09 2.23009e-10)
(-3.27066e-09 -3.2176e-09 4.7387e-12)
(-7.62293e-09 -3.09818e-09 2.81781e-09)
(-1.20579e-08 -3.6324e-09 2.43696e-09)
(-1.52917e-08 -2.4231e-09 2.24547e-09)
(-1.85177e-08 1.66665e-09 1.1516e-09)
(-2.34518e-08 6.5081e-09 2.79592e-09)
(9.24366e-10 -9.41437e-10 -7.35471e-11)
(3.62096e-10 -2.19115e-09 -5.31393e-11)
(-3.19551e-09 -3.34474e-09 -1.10917e-10)
(-6.7363e-09 -3.62266e-09 2.86385e-10)
(-1.34734e-08 -3.33425e-09 2.46642e-09)
(-1.86413e-08 -2.91788e-09 1.28763e-09)
(-2.12257e-08 -1.84264e-09 1.5108e-09)
(-2.62486e-08 1.03257e-09 1.77855e-09)
(-2.92818e-08 5.16631e-09 2.59064e-09)
(1.06503e-09 -4.968e-10 -1.27596e-10)
(-5.5836e-10 -2.05775e-10 -3.27535e-10)
(-3.10534e-09 -2.09114e-09 1.93657e-10)
(-7.74609e-09 -1.19063e-09 5.12605e-10)
(-1.55262e-08 -1.99589e-09 2.51582e-09)
(-1.93422e-08 -2.26057e-09 2.7105e-09)
(-2.4805e-08 -1.49846e-09 8.83623e-10)
(1.1111e-09 2.71841e-10 -2.89976e-10)
(1.95155e-09 -6.08663e-10 1.18779e-10)
(1.18744e-09 -1.14047e-09 4.18007e-10)
(-4.11144e-11 -1.44767e-09 4.3112e-10)
(-1.72593e-09 -1.14589e-09 1.48246e-10)
(-4.42544e-09 -2.00287e-09 8.64123e-10)
(-6.20738e-09 -1.31009e-09 1.82145e-09)
(-1.0336e-08 1.83241e-10 6.55893e-10)
(-1.28379e-08 7.82883e-10 1.50517e-09)
(1.42523e-09 -7.69944e-10 4.29894e-11)
(2.14819e-09 -1.59192e-09 3.46088e-10)
(1.78146e-09 -2.68221e-09 1.26033e-09)
(-2.62655e-09 -4.30175e-09 2.23521e-09)
(-6.5416e-09 -3.93335e-09 2.32185e-09)
(-9.03147e-09 -3.36701e-09 1.47848e-09)
(-1.3749e-08 -2.47283e-09 1.85462e-09)
(-1.67067e-08 -9.73713e-11 7.20007e-10)
(-2.09288e-08 1.70762e-09 1.32424e-10)
(1.58914e-09 -1.07574e-09 6.03744e-10)
(1.02314e-09 -1.4827e-09 9.67628e-10)
(-1.02543e-09 -2.16659e-09 1.13526e-09)
(-4.62145e-09 -2.89868e-09 2.69837e-09)
(-1.0926e-08 -4.88807e-09 2.81452e-09)
(-1.66589e-08 -2.63119e-09 1.16417e-09)
(-2.28939e-08 -2.79371e-09 1.38191e-09)
(-2.61445e-08 -1.92712e-10 1.0417e-09)
(-2.79308e-08 1.01199e-09 1.25916e-09)
(1.77106e-09 -2.51559e-10 3.88631e-10)
(7.98143e-10 -3.40716e-11 8.66306e-10)
(-1.45747e-09 -1.11183e-09 1.89507e-09)
(-7.17339e-09 -1.90598e-09 1.74044e-09)
(-1.36345e-08 -3.50802e-09 1.57996e-09)
(-1.99418e-08 -1.86234e-09 1.76532e-09)
(-2.50013e-08 -9.14795e-10 4.27941e-10)
(-2.68578e-08 -3.76942e-10 9.88721e-10)
(-2.70852e-08 1.25494e-09 -9.43984e-10)
)
;

boundaryField
{
    inlet
    {
        type            zeroGradient;
    }
    outlet
    {
        type            zeroGradient;
    }
    wall
    {
        type            zeroGradient;
    }
    procBoundary0to1
    {
        type            processor;
        value           nonuniform List<vector> 
12
(
(-6.73595e-09 1.13258e-08 2.61168e-08)
(-2.54305e-08 4.56502e-09 6.36612e-09)
(-2.16265e-08 5.1686e-09 -3.08457e-09)
(-2.20655e-08 1.0385e-08 1.48646e-08)
(-2.6645e-08 9.22349e-09 7.49433e-09)
(-2.52896e-08 8.95147e-09 -4.50073e-09)
(-1.31251e-08 2.54191e-09 6.37275e-10)
(-2.41276e-08 5.43551e-09 -1.77312e-11)
(-2.78682e-08 8.17488e-09 -3.47759e-09)
(-1.04319e-08 1.44821e-09 -1.89698e-10)
(-2.04718e-08 3.01041e-09 -1.14181e-09)
(-2.85024e-08 3.36971e-09 -1.77727e-09)
)
;
    }
    procBoundary0to2
    {
        type            processor;
        value           nonuniform List<vector> 
44
(
(-4.95589e-09 -1.65804e-09 -6.71988e-10)
(-1.19561e-08 -1.86335e-09 -6.0209e-10)
(-2.21136e-08 -3.21009e-09 4.49414e-09)
(-2.70268e-08 -2.12284e-09 3.54302e-09)
(-2.93866e-08 -6.21903e-10 2.44008e-09)
(-3.15075e-08 1.1875e-09 1.65563e-09)
(1.29169e-08 -4.92026e-09 -1.19355e-09)
(3.0106e-11 -4.09395e-12 -6.4751e-10)
(-4.95589e-09 -1.65804e-09 -6.71988e-10)
(-2.96107e-09 1.31979e-10 -1.67011e-09)
(-4.95589e-09 -1.65804e-09 -6.71988e-10)
(-1.19561e-08 -1.86335e-09 -6.0209e-10)
(-2.01001e-08 -3.16349e-09 3.49512e-09)
(-2.46722e-08 -2.31244e-09 2.98533e-09)
(-2.88757e-08 -2.02681e-10 2.25983e-09)
(-2.91657e-08 2.39482e-09 5.48725e-10)
(7.00153e-10 -4.27574e-11 -2.86466e-10)
(-2.39646e-10 -1.18144e-10 -8.51442e-10)
(-2.8068e-09 5.23075e-11 -1.06087e-09)
(-7.54146e-09 9.29428e-10 -3.55408e-10)
(-2.01001e-08 -3.16349e-09 3.49512e-09)
(-1.17295e-08 1.38685e-11 1.12598e-09)
(-2.01001e-08 -3.16349e-09 3.49512e-09)
(-2.46722e-08 -2.31244e-09 2.98533e-09)
(-2.66735e-08 -9.24809e-10 1.17185e-09)
(-2.76266e-08 2.89345e-09 -1.08581e-09)
(1.27269e-09 9.49999e-11 1.68604e-10)
(4.99182e-10 2.17299e-10 6.7808e-11)
(-2.69421e-09 3.92364e-10 2.90956e-10)
(-7.90056e-09 1.05314e-09 4.91125e-11)
(-1.30981e-08 -1.4784e-10 1.44969e-09)
(-1.95026e-08 -2.1409e-09 3.31086e-09)
(-2.66735e-08 -9.24809e-10 1.17185e-09)
(-2.28148e-08 -2.00812e-09 2.26559e-09)
(-2.66735e-08 -9.24809e-10 1.17185e-09)
(-2.76266e-08 2.89345e-09 -1.08581e-09)
(1.06277e-09 2.31949e-10 6.65695e-10)
(6.14774e-10 2.19481e-10 1.69924e-09)
(-2.11646e-09 2.91781e-10 1.82402e-09)
(-5.75624e-09 6.36108e-10 1.70792e-09)
(-1.13888e-08 -3.69638e-10 2.21242e-09)
(-1.67571e-08 -4.24413e-10 3.12996e-09)
(-2.12678e-08 -7.32611e-10 1.04756e-09)
(-2.2983e-08 -9.14814e-11 -6.02091e-10)
)
;
    }
    procBoundary0to4
    {
        type            processor;
        value           nonuniform List<vector> 
36
(
(8.40626e-10 -1.16822e-10 7.99331e-11)
(1.92804e-09 -1.63979e-10 2.42339e-10)
(2.2383e-09 -1.20082e-09 7.97989e-10)
(1.7093e-09 -1.16814e-09 1.02975e-09)
(6.93758e-10 -1.82003e-09 8.62812e-10)
(-8.35395e-10 -1.25541e-09 5.0101e-10)
(-4.45704e-09 -1.52713e-09 1.18569e-09)
(-6.79747e-09 -4.33662e-10 8.48642e-10)
(-6.92061e-09 1.46033e-09 8.16014e-10)
(1.26642e-09 -5.01142e-10 4.11676e-10)
(2.26399e-09 -1.76769e-09 6.27079e-10)
(1.92119e-09 -1.85971e-09 1.44683e-09)
(7.19434e-10 -1.86084e-09 2.15466e-09)
(-2.49254e-09 -2.9943e-09 2.49989e-09)
(-4.93243e-09 -3.53449e-09 5.68943e-10)
(-9.30249e-09 -3.35305e-09 1.93483e-09)
(-1.18606e-08 -3.44166e-10 6.20981e-10)
(-1.72988e-08 1.4215e-09 9.93379e-10)
(1.29409e-09 -4.35459e-10 6.25058e-10)
(1.17966e-09 -1.45827e-09 1.3184e-09)
(-2.79226e-10 -1.75508e-09 1.85241e-09)
(-2.79079e-09 -1.47061e-09 3.46559e-09)
(-6.63498e-09 -2.83101e-09 3.22212e-09)
(-1.21282e-08 -3.44864e-09 1.78678e-09)
(-1.64642e-08 -2.31406e-09 1.75009e-09)
(-1.95171e-08 -1.52115e-09 7.90185e-10)
(-2.14205e-08 2.33938e-10 -1.41254e-09)
(1.11721e-09 -1.9695e-10 7.2621e-10)
(1.39142e-09 -5.53665e-10 1.59517e-09)
(-9.08251e-10 -2.33359e-10 2.705e-09)
(-3.38008e-09 -7.92704e-10 3.11184e-09)
(-1.01308e-08 -1.99567e-09 2.51187e-09)
(-1.71816e-08 -2.31465e-09 2.34308e-09)
(-2.07252e-08 -9.95429e-10 1.84736e-10)
(-2.31475e-08 -1.76409e-09 1.69938e-10)
(-2.44288e-08 6.87932e-10 -1.86698e-09)
)
;
    }
    procBoundary0to6
    {
        type            processor;
        value           uniform (-2.48393e-08 5.95773e-10 -8.47205e-10);
    }
    procBoundary0to7
    {
        type            processor;
        value           uniform (-2.79023e-08 4.38516e-09 -3.28765e-09);
    }
}


// ************************************************************************* //
