/*--------------------------------*- C++ -*----------------------------------*\
| =========                 |                                                 |
| \\      /  F ield         | OpenFOAM: The Open Source CFD Toolbox           |
|  \\    /   O peration     | Version:  4.x                                   |
|   \\  /    A nd           | Web:      www.OpenFOAM.org                      |
|    \\/     M anipulation  |                                                 |
\*---------------------------------------------------------------------------*/
FoamFile
{
    version     2.0;
    format      ascii;
    class       volVectorField;
    location    "52.5";
    object      DDtUrel;
}
// * * * * * * * * * * * * * * * * * * * * * * * * * * * * * * * * * * * * * //

dimensions      [0 1 -2 0 0 0 0];

internalField   nonuniform List<vector> 
114
(
(-0.000150364 -2.03877e-05 -3.29731e-06)
(-0.000286191 -5.02436e-05 -1.19619e-05)
(-0.000479954 -9.50355e-05 -3.82519e-05)
(-0.000848473 -0.000161205 -7.37954e-05)
(-0.00136012 -0.000271806 -0.000144185)
(-0.00197036 -0.000378574 -0.000221112)
(-5.44498e-05 2.69279e-06 6.57774e-06)
(-0.000138684 -1.96059e-05 -7.56175e-06)
(-0.000265714 -4.15831e-05 -1.38277e-05)
(-0.000477406 -8.67168e-05 -5.23283e-05)
(-0.000828579 -0.000140508 -8.61874e-05)
(-0.00129249 -0.000283123 -0.000209456)
(-0.00190174 -0.000427384 -0.000315423)
(-1.66911e-05 2.06875e-06 5.06938e-06)
(-6.37604e-05 -6.1281e-06 8.86254e-07)
(-0.00014054 -1.72478e-05 -1.06666e-05)
(-0.000270397 -3.42946e-05 -2.31775e-05)
(-0.000468077 -6.11284e-05 -6.00623e-05)
(-0.00080128 -0.000103451 -0.000107885)
(-0.00117898 -0.000179053 -0.000206906)
(-0.0016913 -0.000246125 -0.000290663)
(4.6472e-05 1.71171e-05 2.40776e-05)
(-1.66703e-06 8.86585e-06 2.34966e-05)
(-1.62177e-05 4.48485e-06 2.23757e-05)
(-0.000115251 -2.37106e-05 2.82288e-05)
(-0.00019092 -4.00274e-05 2.01818e-05)
(-0.00043494 -0.000108076 5.60008e-05)
(-0.000696358 -0.000164157 6.44731e-05)
(-0.00138081 -0.000363481 0.000228574)
(-0.00233904 -0.000517629 0.000381836)
(2.60492e-05 1.49435e-05 1.22573e-05)
(-1.14795e-05 7.01356e-06 1.13002e-05)
(-3.97961e-05 2.18363e-06 1.01893e-05)
(-0.000124429 -1.82488e-05 1.29767e-05)
(-0.000231344 -3.37742e-05 1.55528e-05)
(-0.000444525 -9.72817e-05 3.62843e-05)
(-0.00076372 -0.000151897 5.82814e-05)
(-0.00127075 -0.000377523 0.000187808)
(-0.00199091 -0.000537891 0.000291384)
(8.80483e-06 5.66833e-06 7.6017e-06)
(-1.93257e-05 9.9467e-08 5.85995e-06)
(-5.63697e-05 -6.02624e-06 7.14711e-06)
(-0.000132443 -1.80892e-05 7.166e-06)
(-0.000243241 -3.33989e-05 1.01107e-05)
(-0.000441315 -6.9432e-05 2.12826e-05)
(-0.000754512 -0.000102055 3.08343e-05)
(-0.001157 -0.000228941 0.000121068)
(-0.001745 -0.000344542 0.00020919)
(4.75486e-06 -3.75816e-06 2.15922e-06)
(-2.5513e-05 -4.93588e-06 1.7175e-06)
(6.0349e-05 1.27171e-05 1.23132e-05)
(2.57525e-05 7.78336e-06 1.71239e-05)
(1.84986e-05 3.85205e-07 2.10431e-05)
(-6.82993e-05 -2.07283e-05 3.88135e-05)
(-0.000138041 -4.44659e-05 5.15613e-05)
(-0.000388047 -0.000105495 0.000115949)
(-0.000681394 -0.00018437 0.000177922)
(-0.00149173 -0.000359043 0.000457312)
(-0.00251647 -0.000514523 0.00072205)
(4.55628e-05 9.48513e-06 6.25801e-06)
(1.03305e-05 1.84097e-06 1.0414e-05)
(-3.745e-06 -4.28092e-07 1.07698e-05)
(-8.89911e-05 -2.06397e-05 2.66105e-05)
(-0.000172406 -3.23013e-05 3.69535e-05)
(-0.000406464 -9.28432e-05 9.43798e-05)
(-0.000710394 -0.000147367 0.000155973)
(-0.00139175 -0.000351649 0.00041057)
(-0.00228502 -0.000522354 0.000606381)
(2.30497e-05 1.57662e-06 -2.64006e-07)
(-7.43928e-06 -3.10115e-06 4.14514e-06)
(-4.01626e-05 -6.30781e-06 7.8441e-06)
(-0.000109891 -1.98341e-05 1.86788e-05)
(-0.000216373 -3.51518e-05 3.12651e-05)
(-0.000413916 -7.24361e-05 8.01388e-05)
(-0.000722502 -0.000120582 0.000142589)
(-0.00125392 -0.000249237 0.000389662)
(-0.00194058 -0.000348656 0.000560045)
(1.67251e-05 -4.47857e-06 -4.48883e-06)
(-2.0702e-05 -8.43865e-06 -1.19418e-06)
(-5.00756e-05 -1.2493e-05 1.22551e-06)
(-0.000125989 -1.81173e-05 1.20069e-05)
(0.000120766 8.46829e-06 1.0336e-05)
(8.6521e-05 3.3082e-06 1.9563e-05)
(0.000109473 -4.62864e-06 2.17492e-05)
(1.04257e-05 -3.13774e-05 5.87619e-05)
(1.97292e-05 -5.22742e-05 6.61708e-05)
(-0.000291727 -0.000133564 0.000179989)
(-0.000401378 -0.000204749 0.000235459)
(-0.0017248 -0.000506649 0.000711758)
(-0.00329881 -0.000774113 0.00119715)
(8.91934e-05 2.36403e-06 2.96006e-06)
(5.19412e-05 -4.82882e-06 9.70726e-06)
(6.26322e-05 -4.20765e-06 1.03889e-05)
(-3.46652e-05 -2.99116e-05 3.81228e-05)
(-6.92181e-05 -3.59444e-05 4.64969e-05)
(-0.000356841 -0.000106662 0.000133033)
(-0.000596749 -0.000145123 0.000194225)
(-0.00157237 -0.000394437 0.000519826)
(-0.00279901 -0.000656249 0.000846965)
(5.7723e-05 -5.61712e-06 -4.37485e-06)
(1.78436e-05 -1.01752e-05 5.20313e-06)
(1.39068e-05 -1.06636e-05 6.56582e-06)
(-7.20344e-05 -2.64989e-05 3.32301e-05)
(-0.000118329 -3.3873e-05 3.61663e-05)
(-0.000364102 -7.99883e-05 0.000119418)
(-0.00057592 -0.000111341 0.000161741)
(-0.00142207 -0.000268538 0.000486635)
(-0.00251283 -0.000425862 0.000773046)
(3.83981e-05 -1.12943e-05 -1.05725e-05)
(-8.52133e-06 -1.65691e-05 -5.10056e-06)
(-2.28975e-05 -1.84724e-05 -5.6391e-06)
(-0.000109529 -3.00666e-05 1.55791e-05)
(-0.000165379 -3.20385e-05 2.63861e-05)
(-0.000384103 -6.94235e-05 8.623e-05)
)
;

boundaryField
{
    inlet
    {
        type            calculated;
        value           nonuniform 0();
    }
    outlet
    {
        type            calculated;
        value           nonuniform List<vector> 
12
(
(-0.00101629 -0.000142236 -0.000259895)
(-0.00233288 -0.000910481 -0.00134318)
(-0.00164808 -3.18874e-06 -0.00033412)
(-0.00709455 -0.0013905 0.00195966)
(-0.00338438 -0.00209667 0.00149528)
(-0.00281562 -0.00114057 0.00104434)
(-0.00469416 -0.000189923 0.00152111)
(-0.00485091 -0.00117378 0.00125613)
(-0.00226415 -0.000476203 0.00169948)
(-0.0123253 -0.00279693 0.00529759)
(-0.00769289 -0.00225917 0.00179783)
(-0.00765312 -0.000630438 0.00279874)
)
;
    }
    wall
    {
        type            calculated;
        value           nonuniform List<vector> 
66
(
(0.000556007 3.98976e-05 -1.61328e-05)
(0.000361621 2.47324e-05 -3.92602e-05)
(0.000250833 -1.27225e-05 -6.68817e-05)
(0.000263955 -1.50647e-05 -5.72023e-05)
(0.000193372 2.34395e-05 8.00657e-05)
(2.25069e-05 -5.9258e-05 1.09178e-05)
(-4.49823e-05 -4.19451e-05 5.29177e-05)
(-7.87856e-05 -6.61129e-05 -2.78494e-06)
(0.000926921 3.95609e-05 -5.40317e-05)
(0.000621704 9.04159e-05 -0.000101435)
(0.000408495 2.97732e-05 -5.35393e-05)
(0.000321202 -2.47112e-05 -0.000113037)
(3.84491e-05 -8.75647e-05 0.000279024)
(-9.59651e-05 -0.000128031 8.7961e-05)
(-8.45811e-05 -5.2873e-05 0.000193609)
(-0.000162437 -0.000130336 5.9591e-05)
(0.00181415 6.94063e-05 -0.000173666)
(0.000945137 0.000205925 -0.000206649)
(0.000822491 9.62062e-05 -0.000210961)
(0.000622022 3.75787e-05 -6.58238e-05)
(-0.000450521 -0.000334984 0.00070866)
(-0.000537602 -0.000252396 0.000231649)
(-0.000282546 -0.00010133 0.000432047)
(-0.000233653 -0.000365307 0.000239597)
(0.0049867 0.000297813 -0.000825452)
(0.0014725 0.000624111 -0.000572499)
(0.00206149 0.000301153 -0.000727031)
(-0.00209451 -0.00141349 0.00204974)
(-0.00130523 -0.000527282 0.00036301)
(-0.00103303 -0.000127 0.00116113)
(-0.0123253 -0.00279693 0.00529759)
(-0.00769289 -0.00225917 0.00179783)
(-0.00765312 -0.000630438 0.00279874)
(0.000264664 4.04757e-05 0.000113295)
(6.65331e-05 4.15963e-05 -1.85828e-05)
(0.000556007 3.98976e-05 -1.61328e-05)
(-9.08708e-05 -2.01011e-05 0.00012507)
(-0.000117544 4.43113e-05 1.36369e-05)
(0.000193372 2.34395e-05 8.00657e-05)
(0.000405734 9.113e-05 8.88616e-05)
(0.000172371 4.99471e-05 1.3916e-06)
(0.000926921 3.95609e-05 -5.40317e-05)
(-0.000256429 -1.95795e-05 3.14123e-05)
(-0.00019909 -9.84711e-05 0.000184103)
(-0.000157859 2.91752e-05 6.3883e-05)
(3.84491e-05 -8.75647e-05 0.000279024)
(-0.000793246 -0.000101377 4.39248e-05)
(0.000607624 0.000153311 -0.000105446)
(0.000229979 4.92676e-05 -1.98569e-05)
(0.00181415 6.94063e-05 -0.000173666)
(-5.93697e-05 -1.95926e-05 4.42913e-05)
(-0.00035507 -0.00022782 0.000309842)
(-0.000343497 7.42027e-06 0.00017736)
(-0.000450521 -0.000334984 0.00070866)
(-0.00101444 -0.000108737 -2.07142e-05)
(0.00130062 0.000315101 -0.000344758)
(0.000271851 1.2776e-05 -0.000288545)
(0.0049867 0.000297813 -0.000825452)
(-0.000403395 5.10945e-05 -5.13375e-05)
(-0.000554765 -0.000761016 0.00082959)
(-0.000729361 2.17669e-05 0.000569244)
(-0.00209451 -0.00141349 0.00204974)
(-0.00101629 -0.000142236 -0.000259895)
(-0.00709455 -0.0013905 0.00195966)
(-0.00469416 -0.000189923 0.00152111)
(-0.0123253 -0.00279693 0.00529759)
)
;
    }
    procBoundary5to1
    {
        type            processor;
        value           nonuniform List<vector> 
32
(
(-9.77984e-05 -1.64782e-05 -4.34697e-05)
(-0.000174837 -3.67881e-05 -4.182e-05)
(-0.000480289 -9.22546e-05 -0.00013577)
(-0.000814617 -0.000149104 -0.000180033)
(-0.00161466 -0.00027823 -0.000475024)
(-0.00262715 -0.000381123 -0.000798463)
(1.72019e-05 5.29762e-06 -1.89269e-06)
(-9.84002e-05 -2.32737e-05 -3.65562e-05)
(-0.000187935 -3.02679e-05 -4.82289e-05)
(-0.000471 -9.59413e-05 -0.000140767)
(-0.000797352 -0.000125377 -0.000207037)
(-0.00152904 -0.000340155 -0.000514667)
(-0.00245853 -0.000541832 -0.000817749)
(1.17747e-05 3.14744e-06 3.50496e-06)
(-2.64602e-05 -1.38499e-06 -6.27967e-06)
(-0.000119873 -1.85927e-05 -3.13513e-05)
(-0.000242598 -3.10074e-05 -5.71736e-05)
(-0.000476815 -7.17075e-05 -0.000145088)
(-0.00082882 -0.000103102 -0.000239105)
(-0.00135396 -0.000260222 -0.000518636)
(-0.0020358 -0.000370429 -0.000773112)
(2.64847e-05 2.7503e-05 1.90317e-05)
(-2.57261e-05 1.71285e-05 9.47118e-06)
(-7.56709e-05 7.65186e-06 6.80907e-06)
(-7.56709e-05 7.65186e-06 6.80907e-06)
(-7.56709e-05 7.65186e-06 6.80907e-06)
(2.84276e-05 1.95095e-05 1.49471e-05)
(-1.26688e-05 1.02589e-05 8.38811e-06)
(-1.26688e-05 1.02589e-05 8.38811e-06)
(-1.26688e-05 1.02589e-05 8.38811e-06)
(1.3927e-05 8.75519e-06 1.0806e-05)
(1.3927e-05 8.75519e-06 1.0806e-05)
)
;
    }
    procBoundary5to4
    {
        type            processor;
        value           nonuniform List<vector> 
12
(
(5.22774e-05 1.46886e-05 2.41842e-05)
(3.6974e-05 1.20768e-05 1.47067e-05)
(2.69771e-05 6.25156e-06 7.90377e-06)
(2.18147e-05 -1.89046e-06 4.97358e-06)
(6.29762e-05 1.16663e-05 1.34987e-05)
(4.90386e-05 6.02328e-06 8.44136e-06)
(3.49806e-05 4.89532e-07 2.60546e-06)
(2.63833e-05 -5.62601e-06 -1.65264e-06)
(0.000107622 5.67624e-06 1.43725e-05)
(8.35512e-05 -2.3127e-06 6.08213e-06)
(5.93646e-05 -7.86793e-06 3.95177e-07)
(4.37725e-05 -1.30051e-05 -5.40895e-06)
)
;
    }
    procBoundary5to7
    {
        type            processor;
        value           nonuniform List<vector> 
44
(
(-1.99505e-05 -2.36651e-06 2.32845e-06)
(-6.68124e-05 -5.87597e-06 -1.926e-06)
(-0.000145576 -1.07625e-05 -1.31363e-05)
(-0.000273803 -1.30149e-05 -2.77344e-05)
(-0.000468563 -1.77512e-05 -7.07426e-05)
(-0.000798292 -2.93149e-05 -0.000120938)
(-0.00114775 -8.52248e-06 -0.000245746)
(-0.00163883 7.24812e-06 -0.000357911)
(1.61428e-05 1.50031e-06 8.85924e-06)
(-1.99505e-05 -2.36651e-06 2.32845e-06)
(-6.64383e-05 -8.14493e-06 3.88906e-06)
(-0.000139344 -1.17987e-05 1.95958e-07)
(-0.000255627 -1.50479e-05 -3.80394e-09)
(-0.000439674 -2.54896e-05 -1.61485e-06)
(-0.00074688 -3.06091e-05 4.84999e-06)
(-0.0011027 -7.07193e-05 4.94382e-05)
(-0.00162994 -0.000108168 9.64302e-05)
(7.83968e-06 -8.83867e-06 6.9866e-07)
(-6.64383e-05 -8.14493e-06 3.88906e-06)
(-2.68015e-05 -8.56904e-06 -2.14794e-06)
(-6.64383e-05 -8.14493e-06 3.88906e-06)
(-0.000139344 -1.17987e-05 1.95958e-07)
(-0.000221832 -2.4611e-05 2.18618e-05)
(-0.000412959 -4.18654e-05 6.1971e-05)
(-0.000708572 -6.43378e-05 0.000101209)
(-0.00117182 -0.000107173 0.000322178)
(-0.0018405 -0.000165746 0.000459864)
(5.78648e-06 -1.19628e-05 -7.22373e-06)
(-2.9629e-05 -1.27745e-05 -6.38621e-06)
(-6.65372e-05 -1.52736e-05 -4.53282e-06)
(-0.000221832 -2.4611e-05 2.18618e-05)
(-0.000137803 -1.30809e-05 -6.85562e-07)
(-0.000221832 -2.4611e-05 2.18618e-05)
(-0.000412959 -4.18654e-05 6.1971e-05)
(-0.000598512 -6.97024e-05 0.000139653)
(-0.00130792 -0.000208041 0.000370805)
(-0.0022745 -0.000372421 0.000553601)
(1.09681e-05 -1.50266e-05 -1.8726e-05)
(-3.41803e-05 -1.84258e-05 -1.36251e-05)
(-6.85469e-05 -1.98495e-05 -1.26378e-05)
(-0.000145638 -2.30362e-05 -1.95794e-06)
(-0.000240361 -2.28422e-05 -9.56225e-07)
(-0.000598512 -6.97024e-05 0.000139653)
(-0.00042845 -2.9045e-05 3.37941e-05)
)
;
    }
}


// ************************************************************************* //
