/*--------------------------------*- C++ -*----------------------------------*\
| =========                 |                                                 |
| \\      /  F ield         | OpenFOAM: The Open Source CFD Toolbox           |
|  \\    /   O peration     | Version:  4.x                                   |
|   \\  /    A nd           | Web:      www.OpenFOAM.org                      |
|    \\/     M anipulation  |                                                 |
\*---------------------------------------------------------------------------*/
FoamFile
{
    version     2.0;
    format      ascii;
    class       volScalarField;
    location    "52.5";
    object      particleRelTemp;
}
// * * * * * * * * * * * * * * * * * * * * * * * * * * * * * * * * * * * * * //

dimensions      [0 0 0 0 0 0 0];

internalField   nonuniform List<scalar> 
114
(
3.36218e-13
5.9694e-13
8.06292e-13
1.09236e-12
1.30075e-12
1.51229e-12
3.60177e-13
5.37402e-13
8.43472e-13
1.12209e-12
1.38226e-12
1.64151e-12
1.87655e-12
2.24679e-13
5.12517e-13
7.94671e-13
1.02226e-12
1.31346e-12
1.6552e-12
1.92615e-12
2.19176e-12
-2.12763e-13
-1.14234e-13
1.23877e-13
2.33226e-13
5.01485e-13
6.857e-13
9.46253e-13
1.1124e-12
1.3479e-12
-1.24129e-13
4.50116e-14
2.86449e-13
4.84095e-13
7.57786e-13
1.02844e-12
1.24108e-12
1.51637e-12
1.70989e-12
1.99162e-14
2.9786e-13
4.45105e-13
7.40733e-13
1.0236e-12
1.26445e-12
1.58795e-12
1.89659e-12
2.04961e-12
5.5875e-14
3.91377e-13
-2.85564e-13
-1.70446e-13
-2.55585e-14
1.17603e-13
3.36345e-13
3.78282e-13
6.50878e-13
7.80986e-13
1.08925e-12
-1.66404e-13
-4.46747e-14
1.23792e-13
3.36513e-13
5.60013e-13
8.0524e-13
9.28695e-13
1.07186e-12
1.36513e-12
-4.63169e-14
1.00676e-13
3.16934e-13
5.20265e-13
8.13619e-13
1.06091e-12
1.30348e-12
1.53604e-12
1.70711e-12
-8.24019e-14
1.5693e-13
3.87251e-13
6.19299e-13
-3.86662e-13
-3.12218e-13
-2.44848e-13
-7.53281e-14
1.08718e-13
1.46656e-13
3.34787e-13
4.44179e-13
6.92774e-13
-2.89691e-13
-1.95668e-13
-5.45276e-14
1.33687e-13
3.13902e-13
4.85232e-13
6.87847e-13
8.01703e-13
1.03447e-12
-2.02826e-13
-6.2233e-14
1.33266e-13
3.50787e-13
6.04182e-13
8.47641e-13
9.91223e-13
1.16116e-12
1.31679e-12
-1.78488e-13
-1.60846e-14
2.0232e-13
4.40852e-13
7.19175e-13
9.63222e-13
)
;

boundaryField
{
    inlet
    {
        type            calculated;
        value           nonuniform 0();
    }
    outlet
    {
        type            calculated;
        value           nonuniform List<scalar> 
12
(
1.51229e-12
1.87655e-12
2.19176e-12
1.3479e-12
1.70989e-12
2.04961e-12
1.08925e-12
1.36513e-12
1.70711e-12
6.92774e-13
1.03447e-12
1.31679e-12
)
;
    }
    wall
    {
        type            calculated;
        value           nonuniform List<scalar> 
66
(
-3.86662e-13
-2.89691e-13
-2.02826e-13
-1.78488e-13
-3.12218e-13
-1.95668e-13
-6.2233e-14
-1.60846e-14
-2.44848e-13
-5.45276e-14
1.33266e-13
2.0232e-13
-7.53281e-14
1.33687e-13
3.50787e-13
4.40852e-13
1.08718e-13
3.13902e-13
6.04182e-13
7.19175e-13
1.46656e-13
4.85232e-13
8.47641e-13
9.63222e-13
3.34787e-13
6.87847e-13
9.91223e-13
4.44179e-13
8.01703e-13
1.16116e-12
6.92774e-13
1.03447e-12
1.31679e-12
-2.12763e-13
-2.85564e-13
-3.86662e-13
-1.14234e-13
-1.70446e-13
-3.12218e-13
1.23877e-13
-2.55585e-14
-2.44848e-13
3.36218e-13
2.33226e-13
1.17603e-13
-7.53281e-14
5.9694e-13
5.01485e-13
3.36345e-13
1.08718e-13
8.06292e-13
6.857e-13
3.78282e-13
1.46656e-13
1.09236e-12
9.46253e-13
6.50878e-13
3.34787e-13
1.30075e-12
1.1124e-12
7.80986e-13
4.44179e-13
1.51229e-12
1.3479e-12
1.08925e-12
6.92774e-13
)
;
    }
    procBoundary5to1
    {
        type            processor;
        value           nonuniform List<scalar> 
32
(
2.54069e-13
4.8578e-13
7.83808e-13
1.0172e-12
1.16007e-12
1.34285e-12
1.92847e-13
4.17189e-13
7.23133e-13
9.77454e-13
1.30277e-12
1.5378e-12
1.80076e-12
2.01184e-13
3.44345e-13
6.34752e-13
9.19979e-13
1.25056e-12
1.57743e-12
1.84396e-12
2.00363e-12
-2.283e-13
-6.55173e-14
1.1575e-13
1.1575e-13
1.1575e-13
-8.72862e-14
1.29645e-13
1.29645e-13
1.29645e-13
5.89487e-16
5.89487e-16
)
;
    }
    procBoundary5to4
    {
        type            processor;
        value           nonuniform List<scalar> 
12
(
-3.48345e-13
-2.54869e-13
-1.58067e-13
-1.19119e-13
-4.12641e-13
-3.25229e-13
-2.44553e-13
-1.95373e-13
-5.06454e-13
-4.20262e-13
-3.37608e-13
-3.16807e-13
)
;
    }
    procBoundary5to7
    {
        type            processor;
        value           nonuniform List<scalar> 
44
(
3.11923e-13
5.40981e-13
8.46588e-13
1.12672e-12
1.4885e-12
1.80766e-12
2.11588e-12
2.27496e-12
8.82126e-14
3.11923e-13
5.74413e-13
8.15135e-13
1.0975e-12
1.41321e-12
1.71823e-12
2.02767e-12
2.1947e-12
8.4044e-14
5.74413e-13
2.66827e-13
5.74413e-13
8.15135e-13
9.8137e-13
1.181e-12
1.46749e-12
1.66682e-12
1.97226e-12
-8.62336e-14
1.84341e-13
3.56261e-13
9.8137e-13
6.22835e-13
9.8137e-13
1.181e-12
1.18356e-12
1.38765e-12
1.50934e-12
-2.12047e-13
-2.84217e-14
1.98952e-13
4.15336e-13
6.61278e-13
1.18356e-12
8.98505e-13
)
;
    }
}


// ************************************************************************* //
