/*--------------------------------*- C++ -*----------------------------------*\
| =========                 |                                                 |
| \\      /  F ield         | OpenFOAM: The Open Source CFD Toolbox           |
|  \\    /   O peration     | Version:  4.x                                   |
|   \\  /    A nd           | Web:      www.OpenFOAM.org                      |
|    \\/     M anipulation  |                                                 |
\*---------------------------------------------------------------------------*/
FoamFile
{
    version     2.0;
    format      ascii;
    class       volScalarField;
    location    "52.5";
    object      QPartFluidCoeff;
}
// * * * * * * * * * * * * * * * * * * * * * * * * * * * * * * * * * * * * * //

dimensions      [1 -1 -3 -1 0 0 0];

internalField   nonuniform List<scalar> 
114
(
-2.61933e+07
-2.41406e+07
-2.34419e+07
-1.90696e+07
-2.6314e+07
-1.95481e+07
-2.42524e+07
-2.35258e+07
-1.97323e+07
-2.76089e+07
-2.84017e+07
-3.38293e+07
-2.18599e+07
-3.31956e+07
-2.05094e+07
-2.90672e+07
-1.96419e+07
-1.77381e+07
-2.48951e+07
-2.08719e+07
-2.21657e+07
-2.21776e+07
-1.90074e+07
-2.52684e+07
-2.12893e+07
-2.19915e+07
-2.79518e+07
-2.42366e+07
-2.27141e+07
-1.63255e+07
-2.70581e+07
-2.7487e+07
-3.0839e+07
-3.00572e+07
-2.95659e+07
-3.3919e+07
-1.80909e+07
-3.56355e+07
-2.1249e+07
-2.8396e+07
-1.83792e+07
-2.43081e+07
-3.03942e+07
-2.06507e+07
-2.81199e+07
-2.44061e+07
-2.70947e+07
-1.499e+07
-3.4293e+07
-1.69214e+07
-2.4208e+07
-3.1835e+07
-2.45273e+07
-2.86225e+07
-2.53714e+07
-2.68774e+07
-2.2455e+07
-2.9331e+07
-1.72709e+07
-2.06716e+07
-3.63725e+07
-2.3407e+07
-3.04452e+07
-2.77733e+07
-3.07159e+07
-3.59737e+07
-2.9183e+07
-1.60289e+07
-2.46942e+07
-2.59523e+07
-2.60814e+07
-2.46502e+07
-3.79009e+07
-3.08991e+07
-3.0126e+07
-3.66317e+07
-2.74294e+07
-1.76816e+07
-3.91693e+07
-3.1865e+07
-3.33175e+07
-8.30012e+06
-2.2912e+07
-1.50994e+07
-2.57642e+07
-2.02175e+07
-1.95342e+07
-2.39137e+07
-2.64559e+07
-1.66923e+07
-2.32392e+07
-2.74258e+07
-1.68101e+07
-2.31359e+07
-2.73215e+07
-2.56825e+07
-1.82669e+07
-3.01175e+07
-1.78235e+07
-2.02723e+07
-2.4423e+07
-2.90874e+07
-2.62292e+07
-2.0897e+07
-3.15821e+07
-2.34354e+07
-2.73739e+07
-2.14319e+07
-2.40467e+07
-2.16536e+07
-2.45316e+07
-2.2539e+07
-3.48335e+07
-2.85544e+07
)
;

boundaryField
{
    inlet
    {
        type            calculated;
        value           nonuniform 0();
    }
    outlet
    {
        type            calculated;
        value           uniform 0;
    }
    wall
    {
        type            calculated;
        value           uniform 0;
    }
    procBoundary5to1
    {
        type            processor;
        value           nonuniform List<scalar> 
32
(
726.826
460.345
730.444
572.693
560.392
241.091
491.18
612.839
619.291
687.38
577.674
715.44
280.549
594.632
412.911
841.669
670.223
810.024
567.731
733.703
256.216
488.773
418.205
573.552
573.552
573.552
594.129
922.386
922.386
922.386
446.096
446.096
)
;
    }
    procBoundary5to4
    {
        type            processor;
        value           nonuniform List<scalar> 
12
(
729.609
840.011
509.952
535.322
724.32
794.035
652.543
615.576
620.465
648.91
532.852
536.206
)
;
    }
    procBoundary5to7
    {
        type            processor;
        value           nonuniform List<scalar> 
44
(
694.774
491.508
604.697
841.386
949.782
606.776
495.385
465.802
768.789
694.774
495.703
653.542
529.088
620.972
667.009
747.481
458.211
291.562
495.703
763.859
495.703
653.542
380.002
551.812
623.379
580.503
352.449
648.62
692.522
536.083
380.002
494.094
380.002
551.812
446.7
614.243
370.318
553.196
530.22
570.024
653.773
391.111
446.7
371.823
)
;
    }
}


// ************************************************************************* //
