/*--------------------------------*- C++ -*----------------------------------*\
| =========                 |                                                 |
| \\      /  F ield         | OpenFOAM: The Open Source CFD Toolbox           |
|  \\    /   O peration     | Version:  4.x                                   |
|   \\  /    A nd           | Web:      www.OpenFOAM.org                      |
|    \\/     M anipulation  |                                                 |
\*---------------------------------------------------------------------------*/
FoamFile
{
    version     2.0;
    format      ascii;
    class       volVectorField;
    location    "35";
    object      impParticleForces;
}
// * * * * * * * * * * * * * * * * * * * * * * * * * * * * * * * * * * * * * //

dimensions      [1 1 -2 0 0 0 0];

internalField   nonuniform List<vector> 
132
(
(0.0022588 -2.12058e-05 -8.7035e-05)
(0.0022725 -2.09884e-05 -8.66735e-05)
(0.00231412 -2.00431e-05 -8.53303e-05)
(0.0023311 -1.70658e-05 -8.06731e-05)
(0.00237405 -1.30102e-05 -7.56752e-05)
(0.0024023 -6.56229e-06 -6.90597e-05)
(0.00244015 2.75134e-06 -6.22515e-05)
(0.00241402 1.88115e-05 -5.31215e-05)
(0.00240988 4.75166e-05 -4.42005e-05)
(0.00227987 -1.90005e-05 -8.89824e-05)
(0.00230972 -1.92246e-05 -8.96957e-05)
(0.00235714 -1.86144e-05 -8.8697e-05)
(0.00237438 -1.56886e-05 -8.38126e-05)
(0.00241103 -1.19132e-05 -7.83151e-05)
(0.00243862 -6.20552e-06 -7.12595e-05)
(0.00245623 1.87974e-06 -6.33473e-05)
(0.00245158 1.4211e-05 -5.44885e-05)
(0.00247002 3.28695e-05 -4.62479e-05)
(0.00229497 -1.28533e-05 -9.06358e-05)
(0.00233101 -1.30852e-05 -9.17986e-05)
(0.00237663 -1.23726e-05 -9.07554e-05)
(0.00239428 -9.92412e-06 -8.56772e-05)
(0.00244414 -7.17265e-06 -8.07193e-05)
(0.00243872 -2.37171e-06 -7.19357e-05)
(0.00245626 3.47205e-06 -6.3703e-05)
(0.00245329 1.17659e-05 -5.46431e-05)
(0.00248676 2.22829e-05 -4.69044e-05)
(0.00230408 -3.88036e-06 -9.10936e-05)
(0.00232509 -3.41182e-06 -9.14347e-05)
(0.00236275 -2.42563e-06 -9.0073e-05)
(0.00228991 -2.28093e-05 -8.63552e-05)
(0.00232117 -2.33112e-05 -8.72506e-05)
(0.00236738 -2.26633e-05 -8.62572e-05)
(0.00238917 -1.96799e-05 -8.14431e-05)
(0.00242939 -1.57999e-05 -7.61594e-05)
(0.00244041 -9.34371e-06 -6.87346e-05)
(0.00247358 -9.63849e-07 -6.17606e-05)
(0.00244372 1.23884e-05 -5.26332e-05)
(0.00245565 3.1693e-05 -4.43931e-05)
(0.00231887 -2.08557e-05 -8.88515e-05)
(0.00237339 -2.20526e-05 -9.14891e-05)
(0.00241991 -2.16325e-05 -9.05337e-05)
(0.00243742 -1.85601e-05 -8.50819e-05)
(0.00249248 -1.54288e-05 -8.01722e-05)
(0.00248688 -8.94332e-06 -7.14e-05)
(0.00251782 -1.75114e-06 -6.38938e-05)
(0.00249159 9.31492e-06 -5.42843e-05)
(0.00250529 2.3448e-05 -4.58381e-05)
(0.00233966 -1.41517e-05 -9.09512e-05)
(0.00238969 -1.49694e-05 -9.34138e-05)
(0.00243666 -1.44153e-05 -9.26413e-05)
(0.00245262 -1.19342e-05 -8.68561e-05)
(0.00249848 -9.14854e-06 -8.1428e-05)
(0.00248598 -4.22258e-06 -7.18712e-05)
(0.00252533 1.04223e-06 -6.42813e-05)
(0.00247855 8.86521e-06 -5.3699e-05)
(0.00248995 1.77298e-05 -4.51179e-05)
(0.00236081 -4.17509e-06 -9.26764e-05)
(0.00238529 -3.82129e-06 -9.32943e-05)
(0.00244071 -3.0707e-06 -9.34694e-05)
(0.00244848 -1.37105e-06 -8.69746e-05)
(0.00251263 5.14541e-07 -8.28166e-05)
(0.00230429 -2.45894e-05 -8.02051e-05)
(0.00233453 -2.51737e-05 -8.1032e-05)
(0.00238723 -2.49288e-05 -8.05362e-05)
(0.00239512 -2.17287e-05 -7.54968e-05)
(0.00243203 -1.80957e-05 -7.05786e-05)
(0.00243059 -1.19952e-05 -6.34289e-05)
(0.00246024 -5.07464e-06 -5.71596e-05)
(0.00243074 5.1777e-06 -4.89563e-05)
(0.00243052 1.74418e-05 -4.11338e-05)
(0.00234369 -2.28864e-05 -8.30628e-05)
(0.00238705 -2.39867e-05 -8.48203e-05)
(0.00243459 -2.37936e-05 -8.40226e-05)
(0.0024428 -2.05602e-05 -7.8623e-05)
(0.00248788 -1.74637e-05 -7.37563e-05)
(0.00247035 -1.11188e-05 -6.53402e-05)
(0.0025086 -5.16896e-06 -5.89846e-05)
(0.0024747 3.85421e-06 -5.02964e-05)
(0.00247884 1.38493e-05 -4.22341e-05)
(0.00236255 -1.55015e-05 -8.4617e-05)
(0.00239916 -1.60873e-05 -8.62497e-05)
(0.00245472 -1.61188e-05 -8.61379e-05)
(0.00246547 -1.36603e-05 -8.0641e-05)
(0.0025063 -1.11169e-05 -7.53258e-05)
(0.00247648 -6.04904e-06 -6.57774e-05)
(0.00250111 -1.32184e-06 -5.82711e-05)
(0.00244532 5.31455e-06 -4.86386e-05)
(0.00244735 1.20408e-05 -4.04678e-05)
(0.00237486 -4.23092e-06 -8.56552e-05)
(0.00240869 -4.04416e-06 -8.71967e-05)
(0.00246809 -3.37445e-06 -8.73759e-05)
(0.00246549 -1.81925e-06 -8.09645e-05)
(0.0024986 -2.1352e-07 -7.52226e-05)
(0.00247618 2.07193e-06 -6.60483e-05)
(0.00249383 4.57141e-06 -5.8117e-05)
(0.00229817 -2.55924e-05 -6.85462e-05)
(0.00232803 -2.62532e-05 -6.89988e-05)
(0.00238591 -2.63837e-05 -6.8703e-05)
(0.0023842 -2.29651e-05 -6.40306e-05)
(0.0024214 -1.96408e-05 -5.99328e-05)
(0.00241958 -1.43248e-05 -5.41653e-05)
(0.00243644 -8.46721e-06 -4.81022e-05)
(0.00240144 -5.38791e-07 -4.09444e-05)
(0.00241599 7.33395e-06 -3.42199e-05)
(0.00234189 -2.39987e-05 -7.06926e-05)
(0.00239286 -2.56201e-05 -7.21008e-05)
(0.00244443 -2.58054e-05 -7.1262e-05)
(0.00244362 -2.22675e-05 -6.6551e-05)
(0.00246086 -1.85701e-05 -6.13153e-05)
(0.00244479 -1.30029e-05 -5.46226e-05)
(0.00247917 -8.04205e-06 -4.89087e-05)
(0.00242973 -5.50581e-07 -4.13097e-05)
(0.00244255 6.69518e-06 -3.45607e-05)
(0.00236165 -1.63949e-05 -7.17772e-05)
(0.0023958 -1.68857e-05 -7.24058e-05)
(0.00246029 -1.72623e-05 -7.22815e-05)
(0.00244495 -1.4289e-05 -6.67467e-05)
(0.00246996 -1.1756e-05 -6.17131e-05)
(0.00244713 -7.28056e-06 -5.44702e-05)
(0.00246277 -2.88914e-06 -4.81593e-05)
(0.00240701 2.29665e-06 -4.02818e-05)
(0.00242254 7.3999e-06 -3.35954e-05)
(0.00236001 -4.31533e-06 -7.17096e-05)
(0.00240431 -4.10594e-06 -7.29654e-05)
(0.00246924 -3.52261e-06 -7.28081e-05)
(0.00245774 -2.03362e-06 -6.75527e-05)
(0.00245925 -4.9087e-07 -6.14751e-05)
(0.00244483 1.38374e-06 -5.46245e-05)
(0.00245475 3.58236e-06 -4.80017e-05)
(0.00239742 6.12149e-06 -4.02211e-05)
(0.00239099 8.73545e-06 -3.34014e-05)
)
;

boundaryField
{
    inlet
    {
        type            zeroGradient;
    }
    outlet
    {
        type            zeroGradient;
    }
    wall
    {
        type            zeroGradient;
    }
    procBoundary0to1
    {
        type            processor;
        value           nonuniform List<vector> 
12
(
(0.00243245 0.000109254 -3.50281e-05)
(0.00246603 6.22536e-05 -3.73459e-05)
(0.00246977 3.56641e-05 -3.79436e-05)
(0.00245585 6.14816e-05 -3.60881e-05)
(0.00249939 4.18393e-05 -3.72769e-05)
(0.00248533 2.75824e-05 -3.6697e-05)
(0.00242113 3.20089e-05 -3.38076e-05)
(0.00245445 2.47607e-05 -3.40333e-05)
(0.0024498 1.85386e-05 -3.30632e-05)
(0.00239078 1.56492e-05 -2.71983e-05)
(0.00242324 1.34488e-05 -2.74312e-05)
(0.00240371 1.18371e-05 -2.67363e-05)
)
;
    }
    procBoundary0to2
    {
        type            processor;
        value           nonuniform List<vector> 
44
(
(0.00240245 -8.70103e-07 -8.64423e-05)
(0.00243914 9.87263e-07 -8.07324e-05)
(0.00243677 3.71688e-06 -7.20872e-05)
(0.00247108 7.12455e-06 -6.44516e-05)
(0.00244733 1.18818e-05 -5.46338e-05)
(0.00245923 1.74582e-05 -4.62286e-05)
(0.00231117 6.01078e-06 -9.06872e-05)
(0.00233819 6.88932e-06 -9.16835e-05)
(0.00240245 -8.70103e-07 -8.64423e-05)
(0.00238226 8.00977e-06 -9.06481e-05)
(0.00240245 -8.70103e-07 -8.64423e-05)
(0.00243914 9.87263e-07 -8.07324e-05)
(0.00249972 2.85929e-06 -7.29547e-05)
(0.00253551 6.02293e-06 -6.51354e-05)
(0.00247913 1.03843e-05 -5.39629e-05)
(0.00249989 1.5202e-05 -4.5599e-05)
(0.00233821 6.78759e-06 -9.00504e-05)
(0.00238563 7.79653e-06 -9.25215e-05)
(0.00245066 9.22317e-06 -9.3275e-05)
(0.00246049 9.92923e-06 -8.73437e-05)
(0.00249972 2.85929e-06 -7.29547e-05)
(0.00249598 1.0859e-05 -8.14083e-05)
(0.00249972 2.85929e-06 -7.29547e-05)
(0.00253551 6.02293e-06 -6.51354e-05)
(0.0024438 8.09841e-06 -4.85557e-05)
(0.00244899 1.17869e-05 -4.04392e-05)
(0.00236336 7.70354e-06 -8.42154e-05)
(0.00239383 8.58197e-06 -8.52361e-05)
(0.00244987 9.9284e-06 -8.53465e-05)
(0.00245346 1.02948e-05 -7.98377e-05)
(0.00247562 1.07352e-05 -7.3792e-05)
(0.00246158 1.06992e-05 -6.54344e-05)
(0.0024438 8.09841e-06 -4.85557e-05)
(0.00248795 1.14253e-05 -5.82749e-05)
(0.0024438 8.09841e-06 -4.85557e-05)
(0.00244899 1.17869e-05 -4.04392e-05)
(0.0023665 8.40902e-06 -7.16979e-05)
(0.00241425 9.57279e-06 -7.28605e-05)
(0.00246516 1.10547e-05 -7.2605e-05)
(0.00244454 1.0648e-05 -6.70112e-05)
(0.00246244 1.09697e-05 -6.19191e-05)
(0.00243182 1.04118e-05 -5.46566e-05)
(0.00244906 1.07235e-05 -4.84978e-05)
(0.00240826 1.06859e-05 -4.12488e-05)
)
;
    }
    procBoundary0to4
    {
        type            processor;
        value           nonuniform List<vector> 
36
(
(0.00229517 -2.61687e-05 -5.52684e-05)
(0.00232194 -2.67153e-05 -5.51708e-05)
(0.0023805 -2.7031e-05 -5.41848e-05)
(0.00238828 -2.40497e-05 -5.11312e-05)
(0.00242022 -2.08155e-05 -4.74059e-05)
(0.00240188 -1.55753e-05 -4.2604e-05)
(0.00243061 -1.09787e-05 -3.74963e-05)
(0.00239577 -4.77373e-06 -3.15817e-05)
(0.00241165 5.53433e-07 -2.53896e-05)
(0.00234348 -2.47221e-05 -5.61206e-05)
(0.00237813 -2.56903e-05 -5.59664e-05)
(0.002442 -2.65615e-05 -5.48782e-05)
(0.00244392 -2.32921e-05 -5.17775e-05)
(0.0024628 -1.98626e-05 -4.75731e-05)
(0.00243532 -1.44741e-05 -4.24657e-05)
(0.00245384 -1.0037e-05 -3.71804e-05)
(0.00241176 -4.0587e-06 -3.14326e-05)
(0.00244332 7.2259e-07 -2.55804e-05)
(0.00236477 -1.70165e-05 -5.65103e-05)
(0.00241067 -1.81287e-05 -5.66631e-05)
(0.00245555 -1.81074e-05 -5.47946e-05)
(0.00244588 -1.53581e-05 -5.12824e-05)
(0.00245959 -1.27308e-05 -4.67483e-05)
(0.00242381 -8.47447e-06 -4.16557e-05)
(0.00243763 -4.86615e-06 -3.65587e-05)
(0.00240687 -7.99852e-07 -3.11676e-05)
(0.00240891 3.10451e-06 -2.57172e-05)
(0.00235223 -4.44418e-06 -5.61924e-05)
(0.00240275 -4.72493e-06 -5.59967e-05)
(0.00245466 -4.13421e-06 -5.43514e-05)
(0.00243346 -2.95955e-06 -5.07651e-05)
(0.00245566 -1.778e-06 -4.64318e-05)
(0.00242244 1.35522e-07 -4.16136e-05)
(0.00244538 1.9482e-06 -3.65843e-05)
(0.00238556 3.88542e-06 -3.14461e-05)
(0.00239257 5.68686e-06 -2.64395e-05)
)
;
    }
    procBoundary0to6
    {
        type            processor;
        value           uniform (0.00242173 1.11914e-05 -3.47846e-05);
    }
    procBoundary0to7
    {
        type            processor;
        value           uniform (0.00240041 1.11593e-05 -2.69907e-05);
    }
}


// ************************************************************************* //
