/*--------------------------------*- C++ -*----------------------------------*\
| =========                 |                                                 |
| \\      /  F ield         | OpenFOAM: The Open Source CFD Toolbox           |
|  \\    /   O peration     | Version:  4.x                                   |
|   \\  /    A nd           | Web:      www.OpenFOAM.org                      |
|    \\/     M anipulation  |                                                 |
\*---------------------------------------------------------------------------*/
FoamFile
{
    version     2.0;
    format      ascii;
    class       volScalarField;
    location    "35";
    object      KslPrev;
}
// * * * * * * * * * * * * * * * * * * * * * * * * * * * * * * * * * * * * * //

dimensions      [1 -3 -1 0 0 0 0];

internalField   nonuniform List<scalar> 
132
(
3316.79
6839.38
3086.61
5259.44
2904.62
4533.36
2788.83
4087.77
2612.7
3334.18
7338.34
3197.39
5925.44
3054.51
5201.67
2939.44
4736.54
2831.91
3349.21
7645.27
3256.65
6357.03
3178.77
5677
3060.62
5304.49
3010.66
3360.47
7624
3230.71
3369.24
7910.47
3295.47
6997.64
3255.63
6454.59
3207.8
6100.47
3100.7
3398.24
9066.8
3465.41
9027.01
3529.14
9424.87
3524.68
9995.45
3471.45
3439.35
9935.8
3549.91
10968.8
3651.16
13016.3
3707.08
17140.7
3663.38
3479.3
9807.41
3570.75
10919.5
3670.86
3396.56
8124.57
3374.46
7425.06
3321.28
6907.65
3246.42
6536.56
3111.93
3450.99
9570.55
3553.96
10384.4
3620.34
11587
3620.83
13233.8
3518.39
3493.36
10714.3
3671.79
14844.1
3785.57
21597
3778.89
28679.7
3680.24
3519.51
11458.1
3734.71
17918.2
3830.89
30661.8
3833.89
3386.99
8145.3
3390.21
7636.66
3363.21
7456.37
3341.69
7453.69
3289.77
3457.92
10139.1
3624.29
12339.4
3692.05
15333.2
3746.64
22416.9
3733.23
3513.11
11404.9
3766.4
19888
3900.37
55787
3984.65
1e+10
4025.79
3509.61
11736.8
3806.49
22500.5
3905.14
65950
3930.52
2.02239e+09
3912.73
)
;

boundaryField
{
    inlet
    {
        type            zeroGradient;
    }
    outlet
    {
        type            zeroGradient;
    }
    wall
    {
        type            zeroGradient;
    }
    procBoundary0to1
    {
        type            processor;
        value           uniform 0;
    }
    procBoundary0to2
    {
        type            processor;
        value           uniform 0;
    }
    procBoundary0to4
    {
        type            processor;
        value           uniform 0;
    }
    procBoundary0to6
    {
        type            processor;
        value           uniform 0;
    }
    procBoundary0to7
    {
        type            processor;
        value           uniform 0;
    }
}


// ************************************************************************* //
