/*--------------------------------*- C++ -*----------------------------------*\
| =========                 |                                                 |
| \\      /  F ield         | OpenFOAM: The Open Source CFD Toolbox           |
|  \\    /   O peration     | Version:  4.x                                   |
|   \\  /    A nd           | Web:      www.OpenFOAM.org                      |
|    \\/     M anipulation  |                                                 |
\*---------------------------------------------------------------------------*/
FoamFile
{
    version     2.0;
    format      ascii;
    class       volVectorField;
    location    "35";
    object      U;
}
// * * * * * * * * * * * * * * * * * * * * * * * * * * * * * * * * * * * * * //

dimensions      [0 1 -1 0 0 0 0];

internalField   nonuniform List<vector> 
132
(
(0.0300248 -0.000477111 -0.0013035)
(0.0146322 -0.000312589 -0.000919194)
(0.033047 -0.000580612 -0.00152518)
(0.0195361 -0.000239417 -0.00090562)
(0.0360369 -0.000426945 -0.00132576)
(0.0233648 -0.000126409 -0.000808074)
(0.0385797 -0.000301194 -0.00118166)
(0.0260343 -5.50276e-05 -0.000910255)
(0.0406758 -0.000134294 -0.00111684)
(0.0301297 -0.000887541 -0.00148384)
(0.0138484 -0.00063677 -0.000887383)
(0.0324765 -0.00110528 -0.00161447)
(0.017649 -0.000565882 -0.000936672)
(0.0347855 -0.000890714 -0.00149082)
(0.0206639 -0.000397596 -0.000813708)
(0.0368315 -0.000777853 -0.00130848)
(0.0228102 -0.000609443 -0.000784079)
(0.0384518 -0.000740331 -0.00110909)
(0.0301911 -0.000640575 -0.0016477)
(0.0134227 -0.000391277 -0.000871489)
(0.0321516 -0.000762139 -0.00173346)
(0.0165893 -0.00042713 -0.0009244)
(0.033884 -0.000552598 -0.00162052)
(0.0189315 -0.000200489 -0.000875679)
(0.0353723 -0.000433407 -0.00143101)
(0.020391 -0.000117957 -0.000635023)
(0.0364152 -0.000339476 -0.00111821)
(0.0302105 -0.000441539 -0.00168627)
(0.0134329 -0.000140487 -0.000837291)
(0.0322294 -0.00029289 -0.00170737)
(0.0299172 -0.000645197 -0.00207048)
(0.0128927 -0.00028826 -0.00118485)
(0.0316277 -0.000675376 -0.00207983)
(0.0150316 -0.000282381 -0.000981454)
(0.0328869 -0.000600619 -0.00146874)
(0.0166657 -0.00015326 -0.000685897)
(0.0339975 -0.000449202 -0.00105786)
(0.0176624 1.66965e-05 -0.000513206)
(0.0349285 -0.000193121 -0.000609606)
(0.0300002 -0.00118332 -0.00236285)
(0.0114834 -0.000544429 -0.00114454)
(0.0307059 -0.00128048 -0.00229769)
(0.011868 -0.000493369 -0.000938858)
(0.0310948 -0.001133 -0.00172113)
(0.0116203 -0.000345649 -0.000605999)
(0.0314721 -0.000971086 -0.00126916)
(0.0109863 -0.000230835 -0.00038603)
(0.0318173 -0.000746778 -0.000667683)
(0.029905 -0.000808569 -0.00253364)
(0.0105567 -0.00028294 -0.0010746)
(0.0301789 -0.000809308 -0.00249921)
(0.00982774 -0.000245602 -0.000845588)
(0.0301339 -0.000645974 -0.00179054)
(0.00841388 -7.85099e-05 -0.000447245)
(0.0300322 -0.000323212 -0.00102875)
(0.00637646 9.05606e-05 -0.000122983)
(0.0299766 -0.000133793 -0.000418451)
(0.0298185 -0.000219925 -0.00275812)
(0.0106582 -0.000108378 -0.00126836)
(0.0300381 -0.00021358 -0.00276712)
(0.00984914 -3.73962e-05 -0.000949365)
(0.030131 -2.39274e-05 -0.00207289)
(0.0298723 -0.000781753 -0.00182888)
(0.0126255 -0.000366692 -0.00111948)
(0.0311458 -0.000851186 -0.00194349)
(0.0141841 -0.00036063 -0.0011257)
(0.0322575 -0.000783516 -0.00161484)
(0.0154825 -0.00025601 -0.00109161)
(0.0333974 -0.000633837 -0.00132402)
(0.0163555 -0.00014367 -0.00123785)
(0.0344254 -0.000318741 -0.00125046)
(0.0298682 -0.00134971 -0.00207205)
(0.0109337 -0.000605916 -0.00111258)
(0.0301179 -0.00154703 -0.00209098)
(0.0103274 -0.000540786 -0.000890936)
(0.0302543 -0.00125848 -0.00154082)
(0.00936767 -0.000293076 -0.000791862)
(0.0305247 -0.000821998 -0.00127149)
(0.0082112 -0.00019539 -0.000758707)
(0.0310526 -0.00053046 -0.00106174)
(0.029749 -0.00104976 -0.00214485)
(0.00980571 -0.000475666 -0.00112676)
(0.0293877 -0.00119635 -0.00229626)
(0.00727869 -0.000309904 -0.000797278)
(0.0291528 -0.00084571 -0.00163697)
(0.00502377 -0.000153084 -0.00057496)
(0.0291801 -0.000438647 -0.000868186)
(0.00371672 -0.000137789 -0.000559679)
(0.0293288 -0.000333375 -8.41456e-05)
(0.0296937 -0.000207457 -0.00221745)
(0.00920057 -9.67345e-05 -0.00118233)
(0.0290671 -0.000193718 -0.00234391)
(0.00603151 -9.82648e-05 -0.000688385)
(0.0287377 -0.000203524 -0.00147797)
(0.0035284 -0.000144848 -0.000473095)
(0.0286789 -0.000324606 -0.00086309)
(0.0298954 -0.000912662 -0.00132394)
(0.0125736 -0.000440777 -0.00086185)
(0.0310056 -0.000917625 -0.00140844)
(0.0137435 -0.000340755 -0.000849344)
(0.0317342 -0.000688167 -0.00112223)
(0.0142885 -0.000286804 -0.000807634)
(0.0321413 -0.00063167 -0.000899784)
(0.0141839 -0.000132455 -0.000854337)
(0.0323818 -0.000348905 -0.000646602)
(0.0298062 -0.0015147 -0.00149889)
(0.0103561 -0.000742875 -0.000795533)
(0.0296689 -0.00172928 -0.00152153)
(0.00869473 -0.000603793 -0.000608167)
(0.0293542 -0.00138514 -0.00100705)
(0.00700234 -0.000492849 -0.000436911)
(0.0291672 -0.000838875 -0.000681716)
(0.00474808 -0.00040866 -0.000375125)
(0.0288498 -4.27015e-05 -0.000620024)
(0.0296037 -0.000971845 -0.00155339)
(0.0092229 -0.000484719 -0.000779872)
(0.0287643 -0.00112522 -0.00140188)
(0.00539996 -0.000283107 -0.000418547)
(0.027914 -0.000680479 -0.000877105)
(0.00192442 -0.000107883 -0.000169499)
(0.0272536 -4.06085e-05 -0.000674053)
(9.90199e-09 -2.08185e-09 2.72802e-09)
(0.0265336 0.000546377 -0.0002153)
(0.0296348 -0.000206119 -0.00140361)
(0.00900347 -1.95105e-06 -0.000791843)
(0.0285871 8.57541e-05 -0.00137228)
(0.00479695 7.70533e-05 -0.000452501)
(0.027762 0.000246381 -0.000992884)
(0.00162369 4.0415e-05 -0.000189153)
(0.0275406 5.48583e-05 -0.000620217)
(5.05484e-08 1.56499e-10 -3.90589e-09)
(0.0269515 -0.00010196 -3.28354e-05)
)
;

boundaryField
{
    inlet
    {
        type            fixedValue;
        value           uniform (0.01 0 0);
    }
    outlet
    {
        type            zeroGradient;
    }
    wall
    {
        type            fixedValue;
        value           uniform (0 0 0);
    }
    procBoundary0to1
    {
        type            processor;
        value           nonuniform List<vector> 
12
(
(0.0280732 0.000362352 -0.000868185)
(0.0241092 -0.000377241 -0.000794205)
(0.0207467 3.18465e-05 -0.000784987)
(0.0181245 0.000294156 -0.000177671)
(0.0102474 -0.000232503 -0.000162046)
(0.00381575 0.000142624 -0.000113707)
(0.0166958 0.000159432 -0.00145184)
(0.0075648 -0.000293893 -0.000938137)
(0.0028092 -0.000220363 -0.000585037)
(0.0128746 -8.83694e-05 -0.000526716)
(0.00197945 -0.00026939 -0.000173281)
(8.72173e-09 -2.39095e-09 3.66931e-09)
)
;
    }
    procBoundary0to2
    {
        type            processor;
        value           nonuniform List<vector> 
44
(
(0.0167138 -0.000162487 -0.000875405)
(0.0340502 -0.000236235 -0.00163941)
(0.0191505 -0.000181265 -0.000784682)
(0.0356674 -0.000239147 -0.0012281)
(0.0207358 -3.54116e-05 -0.000466185)
(0.0372036 -8.37572e-05 -0.000806653)
(0.0299715 0.000137228 -0.00138895)
(0.0128102 7.96422e-05 -0.000817063)
(0.0167138 -0.000162487 -0.000875405)
(0.0315676 0.000280368 -0.00163589)
(0.0167138 -0.000162487 -0.000875405)
(0.0340502 -0.000236235 -0.00163941)
(0.00826971 -1.71004e-05 -0.000608028)
(0.0302188 4.15437e-05 -0.00128696)
(0.00682337 6.05659e-05 -0.000456553)
(0.0307097 0.000268437 -0.00066071)
(0.0298756 0.000392858 -0.00230799)
(0.0106183 9.86243e-05 -0.00108258)
(0.0300272 0.000434765 -0.00240892)
(0.00937565 0.000226276 -0.000853697)
(0.00826971 -1.71004e-05 -0.000608028)
(0.029864 0.000545709 -0.00179127)
(0.00826971 -1.71004e-05 -0.000608028)
(0.0302188 4.15437e-05 -0.00128696)
(0.00214599 -0.000116014 -0.000395627)
(0.0286533 -0.000361702 -0.000203667)
(0.0297729 0.00055766 -0.00213385)
(0.0101174 0.000164133 -0.0010601)
(0.0293102 0.000480097 -0.00201767)
(0.00778235 0.000109881 -0.000707658)
(0.0290174 0.000303589 -0.00139809)
(0.00553427 -2.52227e-05 -0.000494953)
(0.00214599 -0.000116014 -0.000395627)
(0.0290639 -0.000162259 -0.000855402)
(0.00214599 -0.000116014 -0.000395627)
(0.0286533 -0.000361702 -0.000203667)
(0.0296968 0.000664747 -0.0018102)
(0.00927777 0.000382226 -0.000757036)
(0.0288977 0.000950765 -0.00156071)
(0.00619689 0.000310839 -0.000545538)
(0.0283007 0.000772463 -0.00103588)
(0.00380826 0.000258577 -0.000316453)
(0.0279892 0.000454278 -0.000436272)
(0.00184289 0.000178937 -0.000223784)
)
;
    }
    procBoundary0to4
    {
        type            processor;
        value           nonuniform List<vector> 
36
(
(0.0299359 -0.000984501 -0.000582701)
(0.0128579 -0.000474581 -0.000378238)
(0.0309868 -0.00107401 -0.000588512)
(0.0138373 -0.00044927 -0.000431684)
(0.031684 -0.000828936 -0.000326671)
(0.0144948 -0.000277163 -0.00032531)
(0.0324448 -0.000604245 -0.000297965)
(0.014773 -0.000269597 -0.00034205)
(0.0334587 -0.000565679 6.22083e-05)
(0.0297389 -0.00158859 -0.000445406)
(0.0105018 -0.000727087 -0.00022958)
(0.0294593 -0.00164491 -0.00033968)
(0.00834836 -0.000537444 -0.000231426)
(0.029317 -0.00121182 -0.000132798)
(0.00673922 -0.000372969 -0.000134801)
(0.029402 -0.000900052 -1.44823e-06)
(0.00519741 -0.00035976 -0.000112108)
(0.0298821 -0.000522124 0.000322974)
(0.0297304 -0.000965296 -0.000484304)
(0.00947887 -0.00054782 -0.000227313)
(0.0288046 -0.00108884 -0.00029377)
(0.00616896 -0.000401787 -8.23595e-05)
(0.0284386 -0.000930396 -1.86456e-05)
(0.00372735 -0.000305397 3.15799e-05)
(0.0284122 -0.000510521 -0.000122105)
(0.00142791 -0.000135929 4.96716e-05)
(0.0285904 0.000142591 -0.000311938)
(0.0296982 -0.000481014 -0.000504214)
(0.00935322 -8.57118e-05 -0.000145019)
(0.0285056 -0.000370336 -0.000187063)
(0.00553784 -0.00015677 -0.000107942)
(0.0278487 -0.000345142 -3.97342e-06)
(0.00223057 -8.47874e-05 2.19892e-05)
(0.0276558 -2.28285e-05 -2.08933e-05)
(4.02526e-05 -2.49514e-06 1.61727e-06)
(0.0275473 1.17074e-05 -0.000112967)
)
;
    }
    procBoundary0to6
    {
        type            processor;
        value           uniform (0.0276573 0.000169853 5.95267e-05);
    }
    procBoundary0to7
    {
        type            processor;
        value           uniform (8.3194e-09 -1.93219e-09 2.20061e-09);
    }
}


// ************************************************************************* //
