/*--------------------------------*- C++ -*----------------------------------*\
| =========                 |                                                 |
| \\      /  F ield         | OpenFOAM: The Open Source CFD Toolbox           |
|  \\    /   O peration     | Version:  4.x                                   |
|   \\  /    A nd           | Web:      www.OpenFOAM.org                      |
|    \\/     M anipulation  |                                                 |
\*---------------------------------------------------------------------------*/
FoamFile
{
    version     2.0;
    format      ascii;
    class       volVectorField;
    location    "50";
    object      impParticleForces;
}
// * * * * * * * * * * * * * * * * * * * * * * * * * * * * * * * * * * * * * //

dimensions      [1 1 -2 0 0 0 0];

internalField   nonuniform List<vector> 
132
(
(0.00241622 1.3984e-05 -2.92175e-05)
(0.00244681 1.58331e-05 -2.44233e-05)
(0.00241194 1.56051e-05 -1.98587e-05)
(0.00243555 1.44576e-05 -1.54024e-05)
(0.00241795 1.27996e-05 -1.12539e-05)
(0.0024296 1.20494e-05 -7.14e-06)
(0.0023518 1.06647e-05 -6.82658e-06)
(0.00231662 1.03871e-05 -6.81829e-06)
(0.00224335 1.18586e-05 -1.40961e-05)
(0.00241362 1.25606e-05 -3.02931e-05)
(0.00246326 1.28984e-05 -2.6085e-05)
(0.00241765 1.24216e-05 -2.19521e-05)
(0.00243232 1.19686e-05 -1.81986e-05)
(0.00240641 1.20851e-05 -1.51518e-05)
(0.00241744 1.28095e-05 -1.22525e-05)
(0.00235925 1.70277e-05 -1.31841e-05)
(0.00233303 2.04264e-05 -1.38877e-05)
(0.00225143 3.27226e-05 -2.09298e-05)
(0.00241952 1.18477e-05 -3.26724e-05)
(0.0024647 1.09175e-05 -2.91185e-05)
(0.00242905 1.02785e-05 -2.57609e-05)
(0.00244755 9.94619e-06 -2.29867e-05)
(0.00242685 1.17678e-05 -2.15721e-05)
(0.002455 1.26876e-05 -2.04174e-05)
(0.0023871 2.03001e-05 -2.25933e-05)
(0.00235854 2.54775e-05 -2.42381e-05)
(0.00225357 4.26243e-05 -3.50044e-05)
(0.0024034 1.04147e-05 -3.41398e-05)
(0.00241917 8.96342e-06 -3.06014e-05)
(0.00240599 7.99259e-06 -2.79262e-05)
(0.00240422 7.94337e-06 -2.5031e-05)
(0.00240563 9.14167e-06 -2.4868e-05)
(0.00241365 1.21332e-05 -2.33996e-05)
(0.00235753 1.87977e-05 -2.70085e-05)
(0.00233578 2.6908e-05 -2.83753e-05)
(0.00223279 3.58524e-05 -3.9602e-05)
(0.00238222 1.00846e-05 -1.48202e-05)
(0.00240754 9.25864e-06 -1.03519e-05)
(0.00237535 8.3098e-06 -6.08513e-06)
(0.00238443 7.4822e-06 -7.95288e-07)
(0.00233076 6.65656e-06 3.23521e-06)
(0.00231153 7.44193e-06 9.0975e-06)
(0.00222695 5.5596e-06 1.30757e-05)
(0.00238211 8.90073e-06 -2.44392e-05)
(0.00242487 8.59897e-06 -2.10309e-05)
(0.00238607 8.22593e-06 -1.75362e-05)
(0.00240684 7.62717e-06 -1.38907e-05)
(0.00238177 7.64066e-06 -1.03309e-05)
(0.00238394 8.42456e-06 -6.47021e-06)
(0.00232456 1.02556e-05 -3.87682e-06)
(0.00230909 1.43533e-05 1.89663e-07)
(0.00222225 1.92187e-05 1.77712e-06)
(0.00239397 8.86696e-06 -2.65858e-05)
(0.00243194 7.09741e-06 -2.36997e-05)
(0.00239279 6.58132e-06 -2.06102e-05)
(0.00240541 5.89833e-06 -1.74754e-05)
(0.00238869 6.78965e-06 -1.48232e-05)
(0.00240313 8.15982e-06 -1.18601e-05)
(0.0023409 1.19205e-05 -1.04614e-05)
(0.00230756 1.67999e-05 -8.17124e-06)
(0.00221837 2.46421e-05 -7.98648e-06)
(0.00237185 8.26508e-06 -2.8001e-05)
(0.00238962 6.18089e-06 -2.51266e-05)
(0.00236429 5.33691e-06 -2.25372e-05)
(0.0023752 4.54218e-06 -1.96561e-05)
(0.00235115 5.53405e-06 -1.72587e-05)
(0.00235206 7.51591e-06 -1.5075e-05)
(0.00230293 1.15072e-05 -1.46e-05)
(0.00227316 1.67708e-05 -1.31108e-05)
(0.00219052 2.15624e-05 -1.47868e-05)
(0.00236209 3.34291e-06 -2.57257e-06)
(0.00237565 2.24298e-06 2.79094e-06)
(0.0023328 5.26977e-07 9.73818e-06)
(0.00231582 -3.22381e-07 1.74988e-05)
(0.00222051 -2.07391e-06 3.33146e-05)
(0.00238628 6.17104e-06 -1.93896e-05)
(0.00241648 5.6853e-06 -1.68819e-05)
(0.00237617 4.65218e-06 -1.41017e-05)
(0.00239411 3.49149e-06 -1.09092e-05)
(0.0023691 2.75824e-06 -7.25051e-06)
(0.00237871 2.1706e-06 -3.06241e-06)
(0.00232641 3.22186e-06 1.91994e-06)
(0.00231706 4.45886e-06 8.083e-06)
(0.00222127 1.29458e-05 1.81789e-05)
(0.00239253 7.14553e-06 -2.12631e-05)
(0.00241782 5.46012e-06 -1.90599e-05)
(0.00238751 4.15737e-06 -1.67e-05)
(0.00241065 2.59436e-06 -1.42535e-05)
(0.00238433 2.48686e-06 -1.09865e-05)
(0.00239568 1.68344e-06 -8.16304e-06)
(0.00233755 4.79765e-06 -3.75071e-06)
(0.0023212 5.99914e-06 -1.32792e-07)
(0.00221609 1.6257e-05 8.19802e-06)
(0.00235956 6.9065e-06 -2.24173e-05)
(0.00237364 4.80663e-06 -2.00439e-05)
(0.00235367 3.18535e-06 -1.79963e-05)
(0.00237629 1.62505e-06 -1.55059e-05)
(0.00235033 1.12411e-06 -1.3098e-05)
(0.00236102 1.51602e-06 -1.07388e-05)
(0.00230663 3.52928e-06 -7.62945e-06)
(0.00227538 7.12873e-06 -4.67041e-06)
(0.00218573 1.03026e-05 1.12254e-06)
(0.00230858 -4.46288e-06 1.24696e-05)
(0.00230581 -4.63732e-06 2.17388e-05)
(0.00220323 -9.71921e-06 3.65899e-05)
(0.00235765 4.35947e-06 -1.68465e-05)
(0.00237425 3.56911e-06 -1.49614e-05)
(0.0023518 2.29504e-06 -1.2661e-05)
(0.00237384 8.8017e-07 -1.02574e-05)
(0.00233544 -3.50344e-07 -6.47045e-06)
(0.00233476 -9.82139e-07 -2.86798e-06)
(0.00229438 -1.36176e-06 2.82835e-06)
(0.00227817 5.97847e-07 8.50377e-06)
(0.00218881 2.1117e-06 1.80448e-05)
(0.0023533 5.90084e-06 -1.90507e-05)
(0.00236161 4.22348e-06 -1.73907e-05)
(0.00234914 2.67579e-06 -1.58771e-05)
(0.00238183 9.20312e-07 -1.43932e-05)
(0.00234466 6.97913e-08 -1.19384e-05)
(0.0023323 -3.02948e-07 -8.58293e-06)
(0.0022926 6.82434e-07 -5.54146e-06)
(0.00227617 2.25707e-06 -2.85905e-07)
(0.00218662 5.35411e-06 3.97749e-06)
(0.0023329 5.89696e-06 -2.0464e-05)
(0.00234888 3.9153e-06 -1.87486e-05)
(0.00233328 2.08136e-06 -1.73241e-05)
(0.00236535 2.70125e-07 -1.59658e-05)
(0.00233775 -9.69278e-07 -1.44183e-05)
(0.0023117 -3.01291e-07 -1.1169e-05)
(0.00226581 4.17153e-07 -9.37337e-06)
(0.00224152 3.07657e-06 -4.83237e-06)
(0.00216628 1.64234e-06 -5.91768e-06)
)
;

boundaryField
{
    inlet
    {
        type            zeroGradient;
    }
    outlet
    {
        type            zeroGradient;
    }
    wall
    {
        type            zeroGradient;
    }
    procBoundary7to0
    {
        type            processor;
        value           uniform (0.00240281 1.10848e-05 -3.42492e-05);
    }
    procBoundary7to1
    {
        type            processor;
        value           uniform (0.00241581 1.66674e-05 -2.86089e-05);
    }
    procBoundary7to3
    {
        type            processor;
        value           nonuniform List<vector> 
36
(
(0.0024589 1.9104e-05 -3.49091e-05)
(0.00249995 2.14956e-05 -2.92714e-05)
(0.00246843 2.09483e-05 -2.44483e-05)
(0.00249205 1.85114e-05 -1.97363e-05)
(0.00244642 1.57672e-05 -1.65863e-05)
(0.00245889 1.35373e-05 -1.3583e-05)
(0.00240231 1.21358e-05 -1.70547e-05)
(0.00237434 1.29412e-05 -2.11881e-05)
(0.00228981 1.08348e-05 -3.8926e-05)
(0.00245802 1.58629e-05 -3.54666e-05)
(0.00248222 1.64371e-05 -2.97917e-05)
(0.0024577 1.61758e-05 -2.53755e-05)
(0.00245543 1.54071e-05 -2.12538e-05)
(0.00242871 1.53168e-05 -1.84931e-05)
(0.00245619 1.71189e-05 -1.65166e-05)
(0.00240158 2.0338e-05 -2.0467e-05)
(0.00238193 2.77453e-05 -2.65347e-05)
(0.00228343 3.52728e-05 -4.19488e-05)
(0.00246537 1.41865e-05 -3.74815e-05)
(0.00250475 1.34517e-05 -3.28517e-05)
(0.00247321 1.28727e-05 -2.84725e-05)
(0.00248269 1.26969e-05 -2.48388e-05)
(0.0024597 1.45435e-05 -2.32872e-05)
(0.00249019 1.83329e-05 -2.34465e-05)
(0.00243494 2.61875e-05 -2.89989e-05)
(0.00240892 3.79329e-05 -3.88786e-05)
(0.00229844 5.61609e-05 -5.92036e-05)
(0.00243592 1.26415e-05 -3.83664e-05)
(0.00244628 1.12581e-05 -3.35118e-05)
(0.00243505 1.02284e-05 -3.00112e-05)
(0.00245463 9.88023e-06 -2.70808e-05)
(0.00245207 1.19362e-05 -2.6869e-05)
(0.00246869 1.59747e-05 -2.72083e-05)
(0.00240501 2.53097e-05 -3.43513e-05)
(0.00239468 3.78368e-05 -4.58702e-05)
(0.00229304 5.26171e-05 -6.82816e-05)
)
;
    }
    procBoundary7to5
    {
        type            processor;
        value           nonuniform List<vector> 
44
(
(0.00244972 2.05328e-05 -2.35086e-05)
(0.002413 2.02943e-05 -1.85923e-05)
(0.00243798 1.84045e-05 -1.39199e-05)
(0.00240006 1.48141e-05 -9.85987e-06)
(0.00239897 1.14688e-05 -5.61894e-06)
(0.00235008 7.2024e-06 -3.95163e-06)
(0.00232023 3.21084e-06 -3.55961e-06)
(0.002246 -2.61825e-06 -8.16654e-06)
(0.00239125 9.08949e-06 -2.27857e-05)
(0.00240093 1.01046e-05 -1.88777e-05)
(0.00238994 1.27421e-05 -1.28135e-05)
(0.00241698 1.21077e-05 -7.93921e-06)
(0.00237782 9.86806e-06 -3.22584e-06)
(0.00239001 7.55373e-06 2.62678e-06)
(0.00233347 3.48225e-06 8.05524e-06)
(0.00231455 -2.29169e-07 1.51458e-05)
(0.0022326 -8.02049e-06 2.1171e-05)
(0.00239125 9.08949e-06 -2.27857e-05)
(0.00240093 1.01046e-05 -1.88777e-05)
(0.00240093 1.01046e-05 -1.88777e-05)
(0.00238828 5.26014e-06 -1.09507e-05)
(0.00240858 4.43108e-06 -7.19861e-06)
(0.00239396 4.73238e-06 1.24261e-06)
(0.00240036 3.03265e-06 7.38618e-06)
(0.00235056 -8.77466e-07 1.57628e-05)
(0.00233893 -5.39021e-06 2.78778e-05)
(0.00224785 -1.45866e-05 4.66626e-05)
(0.00237728 5.18643e-06 -1.74275e-05)
(0.00242436 5.76838e-06 -1.43583e-05)
(0.00238828 5.26014e-06 -1.09507e-05)
(0.00240858 4.43108e-06 -7.19861e-06)
(0.00240858 4.43108e-06 -7.19861e-06)
(0.00236177 -1.26283e-06 -7.96857e-07)
(0.00235113 -1.89021e-06 4.31601e-06)
(0.00233234 -4.19043e-06 1.8979e-05)
(0.00232196 -7.11197e-06 2.82435e-05)
(0.00222983 -1.66811e-05 5.09032e-05)
(0.00234903 2.83785e-06 -1.47391e-05)
(0.00237625 2.92713e-06 -1.21202e-05)
(0.00236094 2.15524e-06 -9.19277e-06)
(0.00237723 1.0117e-06 -5.83965e-06)
(0.00236177 -1.26283e-06 -7.96857e-07)
(0.00235113 -1.89021e-06 4.31601e-06)
(0.00235113 -1.89021e-06 4.31601e-06)
)
;
    }
    procBoundary7to6
    {
        type            processor;
        value           nonuniform List<vector> 
12
(
(0.00243142 1.21869e-05 -3.52639e-05)
(0.00244955 1.3278e-05 -3.73125e-05)
(0.00240493 1.22826e-05 -3.7823e-05)
(0.00241861 8.81926e-06 -2.82726e-05)
(0.00243187 1.0275e-05 -3.02238e-05)
(0.00240052 1.03983e-05 -3.12163e-05)
(0.00241133 6.65339e-06 -2.18733e-05)
(0.00242691 9.33864e-06 -2.32811e-05)
(0.0023862 9.33303e-06 -2.45517e-05)
(0.00237002 5.04516e-06 -1.86658e-05)
(0.00238105 7.69154e-06 -2.05944e-05)
(0.00236539 8.2099e-06 -2.2075e-05)
)
;
    }
}


// ************************************************************************* //
