/*--------------------------------*- C++ -*----------------------------------*\
| =========                 |                                                 |
| \\      /  F ield         | OpenFOAM: The Open Source CFD Toolbox           |
|  \\    /   O peration     | Version:  4.x                                   |
|   \\  /    A nd           | Web:      www.OpenFOAM.org                      |
|    \\/     M anipulation  |                                                 |
\*---------------------------------------------------------------------------*/
FoamFile
{
    version     2.0;
    format      ascii;
    class       volScalarField;
    location    "10";
    object      pSmooth;
}
// * * * * * * * * * * * * * * * * * * * * * * * * * * * * * * * * * * * * * //

dimensions      [1 -1 -2 0 0 0 0];

internalField   nonuniform List<scalar> 
132
(
106.734
91.1397
100.098
75.2188
93.6941
59.3597
87.7985
43.7871
82.9126
107.157
91.3421
100.506
75.367
94.2466
59.8311
88.8791
44.8976
84.0775
107.334
91.4667
100.666
75.5748
94.6899
60.4346
89.894
45.7255
84.646
107.637
91.6385
101.029
107.606
91.7076
100.759
75.4367
94.031
59.2357
87.6182
43.0655
81.598
108.134
91.9519
101.338
75.7608
94.8661
59.7873
88.6009
43.5468
81.745
108.378
92.035
101.538
75.9346
95.2118
60.1664
88.8643
43.4934
81.4429
108.784
92.2216
101.993
76.2725
95.7298
108.787
92.4773
101.745
76.0275
94.5649
59.4095
87.4307
42.5758
80.4654
109.423
92.827
102.441
76.3736
95.3779
59.7658
88.1535
42.7144
80.497
109.71
92.9535
102.702
76.6041
95.5096
59.9824
88.0938
42.8783
80.4094
110.182
93.3116
103.16
76.9109
95.9094
60.3554
88.3687
109.287
92.9259
102.085
76.3118
94.6062
59.253
86.9065
41.8717
79.4012
110.012
93.3329
102.771
76.567
95.196
59.5097
87.472
41.9335
79.7636
110.227
93.4813
102.954
76.7115
95.2588
59.4949
87.3635
41.9145
79.6896
110.718
93.854
103.439
76.9776
95.5687
59.8628
87.5459
42.3079
79.789
)
;

boundaryField
{
    inlet
    {
        type            zeroGradient;
    }
    outlet
    {
        type            fixedValue;
        value           nonuniform 0();
    }
    wall
    {
        type            zeroGradient;
    }
    procBoundary0to1
    {
        type            processor;
        value           nonuniform List<scalar> 
12
(
28.4152
28.8286
27.9548
26.5457
25.6098
24.7898
25.6284
24.9525
25.2139
24.0149
24.0953
24.0625
)
;
    }
    procBoundary0to2
    {
        type            processor;
        value           nonuniform List<scalar> 
44
(
75.8242
95.0582
60.8037
90.2898
45.8911
84.3371
107.574
91.4431
75.8242
100.723
75.8242
95.0582
60.5597
89.1934
43.8908
81.4376
108.551
92.1171
101.636
75.9124
60.5597
95.1672
60.5597
89.1934
43.3267
80.4531
109.762
92.9282
102.679
76.5531
95.4195
60.0644
43.3267
88.0531
43.3267
80.4531
110.464
93.5161
103.037
76.6362
95.2506
59.4847
87.3753
41.9423
)
;
    }
    procBoundary0to4
    {
        type            processor;
        value           nonuniform List<scalar> 
36
(
110.111
93.5608
102.84
76.8999
95.164
59.8368
87.2629
42.3686
79.2691
110.923
94.0159
103.699
77.2348
95.8105
59.9269
87.7012
42.634
79.8642
111.163
94.1334
103.732
77.3728
95.6884
60.1148
87.6234
42.9394
79.743
111.567
94.6001
104.201
77.851
96.14
60.6852
87.8448
43.5222
79.8147
)
;
    }
    procBoundary0to6
    {
        type            processor;
        value           uniform 79.6367;
    }
    procBoundary0to7
    {
        type            processor;
        value           uniform 25.0442;
    }
}


// ************************************************************************* //
