/*--------------------------------*- C++ -*----------------------------------*\
| =========                 |                                                 |
| \\      /  F ield         | OpenFOAM: The Open Source CFD Toolbox           |
|  \\    /   O peration     | Version:  4.x                                   |
|   \\  /    A nd           | Web:      www.OpenFOAM.org                      |
|    \\/     M anipulation  |                                                 |
\*---------------------------------------------------------------------------*/
FoamFile
{
    version     2.0;
    format      ascii;
    class       volScalarField;
    location    "10";
    object      Sm;
}
// * * * * * * * * * * * * * * * * * * * * * * * * * * * * * * * * * * * * * //

dimensions      [1 -3 -1 0 0 0 0];

internalField   nonuniform List<scalar> 
132
(
4.03003e-65
3.64248e-65
3.09995e-65
2.86743e-65
3.79743e-65
4.02989e-65
4.88238e-65
3.48738e-65
1.70491e-65
4.88253e-65
4.64997e-65
4.64992e-65
5.11487e-65
3.17739e-65
5.81228e-65
4.26232e-65
4.64977e-65
4.26223e-65
2.71251e-65
5.34747e-65
4.72743e-65
4.72737e-65
4.26235e-65
4.3398e-65
3.25481e-65
4.18474e-65
7.20703e-65
2.86753e-65
4.41749e-65
3.25498e-65
4.18503e-65
6.66496e-65
8.05987e-65
7.05231e-65
6.81978e-65
7.12972e-65
6.27724e-65
6.43216e-65
6.19966e-65
5.42503e-65
7.98245e-65
6.27738e-65
7.20726e-65
7.28468e-65
7.12963e-65
6.50959e-65
7.74945e-65
6.74198e-65
5.89004e-65
8.13744e-65
6.81985e-65
6.27727e-65
6.66467e-65
6.58713e-65
8.29191e-65
6.04452e-65
4.95958e-65
8.06004e-65
6.12247e-65
6.12237e-65
4.57232e-65
9.14455e-65
5.96754e-65
6.81999e-65
7.28488e-65
6.81979e-65
6.58726e-65
5.19223e-65
7.05209e-65
6.89706e-65
4.72719e-65
6.43253e-65
7.05247e-65
6.74236e-65
5.57979e-65
7.36213e-65
5.73463e-65
7.36194e-65
8.83428e-65
6.27696e-65
7.67254e-65
6.27746e-65
6.58734e-65
8.21465e-65
7.82705e-65
7.36194e-65
7.43933e-65
6.19936e-65
4.57204e-65
7.28503e-65
7.59492e-65
7.6723e-65
7.98218e-65
8.36951e-65
7.12948e-65
7.12933e-65
4.57254e-65
4.88248e-65
5.73493e-65
5.34734e-65
6.12226e-65
7.7496e-65
4.80472e-65
4.10722e-65
4.95966e-65
5.50253e-65
8.13746e-65
7.28486e-65
6.74226e-65
5.81219e-65
5.65709e-65
8.36933e-65
6.58691e-65
5.50197e-65
4.57251e-65
4.95994e-65
7.28483e-65
5.73474e-65
7.28456e-65
8.05934e-65
6.74186e-65
5.11445e-65
8.05912e-65
5.27003e-65
5.88995e-65
7.8273e-65
9.22211e-65
4.41724e-65
9.22176e-65
7.1293e-65
5.42442e-65
2.32471e-65
)
;

boundaryField
{
    inlet
    {
        type            calculated;
        value           uniform 0;
    }
    outlet
    {
        type            calculated;
        value           nonuniform 0();
    }
    wall
    {
        type            calculated;
        value           uniform 0;
    }
    procBoundary0to1
    {
        type            processor;
        value           nonuniform List<scalar> 
12
(
3.71984e-65
3.64227e-65
3.48723e-65
6.43213e-65
7.51695e-65
8.13671e-65
7.05201e-65
7.67179e-65
7.90415e-65
6.587e-65
7.05182e-65
5.73435e-65
)
;
    }
    procBoundary0to2
    {
        type            processor;
        value           nonuniform List<scalar> 
44
(
6.50986e-65
4.88236e-65
2.55736e-65
4.88223e-65
2.24734e-65
2.6348e-65
5.73504e-65
6.50999e-65
6.50986e-65
5.11496e-65
6.50986e-65
4.88236e-65
8.44697e-65
9.76427e-65
5.73452e-65
9.37665e-65
5.42503e-65
6.81998e-65
7.67237e-65
7.74977e-65
8.44697e-65
7.0522e-65
8.44697e-65
9.76427e-65
7.59422e-65
7.98166e-65
7.28504e-65
4.95998e-65
5.50238e-65
6.12227e-65
5.5797e-65
7.12951e-65
7.59422e-65
8.36933e-65
7.59422e-65
7.98166e-65
4.80502e-65
8.13743e-65
8.3698e-65
6.50975e-65
6.43215e-65
6.27704e-65
6.27695e-65
7.74921e-65
)
;
    }
    procBoundary0to4
    {
        type            processor;
        value           nonuniform List<scalar> 
36
(
5.19254e-65
7.3625e-65
7.51742e-65
5.57987e-65
5.96728e-65
5.65724e-65
7.59456e-65
6.74205e-65
8.91189e-65
7.75004e-65
6.35498e-65
7.28485e-65
8.52472e-65
8.21459e-65
7.51703e-65
6.35452e-65
5.42452e-65
9.06667e-65
6.97503e-65
8.75744e-65
6.43235e-65
8.52468e-65
6.97459e-65
5.96706e-65
6.12195e-65
9.68655e-65
5.65691e-65
4.34001e-65
5.73496e-65
7.59481e-65
5.19228e-65
7.36205e-65
6.04454e-65
9.53162e-65
5.96689e-65
5.96684e-65
)
;
    }
    procBoundary0to6
    {
        type            processor;
        value           uniform 6.74177e-65;
    }
    procBoundary0to7
    {
        type            processor;
        value           uniform 9.91881e-65;
    }
}


// ************************************************************************* //
