/*--------------------------------*- C++ -*----------------------------------*\
| =========                 |                                                 |
| \\      /  F ield         | OpenFOAM: The Open Source CFD Toolbox           |
|  \\    /   O peration     | Version:  4.x                                   |
|   \\  /    A nd           | Web:      www.OpenFOAM.org                      |
|    \\/     M anipulation  |                                                 |
\*---------------------------------------------------------------------------*/
FoamFile
{
    version     2.0;
    format      ascii;
    class       volScalarField;
    location    "10";
    object      thCond;
}
// * * * * * * * * * * * * * * * * * * * * * * * * * * * * * * * * * * * * * //

dimensions      [1 1 -3 -1 0 0 0];

internalField   nonuniform List<scalar> 
132
(
193.807
193.647
193.525
193.413
193.196
192.992
192.905
193.115
193.32
193.543
193.325
193.18
193.015
193.037
192.719
192.792
192.779
192.789
193.601
193.124
192.998
192.822
192.776
192.716
192.737
192.659
192.304
193.407
193.085
193.008
193.17
192.649
192.289
192.223
192.129
192.03
192.043
192.07
192.141
192.828
192.364
192.274
192.084
191.947
191.854
191.828
191.755
191.834
192.575
192.197
192.123
191.991
191.781
191.683
191.524
191.743
191.724
192.274
192.232
192.099
191.965
191.458
192.416
192.041
191.731
191.644
191.556
191.585
191.392
191.398
191.552
192.14
191.83
191.646
191.561
191.329
191.353
191.125
191.029
191.212
191.857
191.744
191.49
191.186
191.028
190.983
190.935
191.099
191.163
191.725
191.57
191.313
191.063
190.887
190.831
190.78
192.214
191.867
191.522
191.407
191.213
191.017
191.154
191.213
191.031
191.882
191.434
191.201
191.093
191.023
190.929
190.7
190.805
190.765
191.824
191.507
191.052
190.907
190.711
190.541
190.597
190.749
190.542
191.659
191.329
190.852
190.593
190.759
190.352
190.432
190.68
190.789
)
;

boundaryField
{
    inlet
    {
        type            zeroGradient;
    }
    outlet
    {
        type            zeroGradient;
    }
    wall
    {
        type            zeroGradient;
    }
    procBoundary0to1
    {
        type            processor;
        value           nonuniform List<scalar> 
12
(
192.946
192.73
192.365
191.94
191.644
191.334
191.18
190.902
190.697
190.717
190.449
190.349
)
;
    }
    procBoundary0to2
    {
        type            processor;
        value           nonuniform List<scalar> 
44
(
192.574
192.53
192.7
192.469
192.708
192.496
192.983
192.742
192.574
192.785
192.574
192.53
191.396
191.217
191.584
191.289
192.405
192.129
191.896
191.742
191.396
191.625
191.396
191.217
190.87
190.793
191.777
191.739
191.47
191.238
191.158
190.936
190.87
190.719
190.87
190.793
191.515
191.09
190.821
190.77
190.698
190.588
190.49
190.452
)
;
    }
    procBoundary0to4
    {
        type            processor;
        value           nonuniform List<scalar> 
36
(
191.84
191.394
191.075
191.041
190.923
190.856
190.64
190.52
190.167
191.421
191.217
190.904
190.618
190.548
190.552
190.526
190.45
190.083
191.343
190.955
190.781
190.449
190.423
190.442
190.339
190.1
190.237
191.387
191.058
190.692
190.558
190.31
190.29
189.984
190.253
190.251
)
;
    }
    procBoundary0to6
    {
        type            processor;
        value           uniform 190.461;
    }
    procBoundary0to7
    {
        type            processor;
        value           uniform 189.979;
    }
}


// ************************************************************************* //
