/*--------------------------------*- C++ -*----------------------------------*\
| =========                 |                                                 |
| \\      /  F ield         | OpenFOAM: The Open Source CFD Toolbox           |
|  \\    /   O peration     | Version:  4.x                                   |
|   \\  /    A nd           | Web:      www.OpenFOAM.org                      |
|    \\/     M anipulation  |                                                 |
\*---------------------------------------------------------------------------*/
FoamFile
{
    version     2.0;
    format      ascii;
    class       volVectorField;
    location    "15.5";
    object      ddtUrel;
}
// * * * * * * * * * * * * * * * * * * * * * * * * * * * * * * * * * * * * * //

dimensions      [0 1 -2 0 0 0 0];

internalField   nonuniform List<vector> 
108
(
(1.86912e-05 -3.64809e-06 3.97572e-06)
(2.21733e-05 -3.48586e-06 3.82483e-06)
(2.72195e-05 -2.8841e-06 3.40867e-06)
(3.22054e-05 -2.05078e-06 2.58969e-06)
(3.62267e-05 -1.01176e-06 1.30918e-06)
(3.84067e-05 -2.81708e-07 -2.09653e-07)
(3.8285e-05 3.80429e-07 -1.70306e-06)
(3.5925e-05 9.86954e-07 -2.41397e-06)
(3.17002e-05 1.31439e-06 -2.93195e-06)
(1.94775e-05 -4.32799e-06 4.47417e-06)
(2.33598e-05 -4.10513e-06 4.49821e-06)
(2.91521e-05 -3.45243e-06 4.14447e-06)
(3.48922e-05 -2.4776e-06 3.06456e-06)
(3.92602e-05 -1.37905e-06 1.48528e-06)
(4.13976e-05 -3.21976e-07 -2.97582e-07)
(4.10164e-05 6.77342e-07 -2.00152e-06)
(3.78497e-05 1.33717e-06 -2.99492e-06)
(3.28808e-05 1.63856e-06 -3.72433e-06)
(2.00696e-05 -4.67468e-06 5.2627e-06)
(2.42407e-05 -4.57456e-06 5.48345e-06)
(3.06717e-05 -4.02704e-06 4.95095e-06)
(3.70308e-05 -3.03248e-06 3.65653e-06)
(4.20165e-05 -1.66851e-06 1.6174e-06)
(4.37257e-05 -1.72625e-07 -6.48192e-07)
(4.25867e-05 1.1814e-06 -2.38875e-06)
(3.80945e-05 1.72656e-06 -3.57234e-06)
(3.2646e-05 1.88016e-06 -4.33368e-06)
(2.04892e-05 -4.82378e-06 6.25677e-06)
(2.50235e-05 -4.77724e-06 6.55268e-06)
(3.20152e-05 -4.13185e-06 6.0141e-06)
(3.90556e-05 -3.10247e-06 4.35785e-06)
(4.44693e-05 -1.73107e-06 1.89076e-06)
(4.61514e-05 6.76396e-08 -1.16422e-06)
(4.38524e-05 1.32196e-06 -2.98417e-06)
(3.81447e-05 2.09923e-06 -4.00754e-06)
(3.26266e-05 2.11707e-06 -4.81546e-06)
(1.80953e-05 -2.89627e-06 3.61041e-06)
(2.11731e-05 -2.69069e-06 3.53249e-06)
(2.57166e-05 -2.15473e-06 3.13558e-06)
(3.04106e-05 -1.53147e-06 2.38338e-06)
(3.40875e-05 -8.91094e-07 1.18646e-06)
(3.56389e-05 -1.74831e-07 -2.19546e-08)
(3.52824e-05 3.06391e-07 -1.23527e-06)
(3.3422e-05 9.00703e-07 -2.05375e-06)
(2.98681e-05 1.34848e-06 -2.54269e-06)
(1.88945e-05 -3.22046e-06 3.95961e-06)
(2.23039e-05 -2.96979e-06 4.02316e-06)
(2.74393e-05 -2.45716e-06 3.61031e-06)
(3.25382e-05 -1.70039e-06 2.69772e-06)
(3.64963e-05 -9.44777e-07 1.30099e-06)
(3.8291e-05 -2.27997e-07 -1.63873e-07)
(3.78079e-05 5.86361e-07 -1.46195e-06)
(3.53404e-05 1.10305e-06 -2.43178e-06)
(3.13733e-05 1.4391e-06 -2.93595e-06)
(1.93237e-05 -3.38349e-06 4.31705e-06)
(2.30494e-05 -3.18239e-06 4.60086e-06)
(2.85893e-05 -2.73069e-06 4.06071e-06)
(3.39943e-05 -1.82549e-06 2.97991e-06)
(3.83281e-05 -8.67613e-07 1.45434e-06)
(3.98515e-05 -1.16763e-07 -3.58603e-07)
(3.90598e-05 7.69697e-07 -1.69534e-06)
(3.56696e-05 1.30146e-06 -2.63304e-06)
(3.14051e-05 1.65385e-06 -3.20651e-06)
(1.9567e-05 -3.41351e-06 5.2525e-06)
(2.34912e-05 -3.26186e-06 5.29058e-06)
(2.95317e-05 -2.72551e-06 4.65493e-06)
(3.54711e-05 -1.8007e-06 3.4272e-06)
(3.98231e-05 -7.55556e-07 1.58234e-06)
(4.16008e-05 3.05932e-07 -5.02897e-07)
(4.00932e-05 1.09982e-06 -2.10897e-06)
(3.59043e-05 1.66124e-06 -3.08143e-06)
(3.10788e-05 1.86083e-06 -3.55297e-06)
(1.72092e-05 -2.32754e-06 3.1402e-06)
(2.00255e-05 -2.06264e-06 3.02234e-06)
(2.40259e-05 -1.68527e-06 2.78865e-06)
(2.80071e-05 -1.10628e-06 2.13881e-06)
(3.14921e-05 -5.34392e-07 1.00221e-06)
(3.31201e-05 7.26618e-09 2.21804e-08)
(3.27677e-05 5.2336e-07 -8.9732e-07)
(3.06941e-05 8.15574e-07 -1.61563e-06)
(2.72855e-05 1.27264e-06 -1.97308e-06)
(1.80693e-05 -2.48426e-06 3.43236e-06)
(2.11308e-05 -2.24666e-06 3.41833e-06)
(2.57629e-05 -1.86446e-06 3.08221e-06)
(3.00255e-05 -1.25586e-06 2.36445e-06)
(3.35587e-05 -6.00964e-07 1.19688e-06)
(3.52314e-05 6.55392e-08 -9.52021e-08)
(3.45745e-05 7.49269e-07 -9.94569e-07)
(3.23032e-05 1.11471e-06 -1.80694e-06)
(2.89721e-05 1.36633e-06 -2.21599e-06)
(1.87391e-05 -2.34679e-06 3.55337e-06)
(2.183e-05 -2.27938e-06 3.69085e-06)
(2.67111e-05 -1.94738e-06 3.31121e-06)
(3.12626e-05 -1.15145e-06 2.34312e-06)
(3.51734e-05 -4.65635e-07 1.29175e-06)
(3.68024e-05 1.85823e-07 -1.53578e-07)
(3.59601e-05 9.09949e-07 -1.39704e-06)
(3.30919e-05 1.3252e-06 -2.02663e-06)
(2.91837e-05 1.43171e-06 -2.4418e-06)
(1.85978e-05 -2.10661e-06 4.4033e-06)
(2.19509e-05 -2.21385e-06 4.22507e-06)
(2.72136e-05 -1.90104e-06 3.66172e-06)
(3.21767e-05 -1.01679e-06 2.72859e-06)
(3.59202e-05 -3.15627e-07 1.37563e-06)
(3.7489e-05 4.22432e-07 2.14944e-08)
(3.64133e-05 1.08632e-06 -1.52741e-06)
(3.30973e-05 1.52579e-06 -2.50168e-06)
(2.93005e-05 1.605e-06 -2.82236e-06)
)
;

boundaryField
{
    inlet
    {
        type            calculated;
        value           nonuniform List<vector> 
12
(
(3.1871e-06 -1.85847e-06 4.39606e-06)
(6.41906e-06 -6.52622e-06 5.02821e-06)
(5.8448e-06 -4.69335e-06 4.99382e-06)
(4.6605e-06 -5.36356e-06 5.3282e-06)
(5.58995e-06 -2.08987e-06 2.81074e-06)
(8.78934e-06 -2.95121e-06 3.60741e-06)
(7.7354e-06 -3.15185e-06 1.26929e-06)
(7.33703e-06 -3.00625e-06 5.16581e-06)
(2.15562e-06 -7.23685e-07 1.14704e-06)
(5.15801e-06 -1.39688e-06 2.2168e-06)
(1.02915e-05 1.07947e-06 -1.35541e-06)
(3.72424e-06 3.62086e-06 4.10807e-06)
)
;
    }
    outlet
    {
        type            calculated;
        value           nonuniform 0();
    }
    wall
    {
        type            calculated;
        value           nonuniform List<vector> 
63
(
(2.20645e-06 -6.98343e-07 1.13559e-06)
(5.19861e-06 -1.34164e-06 2.2013e-06)
(1.23598e-05 1.27226e-06 -1.49328e-06)
(1.50732e-06 3.30325e-06 4.01721e-06)
(9.06292e-06 5.05336e-07 4.33501e-07)
(1.21139e-05 -2.52061e-07 2.90103e-06)
(1.44668e-05 -2.31251e-07 1.8076e-06)
(1.16745e-05 2.67994e-07 2.41224e-06)
(1.35418e-05 8.04406e-09 1.88236e-06)
(2.3129e-05 -8.04763e-07 2.4241e-06)
(2.35889e-05 -8.61979e-07 2.28582e-06)
(2.54268e-05 -1.24562e-06 1.5405e-06)
(1.63612e-05 1.0402e-06 1.93515e-06)
(2.64427e-05 -3.73887e-07 3.23415e-06)
(2.56636e-05 1.67784e-06 -1.10381e-07)
(3.00824e-05 2.20943e-06 2.64251e-06)
(2.38425e-05 1.06737e-06 -8.7055e-07)
(3.06565e-05 3.1475e-07 2.06849e-06)
(3.40225e-05 1.94601e-07 2.70654e-06)
(3.56205e-05 1.34274e-06 6.093e-07)
(2.68752e-05 8.49424e-07 2.18918e-07)
(3.45779e-05 1.06967e-06 -1.02901e-06)
(3.87928e-05 1.20131e-06 -7.76892e-07)
(3.56626e-05 2.60333e-06 3.18007e-06)
(2.67352e-05 1.06072e-06 -1.14218e-07)
(3.02688e-05 2.16118e-06 8.97797e-07)
(3.81869e-05 2.32575e-06 -3.52174e-06)
(3.06594e-05 2.59482e-06 -5.88832e-07)
(2.18983e-05 -6.67175e-07 -7.84141e-07)
(3.03648e-05 1.6119e-06 -1.09778e-06)
(2.93891e-05 2.08942e-06 2.14601e-08)
(2.412e-05 2.73931e-06 -2.37209e-06)
(1.72446e-05 1.93512e-06 -7.42477e-07)
(2.68976e-05 2.18485e-06 -1.26984e-06)
(2.00661e-05 6.12e-07 -1.44325e-06)
(2.27163e-05 6.34559e-07 -2.17251e-06)
(3.2202e-06 -1.81933e-06 4.34686e-06)
(5.82889e-06 -2.07214e-06 2.76161e-06)
(2.66077e-06 -6.95088e-07 1.12631e-06)
(1.04155e-05 -1.98293e-06 3.72603e-06)
(1.25741e-05 -2.0042e-06 3.44354e-06)
(9.30464e-06 4.5342e-07 4.64515e-07)
(2.17828e-05 -6.9369e-07 4.16309e-06)
(2.09012e-05 -1.62976e-07 3.04868e-06)
(1.3624e-05 7.12753e-08 1.86036e-06)
(2.88633e-05 -2.81018e-07 3.00872e-06)
(2.96156e-05 -4.24614e-07 2.87146e-06)
(1.62667e-05 1.04373e-06 1.9724e-06)
(3.58309e-05 1.29116e-06 1.08701e-06)
(3.48976e-05 -1.49333e-06 8.5444e-07)
(2.38275e-05 1.05101e-06 -8.11179e-07)
(3.81892e-05 -1.26189e-07 1.26356e-06)
(3.30495e-05 3.58616e-07 1.07473e-06)
(2.65295e-05 7.88672e-07 3.52178e-07)
(3.92188e-05 -1.38493e-07 -2.24636e-06)
(2.97896e-05 -2.11317e-06 -1.37012e-06)
(2.51917e-05 1.02873e-06 -1.07487e-07)
(3.60359e-05 1.13955e-07 -1.18084e-06)
(3.54955e-05 9.87551e-07 -1.201e-06)
(2.14275e-05 -6.54765e-07 -7.95755e-07)
(2.32647e-05 2.46466e-08 -1.32025e-06)
(2.90624e-05 1.82874e-06 -2.99966e-06)
(1.75805e-05 1.91665e-06 -7.78447e-07)
)
;
    }
    procBoundary4to0
    {
        type            processor;
        value           nonuniform List<vector> 
36
(
(1.91956e-05 -4.39931e-06 3.5782e-06)
(2.33421e-05 -4.27606e-06 3.68453e-06)
(2.86947e-05 -3.90532e-06 3.24364e-06)
(3.41507e-05 -2.7263e-06 2.38144e-06)
(3.88246e-05 -1.41356e-06 1.1801e-06)
(4.18417e-05 -1.65135e-07 -5.45749e-07)
(4.147e-05 7.62184e-07 -2.34256e-06)
(3.85131e-05 1.41877e-06 -3.13229e-06)
(3.3951e-05 1.88082e-06 -3.61659e-06)
(1.99852e-05 -5.34003e-06 4.53343e-06)
(2.44807e-05 -5.20933e-06 4.62037e-06)
(3.08069e-05 -4.76722e-06 4.11237e-06)
(3.75196e-05 -3.65978e-06 3.09439e-06)
(4.26438e-05 -2.07733e-06 1.35498e-06)
(4.51338e-05 -3.54098e-07 -8.32433e-07)
(4.43866e-05 1.23164e-06 -2.51967e-06)
(4.05109e-05 1.89442e-06 -3.74606e-06)
(3.44758e-05 2.21498e-06 -4.46856e-06)
(2.08479e-05 -6.02224e-06 5.96678e-06)
(2.55501e-05 -6.01789e-06 6.03191e-06)
(3.29165e-05 -5.64757e-06 5.42845e-06)
(4.04875e-05 -4.40292e-06 3.96003e-06)
(4.62667e-05 -2.61377e-06 1.56996e-06)
(4.83866e-05 -2.4324e-08 -1.10218e-06)
(4.6532e-05 1.97434e-06 -3.14872e-06)
(4.08823e-05 2.56804e-06 -4.64401e-06)
(3.40365e-05 2.63308e-06 -5.36863e-06)
(2.13255e-05 -6.2145e-06 7.20054e-06)
(2.64817e-05 -6.39295e-06 7.62597e-06)
(3.48458e-05 -5.8695e-06 7.15935e-06)
(4.3489e-05 -4.62869e-06 5.24955e-06)
(5.01074e-05 -2.5672e-06 2.18053e-06)
(5.17408e-05 3.12511e-07 -1.59786e-06)
(4.77132e-05 2.03904e-06 -4.28033e-06)
(4.09621e-05 2.83333e-06 -5.89765e-06)
(3.37067e-05 3.11455e-06 -6.33547e-06)
)
;
    }
    procBoundary4to5
    {
        type            processor;
        value           nonuniform List<vector> 
12
(
(2.66005e-05 1.53986e-06 -3.20947e-06)
(2.74886e-05 1.84788e-06 -3.79124e-06)
(2.72292e-05 2.06565e-06 -4.43034e-06)
(2.72829e-05 2.38285e-06 -5.00576e-06)
(2.56338e-05 1.28428e-06 -2.72192e-06)
(2.68728e-05 1.42724e-06 -3.04504e-06)
(2.68691e-05 1.62936e-06 -3.40002e-06)
(2.67837e-05 2.01587e-06 -3.7988e-06)
(2.38543e-05 1.26831e-06 -2.16279e-06)
(2.53001e-05 1.29947e-06 -2.31614e-06)
(2.53033e-05 1.39807e-06 -2.57555e-06)
(2.50685e-05 1.64054e-06 -2.87179e-06)
)
;
    }
    procBoundary4to6
    {
        type            processor;
        value           nonuniform List<vector> 
27
(
(2.08745e-05 -4.65083e-06 7.43573e-06)
(2.55548e-05 -4.50345e-06 7.59743e-06)
(3.31427e-05 -3.777e-06 7.07307e-06)
(4.07209e-05 -2.84009e-06 5.00795e-06)
(4.63551e-05 -1.49367e-06 1.9019e-06)
(4.69942e-05 9.61951e-08 -1.61889e-06)
(4.40581e-05 1.39027e-06 -3.93455e-06)
(3.87411e-05 2.23302e-06 -5.30681e-06)
(3.27359e-05 2.58322e-06 -5.84951e-06)
(1.98127e-05 -3.35837e-06 5.92109e-06)
(2.39358e-05 -3.22407e-06 5.92658e-06)
(3.01656e-05 -2.5718e-06 5.31388e-06)
(3.6668e-05 -1.61162e-06 3.71582e-06)
(4.12483e-05 -7.14309e-07 1.56265e-06)
(4.24332e-05 2.41236e-07 -9.03084e-07)
(4.04584e-05 1.20473e-06 -2.78927e-06)
(3.64605e-05 1.78987e-06 -3.92688e-06)
(3.13748e-05 2.21487e-06 -4.24567e-06)
(1.89094e-05 -2.36871e-06 4.85887e-06)
(2.22633e-05 -2.3453e-06 4.73563e-06)
(2.74585e-05 -1.87053e-06 4.14414e-06)
(3.2813e-05 -1.07051e-06 2.94419e-06)
(3.65137e-05 -3.63694e-07 1.37129e-06)
(3.79563e-05 4.11294e-07 -3.48946e-07)
(3.68653e-05 1.20474e-06 -1.93728e-06)
(3.35184e-05 1.49716e-06 -3.02038e-06)
(2.92107e-05 1.72496e-06 -3.16107e-06)
)
;
    }
}


// ************************************************************************* //
