/*--------------------------------*- C++ -*----------------------------------*\
| =========                 |                                                 |
| \\      /  F ield         | OpenFOAM: The Open Source CFD Toolbox           |
|  \\    /   O peration     | Version:  4.x                                   |
|   \\  /    A nd           | Web:      www.OpenFOAM.org                      |
|    \\/     M anipulation  |                                                 |
\*---------------------------------------------------------------------------*/
FoamFile
{
    version     2.0;
    format      ascii;
    class       volScalarField;
    location    "15.5";
    object      ddtVoidfraction;
}
// * * * * * * * * * * * * * * * * * * * * * * * * * * * * * * * * * * * * * //

dimensions      [0 0 -1 0 0 0 0];

internalField   nonuniform List<scalar> 
108
(
0.0204236
0.0192212
0.0167182
0.0126861
0.00747175
0.00181014
-0.00317349
-0.00684081
-0.00895789
0.0224541
0.0212373
0.0185483
0.0142176
0.00816952
0.00149379
-0.00442777
-0.00826796
-0.0102421
0.026109
0.0248716
0.0222858
0.017383
0.00926336
0.000262983
-0.00699957
-0.011175
-0.012816
0.0310127
0.0300158
0.0277586
0.0214565
0.0113759
-0.00152245
-0.0111135
-0.0154716
-0.0164948
0.0177303
0.016704
0.0143847
0.0109883
0.00667746
0.00211275
-0.00195009
-0.00522895
-0.0072402
0.0191633
0.0180872
0.0156926
0.0119467
0.0071594
0.00193648
-0.00275352
-0.00617832
-0.00808822
0.0217561
0.0205659
0.0179859
0.0138486
0.00781682
0.00136591
-0.00415521
-0.00785022
-0.00970056
0.0249957
0.0236312
0.0210779
0.0163662
0.00893848
0.000570575
-0.00630287
-0.0103346
-0.0117222
0.0163912
0.0153921
0.0133231
0.0101831
0.00632832
0.00217756
-0.001576
-0.00452771
-0.00652709
0.0176042
0.0166057
0.0143447
0.0108898
0.00657124
0.00201674
-0.00208747
-0.00521554
-0.00703664
0.0196194
0.0184802
0.0160162
0.0121831
0.007142
0.00171648
-0.0031272
-0.00648432
-0.00824798
0.0221955
0.0207995
0.018157
0.0138625
0.00771749
0.00112539
-0.00452288
-0.00807439
-0.00970854
)
;

boundaryField
{
    inlet
    {
        type            calculated;
        value           uniform 0;
    }
    outlet
    {
        type            calculated;
        value           nonuniform 0();
    }
    wall
    {
        type            calculated;
        value           nonuniform List<scalar> 
63
(
0.0163912
0.0176042
0.0196194
0.0221955
0.0153921
0.0166057
0.0184802
0.0207995
0.0133231
0.0143447
0.0160162
0.018157
0.0101831
0.0108898
0.0121831
0.0138625
0.00632832
0.00657124
0.007142
0.00771749
0.00217756
0.00201674
0.00171648
0.00112539
-0.001576
-0.00208747
-0.0031272
-0.00452288
-0.00452771
-0.00521554
-0.00648432
-0.00807439
-0.00652709
-0.00703664
-0.00824798
-0.00970854
0.0204236
0.0177303
0.0163912
0.0192212
0.016704
0.0153921
0.0167182
0.0143847
0.0133231
0.0126861
0.0109883
0.0101831
0.00747175
0.00667746
0.00632832
0.00181014
0.00211275
0.00217756
-0.00317349
-0.00195009
-0.001576
-0.00684081
-0.00522895
-0.00452771
-0.00895789
-0.0072402
-0.00652709
)
;
    }
    procBoundary4to0
    {
        type            processor;
        value           nonuniform List<scalar> 
36
(
0.0241167
0.0228334
0.0199112
0.0151349
0.00868372
0.0013596
-0.00506672
-0.00933178
-0.0112272
0.0270558
0.0258747
0.023029
0.0178976
0.00998992
0.00033521
-0.00730363
-0.011717
-0.0134013
0.0326125
0.0318789
0.0294866
0.0234985
0.0123647
-0.00186827
-0.0122858
-0.0170081
-0.0178407
0.040432
0.0405184
0.0390629
0.0328347
0.017453
-0.00651962
-0.0211931
-0.0257489
-0.0243368
)
;
    }
    procBoundary4to5
    {
        type            processor;
        value           nonuniform List<scalar> 
12
(
-0.00950543
-0.0106742
-0.0124938
-0.0152977
-0.00803388
-0.00879023
-0.0100285
-0.0116384
-0.00739967
-0.00782262
-0.00881749
-0.0100283
)
;
    }
    procBoundary4to6
    {
        type            processor;
        value           nonuniform List<scalar> 
27
(
0.0362782
0.0356437
0.0336907
0.0274767
0.0139961
-0.00404166
-0.016087
-0.0202977
-0.0207392
0.0283302
0.0270372
0.0243156
0.0188934
0.0102412
-0.000189889
-0.00839702
-0.0127832
-0.0142182
0.024663
0.0231583
0.0203124
0.0154757
0.00857956
0.000819006
-0.00570961
-0.00962001
-0.0110383
)
;
    }
}


// ************************************************************************* //
