/*--------------------------------*- C++ -*----------------------------------*\
| =========                 |                                                 |
| \\      /  F ield         | OpenFOAM: The Open Source CFD Toolbox           |
|  \\    /   O peration     | Version:  4.x                                   |
|   \\  /    A nd           | Web:      www.OpenFOAM.org                      |
|    \\/     M anipulation  |                                                 |
\*---------------------------------------------------------------------------*/
FoamFile
{
    version     2.0;
    format      ascii;
    class       volVectorField;
    location    "15.5";
    object      GField;
}
// * * * * * * * * * * * * * * * * * * * * * * * * * * * * * * * * * * * * * //

dimensions      [1 -2 -1 0 0 0 0];

internalField   nonuniform List<vector> 
108
(
(94.5465 -3.14387 -3.48617)
(41.5845 -1.6304 -2.6469)
(95.0814 -3.5461 -3.66603)
(42.8506 -1.73773 -2.7213)
(95.9871 -0.315716 -1.67478)
(41.0867 -0.658609 -2.31273)
(96.1138 -3.03927 -2.86797)
(41.0352 -1.55008 -2.97369)
(96.8388 -7.3424 -0.900184)
(92.5106 -4.15586 -3.65851)
(34.0502 -1.83942 -2.31884)
(89.0485 -3.6406 -5.0237)
(24.0975 -1.12507 -1.86249)
(86.3991 -1.85414 -0.757593)
(23.1381 -0.630515 -1.64243)
(85.8743 -3.15401 -0.611856)
(17.7402 -1.21532 -1.33541)
(85.1132 -5.41281 1.74171)
(92.0893 -1.82067 -3.96552)
(33.0237 -1.01096 -2.53604)
(87.4429 -1.11298 -4.85642)
(24.2544 -0.606555 -1.97645)
(85.246 -2.44406 -0.793528)
(24.7946 -0.828218 -1.7492)
(83.5739 -3.02982 0.229527)
(18.7914 -1.13248 -1.08219)
(81.2495 -1.2834 2.63954)
(92.2058 -1.48455 -4.54928)
(34.1944 -0.10713 -2.68315)
(87.0039 -1.11933 -5.245)
(27.6234 -0.442218 -2.63835)
(83.7308 -5.54338 -0.674443)
(23.1309 -0.0594886 -2.05999)
(80.1988 1.01559 0.905544)
(17.5528 0.716012 -0.94699)
(77.9553 3.3882 3.70223)
(94.5126 -3.41114 0.27577)
(43.1553 -1.69785 -0.0794099)
(96.2391 -5.32553 0.717505)
(48.4705 -1.98789 -0.72931)
(97.9991 -0.961928 0.583937)
(48.9908 -1.36513 -0.713821)
(99.721 -2.14725 0.163005)
(48.7758 -1.39836 -0.35497)
(100.511 -3.11774 1.86974)
(94.0368 -4.00861 0.619072)
(34.9383 -1.99328 0.0678597)
(91.8678 -4.74213 1.35504)
(22.656 -1.02418 -0.00335922)
(89.404 -1.11587 -0.113989)
(23.1042 -0.435428 -0.326867)
(88.3984 -1.48945 2.25102)
(20.1128 -0.400853 0.279061)
(87.7787 -2.34064 7.9096)
(93.024 -2.7073 0.742477)
(33.9258 -1.26033 0.121954)
(88.9712 -1.18641 0.506204)
(22.8462 -0.734884 0.0859826)
(86.6407 -1.90685 0.358707)
(23.6354 -0.526379 -0.0439314)
(86.7886 -1.60654 3.55021)
(20.8954 -0.713387 0.98743)
(87.4196 -1.25594 7.29759)
(92.0336 -1.10652 -0.779414)
(32.7845 0.0550476 -0.0837852)
(87.5551 -0.0854987 -2.4968)
(25.1101 -0.0580768 -0.383283)
(84.409 -1.59225 0.967012)
(23.2986 -0.58992 0.0349332)
(82.5411 -0.943372 3.95231)
(19.665 -0.619172 0.936097)
(81.4888 -0.879437 10.623)
(94.8807 -2.80351 0.494783)
(46.2716 -1.58604 0.232319)
(99.1311 -3.00529 0.739953)
(54.1869 -1.23267 -0.463631)
(101.359 -1.18979 -1.04172)
(56.5913 -0.782969 -1.17824)
(102.026 -1.43578 -0.368814)
(56.9054 -1.20604 -0.572299)
(104.328 -1.89935 0.916473)
(94.2386 -3.80257 1.10354)
(41.7823 -1.97632 0.409835)
(95.0923 -4.13116 3.11617)
(47.6586 -1.24542 0.469944)
(96.7367 -2.59763 -1.14119)
(45.9719 -0.668862 -0.339691)
(97.0906 -0.462209 0.517676)
(47.3243 -0.724166 -0.0644387)
(98.3911 -1.16303 2.6425)
(93.0611 -3.24036 0.736657)
(39.5068 -1.3667 0.507225)
(92.6358 -5.07493 1.48278)
(39.5947 -1.5513 0.480987)
(93.4118 -1.6092 -2.07047)
(35.8085 -0.687366 -0.594248)
(93.7825 -1.42675 1.14693)
(40.3138 -0.992124 -0.116113)
(95.4206 0.823334 2.78706)
(92.3752 -0.961893 0.546705)
(35.7134 -0.299356 0.445859)
(90.949 -2.77512 -0.729935)
(24.033 -0.596101 0.0462299)
(89.3537 -1.39132 -0.604961)
(24.4559 -0.540593 -0.157879)
(89.3253 -1.70344 1.04775)
(23.8886 -0.177535 0.121952)
(90.2892 0.900474 5.33886)
)
;

boundaryField
{
    inlet
    {
        type            calculated;
        value           uniform (67 0 0);
    }
    outlet
    {
        type            calculated;
        value           nonuniform 0();
    }
    wall
    {
        type            calculated;
        value           uniform (0 0 0);
    }
    procBoundary4to0
    {
        type            processor;
        value           nonuniform List<vector> 
36
(
(95.246 -3.13574 -5.12831)
(41.9251 -1.58765 -3.87961)
(97.1056 -3.65871 -4.69928)
(44.8686 -1.36039 -3.65163)
(99.0222 -1.13345 -2.36895)
(42.7465 -0.781996 -2.98552)
(100.511 -3.34569 -4.66805)
(47.7287 -1.34948 -3.74867)
(103.924 -4.51349 -3.10687)
(94.1282 -3.37912 -5.9808)
(34.588 -1.54394 -3.76129)
(91.8332 -3.07145 -6.03123)
(28.9342 -0.954932 -2.71392)
(90.6106 -1.34179 -2.33074)
(26.7058 -0.171308 -2.10426)
(89.8056 -3.45514 -1.67629)
(21.7108 -0.685072 -1.39851)
(90.6889 -4.15052 -3.74058)
(92.8384 -1.75733 -6.16329)
(35.3021 -0.890928 -3.99855)
(89.9483 -0.80446 -5.815)
(29.5578 -0.450196 -2.81084)
(88.7603 -1.99723 -1.79563)
(27.0651 -0.154573 -2.31817)
(87.7086 -2.92163 3.22361)
(22.6742 -1.1389 -0.895945)
(89.5457 -2.4097 -2.84357)
(92.7371 -0.57948 -6.10287)
(35.4478 0.242815 -4.45823)
(88.9096 0.57816 -6.39441)
(30.5815 0.709406 -3.85134)
(87.8488 -1.19858 -1.13391)
(27.4945 1.44729 -3.76602)
(84.9945 -1.51142 3.78978)
(22.3636 0.750368 -1.78295)
(86.5858 -0.234727 -2.75527)
)
;
    }
    procBoundary4to5
    {
        type            processor;
        value           nonuniform List<vector> 
12
(
(47.0079 -3.54087 -2.31015)
(-1.33854 -0.552092 0.400951)
(-1.13035 -0.68093 0.538846)
(-1.11089 -0.483704 0.717617)
(50.6229 -2.57681 0.447534)
(15.821 -0.931565 0.963244)
(17.7501 -1.70773 2.16326)
(14.9375 -0.665822 2.11242)
(60.9139 -1.83387 -0.913918)
(53.2701 -2.14152 0.478864)
(46.5355 -2.55506 0.0354925)
(39.7122 -1.31139 1.70788)
)
;
    }
    procBoundary4to6
    {
        type            processor;
        value           nonuniform List<vector> 
27
(
(89.5407 1.54648 -4.313)
(30.9064 1.23236 -2.55103)
(84.2686 1.74244 -5.40203)
(19.9293 0.730575 -2.35019)
(79.8519 -0.756092 -0.925009)
(-1.65652 0.237268 -0.352051)
(74.6701 0.817666 1.89888)
(-2.13612 -0.278161 0.879881)
(74.5247 2.66848 3.05875)
(91.0835 2.12046 1.22466)
(33.4 1.15671 -0.0486648)
(87.8279 1.87476 -1.03943)
(26.3986 0.859864 -0.0597183)
(86.1046 -1.03228 4.80581)
(26.5351 0.661658 -0.450202)
(85.9517 0.618923 1.10767)
(21.9563 0.727627 0.0991504)
(85.6269 0.505521 4.76278)
(93.5493 2.67923 0.900092)
(37.9086 1.16208 0.142247)
(92.3073 3.21403 -1.19141)
(28.104 0.763313 -0.246842)
(90.8809 -2.61122 -1.87781)
(26.8876 0.296511 -0.441674)
(89.7807 2.72328 0.686284)
(24.3626 0.491745 0.394711)
(91.2594 -1.12404 4.91015)
)
;
    }
}


// ************************************************************************* //
