/*--------------------------------*- C++ -*----------------------------------*\
| =========                 |                                                 |
| \\      /  F ield         | OpenFOAM: The Open Source CFD Toolbox           |
|  \\    /   O peration     | Version:  4.x                                   |
|   \\  /    A nd           | Web:      www.OpenFOAM.org                      |
|    \\/     M anipulation  |                                                 |
\*---------------------------------------------------------------------------*/
FoamFile
{
    version     2.0;
    format      ascii;
    class       volScalarField;
    location    "15.5";
    object      KslPrev;
}
// * * * * * * * * * * * * * * * * * * * * * * * * * * * * * * * * * * * * * //

dimensions      [1 -3 -1 0 0 0 0];

internalField   nonuniform List<scalar> 
108
(
3488.41
7920.23
3513.57
7746.3
3513.1
8029.84
3483.59
7967.27
3381.13
3600.98
9874.78
3833.3
13823.7
3941.17
14197.7
3938.49
18371.9
3898.53
3654.18
10299.2
3934.28
13770.7
4003.53
13222.8
4029.74
17312.5
4070.38
3644.92
10017.1
3963.65
12093.2
4056.16
13912.4
4181.77
18504.4
4219.37
3457.19
7585.96
3428.31
6769.71
3400.93
6678.82
3319.84
6661.87
3241.18
3528.59
9501.13
3663.57
14530
3760.59
14090.1
3763.98
16148.2
3734.6
3577.19
9866.94
3808.25
14393.4
3877.7
13702.7
3816.04
15435
3735.23
3610.97
10261.8
3868.1
13058.6
3962.22
13731.8
3994.25
16305
3956.81
3407.29
6931.43
3269.19
5926.85
3218.36
5668.84
3178.88
5634.54
3082.77
3457.56
7755.49
3464.87
6833.83
3404.08
7024.54
3355.61
6799.48
3271.52
3517.43
8245.27
3552.61
8165.26
3522.34
8947.54
3462.92
7925.26
3362.94
3547.22
9156.83
3633.64
13295.9
3663.77
12808.7
3614.99
13261.2
3536.1
)
;

boundaryField
{
    inlet
    {
        type            zeroGradient;
    }
    outlet
    {
        type            zeroGradient;
    }
    wall
    {
        type            zeroGradient;
    }
    procBoundary4to0
    {
        type            processor;
        value           uniform 0;
    }
    procBoundary4to5
    {
        type            processor;
        value           uniform 0;
    }
    procBoundary4to6
    {
        type            processor;
        value           uniform 0;
    }
}


// ************************************************************************* //
