/*--------------------------------*- C++ -*----------------------------------*\
| =========                 |                                                 |
| \\      /  F ield         | OpenFOAM: The Open Source CFD Toolbox           |
|  \\    /   O peration     | Version:  4.x                                   |
|   \\  /    A nd           | Web:      www.OpenFOAM.org                      |
|    \\/     M anipulation  |                                                 |
\*---------------------------------------------------------------------------*/
FoamFile
{
    version     2.0;
    format      ascii;
    class       volScalarField;
    location    "15.5";
    object      SPartFluid;
}
// * * * * * * * * * * * * * * * * * * * * * * * * * * * * * * * * * * * * * //

dimensions      [1 -3 -1 0 0 0 0];

internalField   nonuniform List<scalar> 
108
(
5.19239e-65
7.36214e-65
7.51702e-65
5.5796e-65
5.96688e-65
5.65674e-65
7.59331e-65
6.74017e-65
8.90855e-65
7.74979e-65
6.35468e-65
7.36192e-65
8.60168e-65
8.21398e-65
7.51629e-65
6.35346e-65
5.42298e-65
9.06295e-65
6.97478e-65
8.75697e-65
6.66445e-65
8.44666e-65
6.66414e-65
5.96654e-65
6.12103e-65
9.68419e-65
5.65512e-65
4.33988e-65
5.7347e-65
7.59443e-65
5.19207e-65
7.36155e-65
6.35404e-65
9.22058e-65
5.96613e-65
5.96554e-65
5.34741e-65
5.11482e-65
7.05216e-65
7.67205e-65
6.97454e-65
5.26952e-65
4.49442e-65
6.97336e-65
8.21267e-65
5.65737e-65
6.50974e-65
5.81218e-65
6.43202e-65
5.96699e-65
5.96681e-65
6.66394e-65
7.90326e-65
8.13498e-65
4.41743e-65
6.27723e-65
7.82701e-65
7.207e-65
7.67178e-65
7.28408e-65
6.66386e-65
6.66357e-65
6.81801e-65
6.66486e-65
7.20719e-65
5.96712e-65
8.52442e-65
8.44676e-65
6.74183e-65
9.60873e-65
7.90369e-65
6.81863e-65
4.95997e-65
6.66483e-65
4.41736e-65
6.74221e-65
5.73472e-65
8.05947e-65
7.20692e-65
6.27672e-65
7.20639e-65
5.34744e-65
8.75723e-65
5.81225e-65
5.50223e-65
6.19963e-65
7.20693e-65
6.35439e-65
5.65659e-65
7.59348e-65
5.42494e-65
7.36226e-65
7.43965e-65
7.28461e-65
5.73463e-65
6.58688e-65
6.43185e-65
7.51647e-65
6.27632e-65
7.43988e-65
7.05229e-65
5.81228e-65
7.67208e-65
6.97458e-65
9.22181e-65
4.49463e-65
4.88197e-65
6.35413e-65
)
;

boundaryField
{
    inlet
    {
        type            calculated;
        value           uniform 0;
    }
    outlet
    {
        type            calculated;
        value           nonuniform 0();
    }
    wall
    {
        type            calculated;
        value           uniform 0;
    }
    procBoundary4to0
    {
        type            processor;
        value           nonuniform List<scalar> 
36
(
4.57239e-65
4.88214e-65
5.73448e-65
5.34696e-65
6.12168e-65
7.43856e-65
4.80373e-65
4.10554e-65
4.95732e-65
5.50231e-65
8.1369e-65
7.28426e-65
6.74166e-65
5.81157e-65
5.96613e-65
8.36723e-65
6.58422e-65
5.49895e-65
4.57232e-65
4.9596e-65
7.28423e-65
5.73419e-65
7.28366e-65
8.05789e-65
6.74019e-65
5.11244e-65
8.05505e-65
5.26984e-65
5.88957e-65
7.82666e-65
9.22112e-65
4.49422e-65
9.14271e-65
7.1277e-65
5.42302e-65
2.32388e-65
)
;
    }
    procBoundary4to5
    {
        type            processor;
        value           nonuniform List<scalar> 
12
(
6.35182e-65
7.0488e-65
8.21139e-65
9.91666e-65
6.66259e-65
5.42303e-65
6.8951e-65
4.80381e-65
2.63456e-65
6.35354e-65
6.12121e-65
7.36133e-65
)
;
    }
    procBoundary4to6
    {
        type            processor;
        value           nonuniform List<scalar> 
27
(
1.03846e-64
7.5946e-65
4.95968e-65
7.43932e-65
9.37634e-65
6.12173e-65
7.36138e-65
6.50896e-65
8.52337e-65
7.67233e-65
7.67218e-65
7.7496e-65
7.67204e-65
5.34712e-65
7.05197e-65
6.27702e-65
5.88945e-65
7.90396e-65
5.03743e-65
5.26985e-65
6.12227e-65
6.89724e-65
6.50968e-65
6.43217e-65
8.67949e-65
8.75695e-65
3.7973e-65
)
;
    }
}


// ************************************************************************* //
