/*--------------------------------*- C++ -*----------------------------------*\
| =========                 |                                                 |
| \\      /  F ield         | OpenFOAM: The Open Source CFD Toolbox           |
|  \\    /   O peration     | Version:  4.x                                   |
|   \\  /    A nd           | Web:      www.OpenFOAM.org                      |
|    \\/     M anipulation  |                                                 |
\*---------------------------------------------------------------------------*/
FoamFile
{
    version     2.0;
    format      ascii;
    class       volScalarField;
    location    "15.5";
    object      thCond;
}
// * * * * * * * * * * * * * * * * * * * * * * * * * * * * * * * * * * * * * //

dimensions      [1 1 -3 -1 0 0 0];

internalField   nonuniform List<scalar> 
108
(
191.75
191.31
190.998
190.975
190.868
190.815
190.603
190.5
190.157
191.334
191.135
190.82
190.547
190.494
190.502
190.484
190.421
190.064
191.264
190.876
190.689
190.39
190.39
190.395
190.304
190.066
190.217
191.318
190.987
190.622
190.497
190.258
190.219
189.969
190.219
190.212
191.707
191.409
190.99
190.698
190.654
190.705
190.646
190.271
190.008
191.467
191.114
190.897
190.641
190.556
190.48
190.352
190.113
189.955
191.386
190.932
190.559
190.337
190.218
190.185
190.15
190.071
190.052
191.028
190.773
190.586
190.161
190.026
190.035
189.831
189.985
190.045
191.71
191.286
191.256
190.82
190.682
190.317
190.309
190.294
190.195
191.454
190.889
190.937
190.768
190.568
190.309
190.308
190.263
190.062
191.263
190.797
190.568
190.379
190.37
190.19
190.206
190.095
190.126
190.941
190.775
190.634
190.219
190.102
189.878
190.226
190.26
190.168
)
;

boundaryField
{
    inlet
    {
        type            zeroGradient;
    }
    outlet
    {
        type            zeroGradient;
    }
    wall
    {
        type            zeroGradient;
    }
    procBoundary4to0
    {
        type            processor;
        value           nonuniform List<scalar> 
36
(
192.098
191.76
191.43
191.329
191.156
190.996
191.118
191.175
190.999
191.775
191.333
191.112
191.008
190.954
190.851
190.646
190.756
190.715
191.728
191.413
190.964
190.83
190.649
190.482
190.546
190.7
190.506
191.573
191.242
190.767
190.513
190.688
190.305
190.387
190.631
190.745
)
;
    }
    procBoundary4to5
    {
        type            processor;
        value           nonuniform List<scalar> 
12
(
190.345
190.141
189.972
189.78
190.23
190.171
190.012
190.022
190.703
190.247
190.105
189.969
)
;
    }
    procBoundary4to6
    {
        type            processor;
        value           nonuniform List<scalar> 
27
(
190.717
190.74
190.744
190.37
190.122
190.265
190.127
190.173
190.012
190.859
190.699
190.51
190.263
190.29
190.146
190.087
190.136
189.966
191.221
191.025
190.698
190.359
190.215
190.102
189.938
189.991
190.324
)
;
    }
}


// ************************************************************************* //
