/*--------------------------------*- C++ -*----------------------------------*\
| =========                 |                                                 |
| \\      /  F ield         | OpenFOAM: The Open Source CFD Toolbox           |
|  \\    /   O peration     | Version:  4.x                                   |
|   \\  /    A nd           | Web:      www.OpenFOAM.org                      |
|    \\/     M anipulation  |                                                 |
\*---------------------------------------------------------------------------*/
FoamFile
{
    version     2.0;
    format      ascii;
    class       volVectorField;
    location    "42";
    object      DDtUrel;
}
// * * * * * * * * * * * * * * * * * * * * * * * * * * * * * * * * * * * * * //

dimensions      [0 1 -2 0 0 0 0];

internalField   nonuniform List<vector> 
114
(
(-0.00015038 -2.1951e-05 -2.30401e-06)
(-0.000286247 -5.23921e-05 -1.00273e-05)
(-0.000475876 -0.000102098 -3.51682e-05)
(-0.000843482 -0.000173963 -7.06041e-05)
(-0.00135581 -0.000296939 -0.000141967)
(-0.00195796 -0.000416412 -0.000230105)
(-5.72414e-05 1.9554e-06 7.64376e-06)
(-0.000137096 -2.07691e-05 -4.88248e-06)
(-0.000267484 -4.45548e-05 -1.03102e-05)
(-0.000473893 -9.31124e-05 -4.55981e-05)
(-0.000824264 -0.000152665 -7.55733e-05)
(-0.00128566 -0.00030057 -0.000186844)
(-0.00187835 -0.000450305 -0.000286033)
(-1.75342e-05 1.81835e-06 5.93477e-06)
(-6.46215e-05 -5.84593e-06 2.64932e-06)
(-0.000140683 -1.86635e-05 -8.01386e-06)
(-0.000271088 -3.78048e-05 -1.83212e-05)
(-0.000465872 -6.59899e-05 -5.19985e-05)
(-0.000797459 -0.000110895 -9.34197e-05)
(-0.00117062 -0.000192758 -0.000181726)
(-0.00168046 -0.000263981 -0.000257869)
(4.55414e-05 1.65567e-05 2.38621e-05)
(-3.42478e-06 7.90677e-06 2.3905e-05)
(-1.87229e-05 3.71916e-06 2.43011e-05)
(-0.000117712 -2.5515e-05 3.08346e-05)
(-0.000193453 -4.19881e-05 2.61449e-05)
(-0.000433447 -0.000112954 6.06184e-05)
(-0.000693811 -0.000172484 7.172e-05)
(-0.00136643 -0.000381131 0.000236795)
(-0.00231987 -0.000546127 0.000379569)
(2.50245e-05 1.4484e-05 1.28376e-05)
(-1.25343e-05 6.44453e-06 1.25616e-05)
(-4.16875e-05 7.83776e-07 1.2821e-05)
(-0.000124694 -2.01817e-05 1.65632e-05)
(-0.000231218 -3.81635e-05 2.12994e-05)
(-0.000440783 -0.000102641 4.38891e-05)
(-0.000757654 -0.000161875 6.91182e-05)
(-0.00125872 -0.00038784 0.000209753)
(-0.00197638 -0.000548015 0.000316606)
(1.01269e-05 5.08763e-06 8.5002e-06)
(-2.05285e-05 -4.84452e-07 7.18355e-06)
(-5.61981e-05 -7.39012e-06 9.54776e-06)
(-0.000132055 -2.06343e-05 1.10445e-05)
(-0.000241565 -3.80025e-05 1.72885e-05)
(-0.000438114 -7.47629e-05 3.0142e-05)
(-0.000751358 -0.000109182 4.38028e-05)
(-0.00114936 -0.000241078 0.000147282)
(-0.00174177 -0.000360901 0.00024652)
(6.0509e-06 -3.47599e-06 3.2057e-06)
(-2.63763e-05 -5.96811e-06 2.9878e-06)
(5.7103e-05 1.23285e-05 1.35555e-05)
(2.22565e-05 6.90161e-06 1.94564e-05)
(1.3305e-05 -4.73464e-07 2.49521e-05)
(-7.1486e-05 -2.25486e-05 4.43481e-05)
(-0.000143958 -4.71159e-05 5.94928e-05)
(-0.000386955 -0.000110363 0.000124345)
(-0.000686538 -0.000193874 0.000186568)
(-0.00147725 -0.000371142 0.000456964)
(-0.00247695 -0.000535774 0.000721305)
(4.32496e-05 9.29649e-06 7.59029e-06)
(8.37906e-06 1.53449e-06 1.2687e-05)
(-6.55484e-06 -1.60222e-06 1.44395e-05)
(-8.94478e-05 -2.2234e-05 3.17702e-05)
(-0.000173101 -3.52385e-05 4.4263e-05)
(-0.000402092 -9.82329e-05 0.000103893)
(-0.000703555 -0.00015818 0.000167571)
(-0.00138217 -0.000357544 0.000428183)
(-0.00227461 -0.000524236 0.000625916)
(2.26928e-05 1.47142e-06 1.38844e-06)
(-8.41157e-06 -3.76916e-06 6.54159e-06)
(-4.02694e-05 -7.91276e-06 1.17671e-05)
(-0.000109062 -2.27067e-05 2.39422e-05)
(-0.00021431 -3.98249e-05 3.94717e-05)
(-0.000409133 -8.02807e-05 9.1972e-05)
(-0.000715875 -0.000130068 0.000157828)
(-0.00124963 -0.000265835 0.000420219)
(-0.00194331 -0.000371011 0.000602891)
(1.40918e-05 -4.36729e-06 -2.64363e-06)
(-2.29114e-05 -9.74971e-06 1.34234e-06)
(-5.23615e-05 -1.58158e-05 5.05884e-06)
(-0.000127135 -2.22647e-05 1.70714e-05)
(0.000118528 7.58358e-06 1.27131e-05)
(8.45349e-05 1.69473e-06 2.35614e-05)
(0.000108607 -6.15667e-06 2.72533e-05)
(1.18026e-05 -3.43797e-05 6.74478e-05)
(2.60604e-05 -5.5905e-05 7.56497e-05)
(-0.000281006 -0.000140822 0.000194902)
(-0.000378419 -0.000215011 0.000242909)
(-0.00172173 -0.000529783 0.000716703)
(-0.00331237 -0.000817205 0.00121935)
(8.72248e-05 2.51501e-06 4.90927e-06)
(5.06251e-05 -4.42559e-06 1.28794e-05)
(6.22289e-05 -4.73479e-06 1.48572e-05)
(-3.25966e-05 -3.05667e-05 4.46743e-05)
(-6.36156e-05 -3.94911e-05 5.38212e-05)
(-0.0003476 -0.000112248 0.000144403)
(-0.000581539 -0.00015708 0.000204844)
(-0.00157065 -0.000409229 0.000539167)
(-0.00281234 -0.000671094 0.000876344)
(5.80396e-05 -6.1852e-06 -2.00166e-06)
(1.79516e-05 -1.13747e-05 8.8519e-06)
(1.72041e-05 -1.25023e-05 1.14444e-05)
(-6.80189e-05 -2.98744e-05 4.0075e-05)
(-0.000109176 -3.87815e-05 4.16982e-05)
(-0.000355262 -8.76071e-05 0.000131382)
(-0.000561529 -0.000120405 0.000174899)
(-0.00142695 -0.00028258 0.000521232)
(-0.00254674 -0.000448201 0.000826097)
(3.54772e-05 -1.11738e-05 -8.68003e-06)
(-1.08491e-05 -1.70727e-05 -1.45023e-06)
(-2.38774e-05 -2.02798e-05 -7.62146e-07)
(-0.000108463 -3.20686e-05 2.19913e-05)
(-0.000162615 -3.71287e-05 3.28263e-05)
(-0.000377768 -7.25479e-05 9.53558e-05)
)
;

boundaryField
{
    inlet
    {
        type            calculated;
        value           nonuniform 0();
    }
    outlet
    {
        type            calculated;
        value           nonuniform List<vector> 
12
(
(-0.000884834 -0.000217677 -0.000343907)
(-0.00212082 -0.000922444 -0.00113027)
(-0.00166666 -4.39484e-05 -0.000301048)
(-0.00708736 -0.00150374 0.00185516)
(-0.00335603 -0.00201814 0.00158288)
(-0.00286976 -0.00117512 0.00118486)
(-0.00425942 -0.000210666 0.00139135)
(-0.00482662 -0.000975712 0.00122492)
(-0.00226877 -0.000601648 0.00188248)
(-0.012556 -0.00305796 0.00542393)
(-0.00776386 -0.00220429 0.00183939)
(-0.00795301 -0.00085677 0.00308085)
)
;
    }
    wall
    {
        type            calculated;
        value           nonuniform List<vector> 
66
(
(0.000555254 3.72713e-05 -1.08386e-05)
(0.000352608 2.98891e-05 -3.93025e-05)
(0.000275998 -1.73734e-05 -6.08069e-05)
(0.000240293 -7.0829e-06 -6.13738e-05)
(0.000191121 1.08408e-05 9.20776e-05)
(1.99798e-05 -4.16138e-05 1.26325e-05)
(-4.07205e-05 -5.16179e-05 6.20154e-05)
(-9.20292e-05 -5.29691e-05 2.91434e-06)
(0.000934236 3.81001e-05 -4.58903e-05)
(0.000613699 9.6553e-05 -0.000101521)
(0.000454634 2.61851e-05 -4.68654e-05)
(0.000290804 -1.56996e-05 -0.000113987)
(4.29018e-05 -0.000103979 0.000311611)
(-9.34355e-05 -0.000101296 9.5573e-05)
(-7.01548e-05 -7.0421e-05 0.000218116)
(-0.000170141 -9.48857e-05 6.23227e-05)
(0.00186207 7.22977e-05 -0.000167897)
(0.000956572 0.000202482 -0.000211067)
(0.000901359 9.09889e-05 -0.000246992)
(0.000564083 3.93854e-05 -7.68004e-05)
(-0.000431163 -0.000356342 0.000796115)
(-0.000524453 -0.000233514 0.000251663)
(-0.000273913 -0.000132681 0.000471868)
(-0.000226335 -0.000274519 0.000230975)
(0.0052236 0.000322287 -0.000847395)
(0.00155523 0.000583297 -0.000593669)
(0.00220773 0.000312577 -0.000763163)
(-0.00213287 -0.00147369 0.00196286)
(-0.00130642 -0.000554683 0.000380603)
(-0.00105122 -0.000184886 0.00131129)
(-0.012556 -0.00305796 0.00542393)
(-0.00776386 -0.00220429 0.00183939)
(-0.00795301 -0.00085677 0.00308085)
(0.000264664 4.07457e-05 0.00010655)
(4.80332e-05 4.50175e-05 -1.77791e-05)
(0.000555254 3.72713e-05 -1.08386e-05)
(-9.92233e-05 -2.62687e-05 0.000116138)
(-0.000131059 4.24736e-05 1.53847e-05)
(0.000191121 1.08408e-05 9.20776e-05)
(0.000398781 9.5953e-05 9.03459e-05)
(0.000126388 5.51517e-05 7.05979e-06)
(0.000934236 3.81001e-05 -4.58903e-05)
(-0.0002755 -1.49338e-05 3.01521e-05)
(-0.000213151 -0.000103194 0.000170997)
(-0.000170272 2.98419e-05 6.73699e-05)
(4.29018e-05 -0.000103979 0.000311611)
(-0.000836129 -7.9026e-05 3.98759e-05)
(0.000586516 0.00017045 -7.73039e-05)
(0.000128684 5.30898e-05 -2.51183e-06)
(0.00186207 7.22977e-05 -0.000167897)
(-6.04931e-05 -1.6015e-05 6.17329e-05)
(-0.000357483 -0.000222755 0.000285528)
(-0.00034019 1.92117e-05 0.000174647)
(-0.000431163 -0.000356342 0.000796115)
(-0.0010539 -0.000106345 -3.74479e-05)
(0.00127352 0.000348276 -0.000335016)
(3.6627e-05 8.93976e-08 -0.000251184)
(0.0052236 0.000322287 -0.000847395)
(-0.000415279 2.96732e-05 -4.22531e-05)
(-0.000479749 -0.00079048 0.00087753)
(-0.000682181 6.27166e-05 0.000443577)
(-0.00213287 -0.00147369 0.00196286)
(-0.000884834 -0.000217677 -0.000343907)
(-0.00708736 -0.00150374 0.00185516)
(-0.00425942 -0.000210666 0.00139135)
(-0.012556 -0.00305796 0.00542393)
)
;
    }
    procBoundary5to1
    {
        type            processor;
        value           nonuniform List<vector> 
32
(
(-9.09206e-05 -2.0558e-05 -4.52736e-05)
(-0.000161182 -4.15052e-05 -4.37772e-05)
(-0.000468014 -0.000104924 -0.000141479)
(-0.000790332 -0.000164749 -0.000180666)
(-0.00162694 -0.000319542 -0.000490584)
(-0.00266284 -0.000443955 -0.00083996)
(1.59058e-05 3.13668e-06 -1.72893e-06)
(-9.72682e-05 -2.62558e-05 -3.54876e-05)
(-0.00018828 -3.67593e-05 -4.61425e-05)
(-0.000467569 -0.000106763 -0.000137988)
(-0.000795768 -0.000141206 -0.000197982)
(-0.0015293 -0.000369741 -0.000494224)
(-0.00244675 -0.000577108 -0.000801998)
(1.00253e-05 2.90095e-06 3.09773e-06)
(-2.89756e-05 -1.77784e-06 -5.38112e-06)
(-0.000122039 -2.04592e-05 -2.89781e-05)
(-0.000247452 -3.44119e-05 -5.19431e-05)
(-0.000478539 -7.76811e-05 -0.00013606)
(-0.000832336 -0.000111166 -0.000223417)
(-0.00135124 -0.000275124 -0.000486494)
(-0.00202701 -0.000395126 -0.000736338)
(2.8443e-05 2.69723e-05 1.84948e-05)
(-2.43765e-05 1.67914e-05 9.20487e-06)
(-7.54949e-05 7.1508e-06 7.06289e-06)
(-7.54949e-05 7.1508e-06 7.06289e-06)
(-7.54949e-05 7.1508e-06 7.06289e-06)
(2.76959e-05 1.91066e-05 1.50628e-05)
(-1.21354e-05 1.01111e-05 9.17289e-06)
(-1.21354e-05 1.01111e-05 9.17289e-06)
(-1.21354e-05 1.01111e-05 9.17289e-06)
(1.3152e-05 8.52434e-06 1.13375e-05)
(1.3152e-05 8.52434e-06 1.13375e-05)
)
;
    }
    procBoundary5to4
    {
        type            processor;
        value           nonuniform List<vector> 
12
(
(5.15164e-05 1.38665e-05 2.35528e-05)
(3.58933e-05 1.17945e-05 1.48308e-05)
(2.55468e-05 6.22038e-06 8.2967e-06)
(2.16069e-05 -2.41165e-06 5.33414e-06)
(6.06775e-05 1.10262e-05 1.4011e-05)
(4.72911e-05 6.00852e-06 9.1072e-06)
(3.36868e-05 4.38353e-07 3.53203e-06)
(2.42607e-05 -5.84653e-06 -8.32042e-07)
(0.000105374 4.62311e-06 1.57088e-05)
(8.15375e-05 -1.98183e-06 7.20639e-06)
(5.80904e-05 -8.31424e-06 1.89197e-06)
(4.07432e-05 -1.2806e-05 -3.80723e-06)
)
;
    }
    procBoundary5to7
    {
        type            processor;
        value           nonuniform List<vector> 
44
(
(-2.07867e-05 -3.08153e-06 3.61308e-06)
(-6.80677e-05 -6.04185e-06 -6.62967e-07)
(-0.000144799 -1.03548e-05 -1.21131e-05)
(-0.000272526 -1.35085e-05 -2.41867e-05)
(-0.000463555 -1.9436e-05 -6.37006e-05)
(-0.000792128 -3.23383e-05 -0.000106032)
(-0.00113441 -1.45752e-05 -0.0002211)
(-0.00161838 3.05714e-06 -0.000322334)
(1.35444e-05 1.41106e-06 8.90235e-06)
(-2.07867e-05 -3.08153e-06 3.61308e-06)
(-6.45868e-05 -1.03604e-05 5.27176e-06)
(-0.000139807 -1.46874e-05 3.36799e-06)
(-0.000254988 -2.06847e-05 6.7168e-06)
(-0.000437298 -3.15992e-05 6.64838e-06)
(-0.00074329 -3.99766e-05 1.83399e-05)
(-0.00109335 -8.38409e-05 7.16658e-05)
(-0.00162555 -0.000121552 0.000122942)
(5.16266e-06 -9.00934e-06 1.34821e-06)
(-6.45868e-05 -1.03604e-05 5.27176e-06)
(-3.08825e-05 -1.03629e-05 -1.65195e-06)
(-6.45868e-05 -1.03604e-05 5.27176e-06)
(-0.000139807 -1.46874e-05 3.36799e-06)
(-0.000223373 -3.1613e-05 2.99418e-05)
(-0.00041029 -5.01078e-05 7.12611e-05)
(-0.000705732 -7.30953e-05 0.000113917)
(-0.00116722 -0.000126306 0.000340997)
(-0.00183794 -0.000186558 0.000488609)
(1.48234e-06 -1.34765e-05 -6.61621e-06)
(-3.49687e-05 -1.52588e-05 -4.20642e-06)
(-7.26173e-05 -1.91999e-05 -4.83162e-07)
(-0.000223373 -3.1613e-05 2.99418e-05)
(-0.00014337 -1.93544e-05 4.10234e-06)
(-0.000223373 -3.1613e-05 2.99418e-05)
(-0.00041029 -5.01078e-05 7.12611e-05)
(-0.000593944 -7.86009e-05 0.000147946)
(-0.00131394 -0.000200989 0.000390105)
(-0.00230398 -0.00034442 0.000585284)
(1.08161e-05 -1.65055e-05 -1.68345e-05)
(-3.63095e-05 -2.12133e-05 -8.96856e-06)
(-6.36285e-05 -2.49092e-05 -5.14526e-06)
(-0.00014204 -3.06198e-05 8.15847e-06)
(-0.000221705 -3.3711e-05 7.59551e-06)
(-0.000593944 -7.86009e-05 0.000147946)
(-0.000415402 -4.49102e-05 4.93679e-05)
)
;
    }
}


// ************************************************************************* //
