/*--------------------------------*- C++ -*----------------------------------*\
| =========                 |                                                 |
| \\      /  F ield         | OpenFOAM: The Open Source CFD Toolbox           |
|  \\    /   O peration     | Version:  4.x                                   |
|   \\  /    A nd           | Web:      www.OpenFOAM.org                      |
|    \\/     M anipulation  |                                                 |
\*---------------------------------------------------------------------------*/
FoamFile
{
    version     2.0;
    format      ascii;
    class       volScalarField;
    location    "42";
    object      pSmooth;
}
// * * * * * * * * * * * * * * * * * * * * * * * * * * * * * * * * * * * * * //

dimensions      [1 -1 -2 0 0 0 0];

internalField   nonuniform List<scalar> 
114
(
69.203
0.1
62.5894
0.1
55.8631
0.1
1.32881
68.5789
0.1
62.2755
0.1
56.2378
0.1
75.0735
4.75875
68.4379
0.1
61.6969
0.1
53.7687
0.1
19.3541
74.7963
0.167126
68.6675
0.1
63.5706
0.1
60.5443
0.1
19.5881
74.9301
0.616948
68.4294
0.1
62.5715
0.1
58.1063
0.1
20.9036
74.7118
2.57678
68.2313
0.1
62.371
0.1
57.651
0.1
21.7273
74.7358
20.1594
75.0911
1.20455
68.6475
0.1
62.654
0.1
57.5938
0.1
20.0084
75.0597
0.819489
68.4826
0.1
62.3449
0.1
57.2543
0.1
20.6636
75.04
2.09207
68.2351
0.1
61.2381
0.1
54.5305
0.1
20.6874
74.8512
1.81985
68.0081
19.8289
74.6783
0.514337
68.561
0.1
63.6311
0.1
62.1935
0.1
19.8791
74.7396
0.576601
68.534
0.1
63.2327
0.1
60.3657
0.1
20.4225
74.7807
1.34905
68.2717
0.1
62.5444
0.1
58.9466
0.1
20.5067
74.7961
1.51673
68.3951
0.1
62.6404
)
;

boundaryField
{
    inlet
    {
        type            zeroGradient;
    }
    outlet
    {
        type            fixedValue;
        value           uniform 0;
    }
    wall
    {
        type            zeroGradient;
    }
    procBoundary5to1
    {
        type            processor;
        value           nonuniform List<scalar> 
32
(
68.8908
0.1
64.279
0.1
62.3235
0.1
0.1
68.6352
0.1
63.6703
0.1
61.2464
0.1
74.7713
0.789619
68.4838
0.1
62.9716
0.1
58.6346
0.1
20.3321
75.5367
1.9349
1.9349
1.9349
20.1506
75.2447
75.2447
75.2447
22.3231
22.3231
)
;
    }
    procBoundary5to4
    {
        type            processor;
        value           nonuniform List<scalar> 
12
(
81.4421
81.7492
81.7291
81.6335
81.8248
81.926
82.0922
81.8875
81.2654
81.4601
81.5796
81.5763
)
;
    }
    procBoundary5to7
    {
        type            processor;
        value           nonuniform List<scalar> 
44
(
74.7831
2.36397
68.2613
0.1
62.4652
0.1
57.3523
0.1
20.9806
74.7831
3.8136
68.2632
0.1
62.4805
0.1
56.4478
0.1
22.3999
3.8136
74.8314
3.8136
68.2632
0.1
61.8439
0.1
56.6837
0.1
21.1677
74.8212
2.70109
0.1
68.1729
0.1
61.8439
0.1
58.6653
0.1
21.018
74.8943
2.3238
68.3364
0.1
0.1
62.2626
)
;
    }
}


// ************************************************************************* //
