/*--------------------------------*- C++ -*----------------------------------*\
| =========                 |                                                 |
| \\      /  F ield         | OpenFOAM: The Open Source CFD Toolbox           |
|  \\    /   O peration     | Version:  4.x                                   |
|   \\  /    A nd           | Web:      www.OpenFOAM.org                      |
|    \\/     M anipulation  |                                                 |
\*---------------------------------------------------------------------------*/
FoamFile
{
    version     2.0;
    format      ascii;
    class       volScalarField;
    location    "5.5";
    object      magGField;
}
// * * * * * * * * * * * * * * * * * * * * * * * * * * * * * * * * * * * * * //

dimensions      [1 -2 -1 0 0 0 0];

internalField   nonuniform List<scalar> 
132
(
101.374
61.5911
118.676
85.7254
130.021
92.5319
130.158
87.3855
127.381
101.81
56.2342
113.657
70.1052
118.889
66.3638
113.414
48.6832
105.972
101.963
52.6469
109.756
58.5596
108.406
41.9835
101.654
22.5293
97.1757
101.394
49.2594
107.137
98.7889
47.9314
103.309
57.6568
108.735
67.0197
114.887
71.9212
118.796
99.2993
39.1326
98.3608
36.3863
96.098
28.9382
97.1468
22.2592
97.7975
97.7793
34.9117
94.9557
28.0397
92.8943
22.2152
93.5025
17.169
94.3966
96.3059
31.8747
92.1515
21.055
89.4973
95.4162
42.8412
96.6447
48.9284
100.452
58.7626
107.896
68.0301
115.243
95.3992
33.6138
92.086
27.2624
90.2999
22.2826
90.9711
19.7752
92.8253
93.9176
29.4408
89.1961
18.4264
87.6707
14.6347
88.8105
17.2431
89.6037
92.2153
28.3332
86.4622
17.9088
85.0061
15.0972
84.9973
94.7436
44.3252
97.0028
51.7482
100.977
61.3255
108.316
72.4666
117.188
94.5585
33.8429
91.4618
28.3267
90.0831
25.2326
90.0533
22.0918
90.2524
93.3262
31.0206
88.8659
21.3197
87.3849
16.8044
87.5081
15.692
88.3885
92.9287
29.2249
87.1949
18.6308
85.7289
17.1141
85.1245
17.6055
83.9277
)
;

boundaryField
{
    inlet
    {
        type            calculated;
        value           uniform 67;
    }
    outlet
    {
        type            calculated;
        value           nonuniform 0();
    }
    wall
    {
        type            calculated;
        value           uniform 0;
    }
    procBoundary0to1
    {
        type            processor;
        value           nonuniform List<scalar> 
12
(
78.4092
36.8133
14.1473
72.0114
19.8934
6.85437
72.3623
16.7818
13.7521
81.181
18.7217
14.1282
)
;
    }
    procBoundary0to2
    {
        type            processor;
        value           nonuniform List<scalar> 
44
(
49.9696
102.04
30.9353
96.3094
13.0388
94.6764
98.9106
51.4471
49.9696
107.834
49.9696
102.04
14.2297
89.3201
14.8241
90.7882
96.7553
36.6766
94.2791
30.1177
14.2297
92.6956
14.2297
89.3201
13.1522
84.6331
93.9766
32.1742
89.5146
22.8877
88.6597
19.5932
13.1522
89.7655
13.1522
84.6331
92.85
29.0309
87.4452
18.7445
86.539
17.3086
87.3765
17.7209
)
;
    }
    procBoundary0to4
    {
        type            processor;
        value           nonuniform List<scalar> 
36
(
93.2521
44.0353
93.986
48.6438
96.0078
53.2833
99.4813
59.0239
104.499
91.567
30.6613
85.7878
16.6643
80.9712
11.3965
77.9391
10.9578
73.7245
91.7013
29.5516
86.3698
17.3636
84.6629
13.0847
84.2487
3.76948
83.1149
90.4127
29.7369
83.2249
17.1546
79.607
12.4336
75.824
9.45101
73.6972
)
;
    }
    procBoundary0to6
    {
        type            processor;
        value           uniform 88.4303;
    }
    procBoundary0to7
    {
        type            processor;
        value           uniform 16.0449;
    }
}


// ************************************************************************* //
