/*--------------------------------*- C++ -*----------------------------------*\
| =========                 |                                                 |
| \\      /  F ield         | OpenFOAM: The Open Source CFD Toolbox           |
|  \\    /   O peration     | Version:  4.x                                   |
|   \\  /    A nd           | Web:      www.OpenFOAM.org                      |
|    \\/     M anipulation  |                                                 |
\*---------------------------------------------------------------------------*/
FoamFile
{
    version     2.0;
    format      ascii;
    class       volScalarField;
    location    "5.5";
    object      rho;
}
// * * * * * * * * * * * * * * * * * * * * * * * * * * * * * * * * * * * * * //

dimensions      [1 -3 0 0 0 0 0];

internalField   nonuniform List<scalar> 
132
(
6699.65
6698.65
6696.88
6694.54
6691.98
6689.74
6688.24
6687.67
6688.18
6699.69
6698.71
6696.81
6694.21
6691.45
6689.38
6688.65
6689.46
6691.9
6699.7
6698.59
6696.36
6693.34
6690.69
6689.53
6690.22
6692.37
6695.39
6699.72
6698.57
6696.25
6699.83
6699.2
6697.94
6696.2
6694.21
6692.59
6691.5
6691.24
6691.64
6699.84
6699.14
6697.71
6695.82
6694.1
6693.41
6693.63
6695.24
6697.45
6699.84
6699.02
6697.34
6695.34
6693.9
6694.09
6695.21
6697.17
6699.22
6699.85
6698.97
6697.17
6695.08
6693.64
6699.9
6699.51
6698.67
6697.52
6696.16
6695.05
6694.22
6694.01
6694.18
6699.9
6699.44
6698.49
6697.28
6696.2
6695.95
6696.28
6697.44
6698.94
6699.91
6699.38
6698.31
6697.05
6696.19
6696.34
6697.14
6698.52
6700.02
6699.91
6699.38
6698.27
6696.98
6696.08
6696.21
6696.86
6699.94
6699.73
6699.26
6698.62
6697.81
6697.13
6696.54
6696.32
6696.27
6699.94
6699.67
6699.11
6698.41
6697.75
6697.62
6697.88
6698.66
6699.74
6699.93
6699.62
6698.95
6698.17
6697.63
6697.7
6698.24
6699.21
6700.32
6699.93
6699.58
6698.85
6697.99
6697.4
6697.41
6697.8
6698.53
6699.5
)
;

boundaryField
{
    inlet
    {
        type            calculated;
        value           uniform 6700;
    }
    outlet
    {
        type            calculated;
        value           nonuniform 0();
    }
    wall
    {
        type            calculated;
        value           nonuniform List<scalar> 
66
(
6699.65
6699.69
6699.7
6699.72
6698.65
6698.71
6698.59
6698.57
6696.88
6696.81
6696.36
6696.25
6694.54
6694.21
6693.34
6691.98
6691.45
6690.69
6689.74
6689.38
6689.53
6688.24
6688.65
6690.22
6687.67
6689.46
6692.37
6688.18
6691.9
6695.39
6699.65
6699.83
6699.9
6699.94
6698.65
6699.2
6699.51
6699.73
6696.88
6697.94
6698.67
6699.26
6694.54
6696.2
6697.52
6698.62
6691.98
6694.21
6696.16
6697.81
6689.74
6692.59
6695.05
6697.13
6688.24
6691.5
6694.22
6696.54
6687.67
6691.24
6694.01
6696.32
6688.18
6691.64
6694.18
6696.27
)
;
    }
    procBoundary0to1
    {
        type            processor;
        value           nonuniform List<scalar> 
12
(
6689.33
6694.93
6698.43
6692.66
6699.77
6701.2
6694.92
6700.74
6701.56
6696.54
6701
6701.43
)
;
    }
    procBoundary0to2
    {
        type            processor;
        value           nonuniform List<scalar> 
44
(
6693.16
6690.59
6689.76
6690.87
6693.3
6696.2
6699.7
6698.6
6693.16
6696.39
6693.16
6690.59
6693.81
6694.86
6696.68
6698.76
6699.85
6699.09
6697.49
6695.42
6693.81
6693.75
6693.81
6694.86
6697.93
6699.14
6699.91
6699.46
6698.48
6697.23
6696.3
6696.35
6697.93
6697.01
6697.93
6699.14
6699.94
6699.68
6699.13
6698.45
6697.93
6697.9
6698.28
6699.09
)
;
    }
    procBoundary0to4
    {
        type            processor;
        value           nonuniform List<scalar> 
36
(
6699.96
6699.8
6699.48
6699.04
6698.53
6698.11
6697.77
6697.69
6697.77
6699.95
6699.74
6699.3
6698.74
6698.3
6698.3
6698.7
6699.48
6700.84
6699.95
6699.72
6699.22
6698.6
6698.19
6698.25
6698.73
6699.55
6700.5
6699.95
6699.71
6699.21
6698.58
6698.13
6698.16
6698.57
6699.35
6700.29
)
;
    }
    procBoundary0to6
    {
        type            processor;
        value           uniform 6700.08;
    }
    procBoundary0to7
    {
        type            processor;
        value           uniform 6700.4;
    }
}


// ************************************************************************* //
