/*--------------------------------*- C++ -*----------------------------------*\
| =========                 |                                                 |
| \\      /  F ield         | OpenFOAM: The Open Source CFD Toolbox           |
|  \\    /   O peration     | Version:  4.x                                   |
|   \\  /    A nd           | Web:      www.OpenFOAM.org                      |
|    \\/     M anipulation  |                                                 |
\*---------------------------------------------------------------------------*/
FoamFile
{
    version     2.0;
    format      ascii;
    class       volScalarField;
    location    "5.5";
    object      thCond;
}
// * * * * * * * * * * * * * * * * * * * * * * * * * * * * * * * * * * * * * //

dimensions      [1 1 -3 -1 0 0 0];

internalField   nonuniform List<scalar> 
132
(
193.807
193.647
193.525
193.414
193.197
192.993
192.906
193.116
193.32
193.543
193.325
193.18
193.015
193.037
192.72
192.792
192.78
192.79
193.602
193.125
192.998
192.822
192.776
192.717
192.738
192.66
192.305
193.407
193.085
193.008
193.17
192.65
192.289
192.223
192.13
192.031
192.043
192.07
192.142
192.828
192.364
192.274
192.085
191.947
191.855
191.829
191.755
191.835
192.576
192.197
192.124
191.992
191.782
191.683
191.525
191.744
191.725
192.274
192.233
192.1
191.965
191.459
192.416
192.041
191.731
191.644
191.556
191.585
191.393
191.399
191.553
192.14
191.831
191.646
191.561
191.33
191.353
191.125
191.029
191.213
191.857
191.744
191.49
191.186
191.029
190.983
190.935
191.1
191.164
191.726
191.571
191.313
191.064
190.887
190.831
190.781
192.214
191.867
191.522
191.407
191.213
191.017
191.154
191.213
191.032
191.882
191.434
191.201
191.093
191.023
190.929
190.7
190.805
190.765
191.824
191.507
191.052
190.907
190.711
190.541
190.598
190.749
190.543
191.66
191.329
190.853
190.593
190.759
190.353
190.432
190.681
190.79
)
;

boundaryField
{
    inlet
    {
        type            zeroGradient;
    }
    outlet
    {
        type            zeroGradient;
    }
    wall
    {
        type            zeroGradient;
    }
    procBoundary0to1
    {
        type            processor;
        value           nonuniform List<scalar> 
12
(
192.946
192.731
192.366
191.94
191.645
191.335
191.18
190.902
190.698
190.717
190.45
190.35
)
;
    }
    procBoundary0to2
    {
        type            processor;
        value           nonuniform List<scalar> 
44
(
192.575
192.531
192.701
192.47
192.709
192.499
192.983
192.742
192.575
192.786
192.575
192.531
191.396
191.218
191.586
191.291
192.405
192.13
191.896
191.742
191.396
191.625
191.396
191.218
190.871
190.794
191.777
191.739
191.47
191.239
191.159
190.936
190.871
190.72
190.871
190.794
191.516
191.091
190.822
190.77
190.698
190.589
190.491
190.453
)
;
    }
    procBoundary0to4
    {
        type            processor;
        value           nonuniform List<scalar> 
36
(
191.84
191.394
191.075
191.041
190.923
190.857
190.641
190.52
190.167
191.421
191.217
190.904
190.618
190.548
190.553
190.526
190.45
190.084
191.343
190.955
190.781
190.45
190.423
190.443
190.339
190.1
190.238
191.387
191.058
190.692
190.558
190.31
190.291
189.984
190.254
190.252
)
;
    }
    procBoundary0to6
    {
        type            processor;
        value           uniform 190.462;
    }
    procBoundary0to7
    {
        type            processor;
        value           uniform 189.98;
    }
}


// ************************************************************************* //
