/*--------------------------------*- C++ -*----------------------------------*\
| =========                 |                                                 |
| \\      /  F ield         | OpenFOAM: The Open Source CFD Toolbox           |
|  \\    /   O peration     | Version:  4.x                                   |
|   \\  /    A nd           | Web:      www.OpenFOAM.org                      |
|    \\/     M anipulation  |                                                 |
\*---------------------------------------------------------------------------*/
FoamFile
{
    version     2.0;
    format      ascii;
    class       volVectorField;
    location    "5.5";
    object      Urel;
}
// * * * * * * * * * * * * * * * * * * * * * * * * * * * * * * * * * * * * * //

dimensions      [0 1 -1 0 0 0 0];

internalField   nonuniform List<vector> 
132
(
(-0.0244526 0.001008 0.00146397)
(-0.0229346 0.000981045 0.00110275)
(-0.0243571 0.00108882 0.000649077)
(-0.0234712 0.00108099 5.4519e-05)
(-0.0247047 0.00117552 -0.000505382)
(-0.0235165 0.00114681 -0.000848629)
(-0.0245072 0.00123024 -0.00106472)
(-0.0230688 0.00118306 -0.00099562)
(-0.0241884 0.00124189 -0.000902088)
(-0.0242018 0.000952556 0.00149885)
(-0.0224388 0.000901664 0.00111481)
(-0.0236546 0.00100154 0.000677564)
(-0.0223108 0.00095237 0.000107067)
(-0.0233757 0.00100269 -0.000386256)
(-0.02163 0.000918751 -0.000637469)
(-0.0226696 0.000941827 -0.00077473)
(-0.020649 0.000869773 -0.000612121)
(-0.0220568 0.000893116 -0.000412308)
(-0.023875 0.000666228 0.00150176)
(-0.0218677 0.000608414 0.00108741)
(-0.0228534 0.000660371 0.000632018)
(-0.0210432 0.00059487 0.00010036)
(-0.0219898 0.000576205 -0.000349936)
(-0.0198185 0.000495072 -0.000476626)
(-0.0210134 0.00045867 -0.000537486)
(-0.0187475 0.000413401 -0.000347844)
(-0.0203805 0.000428769 -0.000102036)
(-0.023702 0.000106386 0.00149233)
(-0.0215807 7.78496e-05 0.0010728)
(-0.0224633 5.73223e-05 0.000617749)
(-0.0240275 0.00102289 0.0015386)
(-0.0222035 0.000973126 0.00110324)
(-0.0234964 0.001079 0.000625296)
(-0.0223548 0.00103037 -2.32013e-06)
(-0.0237452 0.00110549 -0.000619341)
(-0.0226001 0.00102619 -0.000949059)
(-0.0238808 0.00105996 -0.00122392)
(-0.0225832 0.000993193 -0.0011112)
(-0.0239087 0.00101631 -0.00103844)
(-0.0237564 0.000958691 0.00156133)
(-0.0216147 0.000869152 0.00109229)
(-0.0227304 0.000954417 0.000641174)
(-0.021032 0.00085314 5.30805e-05)
(-0.0223525 0.000873585 -0.000471563)
(-0.0205308 0.000764125 -0.000663377)
(-0.0219884 0.000746613 -0.00082225)
(-0.0200143 0.000685266 -0.000608381)
(-0.0216814 0.000686178 -0.000325618)
(-0.0234081 0.000654689 0.00154838)
(-0.0210531 0.000567428 0.00104772)
(-0.0219863 0.000601986 0.000589272)
(-0.0199388 0.00050639 5.33429e-05)
(-0.0212041 0.000476584 -0.000413181)
(-0.0191165 0.000405968 -0.00049389)
(-0.0206171 0.000348844 -0.000548945)
(-0.0185095 0.000329433 -0.000332242)
(-0.0202058 0.00030691 -4.58039e-05)
(-0.0232446 9.27544e-05 0.00151541)
(-0.0208103 7.25646e-05 0.00101892)
(-0.0216535 5.87503e-05 0.000547521)
(-0.0194816 3.81635e-05 4.72428e-05)
(-0.0207187 2.32797e-05 -0.000400063)
(-0.0236358 0.00101594 0.00125129)
(-0.0216572 0.000955909 0.000867447)
(-0.0228449 0.00104751 0.000420143)
(-0.0216058 0.000968005 -0.000126787)
(-0.0230761 0.00101089 -0.000693786)
(-0.0220514 0.000906125 -0.000995881)
(-0.0235336 0.000908847 -0.00128331)
(-0.0224677 0.000841635 -0.00119127)
(-0.0239397 0.000899788 -0.00114966)
(-0.0233551 0.000939374 0.00125266)
(-0.0210521 0.000838041 0.000845913)
(-0.0220865 0.000910062 0.000425536)
(-0.0202603 0.000773435 -6.89176e-05)
(-0.0217058 0.000770894 -0.000538112)
(-0.019946 0.000644814 -0.000676086)
(-0.0216056 0.000598584 -0.000816954)
(-0.019771 0.000544301 -0.000616386)
(-0.0215378 0.00050134 -0.000356727)
(-0.0230212 0.000612352 0.00122)
(-0.0205186 0.000525904 0.000801962)
(-0.0214049 0.000540147 0.000388906)
(-0.0192532 0.000439 -4.92079e-05)
(-0.0206822 0.000402712 -0.000445324)
(-0.018655 0.000336839 -0.000500567)
(-0.02035 0.000279421 -0.000533104)
(-0.0183603 0.000249707 -0.000337998)
(-0.0201331 0.000135742 -8.24848e-05)
(-0.0228841 7.88854e-05 0.00119287)
(-0.0203352 6.20002e-05 0.000780505)
(-0.0211589 4.80115e-05 0.0003606)
(-0.0189622 3.2747e-05 -5.68147e-05)
(-0.0203351 1.9153e-05 -0.000439998)
(-0.0183114 1.00519e-05 -0.000465728)
(-0.0199238 -4.23814e-06 -0.000497111)
(-0.0234599 0.00101221 0.000884218)
(-0.0214782 0.000944736 0.000587059)
(-0.0226243 0.00102855 0.000217439)
(-0.021406 0.000925523 -0.000215765)
(-0.0228895 0.000949692 -0.000693389)
(-0.021984 0.00084324 -0.000921214)
(-0.0235318 0.000837786 -0.00116495)
(-0.0226787 0.00077726 -0.00106824)
(-0.0242241 0.000797165 -0.00105396)
(-0.0231781 0.000920278 0.000876383)
(-0.0208489 0.000815502 0.000559379)
(-0.0218527 0.000876749 0.00021579)
(-0.0200076 0.000725054 -0.000171519)
(-0.021485 0.000709444 -0.000583602)
(-0.0198162 0.000583649 -0.000652976)
(-0.0215028 0.000540916 -0.000774007)
(-0.0197965 0.000481641 -0.00055799)
(-0.0215538 0.000435276 -0.000348129)
(-0.0228701 0.000593111 0.000816185)
(-0.0203669 0.000507804 0.000498441)
(-0.021233 0.000521011 0.000152436)
(-0.0190804 0.000408287 -0.000178541)
(-0.0205366 0.000369042 -0.000515821)
(-0.0185846 0.000301239 -0.000522396)
(-0.0203107 0.000242957 -0.000521001)
(-0.0183593 0.000212746 -0.000332379)
(-0.0202076 0.000133692 -7.80964e-05)
(-0.0227498 0.000111578 0.000791333)
(-0.0201768 7.65443e-05 0.000477773)
(-0.0210009 6.30132e-05 0.000133569)
(-0.0187692 3.65905e-05 -0.000178379)
(-0.0202136 1.74094e-05 -0.0005002)
(-0.0182469 1.01429e-05 -0.000486517)
(-0.0199394 -1.35921e-05 -0.000514256)
(-0.018032 -2.3042e-05 -0.000276884)
(-0.0197948 -5.12815e-05 -6.8649e-05)
)
;

boundaryField
{
    inlet
    {
        type            calculated;
        value           nonuniform List<vector> 
16
(
(-0.00999902 1.37029e-05 9.02217e-05)
(-0.00999366 5.16516e-06 7.78988e-05)
(-0.0100023 -8.37327e-06 7.43649e-05)
(-0.010002 1.90495e-05 7.39324e-05)
(-0.0100027 7.25377e-06 5.71491e-05)
(-0.00999994 6.69788e-06 5.92037e-05)
(-0.0100019 9.09662e-06 5.30216e-05)
(-0.00999857 4.05117e-06 4.47899e-05)
(-0.00999927 -1.69052e-06 3.68035e-05)
(-0.00999841 9.68816e-06 3.98398e-05)
(-0.0100016 7.53978e-06 3.76123e-05)
(-0.00999895 2.56192e-06 4.29966e-05)
(-0.00999949 -9.5444e-06 2.72157e-05)
(-0.0099986 1.3127e-06 2.55985e-05)
(-0.0100039 5.34903e-06 2.58359e-05)
(-0.0100002 -2.42788e-07 3.87791e-05)
)
;
    }
    outlet
    {
        type            calculated;
        value           nonuniform 0();
    }
    wall
    {
        type            calculated;
        value           nonuniform List<vector> 
66
(
(9.76422e-07 1.37029e-05 9.02217e-05)
(6.34266e-06 5.16516e-06 7.78988e-05)
(-2.31833e-06 -8.37327e-06 7.43649e-05)
(-1.96113e-06 1.90495e-05 7.39324e-05)
(1.48376e-05 -4.32938e-06 6.90766e-05)
(1.33344e-05 3.13981e-07 7.00376e-05)
(1.75163e-06 -8.74299e-06 6.64566e-05)
(1.65375e-06 -2.60064e-05 9.50885e-05)
(9.88391e-06 -3.46948e-06 6.80087e-05)
(6.89808e-06 3.84507e-05 7.85434e-05)
(1.59558e-05 5.7312e-06 5.27488e-05)
(9.0661e-06 -6.10943e-06 6.42762e-05)
(1.6616e-05 -2.0214e-06 6.84662e-05)
(5.96878e-06 -3.63747e-06 5.66114e-05)
(1.20513e-05 -4.75805e-06 5.1754e-05)
(9.93829e-06 -1.77142e-05 5.99621e-05)
(1.66347e-05 -7.97467e-06 4.48286e-05)
(1.03527e-05 -4.59947e-06 4.65787e-05)
(2.69326e-05 -2.75453e-06 4.82439e-05)
(1.41873e-05 -5.47765e-06 5.00592e-05)
(1.28135e-05 -3.62827e-06 4.68126e-05)
(2.77022e-05 6.19365e-06 5.61669e-05)
(1.35685e-05 -2.62746e-06 6.13648e-05)
(1.09079e-05 2.14267e-07 4.44714e-05)
(1.83335e-05 -9.05418e-06 6.13287e-05)
(9.70797e-06 -6.49809e-06 5.4442e-05)
(1.24229e-05 8.72765e-07 5.85726e-05)
(1.63875e-05 -7.17702e-06 5.42993e-05)
(6.16685e-06 -7.76067e-06 5.27645e-05)
(1.386e-05 -1.033e-06 5.34599e-05)
(9.76422e-07 1.37029e-05 9.02217e-05)
(-2.74818e-06 7.25377e-06 5.71491e-05)
(7.28674e-07 -1.69052e-06 3.68035e-05)
(5.08219e-07 -9.5444e-06 2.72157e-05)
(1.48376e-05 -4.32938e-06 6.90766e-05)
(5.98209e-06 4.27732e-07 5.27138e-05)
(5.77078e-06 -1.04073e-06 4.01226e-05)
(1.15397e-06 -1.74739e-06 3.96087e-05)
(9.88391e-06 -3.46948e-06 6.80087e-05)
(8.4461e-06 1.88346e-06 4.80799e-05)
(9.79165e-06 -5.62673e-07 3.17206e-05)
(4.84183e-06 -2.35748e-06 2.27684e-05)
(1.6616e-05 -2.0214e-06 6.84662e-05)
(1.16761e-05 1.10047e-06 4.64135e-05)
(1.36223e-05 4.07326e-07 3.95163e-05)
(7.09739e-06 7.28476e-07 3.77283e-05)
(9.93829e-06 -1.77142e-05 5.99621e-05)
(5.33458e-06 3.85129e-07 4.53451e-05)
(6.30829e-06 -2.7845e-07 4.0484e-05)
(2.60718e-06 2.36388e-06 3.3593e-05)
(2.69326e-05 -2.75453e-06 4.82439e-05)
(1.30803e-05 5.04093e-07 3.87442e-05)
(2.05985e-06 1.20175e-07 3.45134e-05)
(3.8254e-06 -4.29171e-07 2.7895e-05)
(2.77022e-05 6.19365e-06 5.61669e-05)
(1.48244e-05 1.7194e-06 4.40013e-05)
(5.72621e-06 3.22401e-07 3.66568e-05)
(2.49615e-06 -6.81948e-07 2.74318e-05)
(1.83335e-05 -9.05418e-06 6.13287e-05)
(1.17492e-05 -3.12188e-06 5.55843e-05)
(1.01363e-05 -5.25376e-07 4.61457e-05)
(8.96962e-06 3.02924e-06 2.92199e-05)
(1.63875e-05 -7.17702e-06 5.42993e-05)
(8.77383e-06 4.21979e-07 4.69546e-05)
(8.03615e-06 3.63637e-06 3.75607e-05)
(7.59765e-06 2.31537e-06 2.71189e-05)
)
;
    }
    procBoundary0to1
    {
        type            processor;
        value           nonuniform List<vector> 
12
(
(-0.0228616 0.00115807 -0.000686182)
(-0.0202608 0.000851559 -0.000195779)
(-0.0182906 0.000413547 4.92367e-05)
(-0.0226155 0.000960117 -0.000769219)
(-0.0197646 0.000672522 -0.000178241)
(-0.0181034 0.000311886 0.000115051)
(-0.0228348 0.000796999 -0.000875624)
(-0.0194611 0.000545974 -1.10823e-05)
(-0.0180995 0.000261568 0.000116294)
(-0.0233276 0.000737265 -0.000829542)
(-0.0197433 0.000467305 -0.000104263)
(-0.0182813 0.000252224 0.000105651)
)
;
    }
    procBoundary0to2
    {
        type            processor;
        value           nonuniform List<vector> 
44
(
(-0.0204657 4.41534e-05 0.000102555)
(-0.021394 2.28175e-05 -0.000323665)
(-0.0191044 1.36016e-05 -0.000421605)
(-0.0203763 -1.82598e-05 -0.000476652)
(-0.0180745 -3.55388e-05 -0.000276055)
(-0.0197616 -9.39833e-05 -5.63304e-05)
(-0.0238176 -0.000454429 0.00146352)
(-0.0218322 -0.000439453 0.00107365)
(-0.0204657 4.41534e-05 0.000102555)
(-0.0228072 -0.000515838 0.000629314)
(-0.0204657 4.41534e-05 0.000102555)
(-0.021394 2.28175e-05 -0.000323665)
(-0.0185514 8.05759e-06 -0.000439445)
(-0.0200545 -1.50555e-05 -0.000487028)
(-0.0179417 -3.80156e-05 -0.000266309)
(-0.0196223 -0.000100222 2.33519e-05)
(-0.0233981 -0.000459795 0.00151615)
(-0.0210865 -0.000417363 0.00104086)
(-0.021995 -0.000472135 0.000589257)
(-0.0199871 -0.000425141 4.84774e-05)
(-0.0185514 8.05759e-06 -0.000439445)
(-0.0212173 -0.000422952 -0.00042215)
(-0.0185514 8.05759e-06 -0.000439445)
(-0.0200545 -1.50555e-05 -0.000487028)
(-0.0179414 -3.42201e-05 -0.000287596)
(-0.0196839 -8.63445e-05 -8.40862e-05)
(-0.023033 -0.000450319 0.00124267)
(-0.0205581 -0.000396782 0.000820734)
(-0.0214218 -0.000430921 0.000411751)
(-0.0193161 -0.000371884 -4.15074e-05)
(-0.0207034 -0.000359724 -0.000445965)
(-0.0187305 -0.000322903 -0.000502509)
(-0.0179414 -3.42201e-05 -0.000287596)
(-0.0203745 -0.000310855 -0.000548445)
(-0.0179414 -3.42201e-05 -0.000287596)
(-0.0196839 -8.63445e-05 -8.40862e-05)
(-0.0228424 -0.000409403 0.000852011)
(-0.0202893 -0.000365596 0.000513833)
(-0.0211524 -0.000391379 0.000183519)
(-0.0189704 -0.000325716 -0.000159129)
(-0.0204613 -0.000305766 -0.000496164)
(-0.0185306 -0.000276793 -0.000511691)
(-0.0202746 -0.000263331 -0.000530083)
(-0.0183818 -0.00026441 -0.000328799)
)
;
    }
    procBoundary0to4
    {
        type            processor;
        value           nonuniform List<vector> 
36
(
(-0.0234119 0.000985128 0.000439645)
(-0.0214535 0.00091498 0.000232631)
(-0.0225433 0.000991045 -5.69587e-05)
(-0.0213134 0.000888325 -0.00036848)
(-0.0227708 0.000872844 -0.000730171)
(-0.0218609 0.000809168 -0.000909428)
(-0.0234329 0.000783602 -0.00108778)
(-0.0225815 0.000844083 -0.00102495)
(-0.0241734 0.000899159 -0.000970467)
(-0.0231206 0.000869399 0.00038805)
(-0.0207969 0.000759287 0.000177589)
(-0.0217364 0.000805607 -0.000100188)
(-0.0198348 0.000647521 -0.000352893)
(-0.0213295 0.000624906 -0.000647918)
(-0.0196924 0.000519235 -0.000698185)
(-0.0213304 0.000495181 -0.000768656)
(-0.0197102 0.00045297 -0.000598384)
(-0.021245 0.000432283 -0.00029656)
(-0.0228743 0.000531175 0.00031047)
(-0.0204106 0.000458771 0.000108596)
(-0.0212548 0.000452946 -0.000172167)
(-0.0191331 0.000365172 -0.000370338)
(-0.0206209 0.000343111 -0.000600833)
(-0.0187211 0.00027315 -0.000596074)
(-0.0204617 0.000229474 -0.000588909)
(-0.0185024 0.000186107 -0.000388426)
(-0.0203593 8.85794e-05 -6.91186e-05)
(-0.0227602 0.000110662 0.000280067)
(-0.0202631 7.25704e-05 7.97138e-05)
(-0.0210438 6.09262e-05 -0.000200506)
(-0.0188998 4.30734e-05 -0.000376885)
(-0.0203097 2.75021e-05 -0.000592333)
(-0.0184024 2.23909e-05 -0.000564616)
(-0.0200557 1.89169e-06 -0.000538881)
(-0.0181716 6.76166e-06 -0.000336979)
(-0.0199065 2.73196e-05 -6.09325e-05)
)
;
    }
    procBoundary0to6
    {
        type            processor;
        value           uniform (-0.0202212 -0.000285445 -5.23129e-05);
    }
    procBoundary0to7
    {
        type            processor;
        value           uniform (-0.0179843 -2.5819e-06 0.00022102);
    }
}


// ************************************************************************* //
