/*--------------------------------*- C++ -*----------------------------------*\
| =========                 |                                                 |
| \\      /  F ield         | OpenFOAM: The Open Source CFD Toolbox           |
|  \\    /   O peration     | Version:  4.x                                   |
|   \\  /    A nd           | Web:      www.OpenFOAM.org                      |
|    \\/     M anipulation  |                                                 |
\*---------------------------------------------------------------------------*/
FoamFile
{
    version     2.0;
    format      ascii;
    class       volVectorField;
    location    "33";
    object      ddtUrel;
}
// * * * * * * * * * * * * * * * * * * * * * * * * * * * * * * * * * * * * * //

dimensions      [0 1 -2 0 0 0 0];

internalField   nonuniform List<vector> 
114
(
(5.05735e-09 -2.39761e-09 -2.76669e-09)
(5.56603e-09 -2.58879e-09 -2.42568e-09)
(5.15725e-09 -2.89483e-09 -2.6279e-09)
(1.82721e-09 -4.20156e-09 -4.23352e-09)
(-1.07655e-08 -1.11312e-08 -1.19328e-08)
(-2.10671e-08 -1.37281e-08 -1.30584e-08)
(-5.72964e-10 -4.18528e-10 -2.14474e-09)
(2.21446e-09 -1.45048e-09 -2.63317e-09)
(3.79473e-09 -2.01577e-09 -2.93657e-09)
(5.16948e-09 -2.39274e-09 -2.81578e-09)
(5.87762e-09 -2.5669e-09 -2.42957e-09)
(6.0151e-09 -2.77476e-09 -2.23289e-09)
(4.88984e-09 -3.29534e-09 -2.58989e-09)
(2.6462e-09 -4.31859e-09 -4.17641e-09)
(1.60648e-09 -4.04121e-09 -4.81903e-09)
(1.07275e-09 -8.19989e-10 -2.2679e-09)
(2.46954e-09 -1.27264e-09 -2.58342e-09)
(3.84925e-09 -1.7342e-09 -2.84797e-09)
(5.43436e-09 -2.18302e-09 -2.59928e-09)
(6.00983e-09 -2.34025e-09 -2.29303e-09)
(6.28327e-09 -2.44196e-09 -1.88155e-09)
(6.54713e-09 -2.45242e-09 -1.4616e-09)
(7.41015e-09 -2.22475e-09 -1.7573e-09)
(7.92003e-09 -1.29093e-09 -2.08581e-09)
(9.3279e-10 -8.66823e-10 -2.15532e-09)
(2.34299e-09 -1.15295e-09 -2.36971e-09)
(3.62352e-09 -1.63418e-09 -2.56171e-09)
(5.29762e-09 -2.53473e-09 -2.46948e-09)
(5.45206e-09 -2.08458e-09 -2.17828e-09)
(5.9693e-09 -1.98313e-09 -1.73111e-09)
(6.80851e-09 -1.94463e-09 -1.09559e-09)
(8.19952e-09 -1.66724e-09 -1.07814e-09)
(8.9105e-09 -7.38562e-10 -1.32571e-09)
(5.97247e-09 -2.40111e-09 -2.20652e-09)
(5.37014e-09 -2.70904e-09 -2.55475e-09)
(3.33106e-09 -3.79665e-09 -4.33381e-09)
(1.89706e-09 -4.12324e-09 -4.84454e-09)
(1.52354e-09 -9.45291e-10 -2.12613e-09)
(2.62654e-09 -1.40068e-09 -2.51274e-09)
(3.77382e-09 -1.78631e-09 -2.77631e-09)
(4.97789e-09 -2.04823e-09 -2.68167e-09)
(5.74883e-09 -2.18254e-09 -2.36503e-09)
(6.4045e-09 -2.21104e-09 -2.03605e-09)
(6.6607e-09 -2.28213e-09 -1.84988e-09)
(6.6453e-09 -2.34329e-09 -2.42859e-09)
(7.13411e-09 -1.93848e-09 -2.85106e-09)
(1.7406e-09 -9.78448e-10 -2.18816e-09)
(2.62897e-09 -1.29339e-09 -2.46321e-09)
(3.71929e-09 -1.6069e-09 -2.71463e-09)
(4.88929e-09 -1.85453e-09 -2.54443e-09)
(5.68029e-09 -1.94678e-09 -2.31381e-09)
(6.34147e-09 -1.9368e-09 -1.87214e-09)
(7.11211e-09 -1.83264e-09 -1.37608e-09)
(8.18393e-09 -1.46567e-09 -1.42402e-09)
(9.26168e-09 -7.60663e-10 -1.66495e-09)
(1.65614e-09 -9.52599e-10 -2.05243e-09)
(2.45956e-09 -1.16384e-09 -2.25974e-09)
(3.40594e-09 -1.4383e-09 -2.43482e-09)
(4.51505e-09 -1.72017e-09 -2.33736e-09)
(5.2245e-09 -1.71869e-09 -2.16131e-09)
(5.9226e-09 -1.66391e-09 -1.66947e-09)
(6.83704e-09 -1.51954e-09 -1.09365e-09)
(8.12707e-09 -1.10823e-09 -1.00343e-09)
(8.97408e-09 -4.92939e-10 -1.24246e-09)
(7.10709e-09 -1.68714e-09 -2.25364e-09)
(7.51659e-09 -1.63787e-09 -2.67208e-09)
(1.97965e-09 -9.53663e-10 -1.91549e-09)
(2.6732e-09 -1.23809e-09 -2.23055e-09)
(3.53754e-09 -1.50953e-09 -2.44275e-09)
(4.54955e-09 -1.66643e-09 -2.36026e-09)
(5.38686e-09 -1.71507e-09 -2.10565e-09)
(6.29616e-09 -1.58993e-09 -1.73688e-09)
(6.94635e-09 -1.55198e-09 -1.50328e-09)
(7.95671e-09 -1.2352e-09 -1.61396e-09)
(8.94843e-09 -9.08071e-10 -1.95638e-09)
(1.97903e-09 -9.43741e-10 -1.91289e-09)
(2.70019e-09 -1.16563e-09 -2.18864e-09)
(3.49144e-09 -1.40684e-09 -2.37695e-09)
(4.38224e-09 -1.52802e-09 -2.26702e-09)
(5.17013e-09 -1.56253e-09 -2.03217e-09)
(6.02273e-09 -1.43716e-09 -1.65533e-09)
(6.90638e-09 -1.27965e-09 -1.24466e-09)
(8.22656e-09 -8.87637e-10 -1.16504e-09)
(9.51069e-09 -4.41721e-10 -1.36107e-09)
(1.89738e-09 -9.1953e-10 -1.82704e-09)
(2.57676e-09 -1.076e-09 -2.02988e-09)
(3.28107e-09 -1.24916e-09 -2.12548e-09)
(4.18764e-09 -1.33584e-09 -2.04853e-09)
(4.84379e-09 -1.36403e-09 -1.87712e-09)
(5.61599e-09 -1.26173e-09 -1.48982e-09)
(6.56696e-09 -1.1016e-09 -1.11495e-09)
(7.78091e-09 -7.96831e-10 -9.3032e-10)
(8.82998e-09 -3.70496e-10 -1.07339e-09)
(1.89099e-09 -8.41937e-10 -1.6528e-09)
(2.51833e-09 -1.03083e-09 -1.87856e-09)
(3.24256e-09 -1.2296e-09 -2.03268e-09)
(4.0947e-09 -1.30825e-09 -1.99415e-09)
(4.92337e-09 -1.2722e-09 -1.79983e-09)
(5.9202e-09 -1.15429e-09 -1.50222e-09)
(6.80644e-09 -1.06094e-09 -1.26943e-09)
(7.97257e-09 -7.45769e-10 -1.127e-09)
(1.89955e-09 -8.33081e-10 -1.62396e-09)
(2.53847e-09 -1.0071e-09 -1.85832e-09)
(3.13486e-09 -1.15702e-09 -1.95962e-09)
(3.90026e-09 -1.21903e-09 -1.89916e-09)
(4.63369e-09 -1.19026e-09 -1.69594e-09)
(5.53161e-09 -1.05038e-09 -1.38534e-09)
(6.42914e-09 -8.7937e-10 -1.11777e-09)
(1.88708e-09 -8.04875e-10 -1.53869e-09)
(2.4812e-09 -9.3234e-10 -1.73141e-09)
(3.04732e-09 -1.05075e-09 -1.80408e-09)
(3.71022e-09 -1.06561e-09 -1.68766e-09)
(4.33152e-09 -1.05878e-09 -1.51944e-09)
(5.10132e-09 -9.2697e-10 -1.2234e-09)
)
;

boundaryField
{
    inlet
    {
        type            calculated;
        value           nonuniform List<vector> 
12
(
(-3.31521e-08 7.786e-09 -3.78196e-10)
(-4.96308e-11 1.11498e-10 -2.20936e-09)
(-8.15134e-09 1.47857e-10 -1.41286e-09)
(7.79349e-10 -4.61192e-10 -1.89167e-09)
(1.25668e-09 -6.61168e-10 -2.50632e-09)
(1.74729e-10 -5.22473e-10 -1.3866e-09)
(8.14555e-10 -3.09097e-10 -1.31744e-09)
(1.06932e-09 -4.41337e-10 -1.24612e-09)
(1.929e-10 -5.70509e-10 -1.11661e-09)
(8.95902e-10 -3.44702e-10 -1.0426e-09)
(5.8469e-10 -3.00005e-10 -7.98863e-10)
(5.60889e-10 -2.63588e-10 -4.99986e-10)
)
;
    }
    outlet
    {
        type            calculated;
        value           nonuniform 0();
    }
    wall
    {
        type            calculated;
        value           nonuniform List<vector> 
66
(
(-2.68762e-08 7.77182e-09 -7.89002e-10)
(-2.80492e-10 7.28322e-11 -2.24886e-09)
(-6.70544e-09 1.82315e-10 -1.50214e-09)
(2.55725e-09 -2.92005e-09 -4.3436e-09)
(2.80119e-09 -9.57287e-10 -3.67677e-09)
(1.80205e-09 -1.1528e-10 -2.08358e-09)
(3.0831e-09 -3.90924e-09 -5.21712e-09)
(3.47241e-09 -1.59631e-09 -5.46427e-09)
(2.4786e-09 -5.4904e-10 -2.92206e-09)
(6.77809e-09 -4.04939e-09 -4.52438e-09)
(6.52865e-09 -4.77662e-09 -4.87691e-09)
(1.10664e-08 -2.51354e-09 -2.59408e-09)
(1.13479e-08 -1.04827e-08 -2.98527e-09)
(6.4165e-09 -4.15963e-09 -2.15692e-09)
(6.71812e-09 -4.35058e-09 -1.90492e-09)
(8.77985e-09 -4.05701e-09 -2.46924e-09)
(8.3982e-12 -1.86066e-09 -2.37984e-09)
(6.34596e-09 -2.77309e-09 -1.06353e-09)
(7.56888e-09 -4.52263e-09 -1.03435e-09)
(4.30007e-09 -4.88469e-09 -1.19611e-09)
(1.73489e-09 -1.16462e-09 -1.71735e-09)
(2.26293e-09 1.96354e-09 1.43492e-09)
(1.47176e-09 -6.14066e-09 5.63e-10)
(2.31806e-09 -4.94836e-09 2.32853e-09)
(5.26402e-09 -2.32728e-09 2.41037e-09)
(-2.29821e-07 -8.74446e-08 -1.07808e-07)
(1.05078e-08 3.09933e-11 2.36425e-09)
(1.66538e-08 -2.44985e-09 2.44544e-09)
(1.22088e-08 -3.72094e-09 1.66003e-09)
(-5.33228e-07 -1.66107e-07 -1.67593e-07)
(5.34479e-09 2.53676e-10 4.2444e-10)
(8.94266e-09 1.56976e-09 2.60268e-09)
(7.79832e-09 -3.40409e-10 1.83531e-09)
(-6.69585e-09 1.84362e-10 -1.495e-09)
(8.26513e-11 -5.31381e-10 -1.39944e-09)
(1.08702e-10 -5.76703e-10 -1.12534e-09)
(4.05485e-10 -2.73725e-10 -5.08916e-10)
(1.69761e-09 -1.16267e-10 -2.0697e-09)
(1.35029e-09 -8.34982e-10 -1.9909e-09)
(2.31765e-09 -9.11822e-10 -2.05549e-09)
(2.17144e-09 -9.7703e-10 -1.71737e-09)
(1.42666e-09 -5.94728e-10 -2.92645e-09)
(1.62415e-09 -9.07561e-10 -2.96909e-09)
(1.98866e-09 -1.03184e-09 -1.97596e-09)
(2.22419e-09 -1.28912e-09 -1.99687e-09)
(1.34078e-08 -1.04443e-08 -3.05039e-09)
(3.13443e-09 -8.7121e-10 -2.37948e-09)
(4.34309e-09 -5.7004e-10 -1.83968e-09)
(2.62176e-09 -6.25916e-10 -1.1003e-09)
(3.11404e-09 -1.35352e-09 -2.20869e-09)
(4.49025e-09 -9.98766e-10 -3.29387e-09)
(4.18474e-09 -9.80012e-10 -2.18028e-09)
(2.3056e-09 -1.00206e-09 -1.25572e-09)
(4.21033e-09 -1.31301e-09 -1.76237e-09)
(4.91438e-09 -1.25716e-09 -1.0941e-09)
(4.35873e-09 -7.91447e-10 -9.61942e-10)
(2.98382e-09 -3.66678e-10 -4.33505e-10)
(2.58532e-09 -1.78714e-09 2.48916e-09)
(4.7792e-09 -1.42485e-09 1.40893e-09)
(5.84594e-09 -9.16604e-10 -4.51834e-10)
(1.57967e-08 -3.40423e-09 1.87266e-09)
(9.55893e-09 -4.89723e-10 1.57748e-09)
(8.87941e-09 -7.8391e-10 9.15512e-10)
(8.79999e-09 -3.69997e-10 1.9726e-09)
(4.79563e-09 1.4861e-10 1.20546e-09)
(6.72226e-09 6.50991e-10 3.75229e-10)
)
;
    }
    procBoundary2to0
    {
        type            processor;
        value           nonuniform List<vector> 
44
(
(4.76657e-09 -2.2027e-09 -2.44605e-09)
(5.17025e-09 -2.18537e-09 -2.22657e-09)
(5.16738e-09 -2.32565e-09 -2.37149e-09)
(3.07836e-09 -2.8007e-09 -3.0244e-09)
(-4.79015e-10 -4.36076e-09 -5.16628e-09)
(-5.50705e-09 -5.12557e-09 -6.02586e-09)
(1.33353e-09 -1.09336e-09 -2.01367e-09)
(2.6219e-09 -1.6776e-09 -2.4346e-09)
(3.85397e-09 -2.09075e-09 -2.7678e-09)
(3.85397e-09 -2.09075e-09 -2.7678e-09)
(4.91241e-09 -2.03478e-09 -2.56662e-09)
(5.61509e-09 -2.24006e-09 -2.3139e-09)
(5.53562e-09 -1.89021e-09 -2.04883e-09)
(5.01045e-09 -2.04333e-09 -2.26459e-09)
(3.97725e-09 -2.59857e-09 -3.22855e-09)
(2.14135e-09 -2.93282e-09 -3.89514e-09)
(1.88117e-09 -1.09177e-09 -1.98707e-09)
(2.75465e-09 -1.47327e-09 -2.34581e-09)
(3.72344e-09 -1.8079e-09 -2.58454e-09)
(4.91241e-09 -2.03478e-09 -2.56662e-09)
(5.61509e-09 -2.24006e-09 -2.3139e-09)
(5.61509e-09 -2.24006e-09 -2.3139e-09)
(6.15947e-09 -1.67316e-09 -1.75662e-09)
(6.68724e-09 -1.571e-09 -1.76053e-09)
(6.23034e-09 -1.51195e-09 -2.15759e-09)
(5.87057e-09 -1.75795e-09 -2.84618e-09)
(2.01965e-09 -9.69125e-10 -1.80657e-09)
(2.67791e-09 -1.2275e-09 -2.11024e-09)
(3.48944e-09 -1.45804e-09 -2.30101e-09)
(4.50972e-09 -1.6059e-09 -2.27428e-09)
(5.31087e-09 -1.69675e-09 -2.06073e-09)
(6.15947e-09 -1.67316e-09 -1.75662e-09)
(6.68724e-09 -1.571e-09 -1.76053e-09)
(6.68724e-09 -1.571e-09 -1.76053e-09)
(7.76677e-09 -8.31962e-10 -1.34238e-09)
(8.34594e-09 -7.7228e-10 -1.83373e-09)
(1.83981e-09 -8.2097e-10 -1.58149e-09)
(2.47127e-09 -9.88025e-10 -1.79801e-09)
(3.19353e-09 -1.15855e-09 -1.96583e-09)
(4.14553e-09 -1.22032e-09 -1.88034e-09)
(4.98012e-09 -1.17753e-09 -1.69382e-09)
(5.99175e-09 -1.05798e-09 -1.41059e-09)
(6.87447e-09 -9.51236e-10 -1.27442e-09)
(7.76677e-09 -8.31962e-10 -1.34238e-09)
)
;
    }
    procBoundary2to3
    {
        type            processor;
        value           nonuniform List<vector> 
12
(
(-9.66224e-10 -3.35638e-09 -5.9048e-09)
(6.88078e-09 -1.02409e-09 -3.84132e-09)
(1.02112e-08 4.51308e-10 -2.45038e-09)
(1.01685e-08 4.13534e-10 -1.82993e-09)
(6.17396e-09 -1.71094e-09 -4.21849e-09)
(9.78207e-09 -6.00864e-10 -3.0051e-09)
(1.13566e-08 2.12249e-10 -2.15463e-09)
(1.08585e-08 3.04085e-10 -1.71874e-09)
(8.26764e-09 -1.09366e-09 -3.217e-09)
(1.03143e-08 -2.70384e-10 -2.50429e-09)
(1.09455e-08 -1.06297e-10 -1.86287e-09)
(1.04972e-08 -2.28207e-11 -1.55537e-09)
)
;
    }
    procBoundary2to6
    {
        type            processor;
        value           nonuniform List<vector> 
32
(
(9.27867e-09 -4.02788e-10 -1.38923e-09)
(7.86952e-09 -5.07391e-10 -9.46571e-10)
(9.01591e-09 -2.993e-10 -1.10678e-09)
(6.01179e-09 -6.84922e-10 -9.89635e-10)
(7.04604e-09 -4.76761e-10 -8.53359e-10)
(7.85733e-09 -2.90656e-10 -9.76101e-10)
(1.68211e-09 -7.21702e-10 -1.37618e-09)
(2.23023e-09 -8.52709e-10 -1.53619e-09)
(2.849e-09 -9.82905e-10 -1.63956e-09)
(3.59357e-09 -1.00523e-09 -1.57979e-09)
(4.36402e-09 -9.24245e-10 -1.42746e-09)
(5.41442e-09 -7.45535e-10 -1.2091e-09)
(6.32812e-09 -6.05071e-10 -1.01063e-09)
(9.27867e-09 -4.02788e-10 -1.38923e-09)
(7.86952e-09 -5.07391e-10 -9.46571e-10)
(7.39311e-09 -3.54319e-10 -9.26509e-10)
(1.69919e-09 -7.38732e-10 -1.35294e-09)
(2.24345e-09 -8.47212e-10 -1.50117e-09)
(2.7248e-09 -9.62556e-10 -1.58136e-09)
(3.39597e-09 -9.71384e-10 -1.51397e-09)
(4.04424e-09 -9.1624e-10 -1.35022e-09)
(4.94346e-09 -7.70394e-10 -1.16106e-09)
(7.86952e-09 -5.07391e-10 -9.46571e-10)
(6.01179e-09 -6.84922e-10 -9.89635e-10)
(5.80937e-09 -6.40451e-10 -9.51497e-10)
(1.56967e-09 -7.06928e-10 -1.2485e-09)
(2.28627e-09 -7.22283e-10 -1.40714e-09)
(2.61358e-09 -8.26069e-10 -1.45293e-09)
(3.20073e-09 -8.65125e-10 -1.36702e-09)
(3.75238e-09 -8.19277e-10 -1.23114e-09)
(6.01179e-09 -6.84922e-10 -9.89635e-10)
(4.48659e-09 -7.01658e-10 -1.05887e-09)
)
;
    }
}


// ************************************************************************* //
