/*--------------------------------*- C++ -*----------------------------------*\
| =========                 |                                                 |
| \\      /  F ield         | OpenFOAM: The Open Source CFD Toolbox           |
|  \\    /   O peration     | Version:  4.x                                   |
|   \\  /    A nd           | Web:      www.OpenFOAM.org                      |
|    \\/     M anipulation  |                                                 |
\*---------------------------------------------------------------------------*/
FoamFile
{
    version     2.0;
    format      ascii;
    class       volScalarField;
    location    "57";
    object      Ksl;
}
// * * * * * * * * * * * * * * * * * * * * * * * * * * * * * * * * * * * * * //

dimensions      [1 -3 -1 0 0 0 0];

internalField   nonuniform List<scalar> 
87
(
3799.21
12060.4
3476.93
3218.53
6567.78
3123.35
3575.59
12721.4
3866.64
29031.4
4009.78
203142
4059.11
1e+10
4055.82
3484.57
10815
3685.68
15990.9
3790.44
27675.9
3827.5
78223.7
3819.31
3369.64
8186.05
3396.35
8082.04
3438.08
8609.76
3444.91
9620.85
3478.76
3519.32
10624.6
3709.44
15003.7
3762.42
23066.2
3798.16
43967.7
3771.67
3443.47
9066.02
3563.62
9958.82
3589.06
10951.4
3606.08
12534.5
3548.08
3362.19
7528.36
3301.16
6915.18
3264.84
6605.81
3221.26
6447
3157.25
3429.31
8093.19
3461.3
8084.61
3423.46
8129.59
3422.12
8566.97
3355.71
3370.72
7559.73
3343.5
7043.69
3289.86
6743.03
3255.64
6649.48
3176.51
3316.99
6978.24
3200.11
6029
3070.54
5505.1
3022.37
5266.88
2974.25
)
;

boundaryField
{
    inlet
    {
        type            zeroGradient;
    }
    outlet
    {
        type            zeroGradient;
    }
    wall
    {
        type            zeroGradient;
    }
    procBoundary6to0
    {
        type            processor;
        value           uniform 3711.75;
    }
    procBoundary6to2
    {
        type            processor;
        value           nonuniform List<scalar> 
32
(
3951.48
35642.1
3759.19
3331.16
7300.79
3271.81
3508.57
11532.5
3758.74
17727
3832.76
29706.9
3839.47
70810.8
70810.8
70810.8
3466.55
9622.98
3631.84
10964.2
3642.7
11836.4
3578.34
3578.34
3578.34
3361.36
7936.93
3387.89
7436.12
3327.2
6949.68
6949.68
)
;
    }
    procBoundary6to4
    {
        type            processor;
        value           nonuniform List<scalar> 
27
(
3491.63
11007
3772.62
17265
3849.13
33752.6
3872.67
128603
3837.92
3499.15
10482.1
3707.61
14920.6
3779.5
22206.2
3750.72
34145.6
3650.62
3468.47
8461.55
3494.45
8567.96
3455.5
8172.87
3320.2
7480.43
3192.48
)
;
    }
    procBoundary6to7
    {
        type            processor;
        value           nonuniform List<scalar> 
12
(
521577
11468.8
6441.16
1e+10
9.95194e+09
12982.4
256425
14067.5
6324.95
9190.6
6631.44
5183.42
)
;
    }
}


// ************************************************************************* //
