/*--------------------------------*- C++ -*----------------------------------*\
| =========                 |                                                 |
| \\      /  F ield         | OpenFOAM: The Open Source CFD Toolbox           |
|  \\    /   O peration     | Version:  4.x                                   |
|   \\  /    A nd           | Web:      www.OpenFOAM.org                      |
|    \\/     M anipulation  |                                                 |
\*---------------------------------------------------------------------------*/
FoamFile
{
    version     2.0;
    format      ascii;
    class       volScalarField;
    location    "57";
    object      SPartFluid;
}
// * * * * * * * * * * * * * * * * * * * * * * * * * * * * * * * * * * * * * //

dimensions      [1 -3 -1 0 0 0 0];

internalField   nonuniform List<scalar> 
87
(
6.74258e-65
6.04508e-65
7.13009e-65
5.11506e-65
5.81257e-65
4.96006e-65
1.03851e-64
7.5951e-65
4.96006e-65
7.44009e-65
9.37761e-65
6.12257e-65
7.36259e-65
6.51008e-65
8.52511e-65
5.81258e-65
7.9051e-65
6.43258e-65
8.83511e-65
7.05259e-65
7.8276e-65
7.05259e-65
8.60261e-65
7.5951e-65
4.96007e-65
7.20759e-65
5.42507e-65
6.12258e-65
7.5951e-65
8.75761e-65
6.51008e-65
6.66509e-65
7.5176e-65
7.6726e-65
7.6726e-65
7.7501e-65
7.6726e-65
5.34757e-65
7.05259e-65
6.27758e-65
5.89008e-65
7.9051e-65
5.65758e-65
7.2851e-65
6.82009e-65
6.89759e-65
5.96758e-65
5.58007e-65
7.7501e-65
5.73507e-65
7.7501e-65
5.19257e-65
6.74259e-65
5.58007e-65
7.5951e-65
7.28509e-65
5.96758e-65
6.66509e-65
5.96758e-65
5.65758e-65
5.03757e-65
5.27007e-65
6.12258e-65
6.89759e-65
6.51008e-65
6.43258e-65
8.68011e-65
8.75761e-65
3.79755e-65
6.04508e-65
5.50257e-65
6.82009e-65
5.65757e-65
8.60261e-65
6.35508e-65
6.20008e-65
5.58007e-65
7.82761e-65
4.41756e-65
6.27758e-65
6.12258e-65
6.43258e-65
4.96007e-65
8.21511e-65
4.80506e-65
5.19257e-65
6.04508e-65
)
;

boundaryField
{
    inlet
    {
        type            calculated;
        value           uniform 0;
    }
    outlet
    {
        type            calculated;
        value           nonuniform 0();
    }
    wall
    {
        type            calculated;
        value           uniform 0;
    }
    procBoundary6to0
    {
        type            processor;
        value           uniform 2.32503e-65;
    }
    procBoundary6to2
    {
        type            processor;
        value           nonuniform List<scalar> 
32
(
4.88255e-65
7.44009e-65
8.3701e-65
8.2926e-65
4.96006e-65
6.66508e-65
4.80506e-65
8.1376e-65
8.3701e-65
6.51008e-65
6.82008e-65
5.89007e-65
6.27757e-65
7.75009e-65
7.75009e-65
7.75009e-65
6.89759e-65
6.89759e-65
8.37011e-65
5.81257e-65
7.20759e-65
6.89758e-65
8.3701e-65
8.3701e-65
8.3701e-65
5.27007e-65
6.51009e-65
6.27758e-65
7.13009e-65
5.50257e-65
6.35508e-65
6.35508e-65
)
;
    }
    procBoundary6to4
    {
        type            processor;
        value           nonuniform List<scalar> 
27
(
4.34006e-65
5.73507e-65
7.5951e-65
5.19256e-65
7.36259e-65
6.35507e-65
9.22261e-65
5.96757e-65
5.96757e-65
6.66509e-65
7.20759e-65
5.96758e-65
8.52511e-65
8.4476e-65
6.74258e-65
9.61012e-65
7.9051e-65
6.82009e-65
7.4401e-65
7.05259e-65
5.81258e-65
7.6726e-65
6.97509e-65
9.22262e-65
4.49506e-65
4.88256e-65
6.35508e-65
)
;
    }
    procBoundary6to7
    {
        type            processor;
        value           nonuniform List<scalar> 
12
(
7.6726e-65
4.80506e-65
6.51009e-65
3.95255e-65
5.50257e-65
6.74259e-65
8.06011e-65
7.0526e-65
5.58008e-65
6.89759e-65
5.96758e-65
6.04508e-65
)
;
    }
}


// ************************************************************************* //
