/*--------------------------------*- C++ -*----------------------------------*\
| =========                 |                                                 |
| \\      /  F ield         | OpenFOAM: The Open Source CFD Toolbox           |
|  \\    /   O peration     | Version:  4.x                                   |
|   \\  /    A nd           | Web:      www.OpenFOAM.org                      |
|    \\/     M anipulation  |                                                 |
\*---------------------------------------------------------------------------*/
FoamFile
{
    version     2.0;
    format      ascii;
    class       volScalarField;
    location    "43";
    object      Deff;
}
// * * * * * * * * * * * * * * * * * * * * * * * * * * * * * * * * * * * * * //

dimensions      [0 2 -1 0 0 0 0];

internalField   nonuniform List<scalar> 
87
(
9.80683e-08
9.81373e-08
9.80932e-08
9.82767e-08
9.82779e-08
9.82519e-08
9.8236e-08
9.8247e-08
9.82483e-08
9.80555e-08
9.7926e-08
9.79979e-08
9.79261e-08
9.79492e-08
9.7867e-08
9.84937e-08
9.83039e-08
9.82487e-08
9.80506e-08
9.80219e-08
9.79702e-08
9.79638e-08
9.79209e-08
9.79156e-08
9.86751e-08
9.84328e-08
9.83877e-08
9.82095e-08
9.80638e-08
9.79705e-08
9.80692e-08
9.80687e-08
9.80046e-08
9.83098e-08
9.82272e-08
9.81291e-08
9.80017e-08
9.80147e-08
9.79395e-08
9.79081e-08
9.7933e-08
9.78455e-08
9.85116e-08
9.83259e-08
9.82209e-08
9.80881e-08
9.80558e-08
9.80363e-08
9.7952e-08
9.80094e-08
9.78926e-08
9.86682e-08
9.84427e-08
9.83509e-08
9.8128e-08
9.80542e-08
9.80545e-08
9.80657e-08
9.81073e-08
9.80629e-08
9.84972e-08
9.83958e-08
9.8227e-08
9.80519e-08
9.79771e-08
9.7918e-08
9.78335e-08
9.78607e-08
9.80316e-08
9.85758e-08
9.84624e-08
9.82684e-08
9.81594e-08
9.7967e-08
9.79984e-08
9.80201e-08
9.80515e-08
9.79367e-08
9.87503e-08
9.85121e-08
9.8356e-08
9.82055e-08
9.81546e-08
9.79941e-08
9.81753e-08
9.8187e-08
9.80792e-08
)
;

boundaryField
{
    inlet
    {
        type            calculated;
        value           uniform 0;
    }
    outlet
    {
        type            calculated;
        value           nonuniform 0();
    }
    wall
    {
        type            calculated;
        value           uniform 0;
    }
    procBoundary6to0
    {
        type            processor;
        value           uniform 0;
    }
    procBoundary6to2
    {
        type            processor;
        value           uniform 0;
    }
    procBoundary6to4
    {
        type            processor;
        value           uniform 0;
    }
    procBoundary6to7
    {
        type            processor;
        value           uniform 0;
    }
}


// ************************************************************************* //
