/*--------------------------------*- C++ -*----------------------------------*\
| =========                 |                                                 |
| \\      /  F ield         | OpenFOAM: The Open Source CFD Toolbox           |
|  \\    /   O peration     | Version:  4.x                                   |
|   \\  /    A nd           | Web:      www.OpenFOAM.org                      |
|    \\/     M anipulation  |                                                 |
\*---------------------------------------------------------------------------*/
FoamFile
{
    version     2.0;
    format      ascii;
    class       volVectorField;
    location    "43";
    object      GField;
}
// * * * * * * * * * * * * * * * * * * * * * * * * * * * * * * * * * * * * * //

dimensions      [1 -2 -1 0 0 0 0];

internalField   nonuniform List<vector> 
87
(
(87.4787 1.61361 0.0264141)
(24.2962 1.6313 -1.65104)
(95.1592 2.61661 -1.15006)
(102.838 1.108 -2.55391)
(49.0745 -0.398205 -2.96011)
(105.291 -0.142491 -2.44932)
(92.0857 1.11363 -1.74728)
(26.638 0.69703 -0.548942)
(87.2633 1.29709 -1.16548)
(12.4635 0.283257 -0.393344)
(83.7572 0.617654 -0.616503)
(2.62739 0.0664448 -0.100598)
(82.3567 -0.415553 -0.28381)
(3.85249e-05 2.10225e-07 -5.82653e-07)
(81.7454 -1.38722 -0.335882)
(94.2492 5.17433 -1.58988)
(30.7103 1.85153 -0.907051)
(90.8628 4.83207 -1.44487)
(21.3515 1.35642 -0.986433)
(88.3402 2.96429 -1.2827)
(12.9964 0.862773 -0.804768)
(86.8849 1.01785 -1.41422)
(5.19949 0.426479 -0.482013)
(86.1439 -0.717881 -1.23966)
(96.147 3.01543 -1.72575)
(39.9266 1.41513 -1.16191)
(96.7059 3.17999 -1.76425)
(41.1705 1.04796 -1.78926)
(96.2548 2.27802 -1.7623)
(39.762 0.719778 -1.86051)
(96.2979 1.97475 -1.60347)
(37.6542 0.378657 -2.17373)
(95.6323 0.296654 -1.34722)
(93.0468 2.28419 2.85428)
(30.9041 0.955374 0.880089)
(89.9687 2.52179 2.87356)
(21.7795 0.662525 0.873796)
(88.2344 1.70797 2.16898)
(13.9988 0.151672 0.582609)
(87.1 0.722024 0.560859)
(7.05423 -0.0552756 0.554392)
(86.5593 0.20516 -0.0276985)
(94.5346 5.02295 2.3512)
(35.8699 2.16799 0.909387)
(93.0505 4.95613 2.76879)
(32.4526 1.52522 0.617427)
(92.2095 3.97815 2.51097)
(29.022 1.37372 0.484191)
(91.3356 3.16298 2.17756)
(24.3573 1.016 0.288451)
(91.585 2.19838 1.23845)
(95.95 2.59453 1.48116)
(42.5255 1.32677 0.494964)
(98.3579 2.44843 1.6453)
(46.4204 0.982195 0.582635)
(99.5721 1.79933 1.65292)
(48.6304 0.936338 0.278974)
(101.244 1.51924 1.22016)
(49.6727 0.63679 0.0840347)
(102.819 0.881978 1.1002)
(94.6314 2.24115 2.37513)
(40.0899 0.767507 1.01442)
(94.9751 1.71798 2.40137)
(40.1744 0.469253 0.695881)
(95.1998 0.707728 2.22488)
(39.9992 -0.166678 0.656104)
(95.4752 -0.467537 2.08866)
(38.256 -0.663259 0.894059)
(97.21 -0.718226 1.91935)
(95.2453 3.79734 1.6008)
(42.5694 1.82093 0.73777)
(97.1234 3.7492 1.48388)
(45.8449 1.64393 0.402817)
(98.4542 2.71562 1.14217)
(47.7153 1.34692 0.513155)
(100.017 2.04327 1.20763)
(48.267 0.362977 0.151949)
(101.319 0.637677 0.734062)
(96.3917 2.07271 1.09333)
(45.6304 0.969754 0.343697)
(100.388 1.94225 0.976035)
(53.0764 0.954789 0.307565)
(104.589 1.42822 0.731799)
(58.4429 0.421413 -0.0665754)
(107.671 0.971856 0.621331)
(61.8233 0.0075024 -0.55389)
(109.099 0.106172 -0.0839324)
)
;

boundaryField
{
    inlet
    {
        type            calculated;
        value           uniform (67 0 0);
    }
    outlet
    {
        type            calculated;
        value           nonuniform 0();
    }
    wall
    {
        type            calculated;
        value           uniform (0 0 0);
    }
    procBoundary6to0
    {
        type            processor;
        value           uniform (87.8704 -0.309736 -0.547391);
    }
    procBoundary6to2
    {
        type            processor;
        value           nonuniform List<vector> 
32
(
(87.031 -1.26542 -0.0763576)
(12.7057 0.625066 -0.722899)
(91.3466 0.658383 -0.669121)
(102.47 1.90766 -2.78805)
(47.6461 0.351341 -2.51212)
(104.334 0.846853 -1.84691)
(94.8291 1.94853 -5.64342)
(28.8665 1.04741 -2.28265)
(90.5037 2.74682 -4.56983)
(18.6666 0.735943 -1.55661)
(88.4886 2.21242 -2.58531)
(10.7219 0.510005 -0.793502)
(87.6003 1.55674 -0.296441)
(3.85888 0.247325 -0.398073)
(3.85888 0.247325 -0.398073)
(3.85888 0.247325 -0.398073)
(94.8361 4.89779 -4.83877)
(33.7633 2.3417 -2.34256)
(92.9865 5.27334 -4.29167)
(29.1423 1.80109 -2.05707)
(92.5034 4.63428 -3.38435)
(25.8905 1.59037 -1.56443)
(93.1572 3.86117 -2.04927)
(93.1572 3.86117 -2.04927)
(93.1572 3.86117 -2.04927)
(96.4468 2.70327 -4.37477)
(40.7674 1.28609 -2.68259)
(98.2958 2.59193 -4.41943)
(43.9246 0.948481 -3.11838)
(100.383 1.93544 -4.01624)
(46.7714 0.551185 -2.44616)
(46.7714 0.551185 -2.44616)
)
;
    }
    procBoundary6to4
    {
        type            processor;
        value           nonuniform List<vector> 
27
(
(94.4209 -1.82503 -1.98554)
(29.6461 -0.446332 -0.732854)
(89.0711 -1.62366 -1.15615)
(17.49 -0.641662 -0.663645)
(86.2341 -1.39699 -0.690895)
(6.96363 -0.348202 -0.179752)
(84.7163 0.122208 -0.504163)
(0.00190511 -0.000145247 -3.86387e-05)
(83.9261 0.0650753 0.199638)
(93.6648 -0.981287 1.23957)
(31.3685 0.073907 1.01128)
(90.1314 -0.182407 2.42568)
(22.0235 -0.0214976 0.659006)
(87.7869 -0.1479 2.51215)
(14.8172 -0.23939 0.695323)
(87.2366 -0.209877 2.27343)
(9.54131 -0.203007 0.465242)
(88.1121 -0.191656 0.413782)
(93.4145 -0.491652 1.63369)
(38.104 -0.208019 1.09325)
(93.8824 -0.774567 2.38073)
(37.6434 -0.527821 1.0111)
(94.6553 -0.848409 2.30444)
(38.9745 -0.785812 1.06363)
(97.1369 -1.03146 2.50763)
(42.1057 -0.85307 0.664824)
(99.7544 -1.17663 1.60869)
)
;
    }
    procBoundary6to7
    {
        type            processor;
        value           nonuniform List<vector> 
12
(
(4.4654e-05 1.88577e-06 -1.01447e-06)
(24.8083 2.18367 -2.17394)
(49.2364 -1.44119 -3.7845)
(4.07938e-05 -2.00636e-07 -8.48403e-08)
(4.06238e-05 1.80936e-06 -3.41391e-06)
(32.0737 -0.0310114 -2.41487)
(0.851702 0.00690618 0.0970024)
(20.0749 0.912603 0.379058)
(49.7235 -0.00540015 0.21835)
(36.63 -0.813367 0.664209)
(47.6797 0.195794 -0.36428)
(61.8234 -0.70552 -1.13215)
)
;
    }
}


// ************************************************************************* //
