/*--------------------------------*- C++ -*----------------------------------*\
| =========                 |                                                 |
| \\      /  F ield         | OpenFOAM: The Open Source CFD Toolbox           |
|  \\    /   O peration     | Version:  4.x                                   |
|   \\  /    A nd           | Web:      www.OpenFOAM.org                      |
|    \\/     M anipulation  |                                                 |
\*---------------------------------------------------------------------------*/
FoamFile
{
    version     2.0;
    format      ascii;
    class       volScalarField;
    location    "43";
    object      QPartFluid;
}
// * * * * * * * * * * * * * * * * * * * * * * * * * * * * * * * * * * * * * //

dimensions      [1 -1 -3 0 0 0 0];

internalField   nonuniform List<scalar> 
87
(
8.10438e+09
6.78404e+09
8.96095e+09
5.6999e+09
6.22713e+09
5.62197e+09
9.95324e+09
8.9545e+09
6.08555e+09
7.99929e+09
1.10675e+10
6.09609e+09
8.70176e+09
6.66158e+09
9.95893e+09
6.3037e+09
9.21844e+09
8.17943e+09
1.02235e+10
8.85586e+09
8.74171e+09
8.75407e+09
9.22294e+09
9.39062e+09
4.67895e+09
7.58506e+09
5.96194e+09
6.14868e+09
8.71067e+09
9.47676e+09
7.35438e+09
6.32667e+09
8.77076e+09
7.35034e+09
9.0016e+09
9.66033e+09
8.63547e+09
6.67197e+09
7.89058e+09
7.93538e+09
6.10906e+09
9.57077e+09
5.37436e+09
8.87273e+09
8.84677e+09
8.03576e+09
7.9471e+09
6.55853e+09
1.00223e+10
6.5848e+09
9.97736e+09
4.81096e+09
6.67854e+09
6.18037e+09
7.84278e+09
8.21916e+09
6.17889e+09
7.63108e+09
6.44155e+09
6.87893e+09
4.91315e+09
5.41002e+09
7.43633e+09
7.03367e+09
7.17592e+09
6.52113e+09
1.03132e+10
8.72952e+09
4.54668e+09
5.19824e+09
5.83234e+09
7.62881e+09
6.18711e+09
9.67402e+09
6.71591e+09
7.20894e+09
6.10047e+09
8.48014e+09
4.24812e+09
6.13585e+09
6.76618e+09
6.33684e+09
5.24252e+09
8.48763e+09
5.61453e+09
5.64586e+09
7.19012e+09
)
;

boundaryField
{
    inlet
    {
        type            calculated;
        value           uniform 0;
    }
    outlet
    {
        type            calculated;
        value           nonuniform 0();
    }
    wall
    {
        type            calculated;
        value           uniform 0;
    }
    procBoundary6to0
    {
        type            processor;
        value           uniform 2.61219e+09;
    }
    procBoundary6to2
    {
        type            processor;
        value           nonuniform List<scalar> 
32
(
5.74257e+09
8.49567e+09
1.02412e+10
9.70271e+09
5.3595e+09
7.74633e+09
4.89897e+09
9.48323e+09
1.03002e+10
7.15367e+09
8.23923e+09
6.26923e+09
7.58437e+09
7.47597e+09
7.47597e+09
7.47597e+09
5.87271e+09
7.90834e+09
1.05279e+10
6.61155e+09
9.12335e+09
7.69882e+09
1.03136e+10
1.03136e+10
1.03136e+10
4.25946e+09
6.30275e+09
7.51346e+09
7.24863e+09
6.75387e+09
6.49435e+09
6.49435e+09
)
;
    }
    procBoundary6to4
    {
        type            processor;
        value           nonuniform List<scalar> 
27
(
3.45733e+09
6.72971e+09
9.3945e+09
5.69892e+09
8.79249e+09
6.65248e+09
1.10154e+10
5.97644e+09
7.0493e+09
6.20477e+09
8.58336e+09
7.54298e+09
9.64938e+09
1.05214e+10
7.61053e+09
1.1835e+10
8.47901e+09
8.13703e+09
7.25333e+09
7.01105e+09
6.70039e+09
7.97508e+09
8.44029e+09
9.5349e+09
4.97074e+09
5.17659e+09
7.08968e+09
)
;
    }
    procBoundary6to7
    {
        type            processor;
        value           nonuniform List<scalar> 
12
(
7.46622e+09
5.30796e+09
7.07384e+09
3.84644e+09
6.00681e+09
6.70365e+09
8.56406e+09
8.18473e+09
6.03105e+09
7.33063e+09
6.33726e+09
6.09333e+09
)
;
    }
}


// ************************************************************************* //
