/*--------------------------------*- C++ -*----------------------------------*\
| =========                 |                                                 |
| \\      /  F ield         | OpenFOAM: The Open Source CFD Toolbox           |
|  \\    /   O peration     | Version:  4.x                                   |
|   \\  /    A nd           | Web:      www.OpenFOAM.org                      |
|    \\/     M anipulation  |                                                 |
\*---------------------------------------------------------------------------*/
FoamFile
{
    version     2.0;
    format      ascii;
    class       volVectorField;
    location    "43";
    object      UsNext;
}
// * * * * * * * * * * * * * * * * * * * * * * * * * * * * * * * * * * * * * //

dimensions      [0 1 -1 0 0 0 0];

internalField   nonuniform List<vector> 
87
(
(3.62069e-09 7.90977e-11 6.84599e-10)
(2.45391e-09 -1.78729e-10 5.78109e-10)
(3.08633e-09 -5.99618e-10 5.68677e-10)
(5.00425e-10 -1.0651e-10 1.74294e-10)
(1.06579e-09 -1.40164e-10 4.67267e-10)
(1.0281e-09 -3.25388e-10 2.67387e-10)
(1.30956e-10 -5.20597e-11 1.47749e-10)
(3.25378e-10 -1.43287e-10 2.66454e-10)
(4.29901e-10 -1.32398e-10 3.21418e-10)
(7.23557e-10 -1.15616e-11 4.27803e-10)
(1.2927e-09 -2.75694e-11 6.05694e-10)
(1.79497e-09 1.41959e-11 2.31118e-10)
(2.08725e-09 1.11178e-10 4.40059e-10)
(2.50607e-09 -1.55709e-10 2.27008e-10)
(3.13943e-09 -1.47976e-10 5.54926e-10)
(3.3936e-11 2.53407e-11 -1.80584e-11)
(1.18842e-10 -5.13111e-11 1.64013e-10)
(1.56035e-10 -5.62549e-11 1.84842e-10)
(4.36353e-10 -4.4209e-11 2.78983e-10)
(5.98886e-10 -2.62028e-10 3.43217e-10)
(9.81346e-10 -1.80594e-10 2.78292e-10)
(1.45271e-09 -3.13085e-10 1.4695e-10)
(1.95662e-09 -1.89569e-10 4.22542e-10)
(2.48238e-09 -6.27441e-10 2.22835e-10)
(4.32324e-12 -3.02588e-11 8.42842e-11)
(2.21876e-10 1.41005e-11 1.15462e-10)
(1.30156e-11 -7.77587e-11 4.69028e-11)
(1.7977e-10 -1.17125e-10 1.1234e-10)
(1.70941e-10 -1.19586e-10 1.25066e-10)
(3.95273e-10 -1.60033e-10 9.92834e-11)
(3.07894e-10 -2.16093e-10 -5.45802e-11)
(-9.35073e-11 -4.4466e-10 -3.42138e-10)
(4.26154e-11 -6.21512e-10 -1.25023e-11)
(3.47963e-11 -3.13102e-11 8.82373e-11)
(2.89697e-10 -7.93638e-11 2.16389e-10)
(3.92895e-10 -8.73831e-11 1.54459e-10)
(4.90904e-10 -7.02695e-11 2.38873e-10)
(6.74527e-10 -4.39552e-11 3.10826e-10)
(1.27196e-09 -1.12342e-10 3.46865e-10)
(1.63365e-09 1.13448e-10 4.49511e-10)
(2.13654e-09 6.64616e-11 3.3166e-10)
(2.46171e-09 7.12053e-11 3.01263e-10)
(3.08155e-11 -3.75119e-11 -4.8634e-12)
(1.97711e-10 -8.1395e-11 1.28755e-10)
(2.37743e-10 -9.99346e-11 2.17925e-10)
(3.66295e-10 -5.29116e-11 2.45441e-10)
(4.56022e-10 -1.3467e-10 2.13331e-10)
(8.92586e-10 -1.74063e-10 1.14811e-10)
(1.17816e-09 -9.06874e-11 3.08536e-10)
(2.17281e-09 -9.33799e-10 5.47352e-10)
(2.59894e-09 6.84106e-12 -9.06907e-11)
(-1.89401e-10 1.00773e-11 1.66045e-10)
(5.08393e-10 2.18677e-10 2.33944e-10)
(1.25179e-10 -2.11262e-10 3.58343e-10)
(1.63514e-10 -1.58094e-11 1.34801e-10)
(1.53731e-10 -9.20024e-11 1.22082e-10)
(2.66388e-10 -1.40324e-10 5.63088e-11)
(3.79191e-10 -1.68147e-10 9.38191e-11)
(5.34973e-10 -2.04818e-10 3.24472e-10)
(7.61167e-10 4.98308e-11 -2.24777e-10)
(5.89423e-11 -2.68465e-11 2.24634e-11)
(1.30484e-10 -2.88611e-11 4.92124e-11)
(2.36822e-10 4.79877e-13 3.76662e-11)
(3.82416e-10 -3.38333e-11 4.15849e-11)
(5.00329e-10 -7.78447e-11 3.84653e-11)
(8.0223e-10 -6.54849e-11 6.49483e-11)
(1.12655e-09 8.10682e-11 1.99329e-10)
(1.62023e-09 1.7065e-10 9.14137e-11)
(1.99274e-09 2.89541e-10 3.39025e-10)
(-1.62504e-10 -1.25809e-10 -2.05552e-11)
(1.12802e-10 -3.31335e-11 2.89981e-11)
(7.89807e-11 -5.12889e-11 4.08606e-11)
(2.94932e-10 -4.87208e-11 2.17554e-11)
(3.81204e-10 -1.02076e-10 2.76073e-12)
(5.78624e-10 -1.21923e-10 -1.79866e-11)
(6.02972e-10 -2.75915e-10 2.11921e-10)
(2.2639e-09 -1.18233e-09 -9.57598e-11)
(1.5994e-09 3.38411e-10 -1.94935e-10)
(-9.24502e-10 -2.55379e-10 -3.3433e-11)
(2.38798e-11 -2.52066e-11 1.80771e-11)
(6.02446e-11 -1.15077e-10 1.39201e-10)
(9.93412e-11 -3.11596e-11 -3.45127e-11)
(1.14201e-10 -2.4828e-11 2.39271e-11)
(2.6638e-10 -7.86905e-11 -2.23756e-11)
(2.90986e-10 -6.63402e-11 2.05115e-11)
(3.33871e-10 -7.86166e-11 1.14991e-10)
(6.98095e-10 9.30122e-11 -2.68603e-10)
)
;

boundaryField
{
    inlet
    {
        type            calculated;
        value           nonuniform List<vector> 9((1.30956e-10 -5.20597e-11 1.47749e-10) (3.3936e-11 2.53407e-11 -1.80584e-11) (4.32324e-12 -3.02588e-11 8.42842e-11) (3.47963e-11 -3.13102e-11 8.82373e-11) (3.08155e-11 -3.75119e-11 -4.8634e-12) (-1.89401e-10 1.00773e-11 1.66045e-10) (5.89423e-11 -2.68465e-11 2.24634e-11) (-1.62504e-10 -1.25809e-10 -2.05552e-11) (-9.24502e-10 -2.55379e-10 -3.3433e-11));
    }
    outlet
    {
        type            calculated;
        value           nonuniform 0();
    }
    wall
    {
        type            calculated;
        value           nonuniform List<vector> 
57
(
(5.89423e-11 -2.68465e-11 2.24634e-11)
(-1.62504e-10 -1.25809e-10 -2.05552e-11)
(-9.24502e-10 -2.55379e-10 -3.3433e-11)
(1.30484e-10 -2.88611e-11 4.92124e-11)
(1.12802e-10 -3.31335e-11 2.89981e-11)
(2.38798e-11 -2.52066e-11 1.80771e-11)
(2.36822e-10 4.79877e-13 3.76662e-11)
(7.89807e-11 -5.12889e-11 4.08606e-11)
(6.02446e-11 -1.15077e-10 1.39201e-10)
(3.82416e-10 -3.38333e-11 4.15849e-11)
(2.94932e-10 -4.87208e-11 2.17554e-11)
(9.93412e-11 -3.11596e-11 -3.45127e-11)
(5.00329e-10 -7.78447e-11 3.84653e-11)
(3.81204e-10 -1.02076e-10 2.76073e-12)
(1.14201e-10 -2.4828e-11 2.39271e-11)
(8.0223e-10 -6.54849e-11 6.49483e-11)
(5.78624e-10 -1.21923e-10 -1.79866e-11)
(2.6638e-10 -7.86905e-11 -2.23756e-11)
(1.12655e-09 8.10682e-11 1.99329e-10)
(6.02972e-10 -2.75915e-10 2.11921e-10)
(2.90986e-10 -6.63402e-11 2.05115e-11)
(1.62023e-09 1.7065e-10 9.14137e-11)
(2.2639e-09 -1.18233e-09 -9.57598e-11)
(3.33871e-10 -7.86166e-11 1.14991e-10)
(1.99274e-09 2.89541e-10 3.39025e-10)
(1.5994e-09 3.38411e-10 -1.94935e-10)
(6.98095e-10 9.30122e-11 -2.68603e-10)
(4.32324e-12 -3.02588e-11 8.42842e-11)
(-1.89401e-10 1.00773e-11 1.66045e-10)
(-9.24502e-10 -2.55379e-10 -3.3433e-11)
(2.21876e-10 1.41005e-11 1.15462e-10)
(5.08393e-10 2.18677e-10 2.33944e-10)
(2.38798e-11 -2.52066e-11 1.80771e-11)
(1.30156e-11 -7.77587e-11 4.69028e-11)
(1.25179e-10 -2.11262e-10 3.58343e-10)
(6.02446e-11 -1.15077e-10 1.39201e-10)
(1.7977e-10 -1.17125e-10 1.1234e-10)
(1.63514e-10 -1.58094e-11 1.34801e-10)
(9.93412e-11 -3.11596e-11 -3.45127e-11)
(1.70941e-10 -1.19586e-10 1.25066e-10)
(1.53731e-10 -9.20024e-11 1.22082e-10)
(1.14201e-10 -2.4828e-11 2.39271e-11)
(3.95273e-10 -1.60033e-10 9.92834e-11)
(2.66388e-10 -1.40324e-10 5.63088e-11)
(2.6638e-10 -7.86905e-11 -2.23756e-11)
(5.00425e-10 -1.0651e-10 1.74294e-10)
(3.07894e-10 -2.16093e-10 -5.45802e-11)
(3.79191e-10 -1.68147e-10 9.38191e-11)
(2.90986e-10 -6.63402e-11 2.05115e-11)
(1.06579e-09 -1.40164e-10 4.67267e-10)
(-9.35073e-11 -4.4466e-10 -3.42138e-10)
(5.34973e-10 -2.04818e-10 3.24472e-10)
(3.33871e-10 -7.86166e-11 1.14991e-10)
(1.0281e-09 -3.25388e-10 2.67387e-10)
(4.26154e-11 -6.21512e-10 -1.25023e-11)
(7.61167e-10 4.98308e-11 -2.24777e-10)
(6.98095e-10 9.30122e-11 -2.68603e-10)
)
;
    }
    procBoundary6to0
    {
        type            processor;
        value           uniform (3.73148e-09 -4.07739e-10 1.8564e-09);
    }
    procBoundary6to2
    {
        type            processor;
        value           nonuniform List<vector> 
32
(
(2.33276e-09 -7.11014e-10 1.08913e-09)
(1.38228e-09 -4.79642e-10 1.0321e-09)
(1.94494e-09 -7.85324e-10 6.97482e-10)
(4.254e-10 -2.75304e-10 3.6921e-10)
(5.77141e-10 -4.2632e-10 5.6335e-10)
(1.04642e-09 -3.8364e-10 5.20873e-10)
(1.13526e-10 2.31659e-11 1.81059e-10)
(4.11048e-10 -8.15324e-11 3.72191e-10)
(6.69317e-10 -1.98037e-10 6.34721e-10)
(9.20389e-10 -1.14006e-10 6.65738e-10)
(1.26567e-09 -9.39858e-12 9.37662e-10)
(1.92901e-09 -6.50118e-11 5.79232e-10)
(2.3852e-09 -4.30483e-11 8.64952e-10)
(3.10375e-09 -1.63019e-10 6.80688e-10)
(3.10375e-09 -1.63019e-10 6.80688e-10)
(3.10375e-09 -1.63019e-10 6.80688e-10)
(3.82026e-11 5.29664e-11 7.88487e-11)
(3.5062e-10 -9.83127e-11 3.38646e-10)
(4.09826e-10 -5.41313e-11 4.5778e-10)
(6.66146e-10 -7.78077e-11 5.18689e-10)
(8.76417e-10 -1.88644e-10 5.73099e-10)
(1.17025e-09 -1.34735e-10 5.53235e-10)
(1.42044e-09 -2.69109e-10 6.16007e-10)
(1.42044e-09 -2.69109e-10 6.16007e-10)
(1.42044e-09 -2.69109e-10 6.16007e-10)
(2.84091e-11 -9.10698e-11 1.08258e-10)
(1.09573e-10 -5.03253e-11 2.01676e-10)
(1.18403e-10 -2.22903e-11 3.12001e-10)
(1.86675e-10 -1.38604e-10 2.16291e-10)
(5.00488e-10 -1.74522e-10 3.13691e-10)
(5.04316e-10 -1.7617e-10 1.93908e-10)
(5.04316e-10 -1.7617e-10 1.93908e-10)
)
;
    }
    procBoundary6to4
    {
        type            processor;
        value           nonuniform List<vector> 
27
(
(1.12996e-10 6.41841e-11 1.55428e-10)
(3.87139e-10 1.80944e-11 1.89097e-10)
(6.80965e-10 1.1855e-12 1.04657e-10)
(9.43136e-10 1.35888e-10 6.88749e-11)
(1.5498e-09 2.82568e-10 5.09247e-10)
(2.0925e-09 4.13664e-10 6.6209e-10)
(2.32073e-09 3.91947e-10 6.56861e-10)
(2.74994e-09 2.46216e-10 1.79418e-10)
(3.18642e-09 1.57797e-10 5.18411e-10)
(5.64429e-11 3.82374e-11 5.88664e-11)
(2.31777e-10 2.09096e-11 7.74419e-11)
(4.20383e-10 2.11104e-11 8.80678e-11)
(5.06542e-10 1.58226e-11 1.51367e-10)
(6.80862e-10 3.86515e-11 2.37321e-10)
(1.27771e-09 2.71814e-10 2.99769e-10)
(1.56781e-09 5.2142e-10 4.16222e-10)
(1.81536e-09 2.77856e-10 4.00824e-10)
(2.00073e-09 1.68055e-10 5.82346e-10)
(3.53365e-11 -1.23202e-11 -7.17526e-12)
(1.1662e-10 2.5016e-11 -1.04571e-11)
(2.4329e-10 1.00063e-10 2.74784e-11)
(2.58107e-10 3.63617e-11 7.38265e-11)
(3.65933e-10 -2.65101e-11 4.59382e-11)
(5.46273e-10 3.97048e-11 1.43715e-11)
(7.1016e-10 2.98912e-10 1.61747e-10)
(3.94105e-09 -1.31325e-09 1.59293e-10)
(1.57543e-09 1.82964e-10 2.18755e-10)
)
;
    }
    procBoundary6to7
    {
        type            processor;
        value           nonuniform List<vector> 
12
(
(4.13704e-09 -9.14018e-10 9.6309e-10)
(3.46988e-09 -1.01782e-09 1.77428e-10)
(1.45944e-09 -9.90992e-10 -8.47858e-11)
(3.71407e-09 -5.62456e-10 3.75655e-10)
(2.94773e-09 -5.93043e-10 1.85605e-10)
(4.44627e-10 -7.71619e-10 -5.38839e-12)
(3.09862e-09 2.2375e-10 6.11464e-10)
(2.44024e-09 -2.72843e-11 4.52266e-10)
(1.18036e-09 -2.27038e-10 2.36524e-10)
(1.95727e-09 3.35702e-10 2.37103e-10)
(1.21845e-09 1.05153e-10 8.11674e-11)
(7.82344e-10 -3.13587e-10 -1.31596e-10)
)
;
    }
}


// ************************************************************************* //
