/*--------------------------------*- C++ -*----------------------------------*\
| =========                 |                                                 |
| \\      /  F ield         | OpenFOAM: The Open Source CFD Toolbox           |
|  \\    /   O peration     | Version:  4.x                                   |
|   \\  /    A nd           | Web:      www.OpenFOAM.org                      |
|    \\/     M anipulation  |                                                 |
\*---------------------------------------------------------------------------*/
FoamFile
{
    version     2.0;
    format      ascii;
    class       volVectorField;
    location    "47.5";
    object      impParticleForces;
}
// * * * * * * * * * * * * * * * * * * * * * * * * * * * * * * * * * * * * * //

dimensions      [1 1 -2 0 0 0 0];

internalField   nonuniform List<vector> 
114
(
(0.00240164 -7.84022e-07 -8.51308e-05)
(0.00243778 1.35846e-06 -7.95052e-05)
(0.00243566 4.58751e-06 -7.10505e-05)
(0.00247073 8.62805e-06 -6.36718e-05)
(0.00244794 1.43931e-05 -5.43024e-05)
(0.00246149 2.11213e-05 -4.6542e-05)
(0.00231032 5.60442e-06 -8.93828e-05)
(0.00233719 6.50342e-06 -9.03947e-05)
(0.00238093 7.6078e-06 -8.93423e-05)
(0.0023975 8.53202e-06 -8.44354e-05)
(0.00244177 9.71937e-06 -7.92964e-05)
(0.00243499 1.06909e-05 -7.07902e-05)
(0.00247024 1.24311e-05 -6.35153e-05)
(0.00245314 1.46044e-05 -5.44086e-05)
(0.00245515 1.75272e-05 -4.64978e-05)
(0.0022842 1.32788e-05 -8.68268e-05)
(0.00231639 1.42857e-05 -8.816e-05)
(0.00235962 1.53646e-05 -8.72253e-05)
(0.00237946 1.56717e-05 -8.25498e-05)
(0.00242472 1.64152e-05 -7.75037e-05)
(0.00242205 1.5812e-05 -6.96249e-05)
(0.00245928 1.63817e-05 -6.25277e-05)
(0.00245108 1.61712e-05 -5.40781e-05)
(0.00246796 1.67679e-05 -4.69905e-05)
(0.00224686 1.58281e-05 -8.38903e-05)
(0.00226784 1.66083e-05 -8.4357e-05)
(0.00232094 1.76519e-05 -8.38806e-05)
(0.00233291 1.7561e-05 -7.93205e-05)
(0.00236619 1.76147e-05 -7.42556e-05)
(0.00237298 1.68396e-05 -6.71628e-05)
(0.00239033 1.64321e-05 -6.01966e-05)
(0.00240847 1.56638e-05 -5.30241e-05)
(0.00242531 1.51342e-05 -4.62872e-05)
(0.00249981 3.47648e-06 -7.17665e-05)
(0.00253682 7.15729e-06 -6.42127e-05)
(0.00248155 1.243e-05 -5.36291e-05)
(0.00250417 1.82007e-05 -4.60094e-05)
(0.00233753 6.33866e-06 -8.87994e-05)
(0.00238467 7.31562e-06 -9.12373e-05)
(0.00244932 8.72856e-06 -9.1977e-05)
(0.00245856 9.49956e-06 -8.60122e-05)
(0.00249363 1.05539e-05 -8.0154e-05)
(0.0024756 1.08773e-05 -7.06779e-05)
(0.00252 1.23437e-05 -6.36696e-05)
(0.00248188 1.39243e-05 -5.39431e-05)
(0.00248212 1.62269e-05 -4.58374e-05)
(0.00232176 1.48253e-05 -8.72244e-05)
(0.00237459 1.64688e-05 -8.99857e-05)
(0.00244583 1.85514e-05 -9.11281e-05)
(0.00244733 1.78667e-05 -8.47429e-05)
(0.00247578 1.80127e-05 -7.86956e-05)
(0.00247156 1.70154e-05 -7.03532e-05)
(0.00250223 1.71076e-05 -6.32263e-05)
(0.00248233 1.62153e-05 -5.46081e-05)
(0.00249414 1.6232e-05 -4.71987e-05)
(0.00227293 1.71622e-05 -8.33441e-05)
(0.00231109 1.84135e-05 -8.48598e-05)
(0.00238321 2.01436e-05 -8.60577e-05)
(0.00237883 1.93874e-05 -8.0136e-05)
(0.00240252 1.89402e-05 -7.45203e-05)
(0.00241292 1.79189e-05 -6.75847e-05)
(0.00243418 1.72125e-05 -6.06193e-05)
(0.00243055 1.5803e-05 -5.32386e-05)
(0.00243398 1.47513e-05 -4.62869e-05)
(0.00245178 9.57874e-06 -4.84692e-05)
(0.00245837 1.40797e-05 -4.1286e-05)
(0.0023632 7.04144e-06 -8.28115e-05)
(0.00239344 7.89649e-06 -8.37696e-05)
(0.00244922 9.17141e-06 -8.37402e-05)
(0.00245244 9.58897e-06 -7.81642e-05)
(0.00247458 1.0074e-05 -7.20806e-05)
(0.00246048 1.02942e-05 -6.38101e-05)
(0.00248816 1.12369e-05 -5.68242e-05)
(0.0024507 1.23059e-05 -4.84882e-05)
(0.0024521 1.38722e-05 -4.14129e-05)
(0.00233246 1.56092e-05 -8.02923e-05)
(0.00237693 1.72058e-05 -8.22167e-05)
(0.0024501 1.95257e-05 -8.33045e-05)
(0.00245464 1.88458e-05 -7.81864e-05)
(0.0024731 1.85892e-05 -7.18227e-05)
(0.00245172 1.67698e-05 -6.35945e-05)
(0.00248925 1.65733e-05 -5.72313e-05)
(0.00245923 1.5153e-05 -4.96015e-05)
(0.002478 1.4529e-05 -4.3314e-05)
(0.00229196 1.8326e-05 -7.75713e-05)
(0.00233109 1.98818e-05 -7.90726e-05)
(0.0023885 2.13198e-05 -7.91767e-05)
(0.00239548 2.065e-05 -7.47775e-05)
(0.00239736 1.94345e-05 -6.82846e-05)
(0.0024108 1.82383e-05 -6.2122e-05)
(0.00244625 1.74458e-05 -5.62093e-05)
(0.00241678 1.52625e-05 -4.90695e-05)
(0.00243472 1.38363e-05 -4.32709e-05)
(0.00236694 7.72274e-06 -7.04503e-05)
(0.00241486 8.77557e-06 -7.1583e-05)
(0.00246607 1.01895e-05 -7.11872e-05)
(0.00244596 9.86066e-06 -6.55727e-05)
(0.00246508 1.02213e-05 -6.03831e-05)
(0.00243537 9.85487e-06 -5.33155e-05)
(0.00245457 1.0392e-05 -4.7197e-05)
(0.00241537 1.07085e-05 -4.07245e-05)
(0.00233937 1.65023e-05 -6.88048e-05)
(0.00238534 1.82678e-05 -7.02123e-05)
(0.0024533 2.04752e-05 -7.05248e-05)
(0.00243525 1.86409e-05 -6.54464e-05)
(0.00246635 1.86773e-05 -6.09631e-05)
(0.00243829 1.64441e-05 -5.41388e-05)
(0.00246366 1.55907e-05 -4.86344e-05)
(0.00228685 1.88465e-05 -6.6428e-05)
(0.00232726 2.03835e-05 -6.76616e-05)
(0.00239188 2.20123e-05 -6.80334e-05)
(0.00239069 2.07581e-05 -6.40799e-05)
(0.0024168 1.99402e-05 -5.96293e-05)
(0.00239996 1.77763e-05 -5.34897e-05)
)
;

boundaryField
{
    inlet
    {
        type            zeroGradient;
    }
    outlet
    {
        type            zeroGradient;
    }
    wall
    {
        type            zeroGradient;
    }
    procBoundary2to0
    {
        type            processor;
        value           nonuniform List<vector> 
44
(
(0.00239327 -9.2526e-06 -8.44138e-05)
(0.00244309 -6.00214e-06 -7.95731e-05)
(0.00243778 -5.27767e-07 -7.09756e-05)
(0.00245592 6.43744e-06 -6.30567e-05)
(0.00245416 1.65693e-05 -5.44873e-05)
(0.00248931 2.97505e-05 -4.73954e-05)
(0.00230333 -4.02105e-06 -8.97702e-05)
(0.00232426 -3.51654e-06 -9.01137e-05)
(0.00236173 -2.47599e-06 -8.87283e-05)
(0.00236173 -2.47599e-06 -8.87283e-05)
(0.00244802 -1.42259e-06 -8.5503e-05)
(0.00251232 6.11516e-07 -8.1338e-05)
(0.00248564 -2.59512e-06 -7.07532e-05)
(0.00252587 3.6861e-06 -6.34345e-05)
(0.00248024 1.29219e-05 -5.3518e-05)
(0.00249369 2.3823e-05 -4.56644e-05)
(0.00236031 -4.362e-06 -9.13031e-05)
(0.00238487 -4.03637e-06 -9.18759e-05)
(0.00244018 -3.24979e-06 -9.19346e-05)
(0.00244802 -1.42259e-06 -8.5503e-05)
(0.00251232 6.11516e-07 -8.1338e-05)
(0.00251232 6.11516e-07 -8.1338e-05)
(0.00248033 2.32833e-06 -6.47964e-05)
(0.00249941 5.2529e-06 -5.72606e-05)
(0.00245094 8.41981e-06 -4.85109e-05)
(0.00245452 1.63951e-05 -4.11804e-05)
(0.0023751 -4.60342e-06 -8.41681e-05)
(0.00240954 -4.4583e-06 -8.56585e-05)
(0.00246934 -3.87652e-06 -8.569e-05)
(0.00246775 -2.16298e-06 -7.93841e-05)
(0.00250154 -4.21164e-07 -7.36362e-05)
(0.00248033 2.32833e-06 -6.47964e-05)
(0.00249941 5.2529e-06 -5.72606e-05)
(0.00249941 5.2529e-06 -5.72606e-05)
(0.00240713 7.29935e-06 -4.02876e-05)
(0.0024017 1.0409e-05 -3.41664e-05)
(0.00236133 -4.58021e-06 -7.04719e-05)
(0.00240615 -4.40859e-06 -7.17295e-05)
(0.00247243 -3.78266e-06 -7.16464e-05)
(0.00246234 -2.26155e-06 -6.63835e-05)
(0.00246518 -4.67484e-07 -6.04429e-05)
(0.00245277 1.66901e-06 -5.38053e-05)
(0.00246387 4.20021e-06 -4.75483e-05)
(0.00240713 7.29935e-06 -4.02876e-05)
)
;
    }
    procBoundary2to3
    {
        type            processor;
        value           nonuniform List<vector> 
12
(
(0.00249422 2.79967e-05 -3.97637e-05)
(0.00248303 2.01269e-05 -3.97234e-05)
(0.0024816 1.70863e-05 -4.04729e-05)
(0.00241864 1.44029e-05 -3.99354e-05)
(0.00249717 2.3913e-05 -3.8658e-05)
(0.00249483 1.84135e-05 -3.9027e-05)
(0.00252588 1.63311e-05 -4.14964e-05)
(0.0024599 1.36883e-05 -4.11208e-05)
(0.00245788 1.81066e-05 -3.4831e-05)
(0.00245714 1.51936e-05 -3.53918e-05)
(0.0024647 1.37426e-05 -3.74426e-05)
(0.00243542 1.23071e-05 -3.83442e-05)
)
;
    }
    procBoundary2to6
    {
        type            processor;
        value           nonuniform List<vector> 
32
(
(0.00243042 1.16867e-05 -3.51541e-05)
(0.00242651 1.3801e-05 -4.24182e-05)
(0.0024487 1.29547e-05 -3.72632e-05)
(0.00240804 1.60921e-05 -4.78779e-05)
(0.00239381 1.39865e-05 -4.25465e-05)
(0.00240431 1.20593e-05 -3.77757e-05)
(0.0023885 8.20724e-06 -5.57023e-05)
(0.00241329 8.53789e-06 -5.51658e-05)
(0.00243702 9.17251e-06 -5.33539e-05)
(0.00243296 8.95069e-06 -5.00288e-05)
(0.00246012 9.15266e-06 -4.64026e-05)
(0.00242007 8.63171e-06 -4.13852e-05)
(0.00243943 8.6232e-06 -3.68939e-05)
(0.00243042 1.16867e-05 -3.51541e-05)
(0.00242651 1.3801e-05 -4.24182e-05)
(0.00239612 8.54461e-06 -3.22815e-05)
(0.00235354 1.75024e-05 -5.49213e-05)
(0.00238924 1.86233e-05 -5.48924e-05)
(0.00242894 1.96276e-05 -5.36185e-05)
(0.00243149 1.82401e-05 -5.07038e-05)
(0.00245428 1.74807e-05 -4.73196e-05)
(0.00242858 1.53053e-05 -4.27563e-05)
(0.00242651 1.3801e-05 -4.24182e-05)
(0.00240804 1.60921e-05 -4.78779e-05)
(0.0024451 1.38003e-05 -3.83923e-05)
(0.0022977 1.95726e-05 -5.39753e-05)
(0.00233053 2.08245e-05 -5.42452e-05)
(0.00236109 2.10856e-05 -5.31142e-05)
(0.00237333 2.0064e-05 -5.06893e-05)
(0.00241367 1.94537e-05 -4.74642e-05)
(0.00240804 1.60921e-05 -4.78779e-05)
(0.00240611 1.74108e-05 -4.35127e-05)
)
;
    }
}


// ************************************************************************* //
