/*--------------------------------*- C++ -*----------------------------------*\
| =========                 |                                                 |
| \\      /  F ield         | OpenFOAM: The Open Source CFD Toolbox           |
|  \\    /   O peration     | Version:  4.x                                   |
|   \\  /    A nd           | Web:      www.OpenFOAM.org                      |
|    \\/     M anipulation  |                                                 |
\*---------------------------------------------------------------------------*/
FoamFile
{
    version     2.0;
    format      ascii;
    class       volScalarField;
    location    "47.5";
    object      p_rgh;
}
// * * * * * * * * * * * * * * * * * * * * * * * * * * * * * * * * * * * * * //

dimensions      [1 -1 -2 0 0 0 0];

internalField   nonuniform List<scalar> 
114
(
74.1947
94.8249
55.8171
87.7684
37.1068
81.0338
108.988
92.005
102.258
74.4033
95.2833
56.2437
88.276
37.6958
81.4759
108.566
91.7718
101.857
74.1542
94.8997
56.0422
87.9591
37.5725
81.14
108.279
91.6674
101.64
74.1143
94.7444
56.155
87.8885
37.848
81.1308
56.0191
88.3709
37.1211
81.4352
109.861
92.5285
103.09
74.6697
96.0136
56.3962
88.9258
37.6835
81.9521
109.39
92.2037
102.537
74.2911
95.4001
56.0239
88.2832
37.3361
81.3643
108.951
92.018
102.18
74.2341
95.1432
56.122
88.1458
37.6245
81.3084
37.7191
81.4348
110.706
93.0268
103.785
75.3343
96.4483
57.3148
89.0075
39.0207
81.5862
110.275
92.8526
103.418
74.99
96.1324
56.8483
88.9339
38.3877
81.7814
109.792
92.5655
102.895
74.8169
95.7122
56.8995
88.5716
38.4634
81.6427
111.334
93.525
104.184
75.4674
96.7164
57.2639
89.2571
38.9922
110.714
93.061
103.527
75.0216
96.0569
56.6604
88.6063
110.184
92.8222
103.118
74.9326
95.7706
56.6836
)
;

boundaryField
{
    inlet
    {
        type            fixedFluxPressure;
        gradient        nonuniform List<scalar> 
12
(
-3.74649e-07
-2.14402e-07
1.02019e-07
-2.65362e-07
-1.18034e-07
-8.41589e-08
-2.73146e-07
-1.08634e-07
-6.82468e-08
-2.40636e-07
-2.05968e-08
1.73484e-09
)
;
        value           nonuniform List<scalar> 
12
(
108.988
108.566
108.279
109.861
109.39
108.951
110.706
110.275
109.792
111.334
110.714
110.184
)
;
    }
    outlet
    {
        type            fixedValue;
        value           nonuniform 0();
    }
    wall
    {
        type            fixedFluxPressure;
        gradient        nonuniform List<scalar> 
66
(
-1.89065e-07
-2.12304e-07
-3.30958e-07
-1.32424e-06
-5.5639e-07
-9.50107e-07
-1.00377e-06
-1.39211e-06
-2.21981e-06
-2.8975e-06
-2.70584e-06
-3.05085e-06
-7.47283e-07
-2.96309e-06
-1.79575e-06
-2.02973e-06
2.33991e-07
-4.55983e-06
-2.89245e-06
-1.73542e-06
1.06658e-06
-4.16326e-06
-2.74414e-06
-2.5763e-06
-1.63841e-06
-1.33409e-05
-8.03535e-06
-6.32341e-06
-3.33946e-06
-9.04299e-06
-6.31963e-06
-4.76896e-06
-2.42898e-06
-2.53013e-07
-2.1674e-07
-3.68759e-07
-4.17192e-07
-5.13521e-07
-8.73782e-07
-9.72581e-07
-1.06694e-06
-2.10292e-07
-6.67297e-07
-7.00091e-07
-5.82767e-07
-5.38606e-06
-9.05601e-07
-1.81377e-06
-1.76392e-06
-2.55413e-06
-1.05349e-06
-8.81352e-07
-1.08853e-06
-2.18096e-06
-2.98903e-06
-2.47896e-06
-1.76566e-06
-2.14269e-06
-1.86953e-06
-1.34809e-06
-7.0899e-06
-3.48393e-06
-3.97604e-06
-3.78945e-06
-1.58044e-06
-1.50135e-06
)
;
        value           nonuniform List<scalar> 
66
(
108.988
108.566
108.279
92.005
91.7718
91.6674
102.258
101.857
101.64
74.1947
74.4033
74.1542
74.1143
94.8249
95.2833
94.8997
94.7444
55.8171
56.2437
56.0422
56.155
87.7684
88.276
87.9591
87.8885
37.1068
37.6958
37.5725
37.848
81.0338
81.4759
81.14
81.1308
108.279
108.951
109.792
110.184
91.6674
92.018
92.5655
92.8222
101.64
102.18
102.895
103.118
74.1143
74.2341
74.8169
74.9326
94.7444
95.1432
95.7122
95.7706
56.155
56.122
56.8995
56.6836
87.8885
88.1458
88.5716
37.848
37.6245
38.4634
81.1308
81.3084
81.6427
)
;
    }
    procBoundary2to0
    {
        type            processor;
        value           nonuniform List<scalar> 
44
(
74.2508
94.9459
55.9877
88.0181
37.7494
81.3428
108.804
91.9043
102.005
102.005
74.5342
95.6741
56.3187
88.8192
37.812
81.9601
109.778
92.3012
102.848
74.5342
95.6741
95.6741
56.4287
88.5487
38.0933
81.5792
110.635
92.9002
103.545
74.9344
96.0314
56.4287
88.5487
88.5487
38.6013
81.7913
111.199
93.4852
104.089
75.3594
96.4572
57.0985
88.9118
38.6013
)
;
    }
    procBoundary2to3
    {
        type            processor;
        value           nonuniform List<scalar> 
12
(
18.109
19.3274
18.511
19.0775
18.0654
19.2642
18.3153
18.773
19.0554
21.1751
19.7954
19.9214
)
;
    }
    procBoundary2to6
    {
        type            processor;
        value           nonuniform List<scalar> 
32
(
81.9366
37.933
81.4208
88.4669
38.2338
81.4378
111.96
93.7466
104.64
76.1911
96.8991
58.1613
88.9987
81.9366
37.933
40.3661
111.346
93.5009
104.203
75.707
96.7368
57.4691
37.933
88.4669
89.259
110.737
93.2242
103.651
75.6049
96.3416
88.4669
57.4156
)
;
    }
}


// ************************************************************************* //
