/*--------------------------------*- C++ -*----------------------------------*\
| =========                 |                                                 |
| \\      /  F ield         | OpenFOAM: The Open Source CFD Toolbox           |
|  \\    /   O peration     | Version:  4.x                                   |
|   \\  /    A nd           | Web:      www.OpenFOAM.org                      |
|    \\/     M anipulation  |                                                 |
\*---------------------------------------------------------------------------*/
FoamFile
{
    version     2.0;
    format      ascii;
    class       volVectorField;
    location    "47.5";
    object      Us;
}
// * * * * * * * * * * * * * * * * * * * * * * * * * * * * * * * * * * * * * //

dimensions      [0 1 -1 0 0 0 0];

internalField   nonuniform List<vector> 
114
(
(6.13752e-10 -1.86021e-10 2.26363e-10)
(7.70403e-10 -2.88525e-10 4.59959e-10)
(1.11725e-09 -4.40901e-10 4.0613e-10)
(1.37723e-09 -4.27291e-10 6.68952e-10)
(2.01739e-09 -1.38278e-09 1.28716e-09)
(2.3354e-09 -2.16333e-09 1.52577e-09)
(1.08264e-10 6.95784e-11 2.74769e-11)
(2.26466e-10 -3.8005e-11 8.0164e-11)
(3.66867e-10 -1.76121e-10 1.47853e-10)
(4.74653e-10 -2.68715e-10 1.89351e-10)
(6.4366e-10 -5.13775e-10 2.66306e-10)
(1.09016e-09 -5.79462e-10 2.18563e-10)
(1.58411e-09 -9.21636e-10 4.13002e-10)
(1.75587e-09 -1.19461e-09 6.23868e-10)
(1.77676e-09 -1.56102e-09 9.78799e-10)
(4.6568e-11 -4.33483e-12 3.14284e-11)
(1.68905e-10 -3.86071e-11 3.62787e-11)
(3.21309e-10 -4.41907e-11 2.11761e-10)
(5.15015e-10 -1.87823e-10 2.41873e-10)
(6.40705e-10 -4.27272e-10 3.16828e-10)
(9.21912e-10 -5.55524e-10 1.54122e-10)
(1.17448e-09 -4.96695e-10 4.13714e-10)
(1.57772e-09 -1.14577e-09 5.99388e-10)
(1.59904e-09 -1.10539e-09 7.93317e-10)
(-4.87391e-11 -3.82042e-11 4.99735e-11)
(4.74229e-11 -3.75522e-11 6.94784e-11)
(1.43185e-10 -3.35142e-11 3.5377e-10)
(2.35862e-10 -5.01552e-10 6.95872e-11)
(4.54397e-10 -4.33607e-10 -3.9724e-11)
(5.7106e-10 -2.38465e-10 -1.1662e-10)
(7.86803e-10 -3.85868e-10 2.95054e-10)
(1.09781e-09 -8.52211e-10 4.01405e-10)
(1.22577e-09 -7.04433e-10 4.51531e-10)
(7.56717e-10 -3.02492e-10 4.36537e-10)
(9.4517e-10 -1.95871e-10 6.98337e-10)
(1.50859e-09 -7.32702e-10 1.08061e-09)
(1.82329e-09 -1.098e-09 1.43505e-09)
(7.60273e-11 3.83712e-11 -2.0164e-11)
(1.8763e-10 9.78637e-12 2.92063e-11)
(2.46629e-10 -7.69561e-11 9.3236e-11)
(3.07169e-10 -1.83633e-10 1.88591e-10)
(3.77427e-10 -3.93702e-10 2.50068e-10)
(7.33411e-10 -3.43103e-10 1.10892e-10)
(1.09569e-09 -4.24523e-10 3.54064e-10)
(1.35174e-09 -6.52223e-10 5.0035e-10)
(1.79113e-09 -1.01097e-09 7.4659e-10)
(3.72838e-11 -7.57762e-12 -5.28121e-11)
(1.24301e-10 -5.14163e-11 -3.96404e-11)
(1.8e-10 -1.04156e-10 3.87813e-11)
(2.71958e-10 -1.36297e-10 1.25413e-10)
(3.66049e-10 -3.04321e-10 2.28239e-11)
(5.59785e-10 -3.91026e-10 1.22335e-10)
(7.84661e-10 -4.76878e-10 2.61372e-10)
(1.00815e-09 -5.778e-10 4.70272e-10)
(1.32938e-09 -7.59258e-10 4.64662e-10)
(8.91578e-12 -3.18043e-11 -2.30351e-11)
(6.92587e-11 -5.61565e-11 -6.97494e-12)
(1.13416e-10 -9.77928e-11 -3.20875e-11)
(2.20209e-10 -6.6684e-11 -2.35947e-11)
(3.38635e-10 -1.60231e-10 -2.48556e-10)
(3.38123e-10 -2.43697e-10 8.70594e-12)
(4.5788e-10 -2.92045e-10 1.65958e-10)
(6.1015e-10 -3.01976e-10 1.31917e-10)
(5.96364e-10 -2.559e-10 1.52203e-10)
(1.23876e-09 6.7871e-11 1.09577e-09)
(1.53806e-09 -6.59452e-11 1.46932e-09)
(8.05293e-11 -1.39888e-11 7.89836e-11)
(1.08061e-10 -7.11897e-11 1.3561e-10)
(1.41156e-10 -1.28076e-10 1.88376e-10)
(1.02173e-10 -1.95923e-10 3.00828e-10)
(1.74102e-10 -3.40621e-10 3.89536e-10)
(4.1184e-10 -1.80256e-10 2.98342e-10)
(6.04574e-10 -2.32367e-10 4.84482e-10)
(1.03608e-09 -1.31705e-10 5.42185e-10)
(1.29418e-09 -3.59925e-10 5.35966e-10)
(2.70184e-11 1.74842e-11 2.88294e-11)
(5.43506e-12 -6.54147e-11 1.69277e-10)
(-3.74274e-11 -6.91197e-11 1.67494e-10)
(-4.11407e-11 -7.97468e-11 2.33436e-10)
(3.71839e-11 -2.18837e-10 2.55809e-10)
(2.30973e-10 -2.38509e-10 2.05141e-10)
(3.62461e-10 -3.88032e-10 3.62134e-10)
(6.71775e-10 -1.85618e-10 4.6111e-10)
(1.08921e-09 -4.47532e-10 2.70852e-10)
(1.38328e-11 -5.29765e-11 1.36256e-11)
(2.12437e-11 -5.67189e-11 5.28901e-11)
(-3.06573e-11 -9.82923e-11 4.28863e-11)
(-1.53977e-13 -1.11657e-10 4.37042e-11)
(1.54469e-10 -1.26069e-10 2.03855e-11)
(1.38085e-10 -1.61441e-10 9.07883e-11)
(2.25811e-10 -1.90343e-10 1.72367e-10)
(3.77015e-10 -2.59667e-10 2.28047e-10)
(6.27236e-10 -2.16238e-10 1.93247e-10)
(6.86588e-11 -8.13456e-12 9.14028e-11)
(2.13308e-10 -1.35754e-10 2.16514e-10)
(2.60965e-10 -2.2161e-10 2.69166e-10)
(3.00731e-10 -2.19802e-10 2.78134e-10)
(3.97626e-10 -1.65406e-10 3.71065e-10)
(7.23917e-10 -1.48984e-10 3.44168e-10)
(9.4651e-10 5.89817e-12 4.67015e-10)
(1.63955e-09 4.92018e-11 4.80094e-10)
(5.95099e-12 2.45642e-11 3.35977e-11)
(1.41087e-10 -9.05037e-11 1.90729e-10)
(8.64329e-11 -9.40372e-11 2.1555e-10)
(1.57206e-10 -1.20286e-10 2.25915e-10)
(1.86586e-10 -2.47787e-10 2.65889e-10)
(3.98019e-10 -1.25469e-10 2.76318e-10)
(5.21687e-10 -1.91345e-10 3.98698e-10)
(-5.15237e-13 -5.95591e-11 2.80387e-11)
(2.7894e-11 -6.36316e-11 6.52803e-11)
(-7.16131e-12 -8.11349e-11 1.22592e-10)
(1.98116e-11 -1.10721e-10 9.35716e-11)
(1.01782e-10 -1.53329e-10 1.28074e-10)
(1.53757e-10 -1.17921e-10 1.14207e-10)
)
;

boundaryField
{
    inlet
    {
        type            zeroGradient;
    }
    outlet
    {
        type            zeroGradient;
    }
    wall
    {
        type            zeroGradient;
    }
    procBoundary2to0
    {
        type            processor;
        value           nonuniform List<vector> 
44
(
(8.56825e-10 -3.46539e-10 2.57811e-10)
(8.07129e-10 -5.12047e-10 2.8998e-10)
(9.39637e-10 -3.58416e-10 3.76736e-10)
(1.10163e-09 -2.59877e-10 7.30457e-10)
(1.86632e-09 -9.8179e-10 1.58167e-09)
(1.99765e-09 -1.93512e-09 2.30008e-09)
(1.42856e-10 3.12717e-10 1.27723e-10)
(4.11046e-10 1.32129e-10 1.84508e-10)
(4.59265e-10 -1.70958e-11 1.86465e-10)
(4.59265e-10 -1.70958e-11 1.86465e-10)
(5.0609e-10 -1.53266e-10 2.81304e-10)
(5.43009e-10 -3.05832e-10 4.2518e-10)
(6.59722e-10 -3.19374e-10 3.2972e-10)
(7.11681e-10 -2.20869e-10 7.48424e-10)
(6.39882e-10 -3.08257e-10 1.60474e-09)
(1.01869e-09 -3.0376e-10 2.88026e-09)
(1.35757e-10 2.22982e-10 1.39429e-10)
(2.96408e-10 1.90628e-10 1.69023e-10)
(3.71983e-10 1.10034e-10 2.81077e-10)
(5.0609e-10 -1.53266e-10 2.81304e-10)
(5.43009e-10 -3.05832e-10 4.2518e-10)
(5.43009e-10 -3.05832e-10 4.2518e-10)
(6.72967e-10 -1.58764e-10 5.29506e-10)
(9.05638e-10 1.32635e-10 6.98576e-10)
(-1.60302e-11 4.89976e-10 1.57152e-09)
(-5.42011e-10 1.93183e-09 3.1643e-09)
(5.88004e-11 8.36005e-11 1.76814e-10)
(2.4128e-10 -9.19329e-12 2.67372e-10)
(2.94283e-10 -6.61873e-11 3.3962e-10)
(3.90991e-10 -1.6871e-10 3.71414e-10)
(5.33813e-10 -2.82609e-10 5.21332e-10)
(6.72967e-10 -1.58764e-10 5.29506e-10)
(9.05638e-10 1.32635e-10 6.98576e-10)
(9.05638e-10 1.32635e-10 6.98576e-10)
(1.31927e-09 4.31511e-10 9.94515e-10)
(1.83856e-09 1.9571e-10 1.0945e-09)
(6.17333e-11 4.97353e-11 1.81839e-10)
(3.29885e-10 -4.40347e-11 2.79369e-10)
(5.2316e-10 -5.45052e-11 2.12274e-10)
(1.06866e-09 -5.13268e-11 4.00569e-10)
(1.28876e-09 1.08373e-10 6.02394e-10)
(1.29073e-09 1.63261e-12 6.10027e-10)
(1.4306e-09 3.57572e-10 6.92828e-10)
(1.31927e-09 4.31511e-10 9.94515e-10)
)
;
    }
    procBoundary2to3
    {
        type            processor;
        value           nonuniform List<vector> 
12
(
(2.59954e-09 -3.54889e-09 1.48165e-09)
(2.01083e-09 -1.68079e-09 8.12664e-10)
(1.98892e-09 -6.76638e-10 3.37461e-10)
(1.01841e-09 -3.67511e-10 1.46511e-10)
(2.71086e-09 -2.3349e-09 1.22545e-09)
(2.05179e-09 -1.15826e-09 5.9748e-10)
(1.74248e-09 -6.64529e-10 4.10005e-10)
(1.10787e-09 -2.30677e-10 2.44661e-10)
(2.65128e-09 -5.31358e-10 1.21958e-09)
(2.10353e-09 -6.31325e-10 6.24867e-10)
(1.64792e-09 -5.30918e-10 2.46595e-10)
(8.21962e-10 -3.9833e-10 1.81685e-10)
)
;
    }
    procBoundary2to6
    {
        type            processor;
        value           nonuniform List<vector> 
32
(
(1.80601e-09 2.07022e-10 3.88399e-10)
(1.08135e-09 2.96912e-11 3.78936e-10)
(1.43828e-09 -2.55639e-10 2.20108e-10)
(1.44044e-10 -6.80145e-11 1.33142e-10)
(4.4365e-10 -3.05805e-11 2.14066e-10)
(3.69206e-10 -1.61293e-10 7.08242e-11)
(9.95687e-11 -7.98302e-11 9.01013e-11)
(2.40049e-10 -1.88472e-10 1.72225e-10)
(3.12767e-10 -2.3358e-10 1.50279e-10)
(5.11785e-10 -2.1108e-10 2.22177e-10)
(8.14436e-10 -2.05521e-10 3.7786e-10)
(1.09966e-09 -1.29717e-10 2.27154e-10)
(1.24022e-09 -4.36802e-12 2.62153e-10)
(1.80601e-09 2.07022e-10 3.88399e-10)
(1.08135e-09 2.96912e-11 3.78936e-10)
(1.51977e-09 -8.19651e-11 3.43841e-10)
(4.00606e-11 -9.05104e-12 -9.69359e-12)
(5.98785e-11 -7.96934e-11 1.19708e-10)
(1.46595e-10 -1.13229e-10 1.05698e-10)
(1.89566e-10 -1.66455e-10 1.57154e-10)
(2.71227e-10 -2.96076e-10 2.24933e-10)
(4.22608e-10 -2.06173e-10 2.17068e-10)
(1.08135e-09 2.96912e-11 3.78936e-10)
(1.44044e-10 -6.80145e-11 1.33142e-10)
(8.70611e-10 -2.28553e-10 2.63633e-10)
(1.10619e-11 -2.14483e-11 3.06825e-11)
(1.10519e-10 -4.00631e-11 7.5771e-11)
(2.06266e-11 -7.45721e-11 3.30892e-11)
(3.75077e-11 -1.07819e-10 6.87921e-11)
(4.91683e-11 -1.12912e-10 6.25389e-11)
(1.44044e-10 -6.80145e-11 1.33142e-10)
(1.07939e-10 -1.70967e-10 1.07803e-10)
)
;
    }
}


// ************************************************************************* //
