/*--------------------------------*- C++ -*----------------------------------*\
| =========                 |                                                 |
| \\      /  F ield         | OpenFOAM: The Open Source CFD Toolbox           |
|  \\    /   O peration     | Version:  4.x                                   |
|   \\  /    A nd           | Web:      www.OpenFOAM.org                      |
|    \\/     M anipulation  |                                                 |
\*---------------------------------------------------------------------------*/
FoamFile
{
    version     2.0;
    format      ascii;
    class       volVectorField;
    location    "47.5";
    object      UsPrev;
}
// * * * * * * * * * * * * * * * * * * * * * * * * * * * * * * * * * * * * * //

dimensions      [0 1 -1 0 0 0 0];

internalField   nonuniform List<vector> 
114
(
(2.32225e-10 -9.73113e-11 2.34369e-10)
(4.68196e-10 2.708e-11 4.94912e-10)
(9.45683e-10 -1.52613e-10 4.92037e-10)
(1.33567e-09 -2.24487e-10 7.48471e-10)
(2.12574e-09 -1.33004e-09 1.38104e-09)
(2.45012e-09 -2.13652e-09 1.57507e-09)
(7.48844e-11 -2.92807e-10 5.30177e-11)
(1.40182e-10 -2.85517e-10 4.56244e-11)
(1.91388e-10 -3.05149e-10 1.38392e-10)
(2.44554e-10 -2.55227e-10 1.94382e-10)
(4.45574e-10 -3.85292e-10 2.79118e-10)
(9.43133e-10 -4.0998e-10 2.42786e-10)
(1.39761e-09 -6.87881e-10 4.77137e-10)
(1.75035e-09 -9.16611e-10 7.50364e-10)
(1.89398e-09 -1.4535e-09 1.03275e-09)
(4.01972e-11 -5.6847e-11 5.21259e-11)
(1.27163e-10 -1.20455e-10 3.96055e-11)
(2.31893e-10 -8.5398e-11 2.13682e-10)
(4.0636e-10 -1.90503e-10 2.4309e-10)
(5.02624e-10 -3.64633e-10 3.21921e-10)
(8.68709e-10 -4.57467e-10 1.56177e-10)
(1.25667e-09 -3.12415e-10 3.89311e-10)
(1.5188e-09 -8.10086e-10 4.85356e-10)
(1.39076e-09 -9.68384e-10 7.95625e-10)
(-5.81561e-11 -4.54533e-11 5.60324e-11)
(2.5292e-11 -5.1707e-11 7.50864e-11)
(8.40717e-11 -4.67943e-11 3.55359e-10)
(1.82697e-10 -5.00998e-10 7.1538e-11)
(3.91699e-10 -4.13522e-10 -3.86179e-11)
(5.67468e-10 -2.05664e-10 -1.22032e-10)
(8.00671e-10 -3.51672e-10 2.62145e-10)
(1.05339e-09 -8.7878e-10 3.43526e-10)
(1.0418e-09 -6.935e-10 3.89339e-10)
(5.94887e-10 -2.00833e-12 5.54037e-10)
(9.16335e-10 2.28699e-11 8.39425e-10)
(1.59223e-09 -6.50232e-10 1.20287e-09)
(1.94719e-09 -1.03647e-09 1.53013e-09)
(-1.00709e-12 -1.7323e-10 2.05521e-12)
(2.98635e-11 -2.5937e-10 1.06311e-11)
(1.18961e-11 -2.18329e-10 8.2705e-11)
(6.57558e-11 -1.75472e-10 1.98825e-10)
(1.33744e-10 -2.70275e-10 2.73001e-10)
(5.93987e-10 -1.87479e-10 1.53937e-10)
(9.94695e-10 -2.33223e-10 4.41615e-10)
(1.35806e-09 -5.02154e-10 6.46606e-10)
(1.87829e-09 -8.95425e-10 8.27912e-10)
(2.59225e-12 -8.6177e-11 -2.56608e-11)
(5.05031e-11 -1.20856e-10 -2.42281e-11)
(5.50283e-11 -1.6169e-10 4.55192e-11)
(1.238e-10 -1.39446e-10 1.31423e-10)
(2.23155e-10 -2.48501e-10 3.235e-11)
(4.84745e-10 -3.04181e-10 1.25356e-10)
(7.49289e-10 -3.41044e-10 2.20496e-10)
(9.7534e-10 -4.42036e-10 3.56233e-10)
(1.2856e-09 -6.73483e-10 4.46947e-10)
(-3.32317e-12 -5.16889e-11 -1.22223e-11)
(2.94323e-11 -7.4613e-11 3.31068e-12)
(3.26778e-11 -1.11926e-10 -2.45925e-11)
(1.53267e-10 -6.6225e-11 -1.86744e-11)
(2.78315e-10 -1.46068e-10 -2.46043e-10)
(3.00323e-10 -2.06376e-10 2.29054e-12)
(4.41744e-10 -2.45032e-10 1.28983e-10)
(5.3625e-10 -2.74062e-10 6.07708e-11)
(3.99535e-10 -2.75528e-10 1.17839e-10)
(1.27855e-09 1.4632e-10 1.19727e-09)
(1.60463e-09 -1.78746e-11 1.54849e-09)
(1.09948e-11 -1.84913e-10 6.22427e-11)
(-3.62862e-11 -2.48996e-10 1.44195e-10)
(-7.12148e-11 -2.29405e-10 1.91028e-10)
(-9.15682e-11 -1.98958e-10 3.11295e-10)
(-1.77037e-11 -2.57552e-10 4.15702e-10)
(3.15833e-10 -8.29797e-11 3.43573e-10)
(5.49586e-10 -1.30088e-10 5.48352e-10)
(1.03687e-09 -5.33484e-11 6.18246e-10)
(1.32372e-09 -3.02621e-10 6.00017e-10)
(-4.79788e-12 -5.6325e-11 3.88536e-11)
(-7.75056e-11 -1.44531e-10 1.82431e-10)
(-1.79717e-10 -1.18119e-10 1.78541e-10)
(-1.72451e-10 -8.08786e-11 2.43892e-10)
(-1.04715e-10 -1.70275e-10 2.7255e-10)
(1.5448e-10 -1.83475e-10 2.19389e-10)
(2.96262e-10 -3.12082e-10 3.70029e-10)
(6.36349e-10 -1.28659e-10 4.42387e-10)
(1.0642e-09 -4.36142e-10 2.79745e-10)
(-3.19537e-12 -7.30719e-11 2.25208e-11)
(-2.06217e-11 -7.86519e-11 6.07691e-11)
(-1.02757e-10 -1.10123e-10 5.14824e-11)
(-8.02564e-11 -1.11738e-10 5.20387e-11)
(9.84259e-11 -1.18972e-10 2.60281e-11)
(8.23732e-11 -1.40708e-10 9.22011e-11)
(1.74889e-10 -1.64099e-10 1.56784e-10)
(3.17384e-10 -2.37838e-10 2.04684e-10)
(5.48751e-10 -2.21993e-10 2.05279e-10)
(1.33047e-11 -1.28914e-10 6.50122e-11)
(8.39095e-11 -2.56378e-10 1.88889e-10)
(6.72434e-11 -2.96471e-10 2.65623e-10)
(1.3315e-10 -2.27022e-10 2.92479e-10)
(2.2598e-10 -9.7643e-11 4.12071e-10)
(6.52068e-10 -9.12557e-11 3.92861e-10)
(8.98334e-10 7.10058e-11 5.29494e-10)
(1.63249e-09 8.27186e-11 5.2849e-10)
(-2.44737e-11 -3.25199e-11 2.99056e-11)
(6.19297e-11 -1.56525e-10 1.87336e-10)
(-3.68548e-11 -1.33679e-10 2.21629e-10)
(3.13743e-11 -1.24071e-10 2.38858e-10)
(5.37083e-11 -2.09333e-10 2.88583e-10)
(3.19819e-10 -8.51222e-11 2.99968e-10)
(4.56145e-10 -1.51218e-10 4.23263e-10)
(-1.26947e-11 -7.45876e-11 2.95735e-11)
(-7.47114e-12 -8.08194e-11 6.89199e-11)
(-9.19046e-11 -9.6756e-11 1.31577e-10)
(-4.93854e-11 -1.11097e-10 1.0232e-10)
(7.89787e-12 -1.40205e-10 1.40389e-10)
(9.87706e-11 -1.05482e-10 1.23484e-10)
)
;

boundaryField
{
    inlet
    {
        type            calculated;
        value           uniform (0 0 0);
    }
    outlet
    {
        type            calculated;
        value           nonuniform 0();
    }
    wall
    {
        type            calculated;
        value           uniform (0 0 0);
    }
    procBoundary2to0
    {
        type            processor;
        value           uniform (0 0 0);
    }
    procBoundary2to3
    {
        type            processor;
        value           uniform (0 0 0);
    }
    procBoundary2to6
    {
        type            processor;
        value           uniform (0 0 0);
    }
}


// ************************************************************************* //
