/*--------------------------------*- C++ -*----------------------------------*\
| =========                 |                                                 |
| \\      /  F ield         | OpenFOAM: The Open Source CFD Toolbox           |
|  \\    /   O peration     | Version:  4.x                                   |
|   \\  /    A nd           | Web:      www.OpenFOAM.org                      |
|    \\/     M anipulation  |                                                 |
\*---------------------------------------------------------------------------*/
FoamFile
{
    version     2.0;
    format      ascii;
    class       volScalarField;
    location    "33";
    object      KslPrev;
}
// * * * * * * * * * * * * * * * * * * * * * * * * * * * * * * * * * * * * * //

dimensions      [1 -3 -1 0 0 0 0];

internalField   nonuniform List<scalar> 
108
(
3377.78
7974.07
3385.75
7632.87
3369.54
7347.02
3307.6
7216.29
3186.15
3468.94
9999.63
3650.77
13038.5
3705.05
16362.9
3685.13
21524
3615.91
3504.68
11254.7
3759.41
17784.1
3818.99
30000.1
3792.03
84325.5
3720
3492.99
11309
3799.95
19130
3896.51
45478
3915.35
966874
3844.49
3365.3
7821.47
3353.06
7493.51
3354.68
7184.26
3287
7205.38
3238.86
3447.13
8961.9
3538.13
9854.38
3571.21
10865.6
3559.32
12708
3528.1
3464.81
10150.6
3681.63
13827.4
3756.82
19333.8
3730.54
29135.1
3685.32
3494.94
10535.8
3707.62
15059.2
3777.61
22032.8
3745.72
32233.4
3651.15
3316.88
6972.25
3166.56
5980.09
3102.69
5561.25
3030.07
5251.59
2903.6
3368.92
7728.47
3351.77
7089.93
3285.7
6680.68
3194.22
6379.22
3079.03
3421.19
8323.34
3454.23
8263.49
3428.99
8064.38
3333.28
7776.46
3229.46
3463.04
8501.45
3492.55
8665.84
3456.94
8345.58
3327.11
7745.44
3206.14
)
;

boundaryField
{
    inlet
    {
        type            zeroGradient;
    }
    outlet
    {
        type            zeroGradient;
    }
    wall
    {
        type            zeroGradient;
    }
    procBoundary4to0
    {
        type            processor;
        value           uniform 0;
    }
    procBoundary4to5
    {
        type            processor;
        value           uniform 0;
    }
    procBoundary4to6
    {
        type            processor;
        value           uniform 0;
    }
}


// ************************************************************************* //
