/*--------------------------------*- C++ -*----------------------------------*\
| =========                 |                                                 |
| \\      /  F ield         | OpenFOAM: The Open Source CFD Toolbox           |
|  \\    /   O peration     | Version:  4.x                                   |
|   \\  /    A nd           | Web:      www.OpenFOAM.org                      |
|    \\/     M anipulation  |                                                 |
\*---------------------------------------------------------------------------*/
FoamFile
{
    version     2.0;
    format      ascii;
    class       volScalarField;
    location    "0.5";
    object      Ksl;
}
// * * * * * * * * * * * * * * * * * * * * * * * * * * * * * * * * * * * * * //

dimensions      [1 -3 -1 0 0 0 0];

internalField   nonuniform List<scalar> 
108
(
1438.93
690.185
677.126
1121.27
1325.99
1571.17
1702.74
1914.41
2457.18
1526.35
898.241
392.772
733.585
986.418
1715.52
1846.04
2571.69
3216.92
2556.23
2210.59
987.18
719.175
75.481
1133.13
1442.12
922.221
1878.86
1924.16
1248.19
906.254
597.293
393.907
267.607
221.508
223.747
806.072
2106.42
1093.36
674.706
1099.81
1235.89
1465.49
1556.14
2017.91
2735.25
2085.25
1282.4
399.373
603.082
819.553
1198.87
1292.8
1845.28
2980.25
3001.54
2534.67
1157.35
771.475
237.481
357.161
605.178
1080.16
4181
2782.14
1983.93
2068.21
1440.35
2084.56
1313.69
1937.2
1108.92
943.818
4746.51
6289.08
1103.06
2117.26
980.082
4083.29
1875.91
2930.09
2528.58
3690.85
3874.23
1308.37
1000.66
70.9521
1058.19
882.085
1733.86
3778.43
4473.11
5642.72
3160.09
6455.95
2173.03
3083.47
1165.11
835.563
1878.61
2781.55
2070.06
1829.45
1412.88
1394.76
1167.24
1457.39
768.868
412.847
)
;

boundaryField
{
    inlet
    {
        type            zeroGradient;
    }
    outlet
    {
        type            zeroGradient;
    }
    wall
    {
        type            zeroGradient;
    }
    procBoundary3to1
    {
        type            processor;
        value           nonuniform List<scalar> 
27
(
1158.69
557.752
479.047
1079.97
1223.72
1732.97
1761.19
2007.86
2196.39
1207.95
633.247
432.507
813.249
1049.26
1602.05
1680.23
2301.42
2380.79
2147.17
1505.43
520.994
259.376
469.596
911.737
927.781
1912.51
2295.42
)
;
    }
    procBoundary3to2
    {
        type            processor;
        value           nonuniform List<scalar> 
12
(
4564.64
3408.42
4755.66
2341.12
9337.41
5005.03
6476.83
2820.07
24870.4
9695.02
8951.51
2991.7
)
;
    }
    procBoundary3to7
    {
        type            processor;
        value           nonuniform List<scalar> 
36
(
9887.7
7139.98
5140.78
3088.74
1199.96
1456.22
875.868
794.295
1802.1
7409.36
29461.2
3885.83
7752.94
1446.76
3505.3
927.24
1399.46
1011.34
8702.37
17858.3
6411.66
24474
6206.05
5067
9329.43
1286.12
520.141
2669.79
2144.37
1942.65
1500.94
1458.09
1152.46
1075.57
775.254
1209.99
)
;
    }
}


// ************************************************************************* //
