/*--------------------------------*- C++ -*----------------------------------*\
| =========                 |                                                 |
| \\      /  F ield         | OpenFOAM: The Open Source CFD Toolbox           |
|  \\    /   O peration     | Version:  4.x                                   |
|   \\  /    A nd           | Web:      www.OpenFOAM.org                      |
|    \\/     M anipulation  |                                                 |
\*---------------------------------------------------------------------------*/
FoamFile
{
    version     2.0;
    format      ascii;
    class       volScalarField;
    location    "0.5";
    object      nu;
}
// * * * * * * * * * * * * * * * * * * * * * * * * * * * * * * * * * * * * * //

dimensions      [0 2 -1 0 0 0 0];

internalField   nonuniform List<scalar> 
108
(
9.99733e-07
9.99456e-07
9.99188e-07
9.99101e-07
9.99149e-07
9.99245e-07
9.99372e-07
9.99528e-07
9.99856e-07
9.99865e-07
9.99573e-07
9.99242e-07
9.99098e-07
9.99071e-07
9.99073e-07
9.99114e-07
9.99128e-07
9.99632e-07
1.00006e-06
9.99677e-07
9.99325e-07
9.99096e-07
9.99031e-07
9.99156e-07
9.99286e-07
9.99167e-07
9.98221e-07
1.00062e-06
1.00056e-06
1.00048e-06
1.00037e-06
1.00027e-06
1.00013e-06
9.99942e-07
9.99692e-07
9.9753e-07
9.99663e-07
9.99408e-07
9.99193e-07
9.99129e-07
9.99133e-07
9.9917e-07
9.99223e-07
9.99299e-07
9.99542e-07
9.99642e-07
9.99392e-07
9.99202e-07
9.99099e-07
9.99068e-07
9.9909e-07
9.99163e-07
9.99226e-07
9.9939e-07
9.99693e-07
9.99398e-07
9.9919e-07
9.99087e-07
9.99064e-07
9.99072e-07
9.9911e-07
9.99082e-07
9.98811e-07
1.00024e-06
1.00013e-06
9.99973e-07
9.99751e-07
9.99466e-07
9.99242e-07
9.9911e-07
9.9921e-07
9.99436e-07
9.99798e-07
9.99601e-07
9.99375e-07
9.99294e-07
9.99121e-07
9.99095e-07
9.9918e-07
9.9949e-07
9.97868e-07
9.996e-07
9.99424e-07
9.99326e-07
9.99214e-07
9.99047e-07
9.98975e-07
9.99194e-07
9.99521e-07
9.97953e-07
9.99671e-07
9.99457e-07
9.99339e-07
9.99251e-07
9.99147e-07
9.99083e-07
9.99282e-07
9.99415e-07
9.99112e-07
1.00006e-06
9.99975e-07
9.99894e-07
9.99799e-07
9.99669e-07
9.99495e-07
9.99322e-07
9.99308e-07
9.98941e-07
)
;

boundaryField
{
    inlet
    {
        type            calculated;
        value           nonuniform 0();
    }
    outlet
    {
        type            calculated;
        value           uniform 1e-06;
    }
    wall
    {
        type            calculated;
        value           nonuniform List<scalar> 
63
(
9.99733e-07
9.99865e-07
1.00006e-06
1.00062e-06
9.99456e-07
9.99573e-07
9.99677e-07
1.00056e-06
9.99188e-07
9.99242e-07
9.99325e-07
1.00048e-06
9.99101e-07
9.99098e-07
9.99096e-07
1.00037e-06
9.99149e-07
9.99071e-07
9.99031e-07
1.00027e-06
9.99245e-07
9.99073e-07
9.99156e-07
1.00013e-06
9.99372e-07
9.99114e-07
9.99286e-07
9.99942e-07
9.99528e-07
9.99128e-07
9.99167e-07
9.99692e-07
9.99856e-07
9.99632e-07
9.98221e-07
9.9753e-07
1.00062e-06
1.00024e-06
1.00006e-06
1.00056e-06
1.00013e-06
9.99975e-07
1.00048e-06
9.99973e-07
9.99894e-07
1.00037e-06
9.99751e-07
9.99799e-07
1.00027e-06
9.99466e-07
9.99669e-07
1.00013e-06
9.99242e-07
9.99495e-07
9.99942e-07
9.9911e-07
9.99322e-07
9.99692e-07
9.9921e-07
9.99308e-07
9.9753e-07
9.99436e-07
9.98941e-07
)
;
    }
    procBoundary3to1
    {
        type            processor;
        value           nonuniform List<scalar> 
27
(
9.99748e-07
9.99451e-07
9.99186e-07
9.99111e-07
9.99126e-07
9.99154e-07
9.99187e-07
9.99307e-07
9.99672e-07
9.99422e-07
9.99235e-07
9.99146e-07
9.99201e-07
9.99163e-07
9.99198e-07
9.99246e-07
9.99286e-07
9.99401e-07
9.99391e-07
9.99224e-07
9.99257e-07
9.99871e-07
9.99359e-07
9.99366e-07
9.99498e-07
9.99582e-07
9.99338e-07
)
;
    }
    procBoundary3to2
    {
        type            processor;
        value           nonuniform List<scalar> 
12
(
9.99938e-07
1.00006e-06
1.00023e-06
1.00067e-06
9.99842e-07
9.99784e-07
9.9982e-07
1.00032e-06
9.99733e-07
9.99672e-07
9.99665e-07
1.00013e-06
)
;
    }
    procBoundary3to7
    {
        type            processor;
        value           nonuniform List<scalar> 
36
(
9.99674e-07
9.9968e-07
9.99566e-07
9.99466e-07
9.99248e-07
9.99169e-07
9.99243e-07
9.99568e-07
9.97697e-07
9.99722e-07
9.99572e-07
9.99422e-07
9.99251e-07
9.99101e-07
9.99125e-07
9.99376e-07
9.99656e-07
9.99117e-07
9.99767e-07
9.99573e-07
9.99353e-07
9.99223e-07
9.99285e-07
9.99232e-07
9.99359e-07
9.99547e-07
9.99598e-07
9.99988e-07
9.9993e-07
9.99877e-07
9.9984e-07
9.99811e-07
9.99757e-07
9.99663e-07
9.99563e-07
9.97526e-07
)
;
    }
}


// ************************************************************************* //
