/*--------------------------------*- C++ -*----------------------------------*\
| =========                 |                                                 |
| \\      /  F ield         | OpenFOAM: The Open Source CFD Toolbox           |
|  \\    /   O peration     | Version:  4.x                                   |
|   \\  /    A nd           | Web:      www.OpenFOAM.org                      |
|    \\/     M anipulation  |                                                 |
\*---------------------------------------------------------------------------*/
FoamFile
{
    version     2.0;
    format      ascii;
    class       volScalarField;
    location    "0.5";
    object      partTemp;
}
// * * * * * * * * * * * * * * * * * * * * * * * * * * * * * * * * * * * * * //

dimensions      [0 0 0 1 0 0 0];

internalField   nonuniform List<scalar> 
108
(
300.016
300.021
300.025
300.025
300.018
300.002
299.979
299.95
299.938
300.013
300.017
300.022
300.024
300.018
300.005
299.983
299.962
299.941
300.009
300.013
300.017
300.019
300.017
300.008
299.995
299.97
299.945
300.003
300.006
300.01
300.011
300.012
300.007
299.999
299.982
299.964
300.019
300.027
300.031
300.032
300.023
300.008
299.981
299.947
299.93
300.015
300.023
300.029
300.03
300.024
300.009
299.982
299.953
299.932
300.009
300.016
300.022
300.024
300.022
300.01
299.99
299.96
299.94
300.004
300.007
300.01
300.015
300.015
300.01
299.998
299.975
299.944
300.016
300.026
300.034
300.036
300.03
300.018
299.986
299.947
299.923
300.012
300.025
300.031
300.036
300.035
300.014
299.984
299.95
299.927
300.007
300.014
300.024
300.029
300.027
300.012
299.993
299.96
299.93
300.002
300.005
300.012
300.014
300.017
300.011
299.998
299.974
299.95
)
;

boundaryField
{
    inlet
    {
        type            zeroGradient;
    }
    outlet
    {
        type            zeroGradient;
    }
    wall
    {
        type            zeroGradient;
    }
    procBoundary3to1
    {
        type            processor;
        value           nonuniform List<scalar> 
27
(
300.019
300.021
300.023
300.023
300.014
300.001
299.972
299.949
299.939
300.02
300.025
300.029
300.027
300.018
300.003
299.979
299.948
299.922
300.017
300.027
300.031
300.035
300.028
300.007
299.973
299.947
299.913
)
;
    }
    procBoundary3to2
    {
        type            processor;
        value           nonuniform List<scalar> 
12
(
300.013
300.01
300.007
300.002
300.013
300.01
300.005
300
300.01
300.006
300.002
299.999
)
;
    }
    procBoundary3to7
    {
        type            processor;
        value           nonuniform List<scalar> 
36
(
300.011
300.021
300.029
300.034
300.028
300.011
299.979
299.937
299.913
300.008
300.019
300.027
300.033
300.031
300.018
299.989
299.948
299.918
300.002
300.012
300.018
300.024
300.024
300.012
299.993
299.963
299.93
300.001
300.004
300.01
300.013
300.015
300.01
299.999
299.975
299.955
)
;
    }
}


// ************************************************************************* //
