/*--------------------------------*- C++ -*----------------------------------*\
| =========                 |                                                 |
| \\      /  F ield         | OpenFOAM: The Open Source CFD Toolbox           |
|  \\    /   O peration     | Version:  4.x                                   |
|   \\  /    A nd           | Web:      www.OpenFOAM.org                      |
|    \\/     M anipulation  |                                                 |
\*---------------------------------------------------------------------------*/
FoamFile
{
    version     2.0;
    format      ascii;
    class       volScalarField;
    location    "0.5";
    object      rho;
}
// * * * * * * * * * * * * * * * * * * * * * * * * * * * * * * * * * * * * * //

dimensions      [1 -3 0 0 0 0 0];

internalField   nonuniform List<scalar> 
108
(
6701.79
6703.64
6705.44
6706.03
6705.71
6705.06
6704.21
6703.17
6700.97
6700.91
6702.86
6705.08
6706.05
6706.23
6706.22
6705.94
6705.85
6702.47
6699.63
6702.17
6704.53
6706.06
6706.5
6705.66
6704.79
6705.58
6711.94
6695.86
6696.27
6696.82
6697.5
6698.16
6699.11
6700.39
6702.07
6716.59
6702.26
6703.97
6705.41
6705.84
6705.81
6705.56
6705.21
6704.7
6703.07
6702.4
6704.08
6705.35
6706.04
6706.25
6706.1
6705.62
6705.19
6704.09
6702.06
6704.04
6705.43
6706.12
6706.28
6706.22
6705.97
6706.15
6707.97
6698.41
6699.15
6700.18
6701.67
6703.58
6705.08
6705.97
6705.3
6703.78
6701.35
6702.67
6704.19
6704.73
6705.89
6706.07
6705.5
6703.42
6714.32
6702.68
6703.86
6704.52
6705.27
6706.39
6706.88
6705.4
6703.21
6713.74
6702.21
6703.64
6704.43
6705.02
6705.72
6706.15
6704.82
6703.92
6705.95
6699.61
6700.16
6700.71
6701.34
6702.22
6703.38
6704.55
6704.64
6707.11
)
;

boundaryField
{
    inlet
    {
        type            calculated;
        value           nonuniform 0();
    }
    outlet
    {
        type            calculated;
        value           uniform 6700;
    }
    wall
    {
        type            calculated;
        value           nonuniform List<scalar> 
63
(
6701.79
6700.91
6699.63
6695.86
6703.64
6702.86
6702.17
6696.27
6705.44
6705.08
6704.53
6696.82
6706.03
6706.05
6706.06
6697.5
6705.71
6706.23
6706.5
6698.16
6705.06
6706.22
6705.66
6699.11
6704.21
6705.94
6704.79
6700.39
6703.17
6705.85
6705.58
6702.07
6700.97
6702.47
6711.94
6716.59
6695.86
6698.41
6699.61
6696.27
6699.15
6700.16
6696.82
6700.18
6700.71
6697.5
6701.67
6701.34
6698.16
6703.58
6702.22
6699.11
6705.08
6703.38
6700.39
6705.97
6704.55
6702.07
6705.3
6704.64
6716.59
6703.78
6707.11
)
;
    }
    procBoundary3to1
    {
        type            processor;
        value           nonuniform List<scalar> 
27
(
6701.69
6703.68
6705.45
6705.96
6705.86
6705.67
6705.45
6704.65
6702.2
6703.88
6705.13
6705.73
6705.36
6705.61
6705.38
6705.05
6704.79
6704.01
6704.08
6705.2
6704.98
6700.86
6704.3
6704.25
6703.37
6702.8
6704.44
)
;
    }
    procBoundary3to2
    {
        type            processor;
        value           nonuniform List<scalar> 
12
(
6700.42
6699.63
6698.43
6695.51
6701.06
6701.45
6701.21
6697.88
6701.79
6702.2
6702.25
6699.14
)
;
    }
    procBoundary3to7
    {
        type            processor;
        value           nonuniform List<scalar> 
36
(
6702.19
6702.15
6702.91
6703.58
6705.04
6705.58
6705.08
6702.89
6715.47
6701.86
6702.87
6703.87
6705.02
6706.03
6705.86
6704.18
6702.3
6705.92
6701.56
6702.86
6704.33
6705.21
6704.79
6705.15
6704.29
6703.03
6702.69
6700.08
6700.47
6700.83
6701.07
6701.26
6701.63
6702.26
6702.93
6716.62
)
;
    }
}


// ************************************************************************* //
