/*--------------------------------*- C++ -*----------------------------------*\
| =========                 |                                                 |
| \\      /  F ield         | OpenFOAM: The Open Source CFD Toolbox           |
|  \\    /   O peration     | Version:  4.x                                   |
|   \\  /    A nd           | Web:      www.OpenFOAM.org                      |
|    \\/     M anipulation  |                                                 |
\*---------------------------------------------------------------------------*/
FoamFile
{
    version     2.0;
    format      ascii;
    class       volScalarField;
    location    "0.5";
    object      Sm;
}
// * * * * * * * * * * * * * * * * * * * * * * * * * * * * * * * * * * * * * //

dimensions      [1 -3 -1 0 0 0 0];

internalField   nonuniform List<scalar> 
108
(
4.77222e-65
2.98099e-65
6.20538e-65
2.82618e-65
4.14395e-65
3.0965e-65
4.66366e-65
3.68514e-65
4.72007e-65
5.0739e-65
7.4968e-65
4.30632e-65
4.71459e-65
5.48398e-65
3.87494e-65
5.83174e-65
4.99434e-65
5.23872e-65
5.53084e-65
5.46265e-65
4.15286e-65
3.36563e-65
5.47378e-65
4.13173e-65
5.72974e-65
5.35777e-65
3.90866e-65
4.65325e-65
3.25951e-65
1.86942e-65
5.75646e-65
4.43277e-65
5.05252e-65
3.33363e-65
5.32186e-65
4.34815e-65
7.21298e-65
6.61992e-65
9.00577e-65
8.05308e-65
8.33898e-65
6.29149e-65
5.89e-65
6.05356e-65
8.68729e-65
6.57461e-65
6.29095e-65
7.7234e-65
7.50212e-65
6.92651e-65
6.54102e-65
8.19595e-65
6.70161e-65
6.67584e-65
1.03669e-64
7.6687e-65
7.54579e-65
8.3458e-65
5.96046e-65
8.11088e-65
6.39874e-65
7.37961e-65
7.81958e-65
7.45238e-65
5.67229e-65
7.00809e-65
6.16647e-65
8.20478e-65
5.68904e-65
6.50479e-65
7.03914e-65
5.24627e-65
1.00181e-64
8.97512e-65
8.62703e-65
9.27445e-65
6.16902e-65
5.96479e-65
8.62478e-65
6.90567e-65
7.39592e-65
9.06248e-65
5.20149e-65
7.74826e-65
4.52456e-65
4.83605e-65
7.67356e-65
7.2454e-65
8.58195e-65
5.84829e-65
4.97746e-65
8.37119e-65
8.34597e-65
5.77065e-65
6.94871e-65
8.12968e-65
6.35148e-65
7.39565e-65
5.25763e-65
7.98356e-65
4.58396e-65
5.13927e-65
5.92688e-65
5.86168e-65
7.25841e-65
6.0541e-65
7.89926e-65
8.21735e-65
)
;

boundaryField
{
    inlet
    {
        type            calculated;
        value           nonuniform 0();
    }
    outlet
    {
        type            calculated;
        value           uniform 0;
    }
    wall
    {
        type            calculated;
        value           uniform 0;
    }
    procBoundary3to1
    {
        type            processor;
        value           nonuniform List<scalar> 
27
(
3.51926e-65
5.32774e-65
3.52988e-65
7.54116e-65
5.07499e-65
4.8093e-65
4.8032e-65
4.88519e-65
4.34275e-65
7.69009e-65
6.53552e-65
6.07282e-65
5.9953e-65
5.72572e-65
7.66539e-65
7.94839e-65
9.59464e-65
4.64843e-65
7.99487e-65
6.15194e-65
5.5333e-65
8.92861e-65
8.3574e-65
8.7962e-65
6.77942e-65
7.64126e-65
3.28684e-65
)
;
    }
    procBoundary3to2
    {
        type            processor;
        value           nonuniform List<scalar> 
12
(
2.65646e-65
4.05468e-65
3.11327e-65
3.41024e-65
9.76705e-65
5.53614e-65
6.29932e-65
4.25824e-65
5.77131e-65
5.21695e-65
8.45829e-65
6.73204e-65
)
;
    }
    procBoundary3to7
    {
        type            processor;
        value           nonuniform List<scalar> 
36
(
9.67108e-65
8.23536e-65
6.23076e-65
7.20563e-65
1.07401e-64
1.03253e-64
8.13431e-65
5.45416e-65
7.85507e-65
7.62808e-65
9.33225e-65
7.17286e-65
7.44106e-65
8.60805e-65
5.71822e-65
7.47347e-65
6.15089e-65
7.6475e-65
5.50466e-65
7.33062e-65
6.02632e-65
7.46796e-65
7.62638e-65
8.20694e-65
7.43043e-65
7.1398e-65
8.2077e-65
5.10882e-65
7.21352e-65
8.87073e-65
5.61638e-65
7.33523e-65
6.706e-65
8.06923e-65
5.85027e-65
4.25217e-65
)
;
    }
}


// ************************************************************************* //
