/*--------------------------------*- C++ -*----------------------------------*\
| =========                 |                                                 |
| \\      /  F ield         | OpenFOAM: The Open Source CFD Toolbox           |
|  \\    /   O peration     | Version:  4.x                                   |
|   \\  /    A nd           | Web:      www.OpenFOAM.org                      |
|    \\/     M anipulation  |                                                 |
\*---------------------------------------------------------------------------*/
FoamFile
{
    version     2.0;
    format      ascii;
    class       volScalarField;
    location    "16.5";
    object      Deff;
}
// * * * * * * * * * * * * * * * * * * * * * * * * * * * * * * * * * * * * * //

dimensions      [0 2 -1 0 0 0 0];

internalField   nonuniform List<scalar> 
87
(
9.80825e-08
9.81494e-08
9.81057e-08
9.82872e-08
9.82894e-08
9.82637e-08
9.82413e-08
9.82526e-08
9.82542e-08
9.80608e-08
9.79325e-08
9.80057e-08
9.79349e-08
9.7959e-08
9.78771e-08
9.84989e-08
9.83093e-08
9.82543e-08
9.80564e-08
9.80285e-08
9.79778e-08
9.79723e-08
9.79301e-08
9.7925e-08
9.86803e-08
9.84381e-08
9.83933e-08
9.82154e-08
9.80705e-08
9.7978e-08
9.80775e-08
9.80776e-08
9.80137e-08
9.83147e-08
9.82322e-08
9.81344e-08
9.80071e-08
9.80207e-08
9.79462e-08
9.79155e-08
9.79408e-08
9.78534e-08
9.85164e-08
9.83309e-08
9.8226e-08
9.80934e-08
9.80617e-08
9.80429e-08
9.79592e-08
9.8017e-08
9.79003e-08
9.8673e-08
9.84475e-08
9.83559e-08
9.81334e-08
9.80602e-08
9.8061e-08
9.80729e-08
9.81148e-08
9.80704e-08
9.85019e-08
9.84006e-08
9.8232e-08
9.8057e-08
9.79827e-08
9.79242e-08
9.78402e-08
9.78677e-08
9.80388e-08
9.85804e-08
9.84671e-08
9.82733e-08
9.81645e-08
9.79726e-08
9.80045e-08
9.80267e-08
9.80584e-08
9.79436e-08
9.87549e-08
9.85168e-08
9.83609e-08
9.82107e-08
9.81602e-08
9.80001e-08
9.81818e-08
9.81938e-08
9.80859e-08
)
;

boundaryField
{
    inlet
    {
        type            calculated;
        value           uniform 0;
    }
    outlet
    {
        type            calculated;
        value           nonuniform 0();
    }
    wall
    {
        type            calculated;
        value           uniform 0;
    }
    procBoundary6to0
    {
        type            processor;
        value           uniform 0;
    }
    procBoundary6to2
    {
        type            processor;
        value           uniform 0;
    }
    procBoundary6to4
    {
        type            processor;
        value           uniform 0;
    }
    procBoundary6to7
    {
        type            processor;
        value           uniform 0;
    }
}


// ************************************************************************* //
