/*--------------------------------*- C++ -*----------------------------------*\
| =========                 |                                                 |
| \\      /  F ield         | OpenFOAM: The Open Source CFD Toolbox           |
|  \\    /   O peration     | Version:  4.x                                   |
|   \\  /    A nd           | Web:      www.OpenFOAM.org                      |
|    \\/     M anipulation  |                                                 |
\*---------------------------------------------------------------------------*/
FoamFile
{
    version     2.0;
    format      ascii;
    class       surfaceScalarField;
    location    "16.5";
    object      phi;
}
// * * * * * * * * * * * * * * * * * * * * * * * * * * * * * * * * * * * * * //

dimensions      [0 3 -1 0 0 0 0];

internalField   nonuniform List<scalar> 
192
(
1.18466e-07
2.35033e-07
6.90901e-06
9.6576e-08
-1.34877e-07
2.4785e-07
-2.19806e-09
8.92303e-06
-3.09322e-07
8.99198e-06
-3.32592e-07
-1.33295e-07
7.32304e-06
3.43433e-07
-8.58019e-08
7.02627e-06
1.41997e-07
-7.64306e-08
6.32417e-06
3.2235e-07
-2.03659e-07
6.06392e-06
9.54903e-08
-6.4971e-08
5.36981e-06
2.06999e-07
-4.16796e-08
5.16803e-06
5.45174e-08
-5.09814e-09
4.87273e-06
7.81058e-08
3.44865e-08
4.73797e-06
2.43046e-08
1.33701e-08
1.70511e-07
2.6825e-07
7.70988e-06
4.25516e-07
-9.2099e-08
7.51095e-06
1.69003e-07
-8.68589e-08
7.16018e-06
3.55221e-07
-2.09726e-07
6.99452e-06
1.14191e-07
-1.15847e-07
6.73955e-06
2.40882e-07
-1.61348e-07
6.59884e-06
8.65623e-08
-9.96714e-08
6.05622e-06
3.15551e-07
1.23376e-07
5.85927e-06
9.98362e-08
-1.34549e-08
1.40607e-07
1.47866e-07
8.24981e-06
-1.2063e-07
8.23131e-06
-1.19792e-07
8.20602e-06
-2.08128e-07
8.0911e-06
-1.60061e-07
7.934e-06
-1.68072e-07
7.82957e-06
-1.58604e-07
7.92766e-06
-9.18602e-08
7.86105e-06
-1.66145e-07
-1.82966e-08
7.59708e-06
3.49005e-07
1.77503e-07
7.39765e-06
1.42529e-07
2.87597e-08
7.00074e-06
2.8616e-07
1.2017e-08
6.89243e-06
9.03094e-08
-1.18022e-08
6.65096e-06
1.31185e-07
8.8753e-08
6.5915e-06
4.39671e-08
-1.14091e-09
6.12962e-06
2.67882e-07
1.89699e-07
6.02964e-06
6.09507e-08
3.96225e-08
9.19386e-09
2.27e-07
7.8812e-06
3.97405e-07
1.4157e-07
7.71882e-06
1.7763e-07
4.04118e-08
7.42452e-06
3.17796e-07
5.29424e-08
7.30219e-06
1.04944e-07
-8.14985e-09
7.19355e-06
1.25617e-07
-4.71431e-08
7.10671e-06
6.48037e-08
-3.36704e-08
6.80341e-06
3.86616e-07
3.0795e-07
6.68447e-06
1.32511e-07
3.39245e-08
3.05707e-07
3.28931e-07
8.34683e-06
9.32159e-08
8.40172e-06
2.9427e-09
8.43764e-06
7.37445e-08
8.37371e-06
8.81212e-09
8.22507e-06
1.06192e-07
8.14679e-06
-1.55216e-08
8.44733e-06
-5.79152e-09
8.54916e-06
-1.35463e-07
-8.62098e-08
8.07139e-06
3.59483e-07
7.97491e-06
1.4883e-07
7.6246e-06
3.9052e-07
7.47241e-06
1.33369e-07
7.35839e-06
1.38497e-07
7.26799e-06
3.70978e-08
7.24936e-06
1.46096e-07
7.24042e-06
8.44666e-09
-7.21788e-08
8.31425e-06
3.50064e-07
8.3388e-06
1.64696e-07
8.39035e-06
3.91915e-07
8.34021e-06
1.75353e-07
8.13017e-06
3.01399e-07
8.00521e-06
1.28389e-07
8.30758e-06
1.51674e-07
8.33839e-06
1.15554e-08
-4.36743e-08
8.60655e-06
8.77418e-06
9.23984e-06
9.42401e-06
9.8316e-06
9.94447e-06
1.00904e-05
9.96644e-06
)
;

boundaryField
{
    inlet
    {
        type            calculated;
        value           uniform -8.16327e-06;
    }
    outlet
    {
        type            calculated;
        value           nonuniform 0();
    }
    wall
    {
        type            calculated;
        value           nonuniform List<scalar> 
57
(
0
0
0
0
0
0
0
0
0
0
0
0
0
0
0
0
0
0
0
0
0
0
0
3.15544e-30
0
0
0
0
0
0
0
0
-1.57772e-30
0
0
0
0
0
0
0
0
0
0
0
0
0
0
0
1.26218e-29
0
0
0
0
0
0
0
0
)
;
    }
    procBoundary6to0
    {
        type            processor;
        value           uniform -5.16115e-08;
    }
    procBoundary6to2
    {
        type            processor;
        value           nonuniform List<scalar> 
32
(
-2.22544e-07
1.33061e-07
-2.86483e-08
4.56181e-07
3.60212e-07
2.08989e-07
5.63527e-07
2.69649e-07
6.04501e-07
2.30148e-07
4.48978e-07
1.35648e-07
1.10453e-07
-6.50222e-06
-4.90054e-08
7.10613e-08
4.63399e-07
2.58789e-07
5.27616e-07
2.62811e-07
3.82434e-07
2.0834e-07
-6.95477e-06
-3.50649e-07
1.81793e-07
4.59597e-07
3.07299e-07
5.88636e-07
3.89175e-07
5.66054e-07
-8.71924e-06
3.49595e-07
)
;
    }
    procBoundary6to4
    {
        type            processor;
        value           nonuniform List<scalar> 
27
(
1.90669e-08
-3.84455e-08
-2.10939e-08
-4.19099e-10
7.98213e-08
1.67106e-08
7.22493e-08
2.60303e-08
-2.89871e-07
-4.61217e-08
-4.82958e-08
-1.04927e-07
-3.51678e-08
-2.0146e-08
1.1536e-08
3.87921e-08
1.27763e-08
8.61936e-08
-9.01032e-08
-2.35926e-08
-2.81911e-08
7.01658e-09
6.4274e-08
5.21682e-08
6.22291e-08
4.01121e-08
4.12496e-08
)
;
    }
    procBoundary6to7
    {
        type            processor;
        value           nonuniform List<scalar> 
12
(
6.42288e-06
6.81048e-06
9.16414e-06
4.82411e-06
5.73911e-06
7.88666e-06
5.9755e-06
6.20689e-06
8.92278e-06
7.49835e-06
8.63882e-06
9.83656e-06
)
;
    }
}


// ************************************************************************* //
