/*--------------------------------*- C++ -*----------------------------------*\
| =========                 |                                                 |
| \\      /  F ield         | OpenFOAM: The Open Source CFD Toolbox           |
|  \\    /   O peration     | Version:  4.x                                   |
|   \\  /    A nd           | Web:      www.OpenFOAM.org                      |
|    \\/     M anipulation  |                                                 |
\*---------------------------------------------------------------------------*/
FoamFile
{
    version     2.0;
    format      ascii;
    class       volVectorField;
    location    "53.5";
    object      GField;
}
// * * * * * * * * * * * * * * * * * * * * * * * * * * * * * * * * * * * * * //

dimensions      [1 -2 -1 0 0 0 0];

internalField   nonuniform List<vector> 
108
(
(96.1509 -2.84397 -1.83242)
(40.9613 -1.27867 -1.17801)
(97.5146 -2.96053 -1.74712)
(43.7061 -1.17685 -1.32574)
(99.3619 -2.18805 -0.871269)
(45.6005 -0.629338 -0.955924)
(100.978 -1.51986 -0.690698)
(46.0941 -0.592082 -0.914221)
(102.8 -1.47304 0.664823)
(94.3842 -5.42027 -1.51237)
(33.5262 -2.57914 -0.795412)
(92.2576 -5.61048 -1.12788)
(26.5534 -1.9468 -0.769189)
(91.0321 -4.17002 -0.402478)
(21.8273 -1.41238 -0.447841)
(91.323 -3.14452 0.031272)
(17.3515 -1.34664 -0.397054)
(91.805 -1.87852 0.858035)
(94.1815 -2.8936 -1.34285)
(29.8033 -1.57038 -0.616611)
(89.699 -3.20653 -0.565072)
(19.286 -1.04579 -0.180357)
(87.7911 -2.77869 0.202473)
(11.8293 -0.737179 0.15824)
(87.5007 -1.68217 -0.571557)
(4.07738 -0.273853 0.174296)
(87.6342 0.101604 -0.587237)
(94.4793 -1.97045 -2.20187)
(30.1614 -0.537914 -0.847374)
(89.4567 -1.83962 -1.61973)
(18.8593 -0.755232 -0.784369)
(86.8545 -1.52539 -1.18661)
(9.04021 -0.496223 -0.256489)
(85.337 0.29242 -0.779142)
(1.79358 -0.158089 -0.0385022)
(84.9545 -0.0385124 0.296393)
(96.0458 -2.23605 0.609211)
(41.2825 -0.923407 0.223628)
(97.6524 -1.85789 0.675938)
(43.4079 -0.660905 -0.536814)
(98.7775 -1.43544 -0.0552869)
(45.0745 -0.532396 -0.80435)
(100.24 -0.966904 0.0769991)
(44.2022 0.0255974 -0.795797)
(100.094 -0.311121 0.472335)
(95.0876 -4.69407 1.26698)
(36.4796 -2.49518 0.46391)
(94.2349 -4.95483 1.8727)
(33.3565 -1.78888 0.128286)
(93.5732 -3.87332 1.1352)
(30.0099 -1.25787 -0.231045)
(93.1872 -2.42661 1.06288)
(25.4103 -0.746651 -0.229299)
(93.1703 -1.54492 1.24551)
(94.7996 -2.98983 1.76176)
(32.3009 -1.25992 0.712195)
(90.9639 -2.71919 2.21645)
(23.5957 -0.820306 0.509471)
(88.7506 -1.54128 1.66363)
(16.3197 -0.27035 0.276159)
(88.1911 -0.176049 1.53358)
(9.53557 0.0287179 0.220907)
(88.3234 0.257397 0.830676)
(93.6419 -0.94793 1.22573)
(31.4514 0.0842183 0.997765)
(90.1956 -0.115776 2.38244)
(21.982 -0.0218955 0.613927)
(87.9541 -0.0677871 2.49984)
(14.5624 -0.240296 0.628558)
(87.5855 -0.125035 2.39288)
(9.23111 -0.198393 0.402519)
(88.7391 -0.164862 0.860972)
(96.438 -2.14905 1.47251)
(45.7318 -1.08094 1.06823)
(101.62 -1.78433 2.20704)
(53.8462 -0.555599 0.804651)
(104.964 -0.999609 1.68878)
(58.2375 -0.155618 0.541455)
(107.352 -0.583738 2.1882)
(61.8003 -0.14391 1.52453)
(111.264 -0.784222 2.9595)
(95.6255 -4.36469 1.54201)
(41.6596 -2.47145 0.910409)
(97.64 -4.33421 2.27471)
(46.042 -1.77934 0.918415)
(100.06 -2.89346 2.11286)
(48.8265 -1.3714 0.898077)
(102.153 -2.18969 2.5667)
(50.9797 -1.57804 1.19806)
(104.946 -2.1773 2.39253)
(94.5355 -2.91299 1.79867)
(39.0045 -1.28932 1.22607)
(94.7174 -2.80048 2.86504)
(39.8921 -1.15263 1.16767)
(95.9811 -1.62799 2.83714)
(41.3403 -0.435609 0.914861)
(97.7804 -0.545978 2.70008)
(43.0516 -0.464733 1.04496)
(99.9227 -0.665386 2.49853)
(93.4163 -0.529824 1.54013)
(38.1923 -0.237866 1.03003)
(93.972 -0.826192 2.24576)
(37.8331 -0.567161 0.945941)
(94.8617 -0.896954 2.16368)
(39.3086 -0.844447 0.981232)
(97.5105 -1.09466 2.34324)
(42.6861 -0.960455 0.519628)
(100.36 -1.34032 1.41558)
)
;

boundaryField
{
    inlet
    {
        type            calculated;
        value           uniform (67 0 0);
    }
    outlet
    {
        type            calculated;
        value           nonuniform 0();
    }
    wall
    {
        type            calculated;
        value           uniform (0 0 0);
    }
    procBoundary4to0
    {
        type            processor;
        value           nonuniform List<vector> 
36
(
(97.0966 -2.56732 -4.26112)
(40.3003 -1.12854 -2.72318)
(98.8224 -2.43356 -4.41472)
(43.4417 -0.796942 -2.6145)
(100.266 -1.7184 -3.44291)
(44.4646 -0.607416 -2.40687)
(101.216 -1.4902 -2.68774)
(43.3395 0.0282292 -2.46695)
(101.094 -0.196498 -1.79404)
(95.9219 -5.19521 -4.8473)
(32.7142 -2.54573 -2.51512)
(93.6527 -5.88603 -4.87611)
(26.4776 -2.01906 -1.85886)
(92.1013 -4.57925 -3.29241)
(20.0251 -1.54759 -1.27354)
(90.764 -2.21019 -2.30764)
(12.4832 -1.17128 -1.03033)
(90.4401 0.0589816 -2.14976)
(95.221 -2.32804 -4.88149)
(28.6057 -1.01858 -2.35254)
(90.2288 -2.18278 -4.16095)
(15.2351 -0.359044 -1.10525)
(86.4508 -0.605477 -2.34626)
(4.06135 -0.0372508 -0.307802)
(83.7954 0.815148 -1.628)
(3.20486e-05 2.30893e-06 5.23347e-07)
(81.0898 0.969051 -0.268535)
(94.993 -0.445114 -4.47624)
(30.5374 0.11991 -2.55928)
(90.9802 0.55951 -4.54758)
(20.4471 0.434672 -1.71153)
(89.7107 0.91692 -3.66223)
(14.2428 0.476801 -1.37916)
(89.248 -0.185178 -2.72254)
(10.3843 0.591512 -1.26105)
(89.0874 -0.11638 -1.08359)
)
;
    }
    procBoundary4to5
    {
        type            processor;
        value           nonuniform List<vector> 
12
(
(45.4275 -0.762103 0.734242)
(10.791 -1.32447 0.207763)
(3.39047e-05 -2.59867e-06 7.68555e-06)
(3.38611e-05 -2.79061e-06 2.88847e-06)
(42.0416 0.440557 -0.95705)
(21.6363 -1.06521 -0.216842)
(3.4731 -0.110564 0.123808)
(6.31313 -0.234042 0.519024)
(66.2967 -0.177974 2.15823)
(52.6841 -2.64371 1.15887)
(43.7698 -1.41133 1.16909)
(43.409 -1.96681 0.600751)
)
;
    }
    procBoundary4to6
    {
        type            processor;
        value           nonuniform List<vector> 
27
(
(92.0983 0.839217 -1.80598)
(26.1474 0.533348 -0.570603)
(86.9725 0.822971 -1.23215)
(11.3798 0.156532 -0.374393)
(83.1943 0.137606 -0.674216)
(1.46557 0.0186751 -0.0570199)
(81.543 -0.712157 -0.338392)
(3.30425e-05 7.96703e-07 -6.8627e-07)
(80.7083 -1.24509 -0.430397)
(92.9431 2.23105 3.08354)
(31.0142 0.90584 1.01904)
(89.8472 2.49022 3.23048)
(21.9577 0.598731 0.994689)
(88.0918 1.73089 2.42823)
(14.2713 0.0780863 0.674032)
(86.9349 0.812034 0.457797)
(7.4249 -0.122346 0.627704)
(86.3513 0.38467 -0.0267122)
(94.6 2.11761 2.23761)
(40.0911 0.665493 0.92873)
(94.8952 1.54027 2.18832)
(40.1796 0.333645 0.623211)
(95.0442 0.516843 1.99196)
(39.9252 -0.346398 0.580648)
(95.1666 -0.652445 1.83107)
(37.7302 -0.891493 0.763597)
(96.5471 -0.885591 1.57007)
)
;
    }
}


// ************************************************************************* //
