/*--------------------------------*- C++ -*----------------------------------*\
| =========                 |                                                 |
| \\      /  F ield         | OpenFOAM: The Open Source CFD Toolbox           |
|  \\    /   O peration     | Version:  4.x                                   |
|   \\  /    A nd           | Web:      www.OpenFOAM.org                      |
|    \\/     M anipulation  |                                                 |
\*---------------------------------------------------------------------------*/
FoamFile
{
    version     2.0;
    format      ascii;
    class       volScalarField;
    location    "13";
    object      thCond;
}
// * * * * * * * * * * * * * * * * * * * * * * * * * * * * * * * * * * * * * //

dimensions      [1 1 -3 -1 0 0 0];

internalField   nonuniform List<scalar> 
132
(
193.766
193.607
193.486
193.376
193.16
192.957
192.871
193.081
193.284
193.498
193.279
193.135
192.973
192.997
192.681
192.754
192.741
192.751
193.544
193.067
192.94
192.769
192.727
192.67
192.69
192.61
192.256
193.331
193.004
192.922
193.132
192.612
192.253
192.188
192.096
191.998
192.011
192.038
192.106
192.786
192.323
192.233
192.046
191.91
191.819
191.793
191.721
191.801
192.524
192.145
192.073
191.944
191.737
191.64
191.482
191.701
191.684
192.208
192.164
192.03
191.903
191.403
192.382
192.007
191.698
191.612
191.525
191.555
191.364
191.371
191.527
192.103
191.794
191.61
191.526
191.296
191.321
191.094
191
191.186
191.813
191.7
191.447
191.145
190.99
190.946
190.899
191.064
191.131
191.671
191.516
191.259
191.014
190.841
190.786
190.736
192.183
191.837
191.492
191.378
191.186
190.991
191.129
191.189
191.01
191.849
191.402
191.169
191.062
190.993
190.901
190.673
190.78
190.742
191.786
191.47
191.016
190.872
190.678
190.509
190.567
190.72
190.516
191.615
191.285
190.809
190.551
190.72
190.316
190.397
190.646
190.757
)
;

boundaryField
{
    inlet
    {
        type            zeroGradient;
    }
    outlet
    {
        type            zeroGradient;
    }
    wall
    {
        type            zeroGradient;
    }
    procBoundary0to1
    {
        type            processor;
        value           nonuniform List<scalar> 
12
(
192.907
192.695
192.323
191.887
191.618
191.299
191.161
190.885
190.669
190.698
190.43
190.326
)
;
    }
    procBoundary0to2
    {
        type            processor;
        value           nonuniform List<scalar> 
44
(
192.502
192.467
192.641
192.406
192.637
192.421
192.88
192.62
192.502
192.632
192.502
192.467
191.343
191.163
191.526
191.232
192.319
192.035
191.794
191.659
191.343
191.555
191.343
191.163
190.826
190.75
191.711
191.669
191.401
191.181
191.103
190.883
190.826
190.665
190.826
190.75
191.464
191.039
190.769
190.716
190.652
190.546
190.449
190.411
)
;
    }
    procBoundary0to4
    {
        type            processor;
        value           nonuniform List<scalar> 
36
(
191.812
191.367
191.048
191.015
190.899
190.833
190.618
190.5
190.149
191.392
191.189
190.876
190.591
190.522
190.528
190.503
190.428
190.064
191.311
190.923
190.75
190.42
190.394
190.415
190.313
190.076
190.215
191.35
191.022
190.657
190.524
190.278
190.26
189.955
190.226
190.226
)
;
    }
    procBoundary0to6
    {
        type            processor;
        value           uniform 190.422;
    }
    procBoundary0to7
    {
        type            processor;
        value           uniform 189.951;
    }
}


// ************************************************************************* //
