/*--------------------------------*- C++ -*----------------------------------*\
| =========                 |                                                 |
| \\      /  F ield         | OpenFOAM: The Open Source CFD Toolbox           |
|  \\    /   O peration     | Version:  4.x                                   |
|   \\  /    A nd           | Web:      www.OpenFOAM.org                      |
|    \\/     M anipulation  |                                                 |
\*---------------------------------------------------------------------------*/
FoamFile
{
    version     2.0;
    format      ascii;
    class       volVectorField;
    location    "31";
    object      ddtUrel;
}
// * * * * * * * * * * * * * * * * * * * * * * * * * * * * * * * * * * * * * //

dimensions      [0 1 -2 0 0 0 0];

internalField   nonuniform List<vector> 
108
(
(-6.48541e-08 -3.62191e-08 -2.59101e-08)
(-2.6514e-08 -1.42728e-08 -9.87924e-09)
(-1.70243e-08 -6.49944e-09 -6.38527e-09)
(-1.94429e-08 -3.5844e-09 -5.46686e-09)
(-1.61305e-08 1.63066e-09 -3.74135e-09)
(-1.76163e-08 2.5193e-09 -4.14822e-09)
(-3.42787e-08 2.45408e-09 -6.177e-09)
(-5.34332e-08 1.8538e-09 -1.09694e-08)
(-1.09049e-07 1.07008e-10 -2.0814e-08)
(-2.68255e-08 -2.08264e-08 -1.66742e-08)
(-1.30931e-08 -1.17582e-08 -8.85114e-09)
(-8.76555e-09 -7.99105e-09 -6.81099e-09)
(-1.17858e-08 -4.22869e-09 -5.28096e-09)
(-1.25674e-08 1.78816e-09 -4.22778e-09)
(-1.86323e-08 3.74907e-09 -5.32127e-09)
(-3.79817e-08 3.26768e-09 -8.43476e-09)
(-6.33127e-08 2.24126e-09 -1.51179e-08)
(-1.2717e-07 8.59601e-09 -2.8513e-08)
(-4.20976e-09 -1.10237e-08 -9.81584e-09)
(-1.76892e-09 -7.47202e-09 -7.57758e-09)
(-1.88729e-09 -5.57421e-09 -7.46895e-09)
(-4.88412e-09 -3.51594e-09 -6.10954e-09)
(-7.1547e-09 3.95083e-10 -5.72125e-09)
(-1.60837e-08 2.42494e-09 -7.67303e-09)
(-3.14152e-08 9.00788e-10 -1.07046e-08)
(-4.41892e-08 -1.24348e-09 -1.5963e-08)
(-4.9287e-08 -1.63885e-09 -2.28643e-08)
(5.30989e-09 -5.91186e-09 -7.13881e-09)
(6.06414e-09 -5.38223e-09 -6.97833e-09)
(1.48044e-09 -2.80593e-09 -7.58059e-09)
(9.22862e-10 -2.53618e-09 -6.66235e-09)
(-2.48444e-09 -7.82607e-10 -6.81036e-09)
(-1.16071e-08 2.40055e-10 -7.70699e-09)
(-2.13974e-08 -2.18737e-09 -1.00603e-08)
(-2.55948e-08 -7.06423e-09 -1.62288e-08)
(-7.66356e-09 -2.43076e-08 -3.01343e-08)
(-2.47603e-08 -2.14488e-08 -1.35295e-08)
(-1.38505e-08 -1.09767e-08 -7.43474e-09)
(-7.81157e-09 -7.13326e-09 -1.67041e-09)
(-1.08731e-08 -3.5727e-09 -4.08655e-09)
(-1.1965e-08 8.07302e-10 -5.48621e-09)
(-1.54032e-08 2.09472e-09 -3.69471e-09)
(-3.00653e-08 2.68976e-09 -5.99116e-09)
(-4.51413e-08 2.50798e-09 -8.9703e-09)
(-5.8806e-08 2.98868e-09 -1.26997e-08)
(-9.79218e-09 -1.4997e-08 -1.05217e-08)
(-5.83821e-09 -9.76718e-09 -8.463e-09)
(-2.89934e-09 -6.76138e-09 -5.933e-09)
(-5.11439e-09 -3.53765e-09 -3.94719e-09)
(-8.97261e-09 1.20056e-09 -4.20735e-09)
(-1.50428e-08 3.04111e-09 -4.88495e-09)
(-3.17645e-08 3.04174e-09 -6.51647e-09)
(-4.66054e-08 1.79951e-09 -1.08228e-08)
(-5.71968e-08 2.34283e-09 -1.37985e-08)
(2.38022e-09 -8.7785e-09 -7.95678e-09)
(3.1556e-09 -6.95476e-09 -7.11948e-09)
(3.53502e-09 -4.74849e-09 -5.5072e-09)
(7.03282e-10 -3.02187e-09 -5.03926e-09)
(-4.08086e-09 1.15686e-10 -5.15894e-09)
(-1.21189e-08 1.78552e-09 -6.31518e-09)
(-2.79794e-08 1.04604e-09 -7.20098e-09)
(-3.8168e-08 -5.15192e-10 -1.12845e-08)
(-3.62803e-08 -1.48727e-09 -1.38887e-08)
(7.50397e-09 -5.44169e-09 -6.83924e-09)
(9.89279e-09 -5.11996e-09 -7.05281e-09)
(7.43918e-09 -3.63601e-09 -6.18614e-09)
(5.0079e-09 -2.31871e-09 -5.34942e-09)
(-1.51509e-09 -6.48076e-10 -4.90648e-09)
(-9.48245e-09 2.91507e-10 -6.19462e-09)
(-2.02031e-08 -8.83979e-10 -7.13779e-09)
(-2.68051e-08 -2.89884e-09 -1.04642e-08)
(-2.2091e-08 -6.78184e-09 -1.35012e-08)
(-9.75443e-09 -1.3305e-08 -8.36591e-09)
(-3.25435e-09 -7.0098e-09 -6.257e-09)
(-9.40742e-10 -4.62435e-09 -4.28265e-09)
(-8.52394e-09 -2.14331e-09 -2.60001e-09)
(-5.94851e-09 -9.62953e-11 -2.64897e-09)
(-1.06024e-08 1.24798e-09 -3.36209e-09)
(-2.5386e-08 2.16771e-09 -4.35737e-09)
(-3.34805e-08 2.05808e-09 -5.59252e-09)
(-3.31245e-08 2.21143e-09 -5.69612e-09)
(-9.03632e-10 -8.87413e-09 -7.76071e-09)
(-1.82341e-09 -7.45448e-09 -6.80439e-09)
(1.6449e-09 -8.46908e-09 -5.04353e-09)
(-7.35377e-10 -2.60933e-09 -2.9919e-09)
(-5.86263e-09 1.3412e-09 -2.70931e-09)
(-9.12848e-09 1.24628e-09 -3.57672e-09)
(-2.42443e-08 3.52777e-09 -4.81579e-09)
(-3.40113e-08 1.78902e-09 -6.04824e-09)
(-3.3121e-08 1.26876e-09 -6.19611e-09)
(6.17787e-09 -7.15254e-09 -6.04093e-09)
(6.23565e-09 -5.0146e-09 -6.09726e-09)
(5.59623e-09 -4.05569e-09 -5.11601e-09)
(2.57994e-09 -1.75761e-09 -3.73072e-09)
(-2.23133e-09 1.51938e-10 -3.30109e-09)
(-6.57481e-09 6.31822e-10 -4.20972e-09)
(-2.19763e-08 9.6658e-10 -5.17994e-09)
(-2.9799e-08 3.48247e-10 -5.83392e-09)
(-2.60672e-08 5.06581e-11 -6.00617e-09)
(9.75277e-09 -4.79184e-09 -5.93901e-09)
(1.20889e-08 -4.09752e-09 -6.21459e-09)
(1.04471e-08 -4.07803e-09 -5.67038e-09)
(6.31415e-09 -2.28114e-09 -4.355e-09)
(1.09433e-09 1.07222e-10 -3.65144e-09)
(-5.98387e-09 -5.50297e-11 -4.3753e-09)
(-1.69174e-08 -5.27444e-10 -4.86378e-09)
(-2.43765e-08 -3.63395e-10 -5.0704e-09)
(-2.12095e-08 -1.50159e-09 -5.35714e-09)
)
;

boundaryField
{
    inlet
    {
        type            calculated;
        value           nonuniform 0();
    }
    outlet
    {
        type            calculated;
        value           nonuniform List<vector> 
12
(
(-1.89781e-08 -9.73474e-09 -8.82279e-09)
(-4.21941e-08 3.09485e-08 -1.46016e-08)
(1.56371e-08 3.53059e-08 -3.44586e-08)
(2.20906e-07 -2.01507e-07 -1.51191e-07)
(-5.09573e-09 5.7869e-09 -5.94868e-09)
(3.15558e-09 -1.2591e-09 -6.78374e-09)
(3.9771e-09 -2.42724e-09 -1.62121e-08)
(1.07281e-09 6.68635e-10 6.04003e-09)
(4.46398e-09 8.17839e-10 -5.69274e-09)
(4.01306e-09 2.09297e-09 2.9654e-10)
(-6.52424e-10 -2.49338e-09 -8.7022e-10)
(-1.58726e-09 -2.91437e-09 5.14256e-09)
)
;
    }
    wall
    {
        type            calculated;
        value           nonuniform List<vector> 
63
(
(-5.13551e-08 7.88667e-09 6.97333e-09)
(2.12169e-08 8.52442e-09 -8.29988e-09)
(2.53306e-08 -2.08586e-09 1.04053e-10)
(3.81084e-08 2.10481e-09 4.37503e-09)
(1.03279e-08 1.22901e-08 6.46578e-09)
(-7.08463e-09 -2.47791e-09 -3.87077e-11)
(-1.10464e-08 8.4355e-09 -4.88387e-09)
(1.59326e-08 -4.67676e-09 -5.8202e-09)
(-1.58999e-08 3.42733e-09 -2.11282e-08)
(-8.85714e-11 -2.09814e-08 -3.01803e-09)
(-1.48199e-08 -1.35316e-08 -1.91539e-08)
(-6.65598e-08 1.18765e-08 -1.10164e-08)
(-1.17639e-07 -1.81419e-08 -6.62055e-10)
(-4.90548e-08 -1.37784e-08 -2.98358e-09)
(-3.86822e-08 -1.36701e-08 -5.92554e-09)
(-6.53994e-09 -5.61401e-09 -8.00674e-09)
(-1.0111e-08 2.5027e-08 1.54755e-08)
(-2.57078e-10 2.48543e-08 4.57563e-09)
(8.82149e-09 7.05463e-09 -3.18772e-09)
(1.39573e-08 -4.61687e-09 -1.63258e-08)
(3.23286e-08 7.31721e-09 1.69696e-09)
(1.80354e-08 1.97557e-08 5.10554e-09)
(-2.43272e-08 2.18248e-08 -9.17971e-09)
(-2.05771e-08 5.74584e-09 -9.09344e-09)
(-3.02847e-08 2.10742e-09 3.9326e-09)
(-5.73416e-08 1.96466e-08 -6.59743e-09)
(-5.88631e-08 2.28901e-09 -2.51759e-08)
(3.41599e-09 -6.25662e-09 -1.5828e-09)
(4.60998e-08 2.64179e-09 3.18488e-09)
(-4.14241e-08 -6.22333e-09 -6.51614e-09)
(-5.34608e-08 -8.95835e-10 -2.12484e-08)
(-4.13422e-08 1.95816e-09 -7.07467e-09)
(-5.71668e-07 -5.44576e-08 -9.18017e-08)
(-8.11764e-07 1.21171e-07 -1.67216e-07)
(1.83709e-08 3.82865e-08 -3.04195e-08)
(2.33263e-07 -1.96296e-07 -1.65227e-07)
(2.39265e-08 1.67426e-09 5.40695e-09)
(2.1904e-08 -2.27272e-09 -4.11083e-09)
(3.22537e-08 2.08878e-09 -6.35739e-09)
(4.95639e-08 -3.47454e-09 -2.74478e-09)
(6.16766e-08 -6.26259e-09 -1.1741e-08)
(5.79598e-08 5.70989e-09 -7.78569e-09)
(-4.44891e-08 1.28811e-08 -1.44734e-08)
(4.61111e-08 2.64479e-09 -2.1041e-09)
(5.19212e-08 -1.61388e-08 -1.27231e-08)
(2.62046e-08 -6.82109e-09 -7.2186e-09)
(3.76377e-08 -2.00399e-09 -6.77513e-09)
(1.05614e-08 -5.77661e-09 -6.01308e-09)
(2.05314e-08 -4.30887e-09 -1.35452e-08)
(1.87607e-08 3.26197e-11 1.30593e-09)
(6.14436e-09 1.63215e-08 -1.61707e-09)
(-6.02638e-09 3.77829e-09 -1.09815e-08)
(1.33979e-08 3.07534e-09 -8.51967e-09)
(7.34846e-09 -2.25147e-09 -6.71226e-09)
(-1.22518e-08 -5.1389e-09 -3.88946e-09)
(-2.2401e-08 1.59854e-10 1.89447e-09)
(-2.61172e-08 -4.11128e-09 -3.41392e-09)
(-3.82033e-08 1.90962e-09 -7.88473e-09)
(-4.53934e-08 -1.39805e-10 -1.0356e-08)
(-5.43743e-08 2.53237e-09 2.08881e-09)
(5.45281e-07 -1.17563e-07 -5.5259e-07)
(-4.98406e-09 1.46089e-09 3.74313e-09)
(-5.03956e-09 -3.27992e-09 7.50884e-09)
)
;
    }
    procBoundary3to1
    {
        type            processor;
        value           nonuniform List<vector> 
27
(
(-4.68009e-08 -2.40942e-08 -1.42258e-08)
(-3.66132e-08 -9.22225e-09 -5.37745e-09)
(-2.35549e-08 -3.29622e-09 -3.22869e-09)
(-2.17212e-08 -1.09933e-09 -2.91211e-09)
(-1.9385e-08 -4.61775e-10 -4.00585e-09)
(-1.82762e-08 2.23437e-10 -4.42579e-09)
(-2.75186e-08 1.27185e-09 -4.72776e-09)
(-3.55926e-08 1.59023e-09 -5.97139e-09)
(-4.20816e-08 7.63445e-10 -8.59832e-09)
(-2.35482e-08 -1.72552e-08 -7.08485e-09)
(-2.03218e-08 -8.24347e-09 -6.05521e-09)
(-1.35609e-08 -4.86846e-09 -5.23351e-09)
(-1.4482e-08 -2.0204e-09 -3.93775e-09)
(-1.42414e-08 -4.90321e-10 -4.45975e-09)
(-1.49845e-08 9.11418e-10 -3.8543e-09)
(-2.68588e-08 1.87941e-09 -3.75989e-09)
(-3.64509e-08 2.04098e-09 -5.00292e-09)
(-3.42604e-08 1.83423e-09 -5.89765e-09)
(-1.16583e-08 -1.14561e-08 -5.77255e-09)
(-1.16281e-08 -5.65312e-09 -4.52092e-09)
(-2.17197e-09 -1.22384e-09 -4.05771e-09)
(-4.88537e-09 -1.83216e-09 -3.02299e-09)
(-6.11931e-09 -2.70078e-09 -2.72309e-09)
(-9.50408e-09 4.12019e-10 -2.80067e-09)
(-2.205e-08 1.15663e-09 -3.40678e-09)
(-2.99571e-08 1.25615e-09 -3.58842e-09)
(-2.69426e-08 1.67325e-09 -2.76675e-09)
)
;
    }
    procBoundary3to2
    {
        type            processor;
        value           nonuniform List<vector> 
12
(
(-2.11062e-07 -1.07411e-07 -8.9526e-08)
(-5.61731e-08 -3.59439e-08 -3.19594e-08)
(-1.04058e-08 -1.44559e-08 -1.38304e-08)
(3.02378e-09 -7.58448e-09 -8.16888e-09)
(-4.95572e-08 -3.47393e-08 -2.75842e-08)
(-1.94135e-08 -1.96508e-08 -1.63514e-08)
(-1.95756e-09 -1.02845e-08 -9.71955e-09)
(4.65142e-09 -6.50306e-09 -7.1383e-09)
(-8.2965e-09 -1.47343e-08 -1.09384e-08)
(-1.4235e-09 -1.03778e-08 -9.04486e-09)
(5.78923e-09 -6.91846e-09 -6.53234e-09)
(8.18237e-09 -5.35336e-09 -5.47832e-09)
)
;
    }
    procBoundary3to7
    {
        type            processor;
        value           nonuniform List<vector> 
36
(
(2.19864e-09 -7.08025e-09 -4.03278e-09)
(2.64198e-10 -4.9691e-09 -2.91738e-09)
(3.00002e-09 -3.77456e-09 -4.57557e-09)
(1.57268e-09 -1.92839e-09 -1.60206e-09)
(-2.30704e-09 -2.29018e-10 -3.96504e-11)
(-8.74448e-09 6.77217e-10 -2.02357e-09)
(-2.04961e-08 2.08454e-09 -1.89988e-09)
(-2.54091e-08 1.90102e-09 -2.37554e-09)
(-2.34381e-08 2.1008e-09 -1.81821e-09)
(5.06494e-09 -5.80776e-09 -5.29275e-09)
(4.33397e-09 -4.27437e-09 -3.08035e-09)
(5.1272e-09 -3.81717e-09 -2.74838e-09)
(4.0248e-09 -2.30493e-09 -2.04563e-09)
(-1.90054e-09 1.51042e-10 -1.62438e-09)
(-6.73697e-09 7.47551e-10 -2.17109e-09)
(-1.98484e-08 2.07371e-09 -2.6684e-09)
(-2.60008e-08 2.77126e-09 -2.79231e-09)
(-2.20266e-08 2.60497e-09 -2.08214e-09)
(8.92071e-09 -4.18878e-09 -4.19757e-09)
(8.07439e-09 -3.35799e-09 -3.9722e-09)
(7.69238e-09 -2.70192e-09 -3.83933e-09)
(5.45185e-09 -2.03589e-09 -2.08716e-09)
(-8.62152e-10 2.31544e-11 -1.55041e-09)
(-5.73486e-09 7.62553e-10 -2.5408e-09)
(-1.75413e-08 1.14256e-09 -3.65443e-09)
(-2.38183e-08 2.15057e-09 -2.44264e-09)
(-1.98674e-08 2.17362e-09 -1.53881e-09)
(9.59151e-09 -3.38207e-09 -4.74062e-09)
(1.07078e-08 -2.87424e-09 -4.67049e-09)
(9.83087e-09 -2.61379e-09 -3.9613e-09)
(6.83156e-09 -1.94887e-09 -2.65649e-09)
(1.46799e-09 3.45695e-11 -2.4179e-09)
(-4.69916e-09 7.88207e-10 -2.55702e-09)
(-1.5419e-08 1.33237e-09 -2.82442e-09)
(-2.10772e-08 1.75081e-09 -1.75449e-09)
(-1.92799e-08 1.95724e-09 -1.31664e-09)
)
;
    }
}


// ************************************************************************* //
