/*--------------------------------*- C++ -*----------------------------------*\
| =========                 |                                                 |
| \\      /  F ield         | OpenFOAM: The Open Source CFD Toolbox           |
|  \\    /   O peration     | Version:  4.x                                   |
|   \\  /    A nd           | Web:      www.OpenFOAM.org                      |
|    \\/     M anipulation  |                                                 |
\*---------------------------------------------------------------------------*/
FoamFile
{
    version     2.0;
    format      ascii;
    class       volScalarField;
    location    "31";
    object      Ksl;
}
// * * * * * * * * * * * * * * * * * * * * * * * * * * * * * * * * * * * * * //

dimensions      [1 -3 -1 0 0 0 0];

internalField   nonuniform List<scalar> 
108
(
5078.8
2840.08
5024.95
2728.99
5329.68
2654.33
6820.64
2628.11
15473.7
5863.84
3011.61
5948.03
2883.22
6461.1
2826.36
8621.5
2828.96
17992.1
4973.6
2825.08
4931.33
2698.61
5177.13
2545.68
6059.15
2241.21
8107.51
3742.38
2480.89
3700.35
2386.63
3797.74
2201.86
4178.81
1828.96
4617.37
18018
3552.42
26102.8
3482.35
42122.9
3415.73
49294.9
3328.78
18774.6
19142.6
3555.45
22063.3
3451.98
25171.5
3384.56
27117
3326.19
16652.1
13031.3
3412.79
14185.2
3248
14920.7
2961.91
13069.7
2481.39
5931.29
5357.41
2891.97
5410.79
2782.82
5786.59
2543.64
6604.32
2006.7
5081.59
371831
3859.35
1e+10
3891.02
1e+10
3940.68
2.8479e+09
4190.94
13088.4
56064.8
3686.12
207672
3616.42
503878
3529.36
107534
3408.46
23443.6
53055.7
3655.57
280445
3550.42
106964
3506.45
20565.7
3571.55
6648.76
6716.15
3070.44
6712.4
2927.47
7033.52
2706.71
7247.22
2177.54
6352.07
)
;

boundaryField
{
    inlet
    {
        type            zeroGradient;
    }
    outlet
    {
        type            zeroGradient;
    }
    wall
    {
        type            zeroGradient;
    }
    procBoundary3to1
    {
        type            processor;
        value           nonuniform List<scalar> 
27
(
5262.18
2931.51
5365.16
2825.09
5746.21
2631.79
6517.53
2294.21
6685.58
26597.5
3648.52
79248.3
3624.53
1e+10
3695.34
100185
3914.56
8399.72
100479
3735.65
99288
3682.41
49012.4
3613.73
19402.3
3631.88
7544.08
)
;
    }
    procBoundary3to2
    {
        type            processor;
        value           nonuniform List<scalar> 
12
(
2934.18
3073.22
2934.26
2618.05
3610.11
3615.55
3482.06
2969.68
3829
3715.19
3706.47
3175.53
)
;
    }
    procBoundary3to7
    {
        type            processor;
        value           nonuniform List<scalar> 
36
(
1e+10
3871.74
1e+10
3806.33
1e+10
3771.75
1e+10
3962.15
13754.3
107740
3891
310590
3881.86
60052.8
3915.03
16849.7
4037.94
6861.03
18346.4
3547.33
20328.5
3423.94
20398.5
3274.36
16853
2963.88
13501.6
6841.34
3097.84
7124.63
3011.56
7970.1
2962.01
9906.77
2858.96
15257.3
)
;
    }
}


// ************************************************************************* //
