/*--------------------------------*- C++ -*----------------------------------*\
| =========                 |                                                 |
| \\      /  F ield         | OpenFOAM: The Open Source CFD Toolbox           |
|  \\    /   O peration     | Version:  4.x                                   |
|   \\  /    A nd           | Web:      www.OpenFOAM.org                      |
|    \\/     M anipulation  |                                                 |
\*---------------------------------------------------------------------------*/
FoamFile
{
    version     2.0;
    format      ascii;
    class       volScalarField;
    location    "31";
    object      Qsource;
}
// * * * * * * * * * * * * * * * * * * * * * * * * * * * * * * * * * * * * * //

dimensions      [1 -1 -3 0 0 0 0];

internalField   nonuniform List<scalar> 
108
(
9.11092e+09
4.86879e+09
7.343e+09
4.28843e+09
5.54689e+09
4.82463e+09
5.95639e+09
6.14416e+09
2.96383e+09
6.86992e+09
9.90696e+09
5.60413e+09
6.61131e+09
6.73687e+09
6.13948e+09
6.51398e+09
6.65667e+09
3.93845e+09
7.28859e+09
7.83405e+09
7.74624e+09
6.01959e+09
6.54082e+09
6.49e+09
7.29143e+09
8.20296e+09
4.32462e+09
5.95505e+09
6.56182e+09
6.33264e+09
9.02515e+09
7.12561e+09
8.01502e+09
5.08475e+09
8.33413e+09
5.8555e+09
8.53725e+09
8.03597e+09
1.01847e+10
1.0548e+10
8.35615e+09
7.84958e+09
6.69108e+09
8.32494e+09
7.2577e+09
7.7783e+09
8.13831e+09
8.40089e+09
9.10965e+09
7.77544e+09
8.0927e+09
9.60597e+09
8.99725e+09
5.76284e+09
1.27493e+10
9.93869e+09
9.04168e+09
1.14121e+10
8.493e+09
1.01895e+10
8.17186e+09
9.87354e+09
7.71416e+09
9.03512e+09
8.16078e+09
7.91427e+09
9.08008e+09
9.76435e+09
8.77787e+09
7.80135e+09
9.98826e+09
6.12326e+09
8.09101e+09
1.08293e+10
8.99922e+09
1.01599e+10
6.45934e+09
7.65249e+09
8.91828e+09
8.36328e+09
6.86908e+09
9.67241e+09
6.23322e+09
8.16889e+09
5.03777e+09
4.39723e+09
9.55225e+09
7.71561e+09
1.1091e+10
5.14056e+09
6.06069e+09
1.03669e+10
9.20877e+09
7.30121e+09
7.39194e+09
1.00015e+10
8.15899e+09
9.36105e+09
4.9456e+09
9.31494e+09
5.84447e+09
6.35247e+09
8.02401e+09
7.01153e+09
9.78812e+09
7.05286e+09
1.08886e+10
8.25143e+09
)
;

boundaryField
{
    inlet
    {
        type            calculated;
        value           nonuniform 0();
    }
    outlet
    {
        type            calculated;
        value           uniform 0;
    }
    wall
    {
        type            calculated;
        value           uniform 0;
    }
    procBoundary3to1
    {
        type            processor;
        value           nonuniform List<scalar> 
27
(
4.58013e+09
8.11706e+09
6.85393e+09
9.97389e+09
6.84263e+09
6.8488e+09
6.10991e+09
7.31378e+09
4.62565e+09
7.96281e+09
8.51804e+09
7.19395e+09
6.82841e+09
5.73981e+09
9.21253e+09
9.24202e+09
1.29979e+10
4.30196e+09
9.30743e+09
7.83006e+09
5.42302e+09
1.10578e+10
8.76329e+09
1.05887e+10
7.42488e+09
9.67144e+09
3.37553e+09
)
;
    }
    procBoundary3to2
    {
        type            processor;
        value           nonuniform List<scalar> 
12
(
5.5973e+09
5.45201e+09
7.51438e+09
6.14599e+09
1.1229e+10
6.4608e+09
7.72476e+09
5.79098e+09
9.17382e+09
5.78067e+09
1.02715e+10
8.66135e+09
)
;
    }
    procBoundary3to7
    {
        type            processor;
        value           nonuniform List<scalar> 
36
(
9.93606e+09
9.03672e+09
6.3674e+09
7.90887e+09
1.10418e+10
1.24882e+10
8.01298e+09
6.65212e+09
6.48815e+09
7.51948e+09
1.13449e+10
7.39049e+09
8.11483e+09
8.39683e+09
6.9453e+09
7.93072e+09
7.76753e+09
6.9708e+09
5.21549e+09
9.37443e+09
6.83582e+09
8.9115e+09
8.20281e+09
1.04434e+10
8.55573e+09
9.11841e+09
6.84251e+09
7.52334e+09
8.4024e+09
9.38465e+09
6.87557e+09
8.3013e+09
8.90402e+09
8.35667e+09
7.88909e+09
3.80282e+09
)
;
    }
}


// ************************************************************************* //
