/*--------------------------------*- C++ -*----------------------------------*\
| =========                 |                                                 |
| \\      /  F ield         | OpenFOAM: The Open Source CFD Toolbox           |
|  \\    /   O peration     | Version:  4.x                                   |
|   \\  /    A nd           | Web:      www.OpenFOAM.org                      |
|    \\/     M anipulation  |                                                 |
\*---------------------------------------------------------------------------*/
FoamFile
{
    version     2.0;
    format      ascii;
    class       volScalarField;
    location    "18";
    object      QWallFluidCoeff;
}
// * * * * * * * * * * * * * * * * * * * * * * * * * * * * * * * * * * * * * //

dimensions      [1 -1 -3 -1 0 0 0];

internalField   nonuniform List<scalar> 
132
(
0
0
0
0
0
0
0
0
0
0
0
0
0
0
0
0
0
0
0
0
0
0
0
0
0
0
0
-1.61975e+06
-2.98408e+06
-1.6351e+06
-3.14161e+06
-1.6411e+06
-3.41497e+06
-1.59671e+06
-3.99748e+06
-1.87148e+06
0
0
0
0
0
0
0
0
0
0
0
0
0
0
0
0
0
0
0
0
0
0
0
0
0
-1.25655e+06
-2.67886e+06
-1.17104e+06
-2.66987e+06
-1.08337e+06
-2.61714e+06
-982975
-2.39193e+06
-946051
0
0
0
0
0
0
0
0
0
0
0
0
0
0
0
0
0
0
0
0
0
0
0
-1.60717e+06
-2.90365e+06
-1.67115e+06
-3.04282e+06
-1.71762e+06
-3.34161e+06
-1.7238e+06
-4.11134e+06
-1.86132e+06
-1.29541e+06
-2.43868e+06
-1.34793e+06
-1.11976e+06
-2.64153e+06
-1.07486e+06
-2.6133e+06
-986959
-2.50764e+06
-810636
-2.1684e+06
-867525
-1.52354e+06
-2.77093e+06
-1.55313e+06
-2.7679e+06
-1.52195e+06
-2.71373e+06
-1.45692e+06
-2.52265e+06
-1.44061e+06
-3.86192e+06
-5.95451e+06
-3.74763e+06
-5.98457e+06
-3.71496e+06
-6.11527e+06
-3.9374e+06
-6.42591e+06
-4.89362e+06
)
;

boundaryField
{
    inlet
    {
        type            calculated;
        value           nonuniform 0();
    }
    outlet
    {
        type            calculated;
        value           uniform 0;
    }
    wall
    {
        type            calculated;
        value           uniform 0;
    }
    procBoundary7to0
    {
        type            processor;
        value           uniform 0;
    }
    procBoundary7to1
    {
        type            processor;
        value           uniform 0;
    }
    procBoundary7to3
    {
        type            processor;
        value           uniform 0;
    }
    procBoundary7to5
    {
        type            processor;
        value           uniform 0;
    }
    procBoundary7to6
    {
        type            processor;
        value           uniform 0;
    }
}


// ************************************************************************* //
