/*--------------------------------*- C++ -*----------------------------------*\
| =========                 |                                                 |
| \\      /  F ield         | OpenFOAM: The Open Source CFD Toolbox           |
|  \\    /   O peration     | Version:  4.x                                   |
|   \\  /    A nd           | Web:      www.OpenFOAM.org                      |
|    \\/     M anipulation  |                                                 |
\*---------------------------------------------------------------------------*/
FoamFile
{
    version     2.0;
    format      ascii;
    class       volVectorField;
    location    "18";
    object      U;
}
// * * * * * * * * * * * * * * * * * * * * * * * * * * * * * * * * * * * * * //

dimensions      [0 1 -1 0 0 0 0];

internalField   nonuniform List<vector> 
132
(
(0.00243536 7.22524e-05 -0.000215877)
(0.0274548 0.000236836 0.000462734)
(0.000886904 6.58785e-05 -0.000111603)
(0.0269808 0.000227126 0.000871)
(-2.29664e-07 2.12499e-08 -1.02965e-09)
(0.0261669 0.000163234 0.00126123)
(-9.31817e-08 3.3488e-10 1.13054e-08)
(0.0242354 -0.000551787 0.00143778)
(0.00279105 0.000847418 -0.00109864)
(0.00434356 0.000413973 -0.000328304)
(0.0295487 0.000505293 0.000731102)
(0.00384937 0.000580548 -0.000467571)
(0.0300402 0.000338366 0.000851522)
(0.00361278 0.000862892 -0.000765701)
(0.0302769 0.000247857 0.00114005)
(0.00398464 0.00153155 -0.00159134)
(0.0284568 -0.000860722 0.00227181)
(0.00603048 0.00288246 -0.00516092)
(0.00672757 0.000133235 -0.000506098)
(0.0298217 0.000531879 0.000385651)
(0.00648433 0.000231287 -0.000625759)
(0.0304744 0.000464014 0.000935008)
(0.00667849 0.000810452 -0.00115144)
(0.0308899 -6.36646e-05 0.00114507)
(0.00789451 0.00303237 -0.00279311)
(0.0293403 -0.00262792 0.00222595)
(0.0101333 0.0141955 -0.0112253)
(0.0158854 0.000482545 -0.00129419)
(0.034411 0.000482614 -0.000650835)
(0.016266 0.000757464 -0.00143611)
(0.0368228 6.80885e-05 0.000135053)
(0.016277 0.00162706 -0.00196437)
(0.0412515 -0.00082876 0.00169082)
(0.015028 0.00407862 -0.00376607)
(0.0497716 -0.00336869 0.00504639)
(0.00951669 0.0135643 -0.00986119)
(-2.48491e-07 1.1201e-08 -7.54518e-09)
(0.0269776 0.000115193 0.000799893)
(-1.82582e-07 -7.7653e-11 -1.12329e-08)
(0.0274968 0.00125632 0.000723126)
(0.00148559 -0.000165874 -0.000297861)
(0.0286815 0.00212242 0.00181689)
(0.00446766 -0.000690271 -0.00266323)
(-2.00274e-07 -2.48021e-09 -2.20548e-08)
(0.0256649 -0.00026758 0.000460544)
(-2.38565e-07 1.9492e-08 -1.01172e-08)
(0.0253755 1.58671e-06 0.00062356)
(-1.90425e-07 1.76526e-09 -2.33893e-08)
(0.0249292 -0.000211607 0.000771212)
(0.00306452 -0.000207008 -0.000911155)
(0.0239128 -0.000185895 0.00138928)
(0.0104544 -0.00317088 -0.00480713)
(0.00220394 0.000142843 -0.00017968)
(0.0268347 7.22896e-06 0.000510605)
(0.000346015 4.16477e-05 -3.64496e-05)
(0.0261864 0.000164985 0.00106164)
(-1.77136e-07 -1.31471e-08 -2.14342e-08)
(0.0244905 -0.000614322 0.00133499)
(-8.79224e-08 1.95013e-09 -5.34429e-09)
(0.0200014 -0.00197091 0.00202825)
(0.00209206 0.000291633 -0.000521246)
(0.0116601 0.000380553 -0.000920157)
(0.0304005 0.000472099 -0.000207325)
(0.0107326 0.000541767 -0.0010711)
(0.0303724 8.91165e-06 0.000430308)
(0.00977702 0.000905032 -0.00110231)
(0.0297032 -0.000183772 0.00167424)
(0.00861176 0.00120414 -0.00119543)
(0.0263967 -0.00104534 0.00364651)
(0.00814169 0.00125972 0.00078116)
(-1.56981e-07 -9.27006e-09 -2.20944e-08)
(0.0244168 0.000299303 0.000233696)
(-6.99435e-08 2.58919e-09 -1.55684e-09)
(0.0208236 0.00128184 -0.000410864)
(0.00652016 -0.000913765 -0.00245803)
(0.00332722 0.000150585 0.000176813)
(0.0282449 0.000494142 0.000398308)
(0.00210577 0.000189769 0.000200315)
(0.0286442 0.000386938 0.000431223)
(0.00132551 0.000227079 0.000195375)
(0.0289024 0.000140009 -0.000781275)
(0.00124587 0.000430566 0.000159633)
(0.0264762 -0.00197021 -0.0021856)
(0.00375392 0.00204796 -0.000180703)
(0.00583078 0.000269798 0.000111862)
(0.0287336 0.000626031 0.00094494)
(0.0057626 0.000426287 0.000171164)
(0.0294324 0.000521749 0.000748805)
(0.00711036 0.00112432 0.000411105)
(0.03036 2.93467e-05 0.000693208)
(0.00955331 0.0036229 0.00075302)
(0.0302447 -0.00234209 0.000235701)
(0.0121749 0.0176543 0.00206253)
(0.0158772 0.00061324 -0.00022351)
(0.0335535 0.000442575 0.000219826)
(0.0168737 0.000805949 -3.89348e-05)
(0.0357982 -0.000171932 0.000611837)
(0.0174638 0.0015195 0.000538386)
(0.0402506 -0.00107998 0.00125041)
(0.0172341 0.00382042 0.00178863)
(0.0522997 -0.00313786 0.00152413)
(0.0123197 0.0141421 0.00451963)
(0.012013 -0.00284583 0.000876574)
(0.0272207 0.00197325 -0.000801436)
(0.0119239 -0.00499104 0.00110611)
(0.0101886 3.95907e-05 -9.53468e-06)
(0.0298667 2.16087e-05 0.000228141)
(0.00979095 4.96348e-05 -0.000177391)
(0.0297503 -6.0921e-05 8.31256e-05)
(0.00877733 0.000111087 -0.000356705)
(0.0280683 -0.000320208 0.000216983)
(0.00683948 0.000144778 -0.000879536)
(0.0235463 -0.000565323 0.0013597)
(0.00722468 0.000312542 -0.00185398)
(0.0149155 0.000127121 -7.50738e-05)
(0.0316354 0.000239122 4.21624e-05)
(0.0153817 0.000354513 -0.0005452)
(0.0317808 0.000467506 -0.000463963)
(0.015042 0.000841846 -0.00120551)
(0.0311185 0.000693072 -0.000789909)
(0.0140004 0.00224225 -0.00232762)
(0.0284441 -0.000250531 -0.000517168)
(0.0127904 0.00492549 -0.00331636)
(0.0199765 0.00014455 -0.00076161)
(0.0346347 3.02222e-06 -0.000608496)
(0.0193453 0.000412669 -0.00119921)
(0.0348839 -7.35534e-05 -0.000552923)
(0.0191788 0.00092383 -0.00213012)
(0.0360703 -0.000158564 2.83909e-05)
(0.0201379 0.0022552 -0.00488756)
(0.0382313 -0.000636513 0.00179653)
(0.0211598 0.00542988 -0.0157715)
)
;

boundaryField
{
    inlet
    {
        type            fixedValue;
        value           nonuniform 0();
    }
    outlet
    {
        type            zeroGradient;
    }
    wall
    {
        type            fixedValue;
        value           uniform (0 0 0);
    }
    procBoundary7to0
    {
        type            processor;
        value           uniform (0.027168 7.43892e-05 -0.0002562);
    }
    procBoundary7to1
    {
        type            processor;
        value           uniform (0.00455111 -0.000551001 -0.000222495);
    }
    procBoundary7to3
    {
        type            processor;
        value           nonuniform List<vector> 
36
(
(-2.68618e-07 2.66915e-08 -3.50586e-08)
(0.0274596 -0.000226149 0.00066526)
(-3.13808e-07 3.59805e-08 -8.22253e-09)
(0.0277563 0.00016308 0.000960401)
(-2.53445e-07 2.73842e-09 1.82518e-08)
(0.0277408 0.000918282 0.000911782)
(0.000257321 3.6347e-05 -9.54979e-05)
(0.0264621 0.000355066 0.00168648)
(0.00371482 0.00139329 -0.00294772)
(0.00166802 2.90842e-05 -5.44172e-05)
(0.0281143 -0.00044082 0.000868997)
(-2.88158e-07 2.67196e-08 -1.43638e-08)
(0.0284716 -7.53207e-05 0.0013629)
(-2.23706e-07 3.12056e-09 1.46472e-08)
(0.029514 0.000139673 0.00184988)
(0.00314834 0.000476755 -0.00086187)
(0.0308625 -0.000422528 0.00252194)
(0.00991514 0.00365568 -0.010955)
(0.00243938 0.000114291 -6.47389e-05)
(0.02833 0.000341583 0.000806129)
(0.00014245 1.00456e-05 2.43072e-06)
(0.0290052 0.000284748 0.00168743)
(-1.97702e-07 -1.64696e-08 -7.44935e-10)
(0.0300308 -0.000695623 0.00233819)
(0.00228297 0.000797288 3.72748e-05)
(0.0326282 -0.00393323 0.00280787)
(0.00596072 0.00632471 -0.00224003)
(0.0154269 0.000364599 -0.00077962)
(0.0332642 0.00058503 -0.000371331)
(0.0149238 0.000413465 -0.000422155)
(0.0347587 9.39348e-05 0.000651931)
(0.0141417 0.000996674 -0.000293731)
(0.0378845 -0.000322487 0.00214103)
(0.0125133 0.0022666 -0.000521912)
(0.0460618 -0.0023622 0.00535733)
(0.00591372 0.00432579 -0.00251189)
)
;
    }
    procBoundary7to5
    {
        type            processor;
        value           nonuniform List<vector> 
44
(
(0.0289394 -0.0004723 0.000322775)
(0.00326096 -0.000655387 -0.000185209)
(0.0290965 -0.000204015 0.000740289)
(0.00217329 -0.000713847 -0.000201138)
(0.0284911 0.000463895 0.000547517)
(0.00166524 -0.000845225 -0.000311872)
(0.025513 0.00281791 0.000447699)
(0.00523678 -0.00302661 -0.0018047)
(-2.12043e-07 -2.73887e-09 -2.27924e-08)
(0.0264917 -1.37066e-05 0.000642861)
(-2.19482e-07 1.58105e-08 -1.7498e-09)
(0.0269161 0.000235463 0.000904497)
(-1.73004e-07 1.23974e-08 -3.51153e-09)
(0.0263423 0.000936623 0.000602877)
(-8.51703e-08 7.03932e-09 -3.49384e-09)
(0.0251592 0.00201089 -0.000299159)
(0.00316199 0.000861461 -0.000476419)
(-2.12043e-07 -2.73887e-09 -2.27924e-08)
(0.0264917 -1.37066e-05 0.000642861)
(0.0264917 -1.37066e-05 0.000642861)
(0.000881599 -6.52425e-05 7.35185e-05)
(0.0261095 -6.07352e-05 0.000741369)
(0.00513886 -0.00136094 0.000903408)
(0.0300281 8.64867e-05 3.70466e-05)
(0.00536885 -0.0025739 0.00155215)
(0.0273033 0.00285147 -0.0025494)
(0.00611891 -0.00452819 0.00178625)
(0.00258087 -0.000149556 0.000164874)
(0.0267744 -0.000235237 0.000791411)
(0.000881599 -6.52425e-05 7.35185e-05)
(0.0261095 -6.07352e-05 0.000741369)
(0.0261095 -6.07352e-05 0.000741369)
(0.0121169 -0.00137039 0.000543583)
(0.0293045 0.000113634 0.000252265)
(0.012608 -0.00361991 1.04148e-05)
(0.0328473 0.00154015 -4.58825e-05)
(0.00922241 -0.00518302 0.0007475)
(0.0113255 -0.000512569 0.000375098)
(0.0298796 -0.000268393 0.000715267)
(0.0118824 -0.000778908 0.000466215)
(0.0300068 -0.00030542 0.000384861)
(0.0121169 -0.00137039 0.000543583)
(0.0293045 0.000113634 0.000252265)
(0.0293045 0.000113634 0.000252265)
)
;
    }
    procBoundary7to6
    {
        type            processor;
        value           nonuniform List<vector> 
12
(
(0.0285395 0.000470061 0.000348862)
(0.0288742 0.000558511 -0.000216507)
(0.0326458 0.000662721 -0.000884118)
(0.0257844 0.000296092 0.000174837)
(0.0270059 0.000127953 -0.000237244)
(0.0300678 0.000639064 -0.000543709)
(0.0278474 4.4705e-05 0.000420617)
(0.0285126 0.000662472 0.000763912)
(0.0318948 0.000856296 8.981e-05)
(0.0294201 1.28409e-05 0.000321215)
(0.0310182 0.00018301 0.000401229)
(0.0343232 0.000187223 -0.000439162)
)
;
    }
}


// ************************************************************************* //
