/*--------------------------------*- C++ -*----------------------------------*\
| =========                 |                                                 |
| \\      /  F ield         | OpenFOAM: The Open Source CFD Toolbox           |
|  \\    /   O peration     | Version:  4.x                                   |
|   \\  /    A nd           | Web:      www.OpenFOAM.org                      |
|    \\/     M anipulation  |                                                 |
\*---------------------------------------------------------------------------*/
FoamFile
{
    version     2.0;
    format      ascii;
    class       volVectorField;
    location    "18";
    object      UsPrev;
}
// * * * * * * * * * * * * * * * * * * * * * * * * * * * * * * * * * * * * * //

dimensions      [0 1 -1 0 0 0 0];

internalField   nonuniform List<vector> 
132
(
(-2.46882e-07 1.34174e-08 -2.99998e-08)
(-2.74943e-07 1.94735e-08 -1.82567e-08)
(-2.91902e-07 1.96358e-08 -1.03461e-08)
(-2.965e-07 9.7278e-09 -6.89302e-09)
(-2.39345e-07 2.01795e-08 3.65728e-10)
(-1.3909e-07 2.56614e-08 1.78198e-08)
(-1.02457e-07 -1.24591e-09 1.24429e-08)
(-6.56576e-08 2.20548e-09 7.49728e-09)
(-2.54868e-08 6.04577e-09 -3.01488e-09)
(-2.31416e-07 2.09491e-08 -2.8994e-08)
(-2.62637e-07 1.94447e-08 -2.05523e-08)
(-2.79626e-07 2.00627e-08 -1.31719e-08)
(-3.02642e-07 1.39653e-09 1.08983e-08)
(-2.12764e-07 5.38887e-09 -5.78578e-09)
(-1.63807e-07 -4.5177e-09 7.61628e-09)
(-1.19093e-07 -6.30147e-09 9.47022e-09)
(-8.1365e-08 -3.72219e-09 7.28077e-09)
(-3.86415e-08 3.58806e-09 -4.41548e-09)
(-1.87485e-07 -6.07916e-09 -1.46959e-08)
(-2.34451e-07 2.15748e-08 -1.41165e-08)
(-2.44307e-07 1.06286e-08 -1.34917e-08)
(-2.43804e-07 -1.12615e-09 -7.68012e-09)
(-1.99075e-07 -1.20064e-08 -1.00527e-08)
(-1.53254e-07 -2.25711e-08 -4.49406e-09)
(-1.16009e-07 -2.11866e-09 -3.2102e-09)
(-7.84441e-08 -7.85618e-09 2.50148e-09)
(-4.52617e-08 -4.93995e-09 -9.68493e-09)
(-1.21317e-07 -2.05878e-09 -1.18243e-08)
(-1.60646e-07 1.95962e-08 -3.04443e-08)
(-1.51654e-07 -8.86382e-10 -1.37634e-08)
(-1.70477e-07 5.29696e-09 -1.083e-08)
(-1.47977e-07 -1.56618e-08 -7.43008e-10)
(-1.56113e-07 -1.85963e-08 -9.67727e-09)
(-7.85895e-08 -2.36195e-09 3.85684e-09)
(-3.8329e-08 -5.50035e-09 -5.99283e-09)
(-1.98135e-08 -8.041e-10 -7.79499e-09)
(-2.58544e-07 1.17255e-08 -7.41618e-09)
(-2.61801e-07 -4.29695e-09 -1.34285e-08)
(-1.92801e-07 9.1869e-10 -1.06501e-08)
(-1.4513e-07 5.35959e-09 1.07636e-09)
(-9.91474e-08 5.54915e-09 3.84498e-09)
(-5.88889e-08 4.45657e-09 2.40991e-09)
(-2.64817e-08 3.90952e-09 -4.27592e-09)
(-2.10205e-07 -2.94009e-09 -2.12043e-08)
(-2.31371e-07 1.04465e-08 -1.14123e-08)
(-2.48008e-07 1.89311e-08 -8.77542e-09)
(-2.52522e-07 5.29017e-09 -1.40601e-08)
(-2.00196e-07 1.60829e-09 -2.14269e-08)
(-1.29892e-07 4.53118e-09 -1.3169e-09)
(-9.14987e-08 -5.11716e-10 -1.85522e-09)
(-6.52846e-08 3.20924e-09 -3.93174e-10)
(-2.70986e-08 -1.51925e-09 -2.65017e-09)
(-1.85978e-07 -6.49373e-09 -9.73862e-09)
(-1.92473e-07 8.0563e-09 -1.05701e-08)
(-2.13267e-07 -1.82529e-09 -1.87699e-08)
(-2.37756e-07 1.44262e-08 -1.35828e-08)
(-1.86877e-07 -1.51539e-08 -2.01534e-08)
(-1.34639e-07 -2.73381e-08 -1.31114e-08)
(-9.72751e-08 -4.64714e-10 -3.43027e-09)
(-5.28676e-08 -2.89643e-09 -2.25515e-09)
(-4.57586e-08 -1.51499e-08 -5.38606e-09)
(-1.1884e-07 6.01992e-09 2.08116e-09)
(-1.33624e-07 8.32776e-09 -2.04096e-08)
(-1.42064e-07 -1.80615e-08 -2.62859e-08)
(-1.83035e-07 1.31248e-08 -1.20272e-09)
(-1.32339e-07 -4.34555e-09 -6.98608e-09)
(-8.91598e-08 -1.516e-08 -2.65899e-08)
(-3.98097e-08 6.46349e-09 -1.16774e-08)
(-2.99343e-08 -2.23116e-09 -3.17632e-09)
(-2.0922e-08 -9.86268e-09 -4.22568e-09)
(-1.6701e-07 -8.09857e-09 -2.27845e-08)
(-1.2024e-07 -4.6124e-10 -6.59032e-09)
(-7.99351e-08 4.61189e-09 -1.20101e-09)
(-5.23829e-08 1.99862e-09 -6.21393e-09)
(-2.04922e-08 3.6161e-10 -4.90355e-09)
(-1.69215e-07 -1.57694e-08 -1.65483e-08)
(-2.08181e-07 -1.90079e-09 7.83121e-10)
(-1.9784e-07 7.74093e-09 1.93085e-09)
(-1.84005e-07 4.91364e-10 -1.83468e-08)
(-1.65045e-07 -5.74006e-09 -2.79616e-08)
(-1.19975e-07 -2.41172e-09 -1.48608e-09)
(-8.22014e-08 5.36179e-09 3.04601e-09)
(-5.51771e-08 5.79185e-09 1.2275e-09)
(-2.35318e-08 -4.39439e-09 -1.88427e-09)
(-1.33151e-07 -7.93358e-09 -1.67671e-09)
(-1.33897e-07 3.42485e-09 -1.20036e-08)
(-1.63262e-07 -9.17773e-09 7.369e-09)
(-1.8257e-07 -2.43962e-09 -1.3085e-08)
(-1.46799e-07 -9.66859e-09 -2.21153e-08)
(-1.19782e-07 -7.71152e-09 -1.38407e-08)
(-7.20375e-08 -1.37758e-09 -3.69398e-09)
(-4.32229e-08 -5.7852e-09 -5.56611e-09)
(-2.071e-08 -7.64961e-09 -4.31978e-09)
(-7.4e-08 -2.13397e-09 1.00792e-08)
(-9.39642e-08 -4.01097e-09 -9.25788e-09)
(-1.26186e-07 1.21197e-09 -5.31587e-11)
(-1.64302e-07 -7.2547e-09 -7.09281e-09)
(-1.11244e-07 -5.54128e-09 -1.07638e-08)
(-7.59831e-08 1.34162e-08 -3.16508e-08)
(-4.26127e-08 -6.76882e-09 -7.71368e-09)
(-1.94361e-08 -3.97518e-09 -2.75169e-09)
(-1.08035e-08 -1.92639e-08 -1.69658e-09)
(-6.96224e-08 2.70233e-10 -1.36311e-08)
(-5.34065e-08 3.02466e-09 -6.32686e-09)
(-1.26253e-08 1.19302e-09 -7.28726e-09)
(-9.77664e-08 -2.05105e-08 -6.82409e-09)
(-1.2286e-07 -1.42841e-08 -1.33515e-09)
(-1.25793e-07 -6.25697e-09 -1.44187e-09)
(-1.21166e-07 -3.31957e-09 -1.4062e-08)
(-1.08833e-07 -7.25508e-09 -1.37612e-08)
(-1.18816e-07 1.98616e-09 3.5399e-09)
(-7.70599e-08 1.00966e-08 -4.34594e-09)
(-4.14906e-08 2.85199e-09 9.10214e-10)
(-1.10222e-08 3.34667e-09 -2.84827e-09)
(-5.5077e-08 -2.11232e-08 -1.36656e-10)
(-7.20843e-08 -1.03191e-08 -5.42898e-09)
(-1.103e-07 -1.13225e-08 4.38902e-09)
(-1.19904e-07 -2.74538e-09 -5.33062e-09)
(-9.43496e-08 -4.76308e-09 -1.41746e-08)
(-7.85794e-08 6.49902e-09 -1.31607e-08)
(-5.53605e-08 1.62623e-09 -4.49677e-09)
(-3.31242e-08 -2.56118e-09 -3.33712e-09)
(-1.40815e-08 -1.05297e-08 -3.52689e-09)
(-3.22314e-08 -3.14753e-09 2.97082e-09)
(-5.30784e-08 1.64862e-09 -4.38121e-09)
(-8.02036e-08 4.87596e-09 1.45494e-09)
(-1.12775e-07 2.31344e-09 -2.9408e-09)
(-8.02397e-08 -2.45209e-09 -5.66395e-09)
(-5.1347e-08 6.58015e-09 -2.77613e-08)
(-3.00817e-08 -1.3753e-09 -5.99808e-09)
(-1.91165e-08 -1.5376e-08 -2.13738e-09)
(-8.31003e-09 -9.30215e-05 3.78032e-09)
)
;

boundaryField
{
    inlet
    {
        type            calculated;
        value           nonuniform 0();
    }
    outlet
    {
        type            calculated;
        value           uniform (0 0 0);
    }
    wall
    {
        type            calculated;
        value           uniform (0 0 0);
    }
    procBoundary7to0
    {
        type            processor;
        value           uniform (0 0 0);
    }
    procBoundary7to1
    {
        type            processor;
        value           uniform (0 0 0);
    }
    procBoundary7to3
    {
        type            processor;
        value           uniform (0 0 0);
    }
    procBoundary7to5
    {
        type            processor;
        value           uniform (0 0 0);
    }
    procBoundary7to6
    {
        type            processor;
        value           uniform (0 0 0);
    }
}


// ************************************************************************* //
