/*--------------------------------*- C++ -*----------------------------------*\
| =========                 |                                                 |
| \\      /  F ield         | OpenFOAM: The Open Source CFD Toolbox           |
|  \\    /   O peration     | Version:  4.x                                   |
|   \\  /    A nd           | Web:      www.OpenFOAM.org                      |
|    \\/     M anipulation  |                                                 |
\*---------------------------------------------------------------------------*/
FoamFile
{
    version     2.0;
    format      ascii;
    class       volVectorField;
    location    "32.5";
    object      ddtUrel;
}
// * * * * * * * * * * * * * * * * * * * * * * * * * * * * * * * * * * * * * //

dimensions      [0 1 -2 0 0 0 0];

internalField   nonuniform List<vector> 
87
(
(-6.89589e-10 -1.65927e-09 4.4069e-10)
(4.95459e-10 -1.05635e-09 3.29962e-10)
(-7.56454e-11 -1.44786e-09 2.90729e-10)
(1.03287e-09 -5.34648e-10 2.57863e-10)
(5.41715e-10 -9.39988e-10 1.58387e-10)
(-1.91093e-10 -1.24175e-09 9.55203e-11)
(9.06001e-10 -3.50341e-11 3.65799e-10)
(1.1442e-09 -7.78271e-11 4.06161e-10)
(1.47274e-09 -1.29074e-10 4.46229e-10)
(1.66167e-09 -1.78086e-10 4.84229e-10)
(1.70738e-09 -2.12537e-10 4.77231e-10)
(1.70795e-09 -3.46943e-10 4.74449e-10)
(1.43218e-09 -5.97962e-10 5.46362e-10)
(9.87326e-10 -8.03681e-10 6.41801e-10)
(5.0077e-10 -1.11096e-09 7.87536e-10)
(9.43735e-10 -3.2349e-11 3.12259e-10)
(1.06615e-09 -6.48508e-11 3.50993e-10)
(1.33382e-09 -9.14529e-11 3.64419e-10)
(1.53089e-09 -1.15339e-10 3.77811e-10)
(1.58418e-09 -1.74267e-10 3.80276e-10)
(1.55223e-09 -3.01818e-10 3.41429e-10)
(1.351e-09 -5.50584e-10 3.77973e-10)
(1.05685e-09 -8.80002e-10 3.94541e-10)
(7.93886e-10 -1.00369e-09 5.06649e-10)
(9.59347e-10 -2.56495e-11 2.64792e-10)
(1.00411e-09 -7.10867e-11 3.06114e-10)
(1.28445e-09 -5.91487e-11 3.18195e-10)
(1.50411e-09 -8.18599e-11 3.33377e-10)
(1.55456e-09 -1.291e-10 3.14576e-10)
(1.45223e-09 -2.42563e-10 2.95499e-10)
(1.23987e-09 -4.52645e-10 2.68652e-10)
(8.72095e-10 -6.95629e-10 2.45081e-10)
(6.21241e-10 -8.94944e-10 2.43319e-10)
(9.52797e-10 -2.03534e-11 2.70853e-10)
(1.11386e-09 -5.71448e-11 3.02279e-10)
(1.41147e-09 -1.0404e-10 3.38753e-10)
(1.60169e-09 -1.47352e-10 3.61251e-10)
(1.73814e-09 -2.11464e-10 3.58806e-10)
(1.7785e-09 -3.49942e-10 3.8641e-10)
(1.69805e-09 -4.83551e-10 4.33245e-10)
(1.42708e-09 -6.16349e-10 4.69358e-10)
(1.18651e-09 -7.55453e-10 7.58348e-10)
(9.92353e-10 -1.29094e-11 2.40971e-10)
(1.05687e-09 -6.55344e-11 2.68524e-10)
(1.29348e-09 -8.89183e-11 3.01042e-10)
(1.47991e-09 -1.13885e-10 2.98692e-10)
(1.61223e-09 -1.72685e-10 2.91697e-10)
(1.63839e-09 -3.1939e-10 2.89312e-10)
(1.49638e-09 -4.90541e-10 3.08711e-10)
(1.2653e-09 -7.00108e-10 3.18565e-10)
(1.00364e-09 -7.3809e-10 4.77613e-10)
(1.03814e-09 1.05666e-13 2.23288e-10)
(8.61055e-10 -1.08063e-10 2.41142e-10)
(1.19767e-09 -8.34632e-11 2.70485e-10)
(1.37694e-09 -8.96714e-11 2.62089e-10)
(1.51078e-09 -1.33955e-10 2.49821e-10)
(1.48069e-09 -2.45405e-10 2.38709e-10)
(1.26562e-09 -4.07657e-10 2.48574e-10)
(9.64768e-10 -5.66209e-10 2.50555e-10)
(5.67386e-10 -6.50221e-10 2.53619e-10)
(1.02147e-09 6.91221e-12 2.00914e-10)
(1.13858e-09 -3.30587e-11 2.34532e-10)
(1.43432e-09 -6.69079e-11 2.71067e-10)
(1.63264e-09 -1.06648e-10 2.82435e-10)
(1.84602e-09 -1.7673e-10 2.79117e-10)
(1.90578e-09 -2.97195e-10 2.87896e-10)
(1.87996e-09 -3.83105e-10 3.45049e-10)
(1.53434e-09 -5.49062e-10 4.73589e-10)
(1.29362e-09 -6.34741e-10 6.49768e-10)
(1.19086e-09 7.77585e-11 1.95372e-10)
(1.13793e-09 -1.94631e-11 2.10576e-10)
(1.30467e-09 -7.20738e-11 2.33752e-10)
(1.44729e-09 -9.3522e-11 2.27065e-10)
(1.62766e-09 -1.56994e-10 2.20099e-10)
(1.66475e-09 -2.75514e-10 2.21447e-10)
(1.54696e-09 -4.17952e-10 2.42037e-10)
(1.30547e-09 -7.22082e-10 2.76341e-10)
(1.2233e-09 -6.27706e-10 4.12386e-10)
(1.46127e-09 1.72537e-10 1.98985e-10)
(1.10597e-09 -3.54115e-13 2.0066e-10)
(1.2022e-09 -5.90214e-11 2.17445e-10)
(1.30344e-09 -7.4556e-11 1.95418e-10)
(1.41495e-09 -1.22116e-10 1.91448e-10)
(1.4534e-09 -2.38823e-10 1.95886e-10)
(1.28683e-09 -3.6668e-10 2.04534e-10)
(9.37194e-10 -5.44861e-10 2.38133e-10)
(7.57297e-10 -5.77431e-10 2.81583e-10)
)
;

boundaryField
{
    inlet
    {
        type            calculated;
        value           nonuniform List<vector> 9((1.17604e-09 3.96854e-11 5.60682e-10) (1.22557e-09 1.14055e-10 4.15098e-10) (3.13255e-10 6.40195e-11 7.72921e-11) (4.00674e-10 -4.09547e-11 2.63411e-10) (6.7466e-10 -5.5094e-11 2.32407e-10) (1.18007e-11 -7.22877e-11 1.69692e-10) (5.33904e-10 -1.13639e-11 1.21317e-10) (1.04656e-09 5.66042e-10 8.53943e-11) (1.76969e-09 1.46198e-09 1.23216e-10));
    }
    outlet
    {
        type            calculated;
        value           nonuniform 0();
    }
    wall
    {
        type            calculated;
        value           nonuniform List<vector> 
57
(
(5.96054e-10 -2.01999e-11 1.14144e-10)
(1.69825e-09 5.91212e-10 9.13325e-11)
(4.75969e-09 1.55017e-09 1.74654e-10)
(4.96482e-10 -1.75991e-10 1.63158e-10)
(3.42423e-10 -9.34218e-11 6.98017e-11)
(2.80422e-10 4.03404e-11 1.88221e-11)
(2.13835e-09 -1.3857e-10 1.52633e-10)
(1.12281e-09 -1.81151e-10 1.33218e-10)
(1.01695e-09 -6.76243e-11 1.8265e-10)
(1.33039e-09 -8.49865e-11 1.79089e-10)
(8.08259e-10 2.05161e-11 1.29008e-10)
(6.59645e-10 7.27307e-11 -1.92291e-11)
(2.84482e-09 -5.11445e-11 1.41837e-10)
(1.77566e-09 -6.14992e-11 8.59543e-11)
(8.87501e-10 5.03395e-11 -7.6105e-11)
(2.43006e-09 -3.58501e-10 5.7035e-11)
(1.85708e-09 -2.7998e-10 1.89904e-13)
(1.11769e-09 -4.21786e-11 -3.45226e-11)
(4.36558e-09 -2.38666e-10 4.51921e-11)
(1.22633e-09 -5.90757e-11 2.66661e-10)
(4.39241e-10 -3.08474e-11 1.30601e-10)
(2.67075e-09 -6.72834e-10 6.49989e-10)
(1.71446e-09 -3.23553e-09 -3.48579e-10)
(-1.1386e-09 -3.34218e-10 1.33044e-10)
(9.68828e-10 -7.04461e-10 5.30232e-10)
(7.32261e-09 -5.40578e-10 1.26991e-10)
(4.55802e-09 3.717e-12 -2.56871e-11)
(1.83866e-10 5.56061e-11 5.74311e-11)
(2.79809e-10 -6.27377e-11 1.6844e-10)
(5.22286e-09 1.55529e-09 1.79816e-10)
(-3.57708e-10 -2.64121e-10 3.66581e-10)
(-3.58466e-09 -1.16468e-09 2.05037e-10)
(1.46106e-10 3.67424e-11 1.93315e-11)
(4.9364e-10 2.26566e-12 1.19248e-10)
(7.55027e-10 -1.69872e-10 4.41674e-10)
(8.08585e-10 -7.29135e-11 1.8531e-10)
(1.27269e-09 7.57823e-11 3.76072e-10)
(6.81156e-10 -2.3043e-11 2.22468e-10)
(5.26939e-10 6.93036e-11 -1.56124e-11)
(1.7908e-09 1.6128e-10 3.3784e-10)
(1.42163e-09 3.42809e-11 1.06002e-10)
(5.19825e-10 4.59252e-11 -6.96883e-11)
(1.84264e-09 -5.92871e-11 2.35382e-10)
(1.70711e-09 -4.59239e-12 1.00144e-10)
(8.79578e-10 -4.30225e-11 -3.23274e-11)
(1.97668e-09 1.5733e-10 -3.4627e-10)
(3.24389e-10 4.68909e-11 1.7209e-10)
(4.88726e-12 -2.66765e-10 2.08939e-10)
(-5.7647e-11 -3.59024e-11 1.12973e-10)
(1.4614e-09 -5.71192e-10 -5.17593e-10)
(1.30212e-09 -9.18136e-11 -6.60522e-11)
(-1.99126e-10 -1.25202e-10 9.83135e-11)
(-1.87286e-09 -3.36525e-10 1.31412e-10)
(4.76472e-10 -4.91659e-10 -1.19438e-09)
(1.56762e-09 -4.74446e-10 -1.76384e-10)
(-4.54124e-09 -3.19112e-10 -2.54995e-10)
(-3.49806e-10 -1.90215e-10 1.538e-10)
)
;
    }
    procBoundary6to0
    {
        type            processor;
        value           uniform (-2.47343e-09 -2.08792e-09 3.01575e-10);
    }
    procBoundary6to2
    {
        type            processor;
        value           nonuniform List<vector> 
32
(
(-3.9953e-09 -2.82985e-09 -3.91149e-10)
(-1.1917e-09 -1.70369e-09 -1.2951e-10)
(-1.90753e-09 -2.06998e-09 -6.37445e-11)
(2.13821e-10 -9.35026e-10 8.75572e-11)
(-3.10015e-10 -1.35188e-09 -4.98806e-11)
(-1.11226e-09 -1.68346e-09 -4.67024e-11)
(9.85487e-10 -4.12153e-11 4.63696e-10)
(1.1816e-09 -7.87241e-11 5.36784e-10)
(1.4241e-09 -1.32109e-10 5.82949e-10)
(1.47631e-09 -2.1512e-10 5.4894e-10)
(1.29687e-09 -3.3488e-10 4.39054e-10)
(9.52791e-10 -6.22934e-10 3.57619e-10)
(2.6737e-10 -1.12502e-09 3.05549e-10)
(-3.89223e-10 -1.50704e-09 4.36831e-10)
(-3.89223e-10 -1.50704e-09 4.36831e-10)
(-3.89223e-10 -1.50704e-09 4.36831e-10)
(9.49277e-10 -4.74525e-11 3.9287e-10)
(1.08797e-09 -7.63443e-11 4.58274e-10)
(1.30563e-09 -1.0779e-10 4.91305e-10)
(1.4137e-09 -1.57691e-10 4.82481e-10)
(1.34975e-09 -2.59869e-10 3.82799e-10)
(1.057e-09 -4.58831e-10 3.12681e-10)
(6.22592e-10 -8.00782e-10 2.50705e-10)
(6.22592e-10 -8.00782e-10 2.50705e-10)
(6.22592e-10 -8.00782e-10 2.50705e-10)
(9.8639e-10 -4.6532e-11 3.41286e-10)
(1.08618e-09 -6.50858e-11 3.87579e-10)
(1.27338e-09 -7.47949e-11 4.22171e-10)
(1.39652e-09 -1.24258e-10 4.2281e-10)
(1.41198e-09 -2.21617e-10 3.62131e-10)
(1.20463e-09 -3.81246e-10 3.14683e-10)
(1.20463e-09 -3.81246e-10 3.14683e-10)
)
;
    }
    procBoundary6to4
    {
        type            processor;
        value           nonuniform List<vector> 
27
(
(9.50118e-10 -2.48671e-11 4.05162e-10)
(1.19166e-09 -5.81119e-11 4.67792e-10)
(1.50036e-09 -1.04738e-10 5.15313e-10)
(1.66406e-09 -1.78183e-10 5.23239e-10)
(1.65587e-09 -2.77464e-10 5.13976e-10)
(1.54129e-09 -5.44933e-10 5.64471e-10)
(1.12314e-09 -8.90587e-10 5.68631e-10)
(6.29383e-10 -1.10871e-09 6.91135e-10)
(2.37614e-10 -1.48559e-09 7.83537e-10)
(9.57083e-10 -2.68227e-11 2.93692e-10)
(1.15409e-09 -5.99545e-11 3.38879e-10)
(1.46961e-09 -9.28438e-11 3.93418e-10)
(1.69078e-09 -1.40238e-10 4.27557e-10)
(1.84169e-09 -2.07905e-10 4.45616e-10)
(1.8207e-09 -3.73094e-10 4.85879e-10)
(1.57767e-09 -5.64789e-10 5.51277e-10)
(1.19643e-09 -8.01506e-10 6.30087e-10)
(1.04914e-09 -1.16058e-09 6.54407e-10)
(9.85708e-10 -1.87498e-11 2.17039e-10)
(1.14947e-09 -4.86386e-11 2.53732e-10)
(1.48212e-09 -6.47465e-11 3.0525e-10)
(1.71793e-09 -1.19543e-10 3.38528e-10)
(1.9567e-09 -1.77321e-10 3.64582e-10)
(1.93657e-09 -2.97072e-10 3.90865e-10)
(1.75725e-09 -4.0203e-10 4.53039e-10)
(1.10404e-09 -5.26198e-10 4.83933e-10)
(1.02985e-09 -9.36501e-10 5.61736e-10)
)
;
    }
    procBoundary6to7
    {
        type            processor;
        value           nonuniform List<vector> 
12
(
(-2.11973e-09 -1.87639e-09 5.31509e-10)
(-9.43422e-10 -1.51824e-09 5.03788e-10)
(-7.22016e-10 -1.2879e-09 1.43491e-10)
(-1.86179e-10 -1.41764e-09 8.71817e-10)
(-2.89749e-11 -1.16212e-09 5.6255e-10)
(9.66877e-11 -1.04181e-09 2.44913e-10)
(4.36319e-10 -1.28145e-09 6.87836e-10)
(2.68748e-10 -9.38313e-10 5.16243e-10)
(5.18303e-11 -7.57409e-10 3.25961e-10)
(5.05953e-10 -1.07499e-09 5.18555e-10)
(4.85934e-10 -7.85256e-10 4.06731e-10)
(6.99226e-11 -6.31107e-10 2.90987e-10)
)
;
    }
}


// ************************************************************************* //
