/*--------------------------------*- C++ -*----------------------------------*\
| =========                 |                                                 |
| \\      /  F ield         | OpenFOAM: The Open Source CFD Toolbox           |
|  \\    /   O peration     | Version:  4.x                                   |
|   \\  /    A nd           | Web:      www.OpenFOAM.org                      |
|    \\/     M anipulation  |                                                 |
\*---------------------------------------------------------------------------*/
FoamFile
{
    version     2.0;
    format      ascii;
    class       volScalarField;
    location    "32.5";
    object      QWallFluid;
}
// * * * * * * * * * * * * * * * * * * * * * * * * * * * * * * * * * * * * * //

dimensions      [1 -1 -3 0 0 0 0];

internalField   nonuniform List<scalar> 
87
(
0
0
0
8.66993e+08
4.7359e+08
8.80486e+08
0
0
0
0
0
0
0
0
0
0
0
0
0
0
0
0
0
0
8.27381e+08
4.10766e+08
8.32792e+08
4.23327e+08
8.31843e+08
4.16295e+08
8.36129e+08
4.11577e+08
8.39631e+08
0
0
0
0
0
0
0
0
0
0
0
0
0
0
0
0
0
0
8.2485e+08
4.30582e+08
8.4119e+08
4.61201e+08
8.49314e+08
4.78768e+08
8.6085e+08
4.88696e+08
8.72048e+08
8.1611e+08
4.08505e+08
8.17158e+08
4.03619e+08
8.16474e+08
3.93724e+08
8.14899e+08
3.68982e+08
8.2155e+08
8.20931e+08
4.31343e+08
8.34181e+08
4.5807e+08
8.43428e+08
4.7303e+08
8.54196e+08
4.76388e+08
8.62231e+08
1.65662e+09
9.10262e+08
1.71149e+09
1.02691e+09
1.76901e+09
1.10941e+09
1.81169e+09
1.16242e+09
1.83294e+09
)
;

boundaryField
{
    inlet
    {
        type            calculated;
        value           uniform 0;
    }
    outlet
    {
        type            calculated;
        value           nonuniform 0();
    }
    wall
    {
        type            calculated;
        value           uniform 0;
    }
    procBoundary6to0
    {
        type            processor;
        value           uniform 0;
    }
    procBoundary6to2
    {
        type            processor;
        value           nonuniform List<scalar> 
32
(
0
0
0
8.79755e+08
4.88881e+08
8.9872e+08
0
0
0
0
0
0
0
0
0
0
0
0
0
0
0
0
0
0
0
8.28476e+08
4.16733e+08
8.40309e+08
4.4014e+08
8.52939e+08
4.5936e+08
4.5936e+08
)
;
    }
    procBoundary6to4
    {
        type            processor;
        value           nonuniform List<scalar> 
27
(
0
0
0
0
0
0
0
0
0
0
0
0
0
0
0
0
0
0
8.07539e+08
3.93749e+08
8.10543e+08
3.88372e+08
8.15446e+08
3.96747e+08
8.31801e+08
4.18215e+08
8.48331e+08
)
;
    }
    procBoundary6to7
    {
        type            processor;
        value           nonuniform List<scalar> 
12
(
0
0
4.70274e+08
0
0
3.85684e+08
0
0
4.92567e+08
3.33175e+08
4.69147e+08
1.16575e+09
)
;
    }
}


// ************************************************************************* //
