/*--------------------------------*- C++ -*----------------------------------*\
| =========                 |                                                 |
| \\      /  F ield         | OpenFOAM: The Open Source CFD Toolbox           |
|  \\    /   O peration     | Version:  4.x                                   |
|   \\  /    A nd           | Web:      www.OpenFOAM.org                      |
|    \\/     M anipulation  |                                                 |
\*---------------------------------------------------------------------------*/
FoamFile
{
    version     2.0;
    format      ascii;
    class       volScalarField;
    location    "32.5";
    object      QWallFluidCoeff;
}
// * * * * * * * * * * * * * * * * * * * * * * * * * * * * * * * * * * * * * //

dimensions      [1 -1 -3 -1 0 0 0];

internalField   nonuniform List<scalar> 
87
(
0
0
0
-2.88998e+06
-1.57863e+06
-2.93495e+06
0
0
0
0
0
0
0
0
0
0
0
0
0
0
0
0
0
0
-2.75794e+06
-1.36922e+06
-2.77597e+06
-1.41109e+06
-2.77281e+06
-1.38765e+06
-2.7871e+06
-1.37192e+06
-2.79877e+06
0
0
0
0
0
0
0
0
0
0
0
0
0
0
0
0
0
0
-2.7495e+06
-1.43527e+06
-2.80397e+06
-1.53734e+06
-2.83105e+06
-1.59589e+06
-2.8695e+06
-1.62899e+06
-2.90683e+06
-2.72037e+06
-1.36168e+06
-2.72386e+06
-1.3454e+06
-2.72158e+06
-1.31241e+06
-2.71633e+06
-1.22994e+06
-2.7385e+06
-2.73644e+06
-1.43781e+06
-2.7806e+06
-1.5269e+06
-2.81143e+06
-1.57677e+06
-2.84732e+06
-1.58796e+06
-2.8741e+06
-5.52207e+06
-3.03421e+06
-5.70497e+06
-3.42302e+06
-5.89671e+06
-3.69804e+06
-6.03895e+06
-3.87473e+06
-6.10981e+06
)
;

boundaryField
{
    inlet
    {
        type            calculated;
        value           uniform 0;
    }
    outlet
    {
        type            calculated;
        value           nonuniform 0();
    }
    wall
    {
        type            calculated;
        value           uniform 0;
    }
    procBoundary6to0
    {
        type            processor;
        value           uniform 0;
    }
    procBoundary6to2
    {
        type            processor;
        value           uniform 0;
    }
    procBoundary6to4
    {
        type            processor;
        value           uniform 0;
    }
    procBoundary6to7
    {
        type            processor;
        value           uniform 0;
    }
}


// ************************************************************************* //
