/*--------------------------------*- C++ -*----------------------------------*\
| =========                 |                                                 |
| \\      /  F ield         | OpenFOAM: The Open Source CFD Toolbox           |
|  \\    /   O peration     | Version:  4.x                                   |
|   \\  /    A nd           | Web:      www.OpenFOAM.org                      |
|    \\/     M anipulation  |                                                 |
\*---------------------------------------------------------------------------*/
FoamFile
{
    version     2.0;
    format      ascii;
    class       volVectorField;
    location    "32.5";
    object      U;
}
// * * * * * * * * * * * * * * * * * * * * * * * * * * * * * * * * * * * * * //

dimensions      [0 1 -1 0 0 0 0];

internalField   nonuniform List<vector> 
87
(
(0.0276218 0.000212507 -2.38509e-05)
(0.00624242 0.000432397 -0.000470235)
(0.0297139 0.000626946 -0.000324465)
(0.0325849 0.000610748 -0.000888515)
(0.0152758 0.000178678 -0.000997093)
(0.0332731 0.000257264 -0.000798925)
(0.0295219 0.000464949 -0.000613812)
(0.00876583 0.000305093 -0.000203403)
(0.0281388 0.000559652 -0.000486725)
(0.00466146 0.000179456 -0.00015464)
(0.0276778 0.000352293 -0.000370026)
(0.00157616 8.40067e-05 -5.70486e-05)
(0.0273307 -8.77318e-07 -0.000330269)
(2.30524e-09 -2.90729e-09 4.64803e-09)
(0.0271715 -0.000356192 -0.000342886)
(0.0297731 0.00156868 -0.000427579)
(0.00983972 0.000548598 -0.000234903)
(0.0291475 0.00146901 -0.000350838)
(0.00707661 0.000402023 -0.000250201)
(0.0287863 0.000974034 -0.000260305)
(0.0045526 0.000263043 -0.000189276)
(0.0284984 0.000598826 -0.000260337)
(0.00215344 0.000158403 -0.000122417)
(0.0283876 1.05807e-05 -0.000206786)
(0.0300761 0.00102502 -0.000527653)
(0.0126912 0.000513673 -0.000355881)
(0.0307904 0.00111589 -0.000553341)
(0.0133389 0.000409808 -0.00054863)
(0.0313111 0.000838989 -0.000559614)
(0.0132406 0.000318074 -0.000553633)
(0.0315067 0.000763717 -0.000493256)
(0.0129791 0.000252834 -0.000617905)
(0.0317958 0.000348787 -0.00039339)
(0.0295986 0.000754473 0.000784267)
(0.00994247 0.000332943 0.000192063)
(0.0288939 0.000851254 0.000741953)
(0.00708789 0.000245621 0.000174083)
(0.0285043 0.000587998 0.000533099)
(0.00451041 6.94199e-05 7.08663e-05)
(0.0282806 0.000241235 0.000135037)
(0.00205676 -1.07354e-05 7.72574e-05)
(0.0281872 3.82974e-05 -0.000274761)
(0.029797 0.0015372 0.000711344)
(0.0114416 0.000666183 0.000262611)
(0.0298032 0.00152344 0.000845136)
(0.0105352 0.000481825 0.000154896)
(0.0298317 0.00125036 0.000753798)
(0.00957053 0.000461157 8.28777e-05)
(0.0297559 0.00106469 0.000631722)
(0.00825474 0.00037831 -2.09406e-05)
(0.0299355 0.000820815 0.000316342)
(0.0299792 0.000860186 0.000391616)
(0.0134621 0.000458081 9.2695e-05)
(0.031253 0.000841831 0.00042257)
(0.0149296 0.000348345 8.71009e-05)
(0.0321605 0.000629095 0.000405001)
(0.0157095 0.000318119 -7.62067e-05)
(0.0326905 0.000513892 0.000203298)
(0.01607 0.000207033 -0.000264872)
(0.0332315 0.000299487 2.22292e-05)
(0.0298498 0.000759369 0.000740734)
(0.0126371 0.000289064 0.00032443)
(0.0303456 0.000627695 0.000709541)
(0.0126911 0.000213669 0.000223928)
(0.0307477 0.00031877 0.000615272)
(0.0123989 2.80993e-05 0.000205204)
(0.0309293 -6.06621e-05 0.000533736)
(0.0114683 -0.000115433 0.00026417)
(0.0308965 -0.000145642 0.000406202)
(0.0299344 0.0011848 0.000543843)
(0.0134707 0.000573713 0.00026864)
(0.031054 0.00121243 0.000513567)
(0.0147701 0.000552219 0.000170759)
(0.0320315 0.000960217 0.000393146)
(0.0155168 0.000515489 0.000209101)
(0.0324494 0.000849785 0.000383888)
(0.0156149 0.000290981 9.14116e-05)
(0.0329955 0.000538494 0.000197555)
(0.0300112 0.000686477 0.000372364)
(0.0143782 0.000342835 0.000141831)
(0.0319271 0.00067003 0.000337104)
(0.0170004 0.000347656 0.000147833)
(0.0336498 0.000503856 0.000251361)
(0.0189511 0.000181586 4.97178e-05)
(0.0346302 0.000352982 0.00020802)
(0.0198745 6.53588e-05 -7.24403e-05)
(0.03533 0.000101981 -1.39923e-05)
)
;

boundaryField
{
    inlet
    {
        type            fixedValue;
        value           uniform (0.01 0 0);
    }
    outlet
    {
        type            zeroGradient;
    }
    wall
    {
        type            fixedValue;
        value           uniform (0 0 0);
    }
    procBoundary6to0
    {
        type            processor;
        value           uniform (0.0269498 -0.000117509 -0.000126338);
    }
    procBoundary6to2
    {
        type            processor;
        value           nonuniform List<vector> 
32
(
(0.0291768 -0.000291825 -0.000476908)
(0.00427229 0.000100452 -0.000373937)
(0.029588 0.000412155 -0.000254306)
(0.0330139 0.000844023 -0.00106068)
(0.0157129 0.00026551 -0.00106115)
(0.0338944 0.000548529 -0.000838601)
(0.0296591 0.000639924 -0.00179877)
(0.00933584 0.000382551 -0.000759497)
(0.02887 0.000890335 -0.00154821)
(0.00628564 0.000331292 -0.000554958)
(0.0282906 0.000708791 -0.00105575)
(0.00394546 0.000304812 -0.000334397)
(0.0279905 0.000432251 -0.000543426)
(0.00208355 0.000242797 -0.000265432)
(0.00208355 0.000242797 -0.000265432)
(0.00208355 0.000242797 -0.000265432)
(0.0297055 0.00142494 -0.001495)
(0.0105237 0.000669247 -0.000726386)
(0.029483 0.00149942 -0.00132274)
(0.00879972 0.000495249 -0.000630174)
(0.0292747 0.00126981 -0.00102809)
(0.00735221 0.000424645 -0.000466934)
(0.0294348 0.00101509 -0.000612353)
(0.0294348 0.00101509 -0.000612353)
(0.0294348 0.00101509 -0.000612353)
(0.0299804 0.000955593 -0.00137812)
(0.0128197 0.000497653 -0.000862249)
(0.0310288 0.000994256 -0.00143554)
(0.0138932 0.000432824 -0.00102167)
(0.0318037 0.000830445 -0.00133894)
(0.0147313 0.000369322 -0.00082436)
(0.0147313 0.000369322 -0.00082436)
)
;
    }
    procBoundary6to4
    {
        type            processor;
        value           nonuniform List<vector> 
27
(
(0.0296791 -0.000438672 -0.000548047)
(0.00939978 -5.77818e-05 -0.000158671)
(0.0284701 -0.000302485 -0.000285661)
(0.00566112 -0.000130807 -0.000100517)
(0.0277653 -0.000285477 -0.000105948)
(0.00242078 -7.13154e-05 4.99545e-05)
(0.0274905 -2.76923e-05 -6.08145e-05)
(0.000160987 -7.76361e-06 1.05955e-05)
(0.0273788 3.88904e-05 -6.10013e-05)
(0.0296862 -0.000328281 0.000423743)
(0.0100257 1.83839e-05 0.00034813)
(0.0289105 -9.03424e-05 0.00081471)
(0.00711088 -5.02589e-06 0.000250651)
(0.0286439 -9.51416e-05 0.00084845)
(0.00479893 -7.23123e-05 0.000278754)
(0.0286909 -0.000144794 0.000765712)
(0.00319409 -6.28478e-05 0.000212926)
(0.0288222 -0.000129298 0.00016797)
(0.0297029 -0.000126467 0.000535582)
(0.0121559 -4.12857e-05 0.000367087)
(0.0300977 -0.000211394 0.000767346)
(0.0121419 -0.000139777 0.000347199)
(0.0307971 -0.000259153 0.000723984)
(0.0125951 -0.00021962 0.000353235)
(0.0314587 -0.000356472 0.000732216)
(0.0133072 -0.000231006 0.000189618)
(0.0323026 -0.000427565 0.000384285)
)
;
    }
    procBoundary6to7
    {
        type            processor;
        value           nonuniform List<vector> 
12
(
(0.000668864 0.000141625 -0.000112844)
(0.0055932 0.000590451 -0.00056924)
(0.0152627 4.23646e-06 -0.00126218)
(-1.19118e-09 -2.03505e-09 6.54293e-09)
(0.000285962 3.18153e-05 -1.92656e-05)
(0.0120259 0.000226424 -0.000679309)
(3.44459e-09 -3.56981e-09 4.55156e-09)
(0.00710813 0.000374066 -3.06368e-05)
(0.0163206 1.02841e-05 -0.00045031)
(0.0100859 -0.000152426 0.000144879)
(0.0154109 0.000394788 -6.1679e-05)
(0.0201517 -0.000110954 -0.000203898)
)
;
    }
}


// ************************************************************************* //
