/*--------------------------------*- C++ -*----------------------------------*\
| =========                 |                                                 |
| \\      /  F ield         | OpenFOAM: The Open Source CFD Toolbox           |
|  \\    /   O peration     | Version:  4.x                                   |
|   \\  /    A nd           | Web:      www.OpenFOAM.org                      |
|    \\/     M anipulation  |                                                 |
\*---------------------------------------------------------------------------*/
FoamFile
{
    version     2.0;
    format      ascii;
    class       volVectorField;
    location    "32.5";
    object      Urel;
}
// * * * * * * * * * * * * * * * * * * * * * * * * * * * * * * * * * * * * * //

dimensions      [0 1 -1 0 0 0 0];

internalField   nonuniform List<vector> 
87
(
(-0.019876 -8.41492e-05 0.000311074)
(-0.019281 -0.000205933 0.000438704)
(-0.0208927 -0.000177147 0.00038615)
(-0.022085 -0.000318344 0.00056622)
(-0.0207694 -0.000232484 0.000526961)
(-0.0221353 -0.000189887 0.000482375)
(-0.0229072 -0.000237497 0.000505612)
(-0.0205798 -0.000214332 0.000453771)
(-0.0213057 -0.000226264 0.000435633)
(-0.019209 -0.000179856 0.000377191)
(-0.0204362 -0.000172373 0.000344974)
(-0.0183695 -0.000127814 0.00028956)
(-0.0199122 -0.000103365 0.000267869)
(-0.0178516 -7.1339e-05 0.000224116)
(-0.019612 -3.73105e-05 0.000214119)
(-0.0231125 -0.000516841 0.000495986)
(-0.0209229 -0.000434197 0.00046018)
(-0.0217493 -0.000463703 0.0004446)
(-0.0198781 -0.000364797 0.000405323)
(-0.0211132 -0.000361555 0.000372432)
(-0.0192762 -0.000275852 0.000332279)
(-0.0207459 -0.000257229 0.00030598)
(-0.0188635 -0.000179391 0.000278979)
(-0.0205283 -0.000131558 0.000261885)
(-0.0233304 -0.000565194 0.00050862)
(-0.0213647 -0.000501224 0.000481107)
(-0.0222718 -0.000517313 0.000476799)
(-0.0207695 -0.000428523 0.000451387)
(-0.0219411 -0.000415613 0.000424174)
(-0.0205185 -0.000333637 0.00039269)
(-0.0217927 -0.000313853 0.000365158)
(-0.02037 -0.000225377 0.000357393)
(-0.0217205 -0.000177724 0.000333399)
(-0.0230208 -0.000258181 0.00011693)
(-0.0208241 -0.000221861 0.000138489)
(-0.0215911 -0.000239621 9.59426e-05)
(-0.0196851 -0.000183392 0.000113239)
(-0.0208724 -0.000178473 7.68084e-05)
(-0.0190051 -0.000121923 9.38245e-05)
(-0.0204404 -0.000103665 7.74173e-05)
(-0.0185276 -6.15646e-05 9.09654e-05)
(-0.0201657 -3.99318e-05 0.000110212)
(-0.0232185 -0.000512729 0.000129563)
(-0.0211723 -0.000435247 0.000150562)
(-0.022028 -0.000459755 0.000112613)
(-0.0203753 -0.000364286 0.000138144)
(-0.0215553 -0.000366279 9.86665e-05)
(-0.0199653 -0.000282405 0.00012561)
(-0.0212828 -0.000270866 9.84381e-05)
(-0.0196575 -0.00018983 0.000137422)
(-0.0211151 -0.000167218 0.000134675)
(-0.0234107 -0.000544901 0.000166376)
(-0.0215506 -0.000485792 0.000182699)
(-0.0224962 -0.000490054 0.000157988)
(-0.0211345 -0.00041126 0.000172203)
(-0.0223046 -0.000392331 0.000146494)
(-0.0210296 -0.000320131 0.00017181)
(-0.0222385 -0.000291466 0.000156695)
(-0.0209599 -0.00021268 0.000196735)
(-0.0222128 -0.000168875 0.000194815)
(-0.0231836 -0.000258896 -3.38088e-05)
(-0.0211934 -0.000215474 -5.19004e-06)
(-0.022012 -0.000222626 -3.43193e-05)
(-0.0204283 -0.000172964 -5.9501e-06)
(-0.0215474 -0.000156073 -3.33021e-05)
(-0.0200499 -0.000106795 -8.9331e-06)
(-0.0212886 -7.5418e-05 -2.5167e-05)
(-0.0197642 -3.937e-05 5.2495e-06)
(-0.0210971 -1.28128e-05 1.69936e-05)
(-0.0233601 -0.000481796 -6.46817e-06)
(-0.0214903 -0.000416533 1.94933e-05)
(-0.0224017 -0.000432669 8.66566e-07)
(-0.0210153 -0.000355825 2.68412e-05)
(-0.0221687 -0.000343355 9.70961e-06)
(-0.0208663 -0.000273567 2.89423e-05)
(-0.0220538 -0.000250375 2.28919e-05)
(-0.0207335 -0.000173765 6.2616e-05)
(-0.0219764 -0.000146754 7.98968e-05)
(-0.0235185 -0.000514389 2.87335e-05)
(-0.0217729 -0.000461228 5.16965e-05)
(-0.022779 -0.000462125 3.81865e-05)
(-0.0215918 -0.000396605 5.54546e-05)
(-0.0227922 -0.000369251 4.8802e-05)
(-0.0216981 -0.00029843 7.09962e-05)
(-0.0228602 -0.000265309 7.12073e-05)
(-0.0217469 -0.000189394 0.000114071)
(-0.0229006 -0.000144064 0.000136075)
)
;

boundaryField
{
    inlet
    {
        type            calculated;
        value           nonuniform List<vector> 9((-0.01 -1.48564e-10 1.25707e-10) (-0.01 -1.92347e-10 2.8638e-10) (-0.01 -3.99902e-12 -1.70034e-11) (-0.01 -1.44278e-10 1.57685e-10) (-0.01 -9.95004e-11 2.45984e-10) (-0.01 -7.50909e-11 9.74321e-12) (-0.01 -1.52425e-10 1.81352e-10) (-0.01 1.71049e-10 2.04835e-10) (-0.01 6.48898e-10 2.06261e-10));
    }
    outlet
    {
        type            calculated;
        value           nonuniform 0();
    }
    wall
    {
        type            calculated;
        value           nonuniform List<vector> 
57
(
(-1.293e-10 -1.52425e-10 1.81352e-10)
(4.21162e-10 1.71049e-10 2.04835e-10)
(2.77767e-09 6.48898e-10 2.06261e-10)
(-3.2929e-10 -1.84126e-10 2.35795e-10)
(-3.88909e-10 -8.1099e-12 1.55491e-10)
(-2.8375e-10 -5.09644e-11 1.5703e-10)
(-7.50534e-10 -5.00152e-10 5.12051e-10)
(-1.6931e-10 2.49768e-11 2.96194e-10)
(-1.16669e-10 5.71945e-11 2.50022e-10)
(-1.31684e-09 -2.48849e-10 4.0363e-10)
(-1.02162e-09 -9.7927e-11 3.2476e-10)
(-6.117e-10 -6.02019e-11 1.86459e-10)
(-1.78573e-09 -2.58314e-10 6.24601e-10)
(-1.29596e-09 -8.41951e-11 3.3886e-10)
(-8.34903e-10 -1.3984e-10 1.94925e-10)
(-2.33177e-09 -8.01521e-10 7.94351e-10)
(-2.10043e-09 -2.32894e-10 5.73685e-10)
(-1.26031e-09 -9.98603e-12 3.50199e-10)
(-2.17649e-09 -1.04012e-09 1.07874e-09)
(-1.98078e-09 -7.5438e-11 3.39651e-10)
(-1.33784e-09 -2.12883e-10 1.62435e-10)
(-2.94138e-09 -2.13577e-09 1.10874e-09)
(-2.03733e-09 -4.75343e-09 8.33227e-10)
(-1.21106e-09 -6.88161e-10 2.87306e-10)
(-3.15863e-09 -2.76042e-09 4.87582e-10)
(-3.30044e-09 -2.86516e-09 1.5155e-09)
(-1.85383e-09 -7.20958e-10 1.49292e-09)
(-1.2194e-10 -3.99902e-12 -1.70034e-11)
(3.40164e-10 -7.50909e-11 9.74321e-12)
(2.77767e-09 6.48898e-10 2.06261e-10)
(-1.5121e-09 -1.62514e-10 2.66599e-10)
(-3.79506e-09 -1.30918e-09 1.37873e-10)
(-2.8375e-10 -5.09644e-11 1.5703e-10)
(-6.71911e-10 4.20407e-12 4.9521e-10)
(-5.04552e-10 8.97806e-11 4.68678e-10)
(-1.16669e-10 5.71945e-11 2.50022e-10)
(-1.56329e-09 1.27636e-10 2.6754e-10)
(-8.076e-10 1.6765e-10 2.14638e-10)
(-6.117e-10 -6.02019e-11 1.86459e-10)
(-2.19463e-09 4.34934e-11 3.61735e-10)
(-1.41528e-09 4.57946e-11 2.38768e-10)
(-8.34903e-10 -1.3984e-10 1.94925e-10)
(-3.7187e-09 -1.0605e-10 9.23773e-10)
(-2.22446e-09 6.4404e-11 5.57576e-10)
(-1.26031e-09 -9.98603e-12 3.50199e-10)
(-4.4712e-09 -1.61391e-10 2.03412e-09)
(-4.19096e-09 -6.30939e-10 1.65931e-09)
(-1.89732e-09 -2.30433e-10 5.27049e-10)
(-1.33784e-09 -2.12883e-10 1.62435e-10)
(-6.60508e-09 -2.20073e-10 2.66754e-09)
(-3.50131e-09 1.19759e-10 1.8431e-09)
(-2.20674e-09 1.8901e-10 6.97131e-10)
(-1.21106e-09 -6.88161e-10 2.87306e-10)
(-3.54472e-09 -8.64201e-11 2.91447e-09)
(-5.66208e-09 7.66648e-11 1.83473e-09)
(-3.44329e-09 -9.48717e-10 2.16323e-09)
(-1.85383e-09 -7.20958e-10 1.49292e-09)
)
;
    }
    procBoundary6to0
    {
        type            processor;
        value           uniform (-0.0195271 8.67366e-06 0.00028359);
    }
    procBoundary6to2
    {
        type            processor;
        value           nonuniform List<vector> 
32
(
(-0.0208226 -5.68047e-05 0.000431707)
(-0.0200098 -0.000183453 0.000550465)
(-0.0217152 -0.000164663 0.000476296)
(-0.0227969 -0.000322498 0.000712098)
(-0.0215795 -0.000233396 0.000637118)
(-0.0230186 -0.000204813 0.000570013)
(-0.0229538 -0.000237642 0.000920695)
(-0.0206563 -0.000214438 0.000810895)
(-0.02142 -0.000239487 0.000804272)
(-0.0193817 -0.000194139 0.000673354)
(-0.0206032 -0.000199003 0.000630825)
(-0.0186353 -0.00015133 0.000511626)
(-0.0201467 -0.000135402 0.000462021)
(-0.0181721 -0.000102585 0.000376395)
(-0.0181721 -0.000102585 0.000376395)
(-0.0181721 -0.000102585 0.000376395)
(-0.0231458 -0.000496487 0.000895124)
(-0.0209934 -0.00042965 0.000804449)
(-0.0218411 -0.000462164 0.000800428)
(-0.0200441 -0.00037315 0.000696712)
(-0.0212755 -0.000382544 0.000657788)
(-0.0195622 -0.000293104 0.000553281)
(-0.0210143 -0.000283738 0.000503203)
(-0.0210143 -0.000283738 0.000503203)
(-0.0210143 -0.000283738 0.000503203)
(-0.0233533 -0.000549946 0.000883539)
(-0.0214062 -0.000493655 0.000814654)
(-0.0223454 -0.000511648 0.000820599)
(-0.0208882 -0.000434379 0.000744423)
(-0.0221002 -0.000426426 0.000709342)
(-0.0207767 -0.000344117 0.000615162)
(-0.0207767 -0.000344117 0.000615162)
)
;
    }
    procBoundary6to4
    {
        type            processor;
        value           nonuniform List<vector> 
27
(
(-0.022863 0.000112845 0.00050641)
(-0.0205288 8.12992e-05 0.000450015)
(-0.0212155 8.31846e-05 0.000421371)
(-0.0190941 6.63243e-05 0.000359558)
(-0.0202691 6.59556e-05 0.000315239)
(-0.0181927 4.82131e-05 0.000258414)
(-0.0197089 4.19843e-05 0.000228329)
(-0.0176288 3.25236e-05 0.000186852)
(-0.0193913 2.63183e-05 0.00016009)
(-0.022968 9.98547e-05 0.00014068)
(-0.0207407 7.21054e-05 0.00013217)
(-0.0214779 7.19044e-05 8.41394e-05)
(-0.0195221 6.06576e-05 9.43948e-05)
(-0.020706 6.21722e-05 4.38989e-05)
(-0.0188084 5.59812e-05 5.62199e-05)
(-0.020276 5.88788e-05 2.04914e-05)
(-0.0183684 5.4547e-05 4.54336e-05)
(-0.0200333 6.37492e-05 4.53098e-05)
(-0.0231106 8.20845e-05 -1.76869e-05)
(-0.0210763 7.14389e-05 -1.17307e-05)
(-0.0218764 7.88228e-05 -5.19595e-05)
(-0.0202409 7.13821e-05 -3.13466e-05)
(-0.021381 7.64245e-05 -6.56441e-05)
(-0.0198748 7.37927e-05 -4.57359e-05)
(-0.0211626 8.52552e-05 -7.20783e-05)
(-0.0196977 8.5793e-05 -3.21759e-05)
(-0.0210644 0.000109589 -3.32526e-05)
)
;
    }
    procBoundary6to7
    {
        type            processor;
        value           nonuniform List<vector> 
12
(
(-0.0179227 -7.21345e-05 0.000261507)
(-0.0191434 -0.000140003 0.000359699)
(-0.0207828 -0.000129023 0.000485893)
(-0.0176182 -3.51247e-05 0.000173189)
(-0.0186124 -9.40599e-05 0.000242996)
(-0.020237 -0.000117673 0.000346986)
(-0.0181968 -1.89796e-05 0.000105667)
(-0.0194463 -0.000108686 0.000166486)
(-0.0209055 -9.80704e-05 0.000242991)
(-0.0195016 1.0783e-05 5.53233e-05)
(-0.0206017 -0.000104159 0.000128621)
(-0.02173 -8.05796e-05 0.000185621)
)
;
    }
}


// ************************************************************************* //
