/*--------------------------------*- C++ -*----------------------------------*\
| =========                 |                                                 |
| \\      /  F ield         | OpenFOAM: The Open Source CFD Toolbox           |
|  \\    /   O peration     | Version:  4.x                                   |
|   \\  /    A nd           | Web:      www.OpenFOAM.org                      |
|    \\/     M anipulation  |                                                 |
\*---------------------------------------------------------------------------*/
FoamFile
{
    version     2.0;
    format      ascii;
    class       volScalarField;
    location    "33";
    object      Cs;
}
// * * * * * * * * * * * * * * * * * * * * * * * * * * * * * * * * * * * * * //

dimensions      [1 -3 0 0 0 0 0];

internalField   nonuniform List<scalar> 
132
(
334.999
334.997
334.994
334.989
334.982
334.972
334.963
334.951
334.904
334.999
334.998
334.996
334.993
334.988
334.981
334.974
334.965
334.885
334.999
334.999
334.998
334.997
334.994
334.991
334.985
334.98
334.819
335
335
335
334.999
334.999
334.998
334.997
334.995
334.8
334.994
334.99
334.985
334.979
334.973
334.968
335.008
334.997
334.995
334.991
334.987
334.981
334.976
334.972
334.968
334.969
334.999
334.998
334.996
334.993
334.989
334.984
334.979
334.977
334.953
335
335
335
334.999
334.998
334.998
334.996
334.994
334.844
334.991
334.987
334.982
334.981
335.003
334.999
334.999
334.997
334.995
334.992
334.989
334.985
334.982
334.962
335
334.999
334.999
334.998
334.997
334.996
334.993
334.992
334.876
335
335
335
335
335
334.999
334.999
334.998
333.797
334.995
334.994
334.884
335
335
335
334.999
334.998
334.997
334.995
334.992
334.889
335
335
335
335
334.999
334.999
334.998
334.997
334.679
335
335
335
335
335
335
334.999
334.999
334.814
)
;

boundaryField
{
    inlet
    {
        type            calculated;
        value           nonuniform 0();
    }
    outlet
    {
        type            calculated;
        value           uniform 335;
    }
    wall
    {
        type            calculated;
        value           nonuniform List<scalar> 
66
(
335
335
335
335
335
335
335
335
335
334.999
335
335
334.998
334.999
335
334.997
334.999
335
334.995
334.995
334.998
334.999
334.994
334.992
334.997
334.999
334.884
334.889
334.679
334.814
335
335
335
335
335
335
335
335
335
335
335
335
334.999
334.999
335
335
334.999
334.998
335
335
334.998
334.998
334.999
335
334.997
334.996
334.999
334.999
334.995
334.994
334.998
334.999
334.8
334.844
333.797
334.814
)
;
    }
    procBoundary7to0
    {
        type            processor;
        value           uniform 334.999;
    }
    procBoundary7to1
    {
        type            processor;
        value           uniform 334.999;
    }
    procBoundary7to3
    {
        type            processor;
        value           nonuniform List<scalar> 
36
(
334.997
334.992
334.984
334.974
334.962
334.953
334.94
334.941
334.858
334.999
334.998
334.995
334.99
334.982
334.974
334.962
334.956
334.821
334.999
334.998
334.996
334.993
334.987
334.981
334.972
334.97
334.85
335
335
334.999
334.999
334.999
334.998
334.995
334.994
334.709
)
;
    }
    procBoundary7to5
    {
        type            processor;
        value           nonuniform List<scalar> 
44
(
334.997
334.995
334.991
334.985
334.977
334.97
334.96
334.864
334.999
334.997
334.996
334.992
334.988
334.983
334.978
334.975
334.987
334.999
334.997
334.997
334.997
334.995
334.994
334.991
334.988
334.987
334.993
334.999
334.998
334.997
334.995
334.995
334.998
334.998
334.997
334.996
334.882
335
335
335
334.999
334.998
334.998
334.998
)
;
    }
    procBoundary7to6
    {
        type            processor;
        value           nonuniform List<scalar> 
12
(
335
335
335
334.999
335
335
335
335
335
335
335
335
)
;
    }
}


// ************************************************************************* //
