/*--------------------------------*- C++ -*----------------------------------*\
| =========                 |                                                 |
| \\      /  F ield         | OpenFOAM: The Open Source CFD Toolbox           |
|  \\    /   O peration     | Version:  4.x                                   |
|   \\  /    A nd           | Web:      www.OpenFOAM.org                      |
|    \\/     M anipulation  |                                                 |
\*---------------------------------------------------------------------------*/
FoamFile
{
    version     2.0;
    format      ascii;
    class       volScalarField;
    location    "33";
    object      nu;
}
// * * * * * * * * * * * * * * * * * * * * * * * * * * * * * * * * * * * * * //

dimensions      [0 2 -1 0 0 0 0];

internalField   nonuniform List<scalar> 
132
(
1e-06
1.00001e-06
1.00002e-06
1.00003e-06
1.00005e-06
1.00008e-06
1.00011e-06
1.00015e-06
1.00029e-06
1e-06
1.00001e-06
1.00001e-06
1.00002e-06
1.00003e-06
1.00006e-06
1.00008e-06
1.0001e-06
1.00034e-06
1e-06
1e-06
1.00001e-06
1.00001e-06
1.00002e-06
1.00003e-06
1.00004e-06
1.00006e-06
1.00054e-06
1e-06
1e-06
1e-06
1e-06
1e-06
1e-06
1.00001e-06
1.00001e-06
1.0006e-06
1.00002e-06
1.00003e-06
1.00004e-06
1.00006e-06
1.00008e-06
1.00009e-06
9.99975e-07
1.00001e-06
1.00001e-06
1.00003e-06
1.00004e-06
1.00006e-06
1.00007e-06
1.00008e-06
1.00009e-06
1.00009e-06
1e-06
1.00001e-06
1.00001e-06
1.00002e-06
1.00003e-06
1.00005e-06
1.00006e-06
1.00007e-06
1.00014e-06
1e-06
1e-06
1e-06
1e-06
1e-06
1.00001e-06
1.00001e-06
1.00002e-06
1.00047e-06
1.00003e-06
1.00004e-06
1.00005e-06
1.00006e-06
9.99991e-07
1e-06
1e-06
1.00001e-06
1.00001e-06
1.00002e-06
1.00003e-06
1.00005e-06
1.00005e-06
1.00011e-06
1e-06
1e-06
1e-06
1e-06
1.00001e-06
1.00001e-06
1.00002e-06
1.00002e-06
1.00037e-06
1e-06
1e-06
1e-06
1e-06
1e-06
1e-06
1e-06
1.00001e-06
1.00361e-06
1.00001e-06
1.00002e-06
1.00035e-06
1e-06
1e-06
1e-06
1e-06
1e-06
1.00001e-06
1.00001e-06
1.00002e-06
1.00033e-06
1e-06
1e-06
1e-06
1e-06
1e-06
1e-06
1e-06
1.00001e-06
1.00096e-06
1e-06
1e-06
1e-06
1e-06
1e-06
1e-06
1e-06
1e-06
1.00056e-06
)
;

boundaryField
{
    inlet
    {
        type            calculated;
        value           nonuniform 0();
    }
    outlet
    {
        type            calculated;
        value           uniform 1e-06;
    }
    wall
    {
        type            calculated;
        value           nonuniform List<scalar> 
66
(
1e-06
1e-06
1e-06
1e-06
1e-06
1e-06
1e-06
1e-06
1e-06
1e-06
1e-06
1e-06
1e-06
1e-06
1e-06
1.00001e-06
1e-06
1e-06
1.00001e-06
1.00001e-06
1e-06
1e-06
1.00002e-06
1.00002e-06
1.00001e-06
1e-06
1.00035e-06
1.00033e-06
1.00096e-06
1.00056e-06
1e-06
1e-06
1e-06
1e-06
1e-06
1e-06
1e-06
1e-06
1e-06
1e-06
1e-06
1e-06
1e-06
1e-06
1e-06
1e-06
1e-06
1e-06
1e-06
1e-06
1e-06
1.00001e-06
1e-06
1e-06
1.00001e-06
1.00001e-06
1e-06
1e-06
1.00001e-06
1.00002e-06
1.00001e-06
1e-06
1.0006e-06
1.00047e-06
1.00361e-06
1.00056e-06
)
;
    }
    procBoundary7to0
    {
        type            processor;
        value           uniform 1e-06;
    }
    procBoundary7to1
    {
        type            processor;
        value           uniform 1e-06;
    }
    procBoundary7to3
    {
        type            processor;
        value           nonuniform List<scalar> 
36
(
1.00001e-06
1.00002e-06
1.00005e-06
1.00008e-06
1.00011e-06
1.00014e-06
1.00018e-06
1.00018e-06
1.00043e-06
1e-06
1.00001e-06
1.00002e-06
1.00003e-06
1.00005e-06
1.00008e-06
1.00011e-06
1.00013e-06
1.00053e-06
1e-06
1e-06
1.00001e-06
1.00002e-06
1.00004e-06
1.00006e-06
1.00008e-06
1.00009e-06
1.00045e-06
1e-06
1e-06
1e-06
1e-06
1e-06
1.00001e-06
1.00002e-06
1.00002e-06
1.00087e-06
)
;
    }
    procBoundary7to5
    {
        type            processor;
        value           nonuniform List<scalar> 
44
(
1.00001e-06
1.00002e-06
1.00003e-06
1.00005e-06
1.00007e-06
1.00009e-06
1.00012e-06
1.00041e-06
1e-06
1.00001e-06
1.00001e-06
1.00002e-06
1.00004e-06
1.00005e-06
1.00007e-06
1.00007e-06
1.00004e-06
1e-06
1.00001e-06
1.00001e-06
1.00001e-06
1.00002e-06
1.00002e-06
1.00003e-06
1.00004e-06
1.00004e-06
1.00002e-06
1e-06
1e-06
1.00001e-06
1.00002e-06
1.00002e-06
1e-06
1.00001e-06
1.00001e-06
1.00001e-06
1.00035e-06
1e-06
1e-06
1e-06
1e-06
1e-06
1.00001e-06
1.00001e-06
)
;
    }
    procBoundary7to6
    {
        type            processor;
        value           nonuniform List<scalar> 
12
(
1e-06
1e-06
1e-06
1e-06
1e-06
1e-06
1e-06
1e-06
1e-06
1e-06
1e-06
1e-06
)
;
    }
}


// ************************************************************************* //
