/*--------------------------------*- C++ -*----------------------------------*\
| =========                 |                                                 |
| \\      /  F ield         | OpenFOAM: The Open Source CFD Toolbox           |
|  \\    /   O peration     | Version:  4.x                                   |
|   \\  /    A nd           | Web:      www.OpenFOAM.org                      |
|    \\/     M anipulation  |                                                 |
\*---------------------------------------------------------------------------*/
FoamFile
{
    version     2.0;
    format      ascii;
    class       volScalarField;
    location    "33";
    object      SPartFluid;
}
// * * * * * * * * * * * * * * * * * * * * * * * * * * * * * * * * * * * * * //

dimensions      [1 -3 -1 0 0 0 0];

internalField   nonuniform List<scalar> 
132
(
9.92011e-65
7.82758e-65
6.43257e-65
6.74257e-65
1.03076e-64
1.03851e-64
7.98258e-65
5.65756e-65
8.37008e-65
7.67258e-65
9.4551e-65
7.28508e-65
6.89757e-65
8.29259e-65
5.65756e-65
7.51758e-65
6.35506e-65
8.06008e-65
4.80505e-65
7.44008e-65
6.12257e-65
7.13008e-65
7.44008e-65
8.06009e-65
7.51758e-65
7.20758e-65
8.60259e-65
6.51008e-65
6.58758e-65
8.6801e-65
5.50256e-65
7.28508e-65
6.74258e-65
7.90509e-65
5.89007e-65
4.34005e-65
6.43257e-65
7.36258e-65
6.74257e-65
6.89757e-65
8.60259e-65
8.44758e-65
7.36257e-65
3.95254e-65
8.52509e-65
7.44008e-65
7.51758e-65
8.13758e-65
7.05257e-65
5.73506e-65
7.67258e-65
5.73506e-65
5.50256e-65
8.21509e-65
6.97508e-65
6.04507e-65
7.36258e-65
8.60259e-65
8.91259e-65
7.05258e-65
7.98258e-65
6.74258e-65
7.90509e-65
5.96757e-65
7.20758e-65
7.36258e-65
6.20007e-65
6.58757e-65
7.98259e-65
5.34756e-65
5.03755e-65
5.81256e-65
7.36258e-65
6.04506e-65
5.81256e-65
8.06009e-65
7.36258e-65
6.82007e-65
5.19256e-65
8.52509e-65
7.05257e-65
7.13007e-65
8.75759e-65
7.51758e-65
7.05258e-65
7.36258e-65
7.51758e-65
6.97508e-65
7.98259e-65
7.59508e-65
7.67258e-65
7.05258e-65
7.75008e-65
5.58007e-65
6.35508e-65
7.05258e-65
6.89758e-65
6.12257e-65
5.27006e-65
7.59509e-65
7.05258e-65
5.81257e-65
5.50256e-65
6.43257e-65
6.12257e-65
6.89758e-65
5.81257e-65
7.67259e-65
7.44008e-65
5.19256e-65
3.87504e-65
6.89758e-65
6.66507e-65
5.42506e-65
5.96757e-65
6.04507e-65
6.04507e-65
6.20007e-65
6.89758e-65
6.35507e-65
7.20758e-65
6.43257e-65
7.28508e-65
6.04507e-65
7.44009e-65
5.65757e-65
5.81257e-65
6.58758e-65
6.51008e-65
6.51008e-65
6.35508e-65
4.10755e-65
)
;

boundaryField
{
    inlet
    {
        type            calculated;
        value           nonuniform 0();
    }
    outlet
    {
        type            calculated;
        value           uniform 0;
    }
    wall
    {
        type            calculated;
        value           uniform 0;
    }
    procBoundary7to0
    {
        type            processor;
        value           uniform 2.32503e-65;
    }
    procBoundary7to1
    {
        type            processor;
        value           uniform 5.73506e-65;
    }
    procBoundary7to3
    {
        type            processor;
        value           nonuniform List<scalar> 
36
(
7.67258e-65
9.0676e-65
8.75759e-65
8.52509e-65
6.12256e-65
6.27757e-65
8.52509e-65
7.13007e-65
7.44007e-65
9.0676e-65
5.03755e-65
7.75008e-65
4.34005e-65
4.65005e-65
7.90508e-65
7.28508e-65
8.83509e-65
6.12256e-65
5.11506e-65
8.13759e-65
8.21509e-65
5.81256e-65
6.82007e-65
7.98259e-65
6.66507e-65
7.20758e-65
5.42506e-65
8.5251e-65
4.03005e-65
5.42506e-65
6.12257e-65
5.58006e-65
7.13008e-65
6.20007e-65
7.90509e-65
8.52509e-65
)
;
    }
    procBoundary7to5
    {
        type            processor;
        value           nonuniform List<scalar> 
44
(
8.44759e-65
6.04506e-65
7.51758e-65
5.73506e-65
4.57255e-65
7.28507e-65
5.42505e-65
8.68009e-65
9.99761e-65
4.34005e-65
7.28508e-65
7.59508e-65
6.20006e-65
7.05257e-65
7.13007e-65
6.89757e-65
5.58006e-65
9.99761e-65
4.34005e-65
4.34005e-65
8.9901e-65
7.98259e-65
1.00751e-64
7.36258e-65
8.21509e-65
8.91259e-65
8.68009e-65
4.80505e-65
9.3776e-65
8.9901e-65
7.98259e-65
7.98259e-65
9.68761e-65
7.75009e-65
6.51007e-65
6.74257e-65
6.82007e-65
7.36259e-65
5.65756e-65
7.13008e-65
5.58006e-65
9.68761e-65
7.75009e-65
7.75009e-65
)
;
    }
    procBoundary7to6
    {
        type            processor;
        value           nonuniform List<scalar> 
12
(
6.74258e-65
7.13008e-65
4.96006e-65
8.5251e-65
7.59509e-65
7.51759e-65
7.90509e-65
7.75009e-65
5.65757e-65
3.79755e-65
7.8276e-65
6.04508e-65
)
;
    }
}


// ************************************************************************* //
