/*--------------------------------*- C++ -*----------------------------------*\
| =========                 |                                                 |
| \\      /  F ield         | OpenFOAM: The Open Source CFD Toolbox           |
|  \\    /   O peration     | Version:  4.x                                   |
|   \\  /    A nd           | Web:      www.OpenFOAM.org                      |
|    \\/     M anipulation  |                                                 |
\*---------------------------------------------------------------------------*/
FoamFile
{
    version     2.0;
    format      ascii;
    class       volVectorField;
    location    "21";
    object      impParticleForces;
}
// * * * * * * * * * * * * * * * * * * * * * * * * * * * * * * * * * * * * * //

dimensions      [1 1 -2 0 0 0 0];

internalField   nonuniform List<vector> 
108
(
(0.0024928 1.08348e-05 -3.6184e-05)
(0.00248064 1.4407e-05 -2.30233e-05)
(0.0024793 1.5283e-05 -1.04487e-05)
(0.00246254 1.47029e-05 9.87225e-07)
(0.0024405 1.49396e-05 9.33479e-06)
(0.00241615 1.56449e-05 1.35906e-05)
(0.00237323 1.84686e-05 8.53233e-06)
(0.00232329 2.12662e-05 -6.24486e-06)
(0.00224314 2.33773e-05 -2.59767e-05)
(0.00248727 1.0694e-05 -3.70931e-05)
(0.00250556 1.29255e-05 -2.50553e-05)
(0.00247933 1.4921e-05 -1.23935e-05)
(0.00246818 1.71263e-05 -8.07612e-07)
(0.0024497 2.0263e-05 8.3597e-06)
(0.00244012 2.52567e-05 1.26296e-05)
(0.00237879 3.31414e-05 7.01402e-06)
(0.00232499 4.31115e-05 -9.96438e-06)
(0.00223856 5.15089e-05 -3.30426e-05)
(0.00247605 1.26074e-05 -3.85764e-05)
(0.00248848 1.44206e-05 -2.7131e-05)
(0.00247834 1.6859e-05 -1.51093e-05)
(0.00247984 2.09442e-05 -4.11482e-06)
(0.00245977 2.73699e-05 4.45482e-06)
(0.00245121 3.65756e-05 8.60489e-06)
(0.00238495 5.14594e-05 8.30115e-07)
(0.00233678 6.78474e-05 -1.86569e-05)
(0.00225164 8.85109e-05 -4.48756e-05)
(0.00240742 1.36357e-05 -3.79114e-05)
(0.00242765 1.54372e-05 -2.75491e-05)
(0.00244934 1.82193e-05 -1.65809e-05)
(0.00245851 2.33857e-05 -7.22911e-06)
(0.00244087 3.16119e-05 1.27378e-07)
(0.00242457 4.31061e-05 1.98255e-06)
(0.00236269 6.19903e-05 -6.99925e-06)
(0.00231069 8.51146e-05 -3.40214e-05)
(0.0022589 0.00012385 -7.6507e-05)
(0.00248615 8.88176e-06 -3.50228e-05)
(0.00250466 1.20803e-05 -2.16665e-05)
(0.00248627 1.29969e-05 -9.26464e-06)
(0.00249333 1.32634e-05 3.01064e-06)
(0.00244753 1.33852e-05 1.08183e-05)
(0.00244344 1.44636e-05 1.62976e-05)
(0.0023902 1.66746e-05 1.08845e-05)
(0.0023735 2.03146e-05 -6.43823e-07)
(0.00228013 2.72559e-05 -3.46677e-05)
(0.00249023 1.04517e-05 -3.6775e-05)
(0.00251463 1.2403e-05 -2.42621e-05)
(0.00248593 1.42953e-05 -1.1874e-05)
(0.0024919 1.66232e-05 4.97352e-08)
(0.00245652 1.99512e-05 8.19365e-06)
(0.00246408 2.47826e-05 1.46541e-05)
(0.00240934 3.2364e-05 8.31004e-06)
(0.0023894 4.33697e-05 -5.18056e-06)
(0.00228018 5.60413e-05 -3.89299e-05)
(0.00251473 1.32572e-05 -3.97042e-05)
(0.00252386 1.4969e-05 -2.77378e-05)
(0.00249824 1.70485e-05 -1.55584e-05)
(0.00252536 2.10653e-05 -3.88906e-06)
(0.00248477 2.72087e-05 3.90152e-06)
(0.00249381 3.58659e-05 9.62425e-06)
(0.00242148 4.89651e-05 1.74373e-06)
(0.0023939 6.77505e-05 -1.5362e-05)
(0.00229205 9.55636e-05 -4.7382e-05)
(0.0024459 1.46578e-05 -3.93265e-05)
(0.00246629 1.63685e-05 -2.90668e-05)
(0.00245872 1.90037e-05 -1.84563e-05)
(0.00249584 2.38109e-05 -9.03707e-06)
(0.00247653 3.19324e-05 -2.01908e-06)
(0.00248984 4.16349e-05 1.533e-06)
(0.00240427 6.02266e-05 -7.97509e-06)
(0.00239009 8.29546e-05 -2.91201e-05)
(0.0022835 0.000128611 -7.9623e-05)
(0.00243102 6.19469e-06 -3.00793e-05)
(0.00246284 8.24803e-06 -1.75419e-05)
(0.00242935 9.29399e-06 -6.42356e-06)
(0.00244406 9.90474e-06 4.78951e-06)
(0.00240027 1.0078e-05 1.11695e-05)
(0.00240961 1.13557e-05 1.60684e-05)
(0.00235698 1.20708e-05 1.18786e-05)
(0.00233302 1.4432e-05 1.67718e-06)
(0.0022535 1.68974e-05 -1.91736e-05)
(0.00243839 9.85942e-06 -3.23307e-05)
(0.00245582 1.1119e-05 -2.04832e-05)
(0.00242675 1.30845e-05 -9.76624e-06)
(0.00241909 1.52922e-05 2.9173e-07)
(0.00239198 1.8422e-05 6.96796e-06)
(0.00242073 2.34157e-05 1.2386e-05)
(0.00237185 2.9491e-05 6.98097e-06)
(0.00236623 3.91499e-05 -3.58965e-06)
(0.00226395 5.01727e-05 -2.88102e-05)
(0.00244472 1.34684e-05 -3.50611e-05)
(0.00247642 1.48913e-05 -2.44602e-05)
(0.00244196 1.69015e-05 -1.39932e-05)
(0.00244533 2.04294e-05 -4.05665e-06)
(0.00242105 2.58523e-05 2.042e-06)
(0.00244898 3.38787e-05 6.27565e-06)
(0.00239876 4.47208e-05 7.6276e-07)
(0.00237779 6.03404e-05 -1.13636e-05)
(0.00227049 8.23055e-05 -3.46825e-05)
(0.00241619 1.53059e-05 -3.64181e-05)
(0.00242137 1.65892e-05 -2.64505e-05)
(0.00240886 1.89545e-05 -1.72068e-05)
(0.00242531 2.30982e-05 -8.66756e-06)
(0.00242286 3.02638e-05 -3.30583e-06)
(0.00243948 3.93485e-05 -2.76192e-08)
(0.00238063 5.42673e-05 -6.84948e-06)
(0.00237502 7.3347e-05 -1.91671e-05)
(0.00227305 0.000102216 -4.62689e-05)
)
;

boundaryField
{
    inlet
    {
        type            zeroGradient;
    }
    outlet
    {
        type            zeroGradient;
    }
    wall
    {
        type            zeroGradient;
    }
    procBoundary3to1
    {
        type            processor;
        value           nonuniform List<vector> 
27
(
(0.00247399 1.48456e-05 -3.4768e-05)
(0.0025068 2.16187e-05 -2.20499e-05)
(0.00248848 1.81758e-05 -9.13222e-06)
(0.00250951 1.28171e-05 2.6689e-06)
(0.00245741 7.4813e-06 1.11657e-05)
(0.00244445 3.8672e-06 1.64656e-05)
(0.00238768 -8.73987e-07 1.32638e-05)
(0.00235233 -2.79292e-06 3.99761e-06)
(0.00225415 -1.22488e-05 -1.29025e-05)
(0.00248677 9.32546e-06 -3.41218e-05)
(0.00251318 1.36252e-05 -2.05661e-05)
(0.00248687 1.26209e-05 -8.08223e-06)
(0.00250082 9.13466e-06 4.07089e-06)
(0.00245524 5.41278e-06 1.20917e-05)
(0.00246479 2.35985e-06 1.86245e-05)
(0.00241756 -1.79195e-06 1.54395e-05)
(0.0024053 -2.54318e-06 9.21292e-06)
(0.00227338 -1.528e-05 -1.52743e-05)
(0.00243176 3.47053e-06 -2.9773e-05)
(0.00245979 6.45528e-06 -1.69661e-05)
(0.00243019 6.09417e-06 -5.72488e-06)
(0.00246419 3.88667e-06 6.17724e-06)
(0.00241893 6.97156e-07 1.27607e-05)
(0.00242662 -2.90026e-06 1.82407e-05)
(0.00236846 -7.17544e-06 1.52504e-05)
(0.0023457 -1.15029e-05 8.40902e-06)
(0.00224668 -2.09326e-05 -8.04869e-06)
)
;
    }
    procBoundary3to2
    {
        type            processor;
        value           nonuniform List<vector> 
12
(
(0.00245188 6.49758e-06 -4.77985e-05)
(0.00245386 8.58928e-06 -4.8494e-05)
(0.00246296 1.13755e-05 -4.9338e-05)
(0.00241614 1.27947e-05 -4.82719e-05)
(0.00249379 5.12625e-06 -4.81509e-05)
(0.00247689 8.54221e-06 -4.85512e-05)
(0.00248537 1.22181e-05 -4.99608e-05)
(0.00242214 1.38047e-05 -4.85603e-05)
(0.00243714 3.38442e-06 -4.23175e-05)
(0.00243689 8.39857e-06 -4.34535e-05)
(0.00246129 1.31011e-05 -4.5824e-05)
(0.00241727 1.48689e-05 -4.56209e-05)
)
;
    }
    procBoundary3to7
    {
        type            processor;
        value           nonuniform List<vector> 
36
(
(0.00238463 3.47413e-06 -2.46234e-05)
(0.00240852 4.96732e-06 -1.40902e-05)
(0.00237225 5.48316e-06 -4.5956e-06)
(0.00239001 5.88631e-06 5.01987e-06)
(0.0023723 5.95548e-06 1.15697e-05)
(0.00238205 5.98142e-06 1.65182e-05)
(0.00231311 5.26933e-06 1.25386e-05)
(0.00228357 5.02046e-06 5.96417e-06)
(0.00221227 5.34949e-06 -6.8212e-06)
(0.00238776 9.05395e-06 -2.69079e-05)
(0.00242936 1.04365e-05 -1.6807e-05)
(0.0023818 1.16762e-05 -7.9892e-06)
(0.00239181 1.36798e-05 8.55134e-07)
(0.00236716 1.66938e-05 6.21759e-06)
(0.00238047 2.04543e-05 1.05958e-05)
(0.00232616 2.58226e-05 5.8262e-06)
(0.00230897 3.23662e-05 -2.9728e-07)
(0.00222879 4.28418e-05 -1.74904e-05)
(0.00239067 1.31706e-05 -3.00335e-05)
(0.00242954 1.4796e-05 -2.11477e-05)
(0.0023935 1.66117e-05 -1.27492e-05)
(0.00240819 2.01785e-05 -4.55714e-06)
(0.0023901 2.53654e-05 2.03765e-08)
(0.00241788 3.23099e-05 3.99067e-06)
(0.00236149 4.31294e-05 -1.07315e-06)
(0.0023356 5.55972e-05 -7.35942e-06)
(0.00224505 8.05962e-05 -2.74632e-05)
(0.00237742 1.53088e-05 -3.22236e-05)
(0.0023897 1.66387e-05 -2.39227e-05)
(0.00237739 1.91711e-05 -1.65343e-05)
(0.00237602 2.29746e-05 -8.98194e-06)
(0.00238336 2.98249e-05 -5.35471e-06)
(0.00239615 3.72285e-05 -1.4786e-06)
(0.00235092 5.11458e-05 -6.28655e-06)
(0.00234596 6.37463e-05 -9.24795e-06)
(0.00223536 8.76904e-05 -2.71269e-05)
)
;
    }
}


// ************************************************************************* //
