/*--------------------------------*- C++ -*----------------------------------*\
| =========                 |                                                 |
| \\      /  F ield         | OpenFOAM: The Open Source CFD Toolbox           |
|  \\    /   O peration     | Version:  4.x                                   |
|   \\  /    A nd           | Web:      www.OpenFOAM.org                      |
|    \\/     M anipulation  |                                                 |
\*---------------------------------------------------------------------------*/
FoamFile
{
    version     2.0;
    format      ascii;
    class       volScalarField;
    location    "18.5";
    object      QPartFluidCoeff;
}
// * * * * * * * * * * * * * * * * * * * * * * * * * * * * * * * * * * * * * //

dimensions      [1 -1 -3 -1 0 0 0];

internalField   nonuniform List<scalar> 
87
(
-2.72081e+07
-2.24766e+07
-2.95748e+07
-1.88302e+07
-2.06365e+07
-1.85617e+07
-3.31426e+07
-2.99805e+07
-2.03188e+07
-2.71152e+07
-3.71728e+07
-2.08035e+07
-2.91733e+07
-2.23276e+07
-3.31745e+07
-2.09264e+07
-3.08836e+07
-2.71678e+07
-3.42981e+07
-2.94368e+07
-2.94748e+07
-2.9084e+07
-3.11564e+07
-3.11037e+07
-1.54985e+07
-2.53787e+07
-1.97554e+07
-2.04955e+07
-2.87993e+07
-3.14726e+07
-2.43352e+07
-2.10723e+07
-2.89951e+07
-2.43924e+07
-3.01157e+07
-3.20801e+07
-2.89918e+07
-2.21036e+07
-2.65023e+07
-2.62802e+07
-2.07439e+07
-3.15981e+07
-1.78402e+07
-2.95574e+07
-2.92966e+07
-2.67847e+07
-2.62035e+07
-2.17849e+07
-3.30766e+07
-2.17999e+07
-3.28524e+07
-1.59562e+07
-2.23096e+07
-2.04797e+07
-2.6053e+07
-2.71689e+07
-2.03995e+07
-2.51448e+07
-2.1272e+07
-2.26744e+07
-1.62942e+07
-1.80637e+07
-2.45638e+07
-2.32202e+07
-2.36151e+07
-2.13078e+07
-3.37471e+07
-2.83722e+07
-1.48317e+07
-1.72704e+07
-1.94878e+07
-2.52501e+07
-2.0531e+07
-3.19233e+07
-2.214e+07
-2.36972e+07
-2.00236e+07
-2.78578e+07
-1.40677e+07
-2.05448e+07
-2.24142e+07
-2.11297e+07
-1.73591e+07
-2.81901e+07
-1.85663e+07
-1.88328e+07
-2.3729e+07
)
;

boundaryField
{
    inlet
    {
        type            calculated;
        value           uniform 0;
    }
    outlet
    {
        type            calculated;
        value           nonuniform 0();
    }
    wall
    {
        type            calculated;
        value           uniform 0;
    }
    procBoundary6to0
    {
        type            processor;
        value           uniform 197.768;
    }
    procBoundary6to2
    {
        type            processor;
        value           nonuniform List<scalar> 
32
(
435.788
646.068
771.888
729.556
407.125
581.687
368.957
722.527
780.92
560.123
628.077
488.509
578.205
601.647
601.647
601.647
442.503
601.224
793.446
503.027
687.11
584.538
777.508
777.508
777.508
320.367
478.562
564.746
548.801
506.921
490.34
490.34
)
;
    }
    procBoundary6to4
    {
        type            processor;
        value           nonuniform List<scalar> 
27
(
261.571
511.246
710.204
437.541
668.931
516.908
835.651
462.111
534.078
467.401
649.388
566.897
730.383
788.896
574.29
884.719
637.659
606.593
545.496
529.662
501.921
594.399
627.387
705.157
368.017
379.359
524.1
)
;
    }
    procBoundary6to7
    {
        type            processor;
        value           nonuniform List<scalar> 
12
(
591.258
398.179
532.193
291.232
456.067
510.22
653.783
614.162
453.445
540.212
473.56
459.439
)
;
    }
}


// ************************************************************************* //
