/*--------------------------------*- C++ -*----------------------------------*\
| =========                 |                                                 |
| \\      /  F ield         | OpenFOAM: The Open Source CFD Toolbox           |
|  \\    /   O peration     | Version:  4.x                                   |
|   \\  /    A nd           | Web:      www.OpenFOAM.org                      |
|    \\/     M anipulation  |                                                 |
\*---------------------------------------------------------------------------*/
FoamFile
{
    version     2.0;
    format      ascii;
    class       volVectorField;
    location    "18.5";
    object      U;
}
// * * * * * * * * * * * * * * * * * * * * * * * * * * * * * * * * * * * * * //

dimensions      [0 1 -1 0 0 0 0];

internalField   nonuniform List<vector> 
87
(
(0.0284855 0.000525393 0.000293275)
(0.00730552 9.94761e-05 -0.000576789)
(0.0288422 0.000566469 -0.000256916)
(0.0318446 0.000761469 -0.00112036)
(0.0156476 0.000390744 -0.00118059)
(0.0327186 0.000622174 -0.000923807)
(0.0287864 0.000418973 -0.000868087)
(0.00957871 0.000278656 -0.000408613)
(0.0273127 0.000527859 -0.000899896)
(0.00545696 0.000138588 -0.000349686)
(0.0266967 0.000387155 -0.000710617)
(0.00200831 5.60025e-05 -0.000167803)
(0.0261993 0.000139729 -0.00037717)
(-8.91893e-08 -1.48782e-08 -1.26657e-08)
(0.0257312 0.000200622 9.71637e-05)
(0.0289054 0.00144436 -0.000657677)
(0.0108355 0.000507948 -0.00042635)
(0.0282249 0.00132444 -0.000767442)
(0.00844946 0.000355694 -0.00047103)
(0.0277878 0.000911021 -0.000678764)
(0.00632465 0.000221891 -0.000414109)
(0.0273655 0.000649791 -0.000598597)
(0.00392077 0.000158421 -0.000319202)
(0.0269641 0.000104112 -0.000268263)
(0.0293126 0.000952827 -0.00071421)
(0.0132069 0.000497472 -0.000534157)
(0.0298509 0.000942166 -0.00089922)
(0.0134211 0.000373852 -0.000779107)
(0.0301172 0.000682492 -0.000948424)
(0.0128865 0.000312087 -0.000823179)
(0.030027 0.000825563 -0.000829052)
(0.0124802 0.000347154 -0.000914399)
(0.0300902 0.000648926 -0.000591708)
(0.0287615 0.000691437 0.000772253)
(0.0109787 0.000327524 0.000185549)
(0.028094 0.00075864 0.000667866)
(0.00863678 0.000274916 0.000140547)
(0.0278127 0.000561556 0.000586021)
(0.00676935 0.000146329 3.60905e-05)
(0.0277355 0.000295245 0.000440352)
(0.00492579 8.15855e-05 0.000139221)
(0.0277888 0.000122222 0.000337546)
(0.0290417 0.00129408 0.000598411)
(0.0119613 0.000537548 0.00020106)
(0.0288509 0.00109383 0.000562085)
(0.0107 0.000323247 7.52601e-05)
(0.0287217 0.000747023 0.000456185)
(0.00951225 0.000307041 2.15467e-05)
(0.0285649 0.000726347 0.000622655)
(0.00787759 0.00028828 2.54452e-05)
(0.0284738 0.000682486 0.000725338)
(0.0292577 0.00092507 0.000413519)
(0.0139387 0.000530793 0.000110738)
(0.030371 0.000918465 0.00042531)
(0.0148856 0.000416775 0.000111261)
(0.0310263 0.000706891 0.000439797)
(0.0150391 0.000399424 -2.3702e-05)
(0.031316 0.000752337 0.000262538)
(0.015236 0.00046408 -0.000175559)
(0.031983 0.000791403 0.000104392)
(0.029162 0.000792697 0.000469879)
(0.0130194 0.000325874 0.000142987)
(0.0294214 0.000733238 0.000192291)
(0.0123788 0.000258183 -2.04774e-06)
(0.0294999 0.000412198 4.15743e-05)
(0.0115464 7.78516e-05 -6.34557e-06)
(0.0294606 8.71519e-05 0.000139304)
(0.010712 1.23524e-05 9.88312e-05)
(0.0294402 3.60361e-05 0.000303543)
(0.0292315 0.0011018 0.00042439)
(0.0138985 0.000525999 0.000181459)
(0.0301377 0.00114383 0.000306405)
(0.0146913 0.000497128 4.56926e-05)
(0.0307857 0.000871732 0.000119526)
(0.0147555 0.000406978 2.57318e-05)
(0.0307629 0.000672877 0.000220292)
(0.0146144 0.000124336 -3.95291e-05)
(0.0310595 0.000249192 0.000307745)
(0.0293201 0.000762823 0.000260444)
(0.0149753 0.000428568 5.48679e-05)
(0.0311845 0.00081934 0.000190337)
(0.0175559 0.00048775 5.33342e-05)
(0.0328959 0.000743665 0.000104887)
(0.0195732 0.000412589 -7.16949e-05)
(0.0339006 0.000604509 -1.83775e-05)
(0.020433 0.000308214 -0.000365377)
(0.0344331 0.000255343 -0.000389896)
)
;

boundaryField
{
    inlet
    {
        type            fixedValue;
        value           uniform (0.01 0 0);
    }
    outlet
    {
        type            zeroGradient;
    }
    wall
    {
        type            fixedValue;
        value           uniform (0 0 0);
    }
    procBoundary6to0
    {
        type            processor;
        value           uniform (0.0270682 8.24041e-05 -0.000270261);
    }
    procBoundary6to2
    {
        type            processor;
        value           nonuniform List<vector> 
32
(
(0.0275591 -0.000139093 -0.000101132)
(0.00488615 0.000121999 -0.000355599)
(0.0279393 0.000517215 -0.000164365)
(0.031878 0.000933406 -0.00124928)
(0.01576 0.000372953 -0.00101139)
(0.0324473 0.000722001 -0.000963519)
(0.0288447 0.000477 -0.00180101)
(0.0108103 0.000300253 -0.000863753)
(0.0283839 0.000657972 -0.00169305)
(0.00874635 0.000247878 -0.000730002)
(0.0282088 0.000495309 -0.00130123)
(0.00716182 0.000231035 -0.000512447)
(0.0283313 0.000358269 -0.000636401)
(0.00547207 0.000221601 -0.000456092)
(0.00547207 0.000221601 -0.000456092)
(0.00547207 0.000221601 -0.000456092)
(0.0288714 0.00109833 -0.00150328)
(0.0114536 0.000488404 -0.000812783)
(0.0286463 0.000976053 -0.00138993)
(0.00991354 0.000267774 -0.00074835)
(0.0284722 0.000745797 -0.00113491)
(0.00854487 0.000151166 -0.000604364)
(0.0286235 0.000704759 -0.000739817)
(0.0286235 0.000704759 -0.000739817)
(0.0286235 0.000704759 -0.000739817)
(0.0292004 0.000961996 -0.00141086)
(0.0135292 0.000532368 -0.000947079)
(0.0302515 0.000965955 -0.00157115)
(0.0144287 0.000453985 -0.00113728)
(0.0310359 0.000831713 -0.00154711)
(0.0150842 0.000429482 -0.000984941)
(0.0150842 0.000429482 -0.000984941)
)
;
    }
    procBoundary6to4
    {
        type            processor;
        value           nonuniform List<vector> 
27
(
(0.0289258 -0.000483295 -0.00087582)
(0.0105129 -8.46662e-05 -0.000438419)
(0.0277932 -0.000408107 -0.000842401)
(0.00738493 -0.000159247 -0.000441395)
(0.0271372 -0.000437006 -0.000713951)
(0.00453483 -9.25457e-05 -0.000245698)
(0.0267366 -3.96794e-05 -0.000450579)
(0.00206689 -4.41561e-05 -0.00010758)
(0.0263871 0.00040004 0.000289423)
(0.0288992 -0.000388783 0.000229299)
(0.0107575 -3.77664e-05 0.000223154)
(0.0279317 -0.000134218 0.000391672)
(0.00789358 -6.20261e-05 8.78217e-05)
(0.0273917 -0.000142723 0.000487844)
(0.00547062 -0.000143964 0.000126418)
(0.0270734 -0.000244432 0.000756694)
(0.00356171 -0.000131419 8.42398e-05)
(0.0268155 -0.000313616 0.00101325)
(0.0290176 -0.000235855 0.000326657)
(0.0123098 -0.000126603 0.000220388)
(0.0289867 -0.000415644 0.000360037)
(0.0111628 -0.000237944 0.000151286)
(0.0290844 -0.000399922 0.000312618)
(0.0105382 -0.000270833 0.000178185)
(0.02917 -0.000379361 0.000486338)
(0.0107212 -0.000262844 0.000138078)
(0.0294471 -0.000311793 0.000501408)
)
;
    }
    procBoundary6to7
    {
        type            processor;
        value           nonuniform List<vector> 
12
(
(0.00432112 0.000434556 -0.000355169)
(0.00679378 0.000147613 -0.000550398)
(0.0160488 0.000465478 -0.00135001)
(-1.24796e-07 -8.70151e-10 -1.45761e-08)
(0.00199743 0.000139415 -0.000170554)
(0.0117483 0.000371023 -0.00095809)
(0.0032728 0.00015104 0.000176197)
(0.00620212 0.000288797 9.53232e-05)
(0.0160482 0.00059547 -0.000232584)
(0.0102658 5.25083e-05 -2.30397e-05)
(0.0149804 0.000167027 -0.000106384)
(0.0203438 0.000181782 -0.000741536)
)
;
    }
}


// ************************************************************************* //
