/*--------------------------------*- C++ -*----------------------------------*\
| =========                 |                                                 |
| \\      /  F ield         | OpenFOAM: The Open Source CFD Toolbox           |
|  \\    /   O peration     | Version:  4.x                                   |
|   \\  /    A nd           | Web:      www.OpenFOAM.org                      |
|    \\/     M anipulation  |                                                 |
\*---------------------------------------------------------------------------*/
FoamFile
{
    version     2.0;
    format      ascii;
    class       volVectorField;
    location    "18.5";
    object      UsPrev;
}
// * * * * * * * * * * * * * * * * * * * * * * * * * * * * * * * * * * * * * //

dimensions      [0 1 -1 0 0 0 0];

internalField   nonuniform List<vector> 
87
(
(-1.31777e-07 -5.2726e-09 -1.82135e-08)
(-9.08906e-08 -1.32394e-08 -1.55599e-08)
(-1.16489e-07 -1.25405e-09 -2.00553e-08)
(-2.32962e-08 -1.79029e-09 -6.70923e-09)
(-4.79305e-08 -7.20004e-09 -1.64002e-08)
(-3.9685e-08 -1.5384e-09 -1.68849e-08)
(1.95549e-08 -1.63551e-09 -1.7159e-09)
(2.75953e-08 -7.24182e-09 -4.36021e-09)
(2.97923e-08 -9.47494e-09 -6.52537e-09)
(1.64302e-08 -1.25362e-08 -7.60633e-09)
(-1.71601e-08 -1.15016e-08 -1.08532e-08)
(-5.86699e-08 -1.82866e-08 -5.14128e-09)
(-7.70233e-08 -1.95375e-08 -9.80786e-09)
(-9.95842e-08 -1.5139e-08 -1.17661e-08)
(-1.23858e-07 -3.453e-09 -1.15586e-08)
(2.698e-08 1.02701e-09 -8.14154e-11)
(3.15479e-08 -5.12299e-09 -3.53408e-09)
(3.35746e-08 -3.73114e-09 -4.95586e-09)
(1.08348e-08 -4.29806e-09 -3.61408e-09)
(-6.47118e-09 -6.80248e-10 -9.9427e-09)
(-3.72985e-08 -6.73892e-09 -7.62049e-09)
(-6.65355e-08 -8.4457e-09 -1.37457e-08)
(-8.02597e-08 -8.32366e-09 -1.84239e-08)
(-1.01035e-07 -9.01066e-10 -8.91565e-09)
(8.963e-09 1.06968e-09 -2.81351e-09)
(3.2333e-08 -2.95308e-09 -4.9738e-09)
(1.71004e-08 3.66943e-09 -2.44663e-09)
(9.20561e-09 1.69218e-09 -2.05009e-09)
(1.1722e-09 1.90525e-09 -2.94564e-09)
(-1.78404e-08 -1.36481e-10 -3.65451e-09)
(-2.8226e-08 -1.46818e-09 -4.97777e-09)
(-2.64342e-08 -9.69396e-10 -6.02949e-09)
(-5.19922e-08 2.81397e-09 -1.0212e-08)
(1.46942e-08 -1.28469e-10 -1.17664e-09)
(2.5381e-08 -3.15548e-09 -5.48662e-11)
(2.86851e-08 -6.02361e-09 -2.3028e-09)
(1.97898e-08 -5.42079e-09 -2.58776e-09)
(5.53666e-09 -4.15743e-09 -1.48615e-09)
(-3.39763e-08 -5.73667e-09 -3.71594e-09)
(-5.45867e-08 -1.25005e-08 -1.04071e-08)
(-7.9277e-08 -1.63182e-08 -7.46056e-09)
(-9.67708e-08 -5.50014e-09 -8.76552e-09)
(1.87338e-08 3.58907e-09 1.38803e-09)
(2.82584e-08 -3.63577e-09 -1.55354e-09)
(2.75895e-08 -5.53917e-09 -7.21812e-10)
(1.79393e-08 -4.48488e-09 -1.5009e-09)
(1.14011e-08 1.82373e-10 -1.11474e-10)
(-3.00268e-08 -2.37067e-09 -1.08708e-09)
(-4.21139e-08 -9.45446e-09 -1.01098e-08)
(-5.49205e-08 -1.22194e-09 -1.55898e-08)
(-8.78934e-08 -4.63039e-09 1.47394e-09)
(4.05889e-08 -3.95708e-09 -1.3406e-08)
(7.23104e-08 1.02676e-08 -1.92718e-08)
(1.67997e-08 -4.75932e-09 1.71617e-09)
(1.02957e-08 -1.29385e-09 -7.86898e-10)
(6.57896e-09 1.25098e-09 -4.91743e-10)
(-6.49122e-09 1.4336e-09 -4.31883e-10)
(-1.34301e-08 -2.83798e-09 -4.09504e-09)
(-2.15328e-08 -2.39726e-09 -1.23964e-08)
(-3.47538e-08 -9.26125e-09 6.26792e-09)
(1.37715e-08 9.80382e-10 -1.52576e-09)
(1.89422e-08 -1.29246e-09 3.70802e-10)
(2.52826e-08 -3.95503e-09 6.84892e-10)
(1.22047e-08 -1.91903e-09 1.54885e-10)
(3.47456e-09 -3.10595e-09 2.09101e-09)
(-1.16095e-08 -2.6774e-09 2.58476e-09)
(-3.62342e-08 -1.09323e-08 -4.86605e-09)
(-5.33309e-08 -8.91543e-09 -2.25967e-09)
(-6.55049e-08 -1.0276e-08 -1.09638e-08)
(6.72409e-08 2.71464e-08 5.07346e-10)
(2.163e-08 -4.50165e-09 -6.63847e-10)
(1.71802e-08 -8.46688e-10 -1.61089e-10)
(1.28428e-08 -1.25099e-09 -9.40771e-10)
(5.53218e-09 -3.32499e-10 1.1419e-09)
(-7.33898e-09 -1.06748e-09 1.16607e-09)
(-1.9286e-08 -6.81533e-09 -6.12993e-09)
(-2.70616e-08 7.65152e-11 -5.36426e-09)
(-4.29496e-08 -1.43014e-08 4.76228e-09)
(2.01616e-07 6.09773e-08 3.79489e-09)
(1.74415e-08 -3.44844e-10 -2.62318e-09)
(1.03209e-08 -2.20145e-09 1.44174e-09)
(5.74549e-09 -4.52766e-10 2.84863e-10)
(4.76498e-09 1.18258e-10 6.12995e-10)
(-2.73065e-09 4.26579e-12 3.0784e-10)
(-3.85189e-09 -1.82397e-09 -1.95768e-09)
(-4.10393e-09 -1.73678e-09 -7.24715e-09)
(-1.92139e-08 -6.44642e-09 5.50624e-09)
)
;

boundaryField
{
    inlet
    {
        type            calculated;
        value           uniform (0 0 0);
    }
    outlet
    {
        type            calculated;
        value           nonuniform 0();
    }
    wall
    {
        type            calculated;
        value           uniform (0 0 0);
    }
    procBoundary6to0
    {
        type            processor;
        value           uniform (0 0 0);
    }
    procBoundary6to2
    {
        type            processor;
        value           uniform (0 0 0);
    }
    procBoundary6to4
    {
        type            processor;
        value           uniform (0 0 0);
    }
    procBoundary6to7
    {
        type            processor;
        value           uniform (0 0 0);
    }
}


// ************************************************************************* //
