/*--------------------------------*- C++ -*----------------------------------*\
  =========                 |
  \\      /  F ield         | OpenFOAM: The Open Source CFD Toolbox
   \\    /   O peration     | Website:  https://openfoam.org
    \\  /    A nd           | Version:  4.x
     \\/     M anipulation  |
\*---------------------------------------------------------------------------*/
FoamFile
{
    version     2.0;
    format      ascii;
    class       vectorField;
    location    0;
    object      v;
}
// * * * * * * * * * * * * * * * * * * * * * * * * * * * * * * * * * * * * * //

407
(
( -2.21579e-06 -1.03733e-08 3.87462e-07 )  
( -2.12909e-06 2.36244e-07 2.28056e-07 )  
( -1.16076e-06 8.67083e-09 -9.95963e-08 )  
( -2.00918e-06 6.74648e-09 2.15484e-07 )  
( -1.1974e-06 2.26249e-07 2.04787e-08 )  
( -2.27328e-06 -4.97468e-08 3.0096e-07 )  
( -2.51077e-06 1.4571e-07 4.6564e-07 )  
( -2.54431e-06 1.33177e-07 4.64037e-07 )  
( -1.13241e-06 4.59557e-08 -1.57205e-07 )  
( -2.61172e-06 8.98122e-08 1.28062e-07 )  
( -1.7127e-06 -3.50642e-08 -1.18809e-07 )  
( -2.58324e-06 7.24882e-09 -3.19752e-08 )  
( -2.27261e-06 6.49974e-08 -9.80357e-08 )  
( -2.81188e-06 1.94471e-07 1.23158e-07 )  
( -2.53888e-06 3.86772e-08 -5.50167e-08 )  
( -2.71143e-06 2.11064e-07 4.86917e-07 )  
( -7.88019e-07 2.00599e-07 -1.61333e-07 )  
( -2.48452e-06 1.67088e-07 4.10716e-07 )  
( -3.90715e-07 1.06714e-08 -1.29095e-07 )  
( -2.56817e-06 5.4713e-08 2.62586e-07 )  
( -3.50552e-07 1.33427e-07 -2.10561e-07 )  
( -2.93961e-06 1.01395e-07 3.56936e-07 )  
( -2.18293e-06 5.51208e-08 -2.10263e-07 )  
( -2.77482e-06 2.01847e-07 4.97785e-07 )  
( -1.83795e-06 1.04832e-07 -1.32453e-07 )  
( -1.23437e-06 1.43973e-08 -1.83727e-07 )  
( -2.8471e-06 2.3067e-07 2.23507e-07 )  
( -2.21307e-06 2.92722e-07 2.60557e-07 )  
( -1.50621e-06 -8.56428e-08 -1.08736e-07 )  
( -3.21781e-07 4.23262e-08 -1.12378e-07 )  
( -1.92461e-06 2.1545e-07 2.68445e-07 )  
( -1.13423e-06 -4.34027e-07 -1.24765e-07 )  
( -1.96221e-06 -1.37434e-07 -1.89604e-07 )  
( -2.63062e-06 6.07714e-08 1.42523e-07 )  
( -2.42795e-06 3.52208e-07 4.55151e-07 )  
( -2.8003e-06 5.56528e-08 3.40645e-07 )  
( -2.61343e-06 1.9638e-07 4.21957e-07 )  
( -2.27728e-06 -1.56105e-07 -1.31974e-07 )  
( -2.86448e-06 3.2194e-07 5.52932e-07 )  
( -2.6071e-06 1.54075e-07 1.1832e-07 )  
( -2.10706e-06 -6.16109e-08 -3.44139e-07 )  
( -1.75212e-06 -6.55696e-08 -1.99631e-07 )  
( -8.44433e-07 1.12407e-07 -1.74329e-07 )  
( -2.36812e-06 -1.70512e-07 7.63941e-09 )  
( -2.69049e-06 8.13617e-08 2.90452e-07 )  
( -2.22581e-06 -3.14466e-07 -2.11118e-07 )  
( -2.1737e-06 2.56071e-07 2.74829e-07 )  
( -2.99874e-06 1.29792e-07 3.95965e-07 )  
( -2.40757e-06 2.90271e-07 3.04332e-07 )  
( -1.37349e-06 1.42712e-07 -1.58275e-07 )  
( -1.27195e-06 -1.3932e-07 -9.26447e-08 )  
( -2.62931e-06 2.43479e-07 3.45312e-07 )  
( -1.90396e-06 2.7472e-07 1.84915e-07 )  
( -2.15354e-06 1.36684e-07 1.05886e-07 )  
( -2.08141e-06 -1.42423e-07 -1.46402e-07 )  
( -1.03844e-06 -1.09924e-07 -4.20091e-08 )  
( -2.59163e-06 1.00075e-07 3.64724e-07 )  
( -2.62867e-06 -2.21559e-07 9.61147e-09 )  
( -2.43772e-06 2.76601e-07 3.85897e-07 )  
( -2.5189e-06 1.19941e-07 2.97944e-07 )  
( -2.51981e-06 -2.71657e-07 -6.19859e-07 )  
( -2.30653e-06 2.22219e-07 3.66343e-07 )  
( -2.45256e-06 9.87412e-08 6.2131e-08 )  
( -2.11771e-06 2.10732e-07 1.62503e-07 )  
( -3.98268e-07 -2.85735e-08 -1.05772e-07 )  
( -1.68636e-06 -1.29938e-07 -1.18262e-07 )  
( -1.90206e-06 3.47496e-07 1.58023e-07 )  
( -7.48743e-07 -1.49079e-08 5.11832e-08 )  
( -3.45838e-07 -1.32081e-07 -8.49881e-08 )  
( -2.39145e-06 2.37416e-07 3.25266e-07 )  
( -2.40104e-06 3.50366e-07 4.24073e-07 )  
( -1.48403e-06 -1.04684e-07 -8.68769e-08 )  
( -1.42473e-06 -2.5826e-07 8.14802e-09 )  
( -1.45901e-06 4.18223e-08 -2.69335e-07 )  
( -9.03736e-07 1.21131e-08 -7.37647e-08 )  
( -3.04026e-06 -7.04678e-08 1.00989e-07 )  
( -2.12912e-06 3.63004e-07 2.97177e-07 )  
( -3.06498e-06 1.21697e-07 2.473e-07 )  
( -1.0867e-06 7.03545e-08 -1.67677e-07 )  
( -2.09931e-06 2.54217e-07 1.97185e-07 )  
( -2.29798e-06 2.66088e-07 2.34953e-07 )  
( -2.44275e-06 -2.10108e-08 -7.24551e-08 )  
( -3.13989e-07 1.33075e-07 -2.38778e-07 )  
( -1.9574e-06 1.87312e-07 -6.17408e-08 )  
( -2.39462e-06 1.78013e-07 4.30423e-07 )  
( -1.17881e-06 2.29353e-07 -9.61455e-08 )  
( -1.61343e-06 -1.40003e-08 -2.40599e-07 )  
( -2.48619e-06 2.56173e-08 7.31702e-08 )  
( -2.05254e-06 3.09732e-07 1.73149e-07 )  
( -8.08059e-07 1.61736e-07 2.08422e-07 )  
( -1.02796e-06 -2.03533e-07 -1.68532e-07 )  
( -8.01381e-07 9.75305e-08 -2.05549e-07 )  
( -2.04921e-06 1.69912e-07 3.59822e-07 )  
( -2.81538e-06 3.39881e-07 3.92998e-07 )  
( -2.68635e-06 3.26555e-08 -6.31455e-09 )  
( -1.20547e-06 2.00532e-07 1.16945e-07 )  
( -2.13745e-06 -3.4946e-07 -5.02972e-08 )  
( -2.99225e-06 6.27665e-08 3.32232e-07 )  
( -1.5643e-06 -4.52311e-08 -5.4207e-08 )  
( -2.15673e-06 -1.59283e-07 -9.17262e-08 )  
( -1.41106e-06 -3.32536e-08 -8.87328e-08 )  
( -2.16372e-07 8.6449e-08 -1.46895e-07 )  
( -1.78802e-06 -1.32271e-09 -1.74332e-07 )  
( -1.78642e-06 -1.00007e-08 -2.5129e-07 )  
( -3.12795e-07 9.527e-08 -1.87332e-07 )  
( -2.43604e-06 2.21823e-07 1.95025e-07 )  
( -1.41613e-06 1.9047e-07 1.34944e-08 )  
( -1.46273e-06 -1.73701e-07 -1.6456e-09 )  
( -8.81939e-07 -8.40128e-08 -2.2774e-07 )  
( -2.79811e-06 2.16643e-08 1.86221e-07 )  
( -2.74e-06 1.2572e-07 3.57051e-07 )  
( -1.62506e-06 -2.6948e-07 1.87584e-07 )  
( -2.33696e-06 2.13848e-07 3.66199e-07 )  
( -2.14734e-06 1.80126e-07 2.45862e-07 )  
( -1.85225e-06 5.49309e-08 1.2091e-08 )  
( -2.36937e-06 1.94431e-07 2.19476e-07 )  
( -2.35711e-06 1.51027e-07 6.4662e-08 )  
( -7.30787e-07 -2.74215e-07 -1.39058e-07 )  
( -1.96884e-06 1.07127e-07 1.37952e-07 )  
( -2.63955e-06 1.88233e-07 2.67996e-07 )  
( -2.73856e-06 2.25389e-07 3.86348e-07 )  
( -2.04284e-06 3.12031e-08 2.6879e-07 )  
( -2.44294e-06 2.63018e-07 2.77478e-07 )  
( -1.71253e-06 2.81764e-07 -1.67421e-07 )  
( -2.22841e-06 -7.61152e-08 -1.19926e-07 )  
( -1.07792e-06 -3.07976e-07 -1.0374e-07 )  
( -2.59723e-06 7.20837e-08 3.30031e-07 )  
( -7.18295e-07 6.93097e-08 -1.49194e-07 )  
( -4.4117e-06 4.49405e-07 1.68891e-07 )  
( -1.83413e-06 -2.86162e-08 -1.77401e-07 )  
( -2.31267e-06 -4.79596e-07 -2.20334e-07 )  
( -1.05386e-06 -1.91061e-07 -2.12468e-07 )  
( -2.359e-06 1.68328e-07 2.82228e-07 )  
( -1.9467e-06 3.58459e-07 -1.61921e-07 )  
( -2.34128e-07 1.11869e-07 -2.17547e-07 )  
( -1.07803e-06 6.01018e-08 2.72194e-08 )  
( -2.64173e-05 -1.18653e-05 -4.47814e-07 )  
( -2.23187e-06 -1.77057e-07 -1.61956e-07 )  
( -2.22869e-06 1.12977e-07 2.25115e-07 )  
( -1.36113e-06 -1.37873e-08 -1.10697e-07 )  
( -2.61178e-06 2.34287e-07 3.7615e-07 )  
( -2.46854e-06 9.5246e-08 6.51451e-08 )  
( -1.50399e-06 -4.64545e-08 2.11099e-07 )  
( -2.32205e-06 5.35343e-08 1.51861e-07 )  
( -1.86266e-07 4.57316e-09 -1.1493e-07 )  
( -8.74059e-07 -2.43297e-07 -1.00306e-07 )  
( -1.4183e-06 -7.4528e-08 -2.12512e-07 )  
( -2.76637e-06 2.16593e-07 5.17869e-07 )  
( -1.46844e-06 1.36812e-07 -1.47251e-07 )  
( -2.37665e-06 2.0567e-07 3.94527e-07 )  
( -1.35912e-06 -5.08064e-07 -2.86054e-07 )  
( -1.55723e-06 -1.32673e-07 -3.15585e-07 )  
( -1.64218e-06 -2.4483e-07 -1.94742e-07 )  
( -2.22362e-06 2.09631e-07 2.53215e-07 )  
( -1.83567e-06 -9.76671e-08 3.58795e-08 )  
( -1.18105e-06 2.52394e-07 -1.96026e-07 )  
( -1.32996e-06 1.18293e-07 6.65271e-08 )  
( -2.82119e-06 2.04789e-07 4.78996e-07 )  
( -3.02426e-07 -1.84307e-08 -3.03063e-08 )  
( -1.02062e-06 -1.09929e-07 -8.21658e-08 )  
( -1.98836e-06 3.63869e-08 1.44833e-07 )  
( -1.09336e-07 -1.2629e-07 2.76418e-09 )  
( -2.64262e-06 5.93869e-08 4.5136e-07 )  
( -2.25015e-06 1.6054e-07 3.35447e-07 )  
( -1.62732e-06 1.48593e-07 -5.33282e-08 )  
( -2.5534e-06 3.02128e-08 3.1744e-07 )  
( -2.88236e-06 1.33919e-07 4.74549e-07 )  
( -1.10132e-06 5.26819e-08 1.84986e-07 )  
( -1.0183e-06 -2.36793e-07 4.21574e-08 )  
( -2.19362e-06 3.49949e-07 3.22731e-07 )  
( -2.75298e-07 -8.68807e-08 -4.17018e-08 )  
( -2.41504e-06 2.67104e-07 3.60896e-07 )  
( -8.8685e-07 -7.24183e-08 -7.58109e-08 )  
( -1.9465e-06 1.13006e-07 3.45417e-07 )  
( -1.29315e-06 -4.56823e-09 -1.31346e-08 )  
( -2.21834e-06 1.50397e-07 2.0356e-07 )  
( 5.69853e-06 5.69008e-06 1.38725e-06 )  
( -1.74997e-06 2.40056e-08 1.06989e-07 )  
( -6.09314e-07 1.06732e-08 -2.29156e-07 )  
( -1.67091e-06 2.52259e-07 3.41758e-07 )  
( -1.00524e-06 4.55672e-08 -7.3985e-08 )  
( -1.82402e-06 -7.08312e-08 -8.89163e-08 )  
( -8.94147e-07 2.65233e-07 7.17749e-08 )  
( -2.75835e-07 -6.81886e-08 -1.5326e-08 )  
( -1.24044e-06 8.04651e-09 -1.37431e-07 )  
( -8.71699e-07 -3.88949e-07 -1.24523e-07 )  
( -1.68556e-06 1.25789e-07 3.94633e-08 )  
( -2.3074e-06 1.2457e-07 2.08025e-07 )  
( -6.15265e-07 -2.62228e-07 -7.63026e-08 )  
( -5.37489e-07 -1.06377e-07 -1.05653e-07 )  
( -1.70816e-06 1.13577e-07 1.5824e-07 )  
( -1.77506e-06 -4.47978e-08 -9.84695e-08 )  
( -2.33961e-07 -1.33275e-07 -9.76905e-08 )  
( -1.58621e-06 7.22e-08 -2.80947e-07 )  
( -1.21782e-06 1.3657e-07 -4.17292e-08 )  
( -1.84673e-06 8.17416e-08 1.52831e-08 )  
( -1.93936e-06 -1.34799e-07 -1.30551e-07 )  
( -8.74408e-07 2.88021e-08 -1.46361e-07 )  
( -1.24793e-06 2.63693e-07 -1.68562e-07 )  
( -1.98465e-06 -1.2949e-07 -3.54055e-07 )  
( -1.88212e-06 2.71576e-08 1.56983e-07 )  
( -1.51275e-06 1.11266e-08 1.53226e-07 )  
( -1.86688e-06 -1.13874e-07 -1.57649e-08 )  
( -1.83802e-06 2.20342e-07 2.67443e-07 )  
( -7.65196e-08 -1.4998e-08 -2.14868e-09 )  
( -1.9094e-06 -5.7658e-09 -2.00364e-07 )  
( -4.47458e-07 -5.93559e-08 -5.9072e-08 )  
( -1.7993e-06 -3.78584e-08 1.24188e-08 )  
( -1.52122e-06 2.27845e-07 2.10707e-07 )  
( -1.45562e-06 -3.68011e-08 -1.37207e-07 )  
( -1.16312e-06 5.02643e-08 2.88745e-09 )  
( -1.70176e-06 -7.6168e-09 -6.30347e-08 )  
( -1.41543e-06 1.19187e-07 2.25282e-07 )  
( -1.8029e-06 2.46043e-07 5.38102e-07 )  
( -1.31289e-06 -1.30057e-07 2.33946e-07 )  
( -1.05559e-06 2.6275e-08 2.30721e-07 )  
( -4.63317e-07 -1.07879e-07 -5.35906e-08 )  
( -1.12127e-06 4.0475e-08 1.30066e-07 )  
( -8.06956e-07 5.78686e-09 -2.73415e-07 )  
( -1.88364e-07 6.41783e-08 1.14864e-08 )  
( -1.08253e-06 5.97999e-08 -1.31643e-07 )  
( -1.0767e-06 1.22855e-07 3.70771e-07 )  
( -2.94772e-06 -7.1475e-07 -3.70771e-08 )  
( -2.91861e-07 8.10462e-08 -2.44352e-08 )  
( -1.93115e-06 -2.34685e-07 -2.68754e-07 )  
( -5.30897e-07 -4.85764e-08 -1.65694e-07 )  
( -1.76174e-06 -1.87289e-07 -2.04247e-07 )  
( -7.34708e-07 2.36943e-08 -1.89658e-08 )  
( -8.91058e-07 1.39913e-07 -2.13289e-07 )  
( -2.01353e-06 5.5482e-08 2.37923e-08 )  
( -3.21592e-07 -8.69127e-08 -1.03255e-07 )  
( -8.76955e-07 -4.05498e-08 -1.8474e-09 )  
( -8.61543e-07 1.48487e-07 -8.68402e-08 )  
( -5.65745e-07 5.91281e-08 -1.32941e-07 )  
( -2.06862e-06 2.46853e-07 2.6892e-07 )  
( -9.54122e-07 3.13324e-08 8.65885e-08 )  
( -1.69186e-06 -1.61422e-07 2.19989e-07 )  
( -1.92411e-06 -1.91434e-09 2.01029e-07 )  
( -8.97013e-07 5.62915e-08 -7.87205e-08 )  
( -1.32754e-06 2.34087e-08 -1.77114e-07 )  
( -1.68531e-06 1.83772e-07 2.3876e-07 )  
( -1.46135e-06 -7.9499e-09 -5.7348e-08 )  
( -1.49574e-06 3.39022e-07 6.87312e-08 )  
( -2.03217e-06 -2.09104e-07 -8.44412e-08 )  
( -2.20319e-06 -4.63086e-08 3.7186e-07 )  
( -1.95034e-06 7.65751e-08 7.11583e-08 )  
( -8.41296e-07 1.21176e-07 3.50845e-08 )  
( -2.26825e-07 -6.90292e-08 -1.00612e-07 )  
( -2.7599e-07 3.40809e-09 -1.20344e-07 )  
( -9.53381e-07 8.38706e-08 -1.40376e-07 )  
( -1.91983e-06 -1.50876e-07 -1.49156e-07 )  
( -1.40117e-06 -1.05181e-07 1.11621e-07 )  
( -2.19834e-06 -3.57589e-08 -2.87279e-08 )  
( -2.40079e-06 5.60227e-08 9.17531e-08 )  
( -1.76166e-06 -6.26565e-08 -1.51871e-07 )  
( -4.92803e-07 -2.18298e-07 -1.3491e-07 )  
( -1.46457e-06 7.74942e-08 -1.21363e-07 )  
( -1.25899e-06 -5.59414e-08 4.19476e-08 )  
( -1.09968e-06 -4.06702e-07 -5.49524e-08 )  
( -1.98215e-06 1.39177e-07 3.87367e-08 )  
( -2.11245e-06 1.88054e-07 3.43199e-07 )  
( -1.91658e-06 2.6379e-07 5.28647e-07 )  
( -2.06044e-06 1.48169e-08 3.09894e-08 )  
( -5.84509e-07 1.4236e-07 6.04794e-08 )  
( -1.00354e-06 4.96985e-08 -7.21948e-09 )  
( -4.86058e-08 -4.29726e-08 -7.43923e-11 )  
( -1.72764e-06 2.21032e-07 1.30168e-07 )  
( -2.41967e-07 -1.01061e-07 -6.39395e-08 )  
( -1.34915e-06 1.01642e-07 2.07353e-07 )  
( -1.66605e-06 -5.46843e-08 -1.72878e-07 )  
( -1.00854e-06 -3.64857e-08 8.46326e-08 )  
( -2.57071e-07 -1.18213e-07 -5.42603e-08 )  
( -6.52362e-07 6.51494e-08 1.53719e-07 )  
( -9.60632e-07 -4.09719e-08 6.91194e-08 )  
( -1.19387e-06 -5.51735e-08 3.2546e-07 )  
( -1.68753e-06 -6.61609e-08 1.51102e-07 )  
( -1.93987e-06 -1.44771e-07 -5.74775e-07 )  
( -8.99183e-07 5.66784e-08 -1.46393e-07 )  
( -8.84639e-07 7.20414e-08 -2.73641e-07 )  
( -2.16494e-06 -4.31587e-07 -2.23166e-07 )  
( -2.79755e-07 9.79958e-08 -7.80013e-08 )  
( -1.39054e-06 1.01623e-07 -1.40964e-07 )  
( -1.18906e-06 2.66952e-09 9.98133e-08 )  
( -2.02071e-06 -4.50365e-07 -3.11139e-07 )  
( -1.03585e-06 1.47437e-07 6.53825e-08 )  
( -1.31451e-06 2.17837e-09 -2.36594e-07 )  
( -7.60406e-07 1.64283e-08 -1.38906e-07 )  
( -2.6383e-06 -1.45483e-07 -3.03259e-07 )  
( -1.11592e-06 -1.20899e-07 1.55866e-08 )  
( -2.01349e-06 3.71261e-07 3.17827e-07 )  
( -5.94458e-07 -2.28916e-07 -2.42721e-08 )  
( -2.24261e-06 1.36616e-07 3.16787e-08 )  
( -2.17468e-07 -1.39483e-07 -7.36559e-08 )  
( -4.7709e-07 -2.41949e-08 -1.00996e-07 )  
( -1.10877e-06 -8.82046e-08 -6.44681e-08 )  
( -1.51275e-06 -2.05648e-07 -7.48548e-08 )  
( -4.24791e-07 1.29472e-08 2.61121e-08 )  
( -2.01653e-06 -1.62309e-07 -1.15796e-07 )  
( -1.68222e-06 5.91153e-08 1.51224e-07 )  
( -4.60575e-07 -9.59239e-08 -1.24995e-07 )  
( -3.93855e-07 -8.93451e-08 -7.44213e-08 )  
( -1.60221e-06 -1.46956e-08 -1.70638e-07 )  
( -1.67443e-06 2.37436e-07 2.6444e-07 )  
( -1.42216e-06 -3.38665e-08 -2.86297e-07 )  
( -6.53502e-07 -9.13716e-08 -4.68036e-08 )  
( -1.42999e-06 1.04887e-07 2.76924e-07 )  
( -6.70228e-07 -1.40245e-07 -2.48395e-07 )  
( -1.42983e-06 -9.06175e-09 5.39197e-08 )  
( -5.18004e-07 1.79775e-08 -4.7934e-08 )  
( -1.64257e-06 -3.5953e-08 4.3297e-08 )  
( -2.23307e-06 1.63951e-08 -4.43239e-08 )  
( -1.74683e-06 -3.20169e-07 -2.64193e-08 )  
( -2.94396e-07 1.71781e-08 -8.03036e-08 )  
( -4.86103e-07 -1.18819e-07 -7.36919e-08 )  
( -2.159e-06 1.70088e-07 2.52741e-07 )  
( -1.93116e-06 1.71129e-07 1.65458e-07 )  
( -5.14761e-07 -6.88198e-08 2.8586e-08 )  
( -9.19838e-07 3.66563e-08 2.05071e-08 )  
( -1.35648e-06 -9.94923e-09 -1.15195e-07 )  
( -1.39626e-06 3.00742e-08 2.46994e-07 )  
( -8.89126e-07 -8.59982e-08 -2.46391e-07 )  
( -6.94004e-07 1.40496e-08 -6.12232e-08 )  
( -6.48002e-07 -7.25986e-08 -3.5437e-08 )  
( -2.01265e-06 4.69005e-08 3.44288e-07 )  
( -2.20308e-06 1.20042e-07 7.62215e-08 )  
( -8.54327e-07 1.95397e-07 2.12622e-07 )  
( -2.25841e-06 -2.26955e-08 3.51529e-07 )  
( -1.87197e-07 -1.93387e-08 -4.27989e-08 )  
( -7.25778e-07 -2.56475e-08 -8.47282e-08 )  
( -1.20211e-06 -4.40392e-08 4.51899e-08 )  
( -1.33187e-06 -1.63018e-07 1.5622e-07 )  
( -7.52551e-07 -7.79117e-08 -2.18513e-08 )  
( -1.72979e-06 -1.32266e-07 -6.52033e-08 )  
( -2.19196e-07 4.21584e-08 -6.59751e-08 )  
( -7.30402e-07 -7.86648e-08 -2.93532e-07 )  
( -5.72408e-07 -1.78981e-08 -3.09144e-08 )  
( -8.25208e-07 8.62334e-08 3.05666e-09 )  
( -1.16083e-06 -8.2337e-08 -9.52336e-08 )  
( -7.63494e-07 6.01002e-09 -1.39842e-07 )  
( -9.85917e-07 6.42656e-08 6.71639e-08 )  
( -1.22628e-06 1.15227e-07 -2.1545e-07 )  
( -4.99905e-07 -5.7855e-08 -1.22407e-07 )  
( -3.77075e-07 -5.5606e-08 -7.10584e-08 )  
( -1.76047e-07 -3.85641e-08 -5.7914e-08 )  
( -1.07117e-06 -5.83394e-08 1.45386e-07 )  
( -4.42078e-07 4.22519e-08 7.40995e-08 )  
( -7.61506e-07 -1.83511e-07 2.74754e-08 )  
( -1.03941e-06 3.49289e-08 1.24663e-07 )  
( -7.53067e-07 -1.30038e-08 -9.24647e-08 )  
( -9.23787e-08 1.07242e-08 -9.45727e-08 )  
( -3.66863e-07 4.83997e-08 -2.80957e-09 )  
( -1.09875e-06 -1.35656e-07 1.96274e-07 )  
( -8.75167e-07 5.62622e-08 -2.69213e-07 )  
( -1.54287e-06 -1.67394e-08 2.37256e-07 )  
( -1.20396e-06 -9.45957e-08 4.52461e-09 )  
( -9.01768e-07 -1.95492e-07 8.70239e-08 )  
( -7.89632e-07 -2.51091e-09 -3.84429e-07 )  
( -6.31166e-07 -2.24789e-08 2.35059e-08 )  
( -2.39265e-07 -7.50307e-08 -2.88758e-08 )  
( -9.22095e-08 -3.45703e-08 -2.61144e-08 )  
( -5.76322e-07 7.68693e-08 1.73483e-08 )  
( -1.35637e-06 2.09333e-08 -3.44829e-07 )  
( -4.70444e-07 5.00915e-08 -3.63084e-08 )  
( -8.87529e-07 2.97635e-08 8.49918e-08 )  
( -1.24499e-06 3.0529e-09 -5.56541e-08 )  
( -1.10426e-06 -7.30264e-08 -4.29254e-07 )  
( -4.35043e-07 -1.88421e-07 -1.33188e-07 )  
( -3.44803e-07 1.61039e-07 -5.82326e-08 )  
( -6.38392e-07 -1.4796e-08 -1.3897e-08 )  
( -1.11443e-06 -2.83859e-07 -9.42804e-08 )  
( -8.73793e-08 4.85676e-08 -6.16672e-08 )  
( -7.01952e-07 2.44462e-08 1.25275e-07 )  
( -5.25885e-07 -5.90641e-08 -5.2226e-08 )  
( -1.93561e-07 1.0675e-07 2.82699e-08 )  
( -1.69015e-06 -3.72821e-08 1.49053e-07 )  
( -3.23918e-07 -1.21378e-07 9.71286e-08 )  
( -8.09979e-07 4.2492e-08 1.10953e-07 )  
( -2.83649e-07 3.49019e-08 -4.4063e-08 )  
( -9.44501e-07 -1.25853e-07 8.74205e-08 )  
( -5.9973e-07 1.28829e-07 1.65846e-07 )  
( -3.78034e-07 -8.55334e-08 -2.6086e-08 )  
( -2.90467e-07 8.80283e-08 3.66358e-08 )  
( -8.53934e-07 9.11381e-09 1.02359e-07 )  
( -6.89321e-07 -1.78213e-07 -1.5468e-08 )  
( -4.5966e-07 -2.97722e-08 -2.56901e-08 )  
( -2.48919e-07 -7.49464e-08 -4.91582e-08 )  
( -8.25749e-07 -4.60589e-08 1.23087e-07 )  
( -9.58091e-07 -9.52575e-08 -2.2676e-07 )  
( -8.30027e-07 -7.82126e-08 1.27052e-07 )  
( -1.02155e-07 5.56908e-08 -2.84963e-08 )  
( -3.90031e-08 -1.57471e-05 1.37651e-08 )  
( -2.71015e-07 1.32422e-08 -8.33708e-09 )  
( -6.8416e-07 2.3689e-08 -3.13027e-08 )  
( -7.44308e-07 -3.4405e-08 -1.09136e-07 )  
( -6.09214e-07 -4.61248e-08 5.04517e-08 )  
( -9.93624e-08 -2.99926e-10 -2.1069e-08 )  
( -5.41451e-07 -3.91825e-08 -1.86034e-07 )  
( -5.04481e-07 -1.32284e-07 -2.99929e-08 )  
( -2.53931e-07 9.52929e-08 -6.44679e-09 )  
( -6.34258e-07 4.10797e-08 -3.88654e-08 )  
( -1.54676e-07 3.20938e-07 3.52694e-08 )  
( -5.14846e-07 3.46363e-08 -1.90393e-08 )  
( -1.06429e-07 -2.10083e-09 9.62879e-09 )  
( -9.19404e-07 1.72619e-08 -9.5626e-08 )  
( -8.16179e-07 -1.87673e-08 4.40832e-08 )  
( -7.9337e-07 4.60882e-08 9.4746e-08 )  
( -2.87956e-07 -6.16936e-08 1.49536e-08 )  
)
