/*--------------------------------*- C++ -*----------------------------------*\
| =========                 |                                                 |
| \\      /  F ield         | OpenFOAM: The Open Source CFD Toolbox           |
|  \\    /   O peration     | Version:  4.x                                   |
|   \\  /    A nd           | Web:      www.OpenFOAM.org                      |
|    \\/     M anipulation  |                                                 |
\*---------------------------------------------------------------------------*/
FoamFile
{
    version     2.0;
    format      ascii;
    class       volScalarField;
    location    "4.5";
    object      magGField;
}
// * * * * * * * * * * * * * * * * * * * * * * * * * * * * * * * * * * * * * //

dimensions      [1 -2 -1 0 0 0 0];

internalField   nonuniform List<scalar> 
87
(
68.2288
132.442
66.8239
139.02
75.1819
158.575
79.8579
184.623
66.9061
25.1672
113.645
11.1693
113.505
28.7641
110.435
12.3234
97.5916
56.6768
6.95585
105.901
2.72805
109.637
0.595255
110.955
1.43603
105.202
15.1475
61.777
129.377
57.7419
133.245
54.9024
142.841
50.6794
157.127
63.7878
2.15073
113.331
3.76747
112.238
2.4745
108.51
3.68291
104.369
28.3686
7.19981
103.225
1.52163
104.908
0.590366
105.531
0.375474
111.533
19.9314
69.0567
131.717
64.4644
131.902
56.3217
141.202
48.0016
163.948
90.9599
15.0464
102.708
2.84948
107.885
5.31932
105.425
3.28997
121.817
45.5267
4.4061
99.3189
1.91402
101.548
0.948442
106.468
19.2073
132.218
70.3469
83.2053
139.97
81.681
7.75443
97.6888
6.97445
)
;

boundaryField
{
    inlet
    {
        type            calculated;
        value           nonuniform 0();
    }
    outlet
    {
        type            calculated;
        value           nonuniform List<scalar> 9(138.606 117.243 31.4677 134.009 59.8111 42.1882 191.507 97.1541 150.817);
    }
    wall
    {
        type            calculated;
        value           uniform 0;
    }
    procBoundary1to0
    {
        type            processor;
        value           nonuniform List<scalar> 
12
(
131.668
111.488
103.757
125.342
102.146
101.716
124.839
101.621
98.5834
129.704
96.4407
95.9339
)
;
    }
    procBoundary1to3
    {
        type            processor;
        value           nonuniform List<scalar> 
27
(
1.46367
99.4492
1.64637
98.8852
55.8146
124.698
9.77301
125.954
42.6458
3.7209
98.8931
1.87417
107.634
28.8511
96.0658
7.79314
105.429
60.395
7.66871
93.2901
2.88743
94.1628
12.1039
81.6948
19.7069
73.966
69.5824
)
;
    }
    procBoundary1to5
    {
        type            processor;
        value           nonuniform List<scalar> 
32
(
144.234
71.0571
152.924
59.0197
192.107
127.221
4.56047
93.4681
0.430951
108.15
24.6419
128.932
121.656
95.9306
1.73054
96.5847
9.62983
103.239
43.8618
86.8355
105.783
62.1079
124.892
144.234
4.56047
57.4635
27.7963
4.56047
95.9306
48.7653
95.9306
0.0023175
)
;
    }
    procBoundary1to7
    {
        type            processor;
        value           uniform 14.9489;
    }
}


// ************************************************************************* //
