/*--------------------------------*- C++ -*----------------------------------*\
| =========                 |                                                 |
| \\      /  F ield         | OpenFOAM: The Open Source CFD Toolbox           |
|  \\    /   O peration     | Version:  4.x                                   |
|   \\  /    A nd           | Web:      www.OpenFOAM.org                      |
|    \\/     M anipulation  |                                                 |
\*---------------------------------------------------------------------------*/
FoamFile
{
    version     2.0;
    format      ascii;
    class       volScalarField;
    location    "4.5";
    object      particleRelTemp;
}
// * * * * * * * * * * * * * * * * * * * * * * * * * * * * * * * * * * * * * //

dimensions      [0 0 0 0 0 0 0];

internalField   nonuniform List<scalar> 
87
(
-6.81062e-07
-8.81617e-07
-8.8919e-07
-8.15536e-07
-6.80229e-07
-1.91203e-07
2.78402e-07
7.67224e-07
1.17057e-06
-7.71622e-07
-8.96118e-07
-8.96318e-07
-7.06717e-07
-4.39402e-07
2.42851e-08
7.8601e-07
1.3873e-06
1.68876e-06
-7.96132e-07
-8.89704e-07
-8.79146e-07
-6.49988e-07
-2.46987e-07
2.15854e-07
1.16467e-06
1.70156e-06
2.18745e-06
-6.74386e-07
-8.54111e-07
-8.77428e-07
-7.82442e-07
-4.99489e-07
-2.18311e-08
4.66085e-07
1.01376e-06
1.40309e-06
-6.86631e-07
-8.35533e-07
-8.60894e-07
-6.99202e-07
-2.86491e-07
2.9618e-07
8.91147e-07
1.76894e-06
2.31014e-06
-6.27056e-07
-8.44769e-07
-8.41533e-07
-6.45067e-07
-1.10309e-07
4.14286e-07
1.08687e-06
1.90862e-06
2.54176e-06
-6.25592e-07
-8.03717e-07
-8.24157e-07
-7.04079e-07
-4.11756e-07
1.08106e-07
5.80542e-07
1.11075e-06
1.62099e-06
-5.42617e-07
-7.64426e-07
-8.17971e-07
-6.55489e-07
-2.39709e-07
3.01145e-07
1.11781e-06
1.77895e-06
2.24214e-06
-4.64087e-07
-7.67398e-07
-7.88908e-07
-6.06403e-07
-1.52745e-07
5.65738e-07
1.47531e-06
2.05447e-06
2.61953e-06
-5.66876e-07
-7.48353e-07
-7.88883e-07
-5.06687e-07
-7.15681e-07
-3.24944e-07
)
;

boundaryField
{
    inlet
    {
        type            calculated;
        value           nonuniform 0();
    }
    outlet
    {
        type            calculated;
        value           nonuniform List<scalar> 9(1.17057e-06 1.68876e-06 2.18745e-06 1.40309e-06 2.31014e-06 2.54176e-06 1.62099e-06 2.24214e-06 2.61953e-06);
    }
    wall
    {
        type            calculated;
        value           nonuniform List<scalar> 
57
(
-6.81062e-07
-7.71622e-07
-7.96132e-07
-8.81617e-07
-8.96118e-07
-8.89704e-07
-8.8919e-07
-8.96318e-07
-8.79146e-07
-8.15536e-07
-7.06717e-07
-6.49988e-07
-6.80229e-07
-4.39402e-07
-2.46987e-07
-1.91203e-07
2.42851e-08
2.15854e-07
2.78402e-07
7.8601e-07
1.16467e-06
7.67224e-07
1.3873e-06
1.70156e-06
1.17057e-06
1.68876e-06
2.18745e-06
-6.81062e-07
-6.74386e-07
-6.25592e-07
-5.66876e-07
-8.81617e-07
-8.54111e-07
-8.03717e-07
-7.48353e-07
-8.8919e-07
-8.77428e-07
-8.24157e-07
-7.88883e-07
-8.15536e-07
-7.82442e-07
-7.04079e-07
-6.80229e-07
-4.99489e-07
-4.11756e-07
-1.91203e-07
-2.18311e-08
1.08106e-07
2.78402e-07
4.66085e-07
5.80542e-07
7.67224e-07
1.01376e-06
1.11075e-06
1.17057e-06
1.40309e-06
1.62099e-06
)
;
    }
    procBoundary1to0
    {
        type            processor;
        value           nonuniform List<scalar> 
12
(
-4.71721e-07
-5.11166e-07
-4.16633e-07
-5.12771e-07
-4.19577e-07
-3.69814e-07
-4.03857e-07
-2.60808e-07
-1.19306e-07
-2.96915e-07
-1.88052e-07
-6.36402e-08
)
;
    }
    procBoundary1to3
    {
        type            processor;
        value           nonuniform List<scalar> 
27
(
-5.87072e-07
-8.35326e-07
-8.66878e-07
-7.16252e-07
-3.70778e-07
2.03736e-07
9.69689e-07
1.63313e-06
2.09284e-06
-6.00257e-07
-8.07651e-07
-8.29782e-07
-6.0253e-07
-1.90172e-07
2.98916e-07
1.12513e-06
1.89417e-06
2.31165e-06
-4.68452e-07
-7.07577e-07
-7.58004e-07
-5.942e-07
-1.0856e-07
5.38744e-07
1.28709e-06
2.16511e-06
2.534e-06
)
;
    }
    procBoundary1to5
    {
        type            processor;
        value           nonuniform List<scalar> 
32
(
-6.88388e-07
-4.08993e-07
-8.19904e-08
4.26182e-07
8.92843e-07
1.24272e-06
-7.43914e-07
-6.13169e-07
-2.78227e-07
2.42323e-07
8.11314e-07
1.48659e-06
1.94228e-06
-6.28198e-07
-7.06263e-07
-4.90949e-07
-1.58817e-07
4.37057e-07
1.21309e-06
1.94302e-06
2.42052e-06
-5.76731e-07
-7.05181e-07
-6.88388e-07
-7.43914e-07
-7.5774e-07
-4.67996e-07
-7.43914e-07
-6.28198e-07
-6.48936e-07
-6.28198e-07
-3.77452e-07
)
;
    }
    procBoundary1to7
    {
        type            processor;
        value           uniform -3.62237e-07;
    }
}


// ************************************************************************* //
