/*--------------------------------*- C++ -*----------------------------------*\
| =========                 |                                                 |
| \\      /  F ield         | OpenFOAM: The Open Source CFD Toolbox           |
|  \\    /   O peration     | Version:  4.x                                   |
|   \\  /    A nd           | Web:      www.OpenFOAM.org                      |
|    \\/     M anipulation  |                                                 |
\*---------------------------------------------------------------------------*/
FoamFile
{
    version     2.0;
    format      ascii;
    class       volScalarField;
    location    "4.5";
    object      rho;
}
// * * * * * * * * * * * * * * * * * * * * * * * * * * * * * * * * * * * * * //

dimensions      [1 -3 0 0 0 0 0];

internalField   nonuniform List<scalar> 
87
(
6690.62
6692.8
6694.74
6696.77
6698.17
6698.82
6699.26
6699.34
6702.17
6697.14
6699.86
6702.13
6703.67
6703.88
6703.29
6702.23
6701.2
6700.74
6700.18
6702.54
6703.78
6704.5
6704.24
6703.38
6702.32
6701.35
6700.75
6694.14
6695.63
6697.32
6698.91
6700.2
6700.8
6701.12
6700.83
6730.1
6701.19
6702.64
6704.01
6704.86
6704.94
6704.44
6703.71
6702.97
6703.84
6702.37
6703.88
6704.87
6705.16
6704.97
6704.47
6703.73
6702.97
6704.31
6695.93
6696.65
6697.76
6699.01
6700.24
6700.99
6701.6
6701.74
6780.86
6701.91
6703.07
6704.02
6704.61
6704.98
6704.79
6704.4
6703.85
6710.62
6702.53
6703.53
6704.52
6704.82
6704.69
6704.3
6703.85
6703.35
6705.69
6697
6697.44
6698.11
6701.74
6702.62
6702.09
)
;

boundaryField
{
    inlet
    {
        type            calculated;
        value           nonuniform 0();
    }
    outlet
    {
        type            calculated;
        value           uniform 6700;
    }
    wall
    {
        type            calculated;
        value           nonuniform List<scalar> 
57
(
6690.62
6697.14
6700.18
6692.8
6699.86
6702.54
6694.74
6702.13
6703.78
6696.77
6703.67
6704.5
6698.17
6703.88
6704.24
6698.82
6703.29
6703.38
6699.26
6702.23
6702.32
6699.34
6701.2
6701.35
6702.17
6700.74
6700.75
6690.62
6694.14
6695.93
6697
6692.8
6695.63
6696.65
6697.44
6694.74
6697.32
6697.76
6698.11
6696.77
6698.91
6699.01
6698.17
6700.2
6700.24
6698.82
6700.8
6700.99
6699.26
6701.12
6701.6
6699.34
6700.83
6701.74
6702.17
6730.1
6780.86
)
;
    }
    procBoundary1to0
    {
        type            processor;
        value           nonuniform List<scalar> 
12
(
6688.94
6694.13
6697.35
6692.62
6699.02
6700.49
6695.03
6699.96
6700.94
6696.61
6700.49
6701.01
)
;
    }
    procBoundary1to3
    {
        type            processor;
        value           nonuniform List<scalar> 
27
(
6700.56
6702.65
6704.01
6704.41
6704.1
6703.79
6702.92
6702.31
6704.25
6701.91
6703.38
6704.53
6704.94
6704.94
6704.7
6703.87
6703.08
6706.84
6700.7
6701.78
6702.89
6704.1
6704.78
6704.72
6703.88
6702.89
6702.11
)
;
    }
    procBoundary1to5
    {
        type            processor;
        value           nonuniform List<scalar> 
32
(
6698.85
6699.8
6700.46
6701.37
6701.64
6747.21
6703.55
6704.02
6704.45
6704.4
6704.02
6703.64
6703.95
6703.04
6703.93
6704.48
6704.65
6704.25
6703.38
6702.64
6701
6698.72
6698.81
6698.85
6703.55
6699.37
6702.85
6703.55
6703.04
6703.57
6703.04
6701.99
)
;
    }
    procBoundary1to7
    {
        type            processor;
        value           uniform 6700.91;
    }
}


// ************************************************************************* //
