/*--------------------------------*- C++ -*----------------------------------*\
| =========                 |                                                 |
| \\      /  F ield         | OpenFOAM: The Open Source CFD Toolbox           |
|  \\    /   O peration     | Version:  4.x                                   |
|   \\  /    A nd           | Web:      www.OpenFOAM.org                      |
|    \\/     M anipulation  |                                                 |
\*---------------------------------------------------------------------------*/
FoamFile
{
    version     2.0;
    format      ascii;
    class       volVectorField;
    location    "4.5";
    object      UsPrev;
}
// * * * * * * * * * * * * * * * * * * * * * * * * * * * * * * * * * * * * * //

dimensions      [0 1 -1 0 0 0 0];

internalField   nonuniform List<vector> 
87
(
(-6.755e-07 -3.96748e-07 1.05722e-07)
(-7.8405e-06 2.17254e-06 1.08543e-06)
(-2.34804e-06 1.54893e-07 6.67689e-08)
(-2.41836e-06 6.16911e-07 -7.36123e-07)
(-1.71422e-06 4.68589e-07 -5.24238e-07)
(-1.83833e-06 -6.51863e-07 3.78844e-07)
(-1.59854e-06 -3.20511e-07 2.14795e-07)
(-5.25269e-07 5.58487e-07 1.18547e-08)
(8.72965e-08 3.03863e-07 -2.98282e-07)
(-2.15817e-08 -1.18364e-08 2.32638e-07)
(-1.26998e-06 4.67767e-07 1.00009e-06)
(-3.21477e-06 5.59515e-07 1.2256e-06)
(-3.7078e-06 7.8795e-07 1.60578e-07)
(-4.18543e-06 2.37319e-06 -1.30665e-06)
(-3.50838e-06 -2.94607e-07 1.35462e-06)
(-2.9243e-06 1.86114e-07 6.11754e-07)
(-1.69012e-06 4.741e-07 8.81559e-08)
(-9.07496e-07 3.68871e-07 -4.29469e-07)
(5.10708e-07 3.3199e-07 3.77391e-07)
(-1.16309e-06 3.69537e-07 1.15058e-06)
(-5.00589e-06 2.62532e-06 1.33592e-06)
(-4.46024e-06 1.35734e-06 1.28272e-06)
(-4.08666e-06 1.95851e-07 1.02463e-06)
(-4.08417e-06 -3.33084e-07 7.10202e-07)
(-3.6159e-06 -2.90973e-07 1.34238e-06)
(-1.89195e-06 6.44973e-07 5.06296e-07)
(-1.03389e-06 4.06479e-07 4.33353e-08)
(-7.87329e-07 5.97284e-08 2.21269e-07)
(-1.08204e-06 4.71313e-08 8.32043e-07)
(-1.35518e-06 -6.1946e-08 3.69818e-07)
(-1.44205e-06 3.67109e-07 -3.76771e-09)
(-1.95008e-06 1.82895e-07 -1.04632e-07)
(-1.23593e-06 -1.55252e-07 4.2019e-07)
(-1.2596e-06 -2.80734e-08 2.32508e-07)
(-9.53142e-07 1.31436e-07 2.47161e-08)
(-4.43596e-07 2.76757e-07 -1.8609e-07)
(-4.27361e-07 5.1351e-08 4.18044e-07)
(-9.92978e-07 3.97717e-07 9.67174e-07)
(-1.97409e-06 1.14772e-07 1.11256e-06)
(-2.62916e-06 2.59575e-07 1.68688e-07)
(-3.19651e-06 4.38988e-07 -1.76529e-08)
(-2.64176e-06 -3.94429e-07 8.88217e-07)
(-2.20441e-06 -2.8828e-08 7.04765e-07)
(-1.1832e-06 1.15412e-07 -6.41477e-08)
(-5.79604e-07 2.16143e-07 -2.44546e-07)
(-2.47073e-07 4.62722e-07 1.25565e-07)
(-1.11134e-06 3.26053e-07 8.98949e-07)
(-2.05201e-06 -2.17106e-08 1.37304e-06)
(-2.71496e-06 2.05267e-07 1.13095e-06)
(-2.93796e-06 1.73072e-07 1.19666e-06)
(-2.60455e-06 -1.40371e-07 9.40654e-07)
(-2.24871e-06 -1.88994e-07 1.10329e-06)
(-1.48893e-06 -5.72355e-08 2.48099e-07)
(-4.9892e-07 4.6587e-08 2.22345e-07)
(-6.74745e-07 8.60982e-08 2.15192e-07)
(-8.92361e-07 -1.2319e-08 5.08971e-07)
(-1.07062e-06 1.70745e-07 5.12985e-07)
(-1.39661e-06 3.45824e-07 4.11024e-07)
(-1.16657e-06 3.25168e-07 5.34721e-07)
(-7.87857e-07 1.68125e-07 4.24066e-07)
(-6.27175e-07 4.59528e-08 2.49712e-07)
(-4.69693e-07 1.26877e-07 1.76194e-08)
(-3.1266e-07 2.68164e-07 -1.26408e-07)
(-2.92613e-07 7.47277e-08 1.58082e-07)
(-1.12111e-06 2.82975e-07 6.84227e-07)
(-1.27866e-06 3.0569e-07 7.80617e-07)
(-1.3987e-06 7.14819e-08 6.31228e-07)
(-1.12603e-06 3.2242e-07 8.02574e-07)
(-1.07233e-06 -1.34493e-07 1.06384e-06)
(-8.3248e-07 2.9089e-08 5.58659e-07)
(-7.46743e-07 9.05439e-08 8.03962e-08)
(-3.57108e-07 7.5738e-08 -1.8863e-07)
(-1.67581e-07 4.10622e-07 -2.86403e-08)
(-9.10076e-07 2.69095e-07 6.35894e-07)
(-1.07129e-06 2.66495e-07 8.86907e-07)
(-1.21092e-06 5.886e-08 1.01238e-06)
(-1.23884e-06 9.05689e-08 1.03878e-06)
(-9.38492e-07 2.26187e-07 8.95826e-07)
(-7.20271e-07 3.90117e-08 6.17824e-07)
(-4.06485e-07 1.5938e-07 2.14323e-07)
(-3.60243e-07 -4.34249e-08 4.54152e-08)
(-4.1527e-07 2.04848e-08 1.44813e-07)
(-8.29213e-07 -1.93532e-08 2.17756e-07)
(-8.57294e-07 1.53116e-07 4.08068e-07)
(-6.08763e-07 1.91451e-07 1.43803e-07)
(-1.02271e-06 3.41755e-07 5.23932e-07)
(-3.80766e-07 5.71794e-07 -2.90768e-07)
)
;

boundaryField
{
    inlet
    {
        type            calculated;
        value           nonuniform 0();
    }
    outlet
    {
        type            calculated;
        value           uniform (0 0 0);
    }
    wall
    {
        type            calculated;
        value           uniform (0 0 0);
    }
    procBoundary1to0
    {
        type            processor;
        value           uniform (0 0 0);
    }
    procBoundary1to3
    {
        type            processor;
        value           uniform (0 0 0);
    }
    procBoundary1to5
    {
        type            processor;
        value           uniform (0 0 0);
    }
    procBoundary1to7
    {
        type            processor;
        value           uniform (0 0 0);
    }
}


// ************************************************************************* //
