/*--------------------------------*- C++ -*----------------------------------*\
| =========                 |                                                 |
| \\      /  F ield         | OpenFOAM: The Open Source CFD Toolbox           |
|  \\    /   O peration     | Version:  4.x                                   |
|   \\  /    A nd           | Web:      www.OpenFOAM.org                      |
|    \\/     M anipulation  |                                                 |
\*---------------------------------------------------------------------------*/
FoamFile
{
    version     2.0;
    format      ascii;
    class       volScalarField;
    location    "52";
    object      KslNext;
}
// * * * * * * * * * * * * * * * * * * * * * * * * * * * * * * * * * * * * * //

dimensions      [1 -3 -1 0 0 0 0];

internalField   nonuniform List<scalar> 
132
(
3317.62
6832.37
3087.7
5255.12
2905.17
4528.7
2790.43
4086.55
2617.93
3336.77
7298.56
3195.62
5886.85
3048.52
5161.16
2929.38
4693.49
2818.27
3347.17
7667.54
3259
6392.47
3187.01
5730.51
3076.97
5386.21
3039.01
3365.93
7555.4
3228.21
3368.54
7932.2
3297.64
7031
3260.82
6497.86
3217.51
6156.87
3117.87
3400.13
9079.25
3469
9105.71
3535.47
9613.57
3535.36
10379
3487.07
3436.15
10100.2
3558.33
11463.3
3674.07
14313.8
3744.52
21127.6
3714.34
3486.34
9706.52
3572.92
10709.5
3664.28
3401.1
8105.31
3378.91
7404.15
3325.47
6883.42
3251.64
6516.9
3121.65
3457.21
9437.51
3552.18
10086.9
3609.07
10978.7
3598.52
11988.9
3484.08
3499.76
10747.5
3690.3
14955.1
3823.93
21953.7
3841.68
30735
3764.63
3531.83
11085.9
3732.22
15564.9
3801.01
20667
3766.25
3385.58
8177.37
3391.86
7684.12
3369.4
7552.28
3357.44
7729.47
3326.82
3457.45
10201.8
3627.4
12760.1
3703.05
16806.7
3759.84
26682.3
3732.24
3512.36
11723.6
3782.2
22087.4
3933.48
81457.7
4037.79
1e+10
4104.75
3504.97
11006.3
3746.18
16584.7
3783.32
23804.6
3770.44
32647.3
3721.8
)
;

boundaryField
{
    inlet
    {
        type            zeroGradient;
    }
    outlet
    {
        type            zeroGradient;
    }
    wall
    {
        type            zeroGradient;
    }
    procBoundary0to1
    {
        type            processor;
        value           uniform 0;
    }
    procBoundary0to2
    {
        type            processor;
        value           uniform 0;
    }
    procBoundary0to4
    {
        type            processor;
        value           uniform 0;
    }
    procBoundary0to6
    {
        type            processor;
        value           uniform 0;
    }
    procBoundary0to7
    {
        type            processor;
        value           uniform 0;
    }
}


// ************************************************************************* //
