/*--------------------------------*- C++ -*----------------------------------*\
| =========                 |                                                 |
| \\      /  F ield         | OpenFOAM: The Open Source CFD Toolbox           |
|  \\    /   O peration     | Version:  4.x                                   |
|   \\  /    A nd           | Web:      www.OpenFOAM.org                      |
|    \\/     M anipulation  |                                                 |
\*---------------------------------------------------------------------------*/
FoamFile
{
    version     2.0;
    format      ascii;
    class       surfaceScalarField;
    location    "52";
    object      phi;
}
// * * * * * * * * * * * * * * * * * * * * * * * * * * * * * * * * * * * * * //

dimensions      [0 3 -1 0 0 0 0];

internalField   nonuniform List<scalar> 
308
(
9.09835e-06
-2.69962e-07
-6.65122e-07
9.6971e-06
-1.87375e-07
-4.11378e-07
1.07323e-05
-3.33097e-07
-7.02078e-07
1.12602e-05
-1.59811e-07
-3.6807e-07
1.20645e-05
-2.61899e-07
-5.42411e-07
1.24574e-05
-1.04317e-07
-2.88586e-07
1.31037e-05
-2.14489e-07
-4.31884e-07
1.35105e-05
-1.31065e-07
-2.75677e-07
-1.72814e-07
-3.33242e-07
8.95794e-06
-3.13089e-07
-7.51553e-07
9.37629e-06
-2.11669e-07
-3.94052e-07
1.01791e-05
-3.80953e-07
-7.54912e-07
1.05881e-05
-2.06959e-07
-3.61918e-07
1.12422e-05
-2.99198e-07
-6.16728e-07
1.1545e-05
-1.33714e-07
-2.73484e-07
1.20792e-05
-2.55643e-07
-4.93058e-07
1.23402e-05
-1.63317e-07
-2.28732e-07
-2.31004e-07
-3.41679e-07
8.8883e-06
-2.11112e-07
-8.27009e-07
9.15906e-06
-1.02101e-07
-3.80333e-07
9.80654e-06
-2.01531e-07
-8.26899e-07
1.00552e-05
-3.44273e-07
1.0565e-05
-6.6167e-07
1.07608e-05
-2.59708e-07
1.11051e-05
-4.75424e-07
1.11196e-05
-1.52936e-07
-2.87728e-07
8.88699e-06
-8.49476e-07
9.21744e-06
-4.01548e-07
-8.35178e-07
8.60963e-06
-3.5596e-07
-7.55525e-07
8.79764e-06
-1.58918e-07
-4.40469e-07
9.23396e-06
-3.78532e-07
-7.59871e-07
9.40988e-06
-1.47951e-07
-3.96037e-07
9.77732e-06
-3.37095e-07
-5.72756e-07
9.9132e-06
-9.46126e-08
-3.29854e-07
1.01936e-05
-2.77311e-07
-4.3499e-07
1.02779e-05
-3.76986e-08
-3.22285e-07
-1.76552e-07
-3.42543e-07
8.28835e-06
-3.84968e-07
-8.47634e-07
8.32034e-06
-1.5836e-07
-4.266e-07
8.4067e-06
-3.9614e-07
-8.2366e-07
8.37915e-06
-1.41323e-07
-3.40994e-07
8.3582e-06
-3.31073e-07
-6.01805e-07
8.32935e-06
-8.31508e-08
-2.56097e-07
8.25269e-06
-2.35504e-07
-4.58202e-07
8.22535e-06
-3.47119e-08
-2.0438e-07
-1.49054e-07
-2.91131e-07
8.0257e-06
-1.70751e-07
-9.03657e-07
7.96471e-06
-5.64806e-08
-4.21229e-07
7.80257e-06
-1.55474e-07
-9.05424e-07
7.66134e-06
-3.3904e-08
-3.10463e-07
7.37195e-06
-8.65885e-08
-6.16764e-07
7.22512e-06
-1.95182e-07
6.82933e-06
-2.91099e-07
6.74001e-06
-1.35071e-07
-6.85584e-08
8.02632e-06
-9.17684e-07
8.02161e-06
-4.52455e-07
7.9045e-06
-9.10418e-07
7.78817e-06
-2.98454e-07
-6.08298e-07
8.42249e-06
-4.13151e-07
-6.01602e-07
8.54388e-06
-1.89692e-07
-3.72163e-07
8.86729e-06
-4.57213e-07
-6.26067e-07
9.01136e-06
-1.77317e-07
-3.62798e-07
9.3288e-06
-3.86155e-07
-5.04037e-07
9.45418e-06
-1.1342e-07
-3.41818e-07
9.69524e-06
-2.72953e-07
-4.0309e-07
9.81956e-06
-7.559e-08
-3.71014e-07
-1.56109e-07
-3.44899e-07
8.05696e-06
-4.76394e-07
-6.78081e-07
8.02007e-06
-2.21855e-07
-3.57546e-07
7.95618e-06
-5.35238e-07
-6.81753e-07
7.89723e-06
-1.83161e-07
-2.762e-07
7.80803e-06
-4.13545e-07
-4.85206e-07
7.77838e-06
-1.1621e-07
-2.23666e-07
7.69027e-06
-2.68668e-07
-3.74374e-07
7.7179e-06
-1.04837e-07
-2.02764e-07
-2.09296e-07
-3.14395e-07
7.735e-06
-2.58444e-07
-6.93344e-07
7.56327e-06
-1.21148e-07
-3.50202e-07
7.08524e-06
-2.92225e-07
-6.70407e-07
6.89365e-06
-9.12788e-08
-2.10756e-07
6.51293e-06
-2.29918e-07
-4.19669e-07
6.40175e-06
-7.89786e-08
-1.21238e-07
6.20672e-06
-1.64935e-07
-1.998e-07
6.14276e-06
-9.67124e-08
-1.08321e-08
7.63909e-06
-6.55879e-07
7.45025e-06
-3.58934e-07
6.97395e-06
-6.65162e-07
6.83999e-06
-2.16765e-07
6.57095e-06
-4.51608e-07
6.52851e-06
-1.68693e-07
-3.15876e-07
8.3821e-06
-4.59959e-07
8.45825e-06
-2.17671e-07
8.68967e-06
-4.93009e-07
8.72666e-06
-1.66828e-07
8.85139e-06
-3.73642e-07
8.83618e-06
-1.27806e-07
8.85407e-06
-2.21056e-07
8.75074e-06
-6.79492e-08
-1.01593e-08
7.84853e-06
-4.46264e-07
7.68103e-06
-2.11545e-07
7.3419e-06
-4.79515e-07
7.19608e-06
-1.41305e-07
6.86572e-06
-3.09133e-07
6.71053e-06
-9.41622e-08
6.33478e-06
-8.43663e-08
6.21796e-06
-6.94175e-08
6.1253e-08
7.55673e-06
-1.65409e-07
7.2239e-06
-5.37788e-08
6.4511e-06
-9.83855e-08
6.17072e-06
4.01638e-09
5.55141e-06
1.63081e-08
5.31878e-06
2.5684e-08
5.12729e-06
3.6398e-08
4.91627e-06
3.4161e-08
5.00183e-08
7.65613e-06
7.38051e-06
6.79934e-06
6.66932e-06
6.34591e-06
6.24417e-06
6.08873e-06
5.98279e-06
)
;

boundaryField
{
    inlet
    {
        type            calculated;
        value           nonuniform List<scalar> 
16
(
-8.16327e-06
-8.16327e-06
-8.16327e-06
-8.16327e-06
-8.16327e-06
-8.16327e-06
-8.16327e-06
-8.16327e-06
-8.16327e-06
-8.16327e-06
-8.16327e-06
-8.16327e-06
-8.16327e-06
-8.16327e-06
-8.16327e-06
-8.16327e-06
)
;
    }
    outlet
    {
        type            calculated;
        value           nonuniform 0();
    }
    wall
    {
        type            calculated;
        value           uniform 0;
    }
    procBoundary0to1
    {
        type            processor;
        value           nonuniform List<scalar> 
12
(
1.40165e-05
1.27401e-05
1.12556e-05
1.04638e-05
8.14731e-06
6.33911e-06
9.97802e-06
7.79435e-06
5.94761e-06
8.48324e-06
5.90956e-06
4.96783e-06
)
;
    }
    procBoundary0to2
    {
        type            processor;
        value           nonuniform List<scalar> 
44
(
-1.11346e-07
-1.47353e-07
-6.9734e-08
-1.246e-07
-2.48434e-08
-7.9298e-08
-8.53571e-08
-3.10066e-08
9.89637e-06
-4.52816e-08
3.43874e-07
6.77602e-07
-8.47817e-10
-2.40382e-08
3.67472e-08
3.26774e-08
3.44006e-08
-8.62726e-10
3.68815e-08
3.69996e-08
7.54606e-06
8.62212e-08
2.03823e-07
3.89725e-07
-7.9241e-08
-7.18745e-08
3.9234e-09
-2.58285e-08
-6.11793e-08
-3.90052e-08
-1.17569e-07
-7.16646e-08
6.48666e-06
-1.96942e-07
1.68526e-07
1.80142e-07
8.26482e-08
6.52196e-08
1.84198e-07
6.50743e-08
1.76167e-07
5.49196e-08
8.29531e-08
4.72694e-08
)
;
    }
    procBoundary0to4
    {
        type            processor;
        value           nonuniform List<scalar> 
36
(
-3.60482e-07
-2.30633e-07
-3.64478e-07
-2.32969e-07
-2.55118e-07
-1.98804e-07
-1.99921e-07
-1.99742e-07
-6.72363e-08
-3.77037e-07
-1.9618e-07
-3.56115e-07
-1.55904e-07
-2.19349e-07
-1.02119e-07
-1.35315e-07
-8.44815e-08
-7.74058e-08
-3.67666e-07
-1.75135e-07
-2.78741e-07
-7.56953e-08
-1.258e-07
-8.45078e-09
-1.29077e-07
1.07286e-08
-5.11608e-08
-3.96802e-07
-2.02308e-07
-3.66579e-07
-1.47802e-07
-2.88059e-07
-9.61871e-08
-2.06994e-07
-7.56887e-08
-4.35191e-08
)
;
    }
    procBoundary0to6
    {
        type            processor;
        value           uniform 1.01646e-07;
    }
    procBoundary0to7
    {
        type            processor;
        value           uniform 5.79454e-06;
    }
}


// ************************************************************************* //
