/*--------------------------------*- C++ -*----------------------------------*\
| =========                 |                                                 |
| \\      /  F ield         | OpenFOAM: The Open Source CFD Toolbox           |
|  \\    /   O peration     | Version:  4.x                                   |
|   \\  /    A nd           | Web:      www.OpenFOAM.org                      |
|    \\/     M anipulation  |                                                 |
\*---------------------------------------------------------------------------*/
FoamFile
{
    version     2.0;
    format      ascii;
    class       volScalarField;
    location    "52";
    object      Qsource;
}
// * * * * * * * * * * * * * * * * * * * * * * * * * * * * * * * * * * * * * //

dimensions      [1 -1 -3 0 0 0 0];

internalField   nonuniform List<scalar> 
132
(
6.89429e+09
5.22148e+09
5.54985e+09
4.17952e+09
6.29345e+09
5.88022e+09
7.9541e+09
5.46081e+09
4.19918e+09
5.50732e+09
5.56367e+09
6.43333e+09
6.15491e+09
4.79845e+09
7.34712e+09
6.31215e+09
6.47456e+09
6.28108e+09
3.11688e+09
6.32021e+09
6.64343e+09
5.58825e+09
6.49425e+09
5.46944e+09
4.93947e+09
5.78261e+09
9.47734e+09
3.83751e+09
4.98338e+09
4.40779e+09
5.11596e+09
7.40244e+09
9.50988e+09
8.05056e+09
8.64317e+09
8.11762e+09
8.04015e+09
7.31329e+09
8.19881e+09
4.98219e+09
9.45799e+09
8.01659e+09
8.49939e+09
9.60423e+09
8.61405e+09
9.20056e+09
9.19223e+09
8.96803e+09
5.30174e+09
9.4482e+09
8.40848e+09
7.53133e+09
9.07272e+09
6.7391e+09
1.05153e+10
6.89095e+09
6.34508e+09
7.96335e+09
7.0375e+09
7.79557e+09
5.51103e+09
1.13162e+10
6.42081e+09
7.38865e+09
8.9905e+09
7.42464e+09
8.36475e+09
6.16072e+09
8.95228e+09
7.57428e+09
6.33615e+09
6.24742e+09
8.28127e+09
7.98835e+09
6.92314e+09
9.27871e+09
6.71924e+09
9.45262e+09
1.01838e+10
1.01391e+10
6.70877e+09
7.20531e+09
8.09172e+09
9.29934e+09
9.83168e+09
8.0713e+09
9.19997e+09
6.42196e+09
5.39148e+09
6.9051e+09
8.67012e+09
9.57407e+09
8.99979e+09
9.97478e+09
8.04139e+09
8.77797e+09
5.18808e+09
5.40096e+09
7.6146e+09
5.62368e+09
7.9394e+09
8.21738e+09
6.76309e+09
4.76534e+09
6.8985e+09
5.13651e+09
9.59517e+09
9.09174e+09
8.08449e+09
7.19793e+09
6.62264e+09
1.04275e+10
7.17952e+09
6.92793e+09
5.18857e+09
5.58364e+09
9.05266e+09
6.09964e+09
8.69426e+09
8.39928e+09
8.24365e+09
4.94517e+09
9.33313e+09
4.82821e+09
6.73673e+09
9.83896e+09
1.02454e+10
5.52098e+09
9.85866e+09
8.58113e+09
5.59701e+09
2.62406e+09
)
;

boundaryField
{
    inlet
    {
        type            calculated;
        value           uniform 0;
    }
    outlet
    {
        type            calculated;
        value           nonuniform 0();
    }
    wall
    {
        type            calculated;
        value           uniform 0;
    }
    procBoundary0to1
    {
        type            processor;
        value           nonuniform List<scalar> 
12
(
5.90877e+09
5.25132e+09
4.56251e+09
7.97746e+09
9.01769e+09
7.91306e+09
7.6332e+09
6.47986e+09
9.43414e+09
6.85367e+09
7.86008e+09
5.90163e+09
)
;
    }
    procBoundary0to2
    {
        type            processor;
        value           nonuniform List<scalar> 
44
(
7.66844e+09
6.52634e+09
3.65101e+09
6.94108e+09
4.27713e+09
5.60437e+09
6.66428e+09
7.3563e+09
7.66844e+09
7.01127e+09
7.66844e+09
6.52634e+09
9.84818e+09
1.23015e+10
6.61339e+09
1.12267e+10
4.73251e+09
7.93584e+09
9.5915e+09
9.17085e+09
9.84818e+09
8.87898e+09
9.84818e+09
1.23015e+10
8.07396e+09
9.30112e+09
6.86058e+09
5.7324e+09
6.74295e+09
6.84601e+09
6.74798e+09
7.6444e+09
8.07396e+09
9.80523e+09
8.07396e+09
9.30112e+09
4.89811e+09
9.48633e+09
1.03007e+10
7.15576e+09
8.23898e+09
6.27734e+09
7.58742e+09
7.51207e+09
)
;
    }
    procBoundary0to4
    {
        type            processor;
        value           nonuniform List<scalar> 
36
(
5.75122e+09
7.52666e+09
9.26297e+09
6.42063e+09
8.00651e+09
6.44905e+09
9.80408e+09
7.3348e+09
1.05246e+10
7.01792e+09
7.29854e+09
9.38916e+09
1.00427e+10
1.01161e+10
8.59508e+09
8.14483e+09
5.78078e+09
1.1113e+10
6.68872e+09
1.02798e+10
8.31693e+09
9.37708e+09
8.12904e+09
6.31203e+09
7.31435e+09
1.03016e+10
6.74638e+09
3.45861e+09
6.73559e+09
9.40447e+09
5.71813e+09
8.81634e+09
6.69977e+09
1.10503e+10
6.01554e+09
7.0812e+09
)
;
    }
    procBoundary0to6
    {
        type            processor;
        value           uniform 8.1176e+09;
    }
    procBoundary0to7
    {
        type            processor;
        value           uniform 1.01677e+10;
    }
}


// ************************************************************************* //
