/*--------------------------------*- C++ -*----------------------------------*\
| =========                 |                                                 |
| \\      /  F ield         | OpenFOAM: The Open Source CFD Toolbox           |
|  \\    /   O peration     | Version:  4.x                                   |
|   \\  /    A nd           | Web:      www.OpenFOAM.org                      |
|    \\/     M anipulation  |                                                 |
\*---------------------------------------------------------------------------*/
FoamFile
{
    version     2.0;
    format      ascii;
    class       volScalarField;
    location    "6.5";
    object      nu;
}
// * * * * * * * * * * * * * * * * * * * * * * * * * * * * * * * * * * * * * //

dimensions      [0 2 -1 0 0 0 0];

internalField   nonuniform List<scalar> 
87
(
1.00168e-06
1.00149e-06
1.00125e-06
1.00095e-06
1.00067e-06
1.00049e-06
1.00029e-06
1.00021e-06
9.90302e-07
1.00106e-06
1.00062e-06
1.00021e-06
9.99849e-07
9.99617e-07
9.9952e-07
9.99531e-07
9.99664e-07
9.99559e-07
1.00051e-06
1.00009e-06
9.99746e-07
9.99514e-07
9.99398e-07
9.99404e-07
9.99494e-07
9.99616e-07
9.99601e-07
1.00123e-06
1.0011e-06
1.00089e-06
1.00068e-06
1.00042e-06
1.00022e-06
1.00002e-06
9.99943e-07
9.90142e-07
1.00026e-06
9.9995e-07
9.99701e-07
9.99502e-07
9.99369e-07
9.99332e-07
9.99355e-07
9.9948e-07
9.98992e-07
9.99999e-07
9.99724e-07
9.99504e-07
9.99357e-07
9.9929e-07
9.9929e-07
9.99344e-07
9.99436e-07
9.99062e-07
1.00087e-06
1.00079e-06
1.00065e-06
1.00052e-06
1.00033e-06
1.00017e-06
9.99981e-07
9.99885e-07
9.93648e-07
1.00005e-06
9.99816e-07
9.99611e-07
9.99499e-07
9.99372e-07
9.99353e-07
9.99334e-07
9.99415e-07
9.98632e-07
9.99904e-07
9.997e-07
9.99512e-07
9.99383e-07
9.99323e-07
9.99325e-07
9.99366e-07
9.99432e-07
9.98998e-07
1.00057e-06
1.00054e-06
1.00048e-06
9.99964e-07
9.99796e-07
9.99885e-07
)
;

boundaryField
{
    inlet
    {
        type            calculated;
        value           nonuniform 0();
    }
    outlet
    {
        type            calculated;
        value           uniform 1e-06;
    }
    wall
    {
        type            calculated;
        value           nonuniform List<scalar> 
57
(
1.00168e-06
1.00106e-06
1.00051e-06
1.00149e-06
1.00062e-06
1.00009e-06
1.00125e-06
1.00021e-06
9.99746e-07
1.00095e-06
9.99849e-07
9.99514e-07
1.00067e-06
9.99617e-07
9.99398e-07
1.00049e-06
9.9952e-07
9.99404e-07
1.00029e-06
9.99531e-07
9.99494e-07
1.00021e-06
9.99664e-07
9.99616e-07
9.90302e-07
9.99559e-07
9.99601e-07
1.00168e-06
1.00123e-06
1.00087e-06
1.00057e-06
1.00149e-06
1.0011e-06
1.00079e-06
1.00054e-06
1.00125e-06
1.00089e-06
1.00065e-06
1.00048e-06
1.00095e-06
1.00068e-06
1.00052e-06
1.00067e-06
1.00042e-06
1.00033e-06
1.00049e-06
1.00022e-06
1.00017e-06
1.00029e-06
1.00002e-06
9.99981e-07
1.00021e-06
9.99943e-07
9.99885e-07
9.90302e-07
9.90142e-07
9.93648e-07
)
;
    }
    procBoundary1to0
    {
        type            processor;
        value           nonuniform List<scalar> 
12
(
1.00172e-06
1.00141e-06
1.00096e-06
1.00129e-06
1.00061e-06
1.00031e-06
1.00091e-06
1.00029e-06
1.00013e-06
1.00057e-06
1.00013e-06
1.00005e-06
)
;
    }
    procBoundary1to3
    {
        type            processor;
        value           nonuniform List<scalar> 
27
(
1.00039e-06
9.99997e-07
9.99691e-07
9.9949e-07
9.994e-07
9.99376e-07
9.99416e-07
9.99473e-07
9.9826e-07
1.00007e-06
9.99808e-07
9.99579e-07
9.99407e-07
9.99325e-07
9.99297e-07
9.99331e-07
9.99407e-07
9.98975e-07
1.00006e-06
9.99898e-07
9.99762e-07
9.99586e-07
9.9946e-07
9.99383e-07
9.9941e-07
9.99493e-07
9.99641e-07
)
;
    }
    procBoundary1to5
    {
        type            processor;
        value           nonuniform List<scalar> 
32
(
1.00041e-06
1.00029e-06
1.00019e-06
1.00003e-06
9.99944e-07
9.97844e-07
9.99645e-07
9.99559e-07
9.99445e-07
9.99458e-07
9.99428e-07
9.99485e-07
9.99402e-07
9.99728e-07
9.99575e-07
9.9946e-07
9.99385e-07
9.99375e-07
9.9944e-07
9.99525e-07
9.99654e-07
1.00032e-06
1.00029e-06
1.00041e-06
9.99645e-07
1.00023e-06
9.99773e-07
9.99645e-07
9.99728e-07
9.99621e-07
9.99728e-07
9.99851e-07
)
;
    }
    procBoundary1to7
    {
        type            processor;
        value           uniform 1.00002e-06;
    }
}


// ************************************************************************* //
