/*--------------------------------*- C++ -*----------------------------------*\
| =========                 |                                                 |
| \\      /  F ield         | OpenFOAM: The Open Source CFD Toolbox           |
|  \\    /   O peration     | Version:  4.x                                   |
|   \\  /    A nd           | Web:      www.OpenFOAM.org                      |
|    \\/     M anipulation  |                                                 |
\*---------------------------------------------------------------------------*/
FoamFile
{
    version     2.0;
    format      ascii;
    class       volVectorField;
    location    "6.5";
    object      U;
}
// * * * * * * * * * * * * * * * * * * * * * * * * * * * * * * * * * * * * * //

dimensions      [0 1 -1 0 0 0 0];

internalField   nonuniform List<vector> 
87
(
(0.0254735 -0.00203932 0.00263193)
(0.0381876 -0.00251029 0.00291445)
(0.0228364 -0.00231901 0.00200453)
(0.0385804 -0.00221997 0.00174962)
(0.0221945 -0.00298616 0.00138529)
(0.0421892 -0.00137943 0.000891978)
(0.021802 -0.00462848 0.00180099)
(0.0481704 0.00128615 0.000955492)
(0.0152468 -0.0121738 -0.0133873)
(0.0133975 -0.00148545 0.000418008)
(0.0316354 -0.00269625 0.000259259)
(0.0116327 -0.00154421 -0.000335347)
(0.032128 -0.00270388 -0.00103146)
(0.0116286 -0.00191779 -0.000683318)
(0.0325391 -0.00146971 -0.00100469)
(0.0101021 -0.00300261 -0.000480805)
(0.0300052 0.00160527 -0.000126836)
(0.011302 -0.0107036 -0.00091137)
(0.00590563 -0.000303036 -0.000227279)
(0.0297417 -0.000361008 -0.000584455)
(0.00394646 -4.17415e-05 -0.000419873)
(0.0305718 0.000150201 -0.000326422)
(0.0014773 4.27219e-05 -0.000198952)
(0.0309574 0.00132807 -0.00244161)
(0.0046682 0.000775737 -0.000804921)
(0.0287052 -0.00137418 -0.00104893)
(0.00885591 0.00494452 -0.00131557)
(0.0227442 -0.000875582 0.00353374)
(0.037532 -0.000802407 0.00472784)
(0.021933 -0.000823936 0.00248752)
(0.0388689 -0.000346042 0.00323394)
(0.0197859 -0.00152381 0.00108786)
(0.0419028 0.000739928 0.00178061)
(0.0175216 -0.00399115 0.000922504)
(0.0496566 0.00318494 0.0016679)
(0.0119817 -0.0174263 -0.0258161)
(0.00799149 -0.000453123 -0.000337802)
(0.0304542 -0.000768158 -0.0011327)
(0.00808322 -0.000541851 -0.00140954)
(0.0310224 -0.000128482 -0.00210409)
(0.00707225 -0.00109327 -0.00169436)
(0.0305248 -0.000370888 -0.000884119)
(0.00609087 -0.0027754 -0.00131752)
(0.0281967 0.00237533 0.000378898)
(0.00906163 -0.0155203 -0.00387039)
(0.00436879 -7.11647e-05 -0.000659188)
(0.0294401 8.56336e-05 -0.00167996)
(0.00371216 -8.74591e-05 -0.00116975)
(0.0295661 0.000883903 -0.00154848)
(0.00453288 -0.000143251 -0.00188091)
(0.0293575 0.000542917 -0.00235138)
(0.00186433 -0.000154152 -0.000861911)
(0.026263 0.000262735 -0.000363388)
(0.00485587 -0.000427072 -0.00219593)
(0.0219937 -0.00037796 0.00363256)
(0.0370178 -0.000417158 0.00494995)
(0.0226469 -0.00035545 0.00327274)
(0.0389422 0.000567027 0.0039806)
(0.0207139 -0.000987617 0.00231908)
(0.0419388 0.00203306 0.0022699)
(0.0175006 -0.0035216 0.00185934)
(0.0518239 0.0037703 -0.000327156)
(0.0111967 -0.0184694 -0.0190839)
(0.00608878 -0.000196379 -0.000399981)
(0.0293766 -2.30554e-05 -0.0013659)
(0.00414611 -0.000268444 -0.000591527)
(0.0296818 0.000752026 -0.00198242)
(0.00268277 -0.000467504 -0.000529085)
(0.0294875 0.000686686 -0.000657596)
(0.00473218 -0.00248836 -0.000769517)
(0.0287812 0.00306098 -0.00143906)
(0.01004 -0.0185943 -0.00399849)
(0.00470837 -0.000222092 -0.000466208)
(0.0282747 0.000594932 -0.00182329)
(0.00236842 -0.000126953 -0.000489301)
(0.028378 0.00127363 -0.00196046)
(0.00248045 -0.00021898 -0.000570724)
(0.0282707 1.36043e-05 -0.00141068)
(0.00240699 -0.000409797 -0.000346941)
(0.0281389 -0.000517204 -0.00249511)
(0.00667053 -0.00165467 -0.000890377)
(0.0237919 -0.000359818 0.00294896)
(0.0388404 -5.37296e-05 0.00427295)
(0.0255611 1.85879e-05 0.00249804)
(0.00693185 -2.15624e-05 -0.000548216)
(0.0293983 6.09269e-05 -0.000820552)
(0.0048161 -0.000337811 -0.000577274)
)
;

boundaryField
{
    inlet
    {
        type            fixedValue;
        value           nonuniform 0();
    }
    outlet
    {
        type            zeroGradient;
    }
    wall
    {
        type            fixedValue;
        value           uniform (0 0 0);
    }
    procBoundary1to0
    {
        type            processor;
        value           nonuniform List<vector> 
12
(
(0.0393516 -0.00259577 0.00304661)
(0.0326859 -0.00270666 0.00153586)
(0.0297145 -0.00101589 0.000346815)
(0.0362431 -0.00143631 0.00485044)
(0.0298031 -0.00128045 0.00127496)
(0.0289296 2.87232e-05 0.000230938)
(0.0348099 -0.000975193 0.00473293)
(0.0284864 -0.000351575 0.000433174)
(0.0276952 -0.000268042 7.00916e-05)
(0.0355695 -0.00077859 0.00371684)
(0.0284995 -0.000168511 0.000598026)
(0.0280122 0.000246368 6.8179e-05)
)
;
    }
    procBoundary1to3
    {
        type            processor;
        value           nonuniform List<vector> 
27
(
(0.00351071 7.94481e-05 -4.16223e-05)
(0.0299722 0.000923102 -0.000450314)
(0.00334968 0.000232883 -0.000343718)
(0.0314226 0.00087244 -0.000714733)
(0.00433992 0.0004557 -0.000639053)
(0.0342737 -0.000916055 -0.00178364)
(0.00980148 0.00208506 -0.00268027)
(0.0411456 -0.00240973 0.000170623)
(0.00932408 0.00811864 -0.00893568)
(0.00610477 0.000139924 -0.000842929)
(0.0291278 0.000457188 -0.00126744)
(0.00544845 0.000249128 -0.00149661)
(0.0294365 -0.000162657 -0.00134895)
(0.00744446 0.000576851 -0.00288016)
(0.0299503 0.000352252 -0.00240238)
(0.00747812 0.00116835 -0.00397141)
(0.0276272 -0.00046174 0.000350285)
(0.00845956 0.00341965 -0.0122055)
(0.00233451 7.80861e-05 -0.000309712)
(0.0271629 0.000398083 -0.000363291)
(0.00216243 0.0001577 -0.000493155)
(0.0276993 0.000213367 -0.0019551)
(0.00420144 0.000452993 -0.0017327)
(0.0275224 0.000190507 -0.0016749)
(0.00271926 0.000657513 -0.00151598)
(0.0236263 -0.00106924 0.000218777)
(0.00187643 0.00104273 -0.00185462)
)
;
    }
    procBoundary1to5
    {
        type            processor;
        value           nonuniform List<vector> 
32
(
(0.0418417 0.000721623 0.00335533)
(0.0245325 -0.00111123 0.000736256)
(0.0461092 0.00270519 0.00165831)
(0.020145 -0.00416109 -0.0026453)
(0.056934 0.00475116 -9.34997e-05)
(0.0105102 -0.0191448 -0.0218898)
(0.00555116 -0.000137001 -0.00114554)
(0.0300028 0.00125448 -0.00207045)
(0.00396666 -0.000463615 -0.00122306)
(0.0305476 0.00172109 -0.00186152)
(0.00678488 -0.00314811 -0.00286702)
(0.0303432 0.00322822 -0.00194379)
(0.00896575 -0.0207975 -0.00860957)
(0.0285452 0.000584008 -0.000356042)
(0.00291555 -0.000378887 -0.000725569)
(0.0291473 0.000562913 -0.00190228)
(0.00449625 -0.00110837 -0.00182972)
(0.0302725 -0.000604212 -0.00272521)
(0.00595058 -0.00285336 -0.00307132)
(0.0288689 0.000275737 -0.0017461)
(0.00581576 -0.00506295 -0.00423518)
(0.018886 -0.000370428 0.0017277)
(0.0346742 3.08464e-05 0.00293793)
(0.0418417 0.000721623 0.00335533)
(0.00555116 -0.000137001 -0.00114554)
(0.0189355 -0.000411335 0.00158185)
(0.00164445 -9.0979e-05 -0.000197684)
(0.00555116 -0.000137001 -0.00114554)
(0.0285452 0.000584008 -0.000356042)
(0.0254997 0.00115151 -0.00119769)
(0.0285452 0.000584008 -0.000356042)
(0.00123748 -0.000144705 -0.000130342)
)
;
    }
    procBoundary1to7
    {
        type            processor;
        value           uniform (0.00605194 8.21231e-05 -0.000736188);
    }
}


// ************************************************************************* //
