/*--------------------------------*- C++ -*----------------------------------*\
| =========                 |                                                 |
| \\      /  F ield         | OpenFOAM: The Open Source CFD Toolbox           |
|  \\    /   O peration     | Version:  4.x                                   |
|   \\  /    A nd           | Web:      www.OpenFOAM.org                      |
|    \\/     M anipulation  |                                                 |
\*---------------------------------------------------------------------------*/
FoamFile
{
    version     2.0;
    format      ascii;
    class       volVectorField;
    location    "6.5";
    object      Urel;
}
// * * * * * * * * * * * * * * * * * * * * * * * * * * * * * * * * * * * * * //

dimensions      [0 1 -1 0 0 0 0];

internalField   nonuniform List<vector> 
87
(
(-0.0232296 0.000976393 -0.000901062)
(-0.0243196 0.000998422 -0.00071147)
(-0.0230663 0.000957602 -0.000386281)
(-0.0244544 0.000994425 -9.1104e-05)
(-0.023231 0.00106638 0.000266008)
(-0.0246897 0.00112054 0.00064275)
(-0.022816 0.00170278 0.00107969)
(-0.0240412 0.00201007 0.00196938)
(-0.0202981 0.00409527 0.00362247)
(-0.0208816 0.000730223 -0.000394866)
(-0.0222986 0.000784592 -0.000181191)
(-0.0205922 0.000707979 7.81703e-05)
(-0.0222587 0.000819309 0.0003684)
(-0.0205208 0.0007323 0.000693714)
(-0.0220975 0.000704852 0.00105849)
(-0.0200079 0.00114563 0.00139203)
(-0.0211646 0.00146753 0.00195986)
(-0.0186099 0.00312815 0.00262752)
(-0.0190222 0.000317935 -8.33986e-05)
(-0.0207033 0.000285059 0.000147359)
(-0.0186667 0.000246193 0.000319702)
(-0.0205448 0.000254464 0.000491116)
(-0.0181292 0.000119727 0.00100297)
(-0.0205811 8.97768e-05 0.00155039)
(-0.0184256 0.000348331 0.00172983)
(-0.0199996 0.000616476 0.00216958)
(-0.0174891 0.00062684 0.00267709)
(-0.0228308 0.000748234 -0.000985497)
(-0.0240986 0.000711885 -0.000833267)
(-0.0228284 0.00068427 -0.000435624)
(-0.0242399 0.000687471 -0.000146291)
(-0.0227668 0.000832583 0.000285653)
(-0.0243414 0.000904859 0.000651789)
(-0.0223133 0.00162042 0.00119762)
(-0.0238317 0.00203522 0.00225181)
(-0.0199964 0.00449606 0.00469612)
(-0.020298 0.000536012 -0.000348448)
(-0.021994 0.000531233 -0.000119419)
(-0.020217 0.000485683 0.000145133)
(-0.0219884 0.000465757 0.000469508)
(-0.0200951 0.000566507 0.000749628)
(-0.0218029 0.000663494 0.00108317)
(-0.019616 0.00115808 0.00148442)
(-0.0209775 0.00157683 0.0021448)
(-0.018324 0.00347676 0.00306551)
(-0.0187168 0.000226673 -1.18492e-05)
(-0.0205036 0.000197458 0.000254907)
(-0.0185105 0.000173054 0.000413825)
(-0.020483 0.000122451 0.000622481)
(-0.0185532 0.000181807 0.0010849)
(-0.0203522 0.000222365 0.00156547)
(-0.0181292 0.000483043 0.00180122)
(-0.0196102 0.000740138 0.00230613)
(-0.0171207 0.00121105 0.00288731)
(-0.0226944 0.000567106 -0.00101988)
(-0.0240586 0.000492615 -0.000894024)
(-0.0228887 0.000462924 -0.000538932)
(-0.024261 0.000438442 -0.000235506)
(-0.0227452 0.00065824 0.000193715)
(-0.0243234 0.000754595 0.000635568)
(-0.0222796 0.00165527 0.00125624)
(-0.024054 0.0022433 0.00255343)
(-0.0199615 0.0051265 0.00498326)
(-0.019896 0.00039255 -0.00025726)
(-0.0217107 0.000348589 -4.69001e-05)
(-0.019874 0.000319389 0.000130624)
(-0.0217535 0.000245254 0.000497132)
(-0.019732 0.00046528 0.000721884)
(-0.0216174 0.000643318 0.00110473)
(-0.0194743 0.00129887 0.00157947)
(-0.0210478 0.00188616 0.00243352)
(-0.0182543 0.00426521 0.00338257)
(-0.0185178 0.000177503 8.90104e-06)
(-0.0202742 0.000159916 0.000289343)
(-0.0183097 0.000124009 0.000453092)
(-0.0202875 3.36801e-05 0.000798756)
(-0.0183776 0.000232852 0.00109749)
(-0.0200949 0.000388113 0.001521)
(-0.0178933 0.000770112 0.00188481)
(-0.0193295 0.00113533 0.00256366)
(-0.0167174 0.00200632 0.00312057)
(-0.0228378 0.000485934 -0.000916762)
(-0.0242504 0.000394736 -0.000821856)
(-0.0232313 0.000374764 -0.000472769)
(-0.0198872 0.000312298 -0.000258531)
(-0.0216127 0.000256455 -6.84434e-05)
(-0.0184843 0.000166053 1.51643e-05)
)
;

boundaryField
{
    inlet
    {
        type            calculated;
        value           nonuniform 0();
    }
    outlet
    {
        type            calculated;
        value           nonuniform List<vector> 9((-0.0142753 0.0125862 0.00873756) (-0.00945964 0.0121397 0.000249814) (-0.00638666 -0.00332817 0.000683134) (-0.0118628 0.0148799 0.0200255) (-0.00761765 0.0121036 0.00196988) (-0.00571562 0.000949532 0.000722151) (-0.0120462 0.0175991 0.0186277) (-0.00963374 0.0161052 0.0024579) (-0.00841281 0.00535772 0.00220659));
    }
    wall
    {
        type            calculated;
        value           nonuniform List<vector> 
57
(
(-1.00597e-06 1.07369e-06 1.55968e-05)
(-9.62918e-07 1.00393e-06 1.63946e-05)
(1.8946e-07 2.16079e-06 1.57436e-05)
(1.78993e-06 -6.00179e-06 2.4122e-05)
(1.76335e-06 -4.99221e-06 2.09939e-05)
(-4.67054e-06 3.71158e-07 1.83712e-05)
(3.08222e-06 -6.44208e-06 1.70618e-05)
(4.0527e-06 -2.42888e-06 1.47762e-05)
(-5.00052e-07 3.59118e-06 1.87709e-05)
(4.46248e-06 7.21423e-07 1.42841e-05)
(1.51149e-06 8.50437e-07 1.35208e-05)
(-1.74902e-06 9.95306e-07 1.19859e-05)
(6.85526e-06 -1.95198e-06 3.46029e-05)
(3.49538e-06 1.37145e-06 1.00686e-05)
(5.84189e-07 -3.79236e-07 1.53904e-05)
(5.82559e-06 -1.55266e-06 1.05416e-05)
(5.62089e-06 -5.78415e-08 1.09578e-05)
(-1.31001e-06 1.82507e-07 1.09055e-05)
(6.77054e-06 9.91867e-07 4.61454e-06)
(2.2544e-06 -1.15662e-06 9.19575e-06)
(-8.28793e-08 1.34565e-06 1.31344e-05)
(-3.57996e-06 1.71828e-06 5.87456e-06)
(6.59983e-07 4.99561e-06 9.28869e-06)
(1.9054e-06 4.92011e-06 7.09929e-06)
(-3.02004e-06 -1.13648e-07 1.13649e-05)
(-2.22685e-06 -2.73987e-07 1.01151e-05)
(1.04677e-06 5.93012e-06 7.33281e-06)
(-1.00597e-06 1.07369e-06 1.55968e-05)
(2.71848e-06 5.1053e-07 1.72843e-05)
(2.43633e-06 1.73354e-06 1.52012e-05)
(3.16047e-06 -2.84507e-08 1.04432e-05)
(1.78993e-06 -6.00179e-06 2.4122e-05)
(-9.31585e-07 1.3296e-07 1.48411e-05)
(1.76831e-06 5.25991e-07 1.2083e-05)
(3.70642e-06 -1.15675e-07 1.05806e-05)
(3.08222e-06 -6.44208e-06 1.70618e-05)
(1.24944e-06 -1.16619e-06 1.24378e-05)
(3.79079e-06 1.56689e-07 1.17739e-05)
(4.66041e-06 -1.45778e-06 9.65105e-06)
(4.46248e-06 7.21423e-07 1.42841e-05)
(3.53772e-06 1.13107e-06 1.20173e-05)
(2.54108e-06 -1.41593e-06 8.48545e-06)
(6.85526e-06 -1.95198e-06 3.46029e-05)
(5.46125e-06 -7.70854e-08 1.01564e-05)
(2.79745e-06 -8.98881e-07 9.02845e-06)
(5.82559e-06 -1.55266e-06 1.05416e-05)
(4.39702e-06 -9.03719e-07 1.07936e-05)
(3.07379e-06 -2.4589e-06 9.16951e-06)
(6.77054e-06 9.91867e-07 4.61454e-06)
(3.79469e-06 1.3154e-07 7.09487e-06)
(4.16928e-06 -6.09461e-07 7.77524e-06)
(-3.57996e-06 1.71828e-06 5.87456e-06)
(2.12325e-06 2.27336e-06 5.11866e-06)
(1.64887e-06 5.15935e-07 6.02382e-06)
(-3.02004e-06 -1.13648e-07 1.13649e-05)
(-8.83509e-08 7.86494e-07 6.42338e-06)
(-6.31313e-07 3.27472e-08 7.75635e-06)
)
;
    }
    procBoundary1to0
    {
        type            processor;
        value           nonuniform List<vector> 
12
(
(-0.0245306 0.00106419 -0.00109363)
(-0.0225953 0.0008154 -0.000636755)
(-0.0210146 0.000374076 -0.000296545)
(-0.0240048 0.000831157 -0.00122577)
(-0.0220347 0.00060059 -0.000584178)
(-0.0206753 0.000249952 -0.00024548)
(-0.0236694 0.000664386 -0.00124227)
(-0.0216241 0.000414362 -0.000537751)
(-0.0203483 0.000156713 -0.00023001)
(-0.0236347 0.000558275 -0.00109438)
(-0.0214494 0.000330904 -0.000492964)
(-0.0202327 0.000123262 -0.000206282)
)
;
    }
    procBoundary1to3
    {
        type            processor;
        value           nonuniform List<vector> 
27
(
(-0.0184247 -0.000109193 1.65564e-05)
(-0.0203068 -0.000199243 0.000267484)
(-0.0183241 -0.000185884 0.000485045)
(-0.0203392 -0.000267444 0.000725867)
(-0.0182145 -0.000189066 0.00125191)
(-0.0207788 -6.87865e-05 0.00182258)
(-0.0188885 -0.000319481 0.00216211)
(-0.0207042 -0.000212472 0.00260119)
(-0.0177073 -0.00115651 0.00370427)
(-0.0183001 -9.14343e-05 0.000141015)
(-0.0200959 -0.000142496 0.000400596)
(-0.0182418 -0.000125792 0.000592885)
(-0.0201959 -0.00011335 0.000835882)
(-0.018462 -0.000176466 0.00139611)
(-0.020175 -0.000152132 0.00188866)
(-0.0181629 -0.000249737 0.00225538)
(-0.0194961 -0.000221434 0.0027347)
(-0.0170395 -0.000682328 0.00400726)
(-0.0180601 -6.11608e-05 0.000105556)
(-0.0198223 -7.95844e-05 0.000392316)
(-0.0179852 -0.000100313 0.000619547)
(-0.0198985 -0.000140624 0.000971301)
(-0.0180758 -0.000150667 0.00139732)
(-0.0195295 -0.000118917 0.00185448)
(-0.0173246 -0.000164653 0.00228029)
(-0.0182811 -0.00010189 0.00286777)
(-0.0157513 -0.000386936 0.00376425)
)
;
    }
    procBoundary1to5
    {
        type            processor;
        value           nonuniform List<vector> 
32
(
(-0.0245814 0.000346474 -0.000176775)
(-0.0231116 0.000618964 0.000279981)
(-0.0246671 0.000708754 0.000703472)
(-0.0225241 0.00179356 0.00146699)
(-0.0243451 0.00244587 0.00248154)
(-0.0198885 0.00559685 0.00498614)
(-0.0199161 0.000258339 0.000189011)
(-0.0216517 0.000189095 0.000568832)
(-0.0196839 0.000481758 0.000769169)
(-0.021608 0.00068522 0.0011949)
(-0.0195048 0.00155167 0.00171465)
(-0.0209093 0.00220115 0.00242444)
(-0.0178707 0.00510193 0.00366576)
(-0.0202319 0.000142992 0.000224501)
(-0.0183359 0.000147957 0.000495483)
(-0.0201861 0.000102538 0.000886829)
(-0.0182662 0.000401204 0.00118162)
(-0.0198101 0.000635723 0.00162777)
(-0.0175134 0.00117663 0.00204071)
(-0.0184242 0.00149038 0.00251041)
(-0.0156749 0.00276335 0.00333603)
(-0.0225824 0.000530158 -0.000783835)
(-0.0240696 0.000402714 -0.000688168)
(-0.0245814 0.000346474 -0.000176775)
(-0.0199161 0.000258339 0.000189011)
(-0.0230008 0.000407243 -0.000437128)
(-0.0195678 0.000304459 -0.000200539)
(-0.0199161 0.000258339 0.000189011)
(-0.0202319 0.000142992 0.000224501)
(-0.0212652 0.000215168 -1.23242e-05)
(-0.0202319 0.000142992 0.000224501)
(-0.0184301 0.000182802 -7.60289e-06)
)
;
    }
    procBoundary1to7
    {
        type            processor;
        value           uniform (-0.0181443 -2.95733e-05 0.00014559);
    }
}


// ************************************************************************* //
