/*--------------------------------*- C++ -*----------------------------------*\
  =========                 |
  \\      /  F ield         | OpenFOAM: The Open Source CFD Toolbox
   \\    /   O peration     | Website:  https://openfoam.org
    \\  /    A nd           | Version:  4.x
     \\/     M anipulation  |
\*---------------------------------------------------------------------------*/
FoamFile
{
    version     2.0;
    format      ascii;
    class       vectorField;
    location    0;
    object      v;
}
// * * * * * * * * * * * * * * * * * * * * * * * * * * * * * * * * * * * * * //

313
(
( 6.44919e-09 -4.17816e-09 1.97623e-09 )  
( 4.00482e-09 -1.14748e-09 1.65432e-09 )  
( 5.84302e-09 -4.2643e-09 3.03184e-09 )  
( 4.93183e-09 -9.16786e-10 1.29409e-09 )  
( 8.09618e-09 -6.15036e-09 3.20558e-09 )  
( 7.29646e-09 -2.1791e-09 1.22867e-09 )  
( 3.46105e-09 -1.89742e-09 1.37227e-09 )  
( 8.31279e-09 -3.75784e-09 2.10394e-09 )  
( 5.30054e-09 -1.37611e-09 1.4693e-09 )  
( 3.42925e-09 -1.742e-09 1.202e-09 )  
( 4.41354e-09 9.26994e-10 3.23374e-09 )  
( 5.4449e-09 -1.5457e-09 -2.85347e-10 )  
( 5.12671e-10 -2.11544e-10 5.98929e-10 )  
( 3.88114e-09 -2.32053e-09 3.44231e-10 )  
( 4.19533e-09 -2.38162e-09 1.08443e-09 )  
( 7.89819e-10 -8.5505e-10 7.04011e-10 )  
( 1.11924e-10 -1.35684e-10 2.65041e-10 )  
( 3.03797e-09 -1.71641e-09 5.35948e-10 )  
( 5.97683e-09 -2.06687e-09 1.40493e-10 )  
( 2.26843e-10 -3.34882e-10 8.77543e-10 )  
( 6.56561e-10 -1.41344e-10 7.45846e-10 )  
( 3.65472e-10 -6.13428e-11 7.72118e-11 )  
( 3.16812e-09 -1.85585e-09 8.44202e-10 )  
( 1.3443e-09 -6.26293e-10 -1.93459e-10 )  
( 1.45201e-10 3.18883e-11 3.99757e-11 )  
( -1.27602e-11 -1.55517e-10 8.52952e-11 )  
( 1.4085e-10 -2.14969e-10 1.05477e-10 )  
( 6.15997e-10 -2.11063e-10 3.70907e-10 )  
( 8.30612e-10 -7.86241e-10 2.91408e-10 )  
( 1.48458e-09 -1.20661e-09 3.59564e-10 )  
( 2.42569e-09 -1.67725e-09 4.81483e-10 )  
( 7.28279e-10 -1.43168e-10 4.8522e-10 )  
( 6.64859e-09 -9.10699e-10 5.45785e-10 )  
( 1.25714e-10 -1.50565e-10 1.03994e-09 )  
( 3.2179e-10 -2.4934e-10 1.065e-09 )  
( 5.46799e-09 -3.08833e-09 5.6993e-10 )  
( 2.26388e-09 -1.35573e-09 7.76212e-11 )  
( 2.02595e-09 -1.62937e-09 1.6374e-10 )  
( 2.46384e-09 -1.81534e-09 -8.37498e-11 )  
( 1.52682e-09 -1.3583e-09 1.07875e-10 )  
( 7.95749e-10 -3.57558e-10 6.25439e-10 )  
( 1.26855e-09 -1.00052e-09 6.5759e-11 )  
( 1.2141e-09 -2.73203e-10 -1.5953e-10 )  
( 1.17917e-09 -9.2173e-10 2.20949e-10 )  
( 5.48391e-10 -1.4832e-09 7.60313e-10 )  
( 3.42053e-09 -1.41201e-09 -1.62441e-10 )  
( 3.80828e-11 -2.29713e-10 1.29293e-11 )  
( 3.01594e-09 -1.84022e-09 2.97117e-10 )  
( 1.95094e-09 -1.38921e-09 1.0039e-09 )  
( 1.73867e-10 -4.61685e-10 1.95979e-10 )  
( 4.54311e-09 -3.15962e-09 1.37291e-09 )  
( 9.86332e-10 -1.26586e-09 1.01906e-09 )  
( 9.41451e-10 -3.38831e-10 -3.46125e-10 )  
( 1.60013e-10 -1.69275e-10 7.31473e-10 )  
( -3.36137e-11 -5.59346e-10 3.55375e-10 )  
( 9.73124e-10 -1.48933e-09 1.19034e-09 )  
( 4.31599e-09 -2.44726e-09 -5.19062e-11 )  
( 2.26583e-09 -1.26301e-09 1.13298e-09 )  
( 4.77187e-09 -2.85086e-09 -2.14979e-10 )  
( 2.29183e-10 -8.67983e-11 5.35145e-10 )  
( 1.05045e-09 -7.85488e-10 8.5228e-10 )  
( 9.6403e-10 -9.56856e-10 1.14704e-09 )  
( 1.08077e-09 -1.50412e-09 3.93016e-10 )  
( 5.44634e-10 -6.07653e-10 6.20338e-10 )  
( 1.49977e-10 -1.17524e-10 2.12574e-10 )  
( 1.0634e-09 -8.06284e-10 6.08925e-10 )  
( 2.90516e-10 -2.01706e-10 1.23431e-10 )  
( 6.56558e-10 -5.91357e-10 9.8281e-10 )  
( 1.86557e-09 -1.5234e-09 1.30655e-10 )  
( 3.59492e-09 -2.27263e-09 8.68071e-11 )  
( 3.06735e-09 -1.31617e-09 8.88315e-10 )  
( 1.90451e-09 -1.83886e-09 6.82323e-10 )  
( 4.96679e-09 -3.55327e-09 1.57114e-09 )  
( 2.35836e-10 -3.13662e-10 7.23682e-10 )  
( 8.42855e-10 -3.54516e-10 2.53568e-10 )  
( 6.96747e-10 -6.92888e-10 5.48487e-10 )  
( 2.65731e-10 -1.92334e-10 9.37051e-10 )  
( 3.11608e-09 -1.80741e-09 3.77374e-10 )  
( 3.24701e-09 -1.87615e-09 -2.30815e-10 )  
( 1.7234e-10 -1.29881e-10 2.0338e-10 )  
( 1.38746e-09 -1.19659e-09 -5.59772e-11 )  
( -3.87219e-11 -6.99437e-11 6.76245e-10 )  
( -2.41602e-10 -6.15723e-10 -2.48258e-11 )  
( 1.72473e-09 -1.36529e-09 2.17201e-10 )  
( -2.12278e-10 -7.79205e-11 -1.68682e-10 )  
( 3.44024e-09 -1.17135e-09 3.38652e-10 )  
( 6.2489e-10 2.00774e-10 4.62353e-10 )  
( 6.55899e-10 -1.13554e-09 8.84539e-10 )  
( -6.8756e-11 -1.9378e-10 2.08889e-11 )  
( -5.03868e-11 5.22237e-11 -1.29952e-10 )  
( 9.16925e-10 -1.60242e-09 7.35593e-10 )  
( 5.45314e-10 -3.0363e-10 2.12492e-10 )  
( 7.50689e-10 -4.84261e-10 -2.57655e-10 )  
( 3.22551e-10 1.35488e-10 9.86855e-11 )  
( 6.56078e-10 -1.28079e-09 1.24244e-09 )  
( 7.40295e-09 -1.79801e-09 2.83284e-10 )  
( 4.95017e-09 -2.4998e-09 -9.54852e-10 )  
( 2.79024e-10 1.71211e-10 3.77639e-10 )  
( 4.94237e-09 -2.35585e-09 3.83091e-11 )  
( 6.22782e-10 -1.73655e-10 2.04222e-10 )  
( 1.70848e-09 -1.3595e-09 -5.97298e-11 )  
( 7.09971e-10 -8.66049e-10 6.57076e-11 )  
( 5.76588e-09 -4.46541e-09 8.51883e-10 )  
( 7.9559e-09 -4.38899e-09 4.15962e-10 )  
( 2.68429e-09 -2.31357e-09 5.03383e-10 )  
( 2.89339e-09 -1.94535e-09 1.90087e-10 )  
( 3.64391e-10 -1.35416e-10 4.31571e-10 )  
( 9.09881e-09 -3.60774e-09 4.03725e-12 )  
( 2.05405e-09 -1.89392e-09 3.29092e-10 )  
( 8.18217e-10 -5.71593e-10 6.97623e-10 )  
( 1.18841e-09 -7.81309e-10 5.65997e-11 )  
( 2.16227e-09 -1.61625e-09 1.37364e-10 )  
( 2.66897e-09 -1.43152e-09 5.08692e-10 )  
( 4.99503e-10 -4.11069e-10 1.36202e-10 )  
( 1.21494e-09 -6.24667e-10 4.22972e-10 )  
( 2.56327e-09 -1.09495e-09 7.26623e-10 )  
( 1.92574e-09 -7.09378e-10 -3.42229e-10 )  
( 3.98831e-09 -1.76376e-09 1.54962e-09 )  
( 7.36105e-10 -7.90299e-10 1.86406e-10 )  
( 5.18547e-10 -3.70674e-10 8.01729e-10 )  
( 1.72253e-10 -1.72896e-10 8.1553e-10 )  
( 6.58342e-10 -4.0511e-10 9.88057e-10 )  
( 6.48066e-11 1.56621e-10 -5.97483e-11 )  
( 6.447e-09 -4.82806e-09 1.20211e-09 )  
( 1.15746e-09 -1.18736e-09 -5.49996e-10 )  
( 3.20159e-10 -1.37509e-10 1.9111e-10 )  
( 2.10182e-09 -7.9845e-10 5.04195e-11 )  
( 1.39323e-09 -1.99374e-09 3.74012e-10 )  
( 1.37608e-10 1.05883e-10 -7.89293e-11 )  
( 9.95738e-10 -1.06161e-09 4.3993e-10 )  
( 3.78762e-09 -2.50038e-09 6.96925e-10 )  
( 2.39616e-10 -3.37365e-10 -6.7826e-11 )  
( 6.30655e-09 -2.81392e-09 2.01173e-11 )  
( 3.61263e-09 -3.18226e-09 1.47787e-11 )  
( 8.06202e-10 -3.73903e-10 -4.41873e-10 )  
( 3.36266e-10 -2.81035e-10 4.92852e-10 )  
( 5.99809e-10 -1.52747e-10 1.89652e-10 )  
( 5.86369e-09 -2.6499e-09 9.82661e-11 )  
( 1.00349e-10 -1.90702e-10 2.30243e-10 )  
( 1.6214e-09 -7.52238e-10 4.64621e-10 )  
( 3.43275e-10 -3.65852e-10 1.10108e-10 )  
( 9.12066e-11 -1.70385e-10 1.4962e-10 )  
( 8.70851e-10 -1.19641e-09 3.32379e-10 )  
( 8.76091e-10 -1.0862e-09 3.24227e-10 )  
( 3.82044e-10 -2.03796e-10 1.07544e-10 )  
( 3.12503e-09 -2.09893e-09 1.47781e-09 )  
( 7.10753e-10 -4.30188e-10 2.18935e-10 )  
( 3.50001e-09 -1.64121e-09 8.65174e-10 )  
( 5.36612e-10 -5.44801e-10 2.75471e-10 )  
( 7.65501e-10 -4.85142e-10 5.46593e-10 )  
( 1.4273e-09 -4.40318e-10 2.72946e-10 )  
( 9.55651e-10 8.41159e-12 6.9866e-10 )  
( 1.10485e-09 -5.82746e-10 5.55984e-10 )  
( 6.68654e-09 1.87039e-10 -3.44524e-10 )  
( 2.15177e-09 -1.56836e-12 9.37844e-10 )  
( 3.70736e-10 -3.29584e-10 4.0007e-10 )  
( 1.1783e-09 -5.43393e-10 7.80843e-10 )  
( 3.42834e-09 -8.49404e-10 8.04819e-10 )  
( 3.36211e-09 -5.67695e-10 8.40198e-10 )  
( 1.75189e-09 -8.29658e-10 1.6961e-10 )  
( 1.66379e-09 -6.13112e-10 4.7932e-10 )  
( 3.12845e-09 -5.14598e-10 1.09927e-10 )  
( 1.37253e-10 -1.2735e-10 1.60145e-10 )  
( 2.5009e-09 -6.94618e-10 1.31556e-09 )  
( 1.93652e-11 1.62399e-10 -1.00873e-10 )  
( -9.58263e-11 8.61626e-12 7.50811e-11 )  
( 2.1937e-10 -2.4748e-10 4.22368e-11 )  
( 1.86567e-09 -7.56129e-10 1.93926e-10 )  
( 3.11635e-09 -1.15002e-09 5.26764e-10 )  
( 1.45284e-10 -2.22391e-10 6.82873e-11 )  
( 1.65271e-10 -5.70716e-11 1.68741e-10 )  
( 2.60157e-10 -2.04079e-10 1.21793e-10 )  
( 2.00786e-09 -9.26617e-10 7.79263e-10 )  
( 2.8128e-10 -1.68855e-10 3.47659e-10 )  
( 5.36769e-09 -1.97025e-11 6.38339e-10 )  
( 1.75272e-09 -1.02289e-09 8.0031e-10 )  
( 3.98286e-10 -2.39298e-10 1.92504e-10 )  
( -1.09061e-10 2.2515e-10 -2.07985e-11 )  
( 8.63449e-10 -5.31415e-10 4.00925e-10 )  
( 3.52465e-09 -1.17692e-09 1.89838e-10 )  
( 1.22282e-09 -5.10882e-10 1.52774e-11 )  
( 4.20076e-09 -2.14894e-10 9.42467e-11 )  
( 6.80021e-10 -3.39543e-10 4.13907e-11 )  
( 1.93729e-09 -4.65007e-10 6.44715e-10 )  
( 7.65961e-10 -1.56391e-10 5.46445e-10 )  
( 5.92132e-11 -1.81474e-10 2.93743e-10 )  
( 1.73128e-10 -1.96567e-10 1.98713e-10 )  
( 7.18587e-10 -6.66172e-10 6.77455e-10 )  
( 6.82333e-10 -5.26103e-10 3.70391e-10 )  
( 6.14002e-10 -4.18878e-10 4.24403e-10 )  
( 7.0922e-10 -4.01257e-10 7.96122e-10 )  
( 5.35961e-10 -4.25335e-10 2.68841e-10 )  
( 5.39719e-10 -2.22227e-10 2.2683e-10 )  
( 3.08717e-09 -4.93599e-10 5.56959e-10 )  
( 6.35655e-09 -1.83294e-10 -2.91712e-10 )  
( 1.82453e-09 -3.59467e-10 4.27459e-10 )  
( 9.72391e-10 -6.30286e-10 6.18843e-10 )  
( 4.88943e-10 -2.9732e-10 2.07943e-10 )  
( -1.64209e-11 -4.09253e-10 1.52923e-10 )  
( 1.41702e-10 -1.60078e-10 3.18984e-10 )  
( 4.61519e-09 -4.3657e-10 6.43469e-10 )  
( 5.94756e-10 -2.80845e-10 1.70071e-10 )  
( 4.12887e-09 -9.76245e-10 5.41565e-10 )  
( 1.51062e-09 -9.28726e-10 1.24734e-09 )  
( 1.16265e-09 -6.88545e-10 8.55629e-10 )  
( 1.21149e-09 -3.78915e-10 3.33397e-10 )  
( 4.78014e-09 -1.7445e-10 -1.49417e-11 )  
( 8.24163e-10 -2.03451e-10 2.20659e-10 )  
( 2.33445e-09 -8.11367e-10 3.07116e-11 )  
( 3.44941e-11 -2.43637e-11 -8.57331e-13 )  
( 7.60749e-10 -5.48225e-10 5.68748e-10 )  
( -3.00692e-11 -4.23475e-11 -2.21467e-11 )  
( 3.24762e-09 -1.92925e-09 6.11973e-10 )  
( 1.16705e-09 -7.34835e-10 3.93135e-10 )  
( 1.03839e-09 -4.6986e-10 3.2291e-10 )  
( 6.99662e-11 8.30763e-11 1.77173e-10 )  
( 3.83337e-12 -1.04594e-10 1.23941e-10 )  
( 1.23249e-09 -4.77508e-10 5.8203e-10 )  
( 5.05459e-09 -4.1625e-09 2.08223e-09 )  
( 6.97418e-11 -1.31942e-10 1.07544e-10 )  
( 2.78327e-09 -1.72963e-09 1.21151e-09 )  
( -3.53459e-11 7.41807e-11 3.01371e-11 )  
( 2.64579e-09 -1.60964e-09 8.20929e-10 )  
( 5.84396e-10 -5.38631e-10 6.4496e-10 )  
( 6.93543e-09 -3.36656e-09 1.13325e-09 )  
( 7.17289e-09 -5.68759e-10 1.37805e-10 )  
( 5.20379e-09 -1.73243e-09 -3.37776e-10 )  
( 6.37769e-12 -2.78907e-10 -2.07457e-10 )  
( 5.60355e-09 -3.2132e-09 5.94815e-10 )  
( 3.67413e-10 -2.90205e-10 7.30806e-10 )  
( 3.13748e-09 -1.14615e-09 9.41373e-10 )  
( 1.2515e-09 -5.68201e-10 -7.04317e-11 )  
( 2.09774e-09 -1.0874e-09 9.36416e-10 )  
( 1.13814e-08 -2.6319e-09 -2.37972e-10 )  
( -2.20248e-10 -1.57056e-10 1.66048e-10 )  
( 1.4971e-10 -4.68045e-10 7.61483e-10 )  
( 2.12647e-09 -4.45981e-10 3.29131e-10 )  
( 1.18514e-09 -7.51485e-10 1.24442e-10 )  
( 2.34823e-09 -2.98081e-10 5.49174e-10 )  
( 2.48227e-09 -1.57166e-09 4.87221e-10 )  
( 1.00455e-09 -7.07825e-10 3.06877e-10 )  
( 3.0565e-10 -3.31606e-10 5.84954e-10 )  
( 4.15382e-10 -1.70126e-10 2.87077e-10 )  
( 3.01567e-09 -3.42309e-10 4.67596e-10 )  
( 2.33998e-09 -5.4911e-10 4.82994e-10 )  
( 1.98167e-09 -1.43068e-09 8.6242e-10 )  
( 6.09517e-10 -1.82729e-10 9.66589e-10 )  
( 2.4528e-10 -9.25654e-11 4.68293e-10 )  
( 3.00515e-09 -7.01633e-10 7.25036e-10 )  
( 2.88374e-09 -1.0571e-09 8.51128e-10 )  
( 5.74515e-10 -6.03751e-10 8.37321e-10 )  
( 5.45496e-10 -5.04065e-10 5.562e-10 )  
( 4.78033e-11 -1.91891e-10 1.80791e-10 )  
( -1.04068e-10 2.36023e-11 -1.62099e-10 )  
( 7.14536e-10 -3.631e-10 4.20854e-10 )  
( 2.26477e-09 -1.5586e-09 3.6068e-10 )  
( 5.18356e-10 3.27269e-11 2.74677e-10 )  
( 4.54959e-09 -2.74703e-09 7.86866e-10 )  
( 3.46163e-09 -1.58786e-09 1.30365e-09 )  
( 3.43493e-09 -1.74156e-09 1.35161e-09 )  
( 7.68464e-10 -1.25794e-10 6.17313e-10 )  
( 8.23284e-10 -1.45175e-09 7.83763e-10 )  
( 9.73689e-10 -3.15788e-10 7.11449e-10 )  
( 7.42787e-10 -2.31796e-10 6.82491e-10 )  
( 1.74708e-09 -1.7612e-09 6.35402e-10 )  
( 4.20188e-09 -3.64942e-09 2.38162e-09 )  
( 2.29136e-10 -5.22016e-11 6.33247e-12 )  
( 1.91545e-09 -2.1282e-09 4.54561e-10 )  
( 7.34035e-10 -3.76642e-10 5.09282e-10 )  
( 7.5847e-10 -2.4899e-10 4.48424e-10 )  
( 3.34695e-09 -2.58118e-09 8.59935e-10 )  
( 6.0335e-10 -1.40433e-12 4.0664e-10 )  
( 1.32646e-10 -2.21094e-10 4.31042e-10 )  
( 1.3855e-09 -6.99274e-10 7.07037e-10 )  
( 4.72755e-10 -2.67213e-10 1.01091e-09 )  
( 8.83418e-10 -1.60476e-09 7.95326e-10 )  
( 1.80992e-09 -1.36185e-09 1.28011e-09 )  
( 3.37071e-09 -1.66437e-09 1.68126e-10 )  
( 3.99947e-09 -2.31992e-09 1.62736e-09 )  
( 8.33416e-11 -1.80556e-10 2.03863e-10 )  
( 7.47389e-09 -6.97292e-09 1.26712e-09 )  
( 1.98998e-09 -5.67601e-10 7.48463e-10 )  
( 5.03451e-09 -4.99273e-09 9.2783e-10 )  
( 4.54079e-10 1.26387e-10 1.61721e-10 )  
( 6.64144e-09 -5.43295e-09 8.88215e-10 )  
( -1.30187e-09 -1.32442e-10 1.51111e-10 )  
( 1.08429e-09 -1.91659e-09 1.2688e-10 )  
( 9.034e-10 -8.04508e-10 8.66229e-10 )  
( 8.34491e-10 -4.57317e-10 5.09864e-10 )  
( 1.41187e-09 -5.51425e-10 1.3692e-09 )  
( 7.19944e-10 -8.18839e-11 3.69387e-10 )  
( 2.73309e-09 -1.11662e-09 8.45384e-10 )  
( 1.46251e-09 -5.86661e-10 1.21206e-09 )  
( 1.24022e-09 -3.33463e-09 6.58002e-10 )  
( 1.79582e-09 -8.48142e-10 9.422e-10 )  
( 1.60252e-09 -5.70433e-10 -3.98716e-10 )  
( 2.9316e-10 -2.16073e-10 8.28718e-10 )  
( 3.75568e-09 -3.59742e-09 1.30317e-09 )  
( 3.89555e-09 -4.74972e-09 8.39908e-10 )  
( 1.89422e-09 -4.09977e-09 2.82726e-10 )  
( -1.19535e-10 1.69227e-10 1.85556e-10 )  
( -5.73352e-10 3.24134e-10 6.02551e-11 )  
( 6.59033e-10 -2.96429e-10 6.03997e-10 )  
( 4.73435e-09 -4.94182e-09 1.44407e-09 )  
( 4.93005e-10 -2.33419e-10 3.34495e-10 )  
( 1.32472e-09 -5.04844e-10 7.52256e-10 )  
( 8.52069e-10 -6.49294e-10 8.71575e-10 )  
( 1.607e-09 -1.8694e-09 7.04621e-10 )  
( 1.57167e-09 -1.051e-09 1.30206e-09 )  
( 3.95688e-09 -3.33337e-09 2.06933e-09 )  
( 6.84021e-10 3.24124e-11 9.11256e-10 )  
( 2.5977e-09 -1.3114e-09 1.41456e-09 )  
( 7.88136e-09 -6.06229e-09 2.8733e-09 )  
)
