/*--------------------------------*- C++ -*----------------------------------*\
| =========                 |                                                 |
| \\      /  F ield         | OpenFOAM: The Open Source CFD Toolbox           |
|  \\    /   O peration     | Version:  4.x                                   |
|   \\  /    A nd           | Web:      www.OpenFOAM.org                      |
|    \\/     M anipulation  |                                                 |
\*---------------------------------------------------------------------------*/
FoamFile
{
    version     2.0;
    format      ascii;
    class       volScalarField;
    location    "4";
    object      nu;
}
// * * * * * * * * * * * * * * * * * * * * * * * * * * * * * * * * * * * * * //

dimensions      [0 2 -1 0 0 0 0];

internalField   nonuniform List<scalar> 
132
(
1.00017e-06
1.00053e-06
1.00104e-06
1.00152e-06
1.00186e-06
1.002e-06
1.00197e-06
1.00182e-06
1.00156e-06
1.00015e-06
1.00051e-06
1.00104e-06
1.00155e-06
1.00185e-06
1.00187e-06
1.00166e-06
1.00128e-06
1.00071e-06
1.00014e-06
1.00056e-06
1.00116e-06
1.00165e-06
1.00177e-06
1.00155e-06
1.0012e-06
1.00077e-06
1.00025e-06
1.00014e-06
1.00056e-06
1.00115e-06
1.00008e-06
1.00031e-06
1.00064e-06
1.00098e-06
1.00124e-06
1.00133e-06
1.00131e-06
1.00119e-06
1.00101e-06
1.00008e-06
1.00032e-06
1.00066e-06
1.00095e-06
1.00107e-06
1.00096e-06
1.00074e-06
1.00042e-06
1.00004e-06
1.00008e-06
1.00036e-06
1.00074e-06
1.00098e-06
1.00097e-06
1.00074e-06
1.00045e-06
1.00014e-06
9.99833e-07
1.00008e-06
1.00037e-06
1.00077e-06
1.00099e-06
1.00102e-06
1.00005e-06
1.00018e-06
1.0004e-06
1.00062e-06
1.0008e-06
1.00088e-06
1.00088e-06
1.00082e-06
1.00067e-06
1.00005e-06
1.0002e-06
1.00042e-06
1.00059e-06
1.00066e-06
1.00058e-06
1.00042e-06
1.00019e-06
9.99931e-07
1.00005e-06
1.00022e-06
1.00045e-06
1.0006e-06
1.0006e-06
1.00047e-06
1.00026e-06
1.00001e-06
9.99784e-07
1.00004e-06
1.00022e-06
1.00046e-06
1.00061e-06
1.00062e-06
1.0005e-06
1.00034e-06
1.00003e-06
1.0001e-06
1.00022e-06
1.00035e-06
1.00046e-06
1.00053e-06
1.00054e-06
1.00052e-06
1.00047e-06
1.00003e-06
1.00011e-06
1.00025e-06
1.00035e-06
1.00039e-06
1.00034e-06
1.00023e-06
1.00007e-06
9.99879e-07
1.00003e-06
1.00013e-06
1.00028e-06
1.00037e-06
1.00038e-06
1.0003e-06
1.00016e-06
9.99969e-07
9.99795e-07
1.00003e-06
1.00015e-06
1.00031e-06
1.00041e-06
1.00042e-06
1.00036e-06
1.00025e-06
1.00011e-06
9.99942e-07
)
;

boundaryField
{
    inlet
    {
        type            calculated;
        value           uniform 1e-06;
    }
    outlet
    {
        type            calculated;
        value           nonuniform 0();
    }
    wall
    {
        type            calculated;
        value           nonuniform List<scalar> 
66
(
1.00017e-06
1.00015e-06
1.00014e-06
1.00014e-06
1.00053e-06
1.00051e-06
1.00056e-06
1.00056e-06
1.00104e-06
1.00104e-06
1.00116e-06
1.00115e-06
1.00152e-06
1.00155e-06
1.00165e-06
1.00186e-06
1.00185e-06
1.00177e-06
1.002e-06
1.00187e-06
1.00155e-06
1.00197e-06
1.00166e-06
1.0012e-06
1.00182e-06
1.00128e-06
1.00077e-06
1.00156e-06
1.00071e-06
1.00025e-06
1.00017e-06
1.00008e-06
1.00005e-06
1.00003e-06
1.00053e-06
1.00031e-06
1.00018e-06
1.0001e-06
1.00104e-06
1.00064e-06
1.0004e-06
1.00022e-06
1.00152e-06
1.00098e-06
1.00062e-06
1.00035e-06
1.00186e-06
1.00124e-06
1.0008e-06
1.00046e-06
1.002e-06
1.00133e-06
1.00088e-06
1.00053e-06
1.00197e-06
1.00131e-06
1.00088e-06
1.00054e-06
1.00182e-06
1.00119e-06
1.00082e-06
1.00052e-06
1.00156e-06
1.00101e-06
1.00067e-06
1.00047e-06
)
;
    }
    procBoundary0to1
    {
        type            processor;
        value           nonuniform List<scalar> 
12
(
1.00128e-06
1.00027e-06
9.99848e-07
1.00076e-06
9.99744e-07
9.9956e-07
1.00055e-06
9.99653e-07
9.9955e-07
1.00041e-06
9.997e-07
9.99635e-07
)
;
    }
    procBoundary0to2
    {
        type            processor;
        value           nonuniform List<scalar> 
44
(
1.00162e-06
1.00172e-06
1.00148e-06
1.00109e-06
1.00065e-06
1.00019e-06
1.00014e-06
1.00055e-06
1.00162e-06
1.00115e-06
1.00162e-06
1.00172e-06
1.00082e-06
1.00055e-06
1.00026e-06
9.99907e-07
1.00007e-06
1.00034e-06
1.00073e-06
1.00099e-06
1.00082e-06
1.00103e-06
1.00082e-06
1.00055e-06
1.00017e-06
9.99983e-07
1.00004e-06
1.00019e-06
1.00042e-06
1.00058e-06
1.0006e-06
1.00047e-06
1.00017e-06
1.0003e-06
1.00017e-06
9.99983e-07
1.00003e-06
1.00011e-06
1.00023e-06
1.00032e-06
1.00034e-06
1.00029e-06
1.00017e-06
1.00001e-06
)
;
    }
    procBoundary0to4
    {
        type            processor;
        value           nonuniform List<scalar> 
36
(
1.00002e-06
1.00007e-06
1.00015e-06
1.00023e-06
1.00031e-06
1.00035e-06
1.00036e-06
1.00033e-06
1.00026e-06
1.00002e-06
1.00009e-06
1.00018e-06
1.00026e-06
1.00028e-06
1.00023e-06
1.00013e-06
9.99986e-07
9.99735e-07
1.00002e-06
1.0001e-06
1.00021e-06
1.00029e-06
1.0003e-06
1.00023e-06
1.00011e-06
9.99962e-07
9.99811e-07
1.00002e-06
1.0001e-06
1.00021e-06
1.00029e-06
1.00031e-06
1.00025e-06
1.00014e-06
1e-06
9.99854e-07
)
;
    }
    procBoundary0to6
    {
        type            processor;
        value           uniform 9.9985e-07;
    }
    procBoundary0to7
    {
        type            processor;
        value           uniform 9.99826e-07;
    }
}


// ************************************************************************* //
