/*--------------------------------*- C++ -*----------------------------------*\
| =========                 |                                                 |
| \\      /  F ield         | OpenFOAM: The Open Source CFD Toolbox           |
|  \\    /   O peration     | Version:  4.x                                   |
|   \\  /    A nd           | Web:      www.OpenFOAM.org                      |
|    \\/     M anipulation  |                                                 |
\*---------------------------------------------------------------------------*/
FoamFile
{
    version     2.0;
    format      ascii;
    class       volScalarField;
    location    "4";
    object      pSmooth;
}
// * * * * * * * * * * * * * * * * * * * * * * * * * * * * * * * * * * * * * //

dimensions      [1 -1 -2 0 0 0 0];

internalField   nonuniform List<scalar> 
132
(
193.662
177.565
189.882
158.051
179.235
130.985
162.699
98.3115
142.557
194.197
177.866
190.903
159.045
180.434
131.101
162.737
96.4805
140.578
195.036
178.962
192.033
159.908
179.169
130.405
159.921
95.7728
137.119
195.618
179.438
192.447
194.199
175.855
187.038
153.958
174.969
126.239
158.47
94.2205
139.202
195.436
176.769
188.375
154.64
175.714
126.076
157.799
93.164
137.411
196.318
177.667
189.001
155.539
174.912
126.33
156.323
92.4129
135.957
197.106
178.425
189.862
157.12
176.085
194.815
175.14
185.637
151.988
172.668
124.24
156.159
92.529
138.023
196.109
176.151
187.18
152.906
173.968
124.604
157.157
92.1867
142.716
196.951
176.9
187.574
153.757
173.499
125.429
155.792
92.8406
136.115
197.272
177.142
188.126
154.213
174.448
125.934
157.296
195.263
174.833
184.84
150.454
171.242
122.07
154.282
89.8647
135.704
196.76
175.92
186.697
151.447
173.07
122.885
155.724
90.0405
137.257
197.219
176.6
186.975
152.724
172.739
123.965
155.666
91.4324
136.296
197.88
177.134
187.758
153.282
173.789
125.198
156.302
92.5078
136.646
)
;

boundaryField
{
    inlet
    {
        type            zeroGradient;
    }
    outlet
    {
        type            fixedValue;
        value           nonuniform 0();
    }
    wall
    {
        type            zeroGradient;
    }
    procBoundary0to1
    {
        type            processor;
        value           nonuniform List<scalar> 
12
(
61.9985
57.3975
57.7437
58.8646
58.2692
57.2089
58.2511
55.7477
58.7919
54.8519
54.4503
56.7271
)
;
    }
    procBoundary0to2
    {
        type            processor;
        value           nonuniform List<scalar> 
44
(
160.751
179.8
131.751
160.571
97.6815
139.755
194.962
178.449
160.751
191.884
160.751
179.8
129.017
157.811
96.8071
138.733
196.078
177.259
188.87
155.302
129.017
175.303
129.017
157.811
93.9385
138.804
196.684
176.4
187.448
153.573
173.791
125.579
93.9385
156.446
93.9385
138.804
197.554
176.667
187.043
152.669
173.021
124.553
155.729
91.8745
)
;
    }
    procBoundary0to4
    {
        type            processor;
        value           nonuniform List<scalar> 
36
(
195.516
174.604
184.443
150.514
170.576
122.666
154.057
91.549
136.337
197.039
176.043
186.41
152.252
171.913
125.263
155.801
96.402
144.202
197.693
176.47
186.461
152.553
171.903
124.421
155.276
93.1433
136.43
197.874
176.854
187.129
153.153
172.932
125.912
156.022
94.8867
139.002
)
;
    }
    procBoundary0to6
    {
        type            processor;
        value           uniform 135.778;
    }
    procBoundary0to7
    {
        type            processor;
        value           uniform 58.0681;
    }
}


// ************************************************************************* //
