/*--------------------------------*- C++ -*----------------------------------*\
| =========                 |                                                 |
| \\      /  F ield         | OpenFOAM: The Open Source CFD Toolbox           |
|  \\    /   O peration     | Version:  4.x                                   |
|   \\  /    A nd           | Web:      www.OpenFOAM.org                      |
|    \\/     M anipulation  |                                                 |
\*---------------------------------------------------------------------------*/
FoamFile
{
    version     2.0;
    format      ascii;
    class       volScalarField;
    location    "4";
    object      rho;
}
// * * * * * * * * * * * * * * * * * * * * * * * * * * * * * * * * * * * * * //

dimensions      [1 -3 0 0 0 0 0];

internalField   nonuniform List<scalar> 
132
(
6698.87
6696.43
6693.05
6689.85
6687.58
6686.61
6686.86
6687.84
6689.56
6699.02
6696.59
6693.04
6689.63
6687.63
6687.49
6688.9
6691.44
6695.22
6699.04
6696.23
6692.24
6688.96
6688.18
6689.6
6691.95
6694.85
6698.3
6699.09
6696.26
6692.29
6699.44
6697.95
6695.69
6693.42
6691.73
6691.07
6691.21
6692.01
6693.27
6699.48
6697.87
6695.56
6693.66
6692.86
6693.56
6695.03
6697.17
6699.72
6699.49
6697.6
6695.03
6693.47
6693.5
6695.05
6697.01
6699.09
6701.12
6699.5
6697.54
6694.88
6693.37
6693.18
6699.68
6698.77
6697.32
6695.85
6694.68
6694.14
6694.11
6694.51
6695.52
6699.68
6698.66
6697.2
6696.04
6695.59
6696.14
6697.17
6698.69
6700.47
6699.7
6698.55
6696.97
6696
6695.95
6696.83
6698.24
6699.91
6701.44
6699.7
6698.56
6696.93
6695.91
6695.87
6696.64
6697.71
6699.82
6699.33
6698.5
6697.64
6696.89
6696.48
6696.35
6696.48
6696.85
6699.81
6699.23
6698.36
6697.67
6697.38
6697.76
6698.48
6699.54
6700.81
6699.8
6699.11
6698.1
6697.5
6697.46
6698
6698.94
6700.21
6701.37
6699.79
6699.03
6697.95
6697.24
6697.22
6697.62
6698.32
6699.29
6700.39
)
;

boundaryField
{
    inlet
    {
        type            calculated;
        value           uniform 6700;
    }
    outlet
    {
        type            calculated;
        value           nonuniform 0();
    }
    wall
    {
        type            calculated;
        value           nonuniform List<scalar> 
66
(
6698.87
6699.02
6699.04
6699.09
6696.43
6696.59
6696.23
6696.26
6693.05
6693.04
6692.24
6692.29
6689.85
6689.63
6688.96
6687.58
6687.63
6688.18
6686.61
6687.49
6689.6
6686.86
6688.9
6691.95
6687.84
6691.44
6694.85
6689.56
6695.22
6698.3
6698.87
6699.44
6699.68
6699.82
6696.43
6697.95
6698.77
6699.33
6693.05
6695.69
6697.32
6698.5
6689.85
6693.42
6695.85
6697.64
6687.58
6691.73
6694.68
6696.89
6686.61
6691.07
6694.14
6696.48
6686.86
6691.21
6694.11
6696.35
6687.84
6692.01
6694.51
6696.48
6689.56
6693.27
6695.52
6696.85
)
;
    }
    procBoundary0to1
    {
        type            processor;
        value           nonuniform List<scalar> 
12
(
6691.41
6698.17
6701.02
6694.88
6701.71
6702.95
6696.31
6702.33
6703.02
6697.24
6702.01
6702.45
)
;
    }
    procBoundary0to2
    {
        type            processor;
        value           nonuniform List<scalar> 
44
(
6689.19
6688.5
6690.12
6692.71
6695.66
6698.73
6699.04
6696.32
6689.19
6692.28
6689.19
6688.5
6694.5
6696.32
6698.27
6700.62
6699.51
6697.74
6695.15
6693.37
6694.5
6693.09
6694.5
6696.32
6698.87
6700.12
6699.72
6698.71
6697.17
6696.11
6695.98
6696.84
6698.87
6698.02
6698.87
6700.12
6699.83
6699.29
6698.47
6697.88
6697.74
6698.06
6698.85
6699.96
)
;
    }
    procBoundary0to4
    {
        type            processor;
        value           nonuniform List<scalar> 
36
(
6699.87
6699.53
6698.98
6698.43
6697.95
6697.69
6697.6
6697.77
6698.27
6699.86
6699.42
6698.78
6698.27
6698.1
6698.44
6699.16
6700.09
6701.78
6699.85
6699.35
6698.61
6698.07
6698.02
6698.48
6699.27
6700.26
6701.27
6699.85
6699.36
6698.61
6698.06
6697.93
6698.33
6699.03
6699.97
6700.98
)
;
    }
    procBoundary0to6
    {
        type            processor;
        value           uniform 6701.01;
    }
    procBoundary0to7
    {
        type            processor;
        value           uniform 6701.16;
    }
}


// ************************************************************************* //
