/*--------------------------------*- C++ -*----------------------------------*\
| =========                 |                                                 |
| \\      /  F ield         | OpenFOAM: The Open Source CFD Toolbox           |
|  \\    /   O peration     | Version:  4.x                                   |
|   \\  /    A nd           | Web:      www.OpenFOAM.org                      |
|    \\/     M anipulation  |                                                 |
\*---------------------------------------------------------------------------*/
FoamFile
{
    version     2.0;
    format      ascii;
    class       volScalarField;
    location    "37";
    object      Cs;
}
// * * * * * * * * * * * * * * * * * * * * * * * * * * * * * * * * * * * * * //

dimensions      [1 -3 0 0 0 0 0];

internalField   nonuniform List<scalar> 
87
(
335
335
335
335
335
334.999
334.999
334.999
335.075
335
335
335
335
335
335
334.999
334.999
334.646
335
335
335
335
334.999
334.999
334.998
334.997
334.912
335
335
335
335
335
335
334.999
334.999
334.65
335
335
335
334.999
334.999
334.998
334.996
334.996
334.772
335
334.999
334.998
334.997
334.994
334.992
334.986
334.986
334.905
335
335
335
335
335
335
334.999
334.998
334.82
335
335
334.999
334.998
334.997
334.995
334.991
334.99
334.811
334.999
334.998
334.996
334.993
334.989
334.984
334.977
334.975
334.891
335
335
335
335
335
335
)
;

boundaryField
{
    inlet
    {
        type            calculated;
        value           nonuniform 0();
    }
    outlet
    {
        type            calculated;
        value           uniform 335;
    }
    wall
    {
        type            calculated;
        value           nonuniform List<scalar> 
57
(
335
335
335
335
335
335
335
335
335
335
335
335
335
335
334.999
334.999
335
334.999
334.999
334.999
334.998
334.999
334.999
334.997
335.075
334.646
334.912
335
335
335
335
335
335
335
335
335
335
335
335
335
335
335
335
335
335
334.999
335
335
334.999
334.999
334.999
334.999
334.999
334.998
335.075
334.65
334.82
)
;
    }
    procBoundary1to0
    {
        type            processor;
        value           nonuniform List<scalar> 
12
(
335
335
335
335
335
335
335
335
335
335
335
335
)
;
    }
    procBoundary1to3
    {
        type            processor;
        value           nonuniform List<scalar> 
27
(
335
335
335
335
334.999
334.999
334.998
334.997
335.013
335
335
334.999
334.998
334.996
334.993
334.987
334.986
334.856
334.999
334.998
334.995
334.99
334.983
334.976
334.965
334.964
334.899
)
;
    }
    procBoundary1to5
    {
        type            processor;
        value           nonuniform List<scalar> 
32
(
335
335
334.999
334.999
334.997
334.982
334.999
334.999
334.998
334.996
334.992
334.988
334.945
334.999
334.998
334.996
334.993
334.988
334.982
334.975
334.879
335
335
335
334.999
335
335
334.999
334.999
335
334.999
335
)
;
    }
    procBoundary1to7
    {
        type            processor;
        value           uniform 335;
    }
}


// ************************************************************************* //
