/*--------------------------------*- C++ -*----------------------------------*\
| =========                 |                                                 |
| \\      /  F ield         | OpenFOAM: The Open Source CFD Toolbox           |
|  \\    /   O peration     | Version:  4.x                                   |
|   \\  /    A nd           | Web:      www.OpenFOAM.org                      |
|    \\/     M anipulation  |                                                 |
\*---------------------------------------------------------------------------*/
FoamFile
{
    version     2.0;
    format      ascii;
    class       volScalarField;
    location    "2";
    object      Cs;
}
// * * * * * * * * * * * * * * * * * * * * * * * * * * * * * * * * * * * * * //

dimensions      [1 -3 0 0 0 0 0];

internalField   nonuniform List<scalar> 
132
(
335.108
335.125
335.158
335.192
335.234
335.249
335.208
335.123
335.862
335.11
335.151
335.197
335.25
335.269
335.235
335.165
335.13
335.129
335.108
335.146
335.2
335.245
335.255
335.233
335.21
335.151
335.139
334.944
334.981
335.009
335.04
335.064
335.078
335.096
335.096
338.259
335.202
335.238
335.226
335.171
335.129
335.078
335.089
335.157
335.205
335.24
335.231
335.188
335.137
335.095
335.069
335.008
335.106
335.155
335.207
335.218
335.215
335.177
335.156
335.114
335.055
334.963
334.992
335.013
335.036
335.053
335.062
335.064
335.066
335.193
335.214
335.182
335.13
335.097
335.057
335.136
335.179
335.218
335.21
335.19
335.161
335.113
335.072
335.002
335.129
335.116
335.115
335.127
335.132
335.128
335.124
335.102
335.029
334.964
334.987
334.998
335.009
335.018
335.027
335.039
335.062
335.067
335.065
335.066
336.248
335.002
335.019
335.037
335.054
335.074
335.114
335.158
335.143
335.174
334.943
334.96
334.971
334.991
335.015
335.045
335.085
335.096
335.116
334.931
334.948
334.954
334.957
334.963
334.972
334.982
334.992
335.695
)
;

boundaryField
{
    inlet
    {
        type            calculated;
        value           nonuniform 0();
    }
    outlet
    {
        type            calculated;
        value           uniform 335;
    }
    wall
    {
        type            calculated;
        value           nonuniform List<scalar> 
66
(
335.002
334.943
334.931
335.019
334.96
334.948
335.037
334.971
334.954
335.054
334.991
334.957
335.074
335.015
334.963
335.114
335.045
334.972
335.065
335.158
335.085
334.982
335.066
335.143
335.096
334.992
336.248
335.174
335.116
335.695
334.944
334.963
334.964
334.931
334.981
334.992
334.987
334.948
335.009
335.013
334.998
334.954
335.04
335.036
335.009
334.957
335.064
335.053
335.018
334.963
335.078
335.062
335.027
334.972
335.096
335.064
335.039
334.982
335.096
335.066
335.062
334.992
338.259
335.193
335.067
335.695
)
;
    }
    procBoundary7to0
    {
        type            processor;
        value           uniform 335.082;
    }
    procBoundary7to1
    {
        type            processor;
        value           uniform 335.184;
    }
    procBoundary7to3
    {
        type            processor;
        value           nonuniform List<scalar> 
36
(
335.091
335.153
335.226
335.276
335.297
335.266
335.212
335.176
335.385
335.144
335.197
335.247
335.288
335.306
335.272
335.213
335.171
335.182
335.128
335.185
335.234
335.267
335.29
335.276
335.24
335.179
335.205
334.927
334.979
335.021
335.06
335.087
335.102
335.128
335.133
335.753
)
;
    }
    procBoundary7to5
    {
        type            processor;
        value           nonuniform List<scalar> 
44
(
335.226
335.255
335.252
335.22
335.166
335.136
335.121
335.067
335.112
335.147
335.243
335.241
335.215
335.17
335.125
335.106
335.045
335.112
335.147
335.147
335.192
335.218
335.211
335.184
335.147
335.112
335.055
335.091
335.146
335.192
335.218
335.218
335.042
335.052
335.057
335.068
335.198
334.968
334.991
335.009
335.024
335.042
335.052
335.052
)
;
    }
    procBoundary7to6
    {
        type            processor;
        value           nonuniform List<scalar> 
12
(
335.089
335.087
334.912
335.113
335.076
334.936
335.102
335.12
334.939
334.96
334.908
334.906
)
;
    }
}


// ************************************************************************* //
