/*--------------------------------*- C++ -*----------------------------------*\
| =========                 |                                                 |
| \\      /  F ield         | OpenFOAM: The Open Source CFD Toolbox           |
|  \\    /   O peration     | Version:  4.x                                   |
|   \\  /    A nd           | Web:      www.OpenFOAM.org                      |
|    \\/     M anipulation  |                                                 |
\*---------------------------------------------------------------------------*/
FoamFile
{
    version     2.0;
    format      ascii;
    class       volScalarField;
    location    "2";
    object      Deff;
}
// * * * * * * * * * * * * * * * * * * * * * * * * * * * * * * * * * * * * * //

dimensions      [0 2 -1 0 0 0 0];

internalField   nonuniform List<scalar> 
132
(
9.78995e-08
9.78728e-08
9.78987e-08
9.78101e-08
9.7615e-08
9.75851e-08
9.76227e-08
9.77426e-08
9.7646e-08
9.7987e-08
9.78205e-08
9.78628e-08
9.78554e-08
9.77119e-08
9.7745e-08
9.76695e-08
9.77091e-08
9.76593e-08
9.81711e-08
9.79641e-08
9.79558e-08
9.78964e-08
9.77794e-08
9.76893e-08
9.76743e-08
9.77152e-08
9.76948e-08
9.82891e-08
9.8063e-08
9.79352e-08
9.80041e-08
9.78645e-08
9.78077e-08
9.77304e-08
9.78421e-08
9.79755e-08
9.77837e-08
9.76864e-08
9.76521e-08
9.75933e-08
9.75061e-08
9.75314e-08
9.76006e-08
9.80013e-08
9.77605e-08
9.77333e-08
9.76995e-08
9.75865e-08
9.76146e-08
9.75962e-08
9.75588e-08
9.76459e-08
9.80287e-08
9.77942e-08
9.78034e-08
9.77994e-08
9.76444e-08
9.75515e-08
9.75018e-08
9.75946e-08
9.7609e-08
9.81196e-08
9.78671e-08
9.78775e-08
9.78029e-08
9.77222e-08
9.7721e-08
9.76542e-08
9.76596e-08
9.78468e-08
9.76511e-08
9.7627e-08
9.75541e-08
9.75978e-08
9.76536e-08
9.78518e-08
9.77577e-08
9.77122e-08
9.77391e-08
9.7572e-08
9.76126e-08
9.75647e-08
9.75129e-08
9.75876e-08
9.79324e-08
9.78135e-08
9.7751e-08
9.77284e-08
9.76011e-08
9.7595e-08
9.75618e-08
9.7597e-08
9.76108e-08
9.80927e-08
9.79198e-08
9.78198e-08
9.77809e-08
9.77544e-08
9.77586e-08
9.76301e-08
9.76828e-08
9.78307e-08
9.76789e-08
9.76693e-08
9.77152e-08
9.79293e-08
9.78775e-08
9.77154e-08
9.76924e-08
9.77311e-08
9.77981e-08
9.76589e-08
9.76576e-08
9.77464e-08
9.79903e-08
9.7914e-08
9.78463e-08
9.77907e-08
9.77113e-08
9.77137e-08
9.76427e-08
9.76925e-08
9.77183e-08
9.80451e-08
9.79021e-08
9.79177e-08
9.78665e-08
9.77747e-08
9.77487e-08
9.77135e-08
9.77881e-08
9.79856e-08
)
;

boundaryField
{
    inlet
    {
        type            calculated;
        value           nonuniform 0();
    }
    outlet
    {
        type            calculated;
        value           uniform 0;
    }
    wall
    {
        type            calculated;
        value           uniform 0;
    }
    procBoundary7to0
    {
        type            processor;
        value           uniform 0;
    }
    procBoundary7to1
    {
        type            processor;
        value           uniform 0;
    }
    procBoundary7to3
    {
        type            processor;
        value           uniform 0;
    }
    procBoundary7to5
    {
        type            processor;
        value           uniform 0;
    }
    procBoundary7to6
    {
        type            processor;
        value           uniform 0;
    }
}


// ************************************************************************* //
