/*--------------------------------*- C++ -*----------------------------------*\
| =========                 |                                                 |
| \\      /  F ield         | OpenFOAM: The Open Source CFD Toolbox           |
|  \\    /   O peration     | Version:  4.x                                   |
|   \\  /    A nd           | Web:      www.OpenFOAM.org                      |
|    \\/     M anipulation  |                                                 |
\*---------------------------------------------------------------------------*/
FoamFile
{
    version     2.0;
    format      ascii;
    class       volScalarField;
    location    "2";
    object      nu;
}
// * * * * * * * * * * * * * * * * * * * * * * * * * * * * * * * * * * * * * //

dimensions      [0 2 -1 0 0 0 0];

internalField   nonuniform List<scalar> 
132
(
9.99677e-07
9.99626e-07
9.99529e-07
9.99429e-07
9.99303e-07
9.99258e-07
9.99379e-07
9.99634e-07
9.97433e-07
9.99672e-07
9.9955e-07
9.99412e-07
9.99255e-07
9.99198e-07
9.993e-07
9.99508e-07
9.99611e-07
9.99616e-07
9.99678e-07
9.99565e-07
9.99403e-07
9.99269e-07
9.9924e-07
9.99306e-07
9.99372e-07
9.9955e-07
9.99584e-07
1.00017e-06
1.00006e-06
9.99973e-07
9.99881e-07
9.99809e-07
9.99766e-07
9.99713e-07
9.99713e-07
9.90366e-07
9.99398e-07
9.9929e-07
9.99325e-07
9.9949e-07
9.99615e-07
9.99766e-07
9.99735e-07
9.99532e-07
9.99388e-07
9.99283e-07
9.9931e-07
9.9944e-07
9.99591e-07
9.99717e-07
9.99794e-07
9.99976e-07
9.99684e-07
9.99537e-07
9.99383e-07
9.99351e-07
9.99359e-07
9.99472e-07
9.99534e-07
9.99661e-07
9.99836e-07
1.00011e-06
1.00002e-06
9.9996e-07
9.99894e-07
9.99843e-07
9.99815e-07
9.99809e-07
9.99802e-07
9.99423e-07
9.99363e-07
9.99456e-07
9.99612e-07
9.99709e-07
9.99831e-07
9.99596e-07
9.99465e-07
9.99351e-07
9.99373e-07
9.99433e-07
9.99519e-07
9.99662e-07
9.99784e-07
9.99993e-07
9.99614e-07
9.99653e-07
9.99658e-07
9.99621e-07
9.99606e-07
9.99619e-07
9.99629e-07
9.99696e-07
9.99914e-07
1.00011e-06
1.00004e-06
1.00001e-06
9.99974e-07
9.99946e-07
9.99919e-07
9.99883e-07
9.99814e-07
9.99799e-07
9.99807e-07
9.99802e-07
9.96289e-07
9.99995e-07
9.99942e-07
9.9989e-07
9.99838e-07
9.99778e-07
9.99659e-07
9.9953e-07
9.99572e-07
9.9948e-07
1.00017e-06
1.00012e-06
1.00009e-06
1.00003e-06
9.99954e-07
9.99867e-07
9.99745e-07
9.99714e-07
9.99653e-07
1.00021e-06
1.00015e-06
1.00014e-06
1.00013e-06
1.00011e-06
1.00008e-06
1.00005e-06
1.00002e-06
9.9793e-07
)
;

boundaryField
{
    inlet
    {
        type            calculated;
        value           nonuniform 0();
    }
    outlet
    {
        type            calculated;
        value           uniform 1e-06;
    }
    wall
    {
        type            calculated;
        value           nonuniform List<scalar> 
66
(
9.99995e-07
1.00017e-06
1.00021e-06
9.99942e-07
1.00012e-06
1.00015e-06
9.9989e-07
1.00009e-06
1.00014e-06
9.99838e-07
1.00003e-06
1.00013e-06
9.99778e-07
9.99954e-07
1.00011e-06
9.99659e-07
9.99867e-07
1.00008e-06
9.99807e-07
9.9953e-07
9.99745e-07
1.00005e-06
9.99802e-07
9.99572e-07
9.99714e-07
1.00002e-06
9.96289e-07
9.9948e-07
9.99653e-07
9.9793e-07
1.00017e-06
1.00011e-06
1.00011e-06
1.00021e-06
1.00006e-06
1.00002e-06
1.00004e-06
1.00015e-06
9.99973e-07
9.9996e-07
1.00001e-06
1.00014e-06
9.99881e-07
9.99894e-07
9.99974e-07
1.00013e-06
9.99809e-07
9.99843e-07
9.99946e-07
1.00011e-06
9.99766e-07
9.99815e-07
9.99919e-07
1.00008e-06
9.99713e-07
9.99809e-07
9.99883e-07
1.00005e-06
9.99713e-07
9.99802e-07
9.99814e-07
1.00002e-06
9.90366e-07
9.99423e-07
9.99799e-07
9.9793e-07
)
;
    }
    procBoundary7to0
    {
        type            processor;
        value           uniform 9.99756e-07;
    }
    procBoundary7to1
    {
        type            processor;
        value           uniform 9.99452e-07;
    }
    procBoundary7to3
    {
        type            processor;
        value           nonuniform List<scalar> 
36
(
9.99727e-07
9.99543e-07
9.99325e-07
9.99176e-07
9.99115e-07
9.99208e-07
9.99367e-07
9.99474e-07
9.98853e-07
9.99571e-07
9.99412e-07
9.99263e-07
9.9914e-07
9.99087e-07
9.99189e-07
9.99364e-07
9.99489e-07
9.99458e-07
9.99618e-07
9.99449e-07
9.99302e-07
9.99204e-07
9.99134e-07
9.99176e-07
9.99284e-07
9.99465e-07
9.99389e-07
1.00022e-06
1.00006e-06
9.99936e-07
9.99821e-07
9.99741e-07
9.99695e-07
9.99619e-07
9.99603e-07
9.97757e-07
)
;
    }
    procBoundary7to5
    {
        type            processor;
        value           nonuniform List<scalar> 
44
(
9.99325e-07
9.99239e-07
9.99249e-07
9.99344e-07
9.99505e-07
9.99595e-07
9.99638e-07
9.99801e-07
9.99666e-07
9.99561e-07
9.99276e-07
9.9928e-07
9.99358e-07
9.99491e-07
9.99626e-07
9.99684e-07
9.99867e-07
9.99666e-07
9.99561e-07
9.99561e-07
9.99428e-07
9.9935e-07
9.99371e-07
9.99452e-07
9.99561e-07
9.99665e-07
9.99835e-07
9.99728e-07
9.99566e-07
9.99428e-07
9.9935e-07
9.9935e-07
9.99875e-07
9.99845e-07
9.9983e-07
9.99798e-07
9.9941e-07
1.00009e-06
1.00003e-06
9.99974e-07
9.99929e-07
9.99875e-07
9.99845e-07
9.99845e-07
)
;
    }
    procBoundary7to6
    {
        type            processor;
        value           nonuniform List<scalar> 
12
(
9.99735e-07
9.99742e-07
1.00026e-06
9.99664e-07
9.99772e-07
1.00019e-06
9.99696e-07
9.99643e-07
1.00018e-06
1.00012e-06
1.00027e-06
1.00028e-06
)
;
    }
}


// ************************************************************************* //
