/*--------------------------------*- C++ -*----------------------------------*\
| =========                 |                                                 |
| \\      /  F ield         | OpenFOAM: The Open Source CFD Toolbox           |
|  \\    /   O peration     | Version:  4.x                                   |
|   \\  /    A nd           | Web:      www.OpenFOAM.org                      |
|    \\/     M anipulation  |                                                 |
\*---------------------------------------------------------------------------*/
FoamFile
{
    version     2.0;
    format      ascii;
    class       volScalarField;
    location    "2";
    object      partTemp;
}
// * * * * * * * * * * * * * * * * * * * * * * * * * * * * * * * * * * * * * //

dimensions      [0 0 0 1 0 0 0];

internalField   nonuniform List<scalar> 
132
(
300.003
300.005
300.005
300.003
299.999
299.992
299.985
299.979
299.974
300.003
300.004
300.005
300.004
300
299.995
299.989
299.982
299.977
300.001
300.003
300.004
300.003
300.001
299.997
299.992
299.987
299.983
300.001
300.002
300.003
300.002
300.001
299.998
299.995
299.992
299.989
300.004
300.003
299.999
299.994
299.988
299.981
299.977
300.002
300.003
300.004
300.003
300
299.995
299.989
299.983
299.979
300.001
300.002
300.003
300.002
300.001
299.997
299.993
299.987
299.985
300
300.001
300.002
300.002
300.001
299.999
299.996
299.992
299.991
300
299.996
299.991
299.987
299.981
300
300.002
300.002
300.002
300
299.996
299.991
299.987
299.984
300
300.001
300.002
300.002
300
299.997
299.994
299.991
299.988
300
300.001
300.001
300.001
300.001
299.999
299.997
299.994
299.993
299.994
299.99
299.988
299.999
300.001
300.002
300.001
300
299.997
299.995
299.991
299.989
299.999
300
300.001
300.001
300
299.998
299.996
299.994
299.992
299.999
300
300.001
300.001
300
299.999
299.998
299.996
299.996
)
;

boundaryField
{
    inlet
    {
        type            zeroGradient;
    }
    outlet
    {
        type            zeroGradient;
    }
    wall
    {
        type            zeroGradient;
    }
    procBoundary7to0
    {
        type            processor;
        value           uniform 300.002;
    }
    procBoundary7to1
    {
        type            processor;
        value           uniform 300.003;
    }
    procBoundary7to3
    {
        type            processor;
        value           nonuniform List<scalar> 
36
(
300.004
300.006
300.005
300.002
299.997
299.992
299.985
299.978
299.976
300.003
300.005
300.005
300.003
299.999
299.993
299.986
299.981
299.978
300.002
300.003
300.004
300.003
300
299.995
299.991
299.986
299.983
300.001
300.002
300.003
300.002
300
299.998
299.994
299.991
299.988
)
;
    }
    procBoundary7to5
    {
        type            processor;
        value           nonuniform List<scalar> 
44
(
300.005
300.005
300.002
299.999
299.995
299.988
299.982
299.977
300.002
300.004
300.004
300.002
299.999
299.995
299.989
299.983
299.98
300.002
300.004
300.004
300.003
300.002
300
299.996
299.992
299.988
299.985
300.001
300.002
300.003
300.002
300.002
300
299.997
299.995
299.992
299.99
300
300.001
300.002
300.001
300
299.997
299.997
)
;
    }
    procBoundary7to6
    {
        type            processor;
        value           nonuniform List<scalar> 
12
(
300
300
299.999
299.999
299.999
299.999
299.998
299.998
299.998
299.998
299.998
299.998
)
;
    }
}


// ************************************************************************* //
