/*--------------------------------*- C++ -*----------------------------------*\
| =========                 |                                                 |
| \\      /  F ield         | OpenFOAM: The Open Source CFD Toolbox           |
|  \\    /   O peration     | Version:  4.x                                   |
|   \\  /    A nd           | Web:      www.OpenFOAM.org                      |
|    \\/     M anipulation  |                                                 |
\*---------------------------------------------------------------------------*/
FoamFile
{
    version     2.0;
    format      ascii;
    class       volScalarField;
    location    "2";
    object      QWallFluidCoeff;
}
// * * * * * * * * * * * * * * * * * * * * * * * * * * * * * * * * * * * * * //

dimensions      [1 -1 -3 -1 0 0 0];

internalField   nonuniform List<scalar> 
132
(
0
0
0
0
0
0
0
0
0
0
0
0
0
0
0
0
0
0
0
0
0
0
0
0
0
0
0
-2.96929e+06
-4.09627e+06
-3.30382e+06
-4.50195e+06
-3.64086e+06
-5.19472e+06
-4.01534e+06
-7.20507e+06
-4.75268e+06
0
0
0
0
0
0
0
0
0
0
0
0
0
0
0
0
0
0
0
0
0
0
0
0
0
-3.09389e+06
-4.1051e+06
-3.51791e+06
-4.46674e+06
-3.72953e+06
-4.91367e+06
-4.25844e+06
-5.44347e+06
-4.5345e+06
0
0
0
0
0
0
0
0
0
0
0
0
0
0
0
0
0
0
0
0
0
0
0
-3.07869e+06
-4.18959e+06
-3.51856e+06
-4.45096e+06
-3.75493e+06
-4.74229e+06
-3.72207e+06
-4.79506e+06
-1.4989e+06
-3.86248e+06
-5.83916e+06
-3.2092e+06
-1.28411e+06
-3.2582e+06
-13949.1
-3.05207e+06
-2.87003e+06
-2.73322e+06
-2.99523e+06
-2.80839e+06
-3.08822e+06
-2.2014e+06
-3.53014e+06
-2.37509e+06
-3.4858e+06
-1.2955e+06
-3.28148e+06
-506263
-3.33271e+06
-1.57508e+06
-7.39879e+06
-9.39629e+06
-8.68788e+06
-1.04234e+07
-9.94126e+06
-1.15315e+07
-1.09989e+07
-1.28579e+07
-1.02326e+07
)
;

boundaryField
{
    inlet
    {
        type            calculated;
        value           nonuniform 0();
    }
    outlet
    {
        type            calculated;
        value           uniform 0;
    }
    wall
    {
        type            calculated;
        value           uniform 0;
    }
    procBoundary7to0
    {
        type            processor;
        value           uniform 0;
    }
    procBoundary7to1
    {
        type            processor;
        value           uniform 0;
    }
    procBoundary7to3
    {
        type            processor;
        value           uniform 0;
    }
    procBoundary7to5
    {
        type            processor;
        value           uniform 0;
    }
    procBoundary7to6
    {
        type            processor;
        value           uniform 0;
    }
}


// ************************************************************************* //
