/*--------------------------------*- C++ -*----------------------------------*\
| =========                 |                                                 |
| \\      /  F ield         | OpenFOAM: The Open Source CFD Toolbox           |
|  \\    /   O peration     | Version:  4.x                                   |
|   \\  /    A nd           | Web:      www.OpenFOAM.org                      |
|    \\/     M anipulation  |                                                 |
\*---------------------------------------------------------------------------*/
FoamFile
{
    version     2.0;
    format      ascii;
    class       volVectorField;
    location    "2";
    object      UsPrev;
}
// * * * * * * * * * * * * * * * * * * * * * * * * * * * * * * * * * * * * * //

dimensions      [0 1 -1 0 0 0 0];

internalField   nonuniform List<vector> 
132
(
(0.000160288 -7.10348e-06 -0.000107697)
(0.000165133 -2.1411e-05 -0.000117243)
(0.000146749 -2.28389e-05 -0.000117413)
(0.00013225 -1.66774e-05 -0.000106454)
(0.000105965 -2.4998e-05 -8.59881e-05)
(7.37348e-05 -2.34849e-05 -7.07089e-05)
(5.26419e-05 -1.11336e-05 -3.92931e-05)
(3.20836e-05 -8.03571e-06 -1.8842e-05)
(1.1341e-05 -6.17218e-06 -3.37965e-06)
(0.00015895 -1.90921e-05 -9.40545e-05)
(0.000164978 -2.5286e-05 -0.000111927)
(0.000144381 -2.21641e-05 -0.000101027)
(0.000135493 -1.54314e-05 -9.96145e-05)
(9.34308e-05 -1.86758e-05 -7.90986e-05)
(7.05185e-05 -1.36489e-05 -6.37577e-05)
(5.13931e-05 -7.26552e-06 -3.99622e-05)
(3.48987e-05 -4.09018e-06 -1.4275e-05)
(1.56801e-05 -3.92538e-06 -2.84068e-06)
(0.000135261 -2.13272e-05 -6.76095e-05)
(0.000136367 -2.19757e-05 -8.62089e-05)
(0.000114242 -1.54533e-05 -8.3155e-05)
(9.70483e-05 -8.15433e-06 -7.4942e-05)
(7.0153e-05 -1.48709e-05 -6.87572e-05)
(4.86572e-05 -9.80067e-06 -4.54153e-05)
(4.13999e-05 -3.29972e-06 -2.18008e-05)
(2.55803e-05 1.07128e-06 -1.23817e-05)
(1.73759e-05 4.17012e-06 -1.71767e-06)
(9.58176e-05 -4.67258e-05 -3.01408e-05)
(7.38233e-05 -1.18238e-05 -2.31691e-05)
(6.08596e-05 1.30996e-06 -3.44653e-05)
(4.72279e-05 3.82976e-06 -2.97824e-05)
(3.63737e-05 -7.72257e-06 -3.11679e-05)
(2.19319e-05 -9.31589e-06 -2.59834e-05)
(1.69694e-05 -1.97169e-06 -1.38284e-05)
(1.04788e-05 1.49699e-06 -2.16175e-06)
(6.51535e-06 1.6962e-06 1.32323e-06)
(0.000113157 -9.13415e-06 -7.98939e-05)
(8.95468e-05 -7.95587e-06 -7.28964e-05)
(5.41265e-05 -1.11907e-05 -4.78346e-05)
(4.69906e-05 -9.65412e-06 -4.12591e-05)
(3.39528e-05 -7.22292e-06 -2.61545e-05)
(2.06211e-05 -5.06573e-06 -1.38687e-05)
(6.72511e-06 -3.61137e-06 -2.88118e-06)
(0.000132929 -1.96234e-05 -6.67924e-05)
(0.000123183 -2.11856e-05 -7.82971e-05)
(0.000109786 -2.18048e-05 -7.68766e-05)
(9.47084e-05 -1.21245e-05 -6.22322e-05)
(7.26162e-05 -1.24817e-05 -4.33824e-05)
(3.58556e-05 -1.23812e-05 -4.16339e-05)
(2.60584e-05 -1.00591e-05 -2.38207e-05)
(1.84771e-05 -3.47494e-06 -1.1837e-05)
(7.35425e-06 -1.9737e-06 -3.1352e-06)
(0.000121429 -1.37537e-05 -5.41363e-05)
(0.000103565 -3.0943e-05 -6.15525e-05)
(9.03169e-05 -1.67469e-05 -5.72162e-05)
(7.0489e-05 -1.27643e-05 -5.1388e-05)
(5.35813e-05 -6.90457e-06 -3.56044e-05)
(2.60428e-05 -1.10142e-05 -3.06505e-05)
(2.10216e-05 -7.68513e-06 -1.99196e-05)
(1.26562e-05 -1.08229e-06 -6.92054e-06)
(1.79873e-05 6.62549e-06 -1.03456e-06)
(6.82343e-05 -2.40935e-05 -1.92995e-05)
(6.61006e-05 -1.45865e-05 -1.64057e-05)
(6.37464e-05 -6.06837e-06 -3.3541e-05)
(3.77448e-05 -2.42989e-06 -2.6861e-05)
(2.47911e-05 -2.84408e-06 -1.9969e-05)
(1.26648e-05 -4.6333e-06 -1.8289e-05)
(4.80106e-06 -4.83522e-06 -1.15746e-05)
(4.44832e-06 -4.97075e-07 -2.24725e-06)
(7.05357e-06 3.82767e-06 4.86091e-07)
(3.63042e-05 -6.43314e-06 -2.59997e-05)
(2.41949e-05 -5.42173e-06 -1.92084e-05)
(1.52017e-05 -5.18991e-06 -1.39783e-05)
(9.39742e-06 -3.5172e-06 -6.79709e-06)
(3.91161e-06 -1.00817e-06 -1.3736e-06)
(9.50064e-05 -1.042e-05 -3.59467e-05)
(0.000100259 -1.91353e-05 -5.67983e-05)
(8.45661e-05 -2.76143e-05 -5.81743e-05)
(4.71286e-05 -1.00425e-05 -4.15913e-05)
(3.60276e-05 -4.33157e-06 -2.37532e-05)
(2.29671e-05 -7.66076e-06 -2.18503e-05)
(1.46067e-05 -6.92254e-06 -1.51793e-05)
(8.96288e-06 -4.0968e-06 -7.90003e-06)
(3.50207e-06 -2.77531e-07 -2.47452e-06)
(8.9455e-05 -9.96393e-06 -3.06644e-05)
(5.98377e-05 -1.43234e-05 -2.89504e-05)
(5.55038e-05 -1.45174e-05 -4.31236e-05)
(4.14777e-05 -1.03261e-05 -2.92993e-05)
(2.81482e-05 -3.46193e-06 -1.89098e-05)
(1.99229e-05 -3.84224e-06 -1.91812e-05)
(9.88633e-06 -3.50807e-06 -1.2952e-05)
(4.39235e-06 -2.42771e-06 -3.32253e-06)
(2.02109e-06 -2.35149e-07 -1.09217e-06)
(4.19501e-05 -2.87682e-06 -1.47001e-05)
(4.60339e-05 -2.57324e-06 -1.08649e-05)
(4.38483e-05 -4.31059e-06 -1.59668e-05)
(2.60965e-05 -3.57147e-06 -1.83165e-05)
(1.35439e-05 -5.92703e-07 -1.18914e-05)
(6.09372e-06 -3.81502e-06 -1.0056e-05)
(2.51325e-06 4.34958e-07 -8.2832e-06)
(2.21181e-07 -6.71539e-07 -1.52858e-06)
(2.07886e-07 -1.07453e-07 -1.22821e-07)
(7.52346e-06 -6.01449e-08 -4.54135e-06)
(5.43333e-06 -1.87671e-06 -3.3779e-06)
(8.77263e-07 -7.18406e-07 -3.47942e-07)
(4.71565e-05 1.74304e-06 -1.84696e-05)
(4.79e-05 6.53849e-06 -2.07153e-05)
(4.13744e-05 -2.87977e-06 -1.60819e-05)
(1.94489e-05 7.45104e-07 -1.1816e-05)
(1.57469e-05 -2.45584e-06 -1.16159e-05)
(1.72649e-05 -2.03877e-06 -1.21014e-05)
(8.7498e-06 -1.62363e-06 -3.41244e-06)
(4.31507e-06 -1.03899e-06 -2.97383e-06)
(6.75946e-07 -6.673e-07 -1.02999e-06)
(2.84286e-05 4.85657e-06 -8.67714e-06)
(2.33287e-05 5.30843e-06 -9.40235e-06)
(2.87016e-05 8.54499e-07 -1.39695e-05)
(1.88983e-05 -2.0539e-06 -8.91869e-06)
(1.39136e-05 -2.61842e-06 -1.00902e-05)
(8.97427e-06 -1.18917e-06 -8.73401e-06)
(4.84755e-06 -1.84342e-07 -5.1301e-06)
(1.83974e-06 -5.58887e-07 -1.44969e-06)
(4.40935e-07 -4.4479e-07 -2.33961e-07)
(1.60727e-05 -5.29163e-06 -5.58678e-06)
(1.69171e-05 6.44058e-07 -4.46184e-06)
(2.20537e-05 -1.63545e-06 -4.08254e-06)
(1.25941e-05 -4.30333e-06 -7.82541e-06)
(3.99894e-06 -1.29533e-06 -6.77763e-06)
(3.12276e-06 -3.71672e-07 -5.54411e-06)
(1.24879e-06 6.26685e-08 -3.08586e-06)
(-3.12723e-07 -5.81309e-07 -7.46904e-07)
(-7.46591e-07 2.41407e-08 -2.61608e-08)
)
;

boundaryField
{
    inlet
    {
        type            calculated;
        value           nonuniform 0();
    }
    outlet
    {
        type            calculated;
        value           uniform (0 0 0);
    }
    wall
    {
        type            calculated;
        value           uniform (0 0 0);
    }
    procBoundary7to0
    {
        type            processor;
        value           uniform (0 0 0);
    }
    procBoundary7to1
    {
        type            processor;
        value           uniform (0 0 0);
    }
    procBoundary7to3
    {
        type            processor;
        value           uniform (0 0 0);
    }
    procBoundary7to5
    {
        type            processor;
        value           uniform (0 0 0);
    }
    procBoundary7to6
    {
        type            processor;
        value           uniform (0 0 0);
    }
}


// ************************************************************************* //
