/*--------------------------------*- C++ -*----------------------------------*\
| =========                 |                                                 |
| \\      /  F ield         | OpenFOAM: The Open Source CFD Toolbox           |
|  \\    /   O peration     | Version:  4.x                                   |
|   \\  /    A nd           | Web:      www.OpenFOAM.org                      |
|    \\/     M anipulation  |                                                 |
\*---------------------------------------------------------------------------*/
FoamFile
{
    version     2.0;
    format      ascii;
    class       volVectorField;
    location    "45";
    object      ddtUrel;
}
// * * * * * * * * * * * * * * * * * * * * * * * * * * * * * * * * * * * * * //

dimensions      [0 1 -2 0 0 0 0];

internalField   nonuniform List<vector> 
87
(
(-6.67331e-08 -2.35762e-11 1.40148e-09)
(-1.82787e-07 4.94189e-11 3.90448e-09)
(-6.50185e-08 8.10295e-11 1.48315e-09)
(-2.48809e-08 1.56608e-10 7.02843e-10)
(-9.33091e-09 2.65379e-10 6.16652e-10)
(-1.3803e-09 5.1219e-10 1.00366e-09)
(4.59393e-09 1.06504e-09 2.15164e-09)
(1.5383e-08 2.81341e-09 5.81662e-09)
(2.43008e-08 2.30391e-09 6.13564e-09)
(-3.37498e-08 4.18946e-11 6.78877e-10)
(-5.72958e-08 1.10309e-10 1.20527e-09)
(-3.28773e-08 1.3651e-10 7.67656e-10)
(-1.60266e-08 1.7707e-10 4.66444e-10)
(-6.91309e-09 2.53662e-10 4.37543e-10)
(-1.29192e-09 4.06954e-10 6.97032e-10)
(2.65918e-09 6.22253e-10 1.24995e-09)
(7.49877e-09 1.11804e-09 2.36445e-09)
(9.81448e-09 6.81393e-10 2.20767e-09)
(-1.5639e-08 5.70213e-11 2.54767e-10)
(-2.10584e-08 1.08992e-10 3.99735e-10)
(-1.51273e-08 1.40947e-10 3.31825e-10)
(-8.77567e-09 1.94934e-10 2.23765e-10)
(-4.18041e-09 2.70663e-10 2.05521e-10)
(-8.25061e-10 3.9116e-10 3.26881e-10)
(1.6721e-09 5.0349e-10 5.29085e-10)
(4.5046e-09 6.11389e-10 9.44202e-10)
(5.06889e-09 4.11881e-10 5.92722e-10)
(-3.23075e-08 1.72346e-11 6.86911e-10)
(-5.46271e-08 5.61696e-11 1.20573e-09)
(-3.16485e-08 8.5822e-11 7.66381e-10)
(-1.5518e-08 1.29844e-10 4.88926e-10)
(-6.85282e-09 1.95971e-10 4.75941e-10)
(-1.77847e-09 3.14318e-10 7.41047e-10)
(1.95984e-09 5.55233e-10 1.34532e-09)
(6.07679e-09 9.94249e-10 2.48238e-09)
(8.98175e-09 1.01749e-09 2.76762e-09)
(-1.98118e-08 3.55264e-11 3.92271e-10)
(-2.77295e-08 7.26425e-11 5.90828e-10)
(-1.94323e-08 1.10613e-10 4.63012e-10)
(-1.10184e-08 1.50287e-10 3.38488e-10)
(-5.35639e-09 2.00486e-10 3.42956e-10)
(-1.59626e-09 2.85191e-10 5.40222e-10)
(1.13503e-09 4.01788e-10 9.17725e-10)
(3.64231e-09 6.17511e-10 1.49824e-09)
(5.42401e-09 6.91561e-10 1.69549e-09)
(-1.06188e-08 5.7883e-11 1.43766e-10)
(-1.30936e-08 1.06138e-10 2.26437e-10)
(-1.03593e-08 1.39092e-10 2.12064e-10)
(-6.56975e-09 1.76331e-10 1.57395e-10)
(-3.4404e-09 2.31848e-10 1.51597e-10)
(-1.06639e-09 3.09468e-10 2.55919e-10)
(7.65575e-10 3.95007e-10 4.35925e-10)
(2.26882e-09 4.80916e-10 7.09445e-10)
(3.22116e-09 4.93306e-10 7.08966e-10)
(-1.45714e-08 1.54018e-11 2.90969e-10)
(-1.95715e-08 4.02542e-11 4.37319e-10)
(-1.43163e-08 6.75663e-11 3.78247e-10)
(-8.42237e-09 9.14701e-11 2.98974e-10)
(-4.28977e-09 1.16729e-10 3.13283e-10)
(-1.45305e-09 1.51548e-10 4.79624e-10)
(6.12967e-10 2.02139e-10 7.76561e-10)
(2.35041e-09 2.633e-10 1.23935e-09)
(3.41644e-09 3.2038e-10 1.38421e-09)
(-1.03117e-08 2.33927e-11 1.83128e-10)
(-1.27613e-08 5.07946e-11 2.70301e-10)
(-1.01324e-08 8.41089e-11 2.48806e-10)
(-6.5063e-09 1.10005e-10 2.11842e-10)
(-3.53041e-09 1.27653e-10 2.30967e-10)
(-1.30979e-09 1.49655e-10 3.64761e-10)
(3.36028e-10 1.61882e-10 5.80019e-10)
(1.58962e-09 1.97172e-10 8.6505e-10)
(2.47943e-09 2.75484e-10 9.77582e-10)
(-6.31899e-09 3.83565e-11 5.73221e-11)
(-7.30999e-09 7.7385e-11 1.08193e-10)
(-6.1951e-09 1.11771e-10 1.04793e-10)
(-4.27182e-09 1.37557e-10 8.62683e-11)
(-2.42917e-09 1.57981e-10 9.04518e-11)
(-9.23499e-10 1.86365e-10 1.73663e-10)
(2.76682e-10 2.04238e-10 2.96047e-10)
(1.15786e-09 2.58327e-10 4.37551e-10)
(1.78862e-09 3.31324e-10 5.17575e-10)
(-6.6587e-09 7.02457e-12 1.04045e-10)
(-7.97678e-09 2.65871e-11 1.63302e-10)
(-6.55487e-09 4.32378e-11 1.72632e-10)
(-5.17979e-09 6.37665e-12 6.33677e-11)
(-5.96208e-09 3.25195e-11 1.04427e-10)
(-3.54266e-09 6.96245e-12 6.75357e-12)
)
;

boundaryField
{
    inlet
    {
        type            calculated;
        value           nonuniform 0();
    }
    outlet
    {
        type            calculated;
        value           nonuniform List<vector> 9((3.27457e-09 -3.45157e-09 -1.10164e-08) (4.31554e-09 -3.96504e-09 -2.83478e-09) (2.5195e-09 -8.06374e-10 -1.36767e-09) (-7.89191e-10 2.85283e-10 8.31879e-10) (-1.26715e-09 5.30094e-10 1.39288e-09) (-2.28257e-10 6.11142e-11 1.81914e-09) (-9.04811e-10 -5.03466e-10 1.26798e-09) (-3.38542e-10 -2.79615e-10 6.31709e-10) (-9.36492e-11 7.083e-11 1.00267e-09));
    }
    wall
    {
        type            calculated;
        value           nonuniform List<vector> 
57
(
(-5.84703e-08 -1.24878e-09 1.75081e-09)
(-2.07568e-08 4.47026e-10 7.31548e-10)
(-6.84334e-09 -2.05177e-11 2.19524e-10)
(-1.8848e-06 -1.83329e-09 4.10794e-08)
(-6.47642e-08 1.13475e-09 1.47711e-09)
(-1.96261e-08 9.69919e-11 4.92795e-10)
(-3.44985e-08 -7.37127e-10 1.75439e-09)
(-1.40147e-08 6.48555e-10 8.95454e-10)
(-5.41873e-09 1.45471e-10 5.32233e-10)
(-3.77435e-09 3.53097e-11 -9.97015e-11)
(-2.21362e-09 1.62568e-10 1.5838e-11)
(-2.14454e-09 2.16077e-10 6.10166e-11)
(6.46496e-10 7.50548e-11 2.67217e-11)
(-1.12563e-09 6.61175e-11 -6.35232e-11)
(2.85275e-10 2.10172e-10 -1.49043e-10)
(9.21032e-09 4.85374e-10 2.57132e-10)
(9.37047e-09 3.00243e-10 4.29605e-10)
(4.04497e-09 5.05718e-10 3.04403e-10)
(6.7363e-09 1.22736e-10 -1.5952e-09)
(7.29563e-09 -1.57182e-09 -1.2273e-09)
(3.87666e-09 3.96018e-11 -1.18387e-09)
(1.29043e-07 2.19787e-08 3.919e-08)
(3.25151e-08 2.75696e-09 3.8546e-09)
(3.34219e-08 1.18896e-09 4.81965e-09)
(1.63213e-07 3.68433e-09 1.37128e-08)
(9.13996e-09 -1.19722e-08 -1.0929e-08)
(7.87307e-09 -2.10639e-09 -3.52832e-09)
(-3.58017e-08 -8.93455e-10 8.32092e-10)
(-2.44794e-09 -5.48601e-11 2.4796e-10)
(1.2536e-10 1.08668e-11 5.39307e-11)
(-1.41083e-10 1.43415e-11 -3.19784e-11)
(-3.37619e-06 -3.53321e-08 7.09895e-08)
(-2.55231e-09 4.84201e-11 3.06638e-10)
(-3.80765e-09 -3.66222e-11 1.91226e-10)
(-2.01759e-09 3.59268e-12 1.15033e-11)
(-1.48942e-08 -2.82914e-10 5.90114e-10)
(1.09896e-09 -2.13847e-11 1.87252e-10)
(-8.523e-10 -2.46958e-11 4.00807e-10)
(-2.69161e-10 5.20155e-11 1.36724e-10)
(6.64209e-10 1.02569e-10 -1.97257e-10)
(3.82192e-09 5.03216e-11 1.48804e-11)
(1.55209e-09 5.42585e-11 6.98214e-11)
(4.01475e-10 7.38996e-11 5.32084e-11)
(1.28325e-11 4.95425e-11 4.50525e-11)
(2.62567e-10 3.49969e-11 -8.74716e-11)
(9.79807e-09 5.00371e-10 2.61604e-10)
(-1.8438e-10 -1.00281e-10 2.54453e-10)
(9.11085e-10 -3.87871e-11 2.67389e-10)
(5.74689e-09 3.48216e-10 -1.3698e-09)
(-2.3674e-10 -4.0351e-11 1.25767e-10)
(-1.21837e-10 -2.35416e-10 3.28086e-10)
(6.5303e-08 2.08723e-08 3.71245e-08)
(3.25715e-09 4.99343e-11 2.06835e-09)
(4.11577e-10 -7.90878e-10 1.93872e-09)
(1.4982e-07 9.40858e-09 2.49744e-08)
(4.10714e-10 7.60183e-10 -1.16406e-11)
(-4.53019e-10 -4.17606e-10 1.15235e-09)
)
;
    }
    procBoundary1to0
    {
        type            processor;
        value           nonuniform List<vector> 
12
(
(-2.61941e-08 -2.57545e-11 5.00044e-10)
(-1.7281e-08 1.80597e-12 2.89527e-10)
(-9.74615e-09 1.23897e-11 9.27136e-11)
(-1.63441e-08 -1.35188e-11 2.90927e-10)
(-1.16563e-08 -2.99023e-12 1.69327e-10)
(-7.08498e-09 1.45053e-11 3.4572e-11)
(-8.86371e-09 -1.01514e-11 1.23715e-10)
(-6.82823e-09 -8.72315e-12 6.60119e-11)
(-4.53101e-09 4.17959e-12 -9.03673e-12)
(-4.60266e-09 -1.35294e-11 2.55808e-11)
(-3.7648e-09 -1.48488e-11 6.07658e-13)
(-2.70783e-09 -7.39695e-12 -3.30865e-11)
)
;
    }
    procBoundary1to3
    {
        type            processor;
        value           nonuniform List<vector> 
27
(
(-7.34205e-09 7.94023e-11 2.38699e-11)
(-8.65791e-09 1.12882e-10 7.26652e-11)
(-6.89979e-09 9.5012e-11 5.21227e-11)
(-4.36876e-09 1.96683e-10 1.00203e-11)
(-2.07458e-09 3.02386e-10 -3.19187e-11)
(5.60855e-11 4.45038e-10 -3.58394e-11)
(1.686e-09 5.75594e-10 -7.10677e-11)
(3.48278e-09 5.95527e-10 -1.55004e-10)
(2.83012e-09 1.34041e-10 -1.20414e-09)
(-5.50202e-09 7.74946e-11 -1.78057e-11)
(-6.26124e-09 1.23567e-10 1.54301e-11)
(-5.26958e-09 1.53525e-10 1.07502e-11)
(-3.55705e-09 1.95735e-10 -1.29081e-11)
(-1.86139e-09 2.62535e-10 -5.55867e-11)
(-3.14672e-10 3.6765e-10 -5.51358e-11)
(9.41152e-10 5.04872e-10 -6.32202e-11)
(1.97679e-09 6.21979e-10 -6.0546e-11)
(2.5656e-09 6.93965e-10 -4.73695e-10)
(-3.66193e-09 6.29925e-11 -4.8474e-11)
(-4.04175e-09 1.03365e-10 -2.50587e-11)
(-3.52944e-09 1.43424e-10 -2.50801e-11)
(-2.53035e-09 1.57867e-10 -3.95977e-11)
(-1.41917e-09 1.86632e-10 -6.98402e-11)
(-3.91249e-10 2.41808e-10 -7.00921e-11)
(4.89042e-10 3.16492e-10 -4.13043e-11)
(1.15132e-09 4.23387e-10 -1.84744e-11)
(1.67704e-09 5.18544e-10 -5.55559e-11)
)
;
    }
    procBoundary1to5
    {
        type            processor;
        value           nonuniform List<vector> 
32
(
(-4.3779e-09 5.23487e-11 1.58576e-10)
(-2.50068e-09 5.31147e-11 1.80926e-10)
(-1.01457e-09 4.14714e-11 2.61393e-10)
(1.26902e-10 2.20635e-11 3.78206e-10)
(8.84339e-10 -5.23613e-11 4.91985e-10)
(1.20843e-09 -6.30516e-12 5.61275e-10)
(-5.09671e-09 4.91177e-11 1.12394e-10)
(-3.61502e-09 6.23721e-11 1.10613e-10)
(-2.14862e-09 6.3325e-11 1.28366e-10)
(-9.37904e-10 4.45912e-11 2.02298e-10)
(4.27188e-12 1.10946e-11 3.0224e-10)
(6.13058e-10 -8.53059e-11 3.99877e-10)
(1.00517e-09 -2.65727e-11 4.96674e-10)
(-3.94795e-09 3.87097e-11 3.15832e-11)
(-3.49084e-09 6.25663e-11 3.03495e-11)
(-2.58455e-09 8.37374e-11 2.39815e-11)
(-1.5788e-09 8.65386e-11 3.48868e-11)
(-6.94998e-10 7.18727e-11 8.57133e-11)
(2.61841e-11 6.14449e-11 1.59365e-10)
(5.22276e-10 3.33541e-11 2.22206e-10)
(8.58403e-10 9.91902e-11 2.87162e-10)
(-3.18812e-09 -2.23598e-12 2.40282e-11)
(-3.59763e-09 1.34886e-11 5.1756e-11)
(-4.3779e-09 5.23487e-11 1.58576e-10)
(-5.09671e-09 4.91177e-11 1.12394e-10)
(-3.16982e-09 1.65753e-11 6.71751e-11)
(-2.6418e-09 1.68638e-12 5.46979e-12)
(-5.09671e-09 4.91177e-11 1.12394e-10)
(-3.94795e-09 3.87097e-11 3.15832e-11)
(-2.91684e-09 2.74856e-11 2.5465e-11)
(-3.94795e-09 3.87097e-11 3.15832e-11)
(-1.97784e-09 -4.59732e-12 -1.6072e-11)
)
;
    }
    procBoundary1to7
    {
        type            processor;
        value           uniform (-2.28519e-09 2.39563e-11 -4.65696e-11);
    }
}


// ************************************************************************* //
