/*--------------------------------*- C++ -*----------------------------------*\
| =========                 |                                                 |
| \\      /  F ield         | OpenFOAM: The Open Source CFD Toolbox           |
|  \\    /   O peration     | Version:  4.x                                   |
|   \\  /    A nd           | Web:      www.OpenFOAM.org                      |
|    \\/     M anipulation  |                                                 |
\*---------------------------------------------------------------------------*/
FoamFile
{
    version     2.0;
    format      ascii;
    class       volVectorField;
    location    "45";
    object      DDtUrel;
}
// * * * * * * * * * * * * * * * * * * * * * * * * * * * * * * * * * * * * * //

dimensions      [0 1 -2 0 0 0 0];

internalField   nonuniform List<vector> 
87
(
(0.000263219 3.43915e-05 1.16944e-05)
(0.000187765 1.88595e-05 -2.19697e-05)
(0.000204854 5.05987e-06 -2.9183e-05)
(5.7678e-05 -1.9089e-05 -8.53476e-05)
(8.24185e-05 -4.97245e-05 -9.71365e-05)
(-0.000348465 -0.000127571 -0.000270194)
(-0.000481585 -0.000209938 -0.000338045)
(-0.00230532 -0.000504968 -0.00093245)
(-0.00439421 -0.000704897 -0.0015719)
(0.000228244 2.56281e-05 1.57568e-05)
(0.000153902 6.92952e-06 -1.05826e-05)
(0.000163693 1.97508e-06 -1.58198e-05)
(1.07827e-05 -3.47166e-05 -6.55592e-05)
(6.59026e-06 -4.09829e-05 -7.85463e-05)
(-0.000404622 -0.000136747 -0.000240561)
(-0.000627643 -0.000162406 -0.000335564)
(-0.00213722 -0.000517822 -0.000882181)
(-0.00389244 -0.000860267 -0.00144443)
(0.000172193 1.85552e-05 2.07486e-05)
(0.000103513 8.50193e-06 7.40368e-07)
(9.24936e-05 -3.98287e-06 -1.27439e-06)
(-4.51708e-05 -3.32111e-05 -5.44757e-05)
(-9.43827e-05 -5.13784e-05 -7.51966e-05)
(-0.000440618 -0.000114995 -0.000233949)
(-0.000689948 -0.000152792 -0.000340364)
(-0.00191298 -0.000391511 -0.000870659)
(-0.00332306 -0.000602094 -0.0013944)
(0.00017257 3.03228e-05 1.55471e-05)
(0.000109672 1.94831e-05 -7.38492e-06)
(9.86784e-05 7.49501e-06 -1.57118e-05)
(-2.60855e-05 -1.31906e-05 -5.41097e-05)
(-9.0253e-05 -4.05216e-05 -7.38254e-05)
(-0.00043665 -0.000103562 -0.000201843)
(-0.000780502 -0.00018406 -0.000288073)
(-0.00191908 -0.000356807 -0.000705113)
(-0.00322628 -0.000498791 -0.00113595)
(0.000143359 2.29899e-05 1.87232e-05)
(8.45164e-05 1.05689e-05 5.38809e-07)
(7.36289e-05 7.68763e-06 -6.78344e-06)
(-4.97327e-05 -2.21184e-05 -4.41638e-05)
(-0.000123225 -3.23374e-05 -6.64249e-05)
(-0.000449079 -0.000104117 -0.000188273)
(-0.000802791 -0.000146207 -0.000299798)
(-0.00179168 -0.000401132 -0.000716053)
(-0.00294545 -0.000639702 -0.00110095)
(0.000103662 1.24178e-05 2.01062e-05)
(5.35401e-05 3.78077e-06 5.65595e-06)
(1.8849e-05 -3.5198e-06 -3.1574e-06)
(-8.56003e-05 -2.19707e-05 -3.6511e-05)
(-0.000205895 -4.0315e-05 -7.0715e-05)
(-0.000475698 -7.91483e-05 -0.000187187)
(-0.000851347 -0.000130347 -0.000328653)
(-0.00161152 -0.000266778 -0.000754644)
(-0.00246086 -0.000382494 -0.00109874)
(0.000109062 2.98127e-05 8.97472e-06)
(4.2927e-05 1.9083e-05 -8.2804e-06)
(2.9233e-05 8.7503e-06 -1.12274e-05)
(-9.2957e-05 -1.89214e-05 -4.46778e-05)
(-0.000165692 -3.95341e-05 -4.30676e-05)
(-0.000472836 -9.99636e-05 -0.000140365)
(-0.000799177 -0.000158266 -0.000182859)
(-0.00162359 -0.000303446 -0.000487837)
(-0.00265271 -0.000419445 -0.000828316)
(9.1177e-05 2.11648e-05 1.46598e-05)
(3.48583e-05 7.56633e-06 8.08217e-07)
(1.74355e-05 3.76013e-06 -1.46437e-06)
(-9.71319e-05 -2.53811e-05 -3.6061e-05)
(-0.000187565 -3.42976e-05 -4.67895e-05)
(-0.000469132 -0.00010269 -0.000139738)
(-0.000796015 -0.00013465 -0.000203567)
(-0.00153089 -0.000359093 -0.000504959)
(-0.00245506 -0.000565901 -0.000812081)
(5.46145e-05 1.06377e-05 1.37324e-05)
(1.12302e-05 2.78141e-06 3.28535e-06)
(-2.7305e-05 -1.82013e-06 -5.53308e-06)
(-0.000120843 -1.97659e-05 -2.9594e-05)
(-0.000245391 -3.29698e-05 -5.38814e-05)
(-0.000477968 -7.50989e-05 -0.000139822)
(-0.000831333 -0.000107799 -0.000230826)
(-0.00135328 -0.00026992 -0.000499984)
(-0.00203102 -0.000386808 -0.000750535)
(2.81918e-05 2.67749e-05 1.87435e-05)
(-2.44476e-05 1.65748e-05 9.35841e-06)
(-7.51808e-05 7.44638e-06 7.05892e-06)
(2.80062e-05 1.9055e-05 1.49946e-05)
(-1.23598e-05 1.01116e-05 8.99533e-06)
(1.364e-05 8.73707e-06 1.12476e-05)
)
;

boundaryField
{
    inlet
    {
        type            calculated;
        value           nonuniform 0();
    }
    outlet
    {
        type            calculated;
        value           nonuniform List<vector> 9((-0.0162757 -0.00150809 -0.00536915) (-0.012688 -0.00391207 -0.00408137) (-0.00970749 -0.00161734 -0.00455513) (-0.0065013 -0.000139148 -0.00224626) (-0.0059096 -0.0021824 -0.00208049) (-0.00250624 -5.42242e-05 -0.00248261) (-0.00694645 -0.000156071 -0.00286594) (-0.0063686 -0.00239075 -0.00261096) (-0.00307114 -0.00150333 -0.00170065));
    }
    wall
    {
        type            calculated;
        value           nonuniform List<vector> 
57
(
(0.000880774 0.000104555 7.48063e-05)
(0.000807487 8.94861e-05 7.96583e-05)
(0.000432251 0.000117104 8.08016e-05)
(0.000230843 4.78734e-05 -0.000187123)
(0.000144144 -9.01132e-05 -0.000112828)
(-5.70646e-05 7.82208e-05 -7.50073e-05)
(0.00118821 4.05643e-05 4.71835e-05)
(0.00105867 9.6058e-05 9.70328e-05)
(0.000542587 7.7688e-05 0.000175468)
(-9.92057e-05 3.16857e-05 -0.000385414)
(-0.000257978 -0.000224357 -0.000223606)
(-0.000284851 -6.74878e-05 -0.000254357)
(0.00231966 4.82645e-05 0.000296968)
(0.0018006 0.000281043 0.000413992)
(0.00104367 2.62957e-05 0.000312252)
(-0.000870538 -0.000158354 -0.000911035)
(-0.000939994 -0.000558445 -0.000547297)
(-0.000583282 -0.000312924 -0.000609322)
(0.00635906 0.000254236 0.0012075)
(0.00382041 0.000972301 0.00104038)
(0.0029973 0.000210777 0.000978789)
(-0.00314491 -0.00122746 -0.00163707)
(-0.00257089 -0.00134347 -0.00122133)
(-0.0019552 -0.000867315 -0.00159194)
(-0.0162757 -0.00150809 -0.00536915)
(-0.012688 -0.00391207 -0.00408137)
(-0.00970749 -0.00161734 -0.00455513)
(0.000880774 0.000104555 7.48063e-05)
(0.000362321 6.90369e-05 8.72366e-05)
(0.000414956 9.81777e-05 -1.68493e-05)
(-0.000177042 0.000120181 6.80696e-05)
(0.000230843 4.78734e-05 -0.000187123)
(-1.62929e-05 5.36183e-05 -3.16011e-05)
(-0.000100118 5.95125e-05 -0.00013925)
(-0.000340867 5.23929e-05 -2.194e-06)
(0.00118821 4.05643e-05 4.71835e-05)
(0.000431725 3.86918e-05 8.1949e-05)
(0.000524044 8.7978e-05 1.541e-05)
(-0.000547992 9.40349e-05 3.69284e-05)
(-9.92057e-05 3.16857e-05 -0.000385414)
(-0.000202015 7.11926e-05 -7.84357e-05)
(-0.000268057 -3.28335e-05 -0.000283954)
(0.00231966 4.82645e-05 0.000296968)
(0.000627994 7.5245e-05 0.000231732)
(0.000798579 0.000112412 0.00028499)
(-0.000870538 -0.000158354 -0.000911035)
(-0.000566406 1.70886e-05 -0.000357793)
(-0.00051665 -8.92532e-05 -0.000447187)
(0.00635906 0.000254236 0.0012075)
(0.00100418 -6.30197e-07 0.000650381)
(0.000887276 0.00016291 0.000717633)
(-0.00314491 -0.00122746 -0.00163707)
(-0.0014841 -3.04806e-05 -0.000595638)
(-0.00115504 -0.000113795 -0.000701508)
(-0.0162757 -0.00150809 -0.00536915)
(-0.0065013 -0.000139148 -0.00224626)
(-0.00694645 -0.000156071 -0.00286594)
)
;
    }
    procBoundary1to0
    {
        type            processor;
        value           nonuniform List<vector> 
12
(
(0.000266893 4.04027e-05 1.8396e-05)
(0.000223895 2.55116e-05 1.86489e-05)
(0.000172563 1.51749e-05 2.14238e-05)
(0.000178824 3.27826e-05 2.32191e-05)
(0.000144836 2.04498e-05 2.22294e-05)
(0.000112708 1.09711e-05 2.14044e-05)
(0.00011401 3.00239e-05 1.33639e-05)
(9.1785e-05 1.65388e-05 1.47324e-05)
(6.69878e-05 8.77026e-06 1.65811e-05)
(5.0692e-05 2.2668e-05 2.08237e-05)
(4.48031e-05 1.66622e-05 1.60099e-05)
(3.50293e-05 7.99488e-06 1.31622e-05)
)
;
    }
    procBoundary1to3
    {
        type            processor;
        value           nonuniform List<vector> 
27
(
(0.000172114 -3.48267e-07 2.70652e-05)
(9.46515e-05 -5.39116e-06 1.27865e-05)
(8.21869e-05 -1.93538e-05 1.15612e-05)
(-7.58922e-05 -4.34514e-05 -3.04579e-05)
(-0.000141119 -5.00699e-05 -5.67661e-05)
(-0.000497745 -9.18669e-05 -0.000207038)
(-0.000764675 -7.1718e-05 -0.000339282)
(-0.00177876 -0.000264397 -0.000746743)
(-0.00302247 -0.000454846 -0.00116193)
(0.000106404 1.64718e-06 2.20709e-05)
(4.45087e-05 -2.81685e-06 9.62682e-06)
(1.75817e-05 -1.0383e-05 7.07888e-06)
(-0.000102519 -1.82187e-05 -2.98256e-05)
(-0.000206198 -2.68092e-05 -5.72034e-05)
(-0.000488126 -3.6124e-05 -0.000182323)
(-0.000816237 -5.07169e-05 -0.000307142)
(-0.00153693 -8.66151e-05 -0.000718718)
(-0.00242749 -0.000130997 -0.00106131)
(4.65853e-05 1.16178e-06 1.68722e-05)
(2.55776e-06 -3.01531e-06 5.60748e-06)
(-4.01716e-05 -7.89551e-06 -1.37054e-06)
(-0.0001318 -1.35253e-05 -2.75922e-05)
(-0.00026173 -1.60256e-05 -5.20997e-05)
(-0.000483521 -2.42839e-05 -0.000141573)
(-0.000832725 -2.12728e-05 -0.000240401)
(-0.0012974 -6.71419e-05 -0.000527467)
(-0.00190019 -0.000101671 -0.000774806)
)
;
    }
    procBoundary1to5
    {
        type            processor;
        value           nonuniform List<vector> 
32
(
(-0.000150463 -2.12263e-05 -2.79802e-06)
(-0.000286254 -5.12916e-05 -1.11351e-05)
(-0.000477823 -9.93337e-05 -3.73465e-05)
(-0.000845386 -0.000169123 -7.35981e-05)
(-0.00135775 -0.000287305 -0.000146335)
(-0.0019637 -0.000402393 -0.000231827)
(-5.61973e-05 2.17042e-06 7.36691e-06)
(-0.0001384 -2.04411e-05 -5.94308e-06)
(-0.000266213 -4.37212e-05 -1.19079e-05)
(-0.000475987 -9.10394e-05 -4.96943e-05)
(-0.000826033 -0.000147963 -8.15375e-05)
(-0.00128892 -0.000293355 -0.000200911)
(-0.00189075 -0.000440645 -0.000306104)
(-1.70862e-05 1.7038e-06 5.69403e-06)
(-6.404e-05 -6.76936e-06 2.30928e-06)
(-0.000140509 -1.84739e-05 -8.8539e-06)
(-0.000270523 -3.67295e-05 -2.05662e-05)
(-0.000466912 -6.39985e-05 -5.56391e-05)
(-0.000800165 -0.000107322 -0.000100132)
(-0.00117494 -0.000186571 -0.00019248)
(-0.00168519 -0.000256192 -0.000271523)
(4.62517e-05 1.61481e-05 2.39028e-05)
(-2.40537e-06 7.66797e-06 2.36671e-05)
(-0.000150463 -2.12263e-05 -2.79802e-06)
(-5.61973e-05 2.17042e-06 7.36691e-06)
(-1.755e-05 3.5944e-06 2.33239e-05)
(2.52469e-05 1.44996e-05 1.26139e-05)
(-5.61973e-05 2.17042e-06 7.36691e-06)
(-1.70862e-05 1.7038e-06 5.69403e-06)
(-1.20952e-05 6.64642e-06 1.20105e-05)
(-1.70862e-05 1.7038e-06 5.69403e-06)
(1.00865e-05 4.89245e-06 7.93219e-06)
)
;
    }
    procBoundary1to7
    {
        type            processor;
        value           uniform (1.48858e-05 1.21451e-06 8.81401e-06);
    }
}


// ************************************************************************* //
