/*--------------------------------*- C++ -*----------------------------------*\
| =========                 |                                                 |
| \\      /  F ield         | OpenFOAM: The Open Source CFD Toolbox           |
|  \\    /   O peration     | Version:  4.x                                   |
|   \\  /    A nd           | Web:      www.OpenFOAM.org                      |
|    \\/     M anipulation  |                                                 |
\*---------------------------------------------------------------------------*/
FoamFile
{
    version     2.0;
    format      ascii;
    class       volScalarField;
    location    "45";
    object      Ksl;
}
// * * * * * * * * * * * * * * * * * * * * * * * * * * * * * * * * * * * * * //

dimensions      [1 -3 -1 0 0 0 0];

internalField   nonuniform List<scalar> 
87
(
3826.32
2556.16
3758.5
2398.53
3767.87
2113.12
4117.57
1683.65
5696.44
4467.02
2694.46
4411.87
2553.98
4532.3
2300.03
5102.85
1944.41
5979.29
5383.31
2961.07
5500.39
2860.25
5772.7
2636.58
6126.04
2195.41
6372.08
6046.88
3036.74
6107.4
2962.79
6459.26
2800.13
7762
2614.05
11379.4
11473.8
3399.39
12937.7
3289.51
15672.4
3053.93
16624.5
2805.95
10110.1
43231.8
3726.67
336514
3720.47
9.82816e+09
3837.54
53117.4
4107.41
7475.36
6328.22
3016.54
6614.95
2913.71
7205.93
2712.24
8322.36
2519.53
8666.69
12286.7
3348.93
12227.4
3193.93
12117.6
2983.23
10955.5
2705.76
7595.32
39698.9
3726.48
50240.5
3687.26
42775.3
3634.83
20948.1
3700.59
8035.84
8764.13
3352.85
12590.7
60768.7
3731.18
1e+10
)
;

boundaryField
{
    inlet
    {
        type            zeroGradient;
    }
    outlet
    {
        type            zeroGradient;
    }
    wall
    {
        type            zeroGradient;
    }
    procBoundary1to0
    {
        type            processor;
        value           nonuniform List<scalar> 
12
(
2615.25
2818.05
3036.75
3115.86
3486.23
3714.62
3114.11
3483.51
3739.26
3320.38
3733.19
4090.48
)
;
    }
    procBoundary1to3
    {
        type            processor;
        value           nonuniform List<scalar> 
27
(
4879.67
2747.71
4725.71
2577.71
4840.21
2377.15
5593.71
2088.6
6467.53
16452.6
3442.42
19640
3291.03
22782.7
3090.01
21998.5
2818.02
8824.75
29721.2
3640.76
37671.8
3590.95
33715.1
3585.85
22677.8
3747.97
8369.66
)
;
    }
    procBoundary1to5
    {
        type            processor;
        value           nonuniform List<scalar> 
32
(
3605.67
34404.4
4118.25
1e+10
5678.64
73092.1
1.40185e+06
3729.82
513738
3801.58
63082.4
4161.97
12080.3
4160.2
1e+10
4202.41
1e+10
4289.35
1e+10
4821.35
15071.5
7177.95
3070.07
3605.67
1.40185e+06
7385.7
32451
1.40185e+06
4160.2
3553.75
4160.2
2.33855e+06
)
;
    }
    procBoundary1to7
    {
        type            processor;
        value           uniform 132252;
    }
}


// ************************************************************************* //
