/*--------------------------------*- C++ -*----------------------------------*\
| =========                 |                                                 |
| \\      /  F ield         | OpenFOAM: The Open Source CFD Toolbox           |
|  \\    /   O peration     | Version:  4.x                                   |
|   \\  /    A nd           | Web:      www.OpenFOAM.org                      |
|    \\/     M anipulation  |                                                 |
\*---------------------------------------------------------------------------*/
FoamFile
{
    version     2.0;
    format      ascii;
    class       volScalarField;
    location    "45";
    object      p_rgh;
}
// * * * * * * * * * * * * * * * * * * * * * * * * * * * * * * * * * * * * * //

dimensions      [1 -1 -2 0 0 0 0];

internalField   nonuniform List<scalar> 
87
(
18.78
74.5246
-0.979107
68.9354
-22.338
65.1161
-47.0349
65.682
-63.0933
18.2494
74.5144
-1.46677
68.8976
-22.9287
65.0855
-47.1502
65.0056
-72.6607
18.9827
74.7719
-0.2079
68.714
-20.7544
63.8421
-42.4319
61.186
-66.215
19.0163
74.8114
-0.0657181
68.7833
-20.1739
63.5647
-41.2646
59.8738
-60.8871
18.6114
74.8008
-0.65661
68.7259
-21.1235
63.489
-42.2252
59.9998
-62.438
19.2993
75.0474
0.424312
68.361
-18.5321
62.2189
-36.1523
55.9405
-51.6124
18.7649
74.5601
-0.728511
68.6732
-21.5847
63.9762
-43.9134
61.3936
-66.7438
18.2562
74.4774
-1.44549
68.4309
-22.0689
63.4844
-43.6679
60.9454
-65.351
19.7147
74.5486
0.94341
68.2316
-18.212
62.6529
-37.1006
58.1801
-54.2373
20.2094
75.2789
1.8512
20.0353
74.9447
22.1648
)
;

boundaryField
{
    inlet
    {
        type            fixedFluxPressure;
        gradient        nonuniform 0();
        value           nonuniform 0();
    }
    outlet
    {
        type            fixedValue;
        value           uniform 0;
    }
    wall
    {
        type            fixedFluxPressure;
        gradient        nonuniform List<scalar> 
57
(
-0.000200831
-0.000104136
-4.70239e-05
-0.000535949
-0.000121251
-4.41077e-05
-0.000128907
-6.77965e-05
-4.06991e-05
-7.51573e-06
-2.42014e-06
-3.67489e-06
1.76996e-06
1.8969e-06
9.64833e-06
6.23872e-06
1.31628e-05
8.61006e-06
2.55739e-05
5.69249e-05
4.8161e-05
6.63739e-05
3.12623e-05
3.92293e-05
0.000342771
0.000197533
8.1054e-05
-5.51299e-05
-5.76538e-05
-1.12274e-06
-3.69168e-06
-0.00557013
-1.86003e-05
-9.92318e-06
-7.1092e-06
-6.08697e-06
-1.90956e-05
-1.98369e-05
-1.38432e-05
4.55259e-06
8.86898e-06
3.44273e-06
3.12353e-07
8.23548e-07
6.96893e-06
7.42207e-06
8.21073e-07
2.9306e-06
2.19353e-05
1.32687e-05
2.95738e-06
-1.19549e-05
1.13191e-05
6.32334e-06
0.00011398
9.24572e-05
1.93758e-05
)
;
        value           nonuniform List<scalar> 
57
(
18.78
18.2494
18.9827
74.5246
74.5144
74.7719
-0.979109
-1.46677
-0.207901
68.9354
68.8976
68.714
-22.338
-22.9287
-20.7544
65.1161
65.0855
63.8421
-47.0349
-47.1502
-42.4319
65.682
65.0056
61.186
-63.0933
-72.6607
-66.215
18.78
19.0163
18.7649
20.2094
74.5245
74.8114
74.5601
75.2789
-0.979107
-0.0657184
-0.728512
1.8512
68.9354
68.7833
68.6732
-22.338
-20.1739
-21.5847
65.1161
63.5647
63.9762
-47.0349
-41.2646
-43.9134
65.682
59.8738
61.3936
-63.0933
-60.8871
-66.7438
)
;
    }
    procBoundary1to0
    {
        type            processor;
        value           nonuniform List<scalar> 
12
(
80.7654
80.7594
81.1949
81.2456
81.3348
81.8212
80.9826
81.0674
81.4148
81.7887
81.8783
81.7096
)
;
    }
    procBoundary1to3
    {
        type            processor;
        value           nonuniform List<scalar> 
27
(
17.9787
74.2899
-2.12031
68.5958
-23.0211
64.5441
-46.0546
63.6129
-71.2582
17.9349
74.5815
-1.88979
68.4183
-22.4638
63.221
-43.7871
60.3035
-63.63
18.8907
74.4657
-0.422709
68.0488
-19.8481
62.7247
-38.8497
58.7027
-55.3378
)
;
    }
    procBoundary1to5
    {
        type            processor;
        value           nonuniform List<scalar> 
32
(
68.9233
-16.4123
62.1644
-33.6268
53.9482
-51.01
1.27249
68.2441
-17.1424
61.8938
-35.3308
55.8313
-50.229
74.8225
4.62611
68.1706
-12.6598
61.4395
-29.5451
53.65
-44.5568
19.2383
74.5401
68.9233
1.27249
0.0399309
19.4575
1.27249
74.8225
74.6881
74.8225
20.8342
)
;
    }
    procBoundary1to7
    {
        type            processor;
        value           uniform 20.6048;
    }
}


// ************************************************************************* //
