/*--------------------------------*- C++ -*----------------------------------*\
| =========                 |                                                 |
| \\      /  F ield         | OpenFOAM: The Open Source CFD Toolbox           |
|  \\    /   O peration     | Version:  4.x                                   |
|   \\  /    A nd           | Web:      www.OpenFOAM.org                      |
|    \\/     M anipulation  |                                                 |
\*---------------------------------------------------------------------------*/
FoamFile
{
    version     2.0;
    format      ascii;
    class       volScalarField;
    location    "6";
    object      nu;
}
// * * * * * * * * * * * * * * * * * * * * * * * * * * * * * * * * * * * * * //

dimensions      [0 2 -1 0 0 0 0];

internalField   nonuniform List<scalar> 
132
(
1.00004e-06
1.00014e-06
1.00035e-06
1.00064e-06
1.00099e-06
1.00133e-06
1.0016e-06
1.00176e-06
1.00177e-06
1.00003e-06
1.00014e-06
1.00036e-06
1.00069e-06
1.00107e-06
1.00142e-06
1.00161e-06
1.0016e-06
1.00133e-06
1.00003e-06
1.00015e-06
1.00041e-06
1.0008e-06
1.00121e-06
1.00147e-06
1.00148e-06
1.00124e-06
1.00083e-06
1.00003e-06
1.00015e-06
1.00042e-06
1.00002e-06
1.00009e-06
1.00023e-06
1.00046e-06
1.00074e-06
1.00099e-06
1.00119e-06
1.00129e-06
1.00128e-06
1.00002e-06
1.00009e-06
1.00027e-06
1.00052e-06
1.00079e-06
1.00094e-06
1.00097e-06
1.00079e-06
1.0005e-06
1.00002e-06
1.00011e-06
1.00031e-06
1.00059e-06
1.00084e-06
1.00089e-06
1.00078e-06
1.00051e-06
1.00021e-06
1.00002e-06
1.00011e-06
1.00033e-06
1.00064e-06
1.00089e-06
1.00001e-06
1.00005e-06
1.00015e-06
1.0003e-06
1.00049e-06
1.00067e-06
1.00082e-06
1.00089e-06
1.0009e-06
1.00001e-06
1.00006e-06
1.00018e-06
1.00035e-06
1.00052e-06
1.00059e-06
1.00058e-06
1.00043e-06
1.00023e-06
1.00001e-06
1.00007e-06
1.0002e-06
1.00038e-06
1.00053e-06
1.00055e-06
1.00047e-06
1.00028e-06
1.00006e-06
1.00001e-06
1.00007e-06
1.00021e-06
1.00039e-06
1.00055e-06
1.00057e-06
1.0005e-06
1.00001e-06
1.00003e-06
1.00009e-06
1.00017e-06
1.00028e-06
1.00039e-06
1.00049e-06
1.00054e-06
1.00057e-06
1.00001e-06
1.00004e-06
1.00011e-06
1.0002e-06
1.00031e-06
1.00035e-06
1.00033e-06
1.00023e-06
1.00009e-06
1.00001e-06
1.00004e-06
1.00013e-06
1.00024e-06
1.00033e-06
1.00034e-06
1.00029e-06
1.00016e-06
1e-06
1.00001e-06
1.00005e-06
1.00014e-06
1.00026e-06
1.00036e-06
1.00038e-06
1.00035e-06
1.00025e-06
1.00011e-06
)
;

boundaryField
{
    inlet
    {
        type            calculated;
        value           uniform 1e-06;
    }
    outlet
    {
        type            calculated;
        value           nonuniform 0();
    }
    wall
    {
        type            calculated;
        value           nonuniform List<scalar> 
66
(
1.00004e-06
1.00003e-06
1.00003e-06
1.00003e-06
1.00014e-06
1.00014e-06
1.00015e-06
1.00015e-06
1.00035e-06
1.00036e-06
1.00041e-06
1.00042e-06
1.00064e-06
1.00069e-06
1.0008e-06
1.00099e-06
1.00107e-06
1.00121e-06
1.00133e-06
1.00142e-06
1.00147e-06
1.0016e-06
1.00161e-06
1.00148e-06
1.00176e-06
1.0016e-06
1.00124e-06
1.00177e-06
1.00133e-06
1.00083e-06
1.00004e-06
1.00002e-06
1.00001e-06
1.00001e-06
1.00014e-06
1.00009e-06
1.00005e-06
1.00003e-06
1.00035e-06
1.00023e-06
1.00015e-06
1.00009e-06
1.00064e-06
1.00046e-06
1.0003e-06
1.00017e-06
1.00099e-06
1.00074e-06
1.00049e-06
1.00028e-06
1.00133e-06
1.00099e-06
1.00067e-06
1.00039e-06
1.0016e-06
1.00119e-06
1.00082e-06
1.00049e-06
1.00176e-06
1.00129e-06
1.00089e-06
1.00054e-06
1.00177e-06
1.00128e-06
1.0009e-06
1.00057e-06
)
;
    }
    procBoundary0to1
    {
        type            processor;
        value           nonuniform List<scalar> 
12
(
1.00165e-06
1.00092e-06
1.00037e-06
1.00118e-06
1.00015e-06
9.99908e-07
1.00082e-06
9.99972e-07
9.99836e-07
1.00055e-06
9.99908e-07
9.99837e-07
)
;
    }
    procBoundary0to2
    {
        type            processor;
        value           nonuniform List<scalar> 
44
(
1.00083e-06
1.00124e-06
1.00146e-06
1.0014e-06
1.0011e-06
1.00069e-06
1.00003e-06
1.00015e-06
1.00083e-06
1.00041e-06
1.00083e-06
1.00124e-06
1.00093e-06
1.00082e-06
1.00057e-06
1.00028e-06
1.00002e-06
1.0001e-06
1.00029e-06
1.00058e-06
1.00093e-06
1.00085e-06
1.00093e-06
1.00082e-06
1.00035e-06
1.00018e-06
1.00001e-06
1.00006e-06
1.00018e-06
1.00035e-06
1.00051e-06
1.00054e-06
1.00035e-06
1.00048e-06
1.00035e-06
1.00018e-06
1.00001e-06
1.00004e-06
1.0001e-06
1.0002e-06
1.00029e-06
1.00031e-06
1.00027e-06
1.00017e-06
)
;
    }
    procBoundary0to4
    {
        type            processor;
        value           nonuniform List<scalar> 
36
(
1e-06
1.00002e-06
1.00006e-06
1.00012e-06
1.00019e-06
1.00026e-06
1.00031e-06
1.00034e-06
1.00035e-06
1e-06
1.00003e-06
1.00008e-06
1.00016e-06
1.00023e-06
1.00025e-06
1.00021e-06
1.00011e-06
9.99924e-07
1e-06
1.00003e-06
1.00009e-06
1.00018e-06
1.00025e-06
1.00026e-06
1.00021e-06
1.0001e-06
9.9996e-07
1.00001e-06
1.00003e-06
1.0001e-06
1.00019e-06
1.00026e-06
1.00027e-06
1.00023e-06
1.00012e-06
9.99991e-07
)
;
    }
    procBoundary0to6
    {
        type            processor;
        value           uniform 1.00003e-06;
    }
    procBoundary0to7
    {
        type            processor;
        value           uniform 9.99979e-07;
    }
}


// ************************************************************************* //
