/*--------------------------------*- C++ -*----------------------------------*\
| =========                 |                                                 |
| \\      /  F ield         | OpenFOAM: The Open Source CFD Toolbox           |
|  \\    /   O peration     | Version:  4.x                                   |
|   \\  /    A nd           | Web:      www.OpenFOAM.org                      |
|    \\/     M anipulation  |                                                 |
\*---------------------------------------------------------------------------*/
FoamFile
{
    version     2.0;
    format      ascii;
    class       volScalarField;
    location    "6";
    object      SPartFluid;
}
// * * * * * * * * * * * * * * * * * * * * * * * * * * * * * * * * * * * * * //

dimensions      [1 -3 -1 0 0 0 0];

internalField   nonuniform List<scalar> 
132
(
4.02979e-65
3.64187e-65
3.09912e-65
2.86656e-65
3.79654e-65
4.02889e-65
4.88141e-65
3.48669e-65
1.70451e-65
4.88215e-65
4.64916e-65
4.64878e-65
5.1133e-65
3.17628e-65
5.81035e-65
4.26107e-65
4.64847e-65
4.26113e-65
2.71226e-65
5.34653e-65
4.72632e-65
4.72584e-65
4.26082e-65
4.33809e-65
3.25361e-65
4.18335e-65
7.20501e-65
2.86738e-65
4.41683e-65
3.25439e-65
4.18478e-65
6.66387e-65
8.05795e-65
7.05011e-65
6.81762e-65
7.12749e-65
6.27548e-65
6.43046e-65
6.19829e-65
5.42458e-65
7.98107e-65
6.2757e-65
7.20466e-65
7.28182e-65
7.12681e-65
6.50714e-65
7.74678e-65
6.73998e-65
5.88962e-65
8.13597e-65
6.81781e-65
6.27482e-65
6.66175e-65
6.58417e-65
8.28841e-65
6.04214e-65
4.95797e-65
8.0594e-65
6.12145e-65
6.12054e-65
4.57042e-65
9.14049e-65
5.96713e-65
6.81906e-65
7.28316e-65
6.81758e-65
6.58505e-65
5.19039e-65
7.04971e-65
6.895e-65
4.72599e-65
6.43202e-65
7.05134e-65
6.74047e-65
5.57766e-65
7.35902e-65
5.73204e-65
7.35874e-65
8.83094e-65
6.27491e-65
7.6719e-65
6.27634e-65
6.58531e-65
8.2112e-65
7.82333e-65
7.35816e-65
7.43563e-65
6.19659e-65
4.57033e-65
7.28442e-65
7.59333e-65
7.66975e-65
7.97884e-65
8.36542e-65
7.12574e-65
7.12563e-65
4.57236e-65
4.88173e-65
5.73371e-65
5.34569e-65
6.12014e-65
7.74676e-65
4.80306e-65
4.10595e-65
4.95834e-65
5.50215e-65
8.13613e-65
7.28295e-65
6.73981e-65
5.80964e-65
5.65443e-65
8.36565e-65
6.58428e-65
5.50002e-65
4.57206e-65
4.95883e-65
7.28262e-65
5.73228e-65
7.281e-65
8.05511e-65
6.73833e-65
5.11199e-65
8.05593e-65
5.26959e-65
5.8888e-65
7.82484e-65
9.21822e-65
4.41504e-65
9.21679e-65
7.12551e-65
5.42161e-65
2.32366e-65
)
;

boundaryField
{
    inlet
    {
        type            calculated;
        value           uniform 0;
    }
    outlet
    {
        type            calculated;
        value           nonuniform 0();
    }
    wall
    {
        type            calculated;
        value           uniform 0;
    }
    procBoundary0to1
    {
        type            processor;
        value           nonuniform List<scalar> 
12
(
3.71922e-65
3.64155e-65
3.48643e-65
6.43091e-65
7.51528e-65
8.13447e-65
7.05059e-65
7.66971e-65
7.90167e-65
6.58556e-65
7.04996e-65
5.73245e-65
)
;
    }
    procBoundary0to2
    {
        type            processor;
        value           nonuniform List<scalar> 
44
(
6.50794e-65
4.88077e-65
2.55624e-65
4.88035e-65
2.24645e-65
2.63394e-65
5.73471e-65
6.50912e-65
6.50794e-65
5.11396e-65
6.50794e-65
4.88077e-65
8.44301e-65
9.75975e-65
5.73218e-65
9.37311e-65
5.42464e-65
6.81896e-65
7.67036e-65
7.74711e-65
8.44301e-65
7.04933e-65
8.44301e-65
9.75975e-65
7.59067e-65
7.97839e-65
7.28447e-65
4.95914e-65
5.50071e-65
6.1199e-65
5.57715e-65
7.12598e-65
7.59067e-65
8.3653e-65
7.59067e-65
7.97839e-65
4.80455e-65
8.1358e-65
8.36726e-65
6.50722e-65
6.42912e-65
6.27381e-65
6.27377e-65
7.74565e-65
)
;
    }
    procBoundary0to4
    {
        type            processor;
        value           nonuniform List<scalar> 
36
(
5.19223e-65
7.3616e-65
7.51596e-65
5.57838e-65
5.96532e-65
5.65529e-65
7.59203e-65
6.73999e-65
8.90971e-65
7.74947e-65
6.35402e-65
7.28291e-65
8.52183e-65
8.21118e-65
7.51378e-65
6.35185e-65
5.42238e-65
9.06366e-65
6.9744e-65
8.75587e-65
6.4305e-65
8.52143e-65
6.97132e-65
5.96409e-65
6.11897e-65
9.68222e-65
5.65477e-65
4.33959e-65
5.7339e-65
7.5925e-65
5.19018e-65
7.35845e-65
6.0414e-65
9.52681e-65
5.96415e-65
5.96442e-65
)
;
    }
    procBoundary0to6
    {
        type            processor;
        value           uniform 6.73899e-65;
    }
    procBoundary0to7
    {
        type            processor;
        value           uniform 9.91543e-65;
    }
}


// ************************************************************************* //
