/*--------------------------------*- C++ -*----------------------------------*\
| =========                 |                                                 |
| \\      /  F ield         | OpenFOAM: The Open Source CFD Toolbox           |
|  \\    /   O peration     | Version:  4.x                                   |
|   \\  /    A nd           | Web:      www.OpenFOAM.org                      |
|    \\/     M anipulation  |                                                 |
\*---------------------------------------------------------------------------*/
FoamFile
{
    version     2.0;
    format      ascii;
    class       volScalarField;
    location    "28.5";
    object      particleRelTemp;
}
// * * * * * * * * * * * * * * * * * * * * * * * * * * * * * * * * * * * * * //

dimensions      [0 0 0 0 0 0 0];

internalField   nonuniform List<scalar> 
132
(
-9.87839e-09
-8.91672e-09
-7.93748e-09
-6.07513e-09
-5.27396e-09
-3.95333e-09
-2.53777e-09
-1.07015e-09
-1.24279e-10
-9.70939e-09
-8.11993e-09
-6.60191e-09
-5.45928e-09
-3.5478e-09
-1.94394e-09
8.00932e-10
1.98366e-09
3.80636e-09
-9.19933e-09
-7.8567e-09
-6.2237e-09
-4.29993e-09
-2.467e-09
-2.79074e-10
2.1425e-09
4.28679e-09
5.35875e-09
-1.01992e-08
-8.08574e-09
-7.25754e-09
-1.00217e-08
-8.38184e-09
-6.82023e-09
-5.19365e-09
-3.62043e-09
-1.68581e-09
-7.19544e-10
1.37351e-09
2.6348e-09
-9.80374e-09
-8.04786e-09
-5.72574e-09
-3.93816e-09
-2.26436e-09
-3.64157e-10
2.11946e-09
4.49079e-09
5.93648e-09
-9.67411e-09
-7.56888e-09
-5.33673e-09
-3.36707e-09
-9.56898e-10
8.12041e-10
3.93039e-09
6.36878e-09
8.24849e-09
-9.50495e-09
-7.55982e-09
-5.28291e-09
-2.66679e-09
-8.49144e-10
-9.73814e-09
-8.36905e-09
-6.37093e-09
-4.28291e-09
-2.50785e-09
-1.59196e-10
1.58639e-09
3.36846e-09
4.82025e-09
-9.51999e-09
-7.69297e-09
-5.55063e-09
-3.54347e-09
-1.11654e-09
1.41791e-09
3.61117e-09
5.94624e-09
7.59069e-09
-9.52658e-09
-7.57516e-09
-5.0211e-09
-2.56022e-09
1.19694e-11
3.12421e-09
5.84844e-09
8.83851e-09
9.72743e-09
-9.43035e-09
-7.12883e-09
-4.80343e-09
-2.58334e-09
2.67422e-10
2.50665e-09
6.64948e-09
-1.00287e-08
-8.1444e-09
-6.58271e-09
-4.60471e-09
-2.53121e-09
-2.51353e-10
1.20659e-09
4.07888e-09
5.10417e-09
-9.72898e-09
-8.06282e-09
-6.07655e-09
-3.4725e-09
-1.0743e-09
1.55733e-09
4.08125e-09
5.97337e-09
8.20381e-09
-9.00547e-09
-7.39323e-09
-5.50206e-09
-2.19503e-09
8.06382e-11
3.3998e-09
6.21274e-09
8.89726e-09
9.58827e-09
-9.46841e-09
-7.65429e-09
-5.25822e-09
-2.32316e-09
1.4927e-10
3.13828e-09
6.75687e-09
8.45917e-09
1.04147e-08
)
;

boundaryField
{
    inlet
    {
        type            calculated;
        value           nonuniform List<scalar> 
16
(
-9.87839e-09
-9.70939e-09
-9.19933e-09
-1.01992e-08
-1.00217e-08
-9.80374e-09
-9.67411e-09
-9.50495e-09
-9.73814e-09
-9.51999e-09
-9.52658e-09
-9.43035e-09
-1.00287e-08
-9.72898e-09
-9.00547e-09
-9.46841e-09
)
;
    }
    outlet
    {
        type            calculated;
        value           nonuniform 0();
    }
    wall
    {
        type            calculated;
        value           nonuniform List<scalar> 
66
(
-9.87839e-09
-9.70939e-09
-9.19933e-09
-1.01992e-08
-8.91672e-09
-8.11993e-09
-7.8567e-09
-8.08574e-09
-7.93748e-09
-6.60191e-09
-6.2237e-09
-7.25754e-09
-6.07513e-09
-5.45928e-09
-4.29993e-09
-5.27396e-09
-3.5478e-09
-2.467e-09
-3.95333e-09
-1.94394e-09
-2.79074e-10
-2.53777e-09
8.00932e-10
2.1425e-09
-1.07015e-09
1.98366e-09
4.28679e-09
-1.24279e-10
3.80636e-09
5.35875e-09
-9.87839e-09
-1.00217e-08
-9.73814e-09
-1.00287e-08
-8.91672e-09
-8.38184e-09
-8.36905e-09
-8.1444e-09
-7.93748e-09
-6.82023e-09
-6.37093e-09
-6.58271e-09
-6.07513e-09
-5.19365e-09
-4.28291e-09
-4.60471e-09
-5.27396e-09
-3.62043e-09
-2.50785e-09
-2.53121e-09
-3.95333e-09
-1.68581e-09
-1.59196e-10
-2.51353e-10
-2.53777e-09
-7.19544e-10
1.58639e-09
1.20659e-09
-1.07015e-09
1.37351e-09
3.36846e-09
4.07888e-09
-1.24279e-10
2.6348e-09
4.82025e-09
5.10417e-09
)
;
    }
    procBoundary0to1
    {
        type            processor;
        value           nonuniform List<scalar> 
12
(
1.4419e-09
4.78695e-09
6.95845e-09
3.76955e-09
5.48315e-09
9.6332e-09
5.66908e-09
8.73981e-09
1.09143e-08
6.05216e-09
8.39035e-09
1.09693e-08
)
;
    }
    procBoundary0to2
    {
        type            processor;
        value           nonuniform List<scalar> 
44
(
-4.62419e-09
-2.71122e-09
4.47354e-10
2.46497e-09
4.95045e-09
5.16315e-09
-9.83641e-09
-8.36488e-09
-4.62419e-09
-6.76315e-09
-4.62419e-09
-2.71122e-09
1.59996e-09
4.41011e-09
6.56504e-09
7.94217e-09
-9.95735e-09
-8.28402e-09
-6.07874e-09
-3.86361e-09
1.59996e-09
-1.8831e-09
1.59996e-09
4.41011e-09
8.79644e-09
1.01244e-08
-9.53965e-09
-7.9709e-09
-5.60749e-09
-3.21099e-09
-5.90958e-10
2.19819e-09
8.79644e-09
4.33574e-09
8.79644e-09
1.01244e-08
-9.50513e-09
-7.415e-09
-5.29518e-09
-3.23819e-09
-5.97678e-10
1.98134e-09
4.63145e-09
6.95564e-09
)
;
    }
    procBoundary0to4
    {
        type            processor;
        value           nonuniform List<scalar> 
36
(
-9.92328e-09
-8.71985e-09
-7.07551e-09
-5.25733e-09
-3.69682e-09
-2.05919e-09
4.25677e-10
2.45698e-09
3.42653e-09
-9.74841e-09
-8.38865e-09
-6.29674e-09
-4.30183e-09
-2.02144e-09
-9.44557e-12
2.14779e-09
4.4481e-09
6.15144e-09
-9.68178e-09
-7.88183e-09
-5.39396e-09
-3.30943e-09
-8.11262e-10
1.35203e-09
3.9925e-09
6.3542e-09
7.27034e-09
-9.66729e-09
-7.98513e-09
-5.62004e-09
-3.37452e-09
-3.18042e-10
2.08632e-09
4.64168e-09
6.21423e-09
8.24488e-09
)
;
    }
    procBoundary0to6
    {
        type            processor;
        value           uniform 8.1041e-09;
    }
    procBoundary0to7
    {
        type            processor;
        value           uniform 1.08066e-08;
    }
}


// ************************************************************************* //
