/*--------------------------------*- C++ -*----------------------------------*\
| =========                 |                                                 |
| \\      /  F ield         | OpenFOAM: The Open Source CFD Toolbox           |
|  \\    /   O peration     | Version:  4.x                                   |
|   \\  /    A nd           | Web:      www.OpenFOAM.org                      |
|    \\/     M anipulation  |                                                 |
\*---------------------------------------------------------------------------*/
FoamFile
{
    version     2.0;
    format      ascii;
    class       volVectorField;
    location    "28.5";
    object      Urel;
}
// * * * * * * * * * * * * * * * * * * * * * * * * * * * * * * * * * * * * * //

dimensions      [0 1 -1 0 0 0 0];

internalField   nonuniform List<vector> 
132
(
(-0.0239226 0.000492233 0.00121064)
(-0.0223437 0.000462721 0.00113903)
(-0.0237053 0.0004654 0.00112856)
(-0.0229635 0.00040465 0.00101062)
(-0.0245296 0.000376603 0.00095162)
(-0.0239468 0.000304882 0.000829051)
(-0.0254379 0.000270541 0.000773941)
(-0.0248133 0.000196459 0.00067339)
(-0.0262175 0.000130346 0.000612096)
(-0.023821 0.000490939 0.00124151)
(-0.0221322 0.000456584 0.00115084)
(-0.0234214 0.000472552 0.00114409)
(-0.022508 0.000405091 0.00102027)
(-0.0240205 0.000388258 0.000966635)
(-0.0232608 0.000312842 0.000830792)
(-0.0247366 0.000301427 0.000775004)
(-0.0239428 0.000241803 0.000656073)
(-0.0253568 0.000203988 0.000605852)
(-0.0236962 0.000353957 0.00126864)
(-0.0219111 0.000320849 0.00116079)
(-0.0231198 0.000333106 0.00115768)
(-0.0220406 0.000284004 0.00102276)
(-0.0234733 0.000264957 0.000976114)
(-0.0225294 0.000210212 0.000828077)
(-0.0239573 0.000196279 0.000772097)
(-0.0229684 0.000147476 0.000633366)
(-0.024369 0.000124686 0.000613898)
(-0.0236297 0.000126295 0.00127461)
(-0.0218156 0.000100144 0.00116197)
(-0.0229875 9.51116e-05 0.00115935)
(-0.0237142 0.000529384 0.00129818)
(-0.0219572 0.00048326 0.00119147)
(-0.0231773 0.000490357 0.00120587)
(-0.0220994 0.000424848 0.00105015)
(-0.0235687 0.00040309 0.00100291)
(-0.0226299 0.000321018 0.000856586)
(-0.0241035 0.000288736 0.000805757)
(-0.0231304 0.000202589 0.000687707)
(-0.0245852 0.000151443 0.000617129)
(-0.0235857 0.000529147 0.00133565)
(-0.0216824 0.000470651 0.00120404)
(-0.0228239 0.000494841 0.00122677)
(-0.021519 0.000414215 0.0010511)
(-0.0229489 0.00041014 0.00101434)
(-0.0217421 0.000317473 0.000843351)
(-0.0232496 0.00031245 0.000801387)
(-0.0219847 0.000226168 0.000659411)
(-0.0235372 0.000224088 0.000609321)
(-0.0234257 0.000374447 0.00136881)
(-0.0214015 0.000325147 0.00121801)
(-0.022455 0.00034197 0.00124966)
(-0.0209314 0.000277826 0.00105257)
(-0.0223088 0.000269329 0.00101517)
(-0.0208362 0.000199315 0.000825238)
(-0.0223601 0.000182164 0.000760907)
(-0.0207862 0.000125696 0.000619942)
(-0.0224172 0.000113576 0.000567817)
(-0.0233505 0.000110303 0.00138242)
(-0.0212997 9.33615e-05 0.00122952)
(-0.0223026 8.93365e-05 0.00126176)
(-0.0207236 6.43307e-05 0.0010559)
(-0.0220643 5.10445e-05 0.00102332)
(-0.0234949 0.000578908 0.00114517)
(-0.0216029 0.000523057 0.00105205)
(-0.0226754 0.000535577 0.00105403)
(-0.0213544 0.000458171 0.000925405)
(-0.0226981 0.000442917 0.000874424)
(-0.021502 0.000352392 0.000761623)
(-0.0229094 0.000328364 0.000703949)
(-0.0216829 0.000243313 0.000626138)
(-0.0231257 0.000213559 0.000557522)
(-0.0233327 0.000580853 0.00117429)
(-0.0212645 0.000510376 0.00106055)
(-0.0222498 0.000545123 0.0010638)
(-0.0206362 0.000446027 0.000905568)
(-0.021962 0.000441311 0.000856602)
(-0.0204158 0.000337484 0.000722879)
(-0.0219064 0.000313753 0.000671088)
(-0.0202873 0.000243874 0.000564504)
(-0.0219037 0.000230491 0.000508503)
(-0.0231347 0.000408819 0.00118541)
(-0.0209138 0.000353448 0.00106141)
(-0.0217858 0.000376494 0.00106071)
(-0.0198771 0.000292797 0.000879214)
(-0.0211835 0.000284646 0.00082368)
(-0.019306 0.000205817 0.00066785)
(-0.0208814 0.000176366 0.000599801)
(-0.0189782 0.000133943 0.000487315)
(-0.0206757 0.00010915 0.00042034)
(-0.0230508 9.36215e-05 0.00119371)
(-0.0207773 7.90388e-05 0.00106616)
(-0.021605 7.01828e-05 0.00106484)
(-0.0196076 5.36346e-05 0.000870562)
(-0.0209014 4.2239e-05 0.00081602)
(-0.0189477 3.48426e-05 0.000654855)
(-0.0205455 2.88621e-05 0.000595018)
(-0.0233613 0.000617744 0.000873975)
(-0.0214402 0.000555014 0.000808983)
(-0.0224176 0.000562814 0.000807236)
(-0.0210051 0.000474943 0.000711881)
(-0.0222404 0.000451798 0.000668384)
(-0.0209438 0.000368164 0.000583351)
(-0.0222562 0.000339409 0.000536265)
(-0.0209429 0.000259704 0.000468446)
(-0.0223054 0.000222731 0.000397996)
(-0.0231771 0.000604452 0.000886567)
(-0.0210572 0.000531135 0.000804082)
(-0.0219435 0.000555697 0.000802033)
(-0.0202038 0.000451647 0.000681867)
(-0.0214467 0.000440303 0.000638538)
(-0.0197901 0.000346967 0.000536837)
(-0.0212172 0.000320343 0.000493166)
(-0.0195074 0.000258687 0.00040981)
(-0.0210724 0.000227835 0.000345652)
(-0.0229743 0.000412785 0.000882381)
(-0.0207226 0.00036038 0.000791532)
(-0.0214915 0.000374531 0.000772754)
(-0.019504 0.000293856 0.000644059)
(-0.0207105 0.0002774 0.00059299)
(-0.0187907 0.00021127 0.000489306)
(-0.020268 0.00017476 0.000448562)
(-0.0183492 0.000142887 0.00035208)
(-0.0199672 0.000106945 0.000278673)
(-0.0228966 0.000105145 0.000876562)
(-0.0205872 7.9645e-05 0.000786973)
(-0.0213169 7.15124e-05 0.00076549)
(-0.0192404 5.05434e-05 0.000638391)
(-0.0204423 4.24177e-05 0.000588788)
(-0.0184613 3.15363e-05 0.000485088)
(-0.0199602 3.0957e-05 0.000447678)
(-0.018015 5.63343e-06 0.000358569)
(-0.0196438 -2.45131e-05 0.000313201)
)
;

boundaryField
{
    inlet
    {
        type            calculated;
        value           nonuniform List<vector> 
16
(
(-0.01 -2.1837e-09 -2.59978e-09)
(-0.01 -5.58863e-09 -4.15042e-09)
(-0.01 -6.59101e-09 -8.12197e-09)
(-0.01 -4.01384e-09 -4.91657e-09)
(-0.01 -1.35241e-09 -1.78634e-09)
(-0.01 -4.23544e-09 -2.46391e-09)
(-0.01 -5.38869e-09 -4.65536e-09)
(-0.01 -4.8046e-09 -7.53754e-09)
(-0.01 -1.24174e-09 -1.85021e-09)
(-0.01 -3.63209e-09 -4.74766e-09)
(-0.01 -3.70864e-09 -5.5623e-09)
(-0.01 -3.57448e-09 -7.42712e-09)
(-0.01 -7.91836e-10 -1.30081e-09)
(-0.01 -2.20683e-09 -2.36081e-09)
(-0.01 -4.44378e-09 -6.17029e-09)
(-0.01 -3.66273e-09 -5.85039e-09)
)
;
    }
    outlet
    {
        type            calculated;
        value           nonuniform 0();
    }
    wall
    {
        type            calculated;
        value           nonuniform List<vector> 
66
(
(-2.11616e-09 -2.1837e-09 -2.59978e-09)
(-5.20345e-09 -5.58863e-09 -4.15042e-09)
(-1.43667e-08 -6.59101e-09 -8.12197e-09)
(-8.06412e-09 -4.01384e-09 -4.91657e-09)
(-1.04099e-09 1.93791e-10 -5.13733e-09)
(-1.00506e-08 -3.57089e-09 -1.39144e-08)
(-2.09283e-08 -8.07014e-09 -1.70262e-08)
(-2.44159e-08 -7.11043e-09 -1.47655e-08)
(3.61214e-09 -2.1225e-08 -5.87526e-10)
(2.55977e-09 -2.50428e-08 -2.86066e-08)
(-1.89389e-08 -1.13243e-08 -2.2817e-08)
(-2.67992e-08 -1.10717e-08 -1.73866e-08)
(4.17967e-09 -7.51851e-09 -1.1931e-08)
(-7.27809e-09 -1.88577e-08 -2.39664e-08)
(-1.98512e-08 -2.02794e-08 -2.27204e-08)
(6.61535e-09 -1.69767e-08 -9.89332e-09)
(-7.45905e-09 -2.52022e-08 -2.23442e-08)
(-2.33455e-08 -2.94356e-08 -2.32721e-08)
(-1.02742e-08 -1.44735e-08 -1.30116e-08)
(-1.31433e-08 -2.89695e-08 -1.66841e-08)
(-7.46616e-09 -4.08136e-08 3.84151e-09)
(-8.46159e-09 -6.69242e-09 -1.0014e-08)
(-2.7845e-08 -8.25943e-09 2.94753e-08)
(-3.83977e-08 -2.35891e-08 8.08461e-08)
(-4.06771e-08 -1.04809e-08 6.37674e-10)
(-7.47204e-08 5.21041e-08 4.51774e-08)
(-9.0081e-08 1.51368e-07 2.62989e-07)
(-5.30404e-08 6.36091e-08 5.09483e-08)
(-1.42133e-07 4.93243e-08 7.16009e-08)
(-1.59696e-07 1.15651e-07 2.96747e-07)
(-2.11616e-09 -2.1837e-09 -2.59978e-09)
(-1.44104e-09 -1.35241e-09 -1.78634e-09)
(-2.05221e-09 -1.24174e-09 -1.85021e-09)
(-1.79566e-09 -7.91836e-10 -1.30081e-09)
(-1.04099e-09 1.93791e-10 -5.13733e-09)
(-1.5872e-09 -2.75343e-09 -4.6616e-09)
(-3.74765e-09 -2.40291e-09 -2.631e-09)
(-3.17032e-09 -2.49414e-09 -2.08259e-09)
(3.61214e-09 -2.1225e-08 -5.87526e-10)
(-1.49756e-09 -3.89419e-09 -4.68515e-09)
(-3.88994e-09 -2.88181e-09 -6.11729e-09)
(-5.17837e-09 8.90762e-11 -5.17051e-09)
(4.17967e-09 -7.51851e-09 -1.1931e-08)
(-3.73816e-09 -6.68064e-09 -1.22046e-08)
(-7.696e-09 -3.38997e-09 -1.27693e-08)
(-1.26507e-08 -3.95788e-09 -1.16694e-08)
(6.61535e-09 -1.69767e-08 -9.89332e-09)
(-6.04659e-09 -1.05516e-08 -1.12631e-08)
(-7.90358e-09 -4.36856e-09 -9.05117e-09)
(-1.49441e-08 -3.44925e-09 -8.87202e-09)
(-1.02742e-08 -1.44735e-08 -1.30116e-08)
(-1.50872e-08 -2.07731e-08 -1.0255e-08)
(-3.17458e-08 -2.52848e-08 -1.23349e-08)
(-3.35526e-08 -1.12174e-08 -3.88895e-09)
(-8.46159e-09 -6.69242e-09 -1.0014e-08)
(-1.49267e-08 2.69746e-10 -1.33016e-08)
(-3.97152e-08 -1.72471e-08 -9.53561e-09)
(-4.0369e-08 -1.32117e-08 8.27786e-09)
(-4.06771e-08 -1.04809e-08 6.37674e-10)
(-5.40068e-08 -1.72212e-08 4.04222e-09)
(-6.65567e-08 -8.87466e-09 6.92424e-09)
(-7.29461e-08 -5.48401e-09 1.5533e-09)
(-5.30404e-08 6.36091e-08 5.09483e-08)
(-1.06912e-07 -7.54354e-09 2.25722e-08)
(-8.70783e-08 5.80796e-09 1.28346e-08)
(-7.79998e-08 -5.11843e-09 6.37612e-09)
)
;
    }
    procBoundary0to1
    {
        type            processor;
        value           nonuniform List<vector> 
12
(
(-0.0255278 7.6489e-06 0.00050178)
(-0.0245178 9.91406e-05 0.000488237)
(-0.0233187 6.02672e-05 0.000489396)
(-0.0235611 3.20937e-05 0.000506342)
(-0.022198 0.000110555 0.000475297)
(-0.0206662 6.24343e-05 0.000433184)
(-0.0218603 9.55093e-05 0.000493705)
(-0.0201788 0.000134747 0.000420618)
(-0.0186629 0.000112726 0.000356375)
(-0.0209049 0.000147392 0.000322899)
(-0.0192663 0.000174441 0.000284608)
(-0.017976 8.97384e-05 0.000234798)
)
;
    }
    procBoundary0to2
    {
        type            processor;
        value           nonuniform List<vector> 
44
(
(-0.0218592 7.39058e-05 0.00101876)
(-0.0232544 6.32895e-05 0.000972934)
(-0.0222655 5.1516e-05 0.00081463)
(-0.0236739 4.10042e-05 0.000742402)
(-0.0226623 1.60413e-05 0.000601281)
(-0.0240742 -6.02631e-06 0.000554996)
(-0.0236403 -0.000142891 0.00123568)
(-0.0218217 -0.000136274 0.00114295)
(-0.0218592 7.39058e-05 0.00101876)
(-0.0229985 -0.000154098 0.00114186)
(-0.0218592 7.39058e-05 0.00101876)
(-0.0232544 6.32895e-05 0.000972934)
(-0.0205442 4.04358e-05 0.000828469)
(-0.0220645 2.36779e-05 0.000761644)
(-0.0205047 6.06284e-06 0.000627799)
(-0.0221339 -3.91416e-05 0.000559947)
(-0.0233987 -0.000174899 0.00133168)
(-0.0213643 -0.000153434 0.00119544)
(-0.022386 -0.000172306 0.00122184)
(-0.0208241 -0.000157704 0.00102939)
(-0.0205442 4.04358e-05 0.000828469)
(-0.0221911 -0.000159936 0.000992246)
(-0.0205442 4.04358e-05 0.000828469)
(-0.0220645 2.36779e-05 0.000761644)
(-0.0186165 5.52147e-06 0.000475213)
(-0.0203204 -1.93232e-05 0.000414469)
(-0.0231317 -0.00021965 0.00117836)
(-0.0209253 -0.000188313 0.00104981)
(-0.021778 -0.000207806 0.00104456)
(-0.0199053 -0.000175085 0.000873166)
(-0.0211851 -0.000171602 0.000821308)
(-0.0193735 -0.000129353 0.00067495)
(-0.0186165 5.52147e-06 0.000475213)
(-0.0209254 -9.46391e-05 0.000617871)
(-0.0186165 5.52147e-06 0.000475213)
(-0.0203204 -1.93232e-05 0.000414469)
(-0.0229575 -0.000228373 0.000895402)
(-0.02068 -0.000205743 0.000788223)
(-0.021446 -0.000224609 0.000777795)
(-0.019443 -0.000182661 0.000654043)
(-0.0206584 -0.000177913 0.000610462)
(-0.018735 -0.000140681 0.000507068)
(-0.0202252 -0.00011603 0.000485063)
(-0.0182855 -0.000109866 0.000389571)
)
;
    }
    procBoundary0to4
    {
        type            processor;
        value           nonuniform List<vector> 
36
(
(-0.0233491 0.000634596 0.00053588)
(-0.0214113 0.000567124 0.000500546)
(-0.0223542 0.000578699 0.000495603)
(-0.0208872 0.000484119 0.000447018)
(-0.0220944 0.000462871 0.000409359)
(-0.0207409 0.000368538 0.000360554)
(-0.0220476 0.000345891 0.00032181)
(-0.0206773 0.000272986 0.00026918)
(-0.0220696 0.00024876 0.000192501)
(-0.0231585 0.000621474 0.000521429)
(-0.0210148 0.000539533 0.000479368)
(-0.0218691 0.000561077 0.000466847)
(-0.0200559 0.000448364 0.000409672)
(-0.0213081 0.000434837 0.000375953)
(-0.0195527 0.000335056 0.000318495)
(-0.0210279 0.000313959 0.000285172)
(-0.019219 0.000246844 0.000225964)
(-0.0208848 0.000224787 0.000164685)
(-0.0229646 0.000418296 0.000510615)
(-0.0206784 0.000364334 0.000461834)
(-0.0214297 0.000371636 0.000439107)
(-0.0193934 0.000296745 0.0003731)
(-0.0206186 0.000281327 0.000335472)
(-0.0186404 0.000216145 0.000277927)
(-0.0201623 0.000188147 0.000247937)
(-0.0181667 0.000151621 0.000190472)
(-0.0198875 0.000137665 0.000134146)
(-0.0228787 0.00011097 0.000510561)
(-0.0205507 8.03284e-05 0.000453835)
(-0.0212515 7.87918e-05 0.000435505)
(-0.0191557 6.55545e-05 0.000370798)
(-0.0203424 6.12769e-05 0.000342591)
(-0.0183199 5.3919e-05 0.000277487)
(-0.0198124 6.54347e-05 0.000264248)
(-0.0177946 3.96797e-05 0.000202613)
(-0.0194724 1.71884e-05 0.000177509)
)
;
    }
    procBoundary0to6
    {
        type            processor;
        value           uniform (-0.0199727 -0.000108367 0.000328138);
    }
    procBoundary0to7
    {
        type            processor;
        value           uniform (-0.0177092 -2.39112e-05 0.000227513);
    }
}


// ************************************************************************* //
