/*--------------------------------*- C++ -*----------------------------------*\
| =========                 |                                                 |
| \\      /  F ield         | OpenFOAM: The Open Source CFD Toolbox           |
|  \\    /   O peration     | Version:  4.x                                   |
|   \\  /    A nd           | Web:      www.OpenFOAM.org                      |
|    \\/     M anipulation  |                                                 |
\*---------------------------------------------------------------------------*/
FoamFile
{
    version     2.0;
    format      ascii;
    class       volScalarField;
    location    "58";
    object      p;
}
// * * * * * * * * * * * * * * * * * * * * * * * * * * * * * * * * * * * * * //

dimensions      [1 -1 -2 0 0 0 0];

internalField   nonuniform List<scalar> 
108
(
5651.95
5708.43
5632.22
5702.69
5610.8
5698.66
5587.75
5697.34
5560.93
5653.23
5708.94
5634.06
5703.11
5614.75
5698
5596.5
5693.07
5581.32
5652.26
5708.43
5632.49
5702.71
5611.46
5698.59
5588.31
5697.87
5560.01
5653.19
5708.67
5633.48
5702.88
5612.74
5698.48
5590.27
5697.24
5562.84
3773.97
3830.73
3754.13
3824.53
3733.16
3819.58
3712.79
3816.71
3690.6
3775.27
3831.04
3756.28
3824.39
3737.29
3818.34
3719.5
3812.61
3704.19
3774.28
3830.54
3753.95
3824.48
3732.35
3819.85
3708.83
3818.81
3681.73
3774.79
3830.68
3755.1
3824.76
3734.08
3820.01
3710.99
3818.23
3682.11
1897.1
1952.66
1877.71
1946.22
1858.08
1940.96
1839.08
1936.91
1821.95
1899.32
1952.88
1881.25
1946.63
1863.46
1940.92
1845.89
1934.71
1829.81
1897.81
1952.84
1878.69
1946.25
1859.55
1940.35
1840.14
1935.83
1822.83
1898
1953.06
1879.1
1946.87
1859.59
1941.16
1839.05
1936.67
1816.64
)
;

boundaryField
{
    inlet
    {
        type            calculated;
        value           nonuniform 0();
    }
    outlet
    {
        type            calculated;
        value           nonuniform List<scalar> 
12
(
5633.74
5633.74
5633.74
5633.74
3755.83
3755.83
3755.83
3755.83
1877.91
1877.91
1877.91
1877.91
)
;
    }
    wall
    {
        type            calculated;
        value           nonuniform List<scalar> 
63
(
6590.91
6592.18
6591.22
6592.15
6647.39
6647.9
6647.39
6647.62
6571.17
6573.01
6571.44
6572.44
6641.64
6642.07
6641.67
6641.84
6549.76
6553.71
6550.42
6551.7
6637.62
6636.96
6637.54
6637.44
6526.71
6535.46
6527.27
6529.22
6636.3
6632.03
6636.83
6636.2
6499.85
6520.24
6498.93
6515.85
5653.19
3774.79
1898
5708.67
3830.68
1953.06
5633.48
3755.1
1879.1
5702.88
3824.76
1946.87
5612.74
3734.08
1859.59
5698.48
3820.01
1941.16
5590.27
3710.99
1839.05
5697.24
3818.23
1936.67
5562.84
3682.11
1816.64
)
;
    }
    procBoundary3to1
    {
        type            processor;
        value           nonuniform List<scalar> 
27
(
5652.94
5708.7
5633.41
5702.62
5613.25
5697.55
5591.22
5694.57
5565.12
3775.34
3831.13
3756.4
3824.44
3737.74
3817.84
3718.71
3811.44
3703.72
1897.97
1952.76
1879.25
1946.35
1860.15
1940.54
1840.99
1935.83
1823.74
)
;
    }
    procBoundary3to2
    {
        type            processor;
        value           nonuniform List<scalar> 
12
(
5714.96
5715.43
5714.99
5715.09
3837.42
3837.95
3837.34
3837.31
1959.51
1959.64
1959.88
1959.77
)
;
    }
    procBoundary3to7
    {
        type            processor;
        value           nonuniform List<scalar> 
36
(
20.6243
74.8498
1.79328
68.4209
-17.0086
62.6069
-35.731
57.8666
-52.0318
20.941
74.883
2.17766
68.1256
-16.1462
61.1521
-33.8514
54.6791
-49.2994
19.0755
74.7232
-0.659716
68.4268
-21.0109
63.1453
-42.6359
60.4342
-65.1884
19.6498
74.7994
0.102138
68.5707
-20.0294
63.2136
-41.3404
59.986
-63.7735
)
;
    }
}


// ************************************************************************* //
