/*--------------------------------*- C++ -*----------------------------------*\
| =========                 |                                                 |
| \\      /  F ield         | OpenFOAM: The Open Source CFD Toolbox           |
|  \\    /   O peration     | Version:  4.x                                   |
|   \\  /    A nd           | Web:      www.OpenFOAM.org                      |
|    \\/     M anipulation  |                                                 |
\*---------------------------------------------------------------------------*/
FoamFile
{
    version     2.0;
    format      ascii;
    class       volVectorField;
    location    "58";
    object      Us;
}
// * * * * * * * * * * * * * * * * * * * * * * * * * * * * * * * * * * * * * //

dimensions      [0 1 -1 0 0 0 0];

internalField   nonuniform List<vector> 
108
(
(1.31762e-09 -1.11424e-09 2.49139e-10)
(7.47889e-10 -1.0039e-09 5.71867e-10)
(-1.07301e-09 -3.1714e-09 1.67234e-09)
(-3.14529e-09 -8.43685e-10 1.8049e-09)
(-4.83355e-09 -2.70844e-11 7.75495e-10)
(-3.8451e-09 -5.01724e-10 8.61933e-11)
(-2.22998e-09 -7.71605e-10 5.42855e-10)
(-1.53595e-09 -4.10984e-10 9.80323e-10)
(8.10893e-09 1.75372e-10 9.28098e-10)
(1.99707e-09 -1.06148e-09 -4.76488e-11)
(3.99444e-09 -1.49802e-09 8.63449e-10)
(6.71836e-10 -2.79938e-09 2.64634e-09)
(-6.23687e-09 -1.54524e-09 2.22459e-09)
(-4.30959e-09 -5.04005e-10 4.22213e-10)
(-4.27656e-09 -4.05444e-10 1.1388e-10)
(-3.2298e-09 -4.20528e-10 6.24399e-10)
(-1.95825e-09 -6.44943e-10 9.52256e-10)
(1.186e-08 1.57378e-10 1.403e-10)
(7.07878e-10 -1.78025e-09 1.44567e-10)
(2.14384e-10 -1.09566e-09 9.06558e-10)
(1.23599e-10 -7.02765e-09 1.85284e-09)
(-3.57773e-09 -2.4453e-09 2.74578e-09)
(-3.82752e-09 -6.3478e-10 9.39526e-10)
(-3.6342e-09 -2.04208e-10 -2.03656e-10)
(-3.8992e-09 -5.65052e-10 4.83245e-10)
(-3.70504e-09 -9.67271e-10 1.58913e-10)
(-8.58964e-10 2.81568e-09 -1.00588e-09)
(7.97805e-11 -4.9981e-10 1.79021e-10)
(-2.01267e-10 -7.78819e-10 9.59652e-10)
(-8.18386e-10 -1.96326e-09 3.90641e-10)
(-2.15218e-09 -1.099e-09 9.96642e-10)
(-2.89501e-09 -7.04894e-10 9.4687e-10)
(-2.02122e-09 -5.18225e-11 7.00906e-11)
(5.14174e-10 2.16586e-11 -2.26796e-10)
(9.4719e-10 3.69721e-10 -8.10867e-10)
(-5.66202e-10 1.46438e-07 -6.08261e-09)
(7.04224e-10 -1.00101e-09 4.40981e-10)
(-1.06107e-10 -1.23781e-09 1.34008e-09)
(-1.17564e-09 -1.92383e-09 1.56305e-09)
(-2.25122e-09 -3.59124e-10 1.52112e-09)
(-3.02374e-09 -1.19522e-10 7.80203e-10)
(-3.2046e-09 -5.4717e-10 1.74048e-10)
(-1.56038e-09 -5.41127e-10 6.82237e-11)
(1.81354e-10 -4.53938e-10 1.05174e-10)
(2.58376e-09 -1.38944e-10 6.43594e-10)
(9.30242e-10 -7.68684e-10 1.5486e-10)
(1.17832e-09 -1.04987e-09 1.10067e-09)
(-1.39997e-09 -2.41522e-09 2.06356e-09)
(-3.12107e-09 -1.35397e-09 2.74221e-09)
(-3.58228e-09 -4.22264e-10 8.79916e-10)
(-3.18666e-09 -3.3239e-10 2.76951e-10)
(-2.51954e-09 -7.98099e-10 4.00244e-10)
(-7.04341e-10 -2.74521e-10 6.60348e-10)
(3.65795e-10 -8.051e-11 1.11162e-10)
(5.56121e-10 -7.26891e-10 1.2468e-10)
(1.76856e-10 -6.39802e-10 9.54113e-10)
(-1.29304e-09 -2.55642e-09 2.44167e-09)
(-1.82269e-09 -1.2186e-09 2.21235e-09)
(-2.68163e-09 -2.55006e-10 8.26165e-10)
(-2.71031e-09 -1.04898e-10 3.10391e-10)
(-2.40684e-09 -3.4794e-10 2.33604e-10)
(-1.39582e-09 -1.41382e-10 1.40087e-10)
(-4.51391e-10 -2.11407e-10 -5.47504e-10)
(9.00365e-11 -1.71806e-10 2.1938e-10)
(-2.17339e-10 -7.09512e-10 9.77092e-10)
(-5.388e-10 -7.40352e-10 1.34938e-09)
(-1.36353e-09 -8.41889e-10 6.91758e-10)
(-1.35852e-09 -1.95811e-10 3.68478e-10)
(-9.90245e-10 -1.77519e-10 1.20652e-10)
(-5.10882e-10 -2.79346e-11 -1.89976e-10)
(-3.04054e-10 -3.07541e-11 -8.70876e-10)
(-1.38263e-10 -6.49535e-11 -3.58905e-09)
(3.8304e-10 -4.87865e-10 5.46926e-10)
(-1.75854e-10 -7.80339e-10 1.2247e-09)
(-1.10748e-09 -1.27197e-09 2.05076e-09)
(-1.82134e-09 -9.72625e-10 1.05797e-09)
(-1.98761e-09 -4.96243e-10 7.11238e-10)
(-1.45637e-09 -3.46498e-10 2.71345e-10)
(-9.1638e-10 -2.93887e-10 7.45997e-12)
(-1.07934e-10 -1.31998e-10 7.66029e-12)
(2.46693e-10 -1.09942e-10 2.38714e-10)
(3.62571e-10 -4.38777e-10 2.85803e-10)
(4.51102e-10 -3.27074e-11 7.3548e-10)
(-4.62222e-10 8.8717e-10 3.48795e-10)
(-2.29258e-09 -6.04976e-10 1.68952e-09)
(-1.99661e-09 -4.12583e-10 8.99694e-10)
(-1.67801e-09 -3.70895e-10 4.05535e-10)
(-9.5912e-10 -1.44302e-10 1.55835e-10)
(-3.49238e-10 -8.2319e-11 3.77586e-10)
(8.0823e-11 -1.39668e-10 2.83276e-10)
(5.96205e-10 -2.13609e-10 2.64629e-10)
(5.32879e-10 2.09313e-12 7.5894e-10)
(-1.24445e-09 4.62607e-10 1.84379e-09)
(-2.66635e-09 -4.72838e-10 1.58791e-09)
(-2.24932e-09 -4.80735e-10 6.42322e-10)
(-1.64418e-09 -3.27585e-10 3.65586e-10)
(-1.45402e-09 -2.16133e-10 1.32137e-10)
(-2.92712e-10 7.03306e-11 -1.54854e-10)
(8.71862e-11 -1.48272e-10 -4.80552e-10)
(5.33858e-10 -1.82849e-10 8.41168e-11)
(5.37457e-10 3.86813e-11 8.15066e-10)
(-1.09309e-09 1.51157e-10 2.14932e-09)
(-1.79097e-09 3.26808e-10 7.89542e-10)
(-1.84614e-09 -1.97178e-10 4.3329e-10)
(-1.03543e-09 -1.71497e-10 1.82526e-10)
(-7.31414e-10 -5.28233e-11 -9.94227e-11)
(-2.89105e-10 -1.38048e-10 -4.13768e-10)
(2.61024e-11 -3.76981e-10 -1.17266e-09)
)
;

boundaryField
{
    inlet
    {
        type            zeroGradient;
    }
    outlet
    {
        type            zeroGradient;
    }
    wall
    {
        type            zeroGradient;
    }
    procBoundary3to1
    {
        type            processor;
        value           nonuniform List<vector> 
27
(
(2.0006e-09 -9.95219e-10 -1.4687e-10)
(3.79283e-09 -1.78692e-09 -1.16166e-09)
(-1.08708e-09 -5.59538e-10 4.86659e-10)
(-7.57835e-09 1.11962e-09 5.58556e-10)
(-4.77708e-09 4.90165e-10 3.63342e-10)
(-2.98987e-09 -6.06309e-10 3.05828e-10)
(-1.63164e-09 -4.9199e-10 1.08214e-09)
(-4.81468e-10 7.16657e-11 -4.77517e-10)
(1.22884e-09 8.32052e-10 3.4451e-10)
(1.49559e-09 -9.63278e-10 1.62291e-10)
(2.18441e-09 -1.15703e-09 -1.267e-10)
(-1.59628e-09 -1.01314e-09 1.12183e-09)
(-4.78262e-09 2.78703e-10 5.12318e-10)
(-3.29977e-09 1.64908e-10 4.67429e-10)
(-1.89237e-09 -1.81544e-10 -1.27063e-10)
(-6.80009e-10 -6.07899e-10 -1.01551e-10)
(-3.20466e-10 -3.20754e-10 -4.71661e-10)
(8.46249e-11 -4.73466e-10 -2.4981e-10)
(7.12873e-10 -7.6396e-10 3.24607e-10)
(6.31467e-10 -5.80563e-10 1.13938e-09)
(-6.03928e-10 -3.29266e-10 9.86028e-10)
(-2.20755e-09 -5.48071e-10 1.14688e-09)
(-1.80277e-09 -2.45306e-10 4.06387e-10)
(-1.10685e-09 -1.11219e-10 9.78565e-12)
(-3.36606e-10 -1.85154e-10 -3.87822e-10)
(-1.4301e-10 -1.06878e-10 -3.61569e-10)
(6.71118e-11 -2.03512e-10 3.1163e-10)
)
;
    }
    procBoundary3to2
    {
        type            processor;
        value           nonuniform List<vector> 
12
(
(1.49019e-09 -8.40321e-10 -1.20774e-10)
(1.31002e-09 -7.5666e-10 -1.60522e-10)
(9.52338e-10 -7.23801e-10 -1.68072e-10)
(8.79408e-11 -4.07133e-10 2.55317e-11)
(9.97934e-10 -7.12323e-10 -6.11333e-11)
(8.77367e-10 -6.2441e-10 -9.35313e-11)
(5.91057e-10 -5.52863e-10 -2.28218e-10)
(2.98039e-10 -1.81345e-10 2.26311e-12)
(5.31173e-10 -5.75318e-10 1.30336e-10)
(3.79777e-10 -4.55281e-10 -7.27415e-11)
(4.21121e-10 -3.59747e-10 -1.32578e-10)
(2.92822e-10 -2.03193e-10 -1.04461e-10)
)
;
    }
    procBoundary3to7
    {
        type            processor;
        value           nonuniform List<vector> 
36
(
(6.20503e-10 -2.22151e-10 4.39689e-10)
(4.88468e-10 -2.28209e-10 7.66691e-10)
(-8.02012e-10 -5.6372e-10 1.58119e-09)
(-2.04332e-09 -6.60332e-10 8.00229e-10)
(-1.70477e-09 -2.21549e-10 6.38828e-10)
(-9.18772e-10 9.65174e-11 3.84886e-10)
(-7.16777e-10 4.51298e-11 6.70244e-11)
(-3.17856e-10 1.68161e-10 8.55334e-12)
(1.46759e-10 1.1506e-10 1.41717e-10)
(5.4837e-10 -1.1469e-10 1.91792e-10)
(1.03196e-09 -6.81269e-11 6.29016e-10)
(-7.12226e-10 -6.53488e-10 1.29215e-10)
(-2.02197e-09 -2.71216e-10 8.06239e-10)
(-1.28421e-09 -2.06482e-10 5.77907e-10)
(-9.66407e-10 -1.37169e-10 4.18145e-10)
(-5.7342e-10 -7.11256e-11 2.73075e-10)
(-3.30847e-10 8.05298e-12 2.80456e-10)
(8.36109e-12 1.36813e-10 1.62222e-10)
(6.56072e-10 -4.26548e-12 3.19959e-10)
(5.47138e-10 3.06722e-10 7.47132e-10)
(-6.60872e-10 3.14421e-10 8.36615e-10)
(-1.45685e-09 3.42583e-10 8.45039e-10)
(-1.36681e-09 -1.30179e-10 5.2791e-10)
(-9.95681e-10 -1.68997e-10 3.1983e-10)
(-7.88269e-10 -7.21141e-11 7.81528e-11)
(-3.47905e-10 -4.80621e-11 -1.65232e-11)
(8.52341e-10 4.86865e-10 -3.31861e-11)
(7.87856e-10 1.04629e-10 1.16988e-10)
(1.29663e-09 2.60725e-10 2.854e-10)
(-2.97672e-10 1.11307e-09 3.85715e-10)
(-1.66288e-09 9.87324e-10 4.65299e-10)
(-1.52179e-09 -6.67632e-11 3.90513e-10)
(-8.85902e-10 -5.75943e-11 1.81942e-10)
(-5.12487e-10 -1.42025e-10 -1.01576e-11)
(-1.98322e-10 -4.1342e-11 -1.97909e-10)
(5.55606e-10 2.1341e-10 -2.81996e-11)
)
;
    }
}


// ************************************************************************* //
