/*--------------------------------*- C++ -*----------------------------------*\
| =========                 |                                                 |
| \\      /  F ield         | OpenFOAM: The Open Source CFD Toolbox           |
|  \\    /   O peration     | Version:  4.x                                   |
|   \\  /    A nd           | Web:      www.OpenFOAM.org                      |
|    \\/     M anipulation  |                                                 |
\*---------------------------------------------------------------------------*/
FoamFile
{
    version     2.0;
    format      ascii;
    class       volScalarField;
    location    "10.5";
    object      p;
}
// * * * * * * * * * * * * * * * * * * * * * * * * * * * * * * * * * * * * * //

dimensions      [1 -1 -2 0 0 0 0];

internalField   nonuniform List<scalar> 
132
(
5790.86
5736.32
5729.46
5682.63
5712.88
5684.43
5715.14
5671.02
5709.88
5761.99
5741.8
5734.49
5698.51
5718.79
5686.17
5716.03
5671.49
5710.37
5757.55
5729.49
5735.45
5706.26
5723.67
5688.34
5717.31
5672.24
5711.29
5748.43
5730.61
5736.94
3890.68
3859.58
3856.88
3822.6
3841.96
3808.92
3838.78
3794.11
3832.96
3880.72
3858.08
3858.97
3827.06
3845.11
3810.22
3839.79
3794.62
3833.56
3874.92
3854.14
3859.53
3830.27
3847.94
3811.86
3840.75
3795.17
3834.15
3870.91
3852.56
3860.11
3832.02
3849.92
1999.79
1978.64
1982.41
1952.41
1969.68
1934.13
1962.95
1917.82
1956.36
1997.62
1977.62
1983.15
1953.53
1971.24
1934.92
1963.87
1918.24
1956.87
1994.92
1976.13
1983.37
1954.67
1972.51
1935.94
1964.42
1918.89
1957.33
1993.18
1975.13
1983.58
1955.56
1973.66
1937.03
1965.07
116.359
98.2386
105.123
77.0372
94.2989
58.082
86.1351
40.7404
79.0221
116.268
98.066
105.616
77.4023
95.1008
58.5961
86.8398
40.9737
79.4398
115.283
97.4506
105.605
77.7338
95.597
58.9612
87.094
41.1186
79.6182
114.67
97.0566
105.805
78.1466
96.2329
59.7286
87.5852
41.8549
79.9313
)
;

boundaryField
{
    inlet
    {
        type            calculated;
        value           nonuniform List<scalar> 
16
(
5790.86
5761.99
5757.55
5748.43
3890.68
3880.72
3874.92
3870.91
1999.79
1997.62
1994.92
1993.18
116.359
116.268
115.283
114.67
)
;
    }
    outlet
    {
        type            calculated;
        value           nonuniform 0();
    }
    wall
    {
        type            calculated;
        value           nonuniform List<scalar> 
66
(
6729.82
6700.95
6696.5
6687.38
6675.27
6680.75
6668.44
6669.56
6668.4
6673.42
6674.38
6675.87
6621.54
6637.41
6645.15
6651.74
6657.62
6662.48
6623.21
6624.91
6627.02
6653.81
6654.63
6655.82
6609.55
6609.9
6610.52
6648.24
6648.57
6649.36
5790.86
3890.68
1999.79
116.359
5736.32
3859.58
1978.64
98.2386
5729.46
3856.88
1982.41
105.123
5682.63
3822.6
1952.41
77.0372
5712.88
3841.96
1969.68
94.2989
5684.43
3808.92
1934.13
58.082
5715.14
3838.78
1962.95
86.1351
5671.02
3794.11
1917.82
40.7404
5709.88
3832.96
1956.36
79.0221
)
;
    }
    procBoundary0to1
    {
        type            processor;
        value           nonuniform List<scalar> 
12
(
5654.47
5654.83
5655.27
3777.31
3777.84
3778.23
1901
1901.35
1902.18
23.1754
23.4155
23.4234
)
;
    }
    procBoundary0to2
    {
        type            processor;
        value           nonuniform List<scalar> 
44
(
5709.03
5726.24
5690.04
5718.28
5672.81
5711.46
5745.7
5728.97
5709.03
5736.81
5709.03
5726.24
3813.23
3841.6
3795.85
3834.28
3868.59
3851.36
3859.77
3832.39
3813.23
3850.43
3813.23
3841.6
1919.72
1957.45
1991.46
1973.93
1982.94
1955.54
1973.8
1937.33
1919.72
1965.33
1919.72
1957.45
113.665
96.1833
105.216
77.883
96.2051
59.6205
87.7195
41.6602
)
;
    }
    procBoundary0to4
    {
        type            processor;
        value           nonuniform List<scalar> 
36
(
-1763.25
-1780.64
-1772.31
-1799.66
-1781.94
-1818.18
-1790.4
-1835.86
-1798.15
-1762.76
-1780.44
-1771.61
-1799.3
-1781.18
-1817.88
-1789.81
-1835.55
-1797.77
-1762.98
-1780.66
-1771.68
-1799.12
-1781.07
-1817.45
-1789.64
-1834.98
-1797.69
-1763.13
-1780.61
-1771.44
-1798.63
-1780.52
-1816.61
-1789.26
-1834.08
-1797.58
)
;
    }
    procBoundary0to6
    {
        type            processor;
        value           uniform 79.9929;
    }
    procBoundary0to7
    {
        type            processor;
        value           uniform 24.714;
    }
}


// ************************************************************************* //
