/*--------------------------------*- C++ -*----------------------------------*\
  =========                 |
  \\      /  F ield         | OpenFOAM: The Open Source CFD Toolbox
   \\    /   O peration     | Website:  https://openfoam.org
    \\  /    A nd           | Version:  4.x
     \\/     M anipulation  |
\*---------------------------------------------------------------------------*/
FoamFile
{
    version     2.0;
    format      ascii;
    class       vectorField;
    location    0;
    object      v;
}
// * * * * * * * * * * * * * * * * * * * * * * * * * * * * * * * * * * * * * //

313
(
( -8.93835e-09 -8.01611e-09 1.05692e-08 )  
( -5.23571e-09 -7.02625e-09 1.27643e-08 )  
( -7.43049e-09 -6.89381e-09 1.0949e-08 )  
( -3.79904e-09 -5.52706e-09 1.20179e-08 )  
( -9.69298e-09 -9.8398e-09 9.40511e-09 )  
( -4.68363e-09 -5.73982e-09 1.08434e-08 )  
( -6.86866e-09 -6.05572e-09 1.2414e-08 )  
( -5.33909e-09 -8.36924e-09 1.11288e-08 )  
( -8.61602e-09 -5.99615e-09 1.13805e-08 )  
( -4.02131e-09 -7.57869e-09 1.14157e-08 )  
( -3.74446e-09 -3.29244e-09 1.05634e-08 )  
( -1.2057e-08 -4.82653e-09 6.70754e-09 )  
( -2.1172e-09 -1.24985e-09 4.05183e-09 )  
( -1.19894e-08 -5.90177e-09 5.92531e-09 )  
( -1.23636e-08 -8.80828e-09 9.65946e-09 )  
( -4.6132e-09 -3.00035e-09 5.77614e-09 )  
( -8.13432e-10 -3.7992e-10 1.84073e-09 )  
( -9.31402e-09 -3.66732e-09 5.5873e-09 )  
( -1.07909e-08 -7.09231e-09 8.20102e-09 )  
( -3.53181e-09 -2.0749e-09 5.35454e-09 )  
( -3.28889e-09 -1.27887e-09 5.50105e-09 )  
( -1.43177e-09 -4.8273e-10 2.06158e-09 )  
( -1.07498e-08 -7.32469e-09 9.51098e-09 )  
( -5.72378e-09 -1.16915e-09 7.03488e-09 )  
( -1.13325e-09 -3.54241e-10 1.9339e-09 )  
( -5.03594e-10 -1.87309e-10 8.41332e-10 )  
( -8.48192e-10 -3.25657e-10 1.55382e-09 )  
( -3.11237e-09 -1.18377e-09 4.5607e-09 )  
( -2.67932e-09 -1.35185e-09 3.15691e-09 )  
( -7.48413e-09 -1.58292e-09 5.56145e-09 )  
( -1.01792e-08 -3.04433e-09 6.20624e-09 )  
( -2.2457e-09 -1.36943e-09 4.44697e-09 )  
( -4.08553e-09 -6.09095e-09 1.0545e-08 )  
( -3.40452e-09 -2.23446e-09 4.76725e-09 )  
( -2.37144e-09 -1.67772e-09 4.11948e-09 )  
( -1.37334e-08 -4.88834e-09 5.30835e-09 )  
( -9.04636e-09 -3.7156e-09 5.57486e-09 )  
( -6.26361e-09 -8.43407e-10 3.48111e-09 )  
( -6.3547e-09 -3.18684e-09 2.8462e-09 )  
( -7.6789e-09 -1.51738e-09 4.85119e-09 )  
( -3.52527e-09 -2.34767e-09 4.73637e-09 )  
( -5.38914e-09 -1.29177e-09 4.42678e-09 )  
( -5.85177e-09 -1.45471e-09 4.86159e-09 )  
( -6.67801e-09 -2.44627e-09 4.43495e-09 )  
( -7.27527e-09 -2.87544e-09 7.16003e-09 )  
( -9.63037e-09 -2.88594e-09 4.93738e-09 )  
( -8.89014e-10 -3.77761e-10 1.21924e-09 )  
( -1.24813e-08 -6.25165e-09 7.21714e-09 )  
( -5.31128e-09 -2.92773e-09 -1.72513e-09 )  
( -1.93702e-09 -3.30123e-10 1.90359e-09 )  
( -1.12189e-08 -2.42566e-09 4.50642e-09 )  
( -5.04098e-09 -4.17619e-09 7.19377e-09 )  
( -2.40393e-09 -2.18863e-09 4.12003e-09 )  
( -2.63714e-09 -1.37324e-09 4.01616e-09 )  
( -2.16106e-09 -2.39728e-09 2.66529e-09 )  
( -4.85857e-09 -4.51971e-09 7.20441e-09 )  
( -1.19498e-08 -5.48737e-09 5.7723e-09 )  
( -7.33187e-09 -6.69545e-09 8.8366e-09 )  
( -1.33591e-08 -8.31165e-09 6.59625e-09 )  
( -5.24955e-10 -8.72883e-10 2.02266e-09 )  
( -4.33235e-09 -3.54974e-09 6.68065e-09 )  
( -2.72418e-09 -2.93782e-09 4.85808e-09 )  
( -7.90474e-09 -3.83434e-09 6.76672e-09 )  
( -3.92484e-09 -2.82943e-09 4.79866e-09 )  
( -5.82912e-11 -7.12605e-10 9.33741e-10 )  
( -6.60064e-09 -2.29366e-09 4.99771e-09 )  
( -1.74313e-09 -5.98679e-10 2.7262e-09 )  
( -3.99344e-09 -2.58259e-09 6.20421e-09 )  
( -9.52256e-09 -8.36395e-09 1.02359e-08 )  
( -1.05604e-08 -3.33465e-09 5.10894e-09 )  
( -3.20808e-09 -6.61952e-09 1.0757e-08 )  
( -1.07438e-08 -7.07745e-09 8.23479e-09 )  
( -1.14905e-08 -1.00414e-08 1.11749e-08 )  
( -3.23112e-09 -2.15478e-09 4.70076e-09 )  
( -2.85328e-09 -1.80124e-09 2.952e-09 )  
( -5.32741e-09 -2.5242e-09 5.83948e-09 )  
( -2.30212e-09 -1.62721e-09 3.97248e-09 )  
( -1.01674e-08 -4.67852e-09 5.11165e-09 )  
( -8.61866e-09 -2.852e-09 4.37424e-09 )  
( -1.59484e-09 -7.13774e-10 2.28086e-09 )  
( -4.78423e-09 -2.61984e-09 3.79478e-09 )  
( -3.50022e-09 -9.14182e-10 4.18674e-09 )  
( -1.3201e-09 -8.93395e-10 1.42054e-09 )  
( -8.20745e-09 -2.26855e-09 5.29871e-09 )  
( -6.3888e-10 5.346e-11 4.78207e-10 )  
( -7.39171e-09 -6.44259e-09 7.39306e-09 )  
( -1.53311e-09 -6.36929e-10 3.13737e-09 )  
( -5.97374e-09 -4.16955e-09 6.3258e-09 )  
( -5.52259e-10 -2.23658e-10 6.59729e-10 )  
( -9.32281e-10 -9.4479e-11 1.38353e-09 )  
( -8.80604e-09 -4.75733e-09 5.90268e-09 )  
( -7.79803e-10 -1.0541e-09 2.73427e-09 )  
( -1.8717e-09 -1.49463e-09 1.77688e-09 )  
( -1.10788e-09 -4.51148e-10 2.26963e-09 )  
( -4.6172e-09 -3.3419e-09 6.18796e-09 )  
( -9.21984e-09 -4.80887e-09 8.45652e-09 )  
( -9.28335e-09 -4.38772e-09 4.51448e-09 )  
( 9.42695e-11 -2.74256e-10 1.70279e-09 )  
( -1.26013e-08 -4.19173e-09 5.89348e-09 )  
( -1.2885e-09 -1.66396e-09 1.73655e-09 )  
( -6.76152e-09 -2.40068e-09 4.76129e-09 )  
( -2.71028e-09 -1.19111e-10 2.23194e-09 )  
( -1.71885e-08 -7.28566e-09 7.56304e-09 )  
( -1.3457e-08 -7.30718e-09 8.41161e-09 )  
( -1.06097e-08 -3.73229e-09 5.29019e-09 )  
( -1.25328e-08 -6.43725e-09 9.99029e-09 )  
( -2.45774e-09 -8.49499e-10 3.96744e-09 )  
( -9.75412e-09 -8.97073e-09 9.13093e-09 )  
( -7.40763e-09 -2.04577e-09 4.76823e-09 )  
( -3.72111e-09 -2.85607e-09 5.88054e-09 )  
( -4.94478e-09 -1.01727e-09 3.27176e-09 )  
( -1.1727e-08 -5.3863e-09 8.5163e-09 )  
( -1.06323e-08 -4.62242e-09 6.10903e-09 )  
( -3.08926e-09 -2.4302e-10 3.28907e-09 )  
( -3.72354e-09 -1.45116e-09 1.96234e-09 )  
( -6.95961e-09 -7.28258e-09 9.31396e-09 )  
( -4.61146e-09 -1.71832e-09 1.65706e-09 )  
( -1.0577e-08 -8.1051e-09 1.13212e-08 )  
( -3.66331e-09 -1.76879e-09 6.94266e-09 )  
( -2.74507e-09 -1.42583e-09 4.3558e-09 )  
( -1.709e-09 -7.25296e-12 3.64194e-09 )  
( -3.08556e-09 -2.20476e-09 5.15015e-09 )  
( -6.40845e-10 4.26936e-10 3.49547e-10 )  
( -1.12454e-08 -9.07777e-09 8.91857e-09 )  
( -3.02172e-09 -1.52736e-09 3.08985e-09 )  
( -1.82759e-09 -4.87652e-10 2.8472e-09 )  
( -4.97884e-09 -3.00093e-09 4.18674e-09 )  
( -7.828e-09 -3.0593e-09 4.49878e-09 )  
( -6.84334e-10 -2.47217e-10 8.90485e-10 )  
( -2.70817e-09 -1.86593e-11 1.65733e-09 )  
( -1.15172e-08 -3.63192e-09 5.69384e-09 )  
( -1.32259e-09 -2.94167e-10 1.14461e-09 )  
( -1.32904e-08 -6.32267e-09 7.33493e-09 )  
( -1.47976e-08 -1.00691e-08 6.07007e-09 )  
( -2.48188e-09 -7.81705e-10 3.76781e-09 )  
( -7.63065e-10 -3.32224e-10 2.54899e-09 )  
( -3.80546e-10 -7.55118e-10 2.2614e-09 )  
( -1.37192e-08 -4.28218e-09 6.63292e-09 )  
( -3.2706e-10 -1.68795e-10 9.13552e-10 )  
( -4.32699e-09 -1.55635e-09 1.43492e-09 )  
( -1.28987e-09 -3.39514e-10 1.5788e-09 )  
( -7.99123e-10 -1.25177e-09 1.18626e-09 )  
( -8.1626e-09 -7.36327e-09 7.93066e-09 )  
( -8.13034e-09 -7.9924e-09 8.84176e-09 )  
( -1.41022e-09 -6.11713e-10 2.39689e-09 )  
( -1.0369e-08 -6.69166e-09 1.03831e-08 )  
( -1.68033e-09 -1.69094e-09 1.68062e-09 )  
( -1.26905e-08 -7.60515e-09 7.94469e-09 )  
( -1.38305e-09 -3.20909e-10 1.38696e-09 )  
( -9.46944e-10 -1.22824e-09 2.72528e-09 )  
( -2.37079e-09 -1.57338e-09 3.60288e-09 )  
( -1.82547e-09 -6.45255e-10 3.51212e-09 )  
( -1.34554e-09 -1.85033e-09 3.41633e-09 )  
( -2.81668e-09 -5.5254e-09 6.22583e-09 )  
( -3.11524e-09 -1.62014e-09 4.60143e-09 )  
( -1.1166e-09 -1.06029e-09 2.26023e-09 )  
( -3.37664e-09 -2.16279e-09 4.67223e-09 )  
( -5.68901e-09 -4.41251e-09 6.08293e-09 )  
( -3.77055e-09 -2.71512e-09 4.6981e-09 )  
( -3.227e-09 1.15262e-10 3.0275e-09 )  
( -3.21168e-09 -1.96345e-09 4.14215e-09 )  
( -3.48386e-09 -3.05568e-09 4.9544e-09 )  
( -3.90198e-10 1.18361e-10 1.38792e-09 )  
( -3.71075e-09 -2.97452e-09 6.10477e-09 )  
( -2.78429e-10 2.54252e-11 2.04858e-10 )  
( -6.63815e-10 -3.78206e-10 5.5818e-10 )  
( -7.14352e-10 -7.77994e-10 1.14354e-09 )  
( -4.0736e-09 -1.04131e-09 4.11562e-09 )  
( -5.91489e-09 -2.12001e-09 4.06567e-09 )  
( -5.35881e-11 -5.94281e-13 1.12934e-09 )  
( -9.41612e-10 -6.1772e-10 1.45599e-09 )  
( -4.18354e-10 -1.14781e-10 1.15653e-09 )  
( -1.5607e-09 -1.88687e-09 3.51215e-09 )  
( -1.23251e-09 -1.52623e-10 2.17678e-09 )  
( -6.48923e-09 -7.74286e-09 6.95641e-09 )  
( -4.47675e-09 -3.48956e-09 5.63776e-09 )  
( -1.55177e-09 -4.0565e-10 1.93975e-09 )  
( -7.13764e-11 1.01845e-10 3.66812e-10 )  
( -2.16203e-09 -9.83536e-10 2.779e-09 )  
( -4.74428e-09 -2.08315e-09 3.65782e-09 )  
( -2.06116e-09 -1.28469e-09 2.68107e-09 )  
( -4.51898e-09 -4.32676e-09 6.11351e-09 )  
( -7.51297e-10 -6.83856e-10 1.19833e-09 )  
( -2.0569e-09 -3.24855e-09 4.21599e-09 )  
( -1.47245e-09 -2.60884e-10 2.70132e-09 )  
( -5.65486e-10 -1.02914e-09 1.3217e-09 )  
( -9.38158e-10 -5.13158e-11 1.83035e-09 )  
( -1.9894e-09 -1.06743e-09 3.47903e-09 )  
( -1.72815e-09 -6.91431e-10 2.86909e-09 )  
( -1.3543e-09 -6.71964e-10 2.38495e-09 )  
( -2.3545e-09 -1.20241e-09 3.66116e-09 )  
( -7.89006e-10 -4.55393e-10 1.01977e-09 )  
( -5.04706e-10 -8.94346e-10 1.5436e-09 )  
( -3.59125e-09 -3.72087e-09 5.57011e-09 )  
( -5.76367e-09 -6.30954e-09 5.59759e-09 )  
( -4.43917e-09 -3.14221e-09 4.69394e-09 )  
( -3.35065e-09 -1.53834e-09 4.37196e-09 )  
( -1.56497e-09 -2.39375e-10 2.25495e-09 )  
( -5.86386e-10 -7.00369e-10 6.11217e-10 )  
( -1.17042e-09 -3.08569e-10 1.70939e-09 )  
( -4.98308e-09 -5.321e-09 5.85095e-09 )  
( -6.11347e-10 -3.07934e-10 1.20735e-09 )  
( -7.38903e-09 -3.67618e-09 6.25841e-09 )  
( -3.11355e-09 -3.12593e-09 5.66121e-09 )  
( -1.86111e-09 -1.99733e-09 4.12884e-09 )  
( -1.96362e-09 -1.24726e-09 2.83279e-09 )  
( -4.47072e-09 -3.99086e-09 6.78749e-09 )  
( -6.87967e-10 -4.45707e-10 1.99082e-09 )  
( -3.48125e-09 -1.17389e-09 2.88729e-09 )  
( -2.49051e-10 -6.36514e-10 4.68876e-10 )  
( -3.99545e-09 -2.92342e-09 5.11076e-09 )  
( -2.83312e-10 -1.67449e-10 3.20865e-10 )  
( -9.16984e-09 -3.89131e-09 5.96311e-09 )  
( -4.36119e-09 -3.00756e-09 4.9533e-09 )  
( -5.72093e-10 -2.08367e-09 2.59231e-09 )  
( -3.65252e-10 -2.48857e-10 7.54376e-10 )  
( -8.89455e-11 -1.41805e-10 3.74115e-10 )  
( -1.46811e-09 -1.581e-09 3.60252e-09 )  
( -1.54392e-08 -3.44393e-09 5.31721e-09 )  
( -1.28676e-09 -4.32492e-11 1.71082e-09 )  
( -6.8437e-09 -5.6137e-09 1.02934e-08 )  
( -9.28405e-10 -1.87456e-10 8.02857e-10 )  
( -6.41843e-09 -5.39217e-10 1.15892e-09 )  
( -4.19686e-09 -2.66004e-09 5.45437e-09 )  
( -9.4615e-09 -7.07478e-09 9.46284e-09 )  
( -5.24007e-09 -4.50241e-09 9.22804e-09 )  
( -7.93515e-09 -3.8379e-09 5.22878e-09 )  
( -1.30438e-09 -6.08243e-10 2.08276e-09 )  
( -1.16622e-08 -5.87712e-09 7.2867e-09 )  
( -3.23011e-09 -2.41813e-09 4.74744e-09 )  
( -2.34646e-09 -4.71021e-09 9.02461e-09 )  
( -2.85625e-09 -1.00251e-09 1.37856e-09 )  
( -5.12578e-09 -4.40012e-09 7.03893e-09 )  
( -6.12062e-09 -9.73475e-09 1.08421e-08 )  
( -1.38666e-09 -7.29753e-10 1.20631e-09 )  
( -4.45363e-09 -2.22668e-09 5.55654e-09 )  
( -3.0309e-09 -2.49502e-09 4.05487e-09 )  
( -3.34519e-09 -1.03083e-09 3.75852e-09 )  
( -6.02075e-09 -4.91583e-09 7.68131e-09 )  
( -8.59998e-09 -4.22112e-09 5.17917e-09 )  
( -1.16859e-09 -5.15834e-10 2.79226e-09 )  
( -8.69799e-10 -9.80161e-10 2.61972e-09 )  
( -7.57967e-10 -1.72184e-10 1.97962e-09 )  
( -5.96478e-09 -6.34435e-09 8.79401e-09 )  
( -2.13094e-09 -1.96582e-09 2.98508e-09 )  
( -6.46492e-09 -2.03497e-09 3.80452e-09 )  
( -2.48696e-09 -2.06266e-09 4.1225e-09 )  
( -1.79362e-09 -9.02251e-10 2.81863e-09 )  
( -8.51558e-09 -5.22969e-09 7.09079e-09 )  
( -6.07285e-09 -2.1297e-09 4.56326e-09 )  
( -1.56146e-09 -1.23066e-09 3.61112e-09 )  
( -1.04593e-09 -7.17015e-10 2.74314e-09 )  
( -1.03177e-09 -5.29313e-10 1.32271e-09 )  
( -6.17265e-10 -2.8096e-10 7.72561e-10 )  
( -2.23042e-09 -3.66022e-09 4.71511e-09 )  
( -1.60049e-08 -6.27285e-09 7.96912e-09 )  
( -1.14528e-09 -3.09367e-10 1.66698e-09 )  
( -9.62135e-09 -2.82064e-09 4.48408e-09 )  
( -7.86081e-09 -1.09872e-08 5.75026e-09 )  
( -9.52802e-09 -6.67838e-09 1.08503e-08 )  
( -2.12406e-09 -1.0883e-09 4.16812e-09 )  
( -6.34673e-09 -4.97039e-09 6.6072e-09 )  
( -2.50361e-09 -1.63808e-09 4.74476e-09 )  
( -3.45554e-09 -1.13702e-09 4.50031e-09 )  
( -8.65359e-09 -3.31448e-09 5.51444e-09 )  
( -9.30574e-09 -7.44767e-09 4.56188e-09 )  
( -1.25823e-09 8.84486e-11 1.18306e-09 )  
( -1.04857e-08 -6.20456e-09 7.74772e-09 )  
( -3.70568e-09 -1.83043e-09 5.06052e-09 )  
( -6.26844e-10 -1.3102e-09 2.98454e-09 )  
( -1.16702e-08 -6.2949e-09 9.71333e-09 )  
( -1.71464e-09 -8.48472e-10 3.55689e-09 )  
( -4.78948e-12 -4.62079e-10 2.13401e-09 )  
( -3.32125e-09 -2.67096e-09 5.32081e-09 )  
( -1.28474e-09 -1.36671e-09 1.18321e-09 )  
( -7.71452e-09 -5.20912e-09 6.91536e-09 )  
( -5.03098e-09 -4.43656e-09 6.63062e-09 )  
( -9.29796e-09 -3.00494e-09 5.48968e-09 )  
( -1.09259e-08 -8.07182e-09 1.05977e-08 )  
( 9.22608e-11 -5.62144e-10 8.47173e-10 )  
( -1.27861e-08 -1.11815e-08 7.74934e-09 )  
( -1.82178e-09 -2.11528e-09 5.19492e-09 )  
( -1.59818e-08 -1.40149e-08 5.91237e-09 )  
( -5.83029e-10 -2.10115e-10 7.51147e-10 )  
( -1.30132e-08 1.42451e-10 6.16157e-09 )  
( -3.5959e-09 -2.07953e-10 4.64618e-10 )  
( -6.55612e-09 -3.16018e-09 4.60302e-09 )  
( -4.23422e-09 -3.08296e-09 6.22287e-09 )  
( -3.17679e-09 -1.61672e-09 4.58694e-09 )  
( -7.07006e-09 -3.14383e-09 3.94896e-09 )  
( -6.03169e-11 -8.29631e-10 2.41602e-09 )  
( -8.06968e-09 -6.9711e-09 3.95669e-09 )  
( -5.20697e-09 -1.553e-09 4.01999e-09 )  
( -2.13302e-08 -1.35071e-08 7.4925e-09 )  
( -4.41276e-09 -3.93077e-09 7.00015e-09 )  
( -2.96099e-09 -8.32216e-10 2.54693e-09 )  
( -9.58338e-10 -6.83763e-10 5.52986e-10 )  
( -1.83055e-08 -6.44872e-09 6.54857e-09 )  
( -1.39544e-08 -6.90012e-09 9.26129e-09 )  
( 9.9846e-09 -2.23552e-08 2.56943e-11 )  
( -6.95552e-10 2.86933e-10 9.44195e-10 )  
( -2.64869e-08 9.96262e-09 2.20209e-09 )  
( -4.19785e-10 -8.49435e-10 2.41442e-09 )  
( -1.49949e-08 -2.01143e-08 9.55154e-09 )  
( 1.41802e-09 -1.15091e-09 1.85765e-09 )  
( -4.61614e-09 -1.47019e-09 4.77177e-09 )  
( -3.38517e-09 -2.15217e-09 5.37316e-09 )  
( -1.03616e-08 -4.40049e-09 7.04666e-09 )  
( -4.92743e-09 -3.19337e-09 4.60956e-09 )  
( -1.143e-08 -4.03341e-09 4.97522e-09 )  
( -1.68132e-09 -1.60531e-09 2.55853e-09 )  
( -1.45627e-08 -8.60362e-09 6.23189e-09 )  
( -9.68061e-09 -9.35714e-09 1.00822e-08 )  
)
