/*--------------------------------*- C++ -*----------------------------------*\
| =========                 |                                                 |
| \\      /  F ield         | OpenFOAM: The Open Source CFD Toolbox           |
|  \\    /   O peration     | Version:  4.x                                   |
|   \\  /    A nd           | Web:      www.OpenFOAM.org                      |
|    \\/     M anipulation  |                                                 |
\*---------------------------------------------------------------------------*/
FoamFile
{
    version     2.0;
    format      ascii;
    class       volVectorField;
    location    "35.5";
    object      impParticleForces;
}
// * * * * * * * * * * * * * * * * * * * * * * * * * * * * * * * * * * * * * //

dimensions      [1 1 -2 0 0 0 0];

internalField   nonuniform List<vector> 
114
(
(0.00240196 -9.66949e-07 -8.63175e-05)
(0.00243852 8.97802e-07 -8.06452e-05)
(0.00243609 3.64484e-06 -7.20562e-05)
(0.00247031 7.07465e-06 -6.45112e-05)
(0.00244651 1.18807e-05 -5.48241e-05)
(0.00245836 1.75148e-05 -4.65997e-05)
(0.00231068 5.91429e-06 -9.05333e-05)
(0.00233772 6.79244e-06 -9.15314e-05)
(0.0023817 7.90985e-06 -9.05056e-05)
(0.00239878 8.7168e-06 -8.56127e-05)
(0.0024432 9.76411e-06 -8.04217e-05)
(0.00243652 1.04439e-05 -7.185e-05)
(0.0024715 1.18956e-05 -6.44763e-05)
(0.00245365 1.36531e-05 -5.52131e-05)
(0.00245413 1.61487e-05 -4.68726e-05)
(0.00228475 1.36231e-05 -8.79831e-05)
(0.00231699 1.46419e-05 -8.92866e-05)
(0.00236043 1.57008e-05 -8.83621e-05)
(0.00238019 1.59357e-05 -8.37202e-05)
(0.0024256 1.65289e-05 -7.87003e-05)
(0.00242274 1.58815e-05 -7.07157e-05)
(0.00245955 1.62255e-05 -6.36159e-05)
(0.00245054 1.59882e-05 -5.49989e-05)
(0.00246637 1.65898e-05 -4.75067e-05)
(0.00224732 1.64373e-05 -8.50216e-05)
(0.00226849 1.72106e-05 -8.54575e-05)
(0.00232165 1.83508e-05 -8.50292e-05)
(0.00233367 1.81848e-05 -8.04691e-05)
(0.00236677 1.82149e-05 -7.5375e-05)
(0.00237342 1.73955e-05 -6.82493e-05)
(0.00239018 1.69381e-05 -6.11457e-05)
(0.00240772 1.63151e-05 -5.38172e-05)
(0.00242357 1.60378e-05 -4.66818e-05)
(0.00249916 2.76517e-06 -7.28915e-05)
(0.00253486 5.94724e-06 -6.51602e-05)
(0.00247845 1.03543e-05 -5.41245e-05)
(0.00249911 1.52243e-05 -4.59443e-05)
(0.00233775 6.68777e-06 -8.98813e-05)
(0.00238519 7.69219e-06 -9.23515e-05)
(0.00245012 9.11547e-06 -9.31067e-05)
(0.00245991 9.82105e-06 -8.71968e-05)
(0.00249523 1.07591e-05 -8.12925e-05)
(0.00247759 1.08264e-05 -7.18268e-05)
(0.00252154 1.20354e-05 -6.47738e-05)
(0.00248277 1.32295e-05 -5.47909e-05)
(0.00248059 1.51853e-05 -4.62298e-05)
(0.00232222 1.51944e-05 -8.82381e-05)
(0.00237513 1.68453e-05 -9.09933e-05)
(0.00244667 1.88374e-05 -9.2133e-05)
(0.00244831 1.82182e-05 -8.58282e-05)
(0.00247692 1.82919e-05 -7.97765e-05)
(0.00247225 1.72639e-05 -7.13741e-05)
(0.00250283 1.71914e-05 -6.41466e-05)
(0.00248186 1.6338e-05 -5.52647e-05)
(0.00249261 1.64255e-05 -4.7491e-05)
(0.00227338 1.78083e-05 -8.4362e-05)
(0.0023116 1.90986e-05 -8.58545e-05)
(0.00238381 2.0956e-05 -8.70249e-05)
(0.00237951 2.01127e-05 -8.11719e-05)
(0.00240302 1.97108e-05 -7.54983e-05)
(0.00241321 1.86789e-05 -6.85249e-05)
(0.00243401 1.80393e-05 -6.14658e-05)
(0.00242975 1.67555e-05 -5.37846e-05)
(0.00243209 1.59887e-05 -4.6391e-05)
(0.0024435 8.04708e-06 -4.86879e-05)
(0.00244858 1.17959e-05 -4.0749e-05)
(0.00236296 7.59035e-06 -8.40316e-05)
(0.00239346 8.46591e-06 -8.50526e-05)
(0.00244943 9.80594e-06 -8.51648e-05)
(0.00245301 1.01721e-05 -7.96693e-05)
(0.00247504 1.0615e-05 -7.36506e-05)
(0.00246095 1.05914e-05 -6.53397e-05)
(0.00248715 1.13399e-05 -5.82558e-05)
(0.00244845 1.20022e-05 -4.94152e-05)
(0.00244715 1.32674e-05 -4.16437e-05)
(0.00233242 1.61155e-05 -8.14374e-05)
(0.00237711 1.77381e-05 -8.34293e-05)
(0.00245071 1.99951e-05 -8.46813e-05)
(0.00245553 1.94074e-05 -7.9635e-05)
(0.00247371 1.90743e-05 -7.33559e-05)
(0.00245196 1.73388e-05 -6.5058e-05)
(0.00248915 1.7201e-05 -5.86692e-05)
(0.00245793 1.58457e-05 -5.06226e-05)
(0.00247478 1.5503e-05 -4.37995e-05)
(0.00229222 1.91043e-05 -7.86658e-05)
(0.0023313 2.06826e-05 -8.02131e-05)
(0.00238894 2.22482e-05 -8.04199e-05)
(0.002396 2.15663e-05 -7.60671e-05)
(0.00239746 2.03722e-05 -6.9548e-05)
(0.00241062 1.92957e-05 -6.34115e-05)
(0.0024458 1.87669e-05 -5.7515e-05)
(0.00241575 1.66742e-05 -5.00188e-05)
(0.00243204 1.56554e-05 -4.37195e-05)
(0.00236615 8.29771e-06 -7.15096e-05)
(0.00241394 9.45441e-06 -7.26689e-05)
(0.0024648 1.09349e-05 -7.24139e-05)
(0.00244419 1.05259e-05 -6.68299e-05)
(0.002462 1.08524e-05 -6.17573e-05)
(0.00243138 1.03007e-05 -5.45365e-05)
(0.00244851 1.06351e-05 -4.84356e-05)
(0.00240768 1.06229e-05 -4.13028e-05)
(0.00233895 1.70997e-05 -6.97921e-05)
(0.00238474 1.89051e-05 -7.12421e-05)
(0.00245251 2.11422e-05 -7.16212e-05)
(0.0024339 1.94056e-05 -6.66189e-05)
(0.002464 1.94268e-05 -6.22081e-05)
(0.00243468 1.73023e-05 -5.53612e-05)
(0.00245918 1.6649e-05 -4.98015e-05)
(0.00228659 1.96721e-05 -6.73871e-05)
(0.00232706 2.12736e-05 -6.86677e-05)
(0.00239132 2.30905e-05 -6.91105e-05)
(0.00238974 2.18899e-05 -6.51857e-05)
(0.00241509 2.1262e-05 -6.07613e-05)
(0.00239737 1.92104e-05 -5.45772e-05)
)
;

boundaryField
{
    inlet
    {
        type            zeroGradient;
    }
    outlet
    {
        type            zeroGradient;
    }
    wall
    {
        type            zeroGradient;
    }
    procBoundary2to0
    {
        type            processor;
        value           nonuniform List<vector> 
44
(
(0.00239382 -9.99694e-06 -8.55496e-05)
(0.00244356 -7.23202e-06 -8.06281e-05)
(0.00243815 -2.41139e-06 -7.18996e-05)
(0.0024556 3.47235e-06 -6.37516e-05)
(0.00245261 1.18459e-05 -5.48242e-05)
(0.00248595 2.24828e-05 -4.72622e-05)
(0.00230363 -3.96967e-06 -9.09367e-05)
(0.00232467 -3.50295e-06 -9.12797e-05)
(0.00236228 -2.51971e-06 -8.9926e-05)
(0.00236228 -2.51971e-06 -8.9926e-05)
(0.00244805 -1.47838e-06 -8.68189e-05)
(0.00251208 4.04201e-07 -8.26859e-05)
(0.00248551 -4.27542e-06 -7.1801e-05)
(0.00252476 1.02519e-06 -6.42894e-05)
(0.00247803 8.91254e-06 -5.38426e-05)
(0.00248934 1.78832e-05 -4.54339e-05)
(0.0023604 -4.26949e-06 -9.24968e-05)
(0.00238492 -3.92185e-06 -9.31166e-05)
(0.00244028 -3.17654e-06 -9.32896e-05)
(0.00244805 -1.47838e-06 -8.68189e-05)
(0.00251208 4.04201e-07 -8.26859e-05)
(0.00251208 4.04201e-07 -8.26859e-05)
(0.00247588 1.95869e-06 -6.59688e-05)
(0.00249345 4.46751e-06 -5.81307e-05)
(0.00244523 5.33641e-06 -4.87675e-05)
(0.00244716 1.21451e-05 -4.07579e-05)
(0.00237453 -4.33683e-06 -8.54678e-05)
(0.00240843 -4.15857e-06 -8.70113e-05)
(0.0024678 -3.50229e-06 -8.71962e-05)
(0.00246527 -1.94658e-06 -8.08016e-05)
(0.00249828 -3.44444e-07 -7.50888e-05)
(0.00247588 1.95869e-06 -6.59688e-05)
(0.00249345 4.46751e-06 -5.81307e-05)
(0.00249345 4.46751e-06 -5.81307e-05)
(0.00239717 6.08381e-06 -4.03031e-05)
(0.00239066 8.75232e-06 -3.36388e-05)
(0.00235974 -4.4142e-06 -7.15221e-05)
(0.00240409 -4.21345e-06 -7.27768e-05)
(0.00246902 -3.63659e-06 -7.26266e-05)
(0.00245755 -2.15204e-06 -6.7379e-05)
(0.00245905 -6.00065e-07 -6.13322e-05)
(0.00244463 1.28082e-06 -5.452e-05)
(0.00245456 3.49871e-06 -4.7972e-05)
(0.00239717 6.08381e-06 -4.03031e-05)
)
;
    }
    procBoundary2to3
    {
        type            processor;
        value           nonuniform List<vector> 
12
(
(0.00248782 2.34686e-05 -3.91413e-05)
(0.00248211 1.86479e-05 -3.95538e-05)
(0.00247882 1.70943e-05 -4.02903e-05)
(0.00241559 1.54798e-05 -3.95951e-05)
(0.00248888 2.02569e-05 -3.77619e-05)
(0.00249259 1.72778e-05 -3.8714e-05)
(0.0025224 1.67065e-05 -4.09372e-05)
(0.00245665 1.52025e-05 -4.03585e-05)
(0.0024451 1.54552e-05 -3.33263e-05)
(0.00245027 1.45611e-05 -3.47023e-05)
(0.0024597 1.47856e-05 -3.70079e-05)
(0.0024322 1.43827e-05 -3.80426e-05)
)
;
    }
    procBoundary2to6
    {
        type            processor;
        value           nonuniform List<vector> 
32
(
(0.00242097 1.11805e-05 -3.49886e-05)
(0.00242019 1.48274e-05 -4.30949e-05)
(0.00244032 1.40002e-05 -3.74261e-05)
(0.00240523 1.77626e-05 -4.88843e-05)
(0.00238958 1.58059e-05 -4.32915e-05)
(0.00239886 1.42055e-05 -3.8027e-05)
(0.00238709 8.8701e-06 -5.65905e-05)
(0.00241213 9.27315e-06 -5.60464e-05)
(0.00243577 9.96984e-06 -5.42843e-05)
(0.00243123 9.72292e-06 -5.09745e-05)
(0.00245672 9.94518e-06 -4.73608e-05)
(0.00241639 9.24864e-06 -4.23067e-05)
(0.00243417 9.19449e-06 -3.77501e-05)
(0.00242097 1.11805e-05 -3.49886e-05)
(0.00242019 1.48274e-05 -4.30949e-05)
(0.00238942 8.87493e-06 -3.28341e-05)
(0.00235281 1.81697e-05 -5.56798e-05)
(0.00238859 1.93661e-05 -5.56862e-05)
(0.00242838 2.04312e-05 -5.44032e-05)
(0.00243072 1.92097e-05 -5.1601e-05)
(0.00245276 1.86059e-05 -4.81515e-05)
(0.00242632 1.65857e-05 -4.36689e-05)
(0.00242019 1.48274e-05 -4.30949e-05)
(0.00240523 1.77626e-05 -4.88843e-05)
(0.00244174 1.54396e-05 -3.91659e-05)
(0.00229717 2.04498e-05 -5.47579e-05)
(0.00232997 2.17606e-05 -5.5037e-05)
(0.00236054 2.21478e-05 -5.39345e-05)
(0.00237248 2.12671e-05 -5.15481e-05)
(0.00241278 2.09313e-05 -4.83131e-05)
(0.00240523 1.77626e-05 -4.88843e-05)
(0.00240493 1.91229e-05 -4.43573e-05)
)
;
    }
}


// ************************************************************************* //
