/*--------------------------------*- C++ -*----------------------------------*\
| =========                 |                                                 |
| \\      /  F ield         | OpenFOAM: The Open Source CFD Toolbox           |
|  \\    /   O peration     | Version:  4.x                                   |
|   \\  /    A nd           | Web:      www.OpenFOAM.org                      |
|    \\/     M anipulation  |                                                 |
\*---------------------------------------------------------------------------*/
FoamFile
{
    version     2.0;
    format      ascii;
    class       volScalarField;
    location    "35.5";
    object      KslNext;
}
// * * * * * * * * * * * * * * * * * * * * * * * * * * * * * * * * * * * * * //

dimensions      [1 -3 -1 0 0 0 0];

internalField   nonuniform List<scalar> 
114
(
6319.88
3157.47
5593.81
3053.83
5185.32
2912.59
3401.92
8025.33
3328.88
6906.6
3273.05
6329.04
3196.66
6032.23
3093.94
3347.16
7551.54
3227.32
6198.38
3141.36
5539.28
3039.83
5175.71
2925.5
3294.31
6750.9
3091.98
5268.67
2906.85
4490.97
2732.94
4040.91
2621.87
13262.5
3698.22
15876.9
3586.79
3445.72
9848.7
3593.5
11525.8
3686.3
13858.8
3717.11
17551.4
3650.27
3410.5
9205.15
3526.04
9724.99
3546.55
10260.4
3539.82
11236.2
3466.19
3336.86
7579.68
3297.88
6563.79
3172.43
5923.18
3083.61
5546.08
2972.17
45911.6
3764.75
3496.32
10362.7
3684.12
13847.9
3767.79
19647.8
3788.49
32979.5
3757.5
3437.3
9933.55
3627.12
12503.8
3702.65
16145.1
3734.02
24553.1
3700.07
3367.57
8102.76
3381.16
7511.77
3299.19
6981.39
3278.58
6794.26
3182.71
3510.28
11414.7
3758.9
17295.7
3838.34
28070.8
3863.66
58185.7
3462.97
9946.18
3656.49
12062.7
3699.08
14252.9
3669.58
3359.58
7982.77
3395.14
7555.39
3346.92
7148.44
)
;

boundaryField
{
    inlet
    {
        type            zeroGradient;
    }
    outlet
    {
        type            zeroGradient;
    }
    wall
    {
        type            zeroGradient;
    }
    procBoundary2to0
    {
        type            processor;
        value           uniform 0;
    }
    procBoundary2to3
    {
        type            processor;
        value           uniform 0;
    }
    procBoundary2to6
    {
        type            processor;
        value           uniform 0;
    }
}


// ************************************************************************* //
