/*--------------------------------*- C++ -*----------------------------------*\
| =========                 |                                                 |
| \\      /  F ield         | OpenFOAM: The Open Source CFD Toolbox           |
|  \\    /   O peration     | Version:  4.x                                   |
|   \\  /    A nd           | Web:      www.OpenFOAM.org                      |
|    \\/     M anipulation  |                                                 |
\*---------------------------------------------------------------------------*/
FoamFile
{
    version     2.0;
    format      ascii;
    class       surfaceScalarField;
    location    "35.5";
    object      phi;
}
// * * * * * * * * * * * * * * * * * * * * * * * * * * * * * * * * * * * * * //

dimensions      [0 3 -1 0 0 0 0];

internalField   nonuniform List<scalar> 
259
(
1.00887e-05
-8.49141e-10
1.06538e-05
-1.16596e-08
1.08835e-05
-3.92349e-08
-2.65803e-07
1.12773e-05
-4.63962e-08
-4.78273e-07
1.14627e-05
-4.26933e-08
-1.74412e-07
-2.30933e-08
-2.80256e-07
8.60833e-06
2.10381e-07
-7.17622e-07
8.85784e-06
1.03372e-07
-3.6648e-07
9.39094e-06
2.3879e-07
-7.76962e-07
9.56283e-06
1.37614e-07
-3.10354e-07
9.94311e-06
2.12503e-07
-6.04446e-07
1.00668e-05
8.42036e-08
-2.47115e-07
1.03169e-05
1.42194e-07
-4.38736e-07
1.04099e-05
2.33691e-08
-1.59004e-07
1.05901e-07
-2.81413e-07
8.80696e-06
2.99469e-07
-7.32781e-07
9.14762e-06
1.49892e-07
-3.87179e-07
9.8609e-06
3.05641e-07
-7.80132e-07
1.01566e-05
1.67479e-07
-3.25549e-07
1.06873e-05
2.89387e-07
-6.07644e-07
1.08993e-05
1.23318e-07
-2.51099e-07
1.12823e-05
2.22568e-07
-4.63377e-07
1.1449e-05
4.14215e-08
-1.84704e-07
1.5055e-07
-3.22072e-07
9.10666e-06
-6.4393e-07
9.63395e-06
-3.77395e-07
1.06066e-05
-6.66982e-07
1.11357e-05
-3.61696e-07
1.19688e-05
-5.43712e-07
1.24227e-05
-3.30543e-07
1.30683e-05
-4.22982e-07
1.33546e-05
-2.44922e-07
-3.23495e-07
7.37283e-06
1.47049e-08
7.18927e-06
5.584e-08
7.20101e-06
1.55251e-09
-1.58886e-07
7.52257e-08
-1.65739e-07
8.0329e-06
2.95901e-07
-8.49681e-07
7.94768e-06
1.23851e-07
-4.07531e-07
7.72109e-06
3.28686e-07
-8.3702e-07
7.59596e-06
1.42373e-07
-2.92927e-07
7.35688e-06
3.31765e-07
-5.98448e-07
7.23824e-06
9.69631e-08
-2.10734e-07
6.99946e-06
2.38015e-07
-3.8213e-07
6.96438e-06
3.40488e-08
-1.56428e-07
1.53995e-07
-2.18024e-07
8.18566e-06
3.74851e-07
-8.34123e-07
8.16242e-06
1.83901e-07
-4.23986e-07
8.13539e-06
4.12333e-07
-8.36756e-07
8.11733e-06
1.67217e-07
-3.32334e-07
8.08813e-06
3.73777e-07
-6.20452e-07
8.06818e-06
1.1603e-07
-2.5022e-07
7.97561e-06
2.97912e-07
-4.30703e-07
7.98231e-06
3.31434e-08
-1.90494e-07
1.88537e-07
-2.48272e-07
8.65804e-06
-7.63858e-07
8.90818e-06
-4.43625e-07
9.42572e-06
-7.72189e-07
9.66677e-06
-4.35537e-07
1.01161e-05
-6.19287e-07
1.03089e-05
-4.07295e-07
1.06466e-05
-4.62777e-07
1.07971e-05
-3.62266e-07
-3.57667e-07
5.84284e-06
-3.79902e-08
-1.24666e-07
7.80164e-06
3.21003e-07
-7.46057e-07
7.62951e-06
1.16142e-07
-3.41324e-07
7.18978e-06
3.18696e-07
-6.67902e-07
7.0312e-06
9.49448e-08
-2.30773e-07
6.64554e-06
2.4873e-07
-4.49995e-07
6.50549e-06
3.84658e-08
-1.46053e-07
6.15656e-06
1.02826e-07
-2.33205e-07
6.05657e-06
1.75082e-08
-1.11933e-07
3.17716e-08
7.93096e-06
3.80076e-07
-6.60894e-07
7.77305e-06
1.76446e-07
-3.26378e-07
7.4173e-06
4.36803e-07
-5.99113e-07
7.27507e-06
1.61643e-07
-2.56803e-07
6.96493e-06
3.76445e-07
-4.38025e-07
6.84486e-06
9.27753e-08
-1.84463e-07
6.48808e-06
2.82126e-07
-2.53218e-07
6.40185e-06
6.5647e-08
1.75877e-07
8.39417e-06
-6.14688e-07
8.49571e-06
-3.68714e-07
8.7797e-06
-6.19384e-07
8.89879e-06
-3.92981e-07
9.18072e-06
-5.2477e-07
9.1968e-06
-3.30601e-07
9.36832e-06
9.43304e-06
7.55662e-06
3.98679e-07
7.26273e-06
1.98105e-07
6.69917e-06
4.62376e-07
6.51226e-06
1.50653e-07
6.11338e-06
3.87021e-07
5.95604e-06
1.27671e-07
5.65837e-06
2.81083e-07
7.80938e-06
4.53274e-07
7.642e-06
2.18229e-07
7.34404e-06
4.69443e-07
7.23261e-06
1.6951e-07
7.02587e-06
3.93643e-07
6.95326e-06
1.40414e-07
8.36166e-06
8.43701e-06
8.65408e-06
8.71738e-06
8.93124e-06
)
;

boundaryField
{
    inlet
    {
        type            calculated;
        value           nonuniform List<scalar> 
12
(
-8.16327e-06
-8.16327e-06
-8.16327e-06
-8.16327e-06
-8.16327e-06
-8.16327e-06
-8.16327e-06
-8.16327e-06
-8.16327e-06
-8.16327e-06
-8.16327e-06
-8.16327e-06
)
;
    }
    outlet
    {
        type            calculated;
        value           nonuniform 0();
    }
    wall
    {
        type            calculated;
        value           nonuniform List<scalar> 
66
(
0
0
0
0
0
0
0
0
0
0
0
0
0
0
0
0
0
0
0
0
0
0
0
0
0
0
0
0
0
0
0
0
0
0
0
0
0
0
0
0
0
0
0
0
0
0
0
0
0
-9.86076e-32
0
0
0
0
0
0
0
0
0
0
0
0
0
0
0
0
)
;
    }
    procBoundary2to0
    {
        type            processor;
        value           nonuniform List<scalar> 
44
(
1.1529e-07
1.538e-07
7.53156e-08
1.30917e-07
3.17176e-08
8.13366e-08
6.21818e-08
1.35902e-08
-9.85317e-06
5.07679e-09
-3.4997e-07
-7.07253e-07
1.7402e-08
5.07169e-08
-2.88153e-08
-2.86239e-08
-3.34771e-08
2.42181e-09
-4.20363e-08
-3.46722e-08
-7.46995e-06
-9.86821e-08
-2.00788e-07
-4.01273e-07
5.18079e-08
1.34473e-07
-6.29988e-08
-1.02183e-08
-4.80857e-08
1.4779e-09
-1.15245e-08
3.69045e-08
-5.94119e-06
9.71766e-08
-7.43485e-08
-4.85508e-08
-8.65516e-08
-7.02725e-08
-1.93373e-07
-6.98487e-08
-1.88984e-07
-5.19703e-08
-9.29986e-08
-2.84798e-08
)
;
    }
    procBoundary2to3
    {
        type            processor;
        value           nonuniform List<scalar> 
12
(
1.16847e-05
1.05623e-05
1.17264e-05
1.38286e-05
7.03989e-06
6.82223e-06
7.87397e-06
1.10198e-05
5.71584e-06
5.74242e-06
6.11688e-06
9.53987e-06
)
;
    }
    procBoundary2to6
    {
        type            processor;
        value           nonuniform List<scalar> 
32
(
-6.03109e-08
-1.52401e-07
-1.0741e-07
-3.52168e-07
-3.61344e-07
-2.88622e-07
-4.51543e-07
-1.75267e-07
-3.73345e-07
-1.24667e-07
-2.4915e-07
-6.44156e-08
-1.23612e-07
5.49937e-06
1.14944e-07
-3.93985e-08
-3.61604e-07
-1.79126e-07
-3.08217e-07
-1.64229e-07
-2.3791e-07
-1.24591e-07
6.84548e-06
3.00883e-07
-1.6524e-07
-3.59804e-07
-2.25838e-07
-3.67017e-07
-2.86766e-07
-3.44992e-07
8.98846e-06
-2.47404e-07
)
;
    }
}


// ************************************************************************* //
