/*--------------------------------*- C++ -*----------------------------------*\
| =========                 |                                                 |
| \\      /  F ield         | OpenFOAM: The Open Source CFD Toolbox           |
|  \\    /   O peration     | Version:  4.x                                   |
|   \\  /    A nd           | Web:      www.OpenFOAM.org                      |
|    \\/     M anipulation  |                                                 |
\*---------------------------------------------------------------------------*/
FoamFile
{
    version     2.0;
    format      ascii;
    class       volVectorField;
    location    "35.5";
    object      Urel;
}
// * * * * * * * * * * * * * * * * * * * * * * * * * * * * * * * * * * * * * //

dimensions      [0 1 -1 0 0 0 0];

internalField   nonuniform List<vector> 
114
(
(-0.0218821 8.56339e-05 0.00108261)
(-0.0232845 7.87432e-05 0.00104327)
(-0.0222934 6.69594e-05 0.000873994)
(-0.0237045 6.22423e-05 0.000798025)
(-0.02269 3.86515e-05 0.000637805)
(-0.0240905 2.57487e-05 0.000564861)
(-0.0236617 -0.000133637 0.00129104)
(-0.0218285 -0.000127117 0.00119543)
(-0.0230103 -0.000145169 0.00120331)
(-0.0218562 -0.000134726 0.00105503)
(-0.0232746 -0.000130156 0.00100703)
(-0.0222546 -9.66039e-05 0.000847627)
(-0.0236986 -8.02668e-05 0.000773663)
(-0.0226456 -5.37363e-05 0.000619562)
(-0.0240864 -5.38325e-05 0.000545772)
(-0.0237869 -0.000370785 0.0012616)
(-0.0220445 -0.000330289 0.00117079)
(-0.0233015 -0.000356961 0.00117449)
(-0.0222929 -0.000316771 0.00103339)
(-0.0237639 -0.000317707 0.000981269)
(-0.0229065 -0.000250737 0.000830963)
(-0.0243752 -0.000230993 0.000759062)
(-0.0234892 -0.000160964 0.000619457)
(-0.0249372 -0.000151179 0.000552692)
(-0.0239168 -0.000428456 0.00122484)
(-0.0223173 -0.000393243 0.00114599)
(-0.0236461 -0.000408361 0.00114231)
(-0.0228511 -0.000365934 0.00102135)
(-0.0243771 -0.000357738 0.000965147)
(-0.0237602 -0.000287545 0.000832985)
(-0.0252472 -0.000257887 0.000756685)
(-0.0246128 -0.000173638 0.000633556)
(-0.0260215 -0.000145922 0.000568768)
(-0.0205426 4.96102e-05 0.000814451)
(-0.0220862 4.09842e-05 0.000744983)
(-0.0204834 2.48749e-05 0.000584575)
(-0.0221571 4.14065e-06 0.000503885)
(-0.023422 -0.000170566 0.00134615)
(-0.021363 -0.000148594 0.00120946)
(-0.0223957 -0.00017063 0.00123219)
(-0.0208099 -0.000152775 0.00103864)
(-0.0221905 -0.000160895 0.00099709)
(-0.0206765 -0.000113962 0.000811608)
(-0.0222301 -0.000101123 0.000742946)
(-0.0206434 -6.61015e-05 0.00059032)
(-0.0223222 -6.43028e-05 0.000518422)
(-0.0235667 -0.000409782 0.00132102)
(-0.0216112 -0.000360408 0.00119721)
(-0.0227211 -0.000396218 0.00122244)
(-0.0213135 -0.000335485 0.00104351)
(-0.0227406 -0.000347688 0.00100567)
(-0.0214359 -0.000262871 0.000833331)
(-0.0229745 -0.000253655 0.000774766)
(-0.0216057 -0.000167217 0.000629113)
(-0.0232328 -0.000157687 0.000565712)
(-0.0237204 -0.000469935 0.00128698)
(-0.0219502 -0.000426878 0.00118113)
(-0.0231401 -0.000449345 0.00119664)
(-0.0220433 -0.000389905 0.00105306)
(-0.0234802 -0.000387058 0.00100698)
(-0.0225388 -0.000303152 0.000868312)
(-0.0239942 -0.000280846 0.000794708)
(-0.0230326 -0.000186951 0.000675104)
(-0.0244807 -0.000160193 0.000610426)
(-0.0187441 4.01337e-05 0.000477434)
(-0.020521 4.06189e-05 0.000385345)
(-0.0231547 -0.000206425 0.00120807)
(-0.0209409 -0.000175683 0.001077)
(-0.021803 -0.000194944 0.00107845)
(-0.0199288 -0.000160013 0.00089762)
(-0.0212149 -0.000160624 0.000847112)
(-0.0193939 -0.000110977 0.000684036)
(-0.020945 -8.49174e-05 0.000614449)
(-0.0190595 -6.14498e-05 0.000494541)
(-0.0207919 -3.79901e-05 0.000413093)
(-0.0233232 -0.000445025 0.0011777)
(-0.021216 -0.000386167 0.0010603)
(-0.0221693 -0.000421667 0.00106409)
(-0.0204713 -0.000346383 0.000908662)
(-0.0218011 -0.000354336 0.00085983)
(-0.0201738 -0.000262105 0.000712757)
(-0.0217024 -0.000248776 0.000642854)
(-0.0199956 -0.000169205 0.000535686)
(-0.0216932 -0.00014869 0.000461037)
(-0.0235018 -0.000508338 0.00115478)
(-0.0215897 -0.000461852 0.00105778)
(-0.0226336 -0.000489826 0.00106549)
(-0.0212823 -0.000417296 0.000942367)
(-0.0226002 -0.000414715 0.000892951)
(-0.021396 -0.000320543 0.000769841)
(-0.0227781 -0.000304381 0.000698123)
(-0.021553 -0.000210977 0.000620149)
(-0.0229859 -0.000177973 0.000552269)
(-0.0229675 -0.000234202 0.00091697)
(-0.0206512 -0.000209516 0.000805181)
(-0.0214213 -0.000237318 0.000799009)
(-0.0193632 -0.000186791 0.000663898)
(-0.0205954 -0.000194558 0.000619395)
(-0.018606 -0.000138942 0.000495483)
(-0.0201331 -0.000123352 0.000438009)
(-0.018137 -8.26746e-05 0.000354491)
(-0.023158 -0.00049303 0.000890204)
(-0.0209921 -0.000425121 0.000798205)
(-0.0218451 -0.000459059 0.000793824)
(-0.0200373 -0.000366932 0.000687819)
(-0.0212747 -0.000376946 0.000647417)
(-0.0195531 -0.000282743 0.00054042)
(-0.0210099 -0.000271662 0.00048727)
(-0.0233639 -0.000544118 0.00087792)
(-0.0214049 -0.000486908 0.000807838)
(-0.0223478 -0.000504519 0.00081279)
(-0.0208812 -0.000424822 0.000734644)
(-0.0220963 -0.000415304 0.000697542)
(-0.0207644 -0.000328741 0.000601244)
)
;

boundaryField
{
    inlet
    {
        type            calculated;
        value           nonuniform List<vector> 
12
(
(-0.01 1.34298e-09 5.4644e-10)
(-0.01 1.49016e-11 4.12867e-10)
(-0.01 -1.42007e-10 2.28559e-10)
(-0.01 -1.86887e-10 3.68631e-10)
(-0.01 -1.29505e-10 5.18781e-10)
(-0.01 -1.02841e-10 2.73154e-10)
(-0.01 -5.45655e-10 5.37079e-10)
(-0.01 -1.84894e-10 3.82801e-10)
(-0.01 -1.28597e-10 3.04915e-10)
(-0.01 -3.16213e-10 4.18253e-10)
(-0.01 -1.18395e-10 2.22294e-10)
(-0.01 -1.40728e-10 2.25385e-10)
)
;
    }
    outlet
    {
        type            calculated;
        value           nonuniform 0();
    }
    wall
    {
        type            calculated;
        value           nonuniform List<vector> 
66
(
(-4.49791e-09 1.34298e-09 5.4644e-10)
(-4.00093e-10 1.49016e-11 4.12867e-10)
(-7.75755e-10 -1.42007e-10 2.28559e-10)
(-6.31328e-10 -6.20466e-10 1.25151e-09)
(-2.38013e-10 -5.10961e-10 1.08908e-09)
(2.04952e-10 -3.30698e-10 6.9687e-10)
(-1.60931e-09 -9.39469e-10 2.03389e-09)
(-1.45746e-09 -6.92667e-10 1.60971e-09)
(-6.13696e-10 -4.96483e-10 3.08452e-10)
(-1.43934e-09 -1.45568e-09 2.57395e-09)
(-2.38887e-09 -1.65903e-09 2.77486e-09)
(-2.33669e-09 -7.84821e-10 1.94404e-09)
(1.74455e-09 -5.56212e-09 7.49255e-10)
(-2.30194e-09 -1.93799e-09 2.97756e-09)
(-4.10227e-09 -2.3051e-09 3.19513e-09)
(-3.57475e-09 -1.55409e-09 2.32769e-09)
(-2.51226e-09 -1.46116e-09 2.07534e-09)
(-4.17796e-09 -3.24104e-09 4.85864e-09)
(-5.24904e-09 -3.36945e-09 4.3716e-09)
(-4.47404e-09 -2.02568e-09 2.91676e-09)
(-1.95453e-09 -8.89678e-10 1.5169e-09)
(-4.66184e-09 -3.92095e-09 5.56316e-09)
(-7.23441e-09 -4.88119e-09 4.49995e-09)
(-6.73727e-09 -3.86773e-09 3.17069e-09)
(-3.4889e-09 -2.9565e-09 1.32459e-09)
(2.90318e-09 1.98804e-09 1.36819e-08)
(-7.69022e-09 -7.65312e-09 3.77156e-09)
(-6.54513e-09 -2.20221e-09 3.1434e-09)
(-3.98891e-09 -4.14447e-09 2.29377e-09)
(5.19358e-09 4.53214e-09 1.59673e-08)
(-8.27918e-09 -4.49656e-09 3.81319e-09)
(-7.08484e-09 -2.67726e-09 2.94723e-09)
(-4.53253e-09 -1.58106e-09 1.89025e-09)
(-7.75755e-10 -1.42007e-10 2.28559e-10)
(-2.7465e-10 -1.02841e-10 2.73154e-10)
(-2.52668e-10 -1.28597e-10 3.04915e-10)
(-1.399e-10 -1.40728e-10 2.25385e-10)
(2.04952e-10 -3.30698e-10 6.9687e-10)
(-3.92854e-10 -2.20836e-10 7.54845e-10)
(-4.5407e-10 -1.06639e-10 7.34859e-10)
(-3.01776e-10 -1.40641e-11 6.8278e-10)
(-6.13696e-10 -4.96483e-10 3.08452e-10)
(-8.42282e-10 -3.73987e-10 9.72674e-10)
(-6.97002e-10 -3.37754e-10 8.01192e-10)
(-7.14365e-10 -1.49619e-10 9.06143e-10)
(1.74455e-09 -5.56212e-09 7.49255e-10)
(-1.17139e-09 -6.47975e-10 1.07592e-09)
(-1.31266e-09 -6.59065e-10 1.23077e-09)
(-5.67852e-10 -2.30459e-10 8.04379e-10)
(-2.51226e-09 -1.46116e-09 2.07534e-09)
(-1.6111e-09 -6.8759e-10 1.91562e-09)
(-1.40227e-09 -2.7294e-10 1.31226e-09)
(-8.49751e-10 -3.37748e-10 1.06644e-09)
(-1.95453e-09 -8.89678e-10 1.5169e-09)
(-1.74664e-09 -9.13779e-10 1.39975e-09)
(-1.29576e-09 -3.63707e-10 1.23216e-09)
(-8.30645e-10 -4.54318e-10 9.57013e-10)
(-3.4889e-09 -2.9565e-09 1.32459e-09)
(-2.55209e-09 -1.3489e-09 1.07629e-09)
(-1.97346e-09 -3.3277e-10 1.47766e-09)
(-3.98891e-09 -4.14447e-09 2.29377e-09)
(-2.88959e-09 -9.97573e-10 1.44587e-09)
(-2.14552e-09 -4.13655e-10 1.45759e-09)
(-4.53253e-09 -1.58106e-09 1.89025e-09)
(-2.68392e-09 -8.82526e-10 8.82151e-10)
(-2.59169e-09 -1.21672e-09 1.63143e-09)
)
;
    }
    procBoundary2to0
    {
        type            processor;
        value           nonuniform List<vector> 
44
(
(-0.0220687 0.000281957 0.00109175)
(-0.0235079 0.000262657 0.00105133)
(-0.0225718 0.000205604 0.000892818)
(-0.0239996 0.000191502 0.000828514)
(-0.023023 0.000138867 0.000674734)
(-0.0244066 0.000116345 0.000616524)
(-0.0236573 0.000135468 0.00133614)
(-0.0218325 0.000109076 0.00122093)
(-0.023013 0.000107011 0.00122963)
(-0.023013 0.000107011 0.00122963)
(-0.0207275 7.117e-05 0.00105713)
(-0.0220894 6.02071e-05 0.00101928)
(-0.0208598 0.00019867 0.000815519)
(-0.0223994 0.000181188 0.000746939)
(-0.0208351 0.000119802 0.000586638)
(-0.0224849 9.82825e-05 0.000512323)
(-0.0233812 0.000116086 0.0013938)
(-0.0213063 9.9129e-05 0.00123996)
(-0.022326 9.60141e-05 0.00126665)
(-0.0207275 7.117e-05 0.00105713)
(-0.0220894 6.02071e-05 0.00101928)
(-0.0220894 6.02071e-05 0.00101928)
(-0.0190724 5.56902e-05 0.000676987)
(-0.0206876 5.81639e-05 0.000607052)
(-0.0192076 0.00013082 0.000503411)
(-0.0209499 0.000105768 0.000406828)
(-0.0230892 0.000109039 0.0012276)
(-0.0208157 9.29994e-05 0.00109786)
(-0.0216691 8.9961e-05 0.00110513)
(-0.0196908 7.03442e-05 0.000902367)
(-0.0210079 6.53814e-05 0.000851587)
(-0.0190724 5.56902e-05 0.000676987)
(-0.0206876 5.81639e-05 0.000607052)
(-0.0206876 5.81639e-05 0.000607052)
(-0.0177446 2.71912e-05 0.000319567)
(-0.0195315 2.35643e-05 0.000258236)
(-0.0229033 0.000106138 0.000901819)
(-0.0205468 8.17995e-05 0.000807026)
(-0.0212775 6.97598e-05 0.000789907)
(-0.0191176 5.40311e-05 0.000649905)
(-0.0203515 3.92136e-05 0.000601865)
(-0.0182438 3.75803e-05 0.000472916)
(-0.0198327 3.12311e-05 0.000424264)
(-0.0177446 2.71912e-05 0.000319567)
)
;
    }
    procBoundary2to3
    {
        type            processor;
        value           nonuniform List<vector> 
12
(
(-0.0229975 9.31761e-06 0.000446539)
(-0.0229686 -4.37745e-05 0.000426258)
(-0.0239886 -0.000114044 0.000438639)
(-0.0253257 -6.74585e-05 0.000473974)
(-0.0204632 -9.49029e-06 0.000406462)
(-0.0206701 -5.06871e-05 0.000410782)
(-0.0217826 -0.000102914 0.00046388)
(-0.0234649 -7.08567e-05 0.000529645)
(-0.0185628 1.3643e-05 0.000311135)
(-0.01885 -4.00592e-05 0.000329605)
(-0.0199048 -9.85264e-05 0.000399067)
(-0.0217228 -0.000103921 0.000521325)
)
;
    }
    procBoundary2to6
    {
        type            processor;
        value           nonuniform List<vector> 
32
(
(-0.0198604 -5.80515e-05 0.000286647)
(-0.0192702 -0.00018885 0.000422663)
(-0.0208841 -0.000155873 0.000368187)
(-0.0220735 -0.000299443 0.000549485)
(-0.0207484 -0.000207419 0.0005094)
(-0.0221126 -0.000159525 0.000463161)
(-0.0229183 -0.000230582 0.000495209)
(-0.0205755 -0.0002068 0.000442573)
(-0.0213044 -0.000218819 0.000422064)
(-0.0191894 -0.000170069 0.000362531)
(-0.0204269 -0.000162228 0.00032743)
(-0.0183429 -0.000114311 0.000271322)
(-0.0199042 -8.72962e-05 0.000246249)
(-0.0198604 -5.80515e-05 0.000286647)
(-0.0192702 -0.00018885 0.000422663)
(-0.0178439 -5.3629e-05 0.000203924)
(-0.0231224 -0.000511872 0.000485794)
(-0.0209231 -0.000428568 0.000449717)
(-0.0217512 -0.000458505 0.000431448)
(-0.0198721 -0.000357289 0.000392546)
(-0.0211092 -0.000352739 0.000356727)
(-0.0192659 -0.000263199 0.000317115)
(-0.0192702 -0.00018885 0.000422663)
(-0.0220735 -0.000299443 0.000549485)
(-0.0207364 -0.000237978 0.000288561)
(-0.0233396 -0.000558165 0.000499208)
(-0.0213654 -0.000493644 0.000471038)
(-0.0222739 -0.0005088 0.000464742)
(-0.0207658 -0.000418676 0.000438535)
(-0.021938 -0.000403994 0.000409077)
(-0.0220735 -0.000299443 0.000549485)
(-0.020511 -0.00031935 0.000376763)
)
;
    }
}


// ************************************************************************* //
