/*--------------------------------*- C++ -*----------------------------------*\
| =========                 |                                                 |
| \\      /  F ield         | OpenFOAM: The Open Source CFD Toolbox           |
|  \\    /   O peration     | Version:  4.x                                   |
|   \\  /    A nd           | Web:      www.OpenFOAM.org                      |
|    \\/     M anipulation  |                                                 |
\*---------------------------------------------------------------------------*/
FoamFile
{
    version     2.0;
    format      ascii;
    class       volVectorField;
    location    "35.5";
    object      UsNext;
}
// * * * * * * * * * * * * * * * * * * * * * * * * * * * * * * * * * * * * * //

dimensions      [0 1 -1 0 0 0 0];

internalField   nonuniform List<vector> 
114
(
(-5.87142e-09 -5.51465e-09 4.80215e-09)
(-8.66071e-09 -1.08697e-08 1.14888e-08)
(-1.15024e-08 -1.89412e-08 1.69781e-08)
(-1.25235e-08 -1.6421e-08 1.69989e-08)
(-7.73329e-09 -1.35669e-08 4.35357e-09)
(-8.15342e-09 -1.38304e-08 -3.59911e-09)
(-2.63775e-08 8.80463e-09 5.69814e-10)
(-5.01378e-09 1.37782e-10 -3.41595e-10)
(-7.53433e-09 -2.12926e-09 1.2638e-09)
(-8.30792e-09 -6.35595e-09 4.31242e-09)
(-1.33792e-08 -1.31179e-08 8.82517e-09)
(-1.46455e-08 -2.00502e-08 1.33069e-08)
(-2.14018e-08 -2.5789e-08 1.03636e-08)
(-1.8395e-08 -2.50584e-08 1.16684e-09)
(-1.72308e-08 -5.43393e-09 -1.0824e-08)
(-3.02974e-09 1.41175e-09 -5.05352e-10)
(-1.3818e-09 2.28616e-10 -3.78099e-10)
(-4.95953e-09 -2.03355e-10 5.07201e-10)
(-5.59417e-09 -9.62594e-10 3.04632e-09)
(-1.06858e-08 -8.21359e-09 4.78778e-09)
(-1.45247e-08 -1.25316e-08 7.09656e-09)
(-2.59555e-08 -1.91256e-08 3.0386e-09)
(-1.26073e-08 -8.09632e-09 -1.86486e-09)
(-1.9863e-08 9.94582e-10 -9.04913e-09)
(-6.40665e-09 6.95891e-10 -9.59875e-10)
(1.32828e-09 8.95895e-10 -4.42378e-10)
(-2.64811e-09 -2.16183e-10 -1.23586e-09)
(1.03222e-08 -2.25168e-08 1.34905e-10)
(-7.75724e-09 -4.05474e-09 3.98292e-09)
(-4.83504e-09 -4.22403e-09 1.46745e-09)
(-1.14682e-08 -1.4243e-08 -2.93584e-10)
(-1.0055e-08 -7.30857e-09 3.53524e-09)
(-7.55031e-09 4.47484e-10 -6.60776e-09)
(-6.72875e-09 -1.50821e-08 1.56304e-08)
(-6.56572e-09 -1.42284e-08 1.68357e-08)
(-3.27544e-09 -1.07079e-08 4.83056e-09)
(1.97476e-09 -8.00954e-09 -5.19924e-09)
(-2.14007e-09 9.39828e-10 -3.89364e-10)
(-5.04405e-09 4.95414e-10 -2.66886e-10)
(-7.3212e-09 -1.51055e-09 1.82388e-09)
(-8.9629e-09 -4.20643e-09 4.67088e-09)
(-1.09596e-08 -8.23318e-09 7.37722e-09)
(-1.29527e-08 -1.65634e-08 1.2013e-08)
(-1.40752e-08 -1.45525e-08 8.66216e-09)
(-1.03702e-08 -1.15495e-08 -7.73898e-10)
(-4.06436e-09 -4.05154e-09 -1.03786e-08)
(-2.80816e-09 8.65125e-10 -8.03523e-10)
(-3.45782e-09 4.25956e-10 -4.84373e-10)
(-5.78127e-09 -7.5081e-10 1.15894e-09)
(-6.84487e-09 -3.41157e-09 3.27082e-09)
(-8.97782e-09 -4.75658e-09 5.77666e-09)
(-1.12118e-08 -8.49602e-09 5.1319e-09)
(-1.41644e-08 -1.04981e-08 3.61137e-09)
(-1.04276e-08 -6.7369e-09 -2.20836e-09)
(-7.10309e-09 -1.55525e-09 -8.76522e-09)
(-1.37741e-09 2.23605e-10 -5.49604e-10)
(-1.59816e-09 2.4241e-10 1.89928e-10)
(-3.29274e-09 -4.46357e-10 5.36196e-10)
(-3.40409e-09 -1.62745e-09 1.42996e-09)
(-4.21135e-09 -2.12034e-09 2.53838e-09)
(-4.98701e-09 -4.177e-09 2.17529e-09)
(-7.8846e-09 -6.4927e-09 -1.19986e-09)
(-6.25319e-09 -2.65693e-09 -1.87956e-09)
(-2.69158e-09 -1.20303e-09 -1.68645e-09)
(4.90244e-09 -8.3808e-09 3.10861e-09)
(9.62038e-09 -4.65694e-09 -6.54955e-09)
(-1.78652e-09 1.63655e-10 2.88468e-10)
(-3.65739e-09 5.8213e-10 3.43917e-10)
(-7.33357e-09 -4.39254e-10 2.2538e-09)
(-7.8186e-09 -2.63781e-09 4.29626e-09)
(-9.98647e-09 -6.35172e-09 7.36302e-09)
(-1.02197e-08 -1.00277e-08 9.22767e-09)
(-1.07117e-08 -1.0174e-08 5.64818e-09)
(-5.5392e-09 -7.13397e-09 -1.75495e-09)
(-2.73136e-09 -4.35315e-09 -8.502e-09)
(-1.40935e-09 5.85497e-10 -4.89476e-11)
(-2.33841e-09 1.19444e-09 1.2054e-09)
(-6.01798e-09 -3.69499e-10 1.71012e-09)
(-6.06256e-09 -2.05936e-09 2.88978e-09)
(-8.78495e-09 -4.68153e-09 5.65413e-09)
(-8.83e-09 -5.7853e-09 4.47696e-09)
(-1.08464e-08 -6.03045e-09 2.41599e-09)
(-5.71016e-09 -4.51376e-09 -2.77481e-09)
(-2.61846e-09 -3.09496e-09 -9.14559e-09)
(-1.12524e-09 1.899e-10 -1.59744e-10)
(-8.85797e-10 1.656e-10 4.94568e-10)
(-2.28039e-09 -3.5725e-10 9.04074e-10)
(-2.46446e-09 -8.8092e-10 1.8984e-09)
(-3.86538e-09 -9.00946e-10 1.85667e-09)
(-3.15356e-09 -1.69105e-09 1.3462e-09)
(-5.18209e-09 -2.59148e-09 2.12041e-10)
(-2.57082e-09 -2.08697e-09 -1.41439e-09)
(-2.2531e-09 -2.87485e-09 -4.43345e-09)
(-1.45733e-09 3.02967e-11 5.58336e-10)
(-3.39226e-09 3.33286e-10 1.84388e-09)
(-6.45445e-09 -2.53446e-10 2.85779e-09)
(-6.5437e-09 -1.85105e-09 3.88045e-09)
(-8.17154e-09 -3.38855e-09 6.15907e-09)
(-5.09532e-09 -4.58364e-09 5.42559e-09)
(-5.13078e-09 -5.99074e-09 2.64325e-09)
(3.88246e-10 -5.47029e-09 -3.68429e-09)
(-1.15938e-09 1.81654e-10 2.3138e-10)
(-2.62794e-09 8.23162e-10 1.20616e-09)
(-4.48155e-09 4.98059e-10 1.57553e-09)
(-5.15177e-09 -7.03393e-10 2.57881e-09)
(-6.88922e-09 -2.77142e-09 4.53357e-09)
(-5.53139e-09 -3.44561e-09 3.98504e-09)
(-4.73176e-09 -3.20792e-09 8.74077e-10)
(-5.89149e-10 9.17975e-11 -5.30285e-12)
(-6.26764e-10 5.29356e-10 6.97489e-10)
(-2.40816e-09 1.91501e-10 1.34648e-09)
(-1.65374e-09 -1.15808e-10 1.64492e-09)
(-3.53326e-09 -1.17983e-09 2.08538e-09)
(-1.40527e-09 -1.39041e-09 1.1853e-09)
)
;

boundaryField
{
    inlet
    {
        type            calculated;
        value           nonuniform List<vector> 
12
(
(-2.63775e-08 8.80463e-09 5.69814e-10)
(-3.02974e-09 1.41175e-09 -5.05352e-10)
(-6.40665e-09 6.95891e-10 -9.59875e-10)
(-2.14007e-09 9.39828e-10 -3.89364e-10)
(-2.80816e-09 8.65125e-10 -8.03523e-10)
(-1.37741e-09 2.23605e-10 -5.49604e-10)
(-1.78652e-09 1.63655e-10 2.88468e-10)
(-1.40935e-09 5.85497e-10 -4.89476e-11)
(-1.12524e-09 1.899e-10 -1.59744e-10)
(-1.45733e-09 3.02967e-11 5.58336e-10)
(-1.15938e-09 1.81654e-10 2.3138e-10)
(-5.89149e-10 9.17975e-11 -5.30285e-12)
)
;
    }
    outlet
    {
        type            calculated;
        value           nonuniform 0();
    }
    wall
    {
        type            calculated;
        value           nonuniform List<vector> 
66
(
(-2.63775e-08 8.80463e-09 5.69814e-10)
(-3.02974e-09 1.41175e-09 -5.05352e-10)
(-6.40665e-09 6.95891e-10 -9.59875e-10)
(-5.01378e-09 1.37782e-10 -3.41595e-10)
(-1.3818e-09 2.28616e-10 -3.78099e-10)
(1.32828e-09 8.95895e-10 -4.42378e-10)
(-7.53433e-09 -2.12926e-09 1.2638e-09)
(-4.95953e-09 -2.03355e-10 5.07201e-10)
(-2.64811e-09 -2.16183e-10 -1.23586e-09)
(-5.87142e-09 -5.51465e-09 4.80215e-09)
(-8.30792e-09 -6.35595e-09 4.31242e-09)
(-5.59417e-09 -9.62594e-10 3.04632e-09)
(1.03222e-08 -2.25168e-08 1.34905e-10)
(-8.66071e-09 -1.08697e-08 1.14888e-08)
(-1.33792e-08 -1.31179e-08 8.82517e-09)
(-1.06858e-08 -8.21359e-09 4.78778e-09)
(-7.75724e-09 -4.05474e-09 3.98292e-09)
(-1.15024e-08 -1.89412e-08 1.69781e-08)
(-1.46455e-08 -2.00502e-08 1.33069e-08)
(-1.45247e-08 -1.25316e-08 7.09656e-09)
(-4.83504e-09 -4.22403e-09 1.46745e-09)
(-1.25235e-08 -1.6421e-08 1.69989e-08)
(-2.14018e-08 -2.5789e-08 1.03636e-08)
(-2.59555e-08 -1.91256e-08 3.0386e-09)
(-1.14682e-08 -1.4243e-08 -2.93584e-10)
(-7.73329e-09 -1.35669e-08 4.35357e-09)
(-1.8395e-08 -2.50584e-08 1.16684e-09)
(-1.26073e-08 -8.09632e-09 -1.86486e-09)
(-1.0055e-08 -7.30857e-09 3.53524e-09)
(-8.15342e-09 -1.38304e-08 -3.59911e-09)
(-1.72308e-08 -5.43393e-09 -1.0824e-08)
(-1.9863e-08 9.94582e-10 -9.04913e-09)
(-7.55031e-09 4.47484e-10 -6.60776e-09)
(-6.40665e-09 6.95891e-10 -9.59875e-10)
(-1.37741e-09 2.23605e-10 -5.49604e-10)
(-1.12524e-09 1.899e-10 -1.59744e-10)
(-5.89149e-10 9.17975e-11 -5.30285e-12)
(1.32828e-09 8.95895e-10 -4.42378e-10)
(-1.59816e-09 2.4241e-10 1.89928e-10)
(-8.85797e-10 1.656e-10 4.94568e-10)
(-6.26764e-10 5.29356e-10 6.97489e-10)
(-2.64811e-09 -2.16183e-10 -1.23586e-09)
(-3.29274e-09 -4.46357e-10 5.36196e-10)
(-2.28039e-09 -3.5725e-10 9.04074e-10)
(-2.40816e-09 1.91501e-10 1.34648e-09)
(1.03222e-08 -2.25168e-08 1.34905e-10)
(-3.40409e-09 -1.62745e-09 1.42996e-09)
(-2.46446e-09 -8.8092e-10 1.8984e-09)
(-1.65374e-09 -1.15808e-10 1.64492e-09)
(-7.75724e-09 -4.05474e-09 3.98292e-09)
(-4.21135e-09 -2.12034e-09 2.53838e-09)
(-3.86538e-09 -9.00946e-10 1.85667e-09)
(-3.53326e-09 -1.17983e-09 2.08538e-09)
(-4.83504e-09 -4.22403e-09 1.46745e-09)
(-4.98701e-09 -4.177e-09 2.17529e-09)
(-3.15356e-09 -1.69105e-09 1.3462e-09)
(-1.40527e-09 -1.39041e-09 1.1853e-09)
(-1.14682e-08 -1.4243e-08 -2.93584e-10)
(-7.8846e-09 -6.4927e-09 -1.19986e-09)
(-5.18209e-09 -2.59148e-09 2.12041e-10)
(-1.0055e-08 -7.30857e-09 3.53524e-09)
(-6.25319e-09 -2.65693e-09 -1.87956e-09)
(-2.57082e-09 -2.08697e-09 -1.41439e-09)
(-7.55031e-09 4.47484e-10 -6.60776e-09)
(-2.69158e-09 -1.20303e-09 -1.68645e-09)
(-2.2531e-09 -2.87485e-09 -4.43345e-09)
)
;
    }
    procBoundary2to0
    {
        type            processor;
        value           nonuniform List<vector> 
44
(
(-8.299e-09 -4.03071e-09 8.27344e-09)
(-1.05186e-08 -7.70618e-09 1.18492e-08)
(1.86062e-10 -1.11411e-08 1.35659e-08)
(-7.6185e-09 -1.00463e-08 1.65624e-08)
(-6.02633e-09 -1.2443e-08 8.79764e-09)
(-1.31061e-08 -6.41659e-09 -3.96488e-09)
(-2.6347e-09 1.65697e-10 5.26966e-10)
(-6.51052e-09 -9.58652e-10 4.26792e-10)
(-9.24436e-09 -6.48839e-10 1.19448e-09)
(-9.24436e-09 -6.48839e-10 1.19448e-09)
(-9.84639e-09 -5.03286e-09 7.49769e-09)
(-1.08679e-08 -9.00871e-09 1.07318e-08)
(-7.26187e-09 -1.09312e-08 1.45006e-08)
(-4.02086e-09 -1.05995e-08 1.49654e-08)
(-6.28553e-10 -1.04652e-08 8.66154e-09)
(2.346e-10 -4.93169e-09 -4.81116e-09)
(-3.26825e-09 2.771e-10 3.52147e-10)
(-6.09259e-09 -1.30425e-11 6.14338e-10)
(-8.3898e-09 -1.12855e-09 3.4059e-09)
(-9.84639e-09 -5.03286e-09 7.49769e-09)
(-1.08679e-08 -9.00871e-09 1.07318e-08)
(-1.08679e-08 -9.00871e-09 1.07318e-08)
(-7.18384e-09 -9.27047e-09 1.18478e-08)
(-2.01312e-09 -1.07964e-08 8.68051e-09)
(6.96533e-09 -6.74514e-09 6.727e-09)
(7.34795e-09 -3.19049e-09 1.81622e-09)
(-1.90751e-09 1.55914e-10 6.55853e-10)
(-5.50909e-09 7.14297e-10 1.29046e-09)
(-9.06944e-09 -8.37866e-10 3.34925e-09)
(-8.64528e-09 -2.54215e-09 5.64296e-09)
(-9.36242e-09 -7.37691e-09 1.0055e-08)
(-7.18384e-09 -9.27047e-09 1.18478e-08)
(-2.01312e-09 -1.07964e-08 8.68051e-09)
(-2.01312e-09 -1.07964e-08 8.68051e-09)
(5.07719e-09 -6.09657e-09 2.41075e-09)
(8.41571e-09 -4.2976e-09 -5.26342e-09)
(-1.7391e-09 1.67886e-10 1.21112e-09)
(-3.89651e-09 5.68946e-10 2.18438e-09)
(-7.2059e-09 -7.76612e-10 3.31333e-09)
(-5.20744e-09 -2.46303e-09 5.4899e-09)
(-4.82359e-09 -4.44567e-09 8.35152e-09)
(-1.84321e-09 -5.3578e-09 1.00276e-08)
(3.19827e-09 -6.87805e-09 6.9275e-09)
(5.07719e-09 -6.09657e-09 2.41075e-09)
)
;
    }
    procBoundary2to3
    {
        type            processor;
        value           nonuniform List<vector> 
12
(
(9.37661e-09 -5.6625e-09 -2.10077e-08)
(4.51683e-09 3.03992e-09 -2.08863e-08)
(1.67968e-08 4.74095e-08 -1.80674e-08)
(4.79916e-09 5.72075e-09 -4.57706e-09)
(1.49575e-08 -3.0627e-09 -2.27997e-08)
(2.95182e-09 1.3079e-10 -1.97711e-08)
(3.65211e-09 3.89065e-09 -1.53036e-08)
(5.796e-09 1.22817e-09 -4.85686e-09)
(1.4638e-08 -3.95081e-09 -1.7371e-08)
(5.35857e-09 -2.9482e-09 -1.42664e-08)
(3.30053e-09 -2.3936e-10 -1.0365e-08)
(3.63975e-09 -2.85109e-09 -4.19175e-09)
)
;
    }
    procBoundary2to6
    {
        type            processor;
        value           nonuniform List<vector> 
32
(
(5.20047e-10 -3.36297e-09 -7.48414e-09)
(-7.50771e-11 -2.75547e-09 -2.99532e-09)
(5.71518e-10 -4.12279e-09 -7.3747e-09)
(-1.7273e-09 -1.27052e-09 -4.04446e-10)
(-7.47326e-10 -1.44073e-09 -2.1701e-09)
(-1.23755e-09 -1.58895e-09 -3.27449e-09)
(-1.83533e-09 9.50007e-11 7.79854e-10)
(-2.73244e-09 4.36073e-10 1.63623e-09)
(-5.2428e-09 -2.69672e-10 2.78745e-09)
(-5.43548e-09 -1.09668e-09 3.87394e-09)
(-6.61828e-09 -3.23717e-09 5.0743e-09)
(-8.93243e-10 -2.48839e-09 4.20349e-09)
(-1.88665e-09 -3.61211e-09 2.48729e-09)
(5.20047e-10 -3.36297e-09 -7.48414e-09)
(-7.50771e-11 -2.75547e-09 -2.99532e-09)
(9.31815e-10 -3.476e-09 -1.32309e-09)
(-2.06258e-09 3.37355e-10 5.56707e-10)
(-1.9432e-09 6.93092e-10 9.57579e-10)
(-4.88636e-09 3.78595e-10 1.68239e-09)
(-4.01222e-09 -7.86394e-10 2.3158e-09)
(-4.33224e-09 -2.12812e-09 3.36802e-09)
(-1.59891e-09 -1.8092e-09 2.81265e-09)
(-7.50771e-11 -2.75547e-09 -2.99532e-09)
(-1.7273e-09 -1.27052e-09 -4.04446e-10)
(-1.24069e-09 -2.15977e-09 -2.02333e-10)
(-6.49581e-10 -5.9211e-11 3.82009e-10)
(7.80869e-10 1.43522e-09 8.77655e-10)
(-1.58271e-09 -1.87593e-10 6.58888e-10)
(-1.4644e-09 3.27734e-11 1.48165e-09)
(-1.78814e-09 -4.13919e-10 1.14325e-09)
(-1.7273e-09 -1.27052e-09 -4.04446e-10)
(-6.33418e-10 -1.10198e-09 1.04569e-09)
)
;
    }
}


// ************************************************************************* //
