/*--------------------------------*- C++ -*----------------------------------*\
| =========                 |                                                 |
| \\      /  F ield         | OpenFOAM: The Open Source CFD Toolbox           |
|  \\    /   O peration     | Version:  4.x                                   |
|   \\  /    A nd           | Web:      www.OpenFOAM.org                      |
|    \\/     M anipulation  |                                                 |
\*---------------------------------------------------------------------------*/
FoamFile
{
    version     2.0;
    format      ascii;
    class       volVectorField;
    location    "11.5";
    object      DDtUrel;
}
// * * * * * * * * * * * * * * * * * * * * * * * * * * * * * * * * * * * * * //

dimensions      [0 1 -2 0 0 0 0];

internalField   nonuniform List<vector> 
114
(
(0.00014225 -8.72801e-05 -0.000100971)
(0.000156439 -0.000163301 -0.00020118)
(-0.000153535 -0.000432721 -0.000435025)
(-0.000189835 -0.000705404 -0.000682088)
(-0.00147264 -0.00158587 -0.00134463)
(-0.00285607 -0.00227883 -0.00180215)
(0.000185083 -1.70236e-05 -4.45898e-05)
(7.96532e-05 -8.32036e-05 -0.000120582)
(7.37766e-06 -0.000158856 -0.000197218)
(-0.000214828 -0.000369565 -0.000361936)
(-0.000459987 -0.000618969 -0.000548235)
(-0.00111501 -0.00131566 -0.00095445)
(-0.00176798 -0.00193873 -0.00134198)
(0.00017739 -9.58621e-06 -3.62467e-05)
(0.000123354 -1.85562e-05 -8.71909e-05)
(2.88677e-05 -5.49985e-05 -0.00012772)
(-8.28773e-05 -0.000103467 -0.000181915)
(-0.000258638 -0.000211083 -0.000311094)
(-0.000517658 -0.000358509 -0.000479056)
(-0.000849198 -0.000678254 -0.000715705)
(-0.00125771 -0.00104547 -0.00099632)
(0.00029523 9.9227e-07 6.50322e-05)
(0.000267922 4.42068e-07 2.74366e-05)
(0.000236165 2.61248e-06 -1.23735e-05)
(0.000109208 -9.30652e-05 -8.32149e-05)
(3.68796e-05 -0.00018022 -0.000146742)
(-0.000279995 -0.000425153 -0.000272953)
(-0.00059902 -0.000729925 -0.000401862)
(-0.00146975 -0.00134583 -0.000614752)
(-0.00238194 -0.00201326 -0.000766853)
(0.000240299 1.50345e-08 1.32182e-05)
(0.000221535 -8.21188e-06 -1.53565e-05)
(0.000149081 -1.93966e-05 -5.41438e-05)
(4.26064e-05 -8.3598e-05 -9.83765e-05)
(-7.43707e-05 -0.000162064 -0.000152279)
(-0.000315294 -0.000361558 -0.000246781)
(-0.0006412 -0.000626109 -0.000349938)
(-0.00120377 -0.00112926 -0.000511657)
(-0.00177127 -0.00163998 -0.000638906)
(0.000200024 -3.86862e-06 -1.07159e-05)
(0.000180683 -1.12017e-05 -3.94032e-05)
(0.000100214 -2.3614e-05 -7.77472e-05)
(1.22374e-05 -6.20902e-05 -0.000109362)
(-0.000139333 -0.000115957 -0.00015936)
(-0.000354335 -0.000226714 -0.000231456)
(-0.000633811 -0.000370174 -0.000328261)
(-0.0010094 -0.000680427 -0.000453155)
(-0.00144691 -0.000959469 -0.000552484)
(0.000179172 -5.20464e-06 -2.41246e-05)
(0.000160278 -1.04503e-05 -4.8761e-05)
(0.000321094 3.52451e-06 3.0177e-05)
(0.000295517 -1.0383e-05 7.83078e-07)
(0.000303397 -2.08525e-05 -3.60435e-05)
(0.000185236 -0.000125443 -5.73918e-05)
(0.000181648 -0.000215186 -0.000103195)
(-0.000149433 -0.000514951 -0.000113728)
(-0.000307819 -0.00082054 -0.000212575)
(-0.00162753 -0.00173682 -7.79605e-05)
(-0.00308216 -0.0025399 0.000138074)
(0.000257944 -5.65448e-06 -2.10937e-06)
(0.000229006 -1.37397e-05 -3.47281e-05)
(0.000186266 -3.2075e-05 -8.05337e-05)
(7.62642e-05 -0.00010663 -8.93902e-05)
(-1.35855e-05 -0.000193494 -0.000124737)
(-0.000276991 -0.000425762 -0.000144723)
(-0.000593057 -0.000706918 -0.000185469)
(-0.00136056 -0.00143669 -0.000138474)
(-0.00212304 -0.00208161 4.3546e-06)
(0.000219199 -2.33441e-05 -2.32792e-05)
(0.000180755 -2.13441e-05 -4.93791e-05)
(0.000106071 -2.02557e-05 -9.50776e-05)
(2.39398e-06 -7.75814e-05 -0.000105624)
(-0.000125613 -0.000139928 -0.000152912)
(-0.000353197 -0.000271341 -0.000164443)
(-0.000663738 -0.000425484 -0.000213752)
(-0.00115654 -0.000825423 -0.000214012)
(-0.00169026 -0.00125256 -0.000146295)
(0.000183049 -1.1672e-05 -3.17559e-05)
(0.000166205 -1.46795e-05 -5.52117e-05)
(5.84113e-05 -2.47565e-05 -9.37193e-05)
(-3.86817e-05 -4.10923e-05 -0.000112325)
(0.000353294 1.12828e-06 1.99564e-06)
(0.000333656 -1.94781e-05 -2.95167e-05)
(0.00035198 -3.98268e-05 -5.07446e-05)
(0.000243563 -0.00015089 -7.39437e-05)
(0.00029158 -0.000252021 -9.15352e-05)
(-2.68466e-05 -0.000598167 -9.72515e-05)
(4.38231e-05 -0.000950416 -0.000142164)
(-0.00178601 -0.00219843 -9.21957e-05)
(-0.00383371 -0.00307872 -7.05725e-05)
(0.000300909 -1.02532e-05 -1.91943e-05)
(0.00027168 -2.8561e-05 -5.24996e-05)
(0.000230482 -4.86363e-05 -8.04753e-05)
(0.000112754 -0.000138132 -9.23641e-05)
(3.77983e-05 -0.000225993 -0.00010975)
(-0.000245106 -0.000506405 -0.000117089)
(-0.000524243 -0.000809985 -0.000135126)
(-0.00149636 -0.00178311 -9.1691e-05)
(-0.00246521 -0.00262925 -3.94624e-05)
(0.000259275 -2.47138e-05 -2.87825e-05)
(0.000212177 -3.57877e-05 -6.31083e-05)
(0.000141951 -4.70263e-05 -8.97192e-05)
(1.19671e-05 -0.000106291 -0.000101356)
(-0.000114122 -0.000158735 -0.000124171)
(-0.000375943 -0.000315431 -0.000141544)
(-0.000684186 -0.000489801 -0.00016885)
(-0.00126697 -0.000954418 -0.000171641)
(-0.00188923 -0.00156536 -0.000142452)
(0.000215733 -2.04973e-05 -1.88949e-05)
(0.00016733 -2.89837e-05 -6.21649e-05)
(6.08612e-05 -3.66879e-05 -0.00011688)
(-6.0666e-05 -5.67229e-05 -0.000113083)
(-0.000211458 -7.5946e-05 -0.000132019)
(-0.000406065 -0.000138765 -0.000170408)
)
;

boundaryField
{
    inlet
    {
        type            calculated;
        value           nonuniform 0();
    }
    outlet
    {
        type            calculated;
        value           nonuniform List<vector> 
12
(
(-0.0125522 -0.00685998 -0.00697208)
(-0.00320193 -0.00664585 -0.00382677)
(-0.00238213 -0.00284445 -0.00181829)
(-0.00361099 -0.00289205 -0.00125158)
(-0.00166466 -0.00196784 -0.00074112)
(-0.00203963 -0.000946827 -0.000188924)
(-0.0105772 -0.006508 0.00465796)
(-0.00300819 -0.00498148 0.00262322)
(-0.0029809 -0.00276159 0.00144132)
(-0.0169603 -0.00895828 -0.000734956)
(-0.00422517 -0.00892866 0.000406151)
(-0.00373743 -0.00427861 3.89696e-05)
)
;
    }
    wall
    {
        type            calculated;
        value           nonuniform List<vector> 
66
(
(0.00078595 0.000103786 1.04739e-05)
(0.00052176 4.6952e-05 -8.63406e-05)
(0.000524332 -5.83616e-05 -7.52369e-05)
(0.000364901 -3.67693e-05 0.000186502)
(0.000516345 -2.0102e-05 -8.52657e-05)
(0.000434584 -7.35214e-05 -0.000162201)
(0.000338649 -0.000122073 -0.000165345)
(0.000334056 -9.43331e-05 -4.40092e-05)
(0.00128456 0.00022303 1.27146e-06)
(0.00051459 9.39872e-05 -0.000194956)
(0.000424476 -4.88028e-08 -6.69579e-05)
(-9.86963e-05 -4.20981e-05 -0.000522024)
(0.000314889 -0.000299821 -8.62271e-05)
(-5.77442e-06 -0.000298095 -0.000112832)
(-5.80247e-05 -0.000270018 -4.3321e-05)
(-0.000241777 -9.48724e-05 -5.08079e-05)
(0.00259327 0.000349559 -3.90603e-05)
(0.000557312 0.000172944 -0.000108357)
(0.000195141 7.44839e-05 -7.44317e-05)
(-0.000442552 6.33198e-05 4.69642e-05)
(-0.000243956 -0.00111409 0.000141213)
(-0.000428081 -0.000982215 1.64357e-05)
(-0.000604483 -0.000349434 -2.60675e-05)
(-0.00028674 -0.000201518 6.33268e-05)
(0.0090189 0.0011247 -0.000256089)
(0.000680308 0.000494226 -5.52043e-05)
(-0.000251978 0.000324687 -6.47571e-06)
(-0.00245478 -0.00607509 -4.57112e-05)
(-0.0017353 -0.00452154 0.000269398)
(-0.00120059 -0.000141641 -6.31283e-05)
(-0.0169603 -0.00895828 -0.000734956)
(-0.00422517 -0.00892866 0.000406151)
(-0.00373743 -0.00427861 3.89696e-05)
(0.000460713 -3.11555e-05 0.000259198)
(0.000674636 9.94899e-05 0.000137833)
(0.00078595 0.000103786 1.04739e-05)
(0.000317629 4.33861e-05 0.000154891)
(0.000358172 -1.65124e-05 0.000144766)
(0.000516345 -2.0102e-05 -8.52657e-05)
(0.000506317 0.000476396 0.000230228)
(0.00112832 0.000305029 2.26692e-05)
(0.00128456 0.00022303 1.27146e-06)
(5.07253e-06 -0.00011564 -0.000194421)
(-0.000197582 -6.81066e-05 -8.52366e-05)
(0.000200651 -0.000252508 0.00024978)
(0.000314889 -0.000299821 -8.62271e-05)
(0.00197726 0.000487453 7.63885e-05)
(0.000359905 0.000330183 0.000107205)
(0.00194678 0.000404176 -5.31536e-05)
(0.00259327 0.000349559 -3.90603e-05)
(-0.000765541 -0.00069904 -0.00105674)
(-0.000953467 -0.000127707 -0.00033549)
(-0.000295328 -0.000788865 0.000703734)
(-0.000243956 -0.00111409 0.000141213)
(0.00539359 0.0010512 -0.000149907)
(-0.000827112 0.000163242 -1.05348e-05)
(0.00414319 0.000930285 -0.000688048)
(0.0090189 0.0011247 -0.000256089)
(-0.00283624 -0.00379161 -0.00467465)
(-0.00165724 9.00032e-05 -0.000536194)
(-0.00200776 -0.00280657 0.001532)
(-0.00245478 -0.00607509 -4.57112e-05)
(-0.0125522 -0.00685998 -0.00697208)
(-0.00361099 -0.00289205 -0.00125158)
(-0.0105772 -0.006508 0.00465796)
(-0.0169603 -0.00895828 -0.000734956)
)
;
    }
    procBoundary5to1
    {
        type            processor;
        value           nonuniform List<vector> 
32
(
(0.000135049 -8.40605e-05 -7.67994e-05)
(0.000173833 -0.000158517 -0.000208757)
(-5.58033e-05 -0.00041305 -0.000453241)
(-1.55293e-05 -0.000697907 -0.000830359)
(-0.00128068 -0.00157409 -0.00159451)
(-0.00271709 -0.0021214 -0.00209363)
(0.000169383 -8.49407e-06 -4.38212e-05)
(7.9479e-05 -7.75315e-05 -0.000121167)
(3.80822e-05 -0.000155396 -0.000221889)
(-0.000123483 -0.000356029 -0.000400672)
(-0.000273105 -0.000593019 -0.000653709)
(-0.000859687 -0.00133268 -0.00110928)
(-0.00140891 -0.0019123 -0.00152879)
(0.000183366 -5.58424e-06 -2.53035e-05)
(0.000119726 -1.48927e-05 -8.11967e-05)
(2.34732e-05 -4.79442e-05 -0.000137712)
(-5.69289e-05 -9.71805e-05 -0.000223246)
(-0.000155117 -0.000192004 -0.000359854)
(-0.000338984 -0.000343894 -0.000569159)
(-0.000493756 -0.000632583 -0.000832428)
(-0.000615715 -0.000993776 -0.00114453)
(0.000320805 8.21902e-06 0.000107745)
(0.000276894 3.38405e-06 5.79527e-05)
(0.000270992 -3.11975e-06 7.08291e-06)
(0.000270992 -3.11975e-06 7.08291e-06)
(0.000270992 -3.11975e-06 7.08291e-06)
(0.000255801 9.30507e-08 2.98533e-05)
(0.000217401 -6.54688e-06 -3.78279e-06)
(0.000217401 -6.54688e-06 -3.78279e-06)
(0.000217401 -6.54688e-06 -3.78279e-06)
(0.000215442 -3.44327e-06 4.34633e-06)
(0.000215442 -3.44327e-06 4.34633e-06)
)
;
    }
    procBoundary5to4
    {
        type            processor;
        value           nonuniform List<vector> 
12
(
(0.000275622 2.86888e-06 8.40937e-05)
(0.000234881 -1.67933e-06 4.50173e-05)
(0.000213861 -6.58331e-06 2.39856e-05)
(0.000198502 -3.53525e-06 1.28889e-05)
(0.000291357 1.1218e-06 5.05272e-05)
(0.000248609 -4.78985e-06 2.40698e-05)
(0.000221872 -1.36996e-05 9.53681e-06)
(0.000199576 -1.14521e-05 2.71727e-06)
(0.00031888 -1.40898e-06 2.402e-05)
(0.000292068 -1.09789e-05 7.64199e-06)
(0.000264279 -2.21916e-05 -3.6684e-06)
(0.000234292 -2.06976e-05 -2.50338e-06)
)
;
    }
    procBoundary5to7
    {
        type            processor;
        value           nonuniform List<vector> 
44
(
(0.000168918 -6.65566e-06 -5.13099e-05)
(0.000112869 -1.34112e-05 -9.7518e-05)
(2.12456e-05 -1.94633e-05 -0.000142093)
(-0.000107335 -3.02101e-05 -0.000200635)
(-0.000270002 -4.97685e-05 -0.000317886)
(-0.000565097 -7.78565e-05 -0.000458862)
(-0.000893455 -9.16528e-05 -0.00072077)
(-0.00126563 -9.11439e-05 -0.000975662)
(0.000203227 -1.97312e-06 -1.29772e-05)
(0.000168918 -6.65566e-06 -5.13099e-05)
(9.67094e-05 -1.96027e-05 -8.22802e-05)
(2.12967e-05 -3.04177e-05 -0.000119045)
(-0.000137972 -4.44165e-05 -0.000172992)
(-0.000304559 -7.8054e-05 -0.000250662)
(-0.000630626 -0.000117883 -0.000362218)
(-0.001028 -0.000167966 -0.000528963)
(-0.00133753 -0.000199188 -0.000652725)
(0.000196792 -7.80896e-06 -1.99054e-05)
(9.67094e-05 -1.96027e-05 -8.22802e-05)
(0.000157425 -9.35215e-06 -4.6847e-05)
(9.67094e-05 -1.96027e-05 -8.22802e-05)
(2.12967e-05 -3.04177e-05 -0.000119045)
(-0.000185034 -6.31181e-05 -0.000152399)
(-0.000360013 -0.000108045 -0.000197093)
(-0.000681913 -0.000163701 -0.000259352)
(-0.0010864 -0.000267566 -0.000319597)
(-0.00144506 -0.000363015 -0.000341789)
(0.000185472 -6.06685e-07 -3.52841e-05)
(0.000144564 -1.16568e-05 -5.69516e-05)
(8.85839e-05 -2.80348e-05 -9.71918e-05)
(-0.000185034 -6.31181e-05 -0.000152399)
(-2.44525e-05 -6.16022e-06 -0.000125762)
(-0.000185034 -6.31181e-05 -0.000152399)
(-0.000360013 -0.000108045 -0.000197093)
(-0.000715624 -0.000192497 -0.000236708)
(-0.00112822 -0.000365384 -0.000278576)
(-0.00156721 -0.000574324 -0.000270263)
(0.00018814 -1.08525e-05 -3.44132e-05)
(0.000130263 -1.56295e-05 -6.19307e-05)
(5.04421e-05 -2.34026e-05 -9.70047e-05)
(-6.48597e-05 -1.09673e-05 -0.000122085)
(-0.000213358 -5.15172e-06 -0.000157522)
(-0.000715624 -0.000192497 -0.000236708)
(-0.000401766 1.8444e-05 -0.000219661)
)
;
    }
}


// ************************************************************************* //
