/*--------------------------------*- C++ -*----------------------------------*\
| =========                 |                                                 |
| \\      /  F ield         | OpenFOAM: The Open Source CFD Toolbox           |
|  \\    /   O peration     | Version:  4.x                                   |
|   \\  /    A nd           | Web:      www.OpenFOAM.org                      |
|    \\/     M anipulation  |                                                 |
\*---------------------------------------------------------------------------*/
FoamFile
{
    version     2.0;
    format      ascii;
    class       volVectorField;
    location    "11.5";
    object      impParticleForces;
}
// * * * * * * * * * * * * * * * * * * * * * * * * * * * * * * * * * * * * * //

dimensions      [1 1 -2 0 0 0 0];

internalField   nonuniform List<vector> 
114
(
(0.00248162 -2.86498e-05 2.12501e-05)
(0.00246329 -4.18613e-05 1.35193e-05)
(0.00250142 -6.13582e-05 7.17427e-06)
(0.00245981 -9.8654e-05 -1.37276e-05)
(0.00248373 -0.000141602 -3.40707e-05)
(0.00235384 -0.000202055 -7.25966e-05)
(0.00242992 -1.93165e-05 8.02146e-06)
(0.00246347 -2.41225e-05 6.59865e-06)
(0.00244085 -3.50826e-05 -1.39076e-06)
(0.00248071 -5.11788e-05 -9.02531e-06)
(0.00243974 -8.46964e-05 -2.68982e-05)
(0.00244699 -0.000124053 -4.2795e-05)
(0.00233891 -0.000177128 -7.20375e-05)
(0.00242223 -5.79148e-06 -3.32097e-07)
(0.00238707 -7.11477e-06 -4.78521e-06)
(0.00241729 -1.1054e-05 -1.23183e-05)
(0.00238958 -1.73598e-05 -1.95983e-05)
(0.00239992 -2.61861e-05 -2.85471e-05)
(0.0023597 -4.16004e-05 -4.2539e-05)
(0.00234123 -6.11015e-05 -5.50462e-05)
(0.00227681 -8.85539e-05 -7.53101e-05)
(0.0023751 -2.19931e-05 8.18553e-06)
(0.00240039 -2.36371e-05 1.31057e-05)
(0.00241829 -2.40186e-05 1.43843e-05)
(0.00244362 -2.69217e-05 1.28918e-05)
(0.00244463 -3.76e-05 7.53597e-06)
(0.00248366 -5.2755e-05 3.11232e-06)
(0.00244735 -8.60426e-05 -1.04281e-05)
(0.00243607 -0.000121064 -2.33027e-05)
(0.00233632 -0.000167261 -3.92888e-05)
(0.00239332 -1.92144e-05 6.26215e-06)
(0.00241549 -2.05866e-05 8.29327e-06)
(0.00240304 -2.00051e-05 5.34212e-06)
(0.00244303 -2.37036e-05 1.07527e-06)
(0.00242509 -3.20581e-05 -5.7146e-06)
(0.00246599 -4.20367e-05 -1.27062e-05)
(0.0024186 -7.14654e-05 -2.37639e-05)
(0.00242585 -0.000101707 -3.41187e-05)
(0.00233136 -0.000143501 -4.64892e-05)
(0.00236099 -8.68712e-06 1.87863e-06)
(0.00237375 -8.01881e-06 2.95456e-07)
(0.00235357 -9.78086e-06 -5.79102e-06)
(0.00238661 -1.51525e-05 -1.37708e-05)
(0.0023577 -2.0045e-05 -2.23848e-05)
(0.00238444 -2.86482e-05 -3.19655e-05)
(0.00234694 -4.21465e-05 -4.17947e-05)
(0.00234094 -5.7744e-05 -5.16337e-05)
(0.00227653 -8.31071e-05 -6.13298e-05)
(0.00234911 6.45476e-06 -2.73316e-06)
(0.00236208 8.47801e-06 -6.31796e-06)
(0.00237384 -2.21864e-05 1.00133e-05)
(0.00241456 -2.40587e-05 1.4289e-05)
(0.00241419 -2.49917e-05 1.13015e-05)
(0.00244616 -2.88332e-05 7.04294e-06)
(0.00245502 -4.0053e-05 2.53222e-06)
(0.00248855 -5.62891e-05 -2.98825e-06)
(0.0024692 -9.18121e-05 -7.05457e-06)
(0.00250176 -0.000128432 -1.37711e-05)
(0.00236979 -0.000190534 -6.85633e-06)
(0.00238351 -1.93971e-05 9.23526e-06)
(0.00243667 -2.21304e-05 1.25333e-05)
(0.00241268 -2.18348e-05 4.96764e-06)
(0.00244515 -2.6145e-05 -2.59076e-06)
(0.00244256 -3.54462e-05 -1.00106e-05)
(0.00247639 -4.97933e-05 -1.85146e-05)
(0.00246332 -7.88059e-05 -2.2467e-05)
(0.00245553 -0.000110418 -2.93145e-05)
(0.00234747 -0.000163707 -2.53064e-05)
(0.00236835 -1.16813e-05 7.03563e-06)
(0.00239109 -1.37799e-05 6.72678e-06)
(0.00237424 -1.40079e-05 -3.14218e-06)
(0.00238998 -1.80634e-05 -1.34084e-05)
(0.00238839 -2.60028e-05 -2.4833e-05)
(0.00240614 -3.63314e-05 -3.81938e-05)
(0.00236798 -5.17127e-05 -4.26344e-05)
(0.00236483 -6.84195e-05 -5.12789e-05)
(0.00229229 -0.000100396 -4.85186e-05)
(0.00233875 1.755e-06 2.41362e-06)
(0.00238594 2.72776e-06 1.7269e-06)
(0.0023468 3.13454e-07 -9.17677e-06)
(0.00237121 -3.28083e-06 -2.02739e-05)
(0.00232207 -2.0688e-05 7.47307e-06)
(0.00236454 -2.2631e-05 9.40698e-06)
(0.00236725 -2.50428e-05 5.93629e-06)
(0.00240969 -3.03248e-05 1.52267e-06)
(0.0024217 -4.25528e-05 -4.08941e-06)
(0.00245912 -6.08435e-05 -8.56049e-06)
(0.00246077 -9.89045e-05 -1.25013e-05)
(0.00251408 -0.000137927 -1.37952e-05)
(0.00237478 -0.000208265 -1.09242e-05)
(0.00235375 -1.87318e-05 7.67879e-06)
(0.00240012 -2.11289e-05 8.32378e-06)
(0.00238719 -2.30104e-05 2.02246e-06)
(0.002417 -2.8169e-05 -5.11626e-06)
(0.00242723 -3.92521e-05 -1.29437e-05)
(0.00244295 -5.52483e-05 -1.97879e-05)
(0.0024364 -8.57307e-05 -2.48191e-05)
(0.0024463 -0.000120042 -2.80562e-05)
(0.0023504 -0.000185386 -2.41032e-05)
(0.00233797 -1.21939e-05 5.71454e-06)
(0.00237341 -1.45559e-05 4.60368e-06)
(0.00236881 -1.66267e-05 -3.59109e-06)
(0.00238455 -2.11755e-05 -1.35775e-05)
(0.00238122 -3.0228e-05 -2.46949e-05)
(0.00239566 -4.15636e-05 -3.48261e-05)
(0.00235957 -5.88487e-05 -4.19638e-05)
(0.00234759 -7.72158e-05 -4.74331e-05)
(0.00228345 -0.000112146 -4.69537e-05)
(0.00232294 -1.37888e-06 3.27486e-06)
(0.00235371 -1.64858e-06 2.71259e-06)
(0.002345 -4.54662e-06 -7.87298e-06)
(0.00236154 -8.2791e-06 -1.99852e-05)
(0.00235386 -1.43089e-05 -3.24985e-05)
(0.00233642 -1.92017e-05 -4.44807e-05)
)
;

boundaryField
{
    inlet
    {
        type            zeroGradient;
    }
    outlet
    {
        type            zeroGradient;
    }
    wall
    {
        type            zeroGradient;
    }
    procBoundary5to1
    {
        type            processor;
        value           nonuniform List<vector> 
32
(
(0.00251167 -3.2861e-05 2.95379e-05)
(0.00248008 -5.00449e-05 1.96499e-05)
(0.00251006 -7.7673e-05 1.08778e-05)
(0.00248314 -0.000119119 -8.52281e-06)
(0.00248611 -0.00017112 -3.39986e-05)
(0.00232992 -0.000230855 -7.84033e-05)
(0.00245053 -1.94023e-05 1.42479e-05)
(0.0024917 -2.66712e-05 1.30973e-05)
(0.00246655 -4.12021e-05 4.74691e-06)
(0.00248213 -6.36431e-05 -5.7243e-06)
(0.00242728 -9.9082e-05 -2.41124e-05)
(0.00240752 -0.000146141 -4.44842e-05)
(0.00227845 -0.000201136 -7.79714e-05)
(0.00244364 -3.26793e-06 3.00836e-06)
(0.00241329 -4.56439e-06 -7.61096e-08)
(0.002458 -8.6526e-06 -6.89936e-06)
(0.00241057 -1.58717e-05 -1.64445e-05)
(0.00242331 -2.52201e-05 -2.83903e-05)
(0.00235131 -4.17802e-05 -4.38404e-05)
(0.00231638 -6.05908e-05 -5.60351e-05)
(0.00221663 -8.72303e-05 -8.54941e-05)
(0.00238646 -2.0141e-05 7.04755e-06)
(0.00241148 -2.10313e-05 1.39104e-05)
(0.00243593 -2.35867e-05 1.88245e-05)
(0.00243593 -2.35867e-05 1.88245e-05)
(0.00243593 -2.35867e-05 1.88245e-05)
(0.00241279 -1.75578e-05 4.06609e-06)
(0.00245738 -1.92905e-05 6.87475e-06)
(0.00245738 -1.92905e-05 6.87475e-06)
(0.00245738 -1.92905e-05 6.87475e-06)
(0.00238318 -6.27461e-06 -7.05079e-07)
(0.00238318 -6.27461e-06 -7.05079e-07)
)
;
    }
    procBoundary5to4
    {
        type            processor;
        value           nonuniform List<vector> 
12
(
(0.00238593 -2.17021e-05 2.71595e-07)
(0.00241353 -2.00014e-05 1.83696e-07)
(0.00237962 -1.00588e-05 -1.0512e-06)
(0.00236384 4.49915e-06 -3.79368e-06)
(0.0023896 -2.17987e-05 4.30098e-06)
(0.00241315 -1.92386e-05 5.46898e-06)
(0.00238883 -1.12988e-05 5.73902e-06)
(0.00236223 7.08183e-07 2.32006e-06)
(0.00235157 -2.03279e-05 3.09283e-06)
(0.00236185 -1.77299e-05 4.25637e-06)
(0.00234726 -1.11308e-05 3.80085e-06)
(0.00233269 -1.14093e-06 2.09545e-06)
)
;
    }
    procBoundary5to7
    {
        type            processor;
        value           nonuniform List<vector> 
44
(
(0.00241748 1.2254e-05 -7.50708e-06)
(0.0023884 1.01772e-05 -1.28758e-05)
(0.00241755 8.34512e-06 -2.35558e-05)
(0.00240758 6.27888e-06 -3.49585e-05)
(0.00243108 6.19789e-06 -4.90391e-05)
(0.00236756 4.39665e-06 -6.39607e-05)
(0.00234182 3.81668e-06 -7.83249e-05)
(0.00227859 4.72054e-06 -0.000105728)
(0.00238317 9.17213e-06 -5.02093e-06)
(0.00241748 1.2254e-05 -7.50708e-06)
(0.00234296 5.91738e-06 -1.28904e-05)
(0.00237157 2.93274e-06 -2.29984e-05)
(0.00234628 -1.04848e-06 -3.44842e-05)
(0.00236473 -5.9392e-06 -4.78289e-05)
(0.00231825 -7.86143e-06 -6.02116e-05)
(0.00231891 -1.06427e-05 -7.05035e-05)
(0.00225843 -1.40244e-05 -8.6391e-05)
(0.00235747 1.77599e-05 -4.10002e-06)
(0.00234296 5.91738e-06 -1.28904e-05)
(0.00240757 2.27506e-05 -7.5524e-06)
(0.00234296 5.91738e-06 -1.28904e-05)
(0.00237157 2.93274e-06 -2.29984e-05)
(0.00233348 -7.65166e-06 -3.33741e-05)
(0.00234725 -1.31393e-05 -4.74276e-05)
(0.0023069 -1.8917e-05 -5.88161e-05)
(0.0022997 -2.35998e-05 -7.33163e-05)
(0.00223911 -3.06865e-05 -7.42323e-05)
(0.00236108 1.44309e-05 -2.95713e-07)
(0.00239672 1.96911e-05 -3.15477e-06)
(0.00236703 1.39579e-05 -1.24518e-05)
(0.00233348 -7.65166e-06 -3.33741e-05)
(0.00239492 1.07097e-05 -2.48859e-05)
(0.00233348 -7.65166e-06 -3.33741e-05)
(0.00234725 -1.31393e-05 -4.74276e-05)
(0.00230095 -2.68524e-05 -5.59498e-05)
(0.00228565 -3.18876e-05 -6.7922e-05)
(0.00222458 -4.27891e-05 -6.85715e-05)
(0.00233452 1.03772e-05 -8.78365e-08)
(0.00235821 1.21894e-05 -3.29584e-06)
(0.00234601 9.22918e-06 -1.18872e-05)
(0.00237415 6.60155e-06 -2.40716e-05)
(0.002346 4.92493e-06 -3.75816e-05)
(0.00230095 -2.68524e-05 -5.59498e-05)
(0.00234361 4.07233e-06 -5.23498e-05)
)
;
    }
}


// ************************************************************************* //
