/*--------------------------------*- C++ -*----------------------------------*\
| =========                 |                                                 |
| \\      /  F ield         | OpenFOAM: The Open Source CFD Toolbox           |
|  \\    /   O peration     | Version:  4.x                                   |
|   \\  /    A nd           | Web:      www.OpenFOAM.org                      |
|    \\/     M anipulation  |                                                 |
\*---------------------------------------------------------------------------*/
FoamFile
{
    version     2.0;
    format      ascii;
    class       volScalarField;
    location    "11.5";
    object      nu;
}
// * * * * * * * * * * * * * * * * * * * * * * * * * * * * * * * * * * * * * //

dimensions      [0 2 -1 0 0 0 0];

internalField   nonuniform List<scalar> 
114
(
1.00063e-06
1.00064e-06
1.00066e-06
1.00052e-06
1.00048e-06
9.99618e-07
1.00011e-06
1.00001e-06
9.99871e-07
9.99823e-07
9.997e-07
9.99746e-07
9.99308e-07
1.00014e-06
1.00002e-06
9.99883e-07
9.9975e-07
9.9963e-07
9.99546e-07
9.99516e-07
9.99218e-07
1.00023e-06
1.00029e-06
1.00034e-06
1.00039e-06
1.00038e-06
1.00039e-06
1.00028e-06
1.00022e-06
1.00001e-06
1.00011e-06
1.00001e-06
9.99864e-07
9.99782e-07
9.99663e-07
9.99718e-07
9.99621e-07
9.99736e-07
9.9949e-07
1.00012e-06
1.00002e-06
9.99892e-07
9.99778e-07
9.99668e-07
9.99614e-07
9.99564e-07
9.99606e-07
9.99301e-07
1.00013e-06
1.00003e-06
1.00016e-06
1.0002e-06
1.00022e-06
1.00025e-06
1.00024e-06
1.00024e-06
1.00018e-06
1.00016e-06
9.98957e-07
1.00012e-06
1.00006e-06
9.99978e-07
9.99916e-07
9.99853e-07
9.99869e-07
9.99819e-07
9.99887e-07
9.99459e-07
1.00014e-06
1.00009e-06
1.00002e-06
9.99946e-07
9.99869e-07
9.99833e-07
9.99743e-07
9.99761e-07
9.99387e-07
1.00015e-06
1.00009e-06
9.99976e-07
9.99878e-07
1.00016e-06
1.00019e-06
1.00021e-06
1.00023e-06
1.00024e-06
1.00025e-06
1.00023e-06
1.00023e-06
9.90406e-07
1.00016e-06
1.00018e-06
1.0002e-06
1.00021e-06
1.00021e-06
1.00021e-06
1.00019e-06
1.00017e-06
9.99621e-07
1.00017e-06
1.00019e-06
1.00021e-06
1.00022e-06
1.00022e-06
1.00021e-06
1.00018e-06
1.00015e-06
9.99424e-07
1.00018e-06
1.00019e-06
1.00021e-06
1.00021e-06
1.0002e-06
1.00017e-06
)
;

boundaryField
{
    inlet
    {
        type            calculated;
        value           nonuniform 0();
    }
    outlet
    {
        type            calculated;
        value           uniform 1e-06;
    }
    wall
    {
        type            calculated;
        value           nonuniform List<scalar> 
66
(
1.00016e-06
1.00016e-06
1.00017e-06
1.00018e-06
1.00019e-06
1.00018e-06
1.00019e-06
1.00019e-06
1.00021e-06
1.0002e-06
1.00021e-06
1.00021e-06
1.00023e-06
1.00021e-06
1.00022e-06
1.00021e-06
1.00024e-06
1.00021e-06
1.00022e-06
1.0002e-06
1.00025e-06
1.00021e-06
1.00021e-06
1.00017e-06
1.00023e-06
1.00019e-06
1.00018e-06
1.00023e-06
1.00017e-06
1.00015e-06
9.90406e-07
9.99621e-07
9.99424e-07
1.00023e-06
1.00016e-06
1.00016e-06
1.00029e-06
1.0002e-06
1.00019e-06
1.00034e-06
1.00022e-06
1.00021e-06
1.00063e-06
1.00039e-06
1.00025e-06
1.00023e-06
1.00064e-06
1.00038e-06
1.00024e-06
1.00024e-06
1.00066e-06
1.00039e-06
1.00024e-06
1.00025e-06
1.00052e-06
1.00028e-06
1.00018e-06
1.00023e-06
1.00048e-06
1.00022e-06
1.00016e-06
1.00023e-06
9.99618e-07
1.00001e-06
9.98957e-07
9.90406e-07
)
;
    }
    procBoundary5to1
    {
        type            processor;
        value           nonuniform List<scalar> 
32
(
1.00089e-06
1.00089e-06
1.0009e-06
1.00072e-06
1.00065e-06
9.98554e-07
1.00025e-06
1.00008e-06
9.99891e-07
9.99798e-07
9.99652e-07
9.99705e-07
9.99028e-07
1.00023e-06
1.00002e-06
9.99833e-07
9.99658e-07
9.99525e-07
9.99432e-07
9.99434e-07
9.99376e-07
1.00034e-06
1.00045e-06
1.00054e-06
1.00054e-06
1.00054e-06
1.00027e-06
1.00021e-06
1.00021e-06
1.00021e-06
1.00022e-06
1.00022e-06
)
;
    }
    procBoundary5to4
    {
        type            processor;
        value           nonuniform List<scalar> 
12
(
1.00018e-06
1.00018e-06
1.00018e-06
1.0002e-06
1.00013e-06
1.00015e-06
1.00016e-06
1.00018e-06
1.00012e-06
1.00013e-06
1.00014e-06
1.00015e-06
)
;
    }
    procBoundary5to7
    {
        type            processor;
        value           nonuniform List<scalar> 
44
(
1.00021e-06
1.00011e-06
9.99986e-07
9.99859e-07
9.9974e-07
9.99673e-07
9.99639e-07
9.99639e-07
1.00028e-06
1.00021e-06
9.99917e-07
9.9979e-07
9.99676e-07
9.99638e-07
9.99702e-07
9.99745e-07
9.9973e-07
1.00008e-06
9.99917e-07
9.99991e-07
9.99917e-07
9.9979e-07
9.99773e-07
9.99701e-07
9.99621e-07
9.99667e-07
9.99303e-07
1.00013e-06
1.00008e-06
1.00002e-06
9.99773e-07
9.99952e-07
9.99773e-07
9.99701e-07
1.00012e-06
1.00008e-06
9.9863e-07
1.00019e-06
1.00021e-06
1.00022e-06
1.0002e-06
1.00014e-06
1.00012e-06
1.00005e-06
)
;
    }
}


// ************************************************************************* //
