/*--------------------------------*- C++ -*----------------------------------*\
| =========                 |                                                 |
| \\      /  F ield         | OpenFOAM: The Open Source CFD Toolbox           |
|  \\    /   O peration     | Version:  4.x                                   |
|   \\  /    A nd           | Web:      www.OpenFOAM.org                      |
|    \\/     M anipulation  |                                                 |
\*---------------------------------------------------------------------------*/
FoamFile
{
    version     2.0;
    format      ascii;
    class       surfaceScalarField;
    location    "11.5";
    object      phi;
}
// * * * * * * * * * * * * * * * * * * * * * * * * * * * * * * * * * * * * * //

dimensions      [0 3 -1 0 0 0 0];

internalField   nonuniform List<scalar> 
259
(
1.10432e-05
1.97129e-07
1.41695e-06
1.19939e-05
-4.30274e-07
8.97196e-07
1.19153e-05
6.29952e-07
1.96417e-06
1.44673e-05
-1.69076e-06
2.39293e-07
1.3745e-05
1.46361e-06
1.79359e-06
-8.17226e-06
-3.28252e-06
7.52565e-06
-2.16231e-07
-2.29186e-07
7.90554e-06
1.05771e-08
5.70901e-08
8.02152e-06
-4.90804e-07
-4.0035e-07
8.43688e-06
2.25221e-07
1.94957e-07
8.07326e-06
-1.29992e-06
-8.56177e-07
8.64984e-06
1.07395e-06
9.02507e-07
-5.5995e-06
-3.02326e-06
6.38728e-06
2.52445e-07
6.23861e-06
-3.88674e-07
6.16325e-06
-3.22355e-07
5.90717e-06
-3.1015e-07
5.82787e-06
1.10362e-06
5.27704e-06
-1.24398e-07
7.41682e-06
4.90074e-08
1.678e-08
8.78687e-06
-8.30633e-08
2.89876e-07
9.7141e-06
-1.006e-06
7.67474e-07
9.82641e-06
-4.68249e-10
6.5122e-07
9.80674e-06
4.13988e-07
1.02263e-06
9.87587e-06
-1.94525e-07
1.0226e-06
8.94722e-06
1.70965e-06
1.18316e-06
8.05916e-06
-3.46852e-07
1.4742e-06
6.98379e-06
2.04894e-06
8.20017e-07
-7.99103e-07
2.23641e-06
5.3663e-06
-1.0963e-07
5.10154e-08
3.7449e-06
-4.49599e-07
5.0381e-07
3.40669e-06
1.92966e-07
-8.44162e-08
4.76103e-06
-5.3796e-07
-3.45297e-07
4.41763e-06
-1.78299e-07
-7.3174e-08
5.3875e-06
1.15047e-06
-2.15736e-07
4.25413e-06
-1.73688e-07
1.04031e-07
4.73924e-06
2.55101e-06
-8.46701e-08
-1.19758e-06
5.58179e-07
3.81383e-06
-4.32929e-08
4.85089e-08
1.95304e-06
8.35935e-07
8.27703e-07
1.71844e-06
-2.36291e-07
1.3301e-06
-4.85759e-08
7.8616e-07
-8.72156e-08
4.86602e-06
-1.00822e-06
4.06139e-06
3.2722e-07
5.68414e-06
-5.29346e-07
8.51066e-07
3.15608e-06
-1.22056e-07
-3.858e-07
9.66955e-06
-5.51403e-08
1.51592e-07
1.01126e-05
-1.76174e-07
5.00584e-07
1.0529e-05
-4.15226e-08
2.76405e-07
1.0828e-05
2.13801e-07
5.09773e-07
1.16377e-05
-3.25255e-07
5.38121e-07
1.15707e-05
7.48898e-07
5.01263e-07
1.31929e-05
-1.4081e-06
1.26012e-06
1.20369e-05
1.90102e-06
7.49891e-08
-6.38528e-06
2.59524e-06
6.45995e-06
-3.46194e-08
6.97395e-08
6.899e-06
-7.96365e-07
6.84951e-07
6.86021e-06
-4.42184e-08
-4.29238e-08
6.88078e-06
1.30766e-07
-2.8283e-07
6.8498e-06
-2.47909e-07
-1.19545e-07
7.53951e-06
2.45864e-07
-4.02411e-07
7.22772e-06
-1.04513e-06
5.28548e-08
7.76229e-06
2.02585e-06
-7.44074e-07
-4.59158e-06
1.04648e-06
6.76503e-06
-6.42191e-08
2.40239e-08
6.81227e-06
-7.63356e-07
7.47454e-07
6.51365e-06
1.50103e-07
-1.31999e-07
6.46924e-06
1.15473e-07
1.1128e-08
6.32926e-06
-1.33043e-07
6.5762e-06
-1.06182e-06
6.14341e-06
1.26377e-07
6.88755e-06
-8.98565e-07
6.55911e-07
5.1842e-06
6.83031e-08
2.19941e-06
1.0843e-06
1.74681e-06
-1.29781e-07
7.84052e-08
1.07261e-05
-1.49166e-07
1.13937e-05
-1.66963e-07
1.18814e-05
-2.11298e-07
1.22554e-05
1.35765e-07
1.33927e-05
-5.99157e-07
1.33773e-05
5.16611e-07
1.67281e-05
-2.09066e-06
1.5588e-05
1.21506e-06
-9.25845e-06
9.794e-06
-2.16176e-07
1.06397e-05
-3.27741e-07
1.07554e-05
-3.69898e-07
1.08221e-05
-2.13778e-07
1.09564e-05
-8.52966e-07
1.09501e-05
1.20457e-07
1.09533e-05
-2.04096e-06
1.03426e-05
1.08169e-06
-6.22077e-06
9.33251e-06
-3.26118e-07
1.00191e-05
-2.66835e-07
1.00481e-05
-5.30917e-07
1.02199e-05
-3.74483e-07
1.01105e-05
-8.76563e-07
9.408e-06
-2.389e-07
9.00289e-06
8.20621e-06
8.78866e-06
9.51041e-06
9.18659e-06
9.04185e-06
8.36804e-06
)
;

boundaryField
{
    inlet
    {
        type            calculated;
        value           nonuniform 0();
    }
    outlet
    {
        type            calculated;
        value           nonuniform List<scalar> 
12
(
2.18472e-05
6.43426e-06
6.05876e-06
2.26397e-06
1.55629e-06
4.18839e-06
1.80634e-05
5.48029e-06
3.89962e-06
2.74417e-05
8.35139e-06
4.86778e-06
)
;
    }
    wall
    {
        type            calculated;
        value           nonuniform List<scalar> 
66
(
0
0
0
0
0
0
0
0
0
0
0
0
0
0
0
0
0
1.57772e-30
0
0
0
0
0
0
0
0
0
0
0
0
0
0
0
0
0
0
0
0
0
0
0
0
0
-3.15544e-30
0
0
0
0
0
0
0
0
0
0
0
0
0
0
0
0
0
0
2.01948e-28
0
0
0
)
;
    }
    procBoundary5to1
    {
        type            processor;
        value           nonuniform List<scalar> 
32
(
-1.82069e-06
-1.41764e-06
-2.51547e-06
-1.10061e-06
-2.53486e-06
3.35262e-06
6.09089e-08
-2.50435e-07
3.44905e-07
-2.0559e-07
8.28957e-07
-1.08943e-06
2.66608e-06
-4.4078e-07
4.28477e-07
2.96553e-07
1.55174e-07
-1.20936e-06
-7.5648e-07
-2.233e-06
-3.96162e-06
-3.26868e-07
-6.8871e-07
-1.08366e-05
1.38599e-07
-7.63057e-07
-2.72183e-08
-7.27974e-06
2.14808e-07
5.61194e-07
-6.35988e-06
3.22657e-08
)
;
    }
    procBoundary5to4
    {
        type            processor;
        value           nonuniform List<scalar> 
12
(
-8.66681e-06
-5.36353e-06
-3.96094e-06
-3.35353e-06
-9.47612e-06
-6.4992e-06
-6.71094e-06
-5.40847e-06
-1.04254e-05
-9.65725e-06
-9.19855e-06
-8.79863e-06
)
;
    }
    procBoundary5to7
    {
        type            processor;
        value           nonuniform List<scalar> 
44
(
-5.38751e-08
-1.07359e-07
1.11737e-07
-7.97489e-08
4.1026e-07
1.31787e-07
1.11817e-06
-2.96591e-07
2.1176e-07
1.16044e-06
2.75177e-07
-4.234e-07
1.42712e-07
-8.17558e-07
1.79327e-07
1.50661e-06
-5.36121e-07
6.44545e-08
2.13414e-06
1.08323e-06
4.78487e-07
-1.70919e-07
-6.20959e-08
5.25235e-08
-4.11503e-07
1.65093e-06
-1.40848e-06
-3.03081e-08
7.51342e-07
2.53996e-07
1.9602e-06
-5.40088e-09
1.56094e-07
5.50555e-08
-1.50947e-06
9.79794e-07
-2.22643e-06
-2.47843e-07
9.57095e-08
-3.36871e-07
-1.5134e-07
-3.58846e-07
8.38403e-06
-3.0995e-07
)
;
    }
}


// ************************************************************************* //
