/*--------------------------------*- C++ -*----------------------------------*\
| =========                 |                                                 |
| \\      /  F ield         | OpenFOAM: The Open Source CFD Toolbox           |
|  \\    /   O peration     | Version:  4.x                                   |
|   \\  /    A nd           | Web:      www.OpenFOAM.org                      |
|    \\/     M anipulation  |                                                 |
\*---------------------------------------------------------------------------*/
FoamFile
{
    version     2.0;
    format      ascii;
    class       volScalarField;
    location    "11.5";
    object      pSmooth;
}
// * * * * * * * * * * * * * * * * * * * * * * * * * * * * * * * * * * * * * //

dimensions      [1 -1 -2 0 0 0 0];

internalField   nonuniform List<scalar> 
114
(
69.1237
33.9763
63.6969
6.95894
61.7295
0.1
63.9989
68.6805
34.3823
61.0991
7.9799
55.4871
0.1
95.4022
64.0064
68.9645
35.0135
62.96
8.82277
58.6581
0.1
93.2721
95.4637
63.4357
68.2671
34.0969
60.8385
8.98192
55.6922
0.1
93.2776
95.5258
63.2375
68.1975
34.6469
59.7552
9.90714
52.086
0.1
92.6759
94.5599
63.231
68.9409
34.7299
58.317
10.6916
52.4961
0.1
92.8181
94.2866
93.13
94.9877
62.9513
68.0937
33.2193
61.7256
7.06666
59.2683
0.1
92.8695
94.6486
62.8963
68.3968
33.7516
60.5235
8.92595
53.542
0.1
92.2812
94.4424
62.2855
68.925
33.2466
62.09
8.43022
56.9521
0.1
91.9231
93.1872
61.9545
68.128
92.6966
94.7991
62.744
67.9249
33.294
60.9053
7.17205
58.729
0.1
92.248
94.3812
62.4194
67.4167
33.4741
59.0889
8.80532
52.9078
0.1
91.8589
93.8196
61.8526
67.2231
32.7675
59.7176
8.37966
54.6144
0.1
91.5054
93.4583
61.5646
67.0527
32.8772
58.5991
)
;

boundaryField
{
    inlet
    {
        type            zeroGradient;
    }
    outlet
    {
        type            fixedValue;
        value           uniform 0;
    }
    wall
    {
        type            zeroGradient;
    }
    procBoundary5to1
    {
        type            processor;
        value           nonuniform List<scalar> 
32
(
70.3289
34.7437
63.795
7.78636
59.2608
0.1
64.5802
68.8986
34.5745
59.9778
7.36812
53.7752
0.1
96.1413
64.614
68.2784
35.74
60.6956
8.55679
51.045
0.1
94.1854
95.9645
64.285
64.285
64.285
93.7141
95.4607
95.4607
95.4607
93.4501
93.4501
)
;
    }
    procBoundary5to4
    {
        type            processor;
        value           nonuniform List<scalar> 
12
(
122.233
121.229
120.491
119.358
121.768
121.309
120.411
119.702
121.492
120.999
120.468
120.004
)
;
    }
    procBoundary5to7
    {
        type            processor;
        value           nonuniform List<scalar> 
44
(
94.4063
63.586
68.0311
35.1127
60.3869
8.07859
52.9471
0.1
92.959
94.4063
63.0777
69.3557
34.6971
60.0959
10.2352
46.9777
0.1
92.2638
63.0777
94.3613
63.0777
69.3557
33.8879
60.9814
9.89738
49.7661
0.1
92.12
93.494
61.7066
33.8879
68.8592
33.8879
60.9814
9.68472
50.0534
0.1
92.1016
93.655
61.3761
67.79
32.9741
9.68472
60.7432
)
;
    }
}


// ************************************************************************* //
