/*--------------------------------*- C++ -*----------------------------------*\
| =========                 |                                                 |
| \\      /  F ield         | OpenFOAM: The Open Source CFD Toolbox           |
|  \\    /   O peration     | Version:  4.x                                   |
|   \\  /    A nd           | Web:      www.OpenFOAM.org                      |
|    \\/     M anipulation  |                                                 |
\*---------------------------------------------------------------------------*/
FoamFile
{
    version     2.0;
    format      ascii;
    class       volScalarField;
    location    "11.5";
    object      Sm;
}
// * * * * * * * * * * * * * * * * * * * * * * * * * * * * * * * * * * * * * //

dimensions      [1 -3 -1 0 0 0 0];

internalField   nonuniform List<scalar> 
114
(
6.81981e-65
8.05967e-65
6.35461e-65
6.74204e-65
7.59449e-65
8.44678e-65
6.81965e-65
5.65728e-65
5.81219e-65
6.66446e-65
8.21428e-65
8.52425e-65
7.9042e-65
8.44698e-65
6.04458e-65
7.43958e-65
5.81211e-65
4.5721e-65
6.97435e-65
5.73443e-65
8.67899e-65
6.27727e-65
4.8823e-65
6.97467e-65
5.42475e-65
6.43216e-65
6.81961e-65
7.12955e-65
5.65712e-65
5.96697e-65
7.12974e-65
6.81967e-65
8.52446e-65
7.12957e-65
8.36943e-65
8.1369e-65
5.26961e-65
8.60177e-65
6.89687e-65
8.21459e-65
4.5722e-65
7.28441e-65
7.59445e-65
6.19952e-65
7.05193e-65
7.12937e-65
6.89683e-65
5.57942e-65
9.99688e-65
4.41714e-65
6.66478e-65
8.21468e-65
6.74221e-65
7.36214e-65
6.97461e-65
6.89716e-65
6.66465e-65
7.28462e-65
6.58707e-65
5.3473e-65
8.36961e-65
6.19963e-65
7.1296e-65
7.12957e-65
7.05206e-65
9.14443e-65
6.43205e-65
5.50208e-65
8.05961e-65
6.35465e-65
7.05197e-65
5.96709e-65
1.01518e-64
7.362e-65
8.21439e-65
8.91173e-65
8.67917e-65
3.56479e-65
9.3769e-65
8.98927e-65
7.98183e-65
2.63493e-65
6.8973e-65
4.57238e-65
7.12972e-65
6.04465e-65
4.95979e-65
6.97472e-65
6.27726e-65
6.04471e-65
6.04477e-65
6.89723e-65
4.18483e-65
5.65727e-65
7.43969e-65
6.5097e-65
4.57226e-65
7.05209e-65
6.0446e-65
6.27722e-65
6.27721e-65
8.52452e-65
6.89712e-65
5.88966e-65
8.05953e-65
6.50957e-65
6.74201e-65
6.81943e-65
7.20714e-65
5.50221e-65
7.28449e-65
5.65706e-65
9.68681e-65
7.74947e-65
)
;

boundaryField
{
    inlet
    {
        type            calculated;
        value           nonuniform 0();
    }
    outlet
    {
        type            calculated;
        value           uniform 0;
    }
    wall
    {
        type            calculated;
        value           uniform 0;
    }
    procBoundary5to1
    {
        type            processor;
        value           nonuniform List<scalar> 
32
(
7.90499e-65
5.81244e-65
8.44695e-65
7.05204e-65
5.73465e-65
4.18457e-65
5.65716e-65
6.1225e-65
6.97472e-65
6.9743e-65
6.58693e-65
7.2069e-65
4.41694e-65
6.35451e-65
5.11463e-65
9.06711e-65
8.29188e-65
8.75666e-65
6.81935e-65
7.90416e-65
3.48705e-65
6.58732e-65
5.2698e-65
8.05968e-65
8.05968e-65
8.05968e-65
7.05211e-65
9.99694e-65
9.99694e-65
9.99694e-65
5.73467e-65
5.73467e-65
)
;
    }
    procBoundary5to4
    {
        type            processor;
        value           nonuniform List<scalar> 
12
(
8.91239e-65
9.06719e-65
5.65725e-65
5.96717e-65
8.2149e-65
8.13727e-65
6.81971e-65
6.81964e-65
7.20744e-65
7.59481e-65
6.27729e-65
6.35477e-65
)
;
    }
    procBoundary5to7
    {
        type            processor;
        value           nonuniform List<scalar> 
44
(
7.82694e-65
6.43198e-65
6.74204e-65
1.03068e-64
1.0384e-64
7.98174e-65
5.65683e-65
8.36897e-65
9.91935e-65
7.82694e-65
6.43194e-65
7.36191e-65
6.74191e-65
6.89692e-65
8.60159e-65
8.44653e-65
7.36167e-65
3.95214e-65
6.43194e-65
8.52433e-65
6.43194e-65
7.36191e-65
5.03717e-65
5.81206e-65
7.36185e-65
6.04438e-65
5.81185e-65
8.05953e-65
7.36199e-65
6.81946e-65
5.03717e-65
5.19211e-65
5.03717e-65
5.81206e-65
5.50211e-65
6.43196e-65
6.12193e-65
6.89727e-65
5.81222e-65
7.67195e-65
7.43952e-65
5.1922e-65
5.50211e-65
3.87478e-65
)
;
    }
}


// ************************************************************************* //
