/*--------------------------------*- C++ -*----------------------------------*\
  =========                 |
  \\      /  F ield         | OpenFOAM: The Open Source CFD Toolbox
   \\    /   O peration     | Website:  https://openfoam.org
    \\  /    A nd           | Version:  4.x
     \\/     M anipulation  |
\*---------------------------------------------------------------------------*/
FoamFile
{
    version     2.0;
    format      ascii;
    class       Cloud<passiveParticle>;
    location    0;
    object      positions;
}
// * * * * * * * * * * * * * * * * * * * * * * * * * * * * * * * * * * * * * //

257
(
( 0.0239245 0.0373804 0.0153925 ) 6
( 0.248851 0.0515968 -0.00691613 ) 2
( 0.0274659 0.0279959 0.0324908 ) 6
( 0.0326922 0.0721614 0.0175477 ) 25
( 0.242621 0.0711845 0.000248256 ) 2
( 0.19722 0.0713398 0.00281031 ) 1
( 0.225949 0.0399173 -0.0104395 ) 0
( 0.106133 0.0456143 0.0369946 ) 18
( 0.167963 0.0195937 0.018728 ) 12
( 0.131616 0.0345231 0.0151911 ) 10
( 0.068419 0.0674763 0.0308757 ) 17
( 0.219536 0.0675305 0.00872854 ) 1
( 0.0544146 0.0347077 0.0266233 ) 7
( 0.140009 0.0400391 0.0351584 ) 11
( 0.0877588 0.0459002 0.0297763 ) 18
( 0.111172 0.0899734 0.0147653 ) 28
( 0.0347434 0.0152717 0.0196168 ) 7
( 0.0646158 0.0900694 0.0200145 ) 26
( 0.179281 0.0835213 0.0155409 ) 30
( 0.164093 0.0745168 0.0244458 ) 29
( 0.0485615 0.0727837 0.030475 ) 25
( 0.240664 0.0901353 0.0189469 ) 32
( 0.230175 0.0220731 -0.00347087 ) 0
( 0.10885 0.0619974 0.0224991 ) 18
( 0.0965043 0.0291489 0.0242376 ) 9
( 0.190044 0.0510184 0.0147329 ) 21
( 0.132814 0.0149171 0.0178021 ) 10
( 0.215079 0.0717701 -0.00996557 ) 4
( 0.139872 0.0520958 0.0197207 ) 20
( 0.0154126 0.0178851 0.0171809 ) 6
( 0.117525 0.0783835 0.0295213 ) 28
( 0.131815 0.0203039 0.0365691 ) 10
( 0.20376 0.0369311 0.0171194 ) 13
( 0.214024 0.0534721 0.0213089 ) 22
( 0.0097704 0.0745027 0.021633 ) 24
( 0.20642 0.0518876 0.00316048 ) 1
( 0.0986353 0.089953 0.0300004 ) 27
( 0.110575 0.0153314 0.0251055 ) 9
( 0.201195 0.0270062 0.0339375 ) 13
( 0.239622 0.0358926 0.0163814 ) 14
( 0.146103 0.073053 0.0167155 ) 29
( 0.0915771 0.063306 0.0383181 ) 18
( 0.191251 0.0902357 0.00126436 ) 3
( 0.159775 0.0557216 0.020841 ) 20
( 0.019609 0.0901923 0.0281117 ) 24
( 0.216262 0.086795 0.0209836 ) 31
( 0.231938 0.0529334 0.0029377 ) 2
( 0.224508 0.0278622 0.0261417 ) 14
( 0.130444 0.0900896 0.0197331 ) 28
( 0.17337 0.0901601 -0.0075729 ) 3
( 0.00982114 0.0193784 0.0360165 ) 6
( 0.231645 0.0491452 0.0301725 ) 23
( 0.196843 0.0901828 0.0218047 ) 31
( 0.0373264 0.0513653 0.0195542 ) 16
( 0.0683704 0.0502177 0.0209769 ) 17
( 0.0797623 0.0838132 0.0312014 ) 26
( 0.240612 0.0165943 0.012221 ) 0
( 0.195404 0.0703566 0.0223649 ) 22
( 0.149313 0.0902482 0.0258518 ) 29
( 0.150979 0.0258344 0.0270863 ) 11
( 0.208396 0.0902025 -0.00856535 ) 4
( 0.243204 0.0903981 -0.00381066 ) 5
( 0.0920956 0.0724191 0.0206897 ) 27
( 0.0387628 0.089677 0.024271 ) 25
( 0.018664 0.0568659 0.0224423 ) 15
( 0.227867 0.0748156 0.0315445 ) 32
( 0.00990359 0.0380746 0.0291647 ) 6
( 0.224691 0.0900608 0.00333074 ) 5
( 0.236567 0.0641162 0.0181362 ) 23
( 0.127359 0.0670373 0.0174876 ) 19
( 0.198035 0.0505056 0.0326512 ) 22
( 0.185433 0.0289665 0.0172128 ) 12
( 0.0763335 0.0319758 0.0213776 ) 8
( 0.248359 0.0753826 0.0296881 ) 32
( 0.051612 0.0534679 0.032926 ) 16
( 0.167035 0.0381403 0.0254831 ) 12
( 0.0537218 0.0151988 0.0535527 ) 34
( 0.0883913 0.0319192 0.0573316 ) 36
( 0.16747 0.0676097 0.0422671 ) 21
( 0.113293 0.0418243 0.0190429 ) 10
( 0.0489839 0.0319955 0.0627224 ) 34
( 0.208461 0.0547953 0.0521141 ) 49
( 0.028998 0.0595415 0.0546025 ) 43
( 0.124716 0.0558335 0.0552758 ) 46
( 0.181721 0.0274889 0.0571026 ) 39
( 0.175663 0.0900192 0.0531923 ) 57
( 0.0314349 0.0403444 0.059165 ) 34
( 0.0714157 0.0596148 0.058956 ) 44
( 0.104845 0.0219581 0.0623818 ) 36
( 0.108034 0.0804517 0.0593278 ) 54
( 0.105864 0.0594667 0.0601495 ) 45
( 0.0553046 0.0890404 0.0560822 ) 52
( 0.150506 0.0695608 0.056939 ) 47
( 0.132196 0.0398907 0.0639759 ) 37
( 0.020839 0.0793708 0.0569352 ) 51
( 0.179944 0.0552501 0.0553859 ) 48
( 0.13975 0.0214695 0.0647815 ) 38
( 0.0702265 0.0399127 0.0586726 ) 35
( 0.134492 0.090079 0.0589106 ) 55
( 0.238532 0.0470212 0.0496257 ) 50
( 0.0098809 0.0170867 0.0644132 ) 33
( 0.228698 0.0874694 0.056441 ) 59
( 0.207526 0.0760393 0.0524605 ) 58
( 0.0840008 0.0891454 0.0658586 ) 54
( 0.149196 0.0490227 0.0574432 ) 47
( 0.159008 0.0901152 0.0674312 ) 56
( 0.0097249 0.0635645 0.0595123 ) 42
( 0.0955709 0.037932 0.0744009 ) 63
( 0.249578 0.0176026 0.0549268 ) 41
( 0.192563 0.0653841 0.0445229 ) 48
( 0.0447061 0.0526822 0.069696 ) 43
( 0.0843952 0.0736271 0.053531 ) 54
( 0.225577 0.0609868 0.044859 ) 50
( 0.113021 0.0906134 0.043626 ) 55
( 0.197142 0.0514596 0.0679162 ) 49
( 0.129863 0.072445 0.0458978 ) 55
( 0.166399 0.0903749 0.0356713 ) 29
( 0.0616023 0.0168807 0.0732679 ) 62
( 0.0381871 0.0831308 0.0468807 ) 52
( 0.229534 0.0181371 0.0603707 ) 41
( 0.199594 0.0203391 0.0522743 ) 40
( 0.212168 0.0352879 0.0548938 ) 40
( 0.164977 0.037217 0.0612164 ) 38
( 0.106107 0.026001 0.0412675 ) 9
( 0.0215672 0.0251697 0.0509385 ) 33
( 0.013616 0.039575 0.0678693 ) 33
( 0.166768 0.0247104 0.0444893 ) 39
( 0.0440031 0.0708127 0.0614243 ) 43
( 0.249953 0.0572637 0.0374061 ) 23
( 0.0570746 0.0664839 0.0471894 ) 44
( 0.111133 0.0641847 0.0419082 ) 19
( 0.00976257 0.0903078 0.044985 ) 51
( 0.216872 0.0897754 0.0406109 ) 31
( 0.0941591 0.0902292 0.0491083 ) 54
( 0.2494 0.0459932 0.0689447 ) 50
( 0.171253 0.0719206 0.0607828 ) 57
( 0.0312268 0.0651074 0.035869 ) 16
( 0.179156 0.0560532 0.031378 ) 21
( 0.152387 0.0549085 0.0390335 ) 20
( 0.0737783 0.090132 0.0489594 ) 53
( 0.0639023 0.0297032 0.0430755 ) 35
( 0.0260678 0.0464093 0.0391617 ) 15
( 0.0431874 0.032052 0.0438553 ) 34
( 0.123039 0.033662 0.0479471 ) 37
( 0.148627 0.0305767 0.049971 ) 38
( 0.151732 0.0902385 0.0489931 ) 56
( 0.182923 0.0333474 0.0362717 ) 12
( 0.125972 0.072926 0.0653047 ) 55
( 0.209699 0.0666996 0.0352536 ) 22
( 0.0887885 0.0515537 0.0540924 ) 45
( 0.197139 0.0900844 0.041695 ) 31
( 0.106319 0.0403944 0.0559121 ) 36
( 0.116989 0.0472454 0.0742776 ) 73
( 0.2475 0.0787465 0.056123 ) 59
( 0.0860086 0.0707617 0.0730754 ) 72
( 0.246682 0.0372335 0.0346273 ) 14
( 0.0124061 0.0606172 0.0405202 ) 15
( 0.219912 0.0666931 0.0711498 ) 49
( 0.228934 0.0305136 0.0452741 ) 41
( 0.121661 0.0252367 0.0721664 ) 64
( 0.083328 0.0277565 0.0390184 ) 8
( 0.193592 0.0708454 0.0657026 ) 48
( 0.134541 0.0902987 0.0390161 ) 28
( 0.182297 0.0789125 0.0346019 ) 30
( 0.23655 0.0905823 0.0384341 ) 32
( 0.0275056 0.0631847 0.073823 ) 69
( 0.180424 0.0153996 0.0733461 ) 66
( 0.0534839 0.0474172 0.0514485 ) 43
( 0.0537626 0.0904691 0.0367054 ) 25
( 0.0638551 0.0502289 0.074308 ) 71
( 0.0727667 0.0512048 0.0413051 ) 17
( 0.0491591 0.016599 0.0330481 ) 7
( 0.241624 0.017552 0.0370185 ) 14
( 0.0348311 0.0902383 0.0651719 ) 52
( 0.214787 0.0412546 0.0366774 ) 13
( 0.15841 0.0589313 0.071739 ) 74
( 0.127774 0.0556362 0.035356 ) 19
( 0.149231 0.0742936 0.0376589 ) 29
( 0.210115 0.0838795 0.0703357 ) 58
( 0.135029 0.0572445 0.0733693 ) 73
( 0.0105455 0.0900359 0.070258 ) 51
( 0.00968354 0.0408494 0.0486728 ) 33
( 0.0274654 0.0230573 0.0733985 ) 60
( 0.193852 0.090126 0.0611288 ) 57
( 0.238563 0.0745346 0.075948 ) 86
( 0.143363 0.0790758 0.0728104 ) 83
( 0.101019 0.0206325 0.0816326 ) 63
( 0.168677 0.0444895 0.0436262 ) 48
( 0.149251 0.0366574 0.0726152 ) 65
( 0.0660279 0.0744867 0.0704562 ) 53
( 0.101954 0.0900245 0.0759527 ) 81
( 0.212001 0.0361464 0.074143 ) 67
( 0.0865673 0.0310872 0.0905401 ) 63
( 0.193737 0.041774 0.0506034 ) 39
( 0.175421 0.048861 0.0729984 ) 75
( 0.0728912 0.0192493 0.0571932 ) 35
( 0.00952837 0.0563145 0.0774595 ) 69
( 0.165972 0.07556 0.078972 ) 83
( 0.188994 0.034519 0.0740209 ) 66
( 0.093164 0.0552341 0.0829959 ) 72
( 0.244679 0.0429816 0.0903287 ) 77
( 0.121706 0.0901643 0.0740272 ) 82
( 0.07732 0.0291895 0.0735425 ) 62
( 0.0427041 0.0732211 0.0810069 ) 79
( 0.0510731 0.0370785 0.0814319 ) 61
( 0.109268 0.0703304 0.0756913 ) 72
( 0.229473 0.0403641 0.0658688 ) 41
( 0.0227057 0.0734781 0.0901366 ) 78
( 0.169892 0.0310107 0.0795323 ) 66
( 0.0297029 0.0433759 0.078743 ) 70
( 0.110556 0.0370378 0.0901248 ) 63
( 0.202231 0.0579195 0.0859734 ) 76
( 0.236314 0.0628677 0.0607659 ) 50
( 0.0765463 0.073882 0.090187 ) 80
( 0.165186 0.015005 0.0903407 ) 65
( 0.198397 0.0772368 0.0845871 ) 85
( 0.00974885 0.026134 0.0817852 ) 60
( 0.227671 0.0905233 0.0759572 ) 86
( 0.183358 0.0648053 0.081553 ) 75
( 0.148057 0.0528691 0.0876575 ) 74
( 0.234433 0.0548561 0.0785153 ) 77
( 0.0517187 0.0903166 0.0751453 ) 79
( 0.130715 0.067174 0.0901118 ) 73
( 0.0602903 0.0611702 0.0902339 ) 71
( 0.233592 0.0281017 0.0809128 ) 68
( 0.0711643 0.0904593 0.0804854 ) 80
( 0.140664 0.0900577 0.0901036 ) 83
( 0.0100458 0.0900255 0.0901334 ) 78
( 0.135624 0.0289671 0.0857872 ) 64
( 0.2016 0.0204667 0.079921 ) 67
( 0.180893 0.0439847 0.0906884 ) 75
( 0.178059 0.0902394 0.0728819 ) 84
( 0.201516 0.0387334 0.0904351 ) 67
( 0.0746351 0.0470126 0.0903504 ) 71
( 0.149936 0.0724784 0.0902515 ) 83
( 0.039919 0.0558785 0.0902307 ) 70
( 0.115118 0.081414 0.0905332 ) 82
( 0.22486 0.0673894 0.0903228 ) 77
( 0.111518 0.0573893 0.0903296 ) 73
( 0.037408 0.0900345 0.0901434 ) 79
( 0.0359653 0.028522 0.0904117 ) 61
( 0.18556 0.0242119 0.0904575 ) 66
( 0.21197 0.090229 0.0903204 ) 85
( 0.154074 0.0343027 0.0908656 ) 65
( 0.118261 0.018712 0.0906085 ) 64
( 0.160678 0.0901289 0.090508 ) 83
( 0.129114 0.0472582 0.090137 ) 73
( 0.0662961 0.0283597 0.0903293 ) 62
( 0.243205 0.0900337 0.090148 ) 86
( 0.22159 0.0406583 0.0904707 ) 67
( 0.218034 0.0208862 0.0907992 ) 67
( 0.166884 0.05858 0.0902597 ) 75
( 0.0138251 0.0429864 0.0907343 ) 69
( 0.0578247 0.0808253 0.0908134 ) 80
( 0.0882378 0.090229 0.0902714 ) 81
( 0.180301 0.0821916 0.0905727 ) 84
( 0.0972325 0.0727116 0.0906636 ) 81
)
