/*--------------------------------*- C++ -*----------------------------------*\
| =========                 |                                                 |
| \\      /  F ield         | OpenFOAM: The Open Source CFD Toolbox           |
|  \\    /   O peration     | Version:  4.x                                   |
|   \\  /    A nd           | Web:      www.OpenFOAM.org                      |
|    \\/     M anipulation  |                                                 |
\*---------------------------------------------------------------------------*/
FoamFile
{
    version     2.0;
    format      ascii;
    class       volScalarField;
    location    "41";
    object      QWallFluidCoeff;
}
// * * * * * * * * * * * * * * * * * * * * * * * * * * * * * * * * * * * * * //

dimensions      [1 -1 -3 -1 0 0 0];

internalField   nonuniform List<scalar> 
108
(
-2.18497e+06
-3.47734e+06
-2.23056e+06
-3.64692e+06
-2.1733e+06
-3.84109e+06
-1.88866e+06
-4.10493e+06
-1.62921e+06
-1.77227e+06
-3.15113e+06
-1.63917e+06
-3.1609e+06
-1.33538e+06
-2.99114e+06
-678209
-2.39289e+06
-102.349
-2.17118e+06
-3.43811e+06
-2.19629e+06
-3.61071e+06
-2.13205e+06
-3.84978e+06
-1.90099e+06
-4.28181e+06
-1.85208e+06
-5.28118e+06
-7.43068e+06
-5.36674e+06
-7.66118e+06
-5.23365e+06
-8.08937e+06
-4.77828e+06
-8.94766e+06
-3.86709e+06
0
0
0
0
0
0
0
0
0
0
0
0
0
0
0
0
0
0
0
0
0
0
0
0
0
0
0
-1.97596e+06
-3.2911e+06
-1.96483e+06
-3.39818e+06
-1.85462e+06
-3.61667e+06
-1.62177e+06
-4.17636e+06
-1.99005e+06
0
0
0
0
0
0
0
0
0
0
0
0
0
0
0
0
0
0
0
0
0
0
0
0
0
0
0
-1.55296e+06
-3.01765e+06
-1.49083e+06
-3.07386e+06
-1.35278e+06
-3.19646e+06
-1.21064e+06
-3.62717e+06
-1.17003e+06
)
;

boundaryField
{
    inlet
    {
        type            calculated;
        value           nonuniform 0();
    }
    outlet
    {
        type            calculated;
        value           uniform 0;
    }
    wall
    {
        type            calculated;
        value           uniform 0;
    }
    procBoundary3to1
    {
        type            processor;
        value           uniform 0;
    }
    procBoundary3to2
    {
        type            processor;
        value           uniform 0;
    }
    procBoundary3to7
    {
        type            processor;
        value           uniform 0;
    }
}


// ************************************************************************* //
