/*--------------------------------*- C++ -*----------------------------------*\
| =========                 |                                                 |
| \\      /  F ield         | OpenFOAM: The Open Source CFD Toolbox           |
|  \\    /   O peration     | Version:  4.x                                   |
|   \\  /    A nd           | Web:      www.OpenFOAM.org                      |
|    \\/     M anipulation  |                                                 |
\*---------------------------------------------------------------------------*/
FoamFile
{
    version     2.0;
    format      ascii;
    class       volScalarField;
    location    "56";
    object      p;
}
// * * * * * * * * * * * * * * * * * * * * * * * * * * * * * * * * * * * * * //

dimensions      [1 -1 -2 0 0 0 0];

internalField   nonuniform List<scalar> 
87
(
5652.66
5708.51
5632.97
5702.87
5611.64
5698.93
5586.89
5699.36
5551.82
5652.22
5708.45
5632.29
5702.84
5610.97
5698.93
5586.42
5698.76
5555.9
5653.08
5708.79
5633.57
5702.69
5613.36
5697.59
5591.28
5694.56
5565.16
3775.03
3830.86
3755.98
3824.84
3735.93
3819.53
3714.95
3815.73
3694.44
3774.7
3830.81
3755.3
3824.83
3734.88
3819.47
3713.28
3815.92
3692.19
3775.48
3831.21
3756.52
3824.49
3737.86
3817.94
3718.76
3811.48
3703.75
1896.99
1952.78
1877.52
1946.86
1856.77
1942.12
1834.77
1939.8
1812.33
1896.5
1952.69
1876.75
1946.64
1856.13
1941.63
1834.4
1939.11
1812.26
1898.08
1952.85
1879.32
1946.42
1860.21
1940.59
1841.02
1935.84
1823.76
20.5244
75.5991
2.12334
20.297
75.2382
22.5739
)
;

boundaryField
{
    inlet
    {
        type            calculated;
        value           nonuniform 0();
    }
    outlet
    {
        type            calculated;
        value           nonuniform List<scalar> 9(5633.74 5633.74 5633.74 3755.83 3755.83 3755.83 1877.91 1877.91 1877.91);
    }
    wall
    {
        type            calculated;
        value           nonuniform List<scalar> 
57
(
6591.61
6591.18
6592.04
6647.47
6647.41
6647.75
6571.92
6571.25
6572.53
6641.83
6641.79
6641.65
6550.59
6549.92
6552.31
6637.89
6637.89
6636.54
6525.85
6525.38
6530.23
6638.31
6637.72
6633.52
6485.39
6494.43
6503.94
5652.66
3775.03
1896.99
20.5244
5708.51
3830.86
1952.78
75.5991
5632.97
3755.98
1877.52
2.12334
5702.87
3824.84
1946.86
5611.64
3735.93
1856.77
5698.93
3819.53
1942.12
5586.89
3714.95
1834.77
5699.36
3815.73
1939.8
5551.82
3694.44
1812.33
)
;
    }
    procBoundary1to0
    {
        type            processor;
        value           nonuniform List<scalar> 
12
(
5714.77
5714.83
5715.34
3837.37
3837.5
3838.02
1959.26
1959.35
1959.75
82.1479
82.2077
82.0764
)
;
    }
    procBoundary1to3
    {
        type            processor;
        value           nonuniform List<scalar> 
27
(
5652.1
5708.53
5632.34
5702.74
5610.88
5698.67
5587.8
5697.27
5560.97
3774.12
3830.83
3754.27
3824.58
3733.2
3819.58
3712.82
3816.67
3690.67
1897.24
1952.76
1877.83
1946.28
1858.18
1940.96
1839.15
1936.87
1822.02
)
;
    }
    procBoundary1to5
    {
        type            processor;
        value           nonuniform List<scalar> 
32
(
69.2385
-16.1368
62.5403
-33.1731
55.8271
-46.781
1.38426
68.5596
-17.13
62.3402
-35.3009
56.4821
-50.9761
75.1352
4.9789
68.46
-12.4716
61.8725
-29.4735
53.7933
-44.5348
-1858.32
-1803.01
69.2385
1.38426
-1877.53
-1858.19
1.38426
75.1352
-1802.89
75.1352
-1856.75
)
;
    }
    procBoundary1to7
    {
        type            processor;
        value           uniform 20.7481;
    }
}


// ************************************************************************* //
