/*--------------------------------*- C++ -*----------------------------------*\
| =========                 |                                                 |
| \\      /  F ield         | OpenFOAM: The Open Source CFD Toolbox           |
|  \\    /   O peration     | Version:  4.x                                   |
|   \\  /    A nd           | Web:      www.OpenFOAM.org                      |
|    \\/     M anipulation  |                                                 |
\*---------------------------------------------------------------------------*/
FoamFile
{
    version     2.0;
    format      ascii;
    class       volVectorField;
    location    "56";
    object      UsNext;
}
// * * * * * * * * * * * * * * * * * * * * * * * * * * * * * * * * * * * * * //

dimensions      [0 1 -1 0 0 0 0];

internalField   nonuniform List<vector> 
87
(
(1.58159e-08 -9.83985e-09 -1.26867e-08)
(2.66845e-08 -1.48674e-08 -6.79245e-09)
(-1.88817e-08 -1.49717e-08 -7.9273e-09)
(-4.31171e-08 -2.12132e-09 -1.34623e-08)
(-2.22443e-08 7.6261e-09 6.32826e-09)
(-8.81548e-09 5.24559e-09 1.1374e-09)
(-2.1058e-09 1.23844e-09 -1.41498e-09)
(1.0043e-07 3.17964e-09 -6.88042e-09)
(5.26392e-08 -3.55595e-09 -1.05613e-08)
(2.47931e-08 -8.414e-09 -1.28565e-08)
(5.04471e-08 -1.60249e-08 -1.40256e-08)
(-4.22176e-08 -1.71726e-08 -1.19793e-08)
(-7.1933e-08 7.43962e-10 -1.65977e-08)
(-5.41398e-08 6.64929e-09 -1.14616e-08)
(-1.58633e-08 -4.17919e-10 -1.02598e-09)
(-8.20236e-09 1.41026e-09 -2.22082e-09)
(-3.20028e-09 -5.50013e-10 -2.99329e-09)
(-2.14803e-09 -5.86128e-09 -4.47648e-09)
(2.48039e-08 -7.50531e-09 -2.24449e-08)
(3.28285e-08 -1.35979e-08 -2.75631e-08)
(-2.98975e-08 4.06584e-09 -2.13192e-08)
(-7.20291e-08 7.00887e-09 -2.05321e-08)
(-4.74515e-08 -1.72053e-09 -1.22241e-08)
(-2.63218e-08 8.81966e-10 -5.39784e-09)
(-1.25265e-08 1.85935e-10 3.02084e-09)
(-3.51531e-09 1.84636e-09 -2.80292e-09)
(1.65093e-09 1.23485e-09 -7.83135e-10)
(1.60384e-08 -5.28262e-09 -7.18662e-09)
(1.22234e-08 -8.26759e-09 -4.5486e-09)
(-6.21498e-09 -9.76835e-09 -6.61236e-09)
(-2.83886e-08 7.70857e-10 -3.53239e-09)
(-1.70106e-08 2.16485e-09 9.51752e-10)
(-5.47491e-09 -1.12086e-10 -3.40758e-10)
(-2.93204e-09 3.33783e-10 -1.15853e-09)
(-6.63558e-10 2.32349e-10 -2.37405e-09)
(-1.45032e-10 -8.09277e-10 -3.51201e-09)
(2.44707e-08 -4.91627e-09 -1.2762e-08)
(2.79875e-08 -9.91865e-09 -1.50966e-08)
(-2.47245e-08 -7.39788e-09 -9.63468e-09)
(-5.76542e-08 2.71685e-09 -1.49898e-08)
(-3.63703e-08 1.45288e-10 -1.26732e-08)
(-1.84583e-08 -1.5956e-09 -7.21701e-09)
(-1.09522e-08 4.78832e-10 -1.37835e-09)
(-3.81523e-09 6.36544e-10 -3.28778e-09)
(1.55501e-09 -1.28224e-09 -3.12681e-09)
(2.05283e-08 -7.82422e-09 -1.53046e-08)
(2.13288e-08 -5.21771e-09 -2.16575e-08)
(-1.2459e-08 -2.70935e-09 -1.55468e-08)
(-5.19029e-08 -9.08315e-12 -1.6795e-08)
(-4.07215e-08 -4.43991e-10 -1.54645e-08)
(-2.59883e-08 -1.67722e-09 -1.04152e-08)
(-1.05656e-08 -9.41377e-10 -2.53993e-09)
(-5.78946e-09 3.0723e-10 -3.21836e-09)
(-1.14482e-09 -2.23739e-10 -8.56142e-10)
(9.95883e-09 -4.45143e-10 -3.16579e-09)
(1.49581e-08 -4.17673e-09 -2.64068e-09)
(-3.40205e-09 -2.59957e-09 -8.36906e-09)
(-2.03182e-08 1.74458e-09 -7.55111e-10)
(-1.5842e-08 2.7907e-09 -1.56579e-10)
(-7.38272e-09 7.60995e-10 -1.1333e-09)
(-3.76629e-09 5.9373e-10 -8.62895e-10)
(-2.65718e-09 8.84446e-10 -1.448e-09)
(-4.27247e-10 6.84046e-10 -1.57358e-09)
(1.38958e-08 -1.8407e-10 -7.16808e-09)
(1.70638e-08 -6.66846e-09 -7.26437e-09)
(-4.41412e-09 -5.70561e-09 -9.31164e-09)
(-2.6881e-08 -5.62709e-09 -6.29452e-09)
(-1.95298e-08 9.33224e-10 -4.42948e-09)
(-9.62756e-09 7.14987e-10 -3.63398e-09)
(-5.9187e-09 9.30329e-10 -2.1241e-09)
(-4.07882e-09 8.25521e-10 -2.52782e-09)
(-1.42124e-09 8.28503e-11 -7.81274e-10)
(1.46728e-08 -5.08585e-09 -8.27154e-09)
(1.45684e-08 -6.62366e-09 -1.46394e-08)
(-3.50704e-12 -7.68882e-09 -1.48996e-08)
(-2.04847e-08 -6.64306e-09 -7.39597e-09)
(-2.37465e-08 -8.36872e-10 -1.15083e-08)
(-1.46761e-08 9.52233e-10 -8.21904e-09)
(-8.3871e-09 2.84582e-10 -3.78339e-09)
(-5.55579e-09 3.9985e-10 -3.68793e-09)
(-2.07502e-09 6.07806e-11 -8.40273e-10)
(6.30931e-09 2.23828e-10 -2.3137e-09)
(9.31144e-09 4.48078e-10 -1.93985e-09)
(-2.03227e-09 -4.12811e-09 -1.10717e-09)
(1.13579e-08 -3.77916e-10 -4.15499e-09)
(9.99643e-09 -3.10685e-09 -2.89751e-09)
(1.19295e-08 -1.88502e-09 -5.80882e-09)
)
;

boundaryField
{
    inlet
    {
        type            calculated;
        value           nonuniform 0();
    }
    outlet
    {
        type            calculated;
        value           nonuniform List<vector> 9((5.26392e-08 -3.55595e-09 -1.05613e-08) (-2.14803e-09 -5.86128e-09 -4.47648e-09) (1.65093e-09 1.23485e-09 -7.83135e-10) (-1.45032e-10 -8.09277e-10 -3.51201e-09) (1.55501e-09 -1.28224e-09 -3.12681e-09) (-1.14482e-09 -2.23739e-10 -8.56142e-10) (-4.27247e-10 6.84046e-10 -1.57358e-09) (-1.42124e-09 8.28503e-11 -7.81274e-10) (-2.07502e-09 6.07806e-11 -8.40273e-10));
    }
    wall
    {
        type            calculated;
        value           nonuniform List<vector> 
57
(
(1.58159e-08 -9.83985e-09 -1.26867e-08)
(2.47931e-08 -8.414e-09 -1.28565e-08)
(2.48039e-08 -7.50531e-09 -2.24449e-08)
(2.66845e-08 -1.48674e-08 -6.79245e-09)
(5.04471e-08 -1.60249e-08 -1.40256e-08)
(3.28285e-08 -1.35979e-08 -2.75631e-08)
(-1.88817e-08 -1.49717e-08 -7.9273e-09)
(-4.22176e-08 -1.71726e-08 -1.19793e-08)
(-2.98975e-08 4.06584e-09 -2.13192e-08)
(-4.31171e-08 -2.12132e-09 -1.34623e-08)
(-7.1933e-08 7.43962e-10 -1.65977e-08)
(-7.20291e-08 7.00887e-09 -2.05321e-08)
(-2.22443e-08 7.6261e-09 6.32826e-09)
(-5.41398e-08 6.64929e-09 -1.14616e-08)
(-4.74515e-08 -1.72053e-09 -1.22241e-08)
(-8.81548e-09 5.24559e-09 1.1374e-09)
(-1.58633e-08 -4.17919e-10 -1.02598e-09)
(-2.63218e-08 8.81966e-10 -5.39784e-09)
(-2.1058e-09 1.23844e-09 -1.41498e-09)
(-8.20236e-09 1.41026e-09 -2.22082e-09)
(-1.25265e-08 1.85935e-10 3.02084e-09)
(1.0043e-07 3.17964e-09 -6.88042e-09)
(-3.20028e-09 -5.50013e-10 -2.99329e-09)
(-3.51531e-09 1.84636e-09 -2.80292e-09)
(5.26392e-08 -3.55595e-09 -1.05613e-08)
(-2.14803e-09 -5.86128e-09 -4.47648e-09)
(1.65093e-09 1.23485e-09 -7.83135e-10)
(1.58159e-08 -9.83985e-09 -1.26867e-08)
(1.60384e-08 -5.28262e-09 -7.18662e-09)
(9.95883e-09 -4.45143e-10 -3.16579e-09)
(6.30931e-09 2.23828e-10 -2.3137e-09)
(2.66845e-08 -1.48674e-08 -6.79245e-09)
(1.22234e-08 -8.26759e-09 -4.5486e-09)
(1.49581e-08 -4.17673e-09 -2.64068e-09)
(9.31144e-09 4.48078e-10 -1.93985e-09)
(-1.88817e-08 -1.49717e-08 -7.9273e-09)
(-6.21498e-09 -9.76835e-09 -6.61236e-09)
(-3.40205e-09 -2.59957e-09 -8.36906e-09)
(-2.03227e-09 -4.12811e-09 -1.10717e-09)
(-4.31171e-08 -2.12132e-09 -1.34623e-08)
(-2.83886e-08 7.70857e-10 -3.53239e-09)
(-2.03182e-08 1.74458e-09 -7.55111e-10)
(-2.22443e-08 7.6261e-09 6.32826e-09)
(-1.70106e-08 2.16485e-09 9.51752e-10)
(-1.5842e-08 2.7907e-09 -1.56579e-10)
(-8.81548e-09 5.24559e-09 1.1374e-09)
(-5.47491e-09 -1.12086e-10 -3.40758e-10)
(-7.38272e-09 7.60995e-10 -1.1333e-09)
(-2.1058e-09 1.23844e-09 -1.41498e-09)
(-2.93204e-09 3.33783e-10 -1.15853e-09)
(-3.76629e-09 5.9373e-10 -8.62895e-10)
(1.0043e-07 3.17964e-09 -6.88042e-09)
(-6.63558e-10 2.32349e-10 -2.37405e-09)
(-2.65718e-09 8.84446e-10 -1.448e-09)
(5.26392e-08 -3.55595e-09 -1.05613e-08)
(-1.45032e-10 -8.09277e-10 -3.51201e-09)
(-4.27247e-10 6.84046e-10 -1.57358e-09)
)
;
    }
    procBoundary1to0
    {
        type            processor;
        value           nonuniform List<vector> 
12
(
(1.02033e-08 -4.90197e-09 -4.82017e-09)
(1.82797e-08 -3.08812e-09 -4.56955e-09)
(1.24719e-08 -3.7803e-09 -4.95266e-09)
(1.00821e-08 1.65528e-09 -2.76072e-09)
(1.44706e-08 -4.04104e-09 -5.59329e-09)
(1.29625e-08 -3.55723e-09 -5.46352e-09)
(7.55189e-09 9.01869e-10 -3.75766e-09)
(1.23843e-08 -2.3351e-09 -5.03483e-09)
(1.16663e-08 -3.19293e-09 -4.90083e-09)
(6.38519e-09 5.75885e-11 -2.97422e-09)
(9.39297e-09 -1.2508e-09 -2.56714e-09)
(1.02846e-08 -1.0947e-09 -3.34903e-09)
)
;
    }
    procBoundary1to3
    {
        type            processor;
        value           nonuniform List<vector> 
27
(
(1.75233e-08 -2.92569e-11 -1.70849e-08)
(2.49563e-08 -4.30075e-09 -2.55961e-08)
(-1.01616e-08 -7.90542e-09 -2.4471e-08)
(-3.6397e-08 -1.69991e-09 -1.35767e-08)
(-4.19151e-08 9.44167e-10 -8.54166e-09)
(-2.50846e-08 -1.10595e-09 -8.59945e-09)
(-1.52563e-08 -1.97637e-09 1.25153e-09)
(-3.69226e-09 -1.90589e-09 4.8346e-11)
(3.82922e-08 -5.59496e-10 -3.9855e-10)
(1.97985e-08 -1.92297e-09 -1.7928e-08)
(1.73993e-08 -2.17811e-09 -2.38586e-08)
(-7.85093e-09 -6.32278e-09 -2.3421e-08)
(-4.1851e-08 -1.14181e-09 -8.0937e-09)
(-3.27173e-08 -3.26445e-10 -9.77836e-09)
(-2.37372e-08 -2.58547e-09 -9.90077e-09)
(-1.34567e-08 -1.39493e-09 -4.3694e-09)
(-3.76357e-09 -9.23688e-10 -2.10403e-09)
(9.91536e-09 -4.2259e-10 -3.9452e-10)
(1.52595e-08 -1.36203e-09 -1.22159e-08)
(1.49925e-08 -4.40708e-09 -1.78411e-08)
(1.18469e-09 -1.19094e-08 -2.19261e-08)
(-3.11976e-08 -2.12212e-09 -7.91877e-09)
(-2.60376e-08 -2.51836e-09 -1.14384e-08)
(-1.5097e-08 -6.29412e-10 -7.15808e-09)
(-1.1584e-08 -2.38488e-10 -5.21558e-09)
(-5.27909e-09 2.89217e-10 -2.67808e-09)
(-1.72181e-09 -2.79085e-10 -7.10984e-10)
)
;
    }
    procBoundary1to5
    {
        type            processor;
        value           nonuniform List<vector> 
32
(
(-1.41541e-08 -3.83935e-10 -1.74704e-09)
(-1.09243e-08 1.26271e-09 -5.96942e-10)
(-8.47982e-09 8.53049e-10 -1.15524e-09)
(-2.95179e-09 6.53345e-10 -6.59148e-10)
(-1.92013e-09 9.43104e-10 -1.05365e-09)
(3.08754e-08 -1.40169e-08 -2.13518e-09)
(-5.79519e-09 -8.16788e-09 -6.36982e-09)
(-1.53398e-08 -2.06799e-09 -3.24091e-09)
(-1.44217e-08 9.56944e-11 -3.65615e-09)
(-9.54502e-09 -1.17885e-10 -2.7517e-09)
(-7.0719e-09 8.96304e-10 -2.21157e-09)
(-3.99737e-09 1.52852e-09 -1.79737e-09)
(3.44202e-10 -6.84191e-09 -1.22343e-09)
(9.25227e-09 -9.28822e-10 -9.16192e-09)
(-4.71848e-09 -6.75912e-09 -4.65247e-09)
(-1.59404e-08 -2.97051e-09 -4.62713e-09)
(-1.54204e-08 -7.23214e-11 -5.52315e-09)
(-1.20151e-08 9.04894e-10 -5.08267e-09)
(-9.11097e-09 1.462e-09 -3.78293e-09)
(-5.92019e-09 1.50631e-09 -2.42947e-09)
(-1.04457e-09 3.24124e-09 -1.02228e-09)
(7.21418e-09 -2.8123e-10 -1.04215e-09)
(1.0247e-08 -9.31454e-10 -2.80209e-10)
(-1.41541e-08 -3.83935e-10 -1.74704e-09)
(-5.79519e-09 -8.16788e-09 -6.36982e-09)
(-1.50472e-09 -5.20234e-09 1.21673e-09)
(2.62756e-08 1.09926e-08 -3.86966e-09)
(-5.79519e-09 -8.16788e-09 -6.36982e-09)
(9.25227e-09 -9.28822e-10 -9.16192e-09)
(5.41398e-08 3.0704e-08 -3.86201e-09)
(9.25227e-09 -9.28822e-10 -9.16192e-09)
(1.16628e-08 -1.14611e-09 -4.64048e-09)
)
;
    }
    procBoundary1to7
    {
        type            processor;
        value           uniform (1.10289e-08 2.11006e-10 -8.42177e-09);
    }
}


// ************************************************************************* //
