/*--------------------------------*- C++ -*----------------------------------*\
  =========                 |
  \\      /  F ield         | OpenFOAM: The Open Source CFD Toolbox
   \\    /   O peration     | Website:  https://openfoam.org
    \\  /    A nd           | Version:  4.x
     \\/     M anipulation  |
\*---------------------------------------------------------------------------*/
FoamFile
{
    version     2.0;
    format      ascii;
    class       vectorField;
    location    0;
    object      v;
}
// * * * * * * * * * * * * * * * * * * * * * * * * * * * * * * * * * * * * * //

235
(
( 3.00902e-09 -3.72156e-09 5.0227e-09 )  
( -6.78977e-09 -1.11302e-11 2.19397e-08 )  
( -2.53016e-08 3.47956e-09 3.02337e-08 )  
( 1.94361e-09 1.25099e-09 1.16832e-08 )  
( 2.6617e-09 -3.85731e-11 5.2897e-09 )  
( -2.32342e-09 -9.27833e-10 2.05789e-09 )  
( 2.60188e-09 -2.42858e-09 7.00426e-09 )  
( -5.84574e-10 1.53394e-09 6.50797e-09 )  
( 2.40028e-10 -8.41582e-11 3.07776e-09 )  
( -3.80376e-09 -2.26626e-09 -5.4795e-09 )  
( -2.27803e-09 1.00103e-09 -1.96387e-09 )  
( -1.42888e-09 -1.55864e-09 -2.16677e-08 )  
( 9.91426e-09 7.14104e-09 9.68246e-09 )  
( 1.05602e-10 -3.34917e-08 -7.61447e-09 )  
( 2.34825e-09 9.57636e-11 -1.8877e-09 )  
( 3.69985e-09 -1.50871e-09 9.31683e-09 )  
( 3.50227e-09 -3.31106e-09 -5.72328e-09 )  
( 3.12199e-09 7.77991e-10 -5.00737e-09 )  
( 8.1852e-09 6.45985e-09 -2.82787e-08 )  
( 4.41498e-09 -2.90157e-09 -5.16885e-08 )  
( -2.63243e-09 -5.22197e-09 1.26353e-08 )  
( 3.6871e-09 9.75136e-10 -7.61377e-09 )  
( 2.96831e-08 1.20995e-08 -4.01823e-08 )  
( 1.34909e-09 -2.23993e-09 -1.19629e-09 )  
( 2.30658e-08 3.10387e-09 -3.64987e-08 )  
( -1.26996e-09 -3.56907e-09 2.34999e-08 )  
( 1.40188e-08 -2.12699e-09 -1.46872e-08 )  
( -4.85717e-09 -8.35614e-10 -1.66202e-08 )  
( -6.98815e-09 -2.09802e-09 3.43896e-10 )  
( 1.31442e-08 -5.22216e-09 -2.52228e-08 )  
( 4.26298e-09 -8.22108e-10 1.08849e-09 )  
( -1.2042e-08 3.86643e-10 2.46122e-08 )  
( 1.72172e-09 3.91361e-09 -2.17522e-08 )  
( 3.30425e-09 -3.86064e-09 -6.92318e-09 )  
( 1.32964e-08 4.87251e-09 -3.17589e-08 )  
( 3.82213e-09 9.10055e-10 -2.06405e-09 )  
( 3.2968e-08 8.23603e-09 -4.99098e-08 )  
( -7.03215e-09 -5.52623e-09 -1.26562e-08 )  
( -2.98014e-09 -1.88351e-09 -9.63411e-09 )  
( 1.9821e-08 4.95416e-09 -3.06596e-08 )  
( 4.80101e-09 -4.75937e-09 -2.04077e-08 )  
( -5.1334e-09 5.27065e-10 -3.84412e-08 )  
( -1.1587e-08 -1.0375e-08 1.23446e-09 )  
( 1.64347e-09 -2.33302e-09 -5.5568e-11 )  
( 3.28595e-09 8.1656e-09 -2.31133e-08 )  
( 2.0148e-08 -5.2965e-09 -3.01983e-08 )  
( -1.86783e-09 -1.37641e-09 -4.52477e-09 )  
( -1.35152e-08 2.32223e-08 1.7419e-07 )  
( 2.27888e-09 -1.92284e-09 -7.5705e-09 )  
( 1.02151e-08 4.02525e-10 -3.5487e-08 )  
( 3.60625e-08 5.43958e-08 -4.97491e-08 )  
( -6.33602e-10 -1.12391e-08 9.11824e-09 )  
( 1.74929e-10 -2.31372e-10 -2.09859e-08 )  
( 1.30211e-10 -8.58583e-10 -4.51332e-09 )  
( 3.13898e-08 3.54921e-09 -3.88455e-08 )  
( -1.14871e-08 7.02981e-09 1.12099e-08 )  
( 3.54101e-09 4.50408e-11 -1.24199e-08 )  
( 2.69504e-09 -9.36778e-10 -5.46741e-09 )  
( -2.30032e-08 -6.00859e-09 2.28722e-08 )  
( -4.36261e-09 -4.97784e-09 -5.76996e-10 )  
( 3.04324e-09 -8.42351e-09 -3.5513e-08 )  
( 3.55768e-09 9.83153e-10 8.96955e-09 )  
( -4.81981e-09 -1.09483e-09 5.88198e-09 )  
( 3.49665e-10 7.03492e-10 -3.04081e-08 )  
( -4.48721e-09 -2.01594e-09 -1.39321e-08 )  
( 5.18628e-09 -5.63789e-10 -1.16088e-08 )  
( 1.39498e-08 -1.88359e-10 -2.48223e-08 )  
( 3.71705e-08 -1.74939e-08 -4.28067e-08 )  
( 2.79531e-09 5.05365e-11 1.83746e-08 )  
( 1.72259e-08 -4.95296e-09 -2.68131e-08 )  
( 1.37734e-08 9.14926e-09 1.43727e-08 )  
( -1.51103e-09 -1.88122e-09 -1.6384e-08 )  
( 4.62718e-09 -2.44494e-09 -9.12997e-09 )  
( -8.04609e-10 1.52259e-09 3.59797e-09 )  
( 9.39134e-09 -2.11842e-08 -4.21408e-08 )  
( 2.99626e-08 -3.47e-08 -1.04957e-07 )  
( 5.32613e-08 -2.05722e-08 -6.97759e-08 )  
( -7.37758e-10 -4.06018e-09 9.05268e-09 )  
( -1.33534e-11 4.40601e-09 -1.89522e-08 )  
( -1.67544e-08 -2.0459e-08 7.12351e-08 )  
( 6.02485e-09 -2.96403e-09 -1.48503e-08 )  
( -1.29e-09 -1.33763e-08 1.08608e-08 )  
( -1.33898e-08 -1.7958e-11 -6.69777e-09 )  
( 5.47792e-09 -1.08728e-09 -1.273e-09 )  
( 1.72959e-08 -1.10499e-08 -5.23693e-08 )  
( -5.35817e-09 -6.28053e-08 -6.42885e-08 )  
( 8.76238e-09 -4.74454e-09 -1.69885e-08 )  
( 1.57151e-09 -4.24026e-09 7.34332e-09 )  
( -2.88804e-08 7.85198e-09 5.17099e-08 )  
( 1.7069e-08 2.07814e-09 -3.46729e-08 )  
( 4.81256e-09 1.64078e-09 2.66409e-08 )  
( 1.48051e-08 -1.74622e-09 -1.22643e-08 )  
( 2.41942e-09 -7.08743e-10 -1.98435e-09 )  
( 7.25696e-10 6.63796e-10 -7.61434e-09 )  
( 7.92605e-10 -1.62566e-09 9.87611e-09 )  
( 1.41986e-08 4.40336e-09 2.98613e-08 )  
( 5.80151e-10 -1.41162e-10 -3.09956e-09 )  
( 3.34351e-09 -2.41801e-09 -2.17139e-08 )  
( 3.91903e-09 1.90596e-09 -3.57775e-08 )  
( 7.46702e-09 -1.1328e-09 7.04984e-09 )  
( 8.29215e-09 -7.88009e-09 -1.78018e-08 )  
( -7.28744e-10 -9.41533e-09 1.01313e-07 )  
( 3.38495e-09 2.65661e-09 8.17587e-09 )  
( 2.32034e-08 3.96208e-08 1.24515e-07 )  
( 9.13542e-10 -6.20216e-09 -9.89059e-09 )  
( 1.05291e-09 -2.96765e-09 -4.24834e-09 )  
( 1.04795e-08 -1.27383e-08 -4.30442e-08 )  
( 1.66227e-08 5.0331e-10 -3.09169e-08 )  
( 3.22393e-09 -5.14788e-10 -1.49306e-08 )  
( -5.68975e-09 2.4362e-09 1.71716e-08 )  
( 7.37355e-09 9.61301e-10 -2.10124e-08 )  
( 1.86227e-08 1.09597e-08 -3.36599e-08 )  
( 2.30284e-08 1.7316e-09 -4.38074e-08 )  
( -5.01858e-10 7.91643e-10 -6.97978e-10 )  
( 3.72949e-06 1.3668e-07 -2.00442e-07 )  
( -8.21868e-09 7.3017e-10 -1.62595e-08 )  
( 1.93493e-08 -6.17623e-09 -1.28859e-08 )  
( 2.37453e-09 5.2807e-10 -1.19873e-09 )  
( 2.31616e-09 -6.84517e-11 -1.79195e-08 )  
( -1.21437e-08 -2.83308e-11 1.81723e-08 )  
( 1.91254e-08 6.38163e-09 -3.70545e-08 )  
( -1.1558e-08 7.08498e-10 2.43209e-08 )  
( 6.42325e-09 -2.15718e-09 9.89877e-09 )  
( 1.73475e-09 1.13553e-09 -2.16471e-09 )  
( -9.34837e-10 -1.2885e-08 1.91906e-08 )  
( 1.0035e-09 -7.11648e-09 -1.48836e-08 )  
( 5.34092e-09 -4.43672e-09 7.11663e-10 )  
( -5.1195e-10 -4.42526e-09 -2.76007e-08 )  
( 1.82664e-09 -4.60597e-09 1.23019e-08 )  
( 5.12762e-10 -3.76146e-09 8.46096e-10 )  
( 1.45831e-08 -1.66719e-09 -3.94937e-08 )  
( -4.77299e-09 -1.48679e-08 3.74367e-08 )  
( -2.83633e-08 -1.67179e-08 3.3231e-08 )  
( 6.09012e-08 -4.04781e-08 -2.78763e-08 )  
( 2.78098e-08 2.06194e-08 4.35199e-08 )  
( -6.63376e-09 2.69249e-09 1.11467e-09 )  
( 6.04167e-09 1.12148e-09 -1.80268e-08 )  
( -7.38571e-09 -1.02451e-08 -9.27929e-09 )  
( -7.23107e-09 3.59954e-09 -3.43807e-09 )  
( 1.27089e-08 1.25674e-08 -3.98751e-08 )  
( -5.32937e-09 9.89643e-10 -5.18354e-09 )  
( -1.35192e-10 -3.45889e-09 -8.1892e-09 )  
( -3.0476e-09 -8.60538e-09 5.27686e-09 )  
( 2.33608e-09 2.60415e-09 -2.82778e-08 )  
( 3.81989e-09 3.08794e-09 -1.08853e-08 )  
( -1.00525e-08 -2.21089e-09 -2.12119e-08 )  
( 5.21453e-09 1.76952e-09 -1.26243e-10 )  
( 3.37861e-09 1.92317e-09 5.81012e-09 )  
( 6.66054e-09 2.35986e-09 -1.31803e-08 )  
( 2.23204e-09 8.84868e-09 -2.50144e-08 )  
( -5.85348e-10 1.03666e-09 4.36197e-10 )  
( 1.31681e-09 7.90772e-09 -1.92602e-08 )  
( 5.85519e-09 -8.41409e-10 6.06278e-09 )  
( 2.38389e-09 2.86831e-09 -2.47538e-08 )  
( 3.64928e-10 3.79936e-09 2.17457e-09 )  
( 1.27026e-09 1.04675e-09 -1.26728e-08 )  
( 1.80013e-09 -3.49101e-10 7.01236e-09 )  
( 1.58895e-09 4.17976e-10 -7.1725e-10 )  
( 5.09137e-10 6.75206e-09 -2.23533e-08 )  
( 3.80029e-09 -4.22185e-09 -4.88124e-09 )  
( 6.58269e-09 2.41021e-09 7.39818e-09 )  
( 1.05603e-09 6.12684e-09 -1.04497e-08 )  
( -5.11918e-10 -5.45285e-10 4.65097e-09 )  
( 2.41831e-09 4.7788e-10 8.10112e-09 )  
( 1.26468e-09 -3.20571e-10 4.45445e-09 )  
( 4.97698e-09 1.97409e-10 -4.31244e-09 )  
( -1.54683e-10 -8.91972e-11 7.96891e-09 )  
( -5.1125e-10 2.45248e-09 1.05187e-08 )  
( 4.68884e-10 1.16466e-09 9.89578e-09 )  
( 3.68713e-09 1.19108e-09 -1.75625e-08 )  
( -3.84855e-10 1.31504e-09 1.66559e-09 )  
( 2.89581e-09 -7.71992e-10 -6.01313e-09 )  
( 3.97297e-09 -3.18293e-09 6.66297e-09 )  
( 6.40488e-09 6.46714e-09 -2.47309e-08 )  
( 6.63736e-09 1.07208e-08 -2.37618e-08 )  
( 1.2582e-10 4.80533e-10 1.67248e-09 )  
( 5.64831e-09 -1.15622e-09 -8.54114e-09 )  
( 2.48102e-09 2.05835e-09 1.08728e-08 )  
( -3.40505e-09 -5.32412e-09 -1.86723e-08 )  
( -3.40786e-09 4.45293e-09 -1.98945e-08 )  
( -2.9448e-09 3.03968e-09 2.23862e-08 )  
( -1.74207e-08 -7.70373e-09 -2.93123e-08 )  
( 4.9398e-09 1.76929e-09 7.72709e-09 )  
( 2.3008e-08 -2.223e-09 -3.2934e-08 )  
( -3.2849e-08 -6.48113e-08 -8.29249e-08 )  
( -5.74896e-10 2.18882e-10 3.28685e-09 )  
( 3.26992e-09 -1.7273e-09 -8.88797e-09 )  
( 2.3855e-09 2.07039e-10 -8.71142e-09 )  
( -3.52696e-09 -3.91605e-09 1.29622e-08 )  
( 2.17168e-08 -5.55912e-09 -3.99081e-08 )  
( 1.47911e-08 -8.11843e-09 -6.70621e-08 )  
( -1.47721e-08 -4.78022e-09 -3.24448e-09 )  
( -2.68778e-08 1.20115e-08 2.07364e-08 )  
( -5.18298e-10 -1.8007e-09 2.85893e-09 )  
( 2.32307e-09 4.79203e-09 -1.35203e-08 )  
( 3.74703e-09 -2.67066e-09 -5.7549e-09 )  
( 1.99529e-08 4.23016e-09 -5.99006e-08 )  
( -9.5176e-10 6.80627e-09 -1.58703e-08 )  
( 2.46029e-09 1.16855e-09 -4.24631e-09 )  
( 1.82319e-09 7.25637e-10 7.79455e-09 )  
( 3.98304e-09 -3.42545e-10 5.80561e-09 )  
( 2.57195e-09 3.93112e-10 -1.13538e-09 )  
( -7.54129e-09 1.44572e-09 7.67064e-09 )  
( 2.20741e-09 2.06332e-09 1.05301e-08 )  
( 1.28638e-09 4.19869e-09 8.16552e-09 )  
( 4.80599e-09 1.67892e-09 2.6421e-08 )  
( 3.15726e-09 -5.82135e-11 6.62337e-09 )  
( -3.22599e-09 5.23058e-09 -1.79512e-08 )  
( 1.53868e-09 3.45199e-09 -8.01567e-09 )  
( 6.0444e-09 2.09523e-09 1.55018e-09 )  
( 3.36219e-09 6.97474e-09 -1.77141e-08 )  
( 1.92957e-09 1.10783e-10 -6.39552e-10 )  
( 3.99097e-09 -9.08708e-10 -8.89694e-09 )  
( 4.22275e-09 -3.19248e-08 4.63149e-08 )  
( 1.32856e-08 2.84959e-09 1.61636e-08 )  
( -1.47869e-08 7.59581e-11 2.6524e-10 )  
( 1.62717e-08 -1.45493e-08 -3.52682e-08 )  
( -3.87905e-08 -9.09479e-08 -1.39934e-07 )  
( 1.51562e-08 -2.07679e-10 -1.7218e-08 )  
( -4.85635e-08 2.78972e-08 8.8061e-08 )  
( 9.084e-09 -3.01195e-08 -4.77449e-08 )  
( 1.62485e-08 1.89074e-09 -2.94457e-08 )  
( -6.4329e-09 -3.05762e-09 -1.31118e-08 )  
( 6.92503e-09 -4.54936e-09 -1.45724e-08 )  
( -3.45316e-08 1.94713e-08 7.69106e-09 )  
( 2.91925e-09 -1.52145e-08 1.63994e-08 )  
( -3.42521e-08 1.4433e-08 5.3853e-08 )  
( -1.28167e-08 -2.70181e-08 2.44794e-08 )  
( -3.332e-08 -8.92183e-09 5.27934e-09 )  
( -4.20543e-07 6.0657e-06 4.27757e-07 )  
( -9.02728e-09 -1.17773e-09 -1.41024e-09 )  
( -5.29063e-08 -2.35094e-08 9.10274e-09 )  
( -1.23807e-08 1.08199e-09 -6.75144e-09 )  
( 1.22319e-09 -1.78796e-08 1.28924e-08 )  
( -6.10171e-09 -5.51422e-09 6.88354e-09 )  
)
