/*--------------------------------*- C++ -*----------------------------------*\
| =========                 |                                                 |
| \\      /  F ield         | OpenFOAM: The Open Source CFD Toolbox           |
|  \\    /   O peration     | Version:  4.x                                   |
|   \\  /    A nd           | Web:      www.OpenFOAM.org                      |
|    \\/     M anipulation  |                                                 |
\*---------------------------------------------------------------------------*/
FoamFile
{
    version     2.0;
    format      ascii;
    class       volVectorField;
    location    "43";
    object      GField;
}
// * * * * * * * * * * * * * * * * * * * * * * * * * * * * * * * * * * * * * //

dimensions      [1 -2 -1 0 0 0 0];

internalField   nonuniform List<vector> 
108
(
(72.3551 -0.930643 -0.9362)
(128.837 -0.894797 -1.68539)
(74.3553 -1.15119 -1.05512)
(136.943 -2.02723 0.138148)
(71.9698 -5.09098 -1.72507)
(146.308 -4.1764 4.53108)
(58.6719 -14.2636 -5.87657)
(159.177 0.359582 11.1492)
(28.4455 -37.023 -17.5912)
(55.0792 -1.30043 -0.685474)
(113.37 -0.682057 -0.911963)
(49.5778 -1.20192 -0.893335)
(113.412 -0.515844 2.44931)
(37.4247 -0.936046 -0.686988)
(105.087 0.193784 7.70105)
(14.788 0.0828306 -0.488743)
(78.101 -0.782032 11.484)
(-0.000296332 1.4426e-05 -1.31492e-05)
(71.5691 1.92088 0.0515804)
(126.728 2.4781 -0.184167)
(72.5784 2.56936 1.46788)
(134.708 2.46065 2.0974)
(69.4991 7.11417 3.72274)
(145.794 2.54647 6.24657)
(57.6008 17.8674 4.77229)
(166.392 -7.40403 9.18843)
(30.9362 48.5284 -1.80277)
(91.1237 -1.90567 -0.188482)
(139.431 -1.65294 -0.419321)
(92.8495 -4.05365 0.923509)
(144.685 -3.33122 1.2507)
(89.8912 -5.5033 2.30688)
(154.631 -3.74081 4.06669)
(80.0888 -6.87059 4.68177)
(174.849 -3.84196 8.90361)
(45.8479 -1.21801 -37.4708)
(20.6724 0.281117 -1.40333)
(101.875 0.552704 -1.10839)
(17.0019 0.41534 -1.8147)
(105.555 0.0885756 1.8866)
(14.0466 0.333814 -2.95533)
(110.3 -0.988088 7.62823)
(12.9826 0.0388001 -6.56637)
(114.946 -3.26849 20.3505)
(16.4809 -2.0005 -30.8509)
(8.00773 -0.106026 -1.0159)
(94.3829 0.976354 0.863304)
(1.76046 0.0399619 -0.374208)
(93.8834 0.648203 2.74164)
(4.19428e-05 -1.22794e-06 -1.28979e-05)
(88.9424 -1.01323 5.56711)
(1.51324 0.480461 -0.607752)
(74.8525 -8.9652 8.87075)
(11.8526 10.7039 -4.49603)
(30.6425 1.31988 -2.8807)
(105.995 2.34461 -2.21692)
(30.8745 2.43712 -4.20574)
(113.892 0.0360802 1.02064)
(32.8656 6.12822 -7.33811)
(127.204 -3.54057 6.39719)
(35.1774 17.0953 -14.9819)
(147.69 -14.2786 16.8021)
(23.8058 59.2361 -44.5634)
(63.6112 -1.63818 -3.89877)
(120.142 -1.43286 -2.878)
(63.0215 -3.70619 -5.25132)
(125.102 -3.32625 -1.9272)
(58.166 -5.45861 -7.82946)
(135.316 -4.47085 1.34354)
(48.6398 -5.53998 -10.6911)
(161.826 -2.55989 11.5597)
(28.8105 8.70966 -58.8626)
(10.2065 -0.913025 -2.12321)
(92.9225 -0.377738 -0.184299)
(7.52986 -1.0654 -2.16532)
(93.3026 -1.16489 1.13061)
(7.62865 -2.05382 -3.4804)
(92.0062 -1.6998 4.00785)
(10.3349 -4.20759 -6.95846)
(83.9054 2.9269 12.341)
(22.9623 -11.7802 -24.9905)
(4.13749e-05 -6.79913e-06 1.3536e-06)
(85.5602 -0.549667 1.45868)
(4.44407e-05 -1.00387e-05 -1.83347e-07)
(84.9158 0.469223 2.37197)
(3.88466e-05 -7.13935e-06 -8.06822e-06)
(82.6995 2.20962 6.39516)
(3.29588e-05 -1.39106e-06 -1.46231e-05)
(71.1253 2.116 8.58914)
(10.0079 0.420126 -1.28432)
(6.37573 0.545764 -0.380357)
(92.6977 -0.390591 -0.306113)
(2.56938 0.364682 -0.267359)
(95.1446 -0.705314 1.21043)
(6.3699 1.79635 -1.26243)
(97.1613 -0.57737 3.86819)
(17.6478 9.39712 -6.16509)
(94.1556 -6.21389 10.0619)
(31.723 39.0557 -21.4576)
(45.9235 -0.110695 -2.43571)
(106.583 -0.41898 -1.20767)
(43.1216 -0.913411 -2.89089)
(108.443 -3.18366 0.159602)
(37.5959 -0.557561 -4.43433)
(113.085 -4.33362 2.45813)
(31.7753 1.89572 -7.22794)
(131.217 -4.72066 8.17783)
(20.6175 14.1824 -15.4786)
)
;

boundaryField
{
    inlet
    {
        type            calculated;
        value           nonuniform 0();
    }
    outlet
    {
        type            calculated;
        value           nonuniform List<vector> 
12
(
(59.2883 -77.1661 -36.6648)
(-0.000620799 3.02217e-05 -2.75469e-05)
(64.5577 101.269 -3.76202)
(93.7746 -2.49124 -76.6406)
(35.413 -4.29855 -66.2905)
(25.4305 22.9659 -9.6465)
(51.0426 127.01 -95.5495)
(61.3624 18.5504 -125.369)
(50.0613 -25.6826 -54.4831)
(21.8023 0.915245 -2.79789)
(68.9082 84.8362 -46.6098)
(44.9541 30.9231 -33.7494)
)
;
    }
    wall
    {
        type            calculated;
        value           uniform (0 0 0);
    }
    procBoundary3to1
    {
        type            processor;
        value           nonuniform List<vector> 
27
(
(66.1004 0.592453 -2.51896)
(121.401 0.935676 -2.69204)
(64.499 1.60751 -3.4414)
(125.455 1.9402 -0.395021)
(60.8964 0.723045 -6.74662)
(134.584 2.24744 3.61912)
(54.601 -3.23641 -14.5972)
(156.862 4.16346 14.8152)
(33.3215 -13.5631 -37.0805)
(8.22727 0.406659 -0.447257)
(95.054 1.00855 0.758994)
(1.11475 0.104041 -0.0995577)
(94.7938 1.39545 2.26226)
(4.66975e-05 -6.60824e-06 -8.54391e-06)
(90.4409 0.727015 5.45169)
(5.67678 0.367406 -2.17787)
(81.2739 -0.104867 13.0688)
(27.8086 -0.216571 -31.985)
(9.15959 -0.442728 -1.91835)
(92.1263 -0.108876 0.326559)
(7.23788 -0.567052 -2.32805)
(92.6048 1.42141 0.0942845)
(7.6231 -1.33121 -3.5086)
(92.0927 2.82805 2.09778)
(12.8818 -5.18356 -7.68768)
(86.758 8.95238 8.34165)
(27.3757 -22.6713 -15.8997)
)
;
    }
    procBoundary3to2
    {
        type            processor;
        value           nonuniform List<vector> 
12
(
(122.62 -0.696985 -2.6346)
(112.487 -0.573856 -2.57913)
(121.319 2.43419 -1.54352)
(133.396 -0.251937 -1.45224)
(98.1444 0.253579 -2.09382)
(94.0713 0.485491 -1.24669)
(102.021 3.18804 -3.72376)
(116.229 0.0925085 -3.90129)
(92.5416 -0.72701 -1.97702)
(87.031 -1.26542 -0.0763576)
(91.3466 0.658383 -0.669121)
(104.334 0.846853 -1.84691)
)
;
    }
    procBoundary3to7
    {
        type            processor;
        value           nonuniform List<vector> 
36
(
(0.867256 0.10442 -0.180806)
(87.6491 0.971451 -0.127981)
(0.870231 0.195241 -0.287567)
(87.7628 1.46552 0.0946492)
(4.20864e-05 5.66214e-06 -1.33428e-05)
(84.9557 2.31423 2.34007)
(3.17609e-05 9.96984e-06 -2.08933e-05)
(72.5411 -3.7692 10.5774)
(10.0581 4.09979 -4.73604)
(4.4654e-05 1.88577e-06 -1.01447e-06)
(86.3947 0.316137 -0.195771)
(4.64035e-05 2.25111e-06 -1.73988e-06)
(84.6446 0.150812 0.974927)
(2.33583 0.78964 -0.246212)
(81.4553 -1.27476 2.91309)
(13.3017 7.42477 -0.810639)
(72.9433 -8.12059 5.16807)
(28.8313 31.1058 3.7558)
(24.8083 2.18367 -2.17394)
(98.1992 1.20305 -0.635653)
(24.2446 3.13761 -3.44903)
(102.474 -0.404813 -1.84279)
(24.4873 5.9251 -6.08721)
(107.501 -5.476 -1.70317)
(23.6653 11.7227 -10.6293)
(114.427 -15.5119 5.6728)
(16.7734 27.2914 -15.1097)
(49.2364 -1.44119 -3.7845)
(107.96 -1.10728 -3.04449)
(47.1849 -2.14608 -5.31812)
(111.204 -2.01098 -2.82064)
(43.1746 -2.58503 -8.54505)
(115.029 -1.99284 -0.748577)
(34.3814 -2.13351 -14.7361)
(122.065 -0.13463 8.34118)
(18.3853 0.0947116 -27.9589)
)
;
    }
}


// ************************************************************************* //
