/*--------------------------------*- C++ -*----------------------------------*\
| =========                 |                                                 |
| \\      /  F ield         | OpenFOAM: The Open Source CFD Toolbox           |
|  \\    /   O peration     | Version:  4.x                                   |
|   \\  /    A nd           | Web:      www.OpenFOAM.org                      |
|    \\/     M anipulation  |                                                 |
\*---------------------------------------------------------------------------*/
FoamFile
{
    version     2.0;
    format      ascii;
    class       volScalarField;
    location    "43";
    object      QWallFluid;
}
// * * * * * * * * * * * * * * * * * * * * * * * * * * * * * * * * * * * * * //

dimensions      [1 -1 -3 0 0 0 0];

internalField   nonuniform List<scalar> 
108
(
6.58342e+08
1.04445e+09
6.72891e+08
1.0967e+09
6.56909e+08
1.15702e+09
5.7171e+08
1.23929e+09
4.88933e+08
5.29337e+08
9.42834e+08
4.86639e+08
9.43258e+08
3.88609e+08
8.8918e+08
1.84902e+08
7.05793e+08
32284.4
6.52716e+08
1.03082e+09
6.60318e+08
1.08251e+09
6.40775e+08
1.15394e+09
5.70434e+08
1.28409e+09
5.48312e+08
1.58355e+09
2.22517e+09
1.6085e+09
2.29241e+09
1.56887e+09
2.41829e+09
1.43406e+09
2.67001e+09
1.12163e+09
0
0
0
0
0
0
0
0
0
0
0
0
0
0
0
0
0
0
0
0
0
0
0
0
0
0
0
5.94855e+08
9.87867e+08
5.91844e+08
1.02045e+09
5.58688e+08
1.08669e+09
4.9062e+08
1.25599e+09
6.12406e+08
0
0
0
0
0
0
0
0
0
0
0
0
0
0
0
0
0
0
0
0
0
0
0
0
0
0
0
4.58074e+08
8.97414e+08
4.35945e+08
9.10182e+08
3.92074e+08
9.41627e+08
3.4821e+08
1.06196e+09
3.2047e+08
)
;

boundaryField
{
    inlet
    {
        type            calculated;
        value           nonuniform 0();
    }
    outlet
    {
        type            calculated;
        value           uniform 0;
    }
    wall
    {
        type            calculated;
        value           uniform 0;
    }
    procBoundary3to1
    {
        type            processor;
        value           nonuniform List<scalar> 
27
(
6.127e+08
9.96075e+08
6.0126e+08
1.02248e+09
5.76283e+08
1.0819e+09
5.40929e+08
1.22715e+09
5.02776e+08
0
0
0
0
0
0
0
0
0
0
0
0
0
0
0
0
0
0
)
;
    }
    procBoundary3to2
    {
        type            processor;
        value           nonuniform List<scalar> 
12
(
1.00405e+09
9.37125e+08
9.95544e+08
2.14776e+09
0
0
0
9.622e+08
0
0
0
8.8232e+08
)
;
    }
    procBoundary3to7
    {
        type            processor;
        value           nonuniform List<scalar> 
36
(
0
0
0
0
0
0
0
0
0
0
0
0
0
0
0
0
0
0
0
0
0
0
0
0
0
0
0
4.85086e+08
9.06956e+08
4.70336e+08
9.2872e+08
4.42868e+08
9.53944e+08
3.88811e+08
1.00208e+09
3.55192e+08
)
;
    }
}


// ************************************************************************* //
