/*--------------------------------*- C++ -*----------------------------------*\
| =========                 |                                                 |
| \\      /  F ield         | OpenFOAM: The Open Source CFD Toolbox           |
|  \\    /   O peration     | Version:  4.x                                   |
|   \\  /    A nd           | Web:      www.OpenFOAM.org                      |
|    \\/     M anipulation  |                                                 |
\*---------------------------------------------------------------------------*/
FoamFile
{
    version     2.0;
    format      ascii;
    class       volScalarField;
    location    "19.5";
    object      Cs;
}
// * * * * * * * * * * * * * * * * * * * * * * * * * * * * * * * * * * * * * //

dimensions      [1 -3 0 0 0 0 0];

internalField   nonuniform List<scalar> 
114
(
334.972
334.959
334.938
334.921
334.894
334.444
334.965
334.945
334.941
334.93
334.947
334.939
335.062
334.957
334.949
334.943
334.947
334.961
334.985
335.006
335.168
334.99
334.986
334.98
334.972
334.962
334.945
334.929
334.904
334.86
334.975
334.97
334.969
334.971
334.984
334.992
335.016
334.998
335.047
334.971
334.963
334.962
334.967
334.983
335.006
335.036
335.049
335.388
334.966
334.957
334.994
334.992
334.988
334.983
334.976
334.968
334.961
334.953
334.891
334.984
334.978
334.973
334.971
334.973
334.978
334.987
334.988
335.061
334.981
334.974
334.968
334.967
334.969
334.976
334.991
334.998
335.084
334.975
334.966
334.961
334.964
334.995
334.993
334.99
334.987
334.981
334.976
334.969
334.964
337.753
334.994
334.99
334.986
334.981
334.975
334.969
334.962
334.957
334.934
334.992
334.988
334.982
334.976
334.97
334.963
334.957
334.951
334.944
334.989
334.983
334.977
334.971
334.964
334.958
)
;

boundaryField
{
    inlet
    {
        type            calculated;
        value           nonuniform 0();
    }
    outlet
    {
        type            calculated;
        value           uniform 335;
    }
    wall
    {
        type            calculated;
        value           nonuniform List<scalar> 
66
(
334.995
334.994
334.992
334.989
334.993
334.99
334.988
334.983
334.99
334.986
334.982
334.977
334.987
334.981
334.976
334.971
334.981
334.975
334.97
334.964
334.976
334.969
334.963
334.958
334.969
334.962
334.957
334.964
334.957
334.951
337.753
334.934
334.944
334.99
334.994
334.995
334.986
334.992
334.993
334.98
334.988
334.99
334.972
334.972
334.983
334.987
334.959
334.962
334.976
334.981
334.938
334.945
334.968
334.976
334.921
334.929
334.961
334.969
334.894
334.904
334.953
334.964
334.444
334.86
334.891
337.753
)
;
    }
    procBoundary5to1
    {
        type            processor;
        value           nonuniform List<scalar> 
32
(
334.948
334.925
334.899
334.874
334.852
334.335
334.812
334.795
334.8
334.819
334.863
334.872
335
334.932
334.924
334.915
334.927
334.95
334.993
335.014
335.128
334.989
334.985
334.98
334.98
334.98
334.977
334.971
334.971
334.971
334.967
334.967
)
;
    }
    procBoundary5to4
    {
        type            processor;
        value           nonuniform List<scalar> 
12
(
334.994
334.983
334.98
334.977
334.997
334.99
334.988
334.984
334.997
334.996
334.995
334.993
)
;
    }
    procBoundary5to7
    {
        type            processor;
        value           nonuniform List<scalar> 
44
(
334.944
334.933
334.926
334.933
334.95
334.978
335.01
335.269
334.96
334.944
334.957
334.963
334.983
335.005
335.034
335.055
335.489
334.959
334.957
334.956
334.957
334.963
334.975
334.996
335.023
335.039
335.158
334.979
334.971
334.966
334.975
334.966
334.975
334.996
334.954
334.949
334.959
334.99
334.984
334.978
334.97
334.961
334.954
334.953
)
;
    }
}


// ************************************************************************* //
