/*--------------------------------*- C++ -*----------------------------------*\
| =========                 |                                                 |
| \\      /  F ield         | OpenFOAM: The Open Source CFD Toolbox           |
|  \\    /   O peration     | Version:  4.x                                   |
|   \\  /    A nd           | Web:      www.OpenFOAM.org                      |
|    \\/     M anipulation  |                                                 |
\*---------------------------------------------------------------------------*/
FoamFile
{
    version     2.0;
    format      ascii;
    class       volVectorField;
    location    "19.5";
    object      DDtUrel;
}
// * * * * * * * * * * * * * * * * * * * * * * * * * * * * * * * * * * * * * //

dimensions      [0 1 -2 0 0 0 0];

internalField   nonuniform List<vector> 
114
(
(-5.44654e-05 -7.13017e-05 1.72311e-05)
(-8.66991e-05 -0.000117046 9.01414e-06)
(-0.000345556 -0.00026365 -7.07945e-05)
(-0.000545974 -0.000410351 -0.000118223)
(-0.00144552 -0.000849463 -0.000374033)
(-0.00254766 -0.00118697 -0.000566029)
(1.74655e-06 -2.18589e-05 2.89999e-05)
(-8.206e-05 -6.28155e-05 -2.68234e-06)
(-0.000167324 -0.000103914 -3.34476e-05)
(-0.000379067 -0.000228591 -0.000113202)
(-0.000683134 -0.000359687 -0.000195122)
(-0.00123081 -0.000765633 -0.000423549)
(-0.00187994 -0.00112026 -0.000612248)
(-6.40042e-06 -4.6331e-06 2.5512e-05)
(-4.30525e-05 -1.19996e-05 1.57259e-05)
(-0.000116526 -3.30377e-05 -1.33183e-05)
(-0.000225517 -5.95975e-05 -5.51438e-05)
(-0.000400835 -0.000122479 -0.000127841)
(-0.000691989 -0.000206258 -0.000235109)
(-0.00105647 -0.000404908 -0.000403004)
(-0.00157292 -0.000612699 -0.000552675)
(7.36626e-05 3.3087e-06 2.892e-05)
(3.27572e-05 -1.34636e-05 2.87477e-05)
(2.61471e-05 -2.78244e-05 3.48511e-05)
(-5.05381e-05 -8.64795e-05 3.08972e-05)
(-0.00011528 -0.000149813 3.24106e-05)
(-0.000319969 -0.000305914 1.70586e-05)
(-0.000636665 -0.000520367 2.41827e-06)
(-0.00127339 -0.000935579 1.60066e-05)
(-0.00203717 -0.00137463 8.81456e-05)
(4.05936e-05 3.64311e-06 2.52461e-05)
(1.50049e-05 -1.21103e-05 2.16644e-05)
(-1.35526e-05 -3.14719e-05 1.98903e-05)
(-7.31819e-05 -7.2359e-05 7.5866e-06)
(-0.000174085 -0.000129132 -5.2897e-06)
(-0.000345931 -0.000255383 -3.15528e-05)
(-0.000662396 -0.000436893 -6.07222e-05)
(-0.00110044 -0.000787376 -9.17694e-05)
(-0.00162492 -0.00114837 -9.09316e-05)
(1.83631e-05 -2.62923e-08 2.1367e-05)
(-5.70218e-06 -1.02279e-05 1.42657e-05)
(-3.88922e-05 -2.27323e-05 7.15437e-06)
(-9.94727e-05 -4.63095e-05 -9.71958e-06)
(-0.000202273 -8.03975e-05 -3.56528e-05)
(-0.00035986 -0.000157534 -7.19259e-05)
(-0.000627894 -0.000264252 -0.000126031)
(-0.00097532 -0.000460191 -0.000180456)
(-0.00148959 -0.000657312 -0.000209042)
(8.5287e-06 -4.54496e-06 1.78933e-05)
(-1.65828e-05 -4.42214e-06 9.28884e-06)
(9.77896e-05 -4.02695e-06 1.35617e-05)
(7.10459e-05 -2.62394e-05 2.06431e-05)
(0.000103884 -4.40448e-05 2.80072e-05)
(3.90968e-05 -0.000118732 4.67771e-05)
(7.56122e-05 -0.000190749 5.63091e-05)
(-0.000144613 -0.000421453 0.000115134)
(-0.000228686 -0.000674136 0.000103908)
(-0.00134982 -0.00145301 0.000401743)
(-0.00268947 -0.00214318 0.000688179)
(6.25108e-05 -8.0079e-06 9.86603e-06)
(4.09879e-05 -2.51935e-05 1.1298e-05)
(4.0053e-05 -4.49112e-05 9.83139e-06)
(-1.71288e-05 -0.000101053 1.58426e-05)
(-6.68637e-05 -0.000168295 1.64275e-05)
(-0.000249085 -0.000353747 3.91536e-05)
(-0.000507797 -0.000578625 4.99611e-05)
(-0.00113455 -0.00120967 0.000192262)
(-0.00185553 -0.00178995 0.000396292)
(3.73459e-05 -1.06878e-05 3.79745e-06)
(1.05146e-05 -2.13254e-05 5.8674e-06)
(-8.67368e-06 -3.26719e-05 2.50942e-06)
(-7.07791e-05 -6.9217e-05 -3.84395e-06)
(-0.00015648 -0.000112751 -1.97426e-05)
(-0.000323466 -0.000221381 -2.31257e-05)
(-0.000598727 -0.000354405 -4.90174e-05)
(-0.000993383 -0.000671794 -6.61979e-06)
(-0.00151985 -0.00103775 9.4073e-05)
(1.11862e-05 -5.93978e-06 3.01339e-06)
(-1.25088e-05 -9.51723e-06 -4.12267e-07)
(-5.00854e-05 -1.47422e-05 -7.96989e-06)
(-0.000104305 -2.82703e-05 -2.11963e-05)
(0.000123629 -9.70121e-06 -1.64511e-06)
(0.000103439 -3.46447e-05 -1.17482e-06)
(0.000149733 -5.89473e-05 6.71241e-06)
(9.88754e-05 -0.000145181 2.10685e-05)
(0.00019318 -0.000228706 4.07759e-05)
(-1.25734e-05 -0.000513115 8.75735e-05)
(0.00011657 -0.000821453 0.000113521)
(-0.00146823 -0.00192137 0.000259335)
(-0.00337289 -0.00269638 0.000302583)
(8.6995e-05 -1.5366e-05 -1.98817e-06)
(6.70588e-05 -3.65883e-05 -2.97831e-06)
(7.74705e-05 -5.78514e-05 -3.67445e-06)
(2.18787e-05 -0.000128381 3.9678e-06)
(-2.03621e-06 -0.000203714 1.26001e-05)
(-0.000189888 -0.00043622 3.89356e-05)
(-0.000403867 -0.000702445 6.93487e-05)
(-0.00120563 -0.00157424 0.00017218)
(-0.00212661 -0.00232836 0.00024026)
(5.57212e-05 -1.62943e-05 -1.76773e-06)
(2.54252e-05 -3.09038e-05 -3.82312e-06)
(1.54741e-05 -4.32275e-05 -6.74936e-06)
(-5.05325e-05 -8.87461e-05 -8.08439e-06)
(-0.000119382 -0.000136382 -1.33604e-05)
(-0.000301476 -0.000271352 -7.68445e-06)
(-0.000557402 -0.000435221 -6.47166e-06)
(-0.00103537 -0.000837315 3.56766e-05)
(-0.00164087 -0.00135984 8.0839e-05)
(2.78039e-05 -1.00663e-05 2.56991e-07)
(-5.3064e-07 -1.70696e-05 -5.54633e-06)
(-3.54175e-05 -2.34261e-05 -1.5846e-05)
(-9.56899e-05 -4.37781e-05 -2.11063e-05)
(-0.000196948 -6.26272e-05 -3.48053e-05)
(-0.000343788 -0.000124577 -4.97876e-05)
)
;

boundaryField
{
    inlet
    {
        type            calculated;
        value           nonuniform 0();
    }
    outlet
    {
        type            calculated;
        value           nonuniform List<vector> 
12
(
(-0.00865976 -0.00238441 -0.00217026)
(-0.00275358 -0.00369043 -0.00217253)
(-0.00232655 -0.00156381 -0.000751576)
(-0.00221303 -0.00171084 0.00103592)
(-0.000988389 -0.00125042 -0.000171217)
(-0.00249001 -0.000190585 -3.81649e-05)
(-0.00948918 -0.00612028 0.00552896)
(-0.00254121 -0.00520836 0.00305912)
(-0.00245913 -0.00225706 0.00120602)
(-0.0154549 -0.00802915 -0.000547529)
(-0.003612 -0.00825948 0.000280429)
(-0.00325337 -0.0036144 0.000157264)
)
;
    }
    wall
    {
        type            calculated;
        value           nonuniform List<vector> 
66
(
(0.000428855 6.86933e-05 -5.79502e-05)
(0.000218281 7.93066e-06 -4.82985e-05)
(0.00019023 -1.54625e-05 -3.22946e-05)
(7.90866e-05 -4.1717e-06 1.65726e-05)
(9.86923e-05 -5.65048e-05 -8.63762e-05)
(6.49426e-05 -9.47032e-05 -5.03368e-05)
(-4.25332e-05 -9.26693e-05 -2.77976e-05)
(2.25216e-05 -4.68579e-05 1.06762e-05)
(0.00082655 9.27396e-05 -4.75412e-05)
(0.000375054 2.08179e-05 -9.42555e-05)
(0.000237374 1.61559e-05 -2.17034e-05)
(-1.20952e-05 -1.20657e-05 -6.40946e-05)
(4.72162e-05 -0.000286241 -2.24917e-05)
(2.40138e-05 -0.000266439 -5.08992e-05)
(-6.28421e-05 -0.000158204 -5.49237e-06)
(-1.56009e-05 -0.000100065 1.34856e-05)
(0.00212273 0.000229129 -8.48419e-06)
(0.000490033 6.68264e-05 -6.3989e-05)
(0.000240309 5.45182e-05 -4.3599e-05)
(-0.000179693 4.3704e-05 -3.25533e-06)
(-0.000150192 -0.000952084 0.000219342)
(-0.000126038 -0.000848869 1.8709e-05)
(-0.000207101 -0.000275173 3.98716e-05)
(-6.18365e-05 -0.000253064 6.17284e-05)
(0.00832093 0.000927753 -0.000110922)
(0.000694587 0.00042621 -8.54939e-06)
(-5.63137e-05 0.000119759 -1.68211e-05)
(-0.00159878 -0.00547086 0.000421642)
(-0.000753858 -0.00426617 0.000374537)
(-0.000589348 -0.000210171 0.000101022)
(-0.0154549 -0.00802915 -0.000547529)
(-0.003612 -0.00825948 0.000280429)
(-0.00325337 -0.0036144 0.000157264)
(0.000120056 6.94697e-05 6.0393e-05)
(0.000319413 7.477e-05 2.00825e-06)
(0.000428855 6.86933e-05 -5.79502e-05)
(-0.000191344 -1.72163e-05 3.68663e-05)
(-1.17168e-05 -5.71694e-05 9.04452e-05)
(9.86923e-05 -5.65048e-05 -8.63762e-05)
(8.13392e-05 0.000140973 0.000123552)
(0.000713734 0.000138785 9.11132e-05)
(0.00082655 9.27396e-05 -4.75412e-05)
(-0.000211535 -0.00011097 -5.35371e-05)
(-0.000281983 -6.22621e-05 7.78526e-05)
(-2.53699e-05 -0.000199195 0.000298879)
(4.72162e-05 -0.000286241 -2.24917e-05)
(0.00097747 0.000219273 0.000285102)
(-0.000153856 0.000112608 0.000200876)
(0.00156797 0.000245555 0.000139587)
(0.00212273 0.000229129 -8.48419e-06)
(-0.000475301 -0.000341816 -0.000225469)
(-0.000336592 -4.72727e-05 0.000132103)
(-0.000133225 -0.000631049 0.000959368)
(-0.000150192 -0.000952084 0.000219342)
(0.00242242 0.000563523 0.000743654)
(-0.00104745 8.00216e-06 0.00016258)
(0.00417886 0.000718083 -0.000451195)
(0.00832093 0.000927753 -0.000110922)
(-0.00151173 -0.00138151 -0.000987272)
(-0.00063052 8.5718e-06 0.000169539)
(-0.00117327 -0.00263509 0.00269756)
(-0.00159878 -0.00547086 0.000421642)
(-0.00865976 -0.00238441 -0.00217026)
(-0.00221303 -0.00171084 0.00103592)
(-0.00948918 -0.00612028 0.00552896)
(-0.0154549 -0.00802915 -0.000547529)
)
;
    }
    procBoundary5to1
    {
        type            processor;
        value           nonuniform List<vector> 
32
(
(-4.96514e-05 -6.16776e-05 3.28597e-05)
(-8.49956e-05 -0.000100489 1.36202e-05)
(-0.000357616 -0.000230837 -0.000100299)
(-0.00054785 -0.000359789 -0.000222877)
(-0.00159628 -0.000781058 -0.000581813)
(-0.00289636 -0.00103206 -0.000853125)
(7.19621e-06 -2.0005e-05 4.67274e-05)
(-9.11434e-05 -5.40205e-05 8.02716e-06)
(-0.000177808 -9.17535e-05 -3.34393e-05)
(-0.000411064 -0.000203869 -0.000155563)
(-0.000718595 -0.000312332 -0.000296715)
(-0.00138699 -0.000747548 -0.00067669)
(-0.00217497 -0.00106855 -0.000929693)
(4.96267e-06 1.18912e-06 4.00232e-05)
(-4.17655e-05 -7.61068e-06 2.82122e-05)
(-0.000127789 -2.43264e-05 -8.80015e-06)
(-0.000244029 -4.77858e-05 -6.61617e-05)
(-0.000439784 -9.73848e-05 -0.000173005)
(-0.000753066 -0.000167144 -0.000335443)
(-0.00117082 -0.000345577 -0.000611634)
(-0.00170873 -0.000536209 -0.000847431)
(0.00010499 9.86127e-06 4.08128e-05)
(4.92061e-05 -3.45646e-06 3.47019e-05)
(4.46216e-05 -1.64503e-05 3.84642e-05)
(4.46216e-05 -1.64503e-05 3.84642e-05)
(4.46216e-05 -1.64503e-05 3.84642e-05)
(6.56411e-05 4.36317e-06 4.24179e-05)
(2.20406e-05 -8.03638e-06 3.20237e-05)
(2.20406e-05 -8.03638e-06 3.20237e-05)
(2.20406e-05 -8.03638e-06 3.20237e-05)
(3.17896e-05 1.93294e-06 3.5863e-05)
(3.17896e-05 1.93294e-06 3.5863e-05)
)
;
    }
    procBoundary5to4
    {
        type            processor;
        value           nonuniform List<vector> 
12
(
(7.92178e-05 4.45869e-08 2.61626e-05)
(5.49447e-05 1.01101e-06 2.47621e-05)
(3.38257e-05 2.4848e-07 2.29985e-05)
(2.29277e-05 -6.50539e-07 2.09758e-05)
(8.78086e-05 -3.95651e-06 1.34127e-05)
(6.29655e-05 -5.49871e-06 1.26939e-05)
(4.21525e-05 -7.77648e-06 1.17827e-05)
(2.5069e-05 -4.90246e-06 1.04702e-05)
(0.000108697 -8.98581e-06 1.21511e-06)
(8.45234e-05 -1.28073e-05 1.58068e-06)
(5.87438e-05 -1.40464e-05 2.79711e-06)
(4.00854e-05 -9.73627e-06 5.67714e-06)
)
;
    }
    procBoundary5to7
    {
        type            processor;
        value           nonuniform List<vector> 
44
(
(-1.60275e-05 1.07194e-06 2.13578e-05)
(-6.0253e-05 -9.54484e-08 8.57774e-06)
(-0.000125141 -3.4599e-06 -2.27651e-05)
(-0.000233247 -8.00344e-06 -6.87296e-05)
(-0.000393192 -1.97813e-05 -0.000153573)
(-0.000659152 -3.52326e-05 -0.000275993)
(-0.00100274 -4.26345e-05 -0.000469958)
(-0.00151336 -4.59236e-05 -0.000635575)
(1.83412e-05 1.81192e-06 3.36826e-05)
(-1.60275e-05 1.07194e-06 2.13578e-05)
(-5.05484e-05 -6.73872e-06 -5.26738e-07)
(-0.000112914 -1.42749e-05 -2.23597e-05)
(-0.000207069 -2.09744e-05 -5.51417e-05)
(-0.000360807 -5.07939e-05 -0.000107207)
(-0.000591284 -7.91156e-05 -0.00017324)
(-0.000926887 -0.00013917 -0.00029207)
(-0.00145834 -0.000191256 -0.000372908)
(9.7308e-06 -2.5737e-06 1.59506e-05)
(-5.05484e-05 -6.73872e-06 -5.26738e-07)
(-1.57316e-05 3.17437e-06 6.29709e-06)
(-5.05484e-05 -6.73872e-06 -5.26738e-07)
(-0.000112914 -1.42749e-05 -2.23597e-05)
(-0.000208339 -4.57213e-05 -4.38637e-05)
(-0.000349421 -8.6288e-05 -6.92299e-05)
(-0.000606698 -0.00013656 -0.00010956)
(-0.000904881 -0.000238152 -0.000148316)
(-0.00134368 -0.000332789 -0.000148391)
(1.17245e-05 4.02784e-07 2.53918e-06)
(-1.58441e-05 9.5855e-07 -3.53749e-06)
(-4.51704e-05 2.02016e-06 -1.32369e-05)
(-0.000208339 -4.57213e-05 -4.38637e-05)
(-0.000105517 8.12638e-06 -3.19602e-05)
(-0.000208339 -4.57213e-05 -4.38637e-05)
(-0.000349421 -8.6288e-05 -6.92299e-05)
(-0.000598172 -0.000178031 -7.98565e-05)
(-0.000918011 -0.000343122 -8.29239e-05)
(-0.00139038 -0.000530312 -6.89624e-05)
(1.66588e-05 -2.74582e-06 -5.3854e-06)
(-1.51456e-05 -1.74407e-06 -1.28986e-05)
(-5.25604e-05 -1.24365e-06 -2.24368e-05)
(-0.000115024 2.32224e-06 -3.65053e-05)
(-0.000220869 5.15284e-06 -5.63793e-05)
(-0.000598172 -0.000178031 -7.98565e-05)
(-0.00035922 1.69217e-05 -9.30685e-05)
)
;
    }
}


// ************************************************************************* //
