/*--------------------------------*- C++ -*----------------------------------*\
| =========                 |                                                 |
| \\      /  F ield         | OpenFOAM: The Open Source CFD Toolbox           |
|  \\    /   O peration     | Version:  4.x                                   |
|   \\  /    A nd           | Web:      www.OpenFOAM.org                      |
|    \\/     M anipulation  |                                                 |
\*---------------------------------------------------------------------------*/
FoamFile
{
    version     2.0;
    format      ascii;
    class       volScalarField;
    location    "19.5";
    object      p;
}
// * * * * * * * * * * * * * * * * * * * * * * * * * * * * * * * * * * * * * //

dimensions      [1 -1 -2 0 0 0 0];

internalField   nonuniform List<scalar> 
114
(
65.8995
-17.1254
60.2839
-38.6247
57.1217
-62.5192
2.96358
65.4436
-16.0999
59.0663
-35.4321
53.8284
-52.0386
72.7909
4.43143
65.9597
-13.8034
59.5719
-31.662
53.6897
-47.5091
-1855.5
-1805.09
-1873.64
-1811.9
-1892.37
-1818.28
-1911.19
-1824.32
-1925.96
-1855.1
-1805.02
-1872.89
-1812.34
-1890.55
-1819.21
-1907.56
-1827.64
-1928.55
-1854.08
-1805.34
-1871.38
-1812.15
-1888.93
-1818.84
-1906.36
-1826.82
-1923.2
-1853.59
-1805.24
-3733.5
-3683.32
-3752.32
-3690.12
-3772.43
-3696.04
-3795.29
-3698.79
-3824.17
-3733.01
-3683.29
-3751.4
-3690.61
-3770.25
-3697.56
-3789.61
-3703.56
-3806.77
-3732.86
-3683.14
-3751.09
-3690.14
-3769.7
-3696.72
-3788.53
-3702.14
-3805.17
-3731.68
-3683.02
-3749.25
-3690.67
-5611.09
-5561.2
-5629.61
-5567.94
-5649.6
-5573.78
-5672.94
-5576.06
-5709.7
-5610.7
-5561.18
-5628.89
-5568.27
-5647.58
-5575.1
-5666.95
-5580.74
-5685.84
-5610.46
-5561
-5628.51
-5567.95
-5647.09
-5574.42
-5666.11
-5579.81
-5684.2
-5609.78
-5561.07
-5627.36
-5568.4
-5644.94
-5575.73
)
;

boundaryField
{
    inlet
    {
        type            calculated;
        value           nonuniform 0();
    }
    outlet
    {
        type            calculated;
        value           nonuniform List<scalar> 
12
(
0
0
0
-1877.91
-1877.91
-1877.91
-3755.83
-3755.83
-3755.83
-5633.74
-5633.74
-5633.74
)
;
    }
    wall
    {
        type            calculated;
        value           nonuniform List<scalar> 
66
(
-6550.03
-6549.64
-6549.39
-6548.7
-6500.14
-6500.11
-6499.92
-6499.98
-6568.54
-6567.81
-6567.42
-6566.25
-6506.86
-6507.17
-6506.84
-6507.27
-6588.5
-6586.47
-6585.96
-6583.8
-6512.67
-6513.97
-6513.27
-6514.57
-6611.8
-6605.8
-6604.95
-6514.91
-6519.57
-6518.63
-6656.38
-6624.62
-6623
-1855.5
-3733.5
-5611.09
-1805.09
-3683.32
-5561.2
-1873.64
-3752.32
-5629.61
65.8995
-1811.9
-3690.12
-5567.94
-17.1254
-1892.37
-3772.43
-5649.6
60.2839
-1818.28
-3696.04
-5573.78
-38.6247
-1911.19
-3795.29
-5672.94
57.1217
-1824.32
-3698.79
-5576.06
-62.5192
-1925.96
-3824.17
-5709.7
)
;
    }
    procBoundary5to1
    {
        type            processor;
        value           nonuniform List<scalar> 
32
(
1943.67
1861.51
1937.77
1840.61
1933.67
1817.03
1881.1
1943.27
1862.34
1936.71
1843.33
1931.48
1826.8
1950.2
1882.93
1943.64
1865.15
1937.56
1847.66
1930.7
1832.19
21.6433
72.4956
2.81353
2.81353
2.81353
21.8389
72.473
72.473
72.473
22.603
22.603
)
;
    }
    procBoundary5to4
    {
        type            processor;
        value           nonuniform List<scalar> 
12
(
-1797.94
-1797.57
-1797.67
-1797.53
-3676.14
-3675.81
-3675.85
-3675.56
-5554.15
-5553.88
-5553.83
-5553.67
)
;
    }
    procBoundary5to7
    {
        type            processor;
        value           nonuniform List<scalar> 
44
(
72.6347
5.75481
65.2279
-11.7816
58.6618
-29.3186
52.2127
-45.3439
23.5684
72.6347
-1870.92
-1812.46
-1888.7
-1819.67
-1906.65
-1826.85
-1924.61
-1853.56
-1870.92
-1805.35
-1870.92
-1812.46
-3766.59
-3697.78
-3783.22
-3705.65
-3797.91
-3732.15
-3683.01
-3750.11
-3766.59
-3690.11
-3766.59
-3697.78
-5662.11
-5582.8
-5677.84
-5609.83
-5560.93
-5627.56
-5567.96
-5645.3
-5662.11
-5574.83
)
;
    }
}


// ************************************************************************* //
