/*--------------------------------*- C++ -*----------------------------------*\
| =========                 |                                                 |
| \\      /  F ield         | OpenFOAM: The Open Source CFD Toolbox           |
|  \\    /   O peration     | Version:  4.x                                   |
|   \\  /    A nd           | Web:      www.OpenFOAM.org                      |
|    \\/     M anipulation  |                                                 |
\*---------------------------------------------------------------------------*/
FoamFile
{
    version     2.0;
    format      ascii;
    class       volScalarField;
    location    "19.5";
    object      QPartFluidCoeff;
}
// * * * * * * * * * * * * * * * * * * * * * * * * * * * * * * * * * * * * * //

dimensions      [1 -1 -3 -1 0 0 0];

internalField   nonuniform List<scalar> 
114
(
-2.74949e+07
-2.66512e+07
-2.6092e+07
-2.19326e+07
-3.06293e+07
-2.2159e+07
-2.52863e+07
-2.40618e+07
-2.1139e+07
-2.85552e+07
-3.04322e+07
-3.52801e+07
-2.33431e+07
-3.35127e+07
-2.08358e+07
-2.94119e+07
-1.99101e+07
-1.78786e+07
-2.50348e+07
-2.0779e+07
-2.19339e+07
-2.2001e+07
-1.87366e+07
-2.49835e+07
-2.08318e+07
-2.18331e+07
-2.67651e+07
-2.36067e+07
-2.0928e+07
-1.54816e+07
-2.6823e+07
-2.72814e+07
-3.06063e+07
-2.94994e+07
-2.95728e+07
-3.31674e+07
-1.70905e+07
-3.38008e+07
-1.93071e+07
-2.83465e+07
-1.81847e+07
-2.43675e+07
-3.0097e+07
-2.05214e+07
-2.74766e+07
-2.38304e+07
-2.62775e+07
-1.35901e+07
-3.41626e+07
-1.67397e+07
-2.46578e+07
-3.18988e+07
-2.52394e+07
-2.89828e+07
-2.62608e+07
-2.81452e+07
-2.42263e+07
-3.20648e+07
-2.12558e+07
-2.03626e+07
-3.59054e+07
-2.33047e+07
-3.02247e+07
-2.79935e+07
-3.05316e+07
-3.69631e+07
-2.91101e+07
-1.83114e+07
-2.50281e+07
-2.57385e+07
-2.6161e+07
-2.44597e+07
-3.81124e+07
-3.08195e+07
-3.00721e+07
-3.5648e+07
-2.58923e+07
-1.74058e+07
-3.81124e+07
-3.10381e+07
-3.21303e+07
-8.27735e+06
-2.27441e+07
-1.50471e+07
-2.56373e+07
-2.02679e+07
-1.9566e+07
-2.45089e+07
-2.7959e+07
-1.95314e+07
-2.31743e+07
-2.70521e+07
-1.68251e+07
-2.29051e+07
-2.75608e+07
-2.54244e+07
-1.88664e+07
-2.96123e+07
-2.11724e+07
-2.01627e+07
-2.40773e+07
-2.88607e+07
-2.58975e+07
-2.07141e+07
-3.08945e+07
-2.29106e+07
-2.56225e+07
-2.12707e+07
-2.33118e+07
-2.09779e+07
-2.37656e+07
-2.16085e+07
-3.37271e+07
-2.70494e+07
)
;

boundaryField
{
    inlet
    {
        type            calculated;
        value           nonuniform 0();
    }
    outlet
    {
        type            calculated;
        value           uniform 0;
    }
    wall
    {
        type            calculated;
        value           uniform 0;
    }
    procBoundary5to1
    {
        type            processor;
        value           nonuniform List<scalar> 
32
(
721.62
466.28
744.347
592.339
592.76
262.577
475.903
597.138
609.851
679.724
582.241
698.215
307.907
581.491
403.93
821.435
647.593
782.027
541.006
699.423
239.131
504.096
429.328
616.623
616.623
616.623
606.2
931.215
931.215
931.215
453.923
453.923
)
;
    }
    procBoundary5to4
    {
        type            processor;
        value           nonuniform List<scalar> 
12
(
720.414
835.04
505.452
532.239
721.748
783.713
645.574
605.62
614.894
642.826
527.052
524.489
)
;
    }
    procBoundary5to7
    {
        type            processor;
        value           nonuniform List<scalar> 
44
(
684.473
482.732
593.891
830.627
928.501
602.829
494.535
455.579
764.072
684.473
491.702
647.344
521.847
614.559
667.965
757.033
448.393
290.773
491.702
754.594
491.702
647.344
359.883
523.319
587.436
534.916
320.333
652.98
684.933
535.999
359.883
488.407
359.883
523.319
430.619
550.097
366.603
540.998
519.016
557.933
638.181
384.434
430.619
358.595
)
;
    }
}


// ************************************************************************* //
