/*--------------------------------*- C++ -*----------------------------------*\
| =========                 |                                                 |
| \\      /  F ield         | OpenFOAM: The Open Source CFD Toolbox           |
|  \\    /   O peration     | Version:  4.x                                   |
|   \\  /    A nd           | Web:      www.OpenFOAM.org                      |
|    \\/     M anipulation  |                                                 |
\*---------------------------------------------------------------------------*/
FoamFile
{
    version     2.0;
    format      ascii;
    class       volScalarField;
    location    "19.5";
    object      SPartFluid;
}
// * * * * * * * * * * * * * * * * * * * * * * * * * * * * * * * * * * * * * //

dimensions      [1 -3 -1 0 0 0 0];

internalField   nonuniform List<scalar> 
114
(
6.81959e-65
8.05951e-65
6.35466e-65
6.74214e-65
7.59466e-65
8.4471e-65
6.81943e-65
5.65705e-65
5.81205e-65
6.66453e-65
8.21443e-65
8.5245e-65
7.90453e-65
8.44667e-65
6.04442e-65
7.5168e-65
5.73449e-65
4.57213e-65
7.28446e-65
5.42463e-65
8.67941e-65
6.35461e-65
4.80474e-65
6.97455e-65
5.42468e-65
6.43212e-65
6.81965e-65
7.12964e-65
5.65727e-65
5.96722e-65
7.05197e-65
6.81949e-65
8.52433e-65
7.12947e-65
8.36939e-65
8.13695e-65
5.26967e-65
8.60201e-65
6.89711e-65
8.21428e-65
4.57209e-65
7.28434e-65
7.59434e-65
6.19949e-65
7.05198e-65
7.1295e-65
6.89705e-65
5.57965e-65
9.99657e-65
4.33958e-65
6.66466e-65
8.2146e-65
6.74215e-65
7.36215e-65
6.97468e-65
6.89724e-65
6.66474e-65
7.28478e-65
6.58727e-65
5.42466e-65
8.36946e-65
6.0446e-65
7.12956e-65
7.12958e-65
7.05209e-65
9.14456e-65
6.43221e-65
5.50226e-65
6.89695e-65
6.35451e-65
6.89698e-65
6.04458e-65
1.00743e-64
7.36202e-65
8.2145e-65
8.91199e-65
8.67952e-65
4.80462e-65
9.37676e-65
8.9893e-65
7.98189e-65
2.63493e-65
6.89729e-65
4.57237e-65
7.12978e-65
6.04482e-65
4.95987e-65
6.97483e-65
6.27738e-65
6.04488e-65
6.3547e-65
6.58721e-65
4.33979e-65
5.65726e-65
7.43968e-65
6.50972e-65
4.57232e-65
7.05226e-65
6.0448e-65
6.12213e-65
6.43214e-65
8.52448e-65
6.97461e-65
5.88968e-65
8.05958e-65
6.50967e-65
6.7422e-65
6.81971e-65
7.36204e-65
5.65715e-65
7.12953e-65
5.57967e-65
9.68689e-65
7.74958e-65
)
;

boundaryField
{
    inlet
    {
        type            calculated;
        value           nonuniform 0();
    }
    outlet
    {
        type            calculated;
        value           uniform 0;
    }
    wall
    {
        type            calculated;
        value           uniform 0;
    }
    procBoundary5to1
    {
        type            processor;
        value           nonuniform List<scalar> 
32
(
7.98203e-65
5.73467e-65
8.44705e-65
7.05215e-65
5.73476e-65
4.1848e-65
5.65707e-65
6.12204e-65
6.97449e-65
6.97454e-65
6.58709e-65
7.20708e-65
4.41723e-65
6.3544e-65
5.11453e-65
9.06668e-65
8.29179e-65
8.75682e-65
6.81952e-65
7.90446e-65
3.48727e-65
6.58707e-65
5.26968e-65
8.05948e-65
8.05948e-65
8.05948e-65
7.05193e-65
9.99667e-65
9.99667e-65
9.99667e-65
5.73445e-65
5.73445e-65
)
;
    }
    procBoundary5to4
    {
        type            processor;
        value           nonuniform List<scalar> 
12
(
8.91202e-65
9.06684e-65
5.65703e-65
5.96697e-65
8.21465e-65
8.13703e-65
6.81952e-65
6.81951e-65
7.20731e-65
7.59466e-65
6.27718e-65
6.35464e-65
)
;
    }
    procBoundary5to7
    {
        type            processor;
        value           nonuniform List<scalar> 
44
(
7.82669e-65
6.43185e-65
6.74184e-65
1.03066e-64
1.03841e-64
7.98189e-65
5.6571e-65
8.36942e-65
9.91899e-65
7.82669e-65
6.43188e-65
7.36182e-65
6.74191e-65
6.89695e-65
8.60186e-65
8.44693e-65
7.36202e-65
3.95213e-65
6.43188e-65
8.52422e-65
6.43188e-65
7.36182e-65
5.03709e-65
5.81208e-65
7.36203e-65
6.04463e-65
5.81215e-65
8.05942e-65
7.36192e-65
6.81948e-65
5.03709e-65
5.19211e-65
5.03709e-65
5.81208e-65
5.50221e-65
6.4322e-65
6.12223e-65
6.89709e-65
5.81217e-65
7.67202e-65
7.43957e-65
5.19221e-65
5.50221e-65
3.87481e-65
)
;
    }
}


// ************************************************************************* //
