/*--------------------------------*- C++ -*----------------------------------*\
| =========                 |                                                 |
| \\      /  F ield         | OpenFOAM: The Open Source CFD Toolbox           |
|  \\    /   O peration     | Version:  4.x                                   |
|   \\  /    A nd           | Web:      www.OpenFOAM.org                      |
|    \\/     M anipulation  |                                                 |
\*---------------------------------------------------------------------------*/
FoamFile
{
    version     2.0;
    format      ascii;
    class       volVectorField;
    location    "19.5";
    object      UsNext;
}
// * * * * * * * * * * * * * * * * * * * * * * * * * * * * * * * * * * * * * //

dimensions      [0 1 -1 0 0 0 0];

internalField   nonuniform List<vector> 
114
(
(-3.39906e-08 6.71072e-09 2.41547e-09)
(-2.75158e-08 5.47918e-09 2.99301e-09)
(-2.60465e-08 5.14193e-09 3.12466e-09)
(-1.3546e-08 2.22677e-09 3.12101e-10)
(-1.24733e-08 2.25353e-09 -3.53233e-10)
(-1.46834e-07 2.89293e-08 -9.77981e-10)
(-5.7151e-08 9.067e-09 2.17685e-09)
(-5.35359e-08 1.14929e-08 4.49815e-09)
(-4.83779e-08 1.16236e-08 3.67287e-09)
(-3.56793e-08 6.65291e-09 1.8828e-09)
(-2.60416e-08 2.46292e-09 1.54016e-09)
(-1.72945e-08 3.40796e-09 1.67794e-09)
(-1.72224e-08 1.89078e-08 -2.8252e-09)
(-7.03431e-08 5.94516e-09 -3.16597e-09)
(-6.81488e-08 9.0905e-09 1.23864e-09)
(-6.5321e-08 8.39178e-09 3.23601e-09)
(-5.64342e-08 7.62342e-09 2.8306e-09)
(-4.35969e-08 6.12215e-09 2.89157e-09)
(-2.85397e-08 -1.99483e-10 4.79965e-09)
(-1.73144e-08 1.39079e-09 2.43821e-09)
(-8.96081e-09 4.79936e-09 -2.125e-09)
(-1.76584e-08 8.133e-10 3.51417e-09)
(-2.15965e-08 -1.51391e-09 3.61423e-09)
(-2.56488e-08 1.53673e-09 2.19842e-09)
(-2.17297e-08 1.28761e-09 1.1087e-09)
(-2.03893e-08 2.6555e-10 -2.31212e-09)
(-1.34165e-08 1.5991e-09 4.09632e-10)
(-1.08241e-08 -1.63702e-11 -9.41175e-10)
(-9.40583e-09 9.42944e-10 -2.58931e-09)
(-8.05243e-09 5.0812e-09 -7.9183e-09)
(-4.12821e-08 -3.19162e-09 -1.09687e-09)
(-5.02439e-08 -8.24491e-09 4.70167e-09)
(-4.53619e-08 5.5565e-09 -9.7406e-11)
(-4.16359e-08 2.15291e-09 1.45143e-09)
(-3.7466e-08 8.2357e-10 -8.61244e-10)
(-3.02079e-08 1.20517e-09 -3.77232e-10)
(-2.40685e-08 1.28083e-09 -1.21874e-09)
(-1.38892e-08 1.61763e-09 -1.72407e-09)
(-1.20965e-08 2.51864e-09 -6.3816e-09)
(-5.50058e-08 2.79567e-10 -5.47914e-09)
(-5.99747e-08 3.82759e-09 4.68815e-10)
(-5.90876e-08 5.92361e-09 1.64201e-09)
(-5.81417e-08 6.10865e-09 3.99359e-10)
(-4.73231e-08 3.33215e-09 2.31656e-09)
(-3.65374e-08 2.31438e-09 1.90154e-10)
(-2.59351e-08 5.28747e-10 1.7938e-09)
(-1.6685e-08 -1.83584e-09 8.79922e-10)
(-7.48918e-09 8.3441e-10 -1.58371e-09)
(-6.02454e-08 9.87855e-10 -5.61467e-09)
(-6.55553e-08 4.55966e-09 -1.35255e-09)
(-1.55936e-08 9.0873e-10 2.15893e-09)
(-1.5425e-08 -1.30704e-09 5.08834e-10)
(-1.69753e-08 4.90273e-10 -4.7633e-10)
(-2.51966e-08 -6.59238e-09 1.03033e-08)
(-2.01657e-08 -1.46614e-09 -1.02585e-09)
(-1.21602e-08 1.32755e-09 9.16676e-12)
(-9.65791e-09 -4.99434e-10 -1.19816e-09)
(-1.10929e-08 1.31673e-09 -4.25097e-09)
(8.55524e-10 2.38354e-09 -1.3964e-08)
(-2.80457e-08 2.01095e-09 1.61907e-10)
(-2.87364e-08 6.00614e-10 1.08548e-09)
(-2.90508e-08 2.33641e-10 -1.59913e-09)
(-6.93283e-08 -1.21178e-08 -5.87243e-10)
(-3.1913e-08 -1.06386e-09 -1.45198e-09)
(-2.49249e-08 -1.36526e-09 2.14601e-10)
(-1.64894e-08 1.2973e-09 -1.49072e-09)
(-1.3799e-08 2.41358e-09 -5.82639e-09)
(-5.82473e-09 5.59265e-09 -8.33452e-09)
(-4.75612e-08 -1.60504e-09 -4.84074e-09)
(-5.00625e-08 -5.75674e-10 8.91652e-10)
(-4.69272e-08 -6.50035e-10 1.56013e-09)
(-5.11356e-08 1.46333e-09 -1.17201e-09)
(-3.89633e-08 4.08142e-10 7.61298e-10)
(-2.96869e-08 -9.17824e-10 -7.42255e-10)
(-2.06359e-08 -9.0989e-10 9.48442e-10)
(-1.34018e-08 -1.47844e-10 -1.94133e-09)
(-8.61538e-09 1.78788e-09 -3.51596e-09)
(-4.77342e-08 -3.01598e-09 -7.22809e-09)
(-5.48787e-08 1.3739e-09 -4.08402e-09)
(-5.69023e-08 1.36483e-09 -1.54286e-09)
(-5.20814e-08 7.158e-10 -2.37936e-09)
(-6.78566e-09 -1.15813e-09 1.48175e-09)
(-9.15662e-09 2.70019e-10 -3.00526e-10)
(-5.9065e-09 4.82083e-10 1.46605e-09)
(-1.75647e-08 -2.61391e-09 6.69445e-09)
(-1.49546e-08 6.34241e-10 -7.56837e-10)
(-9.14233e-09 6.46763e-11 9.20555e-10)
(-8.63209e-09 4.79472e-11 2.86012e-10)
(-7.41992e-09 4.25813e-09 -5.51703e-09)
(1.11205e-09 1.19102e-08 -1.28455e-08)
(-1.64247e-08 -5.15056e-10 2.12994e-09)
(-1.74459e-08 -1.64299e-10 -1.0894e-09)
(-3.74998e-08 7.79937e-09 2.83125e-09)
(-1.00249e-07 -1.95634e-08 4.43998e-09)
(-2.29389e-08 4.84481e-11 2.04409e-09)
(-1.41417e-08 -5.95622e-10 -7.73672e-10)
(-1.33205e-08 -5.28733e-10 -4.39215e-10)
(-8.0337e-09 5.8475e-09 -2.60565e-09)
(-1.28207e-09 1.48073e-08 -2.85094e-09)
(-2.43613e-08 -1.24562e-09 -2.63324e-10)
(-2.84686e-08 9.76557e-10 -1.64832e-09)
(-3.37995e-08 3.49312e-09 1.42639e-09)
(-4.4074e-08 1.46126e-09 1.53087e-09)
(-2.38925e-08 -2.9282e-09 2.53805e-10)
(-2.17441e-08 -1.76123e-09 -1.57776e-09)
(-1.47485e-08 -1.36626e-09 -7.70807e-10)
(-9.75277e-09 6.8299e-11 -8.49532e-10)
(-4.82283e-09 1.1655e-09 -2.14185e-09)
(-3.11729e-08 -5.69483e-09 -1.14447e-09)
(-3.00252e-08 -1.71229e-09 -8.24112e-10)
(-2.55309e-08 3.01653e-08 -3.15611e-10)
(-3.16259e-08 2.20923e-09 -8.74794e-10)
(-2.95839e-08 -1.58393e-09 -1.52152e-09)
(-2.5058e-08 -1.57401e-09 -6.42799e-10)
)
;

boundaryField
{
    inlet
    {
        type            calculated;
        value           nonuniform 0();
    }
    outlet
    {
        type            calculated;
        value           nonuniform List<vector> 
12
(
(-1.46834e-07 2.89293e-08 -9.77981e-10)
(-1.72224e-08 1.89078e-08 -2.8252e-09)
(-8.96081e-09 4.79936e-09 -2.125e-09)
(-8.05243e-09 5.0812e-09 -7.9183e-09)
(-1.20965e-08 2.51864e-09 -6.3816e-09)
(-7.48918e-09 8.3441e-10 -1.58371e-09)
(8.55524e-10 2.38354e-09 -1.3964e-08)
(-5.82473e-09 5.59265e-09 -8.33452e-09)
(-8.61538e-09 1.78788e-09 -3.51596e-09)
(1.11205e-09 1.19102e-08 -1.28455e-08)
(-1.28207e-09 1.48073e-08 -2.85094e-09)
(-4.82283e-09 1.1655e-09 -2.14185e-09)
)
;
    }
    wall
    {
        type            calculated;
        value           nonuniform List<vector> 
66
(
(-6.78566e-09 -1.15813e-09 1.48175e-09)
(-1.64247e-08 -5.15056e-10 2.12994e-09)
(-2.43613e-08 -1.24562e-09 -2.63324e-10)
(-3.11729e-08 -5.69483e-09 -1.14447e-09)
(-9.15662e-09 2.70019e-10 -3.00526e-10)
(-1.74459e-08 -1.64299e-10 -1.0894e-09)
(-2.84686e-08 9.76557e-10 -1.64832e-09)
(-3.00252e-08 -1.71229e-09 -8.24112e-10)
(-5.9065e-09 4.82083e-10 1.46605e-09)
(-3.74998e-08 7.79937e-09 2.83125e-09)
(-3.37995e-08 3.49312e-09 1.42639e-09)
(-2.55309e-08 3.01653e-08 -3.15611e-10)
(-1.75647e-08 -2.61391e-09 6.69445e-09)
(-1.00249e-07 -1.95634e-08 4.43998e-09)
(-4.4074e-08 1.46126e-09 1.53087e-09)
(-3.16259e-08 2.20923e-09 -8.74794e-10)
(-1.49546e-08 6.34241e-10 -7.56837e-10)
(-2.29389e-08 4.84481e-11 2.04409e-09)
(-2.38925e-08 -2.9282e-09 2.53805e-10)
(-2.95839e-08 -1.58393e-09 -1.52152e-09)
(-9.14233e-09 6.46763e-11 9.20555e-10)
(-1.41417e-08 -5.95622e-10 -7.73672e-10)
(-2.17441e-08 -1.76123e-09 -1.57776e-09)
(-2.5058e-08 -1.57401e-09 -6.42799e-10)
(-8.63209e-09 4.79472e-11 2.86012e-10)
(-1.33205e-08 -5.28733e-10 -4.39215e-10)
(-1.47485e-08 -1.36626e-09 -7.70807e-10)
(-7.41992e-09 4.25813e-09 -5.51703e-09)
(-8.0337e-09 5.8475e-09 -2.60565e-09)
(-9.75277e-09 6.8299e-11 -8.49532e-10)
(1.11205e-09 1.19102e-08 -1.28455e-08)
(-1.28207e-09 1.48073e-08 -2.85094e-09)
(-4.82283e-09 1.1655e-09 -2.14185e-09)
(-1.76584e-08 8.133e-10 3.51417e-09)
(-1.55936e-08 9.0873e-10 2.15893e-09)
(-6.78566e-09 -1.15813e-09 1.48175e-09)
(-2.15965e-08 -1.51391e-09 3.61423e-09)
(-1.5425e-08 -1.30704e-09 5.08834e-10)
(-9.15662e-09 2.70019e-10 -3.00526e-10)
(-2.56488e-08 1.53673e-09 2.19842e-09)
(-1.69753e-08 4.90273e-10 -4.7633e-10)
(-5.9065e-09 4.82083e-10 1.46605e-09)
(-3.39906e-08 6.71072e-09 2.41547e-09)
(-2.17297e-08 1.28761e-09 1.1087e-09)
(-2.51966e-08 -6.59238e-09 1.03033e-08)
(-1.75647e-08 -2.61391e-09 6.69445e-09)
(-2.75158e-08 5.47918e-09 2.99301e-09)
(-2.03893e-08 2.6555e-10 -2.31212e-09)
(-2.01657e-08 -1.46614e-09 -1.02585e-09)
(-1.49546e-08 6.34241e-10 -7.56837e-10)
(-2.60465e-08 5.14193e-09 3.12466e-09)
(-1.34165e-08 1.5991e-09 4.09632e-10)
(-1.21602e-08 1.32755e-09 9.16676e-12)
(-9.14233e-09 6.46763e-11 9.20555e-10)
(-1.3546e-08 2.22677e-09 3.12101e-10)
(-1.08241e-08 -1.63702e-11 -9.41175e-10)
(-9.65791e-09 -4.99434e-10 -1.19816e-09)
(-8.63209e-09 4.79472e-11 2.86012e-10)
(-1.24733e-08 2.25353e-09 -3.53233e-10)
(-9.40583e-09 9.42944e-10 -2.58931e-09)
(-1.10929e-08 1.31673e-09 -4.25097e-09)
(-7.41992e-09 4.25813e-09 -5.51703e-09)
(-1.46834e-07 2.89293e-08 -9.77981e-10)
(-8.05243e-09 5.0812e-09 -7.9183e-09)
(8.55524e-10 2.38354e-09 -1.3964e-08)
(1.11205e-09 1.19102e-08 -1.28455e-08)
)
;
    }
    procBoundary5to1
    {
        type            processor;
        value           nonuniform List<vector> 
32
(
(-3.31837e-08 7.90442e-09 3.05231e-09)
(-2.75363e-08 8.82627e-09 3.73716e-09)
(-2.02578e-08 5.41453e-09 1.60848e-09)
(-1.12499e-08 3.94276e-09 -9.79101e-11)
(-1.05189e-08 3.20948e-09 -2.57839e-09)
(-6.7114e-09 1.36282e-09 -1.34717e-08)
(-5.54415e-08 8.47547e-09 2.54891e-09)
(-5.85479e-08 1.05702e-08 4.70522e-09)
(-4.4623e-08 1.45982e-08 4.56955e-09)
(-2.59276e-08 8.83511e-09 1.00623e-09)
(-1.03406e-08 3.24395e-09 8.72371e-10)
(-4.15713e-09 1.29562e-10 -1.09405e-09)
(-1.32725e-08 7.47432e-09 -7.64728e-09)
(-7.25639e-08 1.03655e-08 -2.61815e-09)
(-6.91807e-08 1.52106e-08 -1.41292e-09)
(-7.10474e-08 1.10299e-08 3.53781e-09)
(-5.94992e-08 1.25739e-08 6.55654e-09)
(-3.16928e-08 6.14019e-09 1.68182e-08)
(-9.44723e-09 -3.36062e-09 3.52993e-09)
(-1.21383e-08 -1.63789e-09 4.09689e-09)
(-1.43009e-08 6.51808e-09 -7.88926e-09)
(-2.77777e-08 7.61334e-10 -1.02476e-09)
(-2.53376e-08 -4.46163e-09 5.42245e-09)
(-2.55106e-08 9.51138e-10 3.8291e-09)
(-2.55106e-08 9.51138e-10 3.8291e-09)
(-2.55106e-08 9.51138e-10 3.8291e-09)
(-5.05642e-08 2.70237e-09 -2.1003e-09)
(-5.55109e-08 4.63235e-09 1.06736e-09)
(-5.55109e-08 4.63235e-09 1.06736e-09)
(-5.55109e-08 4.63235e-09 1.06736e-09)
(-6.43274e-08 3.49011e-09 -5.65686e-09)
(-6.43274e-08 3.49011e-09 -5.65686e-09)
)
;
    }
    procBoundary5to4
    {
        type            processor;
        value           nonuniform List<vector> 
12
(
(-1.71894e-08 2.85369e-09 5.59817e-10)
(-4.30545e-08 1.25647e-09 -9.06652e-10)
(-5.07653e-08 -2.26797e-09 -6.29099e-09)
(-5.63799e-08 -4.37687e-10 -6.72112e-09)
(-1.29511e-08 -5.43396e-10 -3.37901e-10)
(-2.49152e-08 -4.18776e-11 -1.90141e-09)
(-3.68724e-08 -4.33662e-09 -5.56986e-09)
(-4.15059e-08 -9.27635e-10 -1.22188e-08)
(-6.61854e-09 -4.36704e-10 5.55765e-10)
(-1.28458e-08 -1.25744e-09 -4.48171e-10)
(-1.9415e-08 -3.31349e-09 -3.39158e-09)
(-2.68808e-08 -2.66083e-09 -3.22184e-09)
)
;
    }
    procBoundary5to7
    {
        type            processor;
        value           nonuniform List<vector> 
44
(
(-7.27217e-08 6.6908e-09 -5.81392e-09)
(-7.5998e-08 7.74105e-09 -2.39273e-09)
(-7.65432e-08 3.99561e-09 1.67105e-09)
(-6.21015e-08 5.78176e-09 5.07376e-09)
(-3.64002e-08 6.75307e-09 9.276e-09)
(-2.65276e-08 -1.65721e-09 8.9874e-09)
(-1.76212e-08 -3.34374e-10 6.28908e-09)
(-8.08722e-09 2.05231e-09 -1.80797e-09)
(-6.69078e-08 5.76567e-09 -8.08355e-09)
(-7.27217e-08 6.6908e-09 -5.81392e-09)
(-6.78755e-08 4.92569e-09 -8.99617e-10)
(-6.88731e-08 -1.1645e-09 -1.23415e-09)
(-5.22052e-08 -1.49004e-09 2.90484e-11)
(-3.91876e-08 1.57096e-09 4.66816e-09)
(-2.72021e-08 6.43177e-10 4.69285e-09)
(-1.6442e-08 -6.38052e-10 3.50838e-09)
(-9.71527e-09 1.30686e-11 -2.63219e-09)
(-5.4551e-08 5.19241e-10 -6.27243e-09)
(-6.78755e-08 4.92569e-09 -8.99617e-10)
(-6.04744e-08 4.50947e-09 -4.14646e-09)
(-6.78755e-08 4.92569e-09 -8.99617e-10)
(-6.88731e-08 -1.1645e-09 -1.23415e-09)
(-4.43568e-08 -2.33107e-09 -3.76153e-09)
(-3.17535e-08 -5.60987e-10 1.47826e-09)
(-2.20242e-08 6.64306e-10 2.2612e-09)
(-1.48859e-08 -5.67102e-10 -3.39738e-10)
(-6.11814e-09 -9.09251e-10 -2.33473e-09)
(-4.32413e-08 -2.84113e-09 -4.66291e-09)
(-5.32901e-08 9.82964e-10 -4.51706e-10)
(-5.02891e-08 2.8365e-09 9.68046e-10)
(-4.43568e-08 -2.33107e-09 -3.76153e-09)
(-4.65416e-08 6.32808e-10 -3.37199e-09)
(-4.43568e-08 -2.33107e-09 -3.76153e-09)
(-3.17535e-08 -5.60987e-10 1.47826e-09)
(-2.00326e-08 -7.51488e-10 -1.78883e-09)
(-1.69654e-08 1.28725e-09 -9.25338e-10)
(-3.40052e-09 -2.49343e-10 -3.58647e-09)
(-2.40559e-08 -3.81884e-09 -1.9188e-09)
(-3.07428e-08 -2.45356e-09 -5.92071e-10)
(-3.15835e-08 -1.17164e-09 -4.13954e-10)
(-2.99587e-08 -5.95825e-10 -2.81661e-09)
(-2.74615e-08 -1.49189e-09 -1.91308e-09)
(-2.00326e-08 -7.51488e-10 -1.78883e-09)
(-3.10917e-08 1.48868e-09 2.98324e-09)
)
;
    }
}


// ************************************************************************* //
