/*--------------------------------*- C++ -*----------------------------------*\
  =========                 |
  \\      /  F ield         | OpenFOAM: The Open Source CFD Toolbox
   \\    /   O peration     | Website:  https://openfoam.org
    \\  /    A nd           | Version:  4.x
     \\/     M anipulation  |
\*---------------------------------------------------------------------------*/
FoamFile
{
    version     2.0;
    format      ascii;
    class       Cloud<passiveParticle>;
    location    0;
    object      positions;
}
// * * * * * * * * * * * * * * * * * * * * * * * * * * * * * * * * * * * * * //

348
(
( 0.256076 -0.0172355 0.0199764 ) 39
( 0.253241 -0.00317277 0.0337026 ) 48
( 0.256958 0.0116425 0.0209287 ) 48
( 0.421221 -0.053226 -0.00939296 ) 10
( 0.328427 -0.0516086 0.035596 ) 32
( 0.439675 -0.0867339 -0.00617087 ) 3
( 0.479817 -0.0721238 0.0133747 ) 5
( 0.429412 -0.0905586 0.0309665 ) 27
( 0.346638 -0.0575922 0.0231277 ) 33
( 0.469065 -0.0594011 0.0236777 ) 37
( 0.43858 -0.0210229 0.017781 ) 45
( 0.477623 -0.0231389 -0.00029055 ) 20
( 0.344233 -0.0902032 0.0035787 ) 0
( 0.431799 -0.0409193 0.0119127 ) 18
( 0.45665 -0.0434036 0.000602437 ) 11
( 0.287709 -0.0166786 -0.00538756 ) 13
( 0.373453 -0.0737792 0.00179897 ) 1
( 0.40279 -0.0578112 -0.00413269 ) 9
( 0.280684 -0.0346722 -0.00974216 ) 13
( 0.344999 -0.0182691 0.0042659 ) 15
( 0.393023 -0.0731031 0.00361897 ) 2
( 0.283137 -0.0296832 0.00907294 ) 13
( 0.321818 -0.0256975 -0.00888189 ) 14
( 0.3337 -0.0747301 -0.00342194 ) 0
( 0.36398 -0.0843417 0.030644 ) 25
( 0.362919 -0.0224687 -0.00298013 ) 16
( 0.48965 -0.0448064 0.0248183 ) 38
( 0.435985 -0.0902634 0.0126726 ) 3
( 0.481813 -0.0718524 -0.00618209 ) 5
( 0.370542 -0.0543976 0.00550305 ) 8
( 0.432823 -0.0550185 0.0260986 ) 36
( 0.448816 -0.0717961 0.00271272 ) 4
( 0.312603 -0.076226 0.0169585 ) 23
( 0.391676 -0.0907136 0.0243212 ) 26
( 0.348601 -0.0717575 0.00936434 ) 0
( 0.418888 -0.0312225 0.0283519 ) 45
( 0.398043 -0.088042 -0.00879422 ) 2
( 0.421798 -0.0773467 0.0178901 ) 27
( 0.310811 -0.057001 0.0226782 ) 32
( 0.425171 -0.0298461 -0.00903084 ) 18
( 0.452392 -0.0666549 0.0313997 ) 37
( 0.46589 -0.0316759 -0.0133295 ) 19
( 0.401577 -0.0262151 0.0156785 ) 44
( 0.340142 -0.0562846 -0.00498643 ) 7
( 0.325339 -0.0242216 0.0105983 ) 14
( 0.360494 -0.0862692 -0.00686643 ) 0
( 0.322013 -0.0622528 0.00675106 ) 6
( 0.384225 -0.0385498 0.0238886 ) 43
( 0.383586 -0.0577558 0.0193517 ) 34
( 0.278023 -0.0599585 0.0190206 ) 31
( 0.322379 -0.0593549 -0.0130133 ) 6
( 0.403738 -0.043499 0.0245063 ) 35
( 0.346974 -0.0902479 0.0230659 ) 24
( 0.454992 -0.0175925 0.0285346 ) 46
( 0.391134 -0.0281414 -0.00109398 ) 17
( 0.260573 -0.0718673 0.0226338 ) 21
( 0.454565 -0.0905161 0.00630422 ) 4
( 0.384741 -0.0905179 0.0059596 ) 1
( 0.359383 -0.0416579 -0.00407192 ) 15
( 0.490474 -0.0171314 0.0130709 ) 20
( 0.465503 -0.0618126 0.00451843 ) 11
( 0.489121 -0.0557037 0.00816972 ) 12
( 0.474673 -0.0904774 0.020009 ) 29
( 0.490357 -0.0361528 0.00702453 ) 20
( 0.420442 -0.0901735 -0.00420972 ) 3
( 0.453467 -0.0341093 0.0176243 ) 46
( 0.421102 -0.0245053 0.0097356 ) 18
( 0.417034 -0.0534581 0.0141047 ) 10
( 0.356164 -0.0319167 0.0130812 ) 15
( 0.330692 -0.0475333 0.016516 ) 32
( 0.37644 -0.021157 0.0283831 ) 43
( 0.27222 -0.0274538 0.0251766 ) 39
( 0.449651 -0.0556224 0.0147381 ) 37
( 0.357024 -0.0205134 0.0288194 ) 42
( 0.265294 -0.0459803 0.0248947 ) 30
( 0.381867 -0.0450053 -0.00795423 ) 8
( 0.446947 -0.0263402 0.00049886 ) 19
( 0.403555 -0.0668162 0.0187111 ) 35
( 0.302568 -0.0290679 0.00274841 ) 13
( 0.313158 -0.0385746 0.0162779 ) 41
( 0.458183 -0.0850199 -0.0125423 ) 4
( 0.366305 -0.0471486 0.0242437 ) 34
( 0.3646 -0.0664976 0.0198773 ) 34
( 0.321713 -0.0438074 -0.000828253 ) 6
( 0.473168 -0.0488888 -0.00762925 ) 12
( 0.471772 -0.0294025 0.0248389 ) 46
( 0.479587 -0.0884599 0.0394554 ) 29
( 0.310975 -0.041995 0.0354746 ) 41
( 0.358263 -0.0640455 -0.00605862 ) 7
( 0.458939 -0.0651256 -0.0136911 ) 11
( 0.365543 -0.0900536 0.0118555 ) 1
( 0.332638 -0.0747216 0.0206836 ) 23
( 0.453789 -0.0472822 0.0321732 ) 37
( 0.291008 -0.0718378 0.0280801 ) 22
( 0.341176 -0.0384634 0.00283456 ) 15
( 0.472907 -0.0900618 -0.000564014 ) 5
( 0.490894 -0.0542756 -0.0114798 ) 12
( 0.316081 -0.0224342 0.0280317 ) 41
( 0.410499 -0.0901403 0.0279247 ) 26
( 0.411124 -0.0393402 0.00141532 ) 17
( 0.433007 -0.0603343 0.00494252 ) 10
( 0.489587 -0.0631244 0.0313675 ) 38
( 0.393556 -0.04546 0.00792607 ) 9
( 0.380796 -0.0749663 0.0276319 ) 25
( 0.47313 -0.0443006 0.0118723 ) 12
( 0.339399 -0.0294968 0.0232472 ) 42
( 0.461269 -0.0761925 0.0172425 ) 28
( 0.374624 -0.0346502 0.00734163 ) 16
( 0.268954 -0.0900627 0.0190188 ) 21
( 0.489926 -0.0900076 -0.0120046 ) 5
( 0.438391 -0.0440341 -0.00613308 ) 10
( 0.316251 -0.0901259 0.0302889 ) 23
( 0.378854 -0.0901176 -0.0130651 ) 1
( 0.293088 -0.044263 0.0270466 ) 31
( 0.40631 -0.0869657 0.00909173 ) 2
( 0.41728 -0.0710238 -0.000303982 ) 10
( 0.37339 -0.0405881 0.0416347 ) 43
( 0.452908 -0.0904554 0.0274556 ) 28
( 0.472682 -0.0452576 0.0363054 ) 38
( 0.273743 0.00490693 0.0288266 ) 48
( 0.491036 -0.0816986 0.025723 ) 29
( 0.437745 -0.0363773 0.0299589 ) 45
( 0.49044 -0.0901339 0.00789279 ) 5
( 0.341683 -0.0440539 0.0523759 ) 62
( 0.32265 -0.0609924 0.0518866 ) 61
( 0.28213 -0.0108898 0.0551372 ) 78
( 0.267129 -0.0899649 0.0394285 ) 21
( 0.382893 -0.0241404 0.0468051 ) 72
( 0.398192 -0.0905007 0.052049 ) 55
( 0.423261 -0.0351646 0.0571828 ) 74
( 0.347877 -0.0707516 0.0552204 ) 62
( 0.340507 -0.0903485 0.0570193 ) 53
( 0.489779 -0.0339965 -0.0125427 ) 20
( 0.296363 0.00147176 0.048366 ) 78
( 0.289464 -0.0247755 0.0432441 ) 69
( 0.327654 -0.00948499 0.0488994 ) 79
( 0.485103 -0.0234252 0.0484569 ) 76
( 0.271748 -0.0729579 0.0575688 ) 50
( 0.387164 -0.055397 0.0522449 ) 63
( 0.43934 -0.068548 0.0540116 ) 65
( 0.265412 -0.0536716 0.0519322 ) 59
( 0.461573 -0.0904521 0.0454268 ) 57
( 0.454248 -0.0170759 0.0576633 ) 75
( 0.490385 -0.0902824 0.0771898 ) 89
( 0.312431 -0.0419112 0.0678888 ) 70
( 0.299007 -0.0581678 0.0590824 ) 60
( 0.362242 -0.0342528 0.0567592 ) 72
( 0.374727 -0.0902922 0.0582606 ) 54
( 0.420636 -0.0739076 0.0571565 ) 56
( 0.370887 -0.0561719 0.0634539 ) 63
( 0.456246 -0.0596613 0.0490479 ) 66
( 0.285063 -0.090175 0.0581348 ) 51
( 0.489745 -0.0551643 0.0589806 ) 67
( 0.326416 -0.0777248 0.0614453 ) 52
( 0.348507 0.0104921 0.0617997 ) 80
( 0.438572 -0.0481324 0.0575652 ) 65
( 0.471336 -0.073406 0.0600531 ) 57
( 0.431433 -0.0901169 0.0611602 ) 56
( 0.335395 -0.0241919 0.0598229 ) 71
( 0.462297 -0.0356309 0.068412 ) 75
( 0.283939 -0.0297819 0.06161 ) 69
( 0.401131 -0.0432067 0.0581021 ) 64
( 0.368369 -0.0153412 0.0572666 ) 72
( 0.323885 0.00747018 0.0590715 ) 79
( 0.283769 0.00667293 0.0638741 ) 78
( 0.386688 -0.0748028 0.0528708 ) 54
( 0.434656 -0.0199477 0.0630974 ) 74
( 0.310458 -0.0258661 0.0467388 ) 70
( 0.33547 -0.0570122 0.0662067 ) 62
( 0.380639 -0.0388672 0.060084 ) 72
( 0.2557 -0.0205773 0.0425124 ) 39
( 0.254545 -0.0417273 0.0408546 ) 39
( 0.265698 -0.0221169 0.0594006 ) 68
( 0.402727 -0.0237472 0.0549693 ) 73
( 0.454986 -0.039846 0.0504917 ) 75
( 0.41747 -0.0902893 0.0467431 ) 56
( 0.310253 -0.00948898 0.057554 ) 79
( 0.367214 -0.0727352 0.0532251 ) 54
( 0.425412 -0.0572382 0.0466155 ) 65
( 0.33655 -0.070386 0.0393894 ) 33
( 0.359022 -0.0520099 0.0486978 ) 62
( 0.472285 -0.0687854 0.0408416 ) 38
( 0.255369 -0.0756455 0.0469344 ) 50
( 0.374011 -0.0600233 0.0384003 ) 34
( 0.296745 -0.0418537 0.0489289 ) 69
( 0.355532 -0.0877626 0.0704463 ) 53
( 0.42088 -0.052949 0.0654712 ) 65
( 0.260567 0.0139192 0.0399572 ) 48
( 0.297702 -0.0256842 0.0215184 ) 40
( 0.299448 -0.0901388 0.0441198 ) 51
( 0.46589 -0.0248452 0.04345 ) 75
( 0.353791 -0.00777554 0.0729062 ) 111
( 0.406544 -0.0618761 0.0505358 ) 64
( 0.412237 -0.0438305 0.041979 ) 35
( 0.434341 -0.0723244 0.0352828 ) 27
( 0.272136 -0.0695944 0.0381807 ) 30
( 0.317555 -0.070575 0.0351668 ) 32
( 0.473417 -0.0158464 0.0617221 ) 76
( 0.30796 -0.0741166 0.0518741 ) 52
( 0.490152 -0.073994 0.0479626 ) 58
( 0.380407 -0.090182 0.0399339 ) 25
( 0.490565 -0.0261535 0.0302221 ) 47
( 0.33795 0.00711401 0.0454285 ) 80
( 0.490639 -0.0418362 0.0443644 ) 76
( 0.348982 -0.0255214 0.0459244 ) 71
( 0.322492 -0.0412459 0.0514369 ) 70
( 0.288824 -0.0736723 0.0476588 ) 51
( 0.261908 -0.0901497 0.058565 ) 50
( 0.272004 -0.0335477 0.0439719 ) 68
( 0.412059 -0.089414 0.0659431 ) 55
( 0.402895 -0.0603527 0.0695562 ) 64
( 0.350123 -0.0416701 0.0344657 ) 42
( 0.398115 -0.0775644 0.037099 ) 26
( 0.393025 -0.0401139 0.0409737 ) 44
( 0.334412 -0.0900785 0.0381688 ) 24
( 0.484297 -0.090183 0.0585304 ) 58
( 0.280476 -0.0551386 0.0640987 ) 60
( 0.285007 -0.0903469 0.030754 ) 22
( 0.300438 -0.0114092 0.0345036 ) 49
( 0.41438 -0.0164386 0.0690247 ) 73
( 0.357871 -0.0901848 0.0482785 ) 53
( 0.392401 -0.0896373 0.0710549 ) 55
( 0.44227 -0.0878788 0.0446875 ) 56
( 0.490816 -0.0350857 0.0637961 ) 76
( 0.355363 -0.0469679 0.0723111 ) 93
( 0.415266 -0.0685796 0.0343489 ) 35
( 0.452292 -0.0818062 0.0599528 ) 57
( 0.407111 0.00550802 0.0731064 ) 113
( 0.302195 0.00739327 0.0290362 ) 49
( 0.316056 -0.0231868 0.0731766 ) 101
( 0.282083 -0.0527197 0.0412314 ) 31
( 0.395657 -0.0582868 0.0346639 ) 35
( 0.251326 -0.0601929 0.035637 ) 30
( 0.304521 -0.0901404 0.0636469 ) 51
( 0.294755 -0.0463469 0.0741242 ) 91
( 0.386604 -0.01942 0.0653834 ) 72
( 0.402135 -0.0236074 0.0353504 ) 44
( 0.474426 -0.0392315 0.0543467 ) 76
( 0.44119 -0.0252824 0.0454315 ) 74
( 0.355911 -0.0677212 0.0375113 ) 33
( 0.304131 0.0125431 0.0622196 ) 78
( 0.301408 -0.0597417 0.0397058 ) 31
( 0.272907 -0.0124582 0.0378596 ) 48
( 0.265615 -0.00164106 0.0646582 ) 77
( 0.335728 0.00856635 0.0762411 ) 111
( 0.4446 -0.0610206 0.0713471 ) 66
( 0.288783 -0.013003 0.0903625 ) 109
( 0.490043 -0.0730006 0.067715 ) 58
( 0.463052 -0.0567361 0.0669271 ) 66
( 0.380106 -0.0729463 0.0714909 ) 85
( 0.329037 -0.00861556 0.0697994 ) 79
( 0.443552 -0.0353725 0.071312 ) 74
( 0.341358 -0.0745349 0.073055 ) 84
( 0.419307 -0.0201195 0.0449205 ) 74
( 0.467022 -0.0905417 0.0689705 ) 57
( 0.347917 -0.00761598 0.0541485 ) 80
( 0.427173 -0.06918 0.075097 ) 96
( 0.318396 -0.0906669 0.0497624 ) 52
( 0.408781 -0.0349874 0.0732652 ) 104
( 0.385459 -0.0546177 0.0760919 ) 94
( 0.370797 -0.0280109 0.0734993 ) 103
( 0.251742 -0.014336 0.0712963 ) 68
( 0.335364 -0.0387374 0.0731024 ) 102
( 0.294414 -0.0272459 0.0782017 ) 100
( 0.478098 -0.0466003 0.0725129 ) 98
( 0.389837 -0.0350963 0.0766202 ) 104
( 0.373486 -0.00840362 0.0751063 ) 112
( 0.288906 -0.0730354 0.0672729 ) 51
( 0.425561 -0.0902239 0.0802317 ) 87
( 0.330323 -0.0271395 0.0405875 ) 41
( 0.267211 -0.0398413 0.0682254 ) 68
( 0.426524 -0.0298769 0.0780307 ) 105
( 0.312004 -0.000428811 0.0747448 ) 110
( 0.477411 -0.0272908 0.0770315 ) 107
( 0.312691 -0.0670198 0.0695083 ) 61
( 0.358888 -0.0897673 0.0902585 ) 84
( 0.351139 -0.0272555 0.072731 ) 102
( 0.398546 -0.0692496 0.0891796 ) 95
( 0.382964 0.00872432 0.0784576 ) 112
( 0.362212 -0.0642082 0.0796462 ) 94
( 0.277018 -0.014934 0.0738428 ) 99
( 0.398792 -0.017929 0.0807706 ) 104
( 0.295207 -0.00946857 0.0698319 ) 78
( 0.363937 0.00901655 0.0737349 ) 112
( 0.264147 -0.0622566 0.0720965 ) 90
( 0.327962 -0.0732587 0.0900787 ) 83
( 0.322022 -0.0893676 0.0798538 ) 83
( 0.431936 -0.050171 0.0816132 ) 96
( 0.406466 -0.0905345 0.0850426 ) 86
( 0.270883 -0.0903456 0.0759966 ) 81
( 0.37363 -0.0904689 0.0773352 ) 85
( 0.281437 -0.0626077 0.0823184 ) 91
( 0.375246 -0.0455374 0.0902682 ) 94
( 0.344806 -0.00707303 0.0903422 ) 111
( 0.459293 -0.0735683 0.0758795 ) 88
( 0.415713 0.000581835 0.0900586 ) 113
( 0.454808 -0.0473523 0.0821057 ) 97
( 0.287482 0.00566001 0.0843214 ) 109
( 0.386162 -0.00674346 0.0904549 ) 112
( 0.474129 -0.0822896 0.084761 ) 89
( 0.290501 -0.0900866 0.0774184 ) 82
( 0.380181 -0.0258338 0.0906076 ) 103
( 0.413996 -0.0571652 0.085449 ) 95
( 0.332684 -0.0215646 0.0840842 ) 101
( 0.35236 -0.0385965 0.0901229 ) 102
( 0.25113 -0.020462 0.0901732 ) 99
( 0.378854 -0.0665762 0.0902954 ) 94
( 0.447555 -0.019423 0.0823682 ) 106
( 0.438055 -0.0788252 0.0904228 ) 87
( 0.270251 0.0127795 0.0903919 ) 108
( 0.255967 0.00168819 0.0824412 ) 108
( 0.490433 -0.0396337 0.0859134 ) 107
( 0.47279 -0.063063 0.0900756 ) 98
( 0.339049 -0.0901105 0.09018 ) 84
( 0.307882 -0.0353634 0.0902282 ) 101
( 0.34008 -0.0542302 0.0900345 ) 93
( 0.26874 -0.0295225 0.0903488 ) 99
( 0.490376 -0.0588659 0.0815446 ) 98
( 0.395771 -0.0472241 0.0906552 ) 95
( 0.363734 -0.0011934 0.0904608 ) 112
( 0.414426 -0.0385727 0.0909957 ) 104
( 0.300305 -0.0732082 0.0830651 ) 82
( 0.268992 -0.0099335 0.0906655 ) 108
( 0.320125 -0.0554259 0.0830884 ) 92
( 0.279406 -0.0804007 0.0904466 ) 82
( 0.3987 0.0103388 0.0903062 ) 113
( 0.44469 -0.0902998 0.0758633 ) 88
( 0.325294 -0.00270957 0.0900753 ) 110
( 0.305234 -0.0903142 0.0905316 ) 82
( 0.347911 -0.0723951 0.0907853 ) 84
( 0.451115 -0.0643146 0.0906003 ) 97
( 0.471554 -0.0411527 0.0904117 ) 106
( 0.441802 -0.0358804 0.090844 ) 105
( 0.267816 -0.0486725 0.0859669 ) 90
( 0.30924 -0.0154161 0.0901427 ) 101
( 0.416124 -0.0190263 0.0906489 ) 104
( 0.386174 -0.085045 0.0906937 ) 85
( 0.490351 -0.0204992 0.0902975 ) 107
( 0.465328 -0.0224067 0.0909421 ) 106
( 0.285261 -0.0401116 0.0901853 ) 100
( 0.306063 0.00884498 0.0905743 ) 110
( 0.417382 -0.0755379 0.0906629 ) 87
( 0.490826 -0.0761881 0.0908179 ) 89
( 0.32723 -0.0391446 0.0907347 ) 101
( 0.457687 -0.0903198 0.0904649 ) 88
( 0.297627 -0.0555354 0.0907648 ) 91
( 0.264538 -0.0674738 0.0908037 ) 90
( 0.361021 -0.0207734 0.0901523 ) 102
)
