/*--------------------------------*- C++ -*----------------------------------*\
| =========                 |                                                 |
| \\      /  F ield         | OpenFOAM: The Open Source CFD Toolbox           |
|  \\    /   O peration     | Version:  4.x                                   |
|   \\  /    A nd           | Web:      www.OpenFOAM.org                      |
|    \\/     M anipulation  |                                                 |
\*---------------------------------------------------------------------------*/
FoamFile
{
    version     2.0;
    format      ascii;
    class       volScalarField;
    location    "55";
    object      p;
}
// * * * * * * * * * * * * * * * * * * * * * * * * * * * * * * * * * * * * * //

dimensions      [1 -1 -2 0 0 0 0];

internalField   nonuniform List<scalar> 
132
(
5742.75
5726.47
5737.16
5706.54
5727.87
5689.62
5721.57
5671.31
5714.96
5742.79
5726.12
5736.17
5707.68
5728.44
5689.63
5721.68
5671.11
5715.02
5743.05
5726.23
5736.3
5708.28
5729.14
5690.01
5722.22
5671.71
5715.51
5742.87
5725.92
5736.11
3865.48
3848.67
3858.8
3830.11
3851.04
3812.02
3844.27
3793.66
3837.57
3865.7
3848.57
3858.85
3830.39
3851.45
3812.03
3844.49
3793.45
3837.68
3866.11
3848.78
3859.28
3830.79
3852.13
3812.44
3845.08
3793.85
3838.17
3865.92
3848.42
3859.02
3830.61
3851.87
1987.94
1970.7
1980.89
1952.65
1973.46
1934.31
1966.33
1915.67
1959.45
1988.3
1970.79
1981.22
1952.76
1973.81
1934.28
1966.59
1915.48
1959.52
1988.86
1971.16
1981.87
1953.21
1974.43
1934.73
1967.02
1916.17
1959.92
1988.88
1971.09
1981.82
1953.1
1974.34
1934.56
1966.88
110.564
93.2543
103.599
75.3384
96.3712
57.0811
89.1473
38.7759
82.3196
111.045
93.4387
104.002
75.4008
96.6749
57.1497
89.4296
38.6083
82.3745
111.649
93.9674
104.707
76.0171
97.2715
57.8944
89.5996
39.9317
82.1587
111.476
93.7063
104.376
75.5469
96.7892
57.2228
89.2603
38.6465
82.2034
)
;

boundaryField
{
    inlet
    {
        type            calculated;
        value           nonuniform List<scalar> 
16
(
5742.75
5742.79
5743.05
5742.87
3865.48
3865.7
3866.11
3865.92
1987.94
1988.3
1988.86
1988.88
110.564
111.045
111.649
111.476
)
;
    }
    outlet
    {
        type            calculated;
        value           nonuniform 0();
    }
    wall
    {
        type            calculated;
        value           nonuniform List<scalar> 
66
(
6681.71
6681.75
6682.01
6681.83
6665.43
6665.08
6665.18
6664.88
6676.12
6675.12
6675.26
6675.07
6645.5
6646.64
6647.24
6666.83
6667.39
6668.09
6628.58
6628.58
6628.97
6660.53
6660.64
6661.17
6610.26
6610.07
6610.67
6653.89
6653.98
6654.46
5742.75
3865.48
1987.94
110.564
5726.47
3848.67
1970.7
93.2543
5737.16
3858.8
1980.89
103.599
5706.54
3830.11
1952.65
75.3384
5727.87
3851.04
1973.46
96.3712
5689.62
3812.02
1934.31
57.0811
5721.57
3844.27
1966.33
89.1473
5671.31
3793.66
1915.67
38.7759
5714.96
3837.57
1959.45
82.3196
)
;
    }
    procBoundary0to1
    {
        type            processor;
        value           nonuniform List<scalar> 
12
(
5652.62
5652.15
5652.98
3774.99
3774.61
3775.4
1896.9
1896.41
1897.94
20.4403
20.1978
22.3991
)
;
    }
    procBoundary0to2
    {
        type            processor;
        value           nonuniform List<scalar> 
44
(
5708.19
5728.96
5689.79
5721.96
5671.09
5715.24
5743.09
5726.05
5708.19
5736.39
5708.19
5728.96
3812.04
3844.6
3793.14
3837.69
3866.04
3848.67
3859.29
3830.76
3812.04
3852.22
3812.04
3844.6
1915.81
1959.77
1989
1971.26
1982.11
1953.52
1974.79
1935.45
1915.81
1967.34
1915.81
1959.77
111.671
93.8097
104.543
75.7342
97.098
57.5169
89.6401
39.2436
)
;
    }
    procBoundary0to4
    {
        type            processor;
        value           nonuniform List<scalar> 
36
(
-1767.2
-1784.64
-1774.31
-1802.54
-1781.71
-1820.8
-1789.04
-1839.38
-1796.16
-1766.63
-1784.42
-1773.79
-1802.39
-1781.33
-1820.8
-1788.76
-1839.32
-1795.88
-1766
-1783.94
-1773.24
-1801.88
-1780.9
-1820.12
-1788.43
-1838.35
-1795.82
-1766.02
-1783.89
-1773.2
-1801.86
-1780.78
-1820.16
-1788.42
-1838.66
-1795.87
)
;
    }
    procBoundary0to6
    {
        type            processor;
        value           uniform 82.3075;
    }
    procBoundary0to7
    {
        type            processor;
        value           uniform 20.6399;
    }
}


// ************************************************************************* //
