/*--------------------------------*- C++ -*----------------------------------*\
| =========                 |                                                 |
| \\      /  F ield         | OpenFOAM: The Open Source CFD Toolbox           |
|  \\    /   O peration     | Version:  4.x                                   |
|   \\  /    A nd           | Web:      www.OpenFOAM.org                      |
|    \\/     M anipulation  |                                                 |
\*---------------------------------------------------------------------------*/
FoamFile
{
    version     2.0;
    format      ascii;
    class       volScalarField;
    location    "55";
    object      particleRelTemp;
}
// * * * * * * * * * * * * * * * * * * * * * * * * * * * * * * * * * * * * * //

dimensions      [0 0 0 0 0 0 0];

internalField   nonuniform List<scalar> 
132
(
3.43391e-09
5.25498e-09
6.68481e-09
1.14394e-08
2.01155e-08
4.00089e-08
7.32544e-08
1.2734e-07
6.08022e-08
3.02251e-09
4.8722e-09
6.32424e-09
9.02851e-09
1.40706e-08
3.04009e-08
6.1143e-08
9.33223e-08
7.26047e-08
3.45758e-09
4.23723e-09
4.44805e-09
6.32332e-09
9.75864e-09
1.95068e-08
4.17933e-08
5.06154e-08
5.98881e-08
2.34445e-09
3.7866e-09
3.55891e-09
3.08671e-09
5.04317e-09
6.13736e-09
9.65856e-09
1.63464e-08
3.37379e-08
6.73471e-08
9.64341e-08
6.35373e-08
2.11288e-09
4.44507e-09
5.04451e-09
7.38536e-09
1.41269e-08
2.48974e-08
5.05203e-08
6.78438e-08
5.27105e-08
1.58781e-09
3.88133e-09
3.80568e-09
4.7907e-09
8.13414e-09
1.59223e-08
3.1588e-08
3.90799e-08
4.13249e-08
1.79894e-09
3.24428e-09
2.93143e-09
3.09965e-09
3.63211e-09
2.61937e-09
4.14343e-09
4.43513e-09
6.10878e-09
9.5806e-09
1.79073e-08
3.1272e-08
4.56936e-08
2.9868e-08
1.97816e-09
3.61382e-09
3.66538e-09
4.30483e-09
7.95599e-09
1.67592e-08
2.83363e-08
3.0757e-08
1.83513e-08
1.16317e-09
3.10898e-09
2.89277e-09
2.61266e-09
4.12629e-09
7.46652e-09
1.18535e-08
1.00143e-08
1.00275e-08
1.19532e-09
2.6878e-09
2.10678e-09
1.45724e-09
1.67381e-09
2.43703e-09
3.0006e-09
1.95525e-09
3.32966e-09
3.22943e-09
3.1901e-09
4.97096e-09
7.9279e-09
1.04119e-08
1.64417e-08
7.15573e-09
1.38074e-09
2.84414e-09
2.48067e-09
2.48638e-09
3.43697e-09
4.9665e-09
6.1823e-09
5.90959e-09
-2.2091e-09
1.84576e-09
2.44004e-09
1.87159e-09
7.1e-10
1.44072e-09
1.79733e-09
1.36797e-09
-4.24941e-10
-9.13427e-09
8.87032e-10
2.19324e-09
1.2814e-09
-3.3746e-10
-8.18439e-10
-3.92289e-10
-7.51112e-10
-2.79703e-09
-5.97766e-09
)
;

boundaryField
{
    inlet
    {
        type            calculated;
        value           nonuniform List<scalar> 
16
(
3.43391e-09
3.02251e-09
3.45758e-09
2.34445e-09
3.08671e-09
2.11288e-09
1.58781e-09
1.79894e-09
2.61937e-09
1.97816e-09
1.16317e-09
1.19532e-09
1.95525e-09
1.38074e-09
1.84576e-09
8.87032e-10
)
;
    }
    outlet
    {
        type            calculated;
        value           nonuniform 0();
    }
    wall
    {
        type            calculated;
        value           nonuniform List<scalar> 
66
(
3.43391e-09
3.02251e-09
3.45758e-09
2.34445e-09
5.25498e-09
4.8722e-09
4.23723e-09
3.7866e-09
6.68481e-09
6.32424e-09
4.44805e-09
3.55891e-09
1.14394e-08
9.02851e-09
6.32332e-09
2.01155e-08
1.40706e-08
9.75864e-09
4.00089e-08
3.04009e-08
1.95068e-08
7.32544e-08
6.1143e-08
4.17933e-08
1.2734e-07
9.33223e-08
5.06154e-08
6.08022e-08
7.26047e-08
5.98881e-08
3.43391e-09
3.08671e-09
2.61937e-09
1.95525e-09
5.25498e-09
5.04317e-09
4.14343e-09
3.32966e-09
6.68481e-09
6.13736e-09
4.43513e-09
3.22943e-09
1.14394e-08
9.65856e-09
6.10878e-09
3.1901e-09
2.01155e-08
1.63464e-08
9.5806e-09
4.97096e-09
4.00089e-08
3.37379e-08
1.79073e-08
7.9279e-09
7.32544e-08
6.73471e-08
3.1272e-08
1.04119e-08
1.2734e-07
9.64341e-08
4.56936e-08
1.64417e-08
6.08022e-08
6.35373e-08
2.9868e-08
7.15573e-09
)
;
    }
    procBoundary0to1
    {
        type            processor;
        value           nonuniform List<scalar> 
12
(
-7.51142e-08
-2.38655e-11
1.95684e-08
-1.5991e-08
-6.77779e-09
1.59813e-08
-6.06279e-09
-1.40014e-08
-1.38704e-08
-5.7405e-09
-1.32731e-08
-2.18092e-08
)
;
    }
    procBoundary0to2
    {
        type            processor;
        value           nonuniform List<scalar> 
44
(
3.73117e-09
6.56041e-09
8.74967e-09
1.74796e-08
2.56713e-08
2.54951e-08
2.05576e-09
3.18076e-09
3.73117e-09
2.79868e-09
3.73117e-09
6.56041e-09
8.15325e-09
1.20263e-08
1.66325e-08
1.73727e-08
1.1382e-09
2.94292e-09
2.75776e-09
2.31864e-09
8.15325e-09
2.0966e-09
8.15325e-09
1.20263e-08
4.93296e-09
1.6328e-09
1.0339e-09
2.40394e-09
1.94948e-09
1.29567e-09
9.18145e-10
8.59893e-10
4.93296e-09
9.74872e-10
4.93296e-09
1.6328e-09
8.93247e-10
1.45873e-09
6.21862e-10
-9.60368e-10
-1.01312e-09
-1.03664e-09
-6.6324e-10
-2.00379e-09
)
;
    }
    procBoundary0to4
    {
        type            processor;
        value           nonuniform List<scalar> 
36
(
1.46037e-09
2.63925e-09
2.07535e-09
1.59601e-09
1.82021e-09
2.15016e-09
2.57447e-09
6.60422e-10
-3.10893e-09
9.79921e-10
2.0948e-09
1.61756e-09
9.73328e-10
8.78446e-10
1.1311e-09
9.42694e-10
-1.76564e-09
-6.19372e-09
7.81489e-10
1.86534e-09
9.54299e-10
-2.82187e-11
-5.35972e-10
-9.40642e-10
-1.83038e-09
-3.98651e-09
-8.74408e-09
4.41537e-10
1.48611e-09
3.40378e-10
-8.08352e-10
-1.36954e-09
-1.72395e-09
-2.45904e-09
-4.15502e-09
-8.14225e-09
)
;
    }
    procBoundary0to6
    {
        type            processor;
        value           uniform -4.22877e-09;
    }
    procBoundary0to7
    {
        type            processor;
        value           uniform -1.40872e-08;
    }
}


// ************************************************************************* //
