/*--------------------------------*- C++ -*----------------------------------*\
| =========                 |                                                 |
| \\      /  F ield         | OpenFOAM: The Open Source CFD Toolbox           |
|  \\    /   O peration     | Version:  4.x                                   |
|   \\  /    A nd           | Web:      www.OpenFOAM.org                      |
|    \\/     M anipulation  |                                                 |
\*---------------------------------------------------------------------------*/
FoamFile
{
    version     2.0;
    format      ascii;
    class       volScalarField;
    location    "55";
    object      QPartFluidCoeff;
}
// * * * * * * * * * * * * * * * * * * * * * * * * * * * * * * * * * * * * * //

dimensions      [1 -1 -3 -1 0 0 0];

internalField   nonuniform List<scalar> 
132
(
-1.72705e+07
-1.4194e+07
-1.23218e+07
-9.87983e+06
-1.43899e+07
-1.49579e+07
-1.95807e+07
-1.31396e+07
-1.52887e+07
-1.5491e+07
-1.7011e+07
-1.8409e+07
-1.86541e+07
-1.27942e+07
-2.23825e+07
-1.7711e+07
-1.93141e+07
-1.74912e+07
-1.03831e+07
-1.95835e+07
-1.91465e+07
-1.68908e+07
-1.85394e+07
-1.63075e+07
-1.32656e+07
-1.72418e+07
-2.83513e+07
-9.91813e+06
-1.51152e+07
-1.16913e+07
-1.42146e+07
-2.32561e+07
-2.87767e+07
-2.52488e+07
-2.58063e+07
-2.53344e+07
-2.37232e+07
-2.25927e+07
-2.4515e+07
-1.65981e+07
-3.15329e+07
-2.67064e+07
-2.83397e+07
-3.19921e+07
-2.87198e+07
-3.06585e+07
-3.06654e+07
-3.0236e+07
-1.76624e+07
-3.15077e+07
-2.80208e+07
-2.51063e+07
-3.02361e+07
-2.24824e+07
-3.50484e+07
-2.30004e+07
-2.1161e+07
-2.65305e+07
-2.34714e+07
-2.59704e+07
-1.83755e+07
-3.7705e+07
-1.86094e+07
-2.32498e+07
-2.71114e+07
-2.32441e+07
-2.49598e+07
-1.89128e+07
-2.68532e+07
-2.35634e+07
-1.80628e+07
-2.08164e+07
-2.76131e+07
-2.66192e+07
-2.30873e+07
-3.09178e+07
-2.24028e+07
-3.15006e+07
-3.3966e+07
-3.35031e+07
-2.2355e+07
-2.40294e+07
-2.69629e+07
-3.1009e+07
-3.27513e+07
-2.6919e+07
-3.06564e+07
-2.14273e+07
-1.79866e+07
-2.30059e+07
-2.89158e+07
-3.18981e+07
-3.00178e+07
-3.32401e+07
-2.68205e+07
-2.9255e+07
-1.45033e+07
-1.66414e+07
-2.25506e+07
-1.72984e+07
-2.36006e+07
-2.59192e+07
-1.96642e+07
-1.44353e+07
-2.01335e+07
-1.71137e+07
-3.19957e+07
-3.02975e+07
-2.69502e+07
-2.39878e+07
-2.20895e+07
-3.47456e+07
-2.39426e+07
-2.30943e+07
-1.7288e+07
-1.86274e+07
-3.01642e+07
-2.0358e+07
-2.89772e+07
-2.80534e+07
-2.74649e+07
-1.65227e+07
-3.11327e+07
-1.60906e+07
-2.24729e+07
-3.27966e+07
-3.41847e+07
-1.84106e+07
-3.29462e+07
-2.86346e+07
-1.87412e+07
-8.75767e+06
)
;

boundaryField
{
    inlet
    {
        type            calculated;
        value           uniform 0;
    }
    outlet
    {
        type            calculated;
        value           nonuniform 0();
    }
    wall
    {
        type            calculated;
        value           uniform 0;
    }
    procBoundary0to1
    {
        type            processor;
        value           nonuniform List<scalar> 
12
(
138.702
342.225
298.292
553.658
688.133
679.487
537.395
496.733
619.881
488.88
593.871
446.218
)
;
    }
    procBoundary0to2
    {
        type            processor;
        value           nonuniform List<scalar> 
44
(
539.586
422.663
230.835
451.391
274.875
347.278
439.379
524.109
539.586
463.297
539.586
422.663
744.647
929.682
500.251
849.059
357.53
600.108
724.743
693.471
744.647
670.756
744.647
929.682
611.208
703.901
518.36
433.485
509.527
517.732
509.842
578.16
611.208
741.224
611.208
703.901
370.045
717.386
778.415
541.427
622.636
475.195
573.444
570.986
)
;
    }
    procBoundary0to4
    {
        type            processor;
        value           nonuniform List<scalar> 
36
(
371.983
537.762
636.7
452.398
540.803
453.495
675.826
520.038
729.619
530.317
552.088
709.442
759.494
764.538
650.095
615.344
437.47
839.836
505.358
777.33
628.433
709.377
614.285
477.516
552.603
779.61
509.392
261.439
509.436
710.88
432.983
666.813
508.109
835.845
456.582
535.527
)
;
    }
    procBoundary0to6
    {
        type            processor;
        value           uniform 613.572;
    }
    procBoundary0to7
    {
        type            processor;
        value           uniform 771.706;
    }
}


// ************************************************************************* //
