/*--------------------------------*- C++ -*----------------------------------*\
| =========                 |                                                 |
| \\      /  F ield         | OpenFOAM: The Open Source CFD Toolbox           |
|  \\    /   O peration     | Version:  4.x                                   |
|   \\  /    A nd           | Web:      www.OpenFOAM.org                      |
|    \\/     M anipulation  |                                                 |
\*---------------------------------------------------------------------------*/
FoamFile
{
    version     2.0;
    format      ascii;
    class       volScalarField;
    location    "7.5";
    object      Cs;
}
// * * * * * * * * * * * * * * * * * * * * * * * * * * * * * * * * * * * * * //

dimensions      [1 -3 0 0 0 0 0];

internalField   nonuniform List<scalar> 
132
(
334.996
334.982
334.952
334.903
334.832
334.745
334.648
334.557
334.49
334.997
334.983
334.95
334.893
334.808
334.706
334.604
334.529
334.517
334.997
334.982
334.943
334.874
334.772
334.659
334.573
334.552
334.612
334.997
334.982
334.941
334.998
334.989
334.967
334.924
334.86
334.784
334.705
334.638
334.593
334.998
334.988
334.96
334.906
334.831
334.755
334.7
334.696
334.74
334.998
334.987
334.953
334.888
334.805
334.742
334.716
334.758
334.835
334.998
334.986
334.949
334.876
334.788
334.999
334.993
334.977
334.948
334.902
334.848
334.789
334.741
334.705
334.999
334.992
334.972
334.933
334.881
334.836
334.808
334.822
334.865
334.999
334.991
334.968
334.922
334.868
334.832
334.825
334.861
334.919
334.999
334.991
334.966
334.918
334.861
334.826
334.817
334.999
334.996
334.987
334.971
334.945
334.914
334.877
334.845
334.817
334.999
334.995
334.983
334.96
334.93
334.904
334.889
334.9
334.93
334.999
334.994
334.98
334.952
334.919
334.897
334.894
334.917
334.957
334.999
334.994
334.977
334.946
334.909
334.885
334.878
334.894
334.926
)
;

boundaryField
{
    inlet
    {
        type            calculated;
        value           uniform 335;
    }
    outlet
    {
        type            calculated;
        value           nonuniform 0();
    }
    wall
    {
        type            calculated;
        value           nonuniform List<scalar> 
66
(
334.996
334.997
334.997
334.997
334.982
334.983
334.982
334.982
334.952
334.95
334.943
334.941
334.903
334.893
334.874
334.832
334.808
334.772
334.745
334.706
334.659
334.648
334.604
334.573
334.557
334.529
334.552
334.49
334.517
334.612
334.996
334.998
334.999
334.999
334.982
334.989
334.993
334.996
334.952
334.967
334.977
334.987
334.903
334.924
334.948
334.971
334.832
334.86
334.902
334.945
334.745
334.784
334.848
334.914
334.648
334.705
334.789
334.877
334.557
334.638
334.741
334.845
334.49
334.593
334.705
334.817
)
;
    }
    procBoundary0to1
    {
        type            processor;
        value           nonuniform List<scalar> 
12
(
334.459
334.574
334.738
334.578
334.836
334.937
334.695
334.937
334.989
334.805
334.979
335.007
)
;
    }
    procBoundary0to2
    {
        type            processor;
        value           nonuniform List<scalar> 
44
(
334.866
334.759
334.643
334.57
334.575
334.655
334.997
334.982
334.866
334.944
334.866
334.759
334.725
334.702
334.745
334.82
334.998
334.988
334.957
334.893
334.725
334.808
334.725
334.702
334.847
334.895
334.999
334.992
334.972
334.931
334.877
334.839
334.847
334.824
334.847
334.895
334.999
334.995
334.983
334.959
334.93
334.908
334.902
334.919
)
;
    }
    procBoundary0to4
    {
        type            processor;
        value           nonuniform List<scalar> 
36
(
335
334.997
334.99
334.978
334.96
334.94
334.918
334.901
334.886
334.999
334.996
334.986
334.966
334.942
334.925
334.923
334.943
334.986
334.999
334.996
334.984
334.963
334.937
334.921
334.922
334.944
334.981
334.999
334.996
334.984
334.961
334.934
334.917
334.916
334.937
334.973
)
;
    }
    procBoundary0to6
    {
        type            processor;
        value           uniform 334.952;
    }
    procBoundary0to7
    {
        type            processor;
        value           uniform 334.968;
    }
}


// ************************************************************************* //
