/*--------------------------------*- C++ -*----------------------------------*\
| =========                 |                                                 |
| \\      /  F ield         | OpenFOAM: The Open Source CFD Toolbox           |
|  \\    /   O peration     | Version:  4.x                                   |
|   \\  /    A nd           | Web:      www.OpenFOAM.org                      |
|    \\/     M anipulation  |                                                 |
\*---------------------------------------------------------------------------*/
FoamFile
{
    version     2.0;
    format      ascii;
    class       volScalarField;
    location    "41.5";
    object      KslPrev;
}
// * * * * * * * * * * * * * * * * * * * * * * * * * * * * * * * * * * * * * //

dimensions      [1 -3 -1 0 0 0 0];

internalField   nonuniform List<scalar> 
87
(
3802.47
14215.2
3528.41
3236.27
6783.79
3155.28
3568.81
12504.2
3840.4
26434.6
3960.55
119588
3986.63
1e+10
3958.9
3480.21
10771.7
3673.94
15492
3769.33
25105
3802.52
61174
3797.29
3366.36
8141.23
3384.57
7924.45
3411.9
8175.81
3393.82
8481.3
3384.84
3508.82
10713.6
3696.13
15252
3744.73
23897.6
3775.83
48401.6
3744.19
3433.53
9162.9
3557.46
10145
3588.11
11335.8
3614.54
13454.3
3573.4
3353.4
7573.35
3294.87
6968.74
3261.62
6676.84
3221.82
6547.05
3163.49
3421.29
8114.68
3450.17
8105.18
3407.47
8122.01
3396.94
8430.58
3312.23
3364.18
7582.04
3337.1
7064.57
3284.06
6773.2
3251.46
6697.48
3174.42
3310.81
6984.05
3192.03
6017
3059.24
5474.43
3006.1
5216.55
2950.96
)
;

boundaryField
{
    inlet
    {
        type            zeroGradient;
    }
    outlet
    {
        type            zeroGradient;
    }
    wall
    {
        type            zeroGradient;
    }
    procBoundary6to0
    {
        type            processor;
        value           uniform 0;
    }
    procBoundary6to2
    {
        type            processor;
        value           uniform 0;
    }
    procBoundary6to4
    {
        type            processor;
        value           uniform 0;
    }
    procBoundary6to7
    {
        type            processor;
        value           uniform 0;
    }
}


// ************************************************************************* //
