/*--------------------------------*- C++ -*----------------------------------*\
| =========                 |                                                 |
| \\      /  F ield         | OpenFOAM: The Open Source CFD Toolbox           |
|  \\    /   O peration     | Version:  4.x                                   |
|   \\  /    A nd           | Web:      www.OpenFOAM.org                      |
|    \\/     M anipulation  |                                                 |
\*---------------------------------------------------------------------------*/
FoamFile
{
    version     2.0;
    format      ascii;
    class       volScalarField;
    location    "41.5";
    object      particleRelTemp;
}
// * * * * * * * * * * * * * * * * * * * * * * * * * * * * * * * * * * * * * //

dimensions      [0 0 0 0 0 0 0];

internalField   nonuniform List<scalar> 
87
(
-4.34663e-13
-2.36462e-11
-7.94275e-12
-3.96434e-11
-2.96627e-11
-2.0779e-11
-6.98906e-11
-6.57398e-11
-5.9613e-11
-5.18284e-11
-4.32001e-11
-3.42325e-11
-2.62116e-11
-1.51337e-11
-8.03387e-14
-7.01631e-11
-6.73283e-11
-6.22458e-11
-5.52839e-11
-4.88187e-11
-4.06717e-11
-3.06239e-11
-2.39197e-11
-1.00862e-11
-7.12163e-11
-6.80264e-11
-6.44076e-11
-5.78961e-11
-5.29173e-11
-4.50782e-11
-3.84313e-11
-3.16771e-11
-1.8887e-11
-7.05615e-11
-6.64159e-11
-6.18472e-11
-5.51994e-11
-4.80365e-11
-3.96465e-11
-3.08302e-11
-2.07214e-11
-9.25167e-12
-7.08794e-11
-6.77443e-11
-6.39457e-11
-5.77137e-11
-5.26087e-11
-4.40611e-11
-3.6507e-11
-3.03032e-11
-1.61978e-11
-7.1399e-11
-6.86366e-11
-6.47817e-11
-6.08299e-11
-5.5067e-11
-4.99974e-11
-4.42627e-11
-3.68307e-11
-2.82243e-11
-7.09248e-11
-6.80989e-11
-6.36739e-11
-5.79942e-11
-5.22756e-11
-4.32759e-11
-3.55666e-11
-2.75865e-11
-2.29898e-11
-7.11008e-11
-6.91245e-11
-6.54422e-11
-6.07094e-11
-5.49138e-11
-4.84278e-11
-4.18134e-11
-3.49888e-11
-2.65356e-11
-7.19679e-11
-6.90919e-11
-6.65361e-11
-6.2858e-11
-5.90182e-11
-5.28808e-11
-5.00513e-11
-4.56724e-11
-3.58757e-11
)
;

boundaryField
{
    inlet
    {
        type            calculated;
        value           nonuniform List<scalar> 9(-6.98906e-11 -7.01631e-11 -7.12163e-11 -7.05615e-11 -7.08794e-11 -7.1399e-11 -7.09248e-11 -7.11008e-11 -7.19679e-11);
    }
    outlet
    {
        type            calculated;
        value           nonuniform 0();
    }
    wall
    {
        type            calculated;
        value           nonuniform List<scalar> 
57
(
-7.09248e-11
-7.11008e-11
-7.19679e-11
-6.80989e-11
-6.91245e-11
-6.90919e-11
-6.36739e-11
-6.54422e-11
-6.65361e-11
-5.79942e-11
-6.07094e-11
-6.2858e-11
-5.22756e-11
-5.49138e-11
-5.90182e-11
-4.32759e-11
-4.84278e-11
-5.28808e-11
-3.55666e-11
-4.18134e-11
-5.00513e-11
-2.75865e-11
-3.49888e-11
-4.56724e-11
-2.29898e-11
-2.65356e-11
-3.58757e-11
-7.12163e-11
-7.1399e-11
-7.19679e-11
-6.80264e-11
-6.86366e-11
-6.90919e-11
-6.44076e-11
-6.47817e-11
-6.65361e-11
-5.78961e-11
-6.08299e-11
-6.2858e-11
-5.29173e-11
-5.5067e-11
-5.90182e-11
-4.50782e-11
-4.99974e-11
-5.28808e-11
-3.96434e-11
-3.84313e-11
-4.42627e-11
-5.00513e-11
-2.96627e-11
-3.16771e-11
-3.68307e-11
-4.56724e-11
-2.0779e-11
-1.8887e-11
-2.82243e-11
-3.58757e-11
)
;
    }
    procBoundary6to0
    {
        type            processor;
        value           uniform 2.50035e-12;
    }
    procBoundary6to2
    {
        type            processor;
        value           nonuniform List<scalar> 
32
(
-8.89793e-12
-2.54489e-11
-1.40647e-11
-4.1374e-11
-3.45437e-11
-2.5701e-11
-7.0106e-11
-6.51003e-11
-5.96947e-11
-5.36629e-11
-4.54889e-11
-3.4707e-11
-2.37284e-11
-7.95543e-12
-7.95543e-12
-7.95543e-12
-7.10282e-11
-6.67125e-11
-6.25894e-11
-5.56576e-11
-4.84025e-11
-3.98449e-11
-3.39205e-11
-3.39205e-11
-3.39205e-11
-7.14906e-11
-6.81517e-11
-6.36011e-11
-5.88458e-11
-5.28941e-11
-4.51771e-11
-4.51771e-11
)
;
    }
    procBoundary6to4
    {
        type            processor;
        value           nonuniform List<scalar> 
27
(
-7.03758e-11
-6.63161e-11
-5.98439e-11
-5.32033e-11
-4.28735e-11
-3.32065e-11
-2.05826e-11
-9.34544e-12
2.34241e-12
-7.05314e-11
-6.71238e-11
-6.11058e-11
-5.57096e-11
-4.67363e-11
-3.69627e-11
-2.78541e-11
-1.63698e-11
-5.41398e-12
-7.06434e-11
-6.76312e-11
-6.32567e-11
-5.68565e-11
-5.06163e-11
-4.28538e-11
-3.37667e-11
-2.38546e-11
-1.59674e-11
)
;
    }
    procBoundary6to7
    {
        type            processor;
        value           nonuniform List<scalar> 
12
(
1.54301e-11
6.86188e-12
-4.69922e-12
1.67454e-11
5.90856e-12
-6.83182e-12
2.16717e-12
-6.36027e-12
-1.85131e-11
-8.62049e-12
-1.81071e-11
-2.92637e-11
)
;
    }
}


// ************************************************************************* //
