/*--------------------------------*- C++ -*----------------------------------*\
| =========                 |                                                 |
| \\      /  F ield         | OpenFOAM: The Open Source CFD Toolbox           |
|  \\    /   O peration     | Version:  4.x                                   |
|   \\  /    A nd           | Web:      www.OpenFOAM.org                      |
|    \\/     M anipulation  |                                                 |
\*---------------------------------------------------------------------------*/
FoamFile
{
    version     2.0;
    format      ascii;
    class       volScalarField;
    location    "41.5";
    object      QWallFluid;
}
// * * * * * * * * * * * * * * * * * * * * * * * * * * * * * * * * * * * * * //

dimensions      [1 -1 -3 0 0 0 0];

internalField   nonuniform List<scalar> 
87
(
0
0
0
8.71498e+08
4.79716e+08
8.86874e+08
0
0
0
0
0
0
0
0
0
0
0
0
0
0
0
0
0
0
8.27726e+08
4.08766e+08
8.31958e+08
4.19672e+08
8.29315e+08
4.09396e+08
8.30709e+08
3.94825e+08
8.28225e+08
0
0
0
0
0
0
0
0
0
0
0
0
0
0
0
0
0
0
8.26175e+08
4.29344e+08
8.42529e+08
4.60376e+08
8.50555e+08
4.77651e+08
8.61623e+08
4.85525e+08
8.71796e+08
8.17204e+08
4.09325e+08
8.19399e+08
4.09366e+08
8.20692e+08
4.07145e+08
8.22415e+08
3.92024e+08
8.34225e+08
8.21635e+08
4.30099e+08
8.34546e+08
4.564e+08
8.43425e+08
4.71138e+08
8.53972e+08
4.75056e+08
8.62525e+08
1.65825e+09
9.08763e+08
1.71288e+09
1.02598e+09
1.76989e+09
1.10842e+09
1.81166e+09
1.15974e+09
1.83135e+09
)
;

boundaryField
{
    inlet
    {
        type            calculated;
        value           uniform 0;
    }
    outlet
    {
        type            calculated;
        value           nonuniform 0();
    }
    wall
    {
        type            calculated;
        value           uniform 0;
    }
    procBoundary6to0
    {
        type            processor;
        value           uniform 0;
    }
    procBoundary6to2
    {
        type            processor;
        value           nonuniform List<scalar> 
32
(
0
0
0
8.72659e+08
4.74327e+08
8.86454e+08
0
0
0
0
0
0
0
0
0
0
0
0
0
0
0
0
0
0
0
8.30171e+08
4.15592e+08
8.42498e+08
4.40742e+08
8.55999e+08
4.62337e+08
4.62337e+08
)
;
    }
    procBoundary6to4
    {
        type            processor;
        value           nonuniform List<scalar> 
27
(
0
0
0
0
0
0
0
0
0
0
0
0
0
0
0
0
0
0
8.084e+08
3.93324e+08
8.11769e+08
3.89625e+08
8.17105e+08
4.00686e+08
8.34202e+08
4.2596e+08
8.51889e+08
)
;
    }
    procBoundary6to7
    {
        type            processor;
        value           nonuniform List<scalar> 
12
(
0
0
4.79781e+08
0
0
3.53121e+08
0
0
4.85129e+08
3.77106e+08
4.69824e+08
1.15988e+09
)
;
    }
}


// ************************************************************************* //
