/*--------------------------------*- C++ -*----------------------------------*\
  =========                 |
  \\      /  F ield         | OpenFOAM: The Open Source CFD Toolbox
   \\    /   O peration     | Website:  https://openfoam.org
    \\  /    A nd           | Version:  4.x
     \\/     M anipulation  |
\*---------------------------------------------------------------------------*/
FoamFile
{
    version     2.0;
    format      ascii;
    class       Cloud<passiveParticle>;
    location    0;
    object      positions;
}
// * * * * * * * * * * * * * * * * * * * * * * * * * * * * * * * * * * * * * //

325
(
( 0.0388635 -0.0811908 0.0295147 ) 1
( 0.0913016 -0.0733739 0.0222728 ) 3
( 0.24419 -0.0297175 0.0296349 ) 26
( 0.104006 -0.0622821 0.0322518 ) 12
( 0.121197 -0.0409908 0.0239637 ) 22
( 0.0693469 -0.0265569 0.0234734 ) 20
( 0.0144264 -0.0313873 0.0343353 ) 18
( 0.0097944 -0.0204777 0.0185732 ) 18
( 0.229602 -0.0151979 0.0287503 ) 26
( 0.0184306 -0.0623021 0.0160032 ) 9
( 0.241458 -0.003951 0.0175738 ) 35
( 0.204788 -0.0421116 0.0147073 ) 25
( 0.179655 -0.0292526 0.0209932 ) 24
( 0.247166 -0.0513063 0.0183909 ) 17
( 0.23884 -0.0713634 0.025471 ) 17
( 0.126404 -0.0523797 0.0392802 ) 13
( 0.117986 -0.0744609 0.0484063 ) 40
( 0.0664866 -0.044968 0.0295673 ) 11
( 0.081708 -0.0413914 0.0177737 ) 20
( 0.138689 -0.00760654 0.0336409 ) 31
( 0.122564 -0.0694278 0.0297631 ) 13
( 0.169674 -0.0152752 0.0307823 ) 24
( 0.210705 -0.00902532 0.0295866 ) 34
( 0.123975 -0.0216664 0.0208806 ) 22
( 0.060854 -0.0900886 0.0331809 ) 2
( 0.201929 -0.0203273 0.0159661 ) 25
( 0.0345679 -0.0221361 0.0162383 ) 19
( 0.231709 -0.0462017 0.0298234 ) 17
( 0.0976237 -0.0114896 0.0331888 ) 30
( 0.197615 -0.0680051 0.0276085 ) 16
( 0.124016 -0.0284754 0.0393468 ) 22
( 0.077018 -0.00611069 0.0280781 ) 29
( 0.193306 -0.083591 0.0164894 ) 6
( 0.0536378 -0.0307126 0.0347738 ) 19
( 0.0763815 -0.0602099 0.0213588 ) 11
( 0.0506343 -0.0900311 0.0160974 ) 1
( 0.0599159 -0.0674062 0.0300243 ) 11
( 0.153224 -0.0452814 0.028715 ) 14
( 0.136501 -0.0531364 0.0221537 ) 13
( 0.180512 -0.0681176 0.01754 ) 15
( 0.0315657 -0.0621058 0.0307012 ) 10
( 0.0484797 -0.0108688 0.0249325 ) 28
( 0.0293509 -0.0417898 0.0235009 ) 19
( 0.0874712 -0.020379 0.018834 ) 21
( 0.139447 -0.0768747 0.0224069 ) 5
( 0.184105 -0.0540076 0.0308799 ) 15
( 0.140839 -0.0319192 0.0211236 ) 23
( 0.113484 -0.0820731 0.017303 ) 4
( 0.157476 -0.0838242 0.0271212 ) 5
( 0.0886626 -0.0435649 0.0384354 ) 12
( 0.0677999 -0.0791475 0.0163208 ) 2
( 0.106194 -0.0144832 0.0156064 ) 21
( 0.151114 -0.0227443 0.0355302 ) 23
( 0.189254 -0.00721991 0.0360992 ) 33
( 0.212 -0.0901749 0.016187 ) 7
( 0.0962072 -0.0548937 0.015613 ) 12
( 0.135678 -0.0050786 0.014507 ) 31
( 0.00980527 -0.0747255 0.028305 ) 0
( 0.184667 -0.0102494 0.0170789 ) 33
( 0.00973811 -0.0568918 0.0369873 ) 9
( 0.0815253 -0.0226474 0.0382767 ) 20
( 0.103531 -0.0901123 0.0325781 ) 3
( 0.0284119 -0.0174503 0.035374 ) 19
( 0.196391 -0.0317072 0.0311052 ) 25
( 0.0475545 -0.0370002 0.0172386 ) 19
( 0.216449 -0.0774668 0.0307477 ) 7
( 0.216728 -0.0300727 0.0251312 ) 25
( 0.164423 -0.0590791 0.0369531 ) 14
( 0.225338 -0.0573833 0.0148331 ) 17
( 0.0840184 -0.0628231 0.0392912 ) 12
( 0.0477846 -0.0508636 0.031085 ) 10
( 0.118786 -0.00366298 0.0265755 ) 31
( 0.175909 -0.0902568 0.0230205 ) 6
( 0.108648 -0.0442117 0.0386085 ) 12
( 0.0584106 -3.05743e-05 0.0383021 ) 29
( 0.153799 -0.0121954 0.0192996 ) 32
( 0.249193 -0.0872256 0.0176411 ) 8
( 0.228164 0.008224 0.0255689 ) 35
( 0.0659028 0.0126546 0.0236164 ) 29
( 0.188594 0.0101509 0.0261011 ) 33
( 0.0920801 0.00905629 0.0296259 ) 30
( 0.203696 0.00195518 0.0458793 ) 70
( 0.149345 0.00636429 0.0243438 ) 32
( 0.208513 0.010184 0.0272007 ) 34
( 0.170227 0.00453335 0.0314637 ) 33
( 0.0353644 0.00424006 0.040511 ) 28
( 0.21171 -0.0541106 0.0288427 ) 16
( 0.0194515 -0.0902648 0.0354853 ) 0
( 0.0992914 -0.0353875 0.0239058 ) 21
( 0.23048 -0.0903358 0.0232608 ) 8
( 0.0283365 -0.0901157 0.0153301 ) 1
( 0.0799491 -0.0877867 0.0289347 ) 2
( 0.158517 -0.0655697 0.0194305 ) 14
( 0.00962088 -0.000940256 0.0157377 ) 27
( 0.009894 -0.045263 0.0212185 ) 9
( 0.115903 -0.0579659 0.0149054 ) 13
( 0.0257991 -0.0467477 0.0422964 ) 9
( 0.0289028 -0.00369934 0.0213557 ) 28
( 0.22141 0.010381 0.044068 ) 70
( 0.131606 -0.0558856 0.0577712 ) 49
( 0.140666 -0.0729344 0.0543226 ) 41
( 0.168677 -0.0901476 0.0422518 ) 6
( 0.15468 -0.00720862 0.0545378 ) 68
( 0.0334955 -0.0272915 0.0518852 ) 55
( 0.127589 -0.0900651 0.0563033 ) 40
( 0.0426106 -0.0770005 0.0597564 ) 37
( 0.167411 -0.0420494 0.0591458 ) 60
( 0.125832 -0.00927206 0.069257 ) 67
( 0.230503 -0.0235321 0.0596192 ) 62
( 0.046647 -0.057492 0.0615843 ) 46
( 0.11596 -0.0443907 0.0603524 ) 49
( 0.0858931 -0.077546 0.0621504 ) 39
( 0.242388 -0.0904173 0.056119 ) 44
( 0.21017 -0.0330919 0.0605702 ) 61
( 0.246213 -0.0571014 0.0544985 ) 53
( 0.0741651 0.000130458 0.0625994 ) 65
( 0.0648571 -0.0381071 0.0656017 ) 56
( 0.203209 -0.0901085 0.060156 ) 43
( 0.00989995 -0.082861 0.071517 ) 72
( 0.168202 0.00995744 0.0581977 ) 69
( 0.0718607 -0.0639281 0.0604907 ) 47
( 0.186721 -0.0730216 0.0627602 ) 42
( 0.234066 -0.0727585 0.0540981 ) 44
( 0.148205 -0.0904963 0.0575279 ) 41
( 0.0900667 -0.0189179 0.0612342 ) 57
( 0.229307 -0.0473602 0.0515085 ) 53
( 0.209092 0.00972988 0.0654904 ) 70
( 0.175509 -0.00697267 0.0676837 ) 69
( 0.00968352 -0.0104389 0.0627003 ) 63
( 0.0663347 -0.0174029 0.0680593 ) 56
( 0.0269814 -0.0605301 0.0716263 ) 81
( 0.194736 -0.0145114 0.054693 ) 61
( 0.149511 -0.0370977 0.0663935 ) 59
( 0.063921 -0.0902224 0.0565829 ) 38
( 0.166205 -0.065543 0.0621172 ) 50
( 0.188323 -0.0333969 0.0595234 ) 60
( 0.104862 -0.0726769 0.065381 ) 39
( 0.223063 -0.0906539 0.0613562 ) 44
( 0.249322 -0.00230718 0.0533458 ) 71
( 0.115315 -0.0248161 0.0588284 ) 58
( 0.0308713 0.00965485 0.0591041 ) 64
( 0.190783 0.00376727 0.0612068 ) 69
( 0.0881155 0.0129196 0.0685947 ) 66
( 0.0876911 -0.0529527 0.0558352 ) 48
( 0.102107 -0.00187346 0.0563639 ) 66
( 0.118621 0.00781545 0.0612643 ) 67
( 0.210835 -0.0567972 0.0506011 ) 52
( 0.0167714 -0.0267741 0.0716482 ) 90
( 0.0296107 -0.0852148 0.0724964 ) 73
( 0.0266656 -0.0086827 0.0529442 ) 63
( 0.107624 -0.0899812 0.055506 ) 39
( 0.15095 -0.0560724 0.055291 ) 50
( 0.204351 -0.0900431 0.0403184 ) 7
( 0.214791 -0.075712 0.0525809 ) 43
( 0.142053 -0.08763 0.0389933 ) 5
( 0.0629568 -0.0214244 0.0492905 ) 56
( 0.075443 0.00950692 0.0403285 ) 29
( 0.00963138 -0.0454842 0.0630879 ) 45
( 0.0993839 -0.0310147 0.0492891 ) 57
( 0.182274 -0.0244179 0.0429991 ) 60
( 0.125228 -0.0733359 0.066845 ) 40
( 0.0628437 -0.0553868 0.0455676 ) 47
( 0.0466659 -0.0304815 0.0679893 ) 55
( 0.227517 -0.0893179 0.0425092 ) 8
( 0.0701593 -0.0756929 0.0447026 ) 38
( 0.19361 -0.0476085 0.0469769 ) 51
( 0.0179558 -0.0611899 0.0543743 ) 45
( 0.215672 -0.00751498 0.0593295 ) 70
( 0.158941 -0.0198096 0.0691534 ) 59
( 0.134434 -0.0120806 0.0520771 ) 67
( 0.21083 -0.0395043 0.0419175 ) 25
( 0.0853063 -0.00572362 0.0474089 ) 66
( 0.133566 -0.0315316 0.0562707 ) 58
( 0.105968 -0.0589462 0.0514784 ) 48
( 0.150867 -0.0736472 0.0714394 ) 77
( 0.045626 -0.090296 0.0457141 ) 37
( 0.22828 -0.0304618 0.0412744 ) 26
( 0.0826469 -0.0905447 0.047923 ) 38
( 0.177564 -0.0901371 0.0599503 ) 42
( 0.226237 -0.0625508 0.0393219 ) 17
( 0.143441 -0.0623514 0.0380154 ) 14
( 0.163952 -0.0244651 0.0504999 ) 59
( 0.136433 0.0075335 0.0511926 ) 67
( 0.179673 -0.0613787 0.0487224 ) 51
( 0.0802909 -0.0345881 0.0539604 ) 56
( 0.0102536 0.00459247 0.0491807 ) 63
( 0.0556532 -0.00401903 0.0578857 ) 65
( 0.181344 -0.0761443 0.0357505 ) 6
( 0.0460198 -0.0656436 0.0437994 ) 46
( 0.0443516 -0.0688355 0.0774246 ) 82
( 0.0219552 -0.0904697 0.0552337 ) 36
( 0.0098235 -0.0131045 0.0404222 ) 27
( 0.12338 -0.0900002 0.0327293 ) 4
( 0.231333 -0.00786471 0.0471827 ) 71
( 0.231058 -0.00852118 0.0723064 ) 107
( 0.114164 -0.0118651 0.0440332 ) 67
( 0.116821 -0.0901247 0.0731198 ) 76
( 0.145108 -0.00489117 0.0715341 ) 104
( 0.211618 -0.0204748 0.0453897 ) 61
( 0.0289112 -0.0750282 0.0454682 ) 37
( 0.0455151 -0.0137596 0.0441479 ) 64
( 0.106719 -0.0130466 0.0715672 ) 102
( 0.182826 0.0119124 0.0449337 ) 69
( 0.00983618 -0.0283565 0.0532229 ) 54
( 0.172297 -0.0412198 0.0401431 ) 24
( 0.246467 -0.0901546 0.0368417 ) 8
( 0.0615991 -0.0554819 0.0746591 ) 83
( 0.0804967 -0.0484148 0.0734355 ) 83
( 0.19707 -0.0705223 0.0466849 ) 52
( 0.226189 -0.0404524 0.0695209 ) 62
( 0.049062 -0.0901811 0.079124 ) 73
( 0.204161 -0.0738671 0.0716109 ) 79
( 0.173402 -0.00618921 0.0479893 ) 69
( 0.249636 -0.0737934 0.0659213 ) 44
( 0.0291 -0.0438022 0.0614086 ) 46
( 0.247811 -0.0417556 0.072744 ) 98
( 0.00944668 -0.0774395 0.0476093 ) 36
( 0.0401968 -0.0116497 0.0671594 ) 64
( 0.181802 -0.0238767 0.075758 ) 96
( 0.0981537 -0.0349224 0.0700396 ) 57
( 0.0868491 -0.0665692 0.0783765 ) 84
( 0.117043 0.00818021 0.0420264 ) 31
( 0.15648 -0.0547959 0.0757564 ) 86
( 0.216871 -0.059018 0.0692428 ) 52
( 0.0806648 -0.0278882 0.076101 ) 92
( 0.236263 -0.0591718 0.0713658 ) 53
( 0.096796 -0.0766666 0.0455032 ) 39
( 0.149266 -0.0386258 0.0467696 ) 59
( 0.0504892 -0.0408471 0.0514942 ) 55
( 0.155845 0.0141405 0.0729787 ) 104
( 0.131625 -0.0428261 0.072341 ) 94
( 0.0408972 0.008451 0.0760522 ) 100
( 0.0925098 0.0137518 0.0493022 ) 66
( 0.1412 -0.0901463 0.0766791 ) 77
( 0.198238 -0.0534039 0.0656374 ) 52
( 0.154665 0.00874416 0.0431012 ) 68
( 0.198472 -0.034738 0.0762622 ) 97
( 0.0756808 -0.0901028 0.0751108 ) 74
( 0.221811 -0.0803189 0.0776267 ) 79
( 0.193127 0.00251896 0.0814133 ) 105
( 0.120678 -0.0259534 0.0777994 ) 94
( 0.0146858 -0.0712104 0.0874155 ) 81
( 0.20225 -0.0128465 0.0729171 ) 106
( 0.174765 -0.0722197 0.0778415 ) 78
( 0.0234158 -0.00799587 0.0766362 ) 99
( 0.0663316 -0.03797 0.085278 ) 92
( 0.10967 -0.0723507 0.0843082 ) 75
( 0.181114 -0.0476306 0.0736648 ) 87
( 0.0657112 -0.00218534 0.0805275 ) 101
( 0.194438 -0.0899161 0.0779875 ) 78
( 0.040241 -0.046881 0.0769124 ) 82
( 0.00979207 0.00610757 0.0806354 ) 99
( 0.00991674 -0.0523774 0.0831444 ) 81
( 0.163089 -0.00316772 0.0825334 ) 104
( 0.224556 0.0092785 0.0771445 ) 107
( 0.131062 0.00824196 0.0763016 ) 103
( 0.13676 -0.0612369 0.0774175 ) 85
( 0.142726 -0.0275452 0.0823668 ) 95
( 0.0613292 -0.0768911 0.0709289 ) 38
( 0.0775351 0.0129487 0.0853011 ) 101
( 0.161701 -0.0902545 0.0716915 ) 77
( 0.247892 -0.0321718 0.056225 ) 62
( 0.160047 -0.0681538 0.0902087 ) 86
( 0.0969666 -0.0902295 0.0722783 ) 75
( 0.245076 -0.0902284 0.0755986 ) 80
( 0.0580393 -0.0763715 0.0903053 ) 74
( 0.231337 -0.0176079 0.0901069 ) 98
( 0.106126 -0.0306425 0.0902643 ) 93
( 0.0358436 -0.0808464 0.0905017 ) 73
( 0.0733103 -0.0557102 0.0904272 ) 83
( 0.242562 0.0072512 0.0698252 ) 71
( 0.228953 -0.0672265 0.090338 ) 89
( 0.085803 -0.0403202 0.0904317 ) 93
( 0.0327309 -0.0246336 0.0830439 ) 91
( 0.208692 -0.0703436 0.0903572 ) 88
( 0.111855 0.00430919 0.0790216 ) 103
( 0.225353 -0.0481716 0.0875001 ) 89
( 0.165404 -0.036356 0.0777869 ) 95
( 0.126663 -0.0900298 0.090243 ) 76
( 0.0880773 -0.0056979 0.0753003 ) 102
( 0.111336 -0.0463709 0.0793664 ) 85
( 0.026881 0.010086 0.090102 ) 99
( 0.184958 -0.0368367 0.0903566 ) 96
( 0.126981 -0.00534223 0.0901526 ) 103
( 0.206103 -0.0516696 0.0840592 ) 88
( 0.0521008 -0.0174294 0.0818324 ) 91
( 0.126406 -0.03929 0.090664 ) 94
( 0.0542051 0.0103445 0.0904491 ) 100
( 0.00983857 -0.030608 0.0898273 ) 90
( 0.218765 -0.0233095 0.0757248 ) 97
( 0.21019 -0.0901413 0.0901895 ) 79
( 0.0315493 -0.0614123 0.0905265 ) 82
( 0.146311 -0.00986202 0.0904613 ) 104
( 0.188078 -0.0564845 0.090102 ) 87
( 0.146422 -0.0455168 0.0901527 ) 86
( 0.24847 -0.0573179 0.0865573 ) 89
( 0.176012 -0.0904667 0.0850849 ) 78
( 0.18053 -0.00976872 0.0901447 ) 105
( 0.143806 0.0116287 0.0905136 ) 104
( 0.0506032 -0.0559811 0.0907248 ) 82
( 0.14171 -0.0755409 0.090225 ) 77
( 0.0945916 0.00428687 0.0906018 ) 102
( 0.0860669 -0.0824633 0.0901921 ) 75
( 0.122303 -0.0585959 0.0904319 ) 85
( 0.107872 -0.0107436 0.0906853 ) 102
( 0.247178 -0.0768514 0.0901299 ) 80
( 0.232551 -0.0900679 0.0906452 ) 80
( 0.0699324 -0.0189571 0.0902547 ) 92
( 0.169304 -0.0505355 0.090489 ) 87
( 0.0256942 -0.0424541 0.0901316 ) 90
( 0.00982229 -0.0108278 0.0904401 ) 99
( 0.0980897 -0.055849 0.090366 ) 84
( 0.155677 -0.0897793 0.0903393 ) 77
( 0.1045 -0.0901988 0.0904403 ) 75
( 0.0377912 -0.00686238 0.0903071 ) 100
( 0.216775 -0.00356861 0.0901453 ) 106
( 0.0898105 -0.0181969 0.0904753 ) 93
( 0.187876 -0.0761523 0.0909511 ) 78
( 0.212011 -0.034041 0.0905466 ) 97
( 0.0476151 -0.0352038 0.0905968 ) 91
( 0.00984664 -0.0901601 0.0900712 ) 72
( 0.242472 -0.0392208 0.0908656 ) 98
( 0.2415 0.0125469 0.0902545 ) 107
( 0.197112 -0.0208608 0.0902877 ) 97
( 0.164625 -0.0214108 0.0903818 ) 95
)
