/*--------------------------------*- C++ -*----------------------------------*\
| =========                 |                                                 |
| \\      /  F ield         | OpenFOAM: The Open Source CFD Toolbox           |
|  \\    /   O peration     | Version:  4.x                                   |
|   \\  /    A nd           | Web:      www.OpenFOAM.org                      |
|    \\/     M anipulation  |                                                 |
\*---------------------------------------------------------------------------*/
FoamFile
{
    version     2.0;
    format      ascii;
    class       volScalarField;
    location    "37.5";
    object      Ksl;
}
// * * * * * * * * * * * * * * * * * * * * * * * * * * * * * * * * * * * * * //

dimensions      [1 -3 -1 0 0 0 0];

internalField   nonuniform List<scalar> 
108
(
3383.72
7933.66
3389.22
7579.03
3370.47
7277.3
3305.8
7116.5
3180.62
3475.38
9902.02
3654.16
12698.3
3705.5
15475.1
3682.35
19408.6
3608.37
3511.79
11115.3
3763
17090.6
3818.8
27219.9
3791.32
65572.1
3730.64
3494.61
11274.7
3798.22
19198.6
3889.86
47103.3
3905.3
1.8834e+06
3841.46
3365.7
7835.56
3355.89
7528.59
3361.06
7254.69
3298.31
7335.38
3256.19
3447.72
8962.51
3539.82
9860.5
3575.31
10890.4
3565.32
12757.6
3535.68
3462.9
10191
3681.86
13983.8
3759.26
19916.8
3732.9
31919.1
3686.64
3496.1
10470.1
3706.69
14678.6
3778.88
20766.8
3753.61
29537
3663.1
3320.2
6956.06
3168.85
5964.37
3104.11
5542.41
3030.1
5228.83
2901.68
3372.7
7705.52
3354.69
7065.61
3288.29
6654.52
3195.73
6346.97
3078.33
3424.1
8285.91
3454.63
8186.11
3425.96
7930.82
3324.59
7562.83
3211.94
3466.84
8457.91
3495.07
8577.88
3458.31
8211.31
3326.2
7572.7
3202.79
)
;

boundaryField
{
    inlet
    {
        type            zeroGradient;
    }
    outlet
    {
        type            zeroGradient;
    }
    wall
    {
        type            zeroGradient;
    }
    procBoundary4to0
    {
        type            processor;
        value           nonuniform List<scalar> 
36
(
3386.25
8152.54
3391.08
7655.31
3366.09
7494.6
3348.08
7549.39
3303.83
3456.53
10162.4
3624.64
12472.8
3695.94
15823.8
3752.59
24243.1
3734.91
3513.2
11465.9
3771.07
20386.6
3912.22
61243.4
4005.47
1e+10
4060.67
3503.01
11682.6
3787.65
21922.8
3869.6
56948.7
3880.14
392240
3830.67
)
;
    }
    procBoundary4to5
    {
        type            processor;
        value           nonuniform List<scalar> 
12
(
7160.32
31737.5
530353
1e+10
7681.74
14883.2
79102.7
42451.7
4854.45
6112.73
7382.77
7425.9
)
;
    }
    procBoundary4to6
    {
        type            processor;
        value           nonuniform List<scalar> 
27
(
3573.64
12252.3
3839.18
24562.6
3954.74
89558.6
3979.84
1e+10
3956.37
3514.61
10659.1
3704.45
15234.3
3754.51
24193.2
3786.76
51602.2
3756.36
3425.71
8102.52
3457.05
8149.68
3417.48
8243.76
3410.58
8654.2
3330.62
)
;
    }
}


// ************************************************************************* //
