/*--------------------------------*- C++ -*----------------------------------*\
| =========                 |                                                 |
| \\      /  F ield         | OpenFOAM: The Open Source CFD Toolbox           |
|  \\    /   O peration     | Version:  4.x                                   |
|   \\  /    A nd           | Web:      www.OpenFOAM.org                      |
|    \\/     M anipulation  |                                                 |
\*---------------------------------------------------------------------------*/
FoamFile
{
    version     2.0;
    format      ascii;
    class       volScalarField;
    location    "37.5";
    object      p;
}
// * * * * * * * * * * * * * * * * * * * * * * * * * * * * * * * * * * * * * //

dimensions      [1 -1 -2 0 0 0 0];

internalField   nonuniform List<scalar> 
108
(
-1767.58
-1784.97
-1774.72
-1802.86
-1782.15
-1821.11
-1789.49
-1839.66
-1796.6
-1766.96
-1784.7
-1774.13
-1802.65
-1781.71
-1821.04
-1789.16
-1839.53
-1796.29
-1766.46
-1784.35
-1773.72
-1802.27
-1781.4
-1820.54
-1788.92
-1838.84
-1796.3
-1766.37
-1784.11
-1773.49
-1801.98
-1781.12
-1820.12
-1788.83
-1838.38
-1796.39
-3645.35
-3662.68
-3652.37
-3680.42
-3659.75
-3698.66
-3666.99
-3716.93
-3674.12
-3644.87
-3662.5
-3652.02
-3680.32
-3659.45
-3698.57
-3666.78
-3716.99
-3674.01
-3644.37
-3662.06
-3651.48
-3680.04
-3659.02
-3698.38
-3666.53
-3716.73
-3673.83
-3644.18
-3662.12
-3651.45
-3679.95
-3659.12
-3698.34
-3666.73
-3716.89
-3674.05
-5523.59
-5540.87
-5530.69
-5558.39
-5537.97
-5576.57
-5545.36
-5595.1
-5552.57
-5523.13
-5540.66
-5530.38
-5558.36
-5537.78
-5576.59
-5545.22
-5595.05
-5552.38
-5522.68
-5540.34
-5529.97
-5558.19
-5537.5
-5576.4
-5545
-5594.81
-5552.24
-5522.46
-5540.37
-5529.83
-5558.1
-5537.49
-5576.5
-5545.12
-5594.82
-5552.26
)
;

boundaryField
{
    inlet
    {
        type            calculated;
        value           nonuniform List<scalar> 
12
(
-1767.58
-1766.96
-1766.46
-1766.37
-3645.35
-3644.87
-3644.37
-3644.18
-5523.59
-5523.13
-5522.68
-5522.46
)
;
    }
    outlet
    {
        type            calculated;
        value           nonuniform 0();
    }
    wall
    {
        type            calculated;
        value           nonuniform List<scalar> 
63
(
-6462.55
-6462.09
-6461.64
-6461.42
-6479.83
-6479.62
-6479.3
-6479.33
-6469.64
-6469.34
-6468.92
-6468.79
-6497.35
-6497.32
-6497.14
-6497.06
-6476.93
-6476.73
-6476.45
-6476.44
-6515.53
-6515.55
-6515.36
-6515.46
-6484.32
-6484.17
-6483.96
-6484.07
-6534.05
-6534.01
-6533.77
-6533.78
-6491.53
-6491.34
-6491.19
-6491.22
-1767.58
-3645.35
-5523.59
-1784.97
-3662.68
-5540.87
-1774.72
-3652.37
-5530.69
-1802.86
-3680.42
-5558.39
-1782.15
-3659.75
-5537.97
-1821.11
-3698.66
-5576.57
-1789.49
-3666.99
-5545.36
-1839.66
-3716.93
-5595.1
-1796.6
-3674.12
-5552.57
)
;
    }
    procBoundary4to0
    {
        type            processor;
        value           nonuniform List<scalar> 
36
(
110.231
92.9693
103.222
75.0552
95.9446
56.8125
88.6985
38.5509
81.8809
110.775
93.2087
103.697
75.1613
96.3217
56.9262
89.0638
38.4637
82.0535
111.247
93.6231
104.27
75.6891
96.8281
57.5818
89.1704
39.6538
81.8135
111.331
93.6163
104.303
75.5417
96.6982
57.3799
89.0258
39.0553
81.7028
)
;
    }
    procBoundary4to5
    {
        type            processor;
        value           nonuniform List<scalar> 
12
(
-1858.65
-1858.42
-1857.12
-1856.21
-3735.71
-3735.86
-3735.18
-3735.18
-5613.97
-5613.92
-5613.35
-5613.27
)
;
    }
    procBoundary4to6
    {
        type            processor;
        value           nonuniform List<scalar> 
27
(
-1766.04
-1784.31
-1773.44
-1801.9
-1781.13
-1820
-1788.92
-1837.91
-1796.28
-3644.11
-3662.18
-3651.43
-3680.04
-3658.97
-3698.15
-3666.47
-3716.44
-3673.78
-5522.57
-5540.31
-5529.81
-5558.03
-5537.34
-5576.14
-5544.81
-5594.58
-5552.02
)
;
    }
}


// ************************************************************************* //
