/*--------------------------------*- C++ -*----------------------------------*\
| =========                 |                                                 |
| \\      /  F ield         | OpenFOAM: The Open Source CFD Toolbox           |
|  \\    /   O peration     | Version:  4.x                                   |
|   \\  /    A nd           | Web:      www.OpenFOAM.org                      |
|    \\/     M anipulation  |                                                 |
\*---------------------------------------------------------------------------*/
FoamFile
{
    version     2.0;
    format      ascii;
    class       volScalarField;
    location    "37.5";
    object      QPartFluidCoeff;
}
// * * * * * * * * * * * * * * * * * * * * * * * * * * * * * * * * * * * * * //

dimensions      [1 -1 -3 -1 0 0 0];

internalField   nonuniform List<scalar> 
108
(
-1.64147e+07
-2.36975e+07
-2.80913e+07
-1.99383e+07
-2.38646e+07
-1.99858e+07
-2.98264e+07
-2.29297e+07
-3.21821e+07
-2.33957e+07
-2.43259e+07
-3.1303e+07
-3.34842e+07
-3.3741e+07
-2.86569e+07
-2.71562e+07
-1.92619e+07
-3.70608e+07
-2.2294e+07
-3.42588e+07
-2.77245e+07
-3.12035e+07
-2.70702e+07
-2.10199e+07
-2.43519e+07
-3.43308e+07
-2.24795e+07
-1.15216e+07
-2.24251e+07
-3.12972e+07
-1.89795e+07
-2.92591e+07
-2.21336e+07
-3.66561e+07
-1.99192e+07
-2.35007e+07
-1.68775e+07
-1.82995e+07
-2.68487e+07
-2.77856e+07
-2.8425e+07
-1.82125e+07
-1.85928e+07
-2.51226e+07
-3.19372e+07
-2.08221e+07
-2.53429e+07
-2.51889e+07
-2.53274e+07
-2.58096e+07
-2.27358e+07
-2.83634e+07
-3.09251e+07
-3.50117e+07
-1.39842e+07
-2.44146e+07
-3.34281e+07
-2.76254e+07
-3.22624e+07
-2.75071e+07
-2.72867e+07
-2.38588e+07
-2.87858e+07
-2.06816e+07
-2.86137e+07
-2.51429e+07
-3.21919e+07
-3.50789e+07
-2.54094e+07
-3.94662e+07
-2.8358e+07
-2.71337e+07
-1.51751e+07
-2.09996e+07
-1.48162e+07
-2.0178e+07
-2.11673e+07
-2.67075e+07
-2.67346e+07
-2.1717e+07
-2.73535e+07
-1.62511e+07
-3.00356e+07
-2.37578e+07
-1.94954e+07
-2.4904e+07
-2.57103e+07
-2.46156e+07
-2.07586e+07
-2.8607e+07
-1.74446e+07
-2.48654e+07
-2.82047e+07
-2.38855e+07
-2.23709e+07
-2.30806e+07
-2.45572e+07
-2.63904e+07
-2.34912e+07
-2.41748e+07
-2.33761e+07
-2.23324e+07
-2.65971e+07
-2.81333e+07
-3.17897e+07
-1.65715e+07
-1.726e+07
-2.36187e+07
)
;

boundaryField
{
    inlet
    {
        type            calculated;
        value           uniform 0;
    }
    outlet
    {
        type            calculated;
        value           nonuniform 0();
    }
    wall
    {
        type            calculated;
        value           uniform 0;
    }
    procBoundary4to0
    {
        type            processor;
        value           nonuniform List<scalar> 
36
(
329.076
377.125
511.647
392.14
535.621
587.997
446.383
327.922
456.938
388.272
725.53
687.556
611.761
544.695
502.543
789.104
544.813
523.857
392.054
422.394
683.581
462.147
656.659
635.593
621.52
372.053
705.063
364.708
507.387
740.926
767.818
413.562
730.13
641.213
408.157
195.93
)
;
    }
    procBoundary4to5
    {
        type            processor;
        value           nonuniform List<scalar> 
12
(
502.861
613.575
644.228
775.992
548.783
468.953
560.823
401.587
188.056
526.641
458.419
543.701
)
;
    }
    procBoundary4to6
    {
        type            processor;
        value           nonuniform List<scalar> 
27
(
752.322
677.004
460.252
606.15
836.435
462.625
657.447
502.986
752.263
555.541
680.47
730.195
652.591
504.244
596.135
599.446
460.369
722.847
371.324
408.739
561.845
530.988
542.058
491.548
778.518
656.635
342.818
)
;
    }
}


// ************************************************************************* //
