/*--------------------------------*- C++ -*----------------------------------*\
| =========                 |                                                 |
| \\      /  F ield         | OpenFOAM: The Open Source CFD Toolbox           |
|  \\    /   O peration     | Version:  4.x                                   |
|   \\  /    A nd           | Web:      www.OpenFOAM.org                      |
|    \\/     M anipulation  |                                                 |
\*---------------------------------------------------------------------------*/
FoamFile
{
    version     2.0;
    format      ascii;
    class       volScalarField;
    location    "37.5";
    object      QWallFluid;
}
// * * * * * * * * * * * * * * * * * * * * * * * * * * * * * * * * * * * * * //

dimensions      [1 -1 -3 0 0 0 0];

internalField   nonuniform List<scalar> 
108
(
8.26754e+08
4.18011e+08
8.36162e+08
4.40153e+08
8.48666e+08
4.5519e+08
8.59783e+08
4.59181e+08
8.723e+08
0
0
0
0
0
0
0
0
0
0
0
0
0
0
0
0
0
0
0
0
0
0
0
0
0
0
0
8.25567e+08
4.20794e+08
8.36684e+08
4.38329e+08
8.44518e+08
4.52225e+08
8.54658e+08
4.4547e+08
8.53399e+08
0
0
0
0
0
0
0
0
0
0
0
0
0
0
0
0
0
0
0
0
0
0
0
0
0
0
0
1.6569e+09
9.12352e+08
1.7276e+09
1.03864e+09
1.77242e+09
1.10499e+09
1.80441e+09
1.15809e+09
1.85678e+09
8.23354e+08
4.24047e+08
8.3717e+08
4.59034e+08
8.5313e+08
4.80753e+08
8.66995e+08
4.97092e+08
8.85417e+08
8.15595e+08
4.01203e+08
8.16687e+08
4.06818e+08
8.24911e+08
4.16802e+08
8.37072e+08
4.29367e+08
8.52132e+08
8.07212e+08
3.95159e+08
8.10786e+08
3.91973e+08
8.16378e+08
4.0323e+08
8.33776e+08
4.28247e+08
8.517e+08
)
;

boundaryField
{
    inlet
    {
        type            calculated;
        value           uniform 0;
    }
    outlet
    {
        type            calculated;
        value           nonuniform 0();
    }
    wall
    {
        type            calculated;
        value           uniform 0;
    }
    procBoundary4to0
    {
        type            processor;
        value           nonuniform List<scalar> 
36
(
8.33308e+08
4.13907e+08
8.454e+08
4.39498e+08
8.55277e+08
4.48969e+08
8.62546e+08
4.45534e+08
8.63917e+08
0
0
0
0
0
0
0
0
0
0
0
0
0
0
0
0
0
0
0
0
0
0
0
0
0
0
0
)
;
    }
    procBoundary4to5
    {
        type            processor;
        value           nonuniform List<scalar> 
12
(
4.53485e+08
0
0
0
4.26618e+08
0
0
0
1.22413e+09
5.09664e+08
4.34216e+08
4.299e+08
)
;
    }
    procBoundary4to6
    {
        type            processor;
        value           nonuniform List<scalar> 
27
(
0
0
0
0
0
0
0
0
0
0
0
0
0
0
0
0
0
0
8.16034e+08
4.09664e+08
8.17732e+08
4.07385e+08
8.18297e+08
4.02035e+08
8.19003e+08
3.83455e+08
8.29427e+08
)
;
    }
}


// ************************************************************************* //
