/*--------------------------------*- C++ -*----------------------------------*\
| =========                 |                                                 |
| \\      /  F ield         | OpenFOAM: The Open Source CFD Toolbox           |
|  \\    /   O peration     | Version:  4.x                                   |
|   \\  /    A nd           | Web:      www.OpenFOAM.org                      |
|    \\/     M anipulation  |                                                 |
\*---------------------------------------------------------------------------*/
FoamFile
{
    version     2.0;
    format      ascii;
    class       volScalarField;
    location    "37.5";
    object      QWallFluidCoeff;
}
// * * * * * * * * * * * * * * * * * * * * * * * * * * * * * * * * * * * * * //

dimensions      [1 -1 -3 -1 0 0 0];

internalField   nonuniform List<scalar> 
108
(
-2.75585e+06
-1.39337e+06
-2.78721e+06
-1.46718e+06
-2.82889e+06
-1.5173e+06
-2.86594e+06
-1.5306e+06
-2.90767e+06
0
0
0
0
0
0
0
0
0
0
0
0
0
0
0
0
0
0
0
0
0
0
0
0
0
0
0
-2.75189e+06
-1.40265e+06
-2.78895e+06
-1.4611e+06
-2.81506e+06
-1.50742e+06
-2.84886e+06
-1.4849e+06
-2.84466e+06
0
0
0
0
0
0
0
0
0
0
0
0
0
0
0
0
0
0
0
0
0
0
0
0
0
0
0
-5.52299e+06
-3.04117e+06
-5.75866e+06
-3.46214e+06
-5.90806e+06
-3.68329e+06
-6.0147e+06
-3.86029e+06
-6.18928e+06
-2.74451e+06
-1.41349e+06
-2.79057e+06
-1.53011e+06
-2.84377e+06
-1.60251e+06
-2.88998e+06
-1.65697e+06
-2.95139e+06
-2.71865e+06
-1.33734e+06
-2.72229e+06
-1.35606e+06
-2.7497e+06
-1.38934e+06
-2.79024e+06
-1.43122e+06
-2.84044e+06
-2.69071e+06
-1.3172e+06
-2.70262e+06
-1.30658e+06
-2.72126e+06
-1.3441e+06
-2.77925e+06
-1.42749e+06
-2.839e+06
)
;

boundaryField
{
    inlet
    {
        type            calculated;
        value           uniform 0;
    }
    outlet
    {
        type            calculated;
        value           nonuniform 0();
    }
    wall
    {
        type            calculated;
        value           uniform 0;
    }
    procBoundary4to0
    {
        type            processor;
        value           uniform 0;
    }
    procBoundary4to5
    {
        type            processor;
        value           uniform 0;
    }
    procBoundary4to6
    {
        type            processor;
        value           uniform 0;
    }
}


// ************************************************************************* //
