/*--------------------------------*- C++ -*----------------------------------*\
| =========                 |                                                 |
| \\      /  F ield         | OpenFOAM: The Open Source CFD Toolbox           |
|  \\    /   O peration     | Version:  4.x                                   |
|   \\  /    A nd           | Web:      www.OpenFOAM.org                      |
|    \\/     M anipulation  |                                                 |
\*---------------------------------------------------------------------------*/
FoamFile
{
    version     2.0;
    format      ascii;
    class       volVectorField;
    location    "37.5";
    object      Urel;
}
// * * * * * * * * * * * * * * * * * * * * * * * * * * * * * * * * * * * * * //

dimensions      [0 1 -1 0 0 0 0];

internalField   nonuniform List<vector> 
108
(
(-0.0233523 0.000629059 0.000519432)
(-0.0214238 0.000562626 0.000483891)
(-0.0223661 0.00057193 0.000470435)
(-0.020916 0.00047894 0.00042363)
(-0.0221206 0.000453023 0.000374745)
(-0.0207922 0.000358286 0.000329392)
(-0.0220875 0.000327198 0.000279615)
(-0.0207448 0.000250587 0.00023314)
(-0.0221058 0.000218296 0.000147472)
(-0.0231607 0.000628109 0.000501591)
(-0.0210289 0.000547009 0.000460046)
(-0.0218797 0.000572373 0.000434564)
(-0.0200918 0.000457949 0.000382706)
(-0.0213329 0.000447682 0.000330364)
(-0.0196225 0.000339886 0.000283197)
(-0.0210692 0.000316579 0.00023106)
(-0.0193155 0.000234061 0.000190247)
(-0.0209268 0.000193986 0.000120256)
(-0.0229665 0.00042886 0.000492546)
(-0.0206785 0.000375286 0.000443588)
(-0.0214264 0.000390484 0.000408128)
(-0.0193892 0.000311413 0.000345696)
(-0.02061 0.000306887 0.000291656)
(-0.0186312 0.000226997 0.000241443)
(-0.0201529 0.00019963 0.000206138)
(-0.0181377 0.000141979 0.000159989)
(-0.0198933 9.67361e-05 0.000134964)
(-0.0228738 0.000128672 0.000488316)
(-0.0205304 9.66776e-05 0.000432289)
(-0.0212228 0.000102829 0.00039572)
(-0.0190869 8.37374e-05 0.000338415)
(-0.020281 8.63575e-05 0.000284699)
(-0.0181845 6.51808e-05 0.000234245)
(-0.0197377 5.63119e-05 0.000198431)
(-0.0176424 4.92697e-05 0.000160808)
(-0.0194406 4.72006e-05 0.000139334)
(-0.0234264 0.000603402 0.00019126)
(-0.0215561 0.000540353 0.000186722)
(-0.0225313 0.000532987 0.000162485)
(-0.0211563 0.000448946 0.00017291)
(-0.0223751 0.000419239 0.000142312)
(-0.0211116 0.000338522 0.000132699)
(-0.0223948 0.000303752 7.84705e-05)
(-0.0211178 0.000236594 5.84975e-05)
(-0.0224674 0.000208737 -1.08754e-05)
(-0.0232591 0.000608489 0.000160119)
(-0.0212325 0.000535003 0.000158786)
(-0.0221203 0.000549326 0.000114397)
(-0.0204994 0.000441627 0.000127395)
(-0.0217152 0.000428227 8.63229e-05)
(-0.0201784 0.000327357 8.73104e-05)
(-0.0215482 0.000302027 3.18645e-05)
(-0.0199773 0.000232246 2.76962e-05)
(-0.0214932 0.000214471 -3.0774e-05)
(-0.0230734 0.000422223 0.000136891)
(-0.0208933 0.00036323 0.000134774)
(-0.0216892 0.000374141 8.49971e-05)
(-0.0198144 0.000298645 9.12555e-05)
(-0.0210262 0.000282789 4.6244e-05)
(-0.0192217 0.000214534 4.85711e-05)
(-0.0206863 0.000185282 4.61544e-06)
(-0.0188535 0.000150948 9.65721e-06)
(-0.020513 0.000130985 -1.50443e-05)
(-0.0229836 0.000110139 0.000124328)
(-0.0207521 8.29536e-05 0.000114452)
(-0.0214974 8.33775e-05 6.26754e-05)
(-0.0195473 7.34942e-05 7.13116e-05)
(-0.0207393 7.45648e-05 1.60155e-05)
(-0.0188569 7.04704e-05 2.73991e-05)
(-0.0203292 7.03747e-05 -1.17116e-05)
(-0.0184438 7.16968e-05 1.17272e-05)
(-0.0201102 7.7961e-05 9.59956e-06)
(-0.0235415 0.000588379 1.51132e-05)
(-0.0217978 0.000530293 1.50883e-05)
(-0.0228301 0.00051366 -2.08128e-05)
(-0.0216605 0.000429701 2.02154e-06)
(-0.022882 0.000390998 -2.69776e-05)
(-0.0218219 0.000318128 -2.50674e-05)
(-0.0230676 0.000288122 -9.354e-05)
(-0.0220288 0.000244544 -0.000116056)
(-0.0233269 0.00023281 -0.000184477)
(-0.0233907 0.000590599 -4.04799e-06)
(-0.0215148 0.000523012 -1.15624e-06)
(-0.0224616 0.000526556 -4.70042e-05)
(-0.0211024 0.000426548 -2.70596e-05)
(-0.0223054 0.000399382 -6.55038e-05)
(-0.0210727 0.000318346 -5.72112e-05)
(-0.0223517 0.000297399 -0.000119037)
(-0.0211414 0.000256259 -0.000115523)
(-0.0224972 0.000254657 -0.000166839)
(-0.0232096 0.000409059 -2.8664e-05)
(-0.0212163 0.000355394 -2.71648e-05)
(-0.0220742 0.000366334 -7.99078e-05)
(-0.0205186 0.000298932 -5.82205e-05)
(-0.0216877 0.000276968 -0.000103948)
(-0.0202757 0.000219216 -8.07595e-05)
(-0.0215844 0.000198833 -0.00013132)
(-0.0202129 0.000183677 -0.000108345)
(-0.0216038 0.000186232 -0.000143463)
(-0.0231265 9.35348e-05 -4.05819e-05)
(-0.0210945 8.33387e-05 -3.54371e-05)
(-0.0219026 9.20975e-05 -8.19328e-05)
(-0.0202813 8.5915e-05 -6.1416e-05)
(-0.0214316 9.16527e-05 -0.000103723)
(-0.0199524 9.17235e-05 -8.33197e-05)
(-0.0212501 0.000102836 -0.000118895)
(-0.0198249 0.000109349 -7.83834e-05)
(-0.0212021 0.00013318 -8.87259e-05)
)
;

boundaryField
{
    inlet
    {
        type            calculated;
        value           nonuniform List<vector> 
12
(
(-0.01 1.09037e-11 9.11973e-11)
(-0.01 -6.28426e-11 1.73774e-10)
(-0.01 -7.73283e-11 2.45777e-10)
(-0.01 -1.07344e-10 2.37856e-10)
(-0.01 1.98307e-12 6.0924e-11)
(-0.01 -6.75177e-11 1.39598e-10)
(-0.01 -2.7506e-11 1.80587e-10)
(-0.01 -1.57831e-10 1.221e-10)
(-0.01 1.7412e-11 7.17073e-11)
(-0.01 -4.93623e-11 1.39413e-10)
(-0.01 -6.33011e-13 1.18198e-10)
(-0.01 -1.06949e-10 4.24951e-11)
)
;
    }
    outlet
    {
        type            calculated;
        value           nonuniform 0();
    }
    wall
    {
        type            calculated;
        value           nonuniform List<vector> 
63
(
(1.32037e-12 1.7412e-11 7.17073e-11)
(3.04645e-11 -4.93623e-11 1.39413e-10)
(2.94648e-11 -6.33011e-13 1.18198e-10)
(3.3281e-11 -1.06949e-10 4.24951e-11)
(-4.50349e-11 1.88517e-12 6.39686e-11)
(-5.40034e-12 -4.69501e-11 8.9591e-11)
(7.32398e-11 -4.53544e-11 1.16395e-10)
(4.40621e-11 -2.42933e-10 7.0239e-11)
(-1.5836e-12 7.96103e-12 1.02728e-10)
(2.35688e-11 -2.13073e-11 1.55912e-10)
(1.4282e-10 -3.14573e-11 1.86745e-10)
(1.45058e-10 -1.89882e-10 2.31147e-10)
(4.84327e-12 4.32904e-12 1.79312e-10)
(1.59223e-11 -4.3004e-11 1.81297e-10)
(2.03278e-10 -7.03493e-11 2.23391e-10)
(1.59009e-10 -1.49941e-10 2.81076e-10)
(4.00619e-11 -2.75879e-11 2.01705e-10)
(1.91589e-10 -5.91024e-11 3.70531e-10)
(3.90258e-10 -5.04923e-11 4.79367e-10)
(1.86483e-10 -1.51973e-10 3.34329e-10)
(2.2495e-11 -8.80562e-11 1.75803e-10)
(5.65144e-11 6.96866e-11 2.71047e-10)
(3.04035e-10 -9.60688e-12 4.7458e-10)
(3.16585e-10 -1.87953e-10 3.03435e-10)
(-4.63762e-11 -1.2552e-10 4.25216e-10)
(3.54909e-10 2.02809e-10 4.24001e-10)
(9.66763e-10 1.20442e-10 5.74097e-10)
(8.35918e-10 -1.16384e-10 5.32612e-10)
(4.96197e-11 -5.04401e-11 4.52123e-10)
(3.41484e-10 -1.07253e-10 6.51942e-10)
(1.03468e-09 -5.5031e-11 7.0663e-10)
(2.5993e-09 -9.96484e-10 6.40232e-10)
(2.69184e-10 -9.1716e-11 3.11375e-10)
(5.28974e-10 -2.05465e-10 7.38614e-10)
(1.11935e-09 -3.36514e-10 8.52284e-10)
(1.80759e-09 -4.71361e-10 9.50067e-10)
(-7.28895e-12 1.09037e-11 9.11973e-11)
(-2.58789e-11 1.98307e-12 6.0924e-11)
(1.32037e-12 1.7412e-11 7.17073e-11)
(-7.96245e-12 2.9124e-11 1.51277e-10)
(-7.73796e-11 -2.5828e-11 1.12083e-10)
(-4.50349e-11 1.88517e-12 6.39686e-11)
(1.38147e-10 1.66236e-11 2.8388e-10)
(6.59268e-11 -1.48192e-11 1.81653e-10)
(-1.5836e-12 7.96103e-12 1.02728e-10)
(8.87987e-11 4.82725e-11 4.91534e-10)
(-1.46381e-11 3.26221e-11 3.39923e-10)
(4.84327e-12 4.32904e-12 1.79312e-10)
(8.3192e-11 1.98621e-10 7.38457e-10)
(1.31161e-10 5.88588e-11 4.03012e-10)
(4.00619e-11 -2.75879e-11 2.01705e-10)
(-1.02938e-10 2.99819e-11 7.65393e-10)
(9.59081e-12 -6.03312e-11 4.56112e-10)
(2.2495e-11 -8.80562e-11 1.75803e-10)
(-3.0675e-11 -9.38107e-11 1.16065e-09)
(6.27218e-11 -9.4058e-11 5.90377e-10)
(-4.63762e-11 -1.2552e-10 4.25216e-10)
(-2.9492e-10 1.56288e-11 1.35779e-09)
(-9.8e-11 -3.83711e-11 9.07966e-10)
(4.96197e-11 -5.04401e-11 4.52123e-10)
(-6.43102e-10 -1.78079e-11 1.60584e-09)
(1.62496e-10 -1.63238e-10 8.08519e-10)
(2.69184e-10 -9.1716e-11 3.11375e-10)
)
;
    }
    procBoundary4to0
    {
        type            processor;
        value           nonuniform List<vector> 
36
(
(-0.0233737 0.000614543 0.000885518)
(-0.0214326 0.000552007 0.000817959)
(-0.0224159 0.000560908 0.000816562)
(-0.0209824 0.000471541 0.000717368)
(-0.0222236 0.000448777 0.000670388)
(-0.0209016 0.000358311 0.000581546)
(-0.0222139 0.000325401 0.000528155)
(-0.0208578 0.000230103 0.000461221)
(-0.0222012 0.000179104 0.000385085)
(-0.0231888 0.000614719 0.000898379)
(-0.0210426 0.000539342 0.000812447)
(-0.0219348 0.000572154 0.000809342)
(-0.0201574 0.000458489 0.000683645)
(-0.0214157 0.000453459 0.000635011)
(-0.0197052 0.000341175 0.000527456)
(-0.0211613 0.000306444 0.000477354)
(-0.019379 0.00021897 0.000394476)
(-0.0209866 0.000148224 0.000340918)
(-0.0229858 0.000419227 0.000903388)
(-0.0206867 0.000365657 0.000806608)
(-0.0214654 0.000383643 0.000792142)
(-0.0193982 0.00029721 0.00065046)
(-0.0206457 0.000284594 0.000599654)
(-0.0186104 0.000206369 0.000476764)
(-0.02018 0.000167037 0.000432878)
(-0.0181518 0.000119806 0.000329387)
(-0.019901 5.93127e-05 0.000275675)
(-0.0229025 0.000109808 0.000898766)
(-0.0205486 8.58138e-05 0.000803611)
(-0.0212838 7.40753e-05 0.000787339)
(-0.0191249 5.92116e-05 0.000645736)
(-0.0203669 4.53735e-05 0.000598178)
(-0.0182578 4.46028e-05 0.0004675)
(-0.0198563 4.12117e-05 0.000418068)
(-0.0177643 3.6062e-05 0.000314398)
(-0.0195634 3.35961e-05 0.000254479)
)
;
    }
    procBoundary4to5
    {
        type            processor;
        value           nonuniform List<vector> 
12
(
(-0.0206527 0.000153626 8.79168e-05)
(-0.0190413 0.000141977 8.20741e-05)
(-0.0178579 7.85432e-05 8.74994e-05)
(-0.0174301 4.32133e-05 0.00010248)
(-0.0211046 0.000154172 -2.26343e-05)
(-0.0198428 0.000175096 -3.17392e-05)
(-0.0186135 0.000123085 -2.08274e-05)
(-0.0182153 8.38279e-05 2.95824e-06)
(-0.0222717 0.000196646 -0.00019822)
(-0.0212563 0.000243321 -0.000160322)
(-0.0202052 0.000203699 -0.000126125)
(-0.0197523 0.000159409 -6.67891e-05)
)
;
    }
    procBoundary4to6
    {
        type            processor;
        value           nonuniform List<vector> 
27
(
(-0.0229098 -0.000223457 0.000489237)
(-0.0205716 -0.000199773 0.000436625)
(-0.021295 -0.00021069 0.000414357)
(-0.0191808 -0.000161753 0.000354973)
(-0.0204138 -0.000152598 0.000317002)
(-0.0183312 -0.000104597 0.000261599)
(-0.0198902 -7.59981e-05 0.000232542)
(-0.0178402 -4.25382e-05 0.000192704)
(-0.0196031 5.78992e-07 0.000177305)
(-0.0230323 -0.000245932 9.88078e-05)
(-0.0208237 -0.00020848 0.000118919)
(-0.0215982 -0.000224685 7.28014e-05)
(-0.0196805 -0.000165688 8.71459e-05)
(-0.0208819 -0.000158005 4.71167e-05)
(-0.0190042 -9.81128e-05 6.12026e-05)
(-0.0204614 -7.54681e-05 4.51243e-05)
(-0.0185469 -2.93534e-05 5.25066e-05)
(-0.020207 -1.0051e-07 6.41156e-05)
(-0.0231962 -0.000244853 -5.62639e-05)
(-0.0212043 -0.000200459 -2.84293e-05)
(-0.0220299 -0.000204847 -6.48588e-05)
(-0.0204532 -0.000152599 -3.59803e-05)
(-0.0215828 -0.000131503 -7.27279e-05)
(-0.0201025 -7.76835e-05 -4.6204e-05)
(-0.021354 -4.03156e-05 -7.1896e-05)
(-0.019857 3.18687e-06 -4.04517e-05)
(-0.0212085 3.8572e-05 -3.87579e-05)
)
;
    }
}


// ************************************************************************* //
