/*--------------------------------*- C++ -*----------------------------------*\
| =========                 |                                                 |
| \\      /  F ield         | OpenFOAM: The Open Source CFD Toolbox           |
|  \\    /   O peration     | Version:  4.x                                   |
|   \\  /    A nd           | Web:      www.OpenFOAM.org                      |
|    \\/     M anipulation  |                                                 |
\*---------------------------------------------------------------------------*/
FoamFile
{
    version     2.0;
    format      ascii;
    class       volScalarField;
    location    "20.5";
    object      Ksl;
}
// * * * * * * * * * * * * * * * * * * * * * * * * * * * * * * * * * * * * * //

dimensions      [1 -3 -1 0 0 0 0];

internalField   nonuniform List<scalar> 
108
(
3451.83
7548.99
3471.29
7367.9
3469.98
7240.41
3429.57
7284.15
3349.56
3550.51
9386.94
3769.13
12573.8
3864.61
16786.2
3881.85
24744.8
3867.99
3588.5
10182.7
3873.71
15028.8
3964.66
22696.5
3976.76
48504.2
3966.08
3572.89
10109.9
3895.22
15141.6
4003.35
26456.7
4043.23
72361.2
3992.86
3439.86
7245.51
3408.66
6846.93
3382.86
6429.95
3280.85
6244.33
3189.98
3521.97
8483.95
3638.34
9715.4
3700.02
11410.2
3716.85
14357.5
3711.24
3549.93
9146.87
3771.11
11785.7
3841.2
14983.9
3794.86
18216.1
3707.73
3579.56
9728.2
3831.9
13796.6
3947.52
20832
3958.86
35368
3897.74
3384.74
6601.2
3225.35
5721.18
3153.26
5343.64
3078.05
5063.91
2954.09
3438.51
7311.62
3426.42
6775.25
3361.45
6417.1
3276.99
6156.9
3180.56
3494.75
7748.03
3526.27
7685.13
3494.1
7512.12
3397.39
7251.33
3299.59
3535.37
8150.63
3600.82
8806.09
3608.19
9073.55
3525.51
8801.29
3453.59
)
;

boundaryField
{
    inlet
    {
        type            zeroGradient;
    }
    outlet
    {
        type            zeroGradient;
    }
    wall
    {
        type            zeroGradient;
    }
    procBoundary4to0
    {
        type            processor;
        value           nonuniform List<scalar> 
36
(
3470.52
7508.7
3448.99
6974.03
3388.95
6676.44
3322.29
6385.21
3200.53
3545.54
9216.59
3711.59
10735.6
3761.72
12253.1
3776.83
14380.7
3699.25
3609.52
9618.91
3822.84
12687.6
3897.59
16724.9
3907.8
21443.4
3840.36
3596.89
10050.7
3877.04
14704.5
3948.78
21101.4
3959.31
32135.4
3921.87
)
;
    }
    procBoundary4to5
    {
        type            processor;
        value           nonuniform List<scalar> 
12
(
7673.49
60197.7
1.11684e+06
1e+10
6166.89
16988.1
19893.9
70169.5
4739.97
5951.93
7142.54
8669.32
)
;
    }
    procBoundary4to6
    {
        type            processor;
        value           nonuniform List<scalar> 
27
(
3645.64
10994.1
3927.28
19565.4
4058.68
50869.8
4094.65
9.9166e+09
4126.44
3609.53
9473.18
3803.53
12256
3843
15852.2
3853.78
21522.8
3787.42
3496.37
7677.56
3541.36
7943.69
3517.35
8305.65
3531.11
8881.18
3467.52
)
;
    }
}


// ************************************************************************* //
