/*--------------------------------*- C++ -*----------------------------------*\
| =========                 |                                                 |
| \\      /  F ield         | OpenFOAM: The Open Source CFD Toolbox           |
|  \\    /   O peration     | Version:  4.x                                   |
|   \\  /    A nd           | Web:      www.OpenFOAM.org                      |
|    \\/     M anipulation  |                                                 |
\*---------------------------------------------------------------------------*/
FoamFile
{
    version     2.0;
    format      ascii;
    class       volVectorField;
    location    "41.5";
    object      GField;
}
// * * * * * * * * * * * * * * * * * * * * * * * * * * * * * * * * * * * * * //

dimensions      [1 -2 -1 0 0 0 0];

internalField   nonuniform List<vector> 
108
(
(96.2837 -3.02153 -1.81565)
(40.828 -1.4052 -1.16596)
(97.6458 -3.19146 -1.72767)
(43.5579 -1.31577 -1.31939)
(99.4949 -2.41329 -0.862875)
(45.4301 -0.788079 -0.970408)
(101.119 -1.72179 -0.719876)
(45.884 -0.790172 -0.977445)
(102.948 -1.65367 0.533693)
(94.5374 -5.20441 -1.45574)
(33.2812 -2.41627 -0.767953)
(92.3684 -5.31202 -1.04035)
(26.2562 -1.79154 -0.767392)
(91.1129 -3.88076 -0.327621)
(21.5051 -1.27755 -0.474174)
(91.3634 -2.8873 0.107169)
(16.9274 -1.23881 -0.43568)
(91.7515 -1.67877 0.975863)
(94.3134 -3.01184 -1.35358)
(29.8232 -1.66525 -0.617007)
(89.9467 -3.39034 -0.604393)
(19.4462 -1.18156 -0.172726)
(88.082 -2.9344 0.223226)
(12.141 -0.896807 0.181603)
(87.7524 -1.67698 -0.390661)
(4.80201 -0.405196 0.219974)
(87.8521 0.393783 -0.565814)
(94.5191 -1.78601 -1.91084)
(29.4717 -0.415795 -0.693707)
(89.1281 -1.56747 -1.01221)
(17.2574 -0.605985 -0.631001)
(86.2569 -1.35849 -0.544098)
(6.75207 -0.317165 -0.157555)
(84.7596 0.103925 -0.422957)
(4.00199e-05 -1.8032e-06 -4.67761e-07)
(84.0519 0.0280113 0.225135)
(96.2 -2.36779 0.533287)
(41.132 -1.02014 0.163019)
(97.7984 -2.02772 0.566295)
(43.2589 -0.769143 -0.605396)
(98.9135 -1.61788 -0.175479)
(44.9142 -0.665916 -0.880734)
(100.356 -1.17006 -0.0503542)
(43.9767 -0.143261 -0.880052)
(100.139 -0.506488 0.353424)
(95.2534 -4.60762 1.2391)
(36.3269 -2.41699 0.435979)
(94.3941 -4.84769 1.83456)
(33.2263 -1.7024 0.091403)
(93.7039 -3.75883 1.0742)
(29.8491 -1.15541 -0.280346)
(93.2602 -2.28491 0.966206)
(25.1724 -0.61707 -0.288026)
(93.1495 -1.37084 1.13068)
(94.9765 -3.13731 1.58926)
(32.156 -1.35596 0.601207)
(91.1814 -2.90664 1.96918)
(23.4892 -0.920871 0.41749)
(89.0226 -1.71171 1.42548)
(16.3328 -0.38162 0.222947)
(88.5519 -0.334706 1.34451)
(9.85691 -0.0809347 0.221831)
(88.814 0.12426 0.737209)
(93.7845 -0.990841 1.2439)
(31.2726 0.0712175 1.01458)
(90.2666 -0.200628 2.43423)
(22.0162 -0.022084 0.674937)
(87.936 -0.173155 2.50925)
(14.9261 -0.240663 0.72746)
(87.3858 -0.243202 2.23109)
(9.70856 -0.206936 0.50272)
(88.2307 -0.212475 0.42118)
(96.5755 -2.28138 1.5304)
(45.5882 -1.18919 1.10799)
(101.739 -1.95906 2.28577)
(53.6871 -0.697413 0.845402)
(105.066 -1.18753 1.77312)
(58.0563 -0.341805 0.583135)
(107.441 -0.789915 2.28222)
(61.5887 -0.40852 1.57943)
(111.344 -1.01685 3.07806)
(95.7643 -4.24354 1.59872)
(41.4972 -2.36361 0.943213)
(97.7393 -4.17508 2.35308)
(45.85 -1.64564 0.942661)
(100.101 -2.72086 2.20162)
(48.5844 -1.20168 0.910664)
(102.121 -1.98949 2.67008)
(50.6557 -1.32612 1.19894)
(104.822 -1.92057 2.50386)
(94.6815 -2.99359 1.88517)
(38.8494 -1.35268 1.27812)
(94.8756 -2.90721 2.9771)
(39.7038 -1.24722 1.21039)
(96.1739 -1.74047 2.9517)
(41.1514 -0.581621 0.95762)
(98.0574 -0.666024 2.81867)
(42.9339 -0.692079 1.10791)
(100.38 -0.807414 2.64594)
(93.5267 -0.482868 1.65934)
(37.9947 -0.198184 1.1083)
(93.9961 -0.766896 2.41336)
(37.5476 -0.513193 1.02552)
(94.7709 -0.847977 2.33358)
(38.8804 -0.763679 1.07888)
(97.2507 -1.04096 2.54081)
(41.9805 -0.817078 0.685237)
(99.854 -1.18823 1.64767)
)
;

boundaryField
{
    inlet
    {
        type            calculated;
        value           uniform (67 0 0);
    }
    outlet
    {
        type            calculated;
        value           nonuniform 0();
    }
    wall
    {
        type            calculated;
        value           uniform (0 0 0);
    }
    procBoundary4to0
    {
        type            processor;
        value           nonuniform List<vector> 
36
(
(97.2559 -2.7459 -4.30074)
(40.1507 -1.24329 -2.7513)
(98.9783 -2.68066 -4.47279)
(43.2969 -0.901113 -2.66834)
(100.429 -1.97415 -3.5209)
(44.3901 -0.70685 -2.50298)
(101.434 -1.79027 -2.7978)
(43.5797 -0.113161 -2.64203)
(101.465 -0.627119 -1.96508)
(96.1416 -5.0797 -4.90875)
(32.539 -2.46238 -2.55441)
(93.8967 -5.72402 -4.91788)
(26.5371 -1.96597 -1.92405)
(92.3736 -4.48289 -3.30565)
(20.341 -1.54093 -1.36637)
(91.0059 -2.29115 -2.29788)
(12.6645 -1.182 -1.1199)
(90.5615 0.0725221 -2.1436)
(95.3623 -2.70829 -4.93423)
(28.7112 -1.22933 -2.38977)
(90.5018 -2.87908 -4.29511)
(15.6729 -0.530362 -1.16666)
(86.8083 -1.32227 -2.55386)
(4.58192 -0.107035 -0.368247)
(84.1942 0.419384 -1.83708)
(3.78032e-05 2.76491e-07 4.16014e-08)
(81.4865 1.08188 -0.389657)
(95.3051 -0.55779 -4.6769)
(29.1134 0.059831 -2.61927)
(90.701 0.384273 -4.69679)
(16.9397 0.331604 -1.61853)
(88.9044 0.756592 -3.65487)
(8.67976 0.277722 -1.02261)
(88.1483 -0.240343 -2.45601)
(3.8779 0.215182 -0.598765)
(87.908 -0.291796 -0.47013)
)
;
    }
    procBoundary4to5
    {
        type            processor;
        value           nonuniform List<vector> 
12
(
(45.143 -1.04312 0.579372)
(10.0211 -1.21129 0.151853)
(0.406198 -0.0666333 0.0516932)
(4.01136e-05 -3.97502e-06 3.01158e-06)
(41.5872 0.232147 -1.04417)
(21.3365 -0.879515 -0.273403)
(3.87919 -0.193797 0.1587)
(6.57481 -0.251103 0.621683)
(66.056 -0.575971 2.26835)
(52.2633 -2.22864 1.15477)
(43.8007 -1.76182 1.29857)
(42.1936 -1.71926 0.865369)
)
;
    }
    procBoundary4to6
    {
        type            processor;
        value           nonuniform List<vector> 
27
(
(92.2209 1.16829 -1.75041)
(26.5988 0.737374 -0.539375)
(87.4928 1.3739 -1.18508)
(12.5451 0.324965 -0.378523)
(84.0944 0.685929 -0.642166)
(2.74734 0.085726 -0.0948897)
(82.8089 -0.401617 -0.324944)
(3.80178e-05 2.7358e-07 -1.38445e-06)
(82.2947 -1.3558 -0.431144)
(93.1683 2.28898 2.78499)
(30.7377 0.956309 0.827069)
(90.084 2.51872 2.77095)
(21.5401 0.661935 0.813993)
(88.3491 1.68822 2.06989)
(13.6782 0.152309 0.517935)
(87.205 0.688633 0.495578)
(6.65298 -0.0522785 0.482076)
(86.6465 0.165046 -0.101262)
(94.7601 2.26172 2.41067)
(39.933 0.784342 1.03906)
(95.0889 1.73994 2.44072)
(39.9495 0.496293 0.723559)
(95.2944 0.726621 2.25879)
(39.6822 -0.124511 0.689307)
(95.5499 -0.455145 2.10778)
(37.838 -0.605614 0.939409)
(97.2717 -0.713705 1.89721)
)
;
    }
}


// ************************************************************************* //
