/*--------------------------------*- C++ -*----------------------------------*\
| =========                 |                                                 |
| \\      /  F ield         | OpenFOAM: The Open Source CFD Toolbox           |
|  \\    /   O peration     | Version:  4.x                                   |
|   \\  /    A nd           | Web:      www.OpenFOAM.org                      |
|    \\/     M anipulation  |                                                 |
\*---------------------------------------------------------------------------*/
FoamFile
{
    version     2.0;
    format      ascii;
    class       volScalarField;
    location    "3.5";
    object      Deff;
}
// * * * * * * * * * * * * * * * * * * * * * * * * * * * * * * * * * * * * * //

dimensions      [0 2 -1 0 0 0 0];

internalField   nonuniform List<scalar> 
114
(
9.922e-08
9.91957e-08
9.92856e-08
9.91723e-08
9.93037e-08
9.92036e-08
9.94258e-08
9.93031e-08
9.93286e-08
9.9288e-08
9.9148e-08
9.91886e-08
9.90718e-08
9.90906e-08
9.91624e-08
9.95304e-08
9.93844e-08
9.94599e-08
9.93183e-08
9.93283e-08
9.92769e-08
9.93525e-08
9.92485e-08
9.92644e-08
9.959e-08
9.95381e-08
9.9512e-08
9.94335e-08
9.94842e-08
9.94674e-08
9.95133e-08
9.93761e-08
9.93818e-08
9.86116e-08
9.85256e-08
9.87221e-08
9.85746e-08
9.91298e-08
9.89886e-08
9.88735e-08
9.88094e-08
9.87302e-08
9.86914e-08
9.8545e-08
9.86405e-08
9.87221e-08
9.91632e-08
9.89512e-08
9.88616e-08
9.88136e-08
9.88001e-08
9.87771e-08
9.87536e-08
9.87423e-08
9.87361e-08
9.92473e-08
9.91607e-08
9.90099e-08
9.89879e-08
9.89512e-08
9.89603e-08
9.89384e-08
9.89053e-08
9.89348e-08
9.83457e-08
9.83092e-08
9.8807e-08
9.87885e-08
9.86539e-08
9.85507e-08
9.84801e-08
9.83746e-08
9.8267e-08
9.83547e-08
9.83976e-08
9.89314e-08
9.8776e-08
9.86031e-08
9.84548e-08
9.8488e-08
9.84664e-08
9.83684e-08
9.83885e-08
9.83303e-08
9.90065e-08
9.87938e-08
9.87232e-08
9.86211e-08
9.86971e-08
9.8577e-08
9.84702e-08
9.85972e-08
9.85e-08
9.86715e-08
9.8454e-08
9.83168e-08
9.82929e-08
9.82552e-08
9.8202e-08
9.8145e-08
9.81265e-08
9.86684e-08
9.85173e-08
9.83525e-08
9.83426e-08
9.82673e-08
9.82229e-08
9.81406e-08
9.88237e-08
9.86214e-08
9.85154e-08
9.8398e-08
9.84108e-08
9.83277e-08
)
;

boundaryField
{
    inlet
    {
        type            calculated;
        value           uniform 0;
    }
    outlet
    {
        type            calculated;
        value           nonuniform 0();
    }
    wall
    {
        type            calculated;
        value           uniform 0;
    }
    procBoundary2to0
    {
        type            processor;
        value           uniform 0;
    }
    procBoundary2to3
    {
        type            processor;
        value           uniform 0;
    }
    procBoundary2to6
    {
        type            processor;
        value           uniform 0;
    }
}


// ************************************************************************* //
