/*--------------------------------*- C++ -*----------------------------------*\
| =========                 |                                                 |
| \\      /  F ield         | OpenFOAM: The Open Source CFD Toolbox           |
|  \\    /   O peration     | Version:  4.x                                   |
|   \\  /    A nd           | Web:      www.OpenFOAM.org                      |
|    \\/     M anipulation  |                                                 |
\*---------------------------------------------------------------------------*/
FoamFile
{
    version     2.0;
    format      ascii;
    class       volVectorField;
    location    "3.5";
    object      impParticleForces;
}
// * * * * * * * * * * * * * * * * * * * * * * * * * * * * * * * * * * * * * //

dimensions      [1 1 -2 0 0 0 0];

internalField   nonuniform List<vector> 
114
(
(0.00248438 -2.46583e-06 5.77119e-05)
(0.00250803 -2.73139e-06 6.02486e-05)
(0.00249206 -2.64886e-06 5.23029e-05)
(0.00250359 -2.54863e-06 3.781e-05)
(0.00246546 -1.80806e-06 1.53145e-05)
(0.00245878 -8.67041e-07 -1.19206e-05)
(0.00244183 1.92626e-05 2.85592e-05)
(0.00246374 2.04577e-05 3.63522e-05)
(0.00249924 2.16591e-05 4.82114e-05)
(0.00249986 2.02597e-05 5.77693e-05)
(0.00253131 1.87644e-05 6.12634e-05)
(0.00250883 1.60248e-05 5.29202e-05)
(0.00252148 1.45017e-05 3.81966e-05)
(0.00248453 1.40588e-05 1.6398e-05)
(0.00247478 1.48485e-05 -1.04676e-05)
(0.00242711 3.40446e-05 3.03351e-05)
(0.00245866 3.61513e-05 3.69006e-05)
(0.00249536 3.75155e-05 4.85673e-05)
(0.00251011 3.6511e-05 5.87539e-05)
(0.00254331 3.54341e-05 6.25017e-05)
(0.00252553 3.1167e-05 5.58927e-05)
(0.00251676 2.76153e-05 4.16166e-05)
(0.00250126 2.59834e-05 2.08792e-05)
(0.00250263 2.63214e-05 -4.86825e-06)
(0.0023962 3.93552e-05 3.32349e-05)
(0.00241916 4.10448e-05 3.92408e-05)
(0.00247521 4.34915e-05 4.94111e-05)
(0.00248743 4.25026e-05 5.86488e-05)
(0.00251368 4.13652e-05 6.23442e-05)
(0.00250835 3.78149e-05 5.6929e-05)
(0.002504 3.4215e-05 4.41263e-05)
(0.0025062 3.26516e-05 2.52612e-05)
(0.00251254 3.27136e-05 8.07905e-07)
(0.00257955 -2.91639e-06 5.70443e-05)
(0.00260515 -2.96328e-06 4.16216e-05)
(0.00254584 -1.90092e-06 1.67127e-05)
(0.00255103 -9.77692e-07 -1.3413e-05)
(0.0024686 1.93088e-05 3.04939e-05)
(0.00251113 2.12548e-05 3.74037e-05)
(0.00257036 2.29718e-05 5.14318e-05)
(0.00257079 2.12111e-05 6.2223e-05)
(0.00260784 1.91944e-05 6.6708e-05)
(0.00258442 1.63382e-05 5.72424e-05)
(0.00261423 1.44744e-05 4.19167e-05)
(0.00256665 1.39974e-05 1.79891e-05)
(0.00255574 1.47404e-05 -1.07949e-05)
(0.00246616 3.56803e-05 3.096e-05)
(0.00251993 3.90916e-05 3.75698e-05)
(0.00259492 4.27519e-05 5.16443e-05)
(0.00259522 3.96986e-05 6.36892e-05)
(0.00262553 3.73649e-05 6.90442e-05)
(0.00261479 3.28893e-05 6.19987e-05)
(0.00263141 2.95462e-05 4.80328e-05)
(0.0025963 2.69128e-05 2.47884e-05)
(0.00260346 2.7104e-05 -2.81838e-06)
(0.00242469 4.06025e-05 3.46557e-05)
(0.0024681 4.34826e-05 4.05144e-05)
(0.00255094 4.76774e-05 5.23391e-05)
(0.00255185 4.50697e-05 6.29912e-05)
(0.0025804 4.32487e-05 6.83185e-05)
(0.00258898 3.98559e-05 6.35783e-05)
(0.00260337 3.64192e-05 5.1568e-05)
(0.00259006 3.35639e-05 3.06194e-05)
(0.00258484 3.24265e-05 4.59147e-06)
(0.00261077 -2.43554e-06 1.95722e-05)
(0.00260716 -1.90296e-06 -9.87013e-06)
(0.00249819 1.8896e-05 3.65825e-05)
(0.00252684 1.99808e-05 4.38278e-05)
(0.00258715 2.12538e-05 5.61514e-05)
(0.00259618 1.95069e-05 6.55321e-05)
(0.00263502 1.73554e-05 6.89113e-05)
(0.0026297 1.4811e-05 6.01084e-05)
(0.00266326 1.30012e-05 4.49389e-05)
(0.00262371 1.22706e-05 2.04613e-05)
(0.00261701 1.2469e-05 -8.91111e-06)
(0.00247972 3.48567e-05 3.72282e-05)
(0.00252739 3.76739e-05 4.34387e-05)
(0.00261251 4.16523e-05 5.5993e-05)
(0.00263009 3.88184e-05 6.72093e-05)
(0.00266238 3.55658e-05 7.16612e-05)
(0.00265146 3.06747e-05 6.44144e-05)
(0.00269721 2.82493e-05 5.20073e-05)
(0.00266448 2.57306e-05 2.80602e-05)
(0.00267844 2.56172e-05 -8.86248e-07)
(0.00244793 4.03761e-05 3.90979e-05)
(0.00249475 4.36009e-05 4.49472e-05)
(0.00256802 4.67738e-05 5.62816e-05)
(0.0025937 4.5077e-05 6.68342e-05)
(0.00260844 4.14616e-05 7.05675e-05)
(0.00264142 3.87253e-05 6.77762e-05)
(0.00269041 3.66385e-05 5.84164e-05)
(0.00265674 3.29609e-05 3.45987e-05)
(0.00266955 3.20261e-05 8.24188e-06)
(0.00251034 1.74476e-05 4.7014e-05)
(0.00255871 1.87259e-05 5.37544e-05)
(0.00262169 1.99749e-05 6.36607e-05)
(0.00261749 1.75358e-05 7.01257e-05)
(0.00265861 1.52812e-05 7.177e-05)
(0.00265094 1.28872e-05 6.20084e-05)
(0.0026879 1.10633e-05 4.68461e-05)
(0.00265477 9.90899e-06 2.24009e-05)
(0.00249293 3.3529e-05 4.68365e-05)
(0.0025435 3.6237e-05 5.22916e-05)
(0.00262894 3.98937e-05 6.23561e-05)
(0.00262883 3.52954e-05 7.02915e-05)
(0.00268463 3.30599e-05 7.43754e-05)
(0.00267668 2.81726e-05 6.65206e-05)
(0.0027249 2.60498e-05 5.4497e-05)
(0.00244827 3.86383e-05 4.77472e-05)
(0.00249896 4.17267e-05 5.24787e-05)
(0.00258408 4.55479e-05 6.16196e-05)
(0.00260888 4.30533e-05 7.00453e-05)
(0.00266175 4.14024e-05 7.46412e-05)
(0.00267254 3.6944e-05 6.96343e-05)
)
;

boundaryField
{
    inlet
    {
        type            zeroGradient;
    }
    outlet
    {
        type            zeroGradient;
    }
    wall
    {
        type            zeroGradient;
    }
    procBoundary2to0
    {
        type            processor;
        value           nonuniform List<vector> 
44
(
(0.00248723 -2.53914e-05 5.84932e-05)
(0.00252154 -2.40728e-05 6.22208e-05)
(0.0025034 -2.14551e-05 5.53052e-05)
(0.00250697 -1.95741e-05 4.11667e-05)
(0.00248221 -1.7993e-05 1.92895e-05)
(0.00249829 -1.83619e-05 -8.03189e-06)
(0.00242556 -3.61431e-06 2.84581e-05)
(0.00243935 -3.62526e-06 3.66865e-05)
(0.00246569 -3.0814e-06 4.83374e-05)
(0.00246569 -3.0814e-06 4.83374e-05)
(0.00254391 -3.04385e-06 6.178e-05)
(0.00259881 -2.83109e-06 6.66178e-05)
(0.00258224 -2.19665e-05 5.96263e-05)
(0.00260759 -1.98835e-05 4.48892e-05)
(0.00255711 -1.80278e-05 2.12299e-05)
(0.00255798 -1.78237e-05 -7.84565e-06)
(0.00248206 -3.90279e-06 2.92402e-05)
(0.00249872 -3.74699e-06 3.85345e-05)
(0.00254489 -3.5091e-06 5.23633e-05)
(0.00254391 -3.04385e-06 6.178e-05)
(0.00259881 -2.83109e-06 6.66178e-05)
(0.00259881 -2.83109e-06 6.66178e-05)
(0.00263294 -2.99724e-06 6.01494e-05)
(0.00265887 -3.00296e-06 4.39816e-05)
(0.00261497 -1.68482e-05 2.41942e-05)
(0.00260873 -1.65051e-05 -3.75643e-06)
(0.00250288 -4.05746e-06 3.72147e-05)
(0.0025325 -4.05079e-06 4.51863e-05)
(0.00259484 -3.83282e-06 5.79274e-05)
(0.00259808 -3.30647e-06 6.67655e-05)
(0.00264474 -3.13249e-06 6.97476e-05)
(0.00263294 -2.99724e-06 6.01494e-05)
(0.00265887 -3.00296e-06 4.39816e-05)
(0.00265887 -3.00296e-06 4.39816e-05)
(0.00263618 -3.59549e-06 2.17747e-05)
(0.00262692 -3.72479e-06 -6.55875e-06)
(0.00249977 -5.02519e-06 4.85823e-05)
(0.00254483 -4.93204e-06 5.47907e-05)
(0.00262027 -4.82249e-06 6.54659e-05)
(0.00262627 -4.05788e-06 7.16635e-05)
(0.00265032 -3.76339e-06 7.14723e-05)
(0.00266053 -3.56004e-06 6.19577e-05)
(0.00268892 -3.59395e-06 4.58206e-05)
(0.00263618 -3.59549e-06 2.17747e-05)
)
;
    }
    procBoundary2to3
    {
        type            processor;
        value           nonuniform List<vector> 
12
(
(0.00245457 9.82561e-07 -4.17293e-05)
(0.00247935 1.66087e-05 -4.01575e-05)
(0.00251491 2.81442e-05 -3.43189e-05)
(0.00250148 3.33406e-05 -2.86709e-05)
(0.00252397 1.92223e-07 -4.63366e-05)
(0.00255183 1.58073e-05 -4.26958e-05)
(0.00261805 2.89835e-05 -3.47078e-05)
(0.0025988 3.4547e-05 -2.62683e-05)
(0.00259373 -1.61003e-06 -4.24871e-05)
(0.00261303 1.39963e-05 -4.18123e-05)
(0.00265646 2.68335e-05 -3.33988e-05)
(0.00265846 3.36443e-05 -2.39952e-05)
)
;
    }
    procBoundary2to6
    {
        type            processor;
        value           nonuniform List<vector> 
32
(
(0.00266756 9.05151e-06 -7.49293e-06)
(0.00269 2.32914e-05 3.06637e-05)
(0.00270668 2.23591e-05 1.68278e-06)
(0.00269704 3.34198e-05 5.77699e-05)
(0.00269172 3.08735e-05 3.65472e-05)
(0.00270144 3.03029e-05 1.07205e-05)
(0.00254288 1.65281e-05 6.02105e-05)
(0.00257297 1.65498e-05 6.59296e-05)
(0.00261236 1.67739e-05 7.31809e-05)
(0.0026299 1.50021e-05 7.66118e-05)
(0.0026843 1.34873e-05 7.55409e-05)
(0.00266946 1.1131e-05 6.36356e-05)
(0.00271505 9.562e-06 4.74574e-05)
(0.00266756 9.05151e-06 -7.49293e-06)
(0.00269 2.32914e-05 3.06637e-05)
(0.00268347 8.31994e-06 2.38981e-05)
(0.00251638 3.27117e-05 5.77488e-05)
(0.00255944 3.43088e-05 6.30051e-05)
(0.00261838 3.56167e-05 7.09186e-05)
(0.0026447 3.2322e-05 7.60553e-05)
(0.00270266 3.0044e-05 7.6984e-05)
(0.00270367 2.55672e-05 6.77777e-05)
(0.00269 2.32914e-05 3.06637e-05)
(0.00269704 3.34198e-05 5.77699e-05)
(0.00274623 2.24097e-05 5.34289e-05)
(0.00246699 3.71631e-05 5.64284e-05)
(0.0025116 3.96024e-05 6.08363e-05)
(0.00256423 4.04976e-05 6.80016e-05)
(0.0026084 3.88025e-05 7.37643e-05)
(0.00268723 3.79764e-05 7.69203e-05)
(0.00269704 3.34198e-05 5.77699e-05)
(0.00271848 3.41759e-05 7.14262e-05)
)
;
    }
}


// ************************************************************************* //
