/*--------------------------------*- C++ -*----------------------------------*\
| =========                 |                                                 |
| \\      /  F ield         | OpenFOAM: The Open Source CFD Toolbox           |
|  \\    /   O peration     | Version:  4.x                                   |
|   \\  /    A nd           | Web:      www.OpenFOAM.org                      |
|    \\/     M anipulation  |                                                 |
\*---------------------------------------------------------------------------*/
FoamFile
{
    version     2.0;
    format      ascii;
    class       volScalarField;
    location    "3.5";
    object      nu;
}
// * * * * * * * * * * * * * * * * * * * * * * * * * * * * * * * * * * * * * //

dimensions      [0 2 -1 0 0 0 0];

internalField   nonuniform List<scalar> 
114
(
1.00176e-06
1.00173e-06
1.00139e-06
1.00098e-06
1.00054e-06
1.00009e-06
1.00021e-06
1.00075e-06
1.00143e-06
1.00192e-06
1.00194e-06
1.00155e-06
1.00102e-06
1.00056e-06
1.00016e-06
1.00025e-06
1.00081e-06
1.00147e-06
1.00192e-06
1.00199e-06
1.00172e-06
1.00127e-06
1.0008e-06
1.0004e-06
1.00025e-06
1.00073e-06
1.0013e-06
1.00173e-06
1.00192e-06
1.00189e-06
1.00169e-06
1.00144e-06
1.00114e-06
1.00076e-06
1.00048e-06
1.00019e-06
9.99814e-07
1.00011e-06
1.00045e-06
1.00087e-06
1.00106e-06
1.001e-06
1.00075e-06
1.00046e-06
1.00018e-06
9.99917e-07
1.00012e-06
1.00044e-06
1.00083e-06
1.00107e-06
1.00108e-06
1.00089e-06
1.00064e-06
1.00033e-06
1.00004e-06
1.00013e-06
1.00041e-06
1.00077e-06
1.00106e-06
1.00121e-06
1.00121e-06
1.00113e-06
1.00098e-06
1.0008e-06
1.00012e-06
9.99954e-07
1.00006e-06
1.00025e-06
1.0005e-06
1.00062e-06
1.00058e-06
1.00043e-06
1.00024e-06
1.00003e-06
9.99845e-07
1.00007e-06
1.00024e-06
1.00047e-06
1.00062e-06
1.00065e-06
1.00054e-06
1.00038e-06
1.00016e-06
9.99945e-07
1.00007e-06
1.00024e-06
1.00046e-06
1.00064e-06
1.00076e-06
1.00079e-06
1.00077e-06
1.00069e-06
1.00059e-06
1.00004e-06
1.00014e-06
1.00027e-06
1.00034e-06
1.00033e-06
1.00027e-06
1.00013e-06
9.99951e-07
1.00004e-06
1.00014e-06
1.00028e-06
1.00037e-06
1.00039e-06
1.00033e-06
1.00021e-06
1.00004e-06
1.00013e-06
1.00026e-06
1.00036e-06
1.00045e-06
1.00049e-06
)
;

boundaryField
{
    inlet
    {
        type            calculated;
        value           uniform 1e-06;
    }
    outlet
    {
        type            calculated;
        value           nonuniform 0();
    }
    wall
    {
        type            calculated;
        value           nonuniform List<scalar> 
66
(
1.00021e-06
1.00025e-06
1.00025e-06
1.00075e-06
1.00081e-06
1.00073e-06
1.00143e-06
1.00147e-06
1.0013e-06
1.00176e-06
1.00192e-06
1.00192e-06
1.00173e-06
1.00173e-06
1.00194e-06
1.00199e-06
1.00192e-06
1.00139e-06
1.00155e-06
1.00172e-06
1.00189e-06
1.00098e-06
1.00102e-06
1.00127e-06
1.00169e-06
1.00054e-06
1.00056e-06
1.0008e-06
1.00144e-06
1.00009e-06
1.00016e-06
1.0004e-06
1.00114e-06
1.00025e-06
1.00013e-06
1.00007e-06
1.00004e-06
1.00073e-06
1.00041e-06
1.00024e-06
1.00013e-06
1.0013e-06
1.00077e-06
1.00046e-06
1.00026e-06
1.00173e-06
1.00106e-06
1.00064e-06
1.00036e-06
1.00192e-06
1.00121e-06
1.00076e-06
1.00045e-06
1.00189e-06
1.00121e-06
1.00079e-06
1.00049e-06
1.00169e-06
1.00113e-06
1.00077e-06
1.00144e-06
1.00098e-06
1.00069e-06
1.00114e-06
1.0008e-06
1.00059e-06
)
;
    }
    procBoundary2to0
    {
        type            processor;
        value           nonuniform List<scalar> 
44
(
1.00183e-06
1.00178e-06
1.00147e-06
1.00109e-06
1.00064e-06
1.00012e-06
1.0002e-06
1.00075e-06
1.00139e-06
1.00139e-06
1.00104e-06
1.001e-06
1.00066e-06
1.00035e-06
1.00003e-06
9.99741e-07
1.00011e-06
1.00048e-06
1.00089e-06
1.00104e-06
1.001e-06
1.001e-06
1.00046e-06
1.00029e-06
9.99939e-07
9.99697e-07
1.00007e-06
1.00028e-06
1.00054e-06
1.00065e-06
1.0006e-06
1.00046e-06
1.00029e-06
1.00029e-06
1.00006e-06
9.99902e-07
1.00005e-06
1.00019e-06
1.00036e-06
1.00044e-06
1.00041e-06
1.00034e-06
1.00022e-06
1.00006e-06
)
;
    }
    procBoundary2to3
    {
        type            processor;
        value           nonuniform List<scalar> 
12
(
9.99719e-07
9.99832e-07
1.00005e-06
1.00085e-06
9.99567e-07
9.99669e-07
9.99806e-07
1.0006e-06
9.99817e-07
9.997e-07
9.99775e-07
1.00046e-06
)
;
    }
    procBoundary2to6
    {
        type            processor;
        value           nonuniform List<scalar> 
32
(
9.99801e-07
1.00005e-06
9.99858e-07
1.00049e-06
1.00045e-06
1.0004e-06
1.00003e-06
1.00012e-06
1.00023e-06
1.00029e-06
1.00028e-06
1.00017e-06
1.00002e-06
9.99801e-07
1.00005e-06
9.99865e-07
1.00003e-06
1.00011e-06
1.0002e-06
1.00026e-06
1.00027e-06
1.00021e-06
1.00005e-06
1.00049e-06
1.0001e-06
1.00003e-06
1.00009e-06
1.00019e-06
1.00027e-06
1.00034e-06
1.00049e-06
1.00036e-06
)
;
    }
}


// ************************************************************************* //
