/*--------------------------------*- C++ -*----------------------------------*\
| =========                 |                                                 |
| \\      /  F ield         | OpenFOAM: The Open Source CFD Toolbox           |
|  \\    /   O peration     | Version:  4.x                                   |
|   \\  /    A nd           | Web:      www.OpenFOAM.org                      |
|    \\/     M anipulation  |                                                 |
\*---------------------------------------------------------------------------*/
FoamFile
{
    version     2.0;
    format      ascii;
    class       volScalarField;
    location    "3.5";
    object      Qsource;
}
// * * * * * * * * * * * * * * * * * * * * * * * * * * * * * * * * * * * * * //

dimensions      [1 -1 -3 0 0 0 0];

internalField   nonuniform List<scalar> 
114
(
6.63049e+09
5.87522e+09
2.70259e+09
5.91116e+09
2.38239e+09
3.31486e+09
6.72162e+09
7.30854e+09
7.01411e+09
4.55984e+09
7.80833e+09
4.61841e+09
7.57307e+09
5.66566e+09
4.82578e+09
4.82745e+09
6.70874e+09
4.42251e+09
5.9352e+09
5.90973e+09
5.84498e+09
4.09165e+09
4.71716e+09
4.34326e+09
4.02875e+09
5.14664e+09
6.56441e+09
5.91719e+09
6.02462e+09
5.33505e+09
5.01928e+09
5.92929e+09
5.85332e+09
8.69657e+09
1.12544e+10
5.72093e+09
1.02412e+10
4.72665e+09
7.7768e+09
9.33568e+09
8.22105e+09
8.6818e+09
6.80356e+09
1.04748e+10
7.97201e+09
5.9329e+09
5.89197e+09
9.93714e+09
1.06431e+10
9.03969e+09
9.26295e+09
8.68733e+09
8.9168e+09
7.83147e+09
7.74887e+09
5.96292e+09
5.86968e+09
9.37561e+09
6.66607e+09
8.70072e+09
7.26982e+09
7.72358e+09
7.74127e+09
5.88634e+09
8.01977e+09
8.98803e+09
6.80129e+09
5.5838e+09
6.60139e+09
6.19128e+09
7.03229e+09
7.52972e+09
9.70794e+09
7.1069e+09
5.64306e+09
4.99879e+09
6.86352e+09
9.06379e+09
1.04715e+10
9.21265e+09
7.06788e+09
9.52851e+09
8.54663e+09
1.02792e+10
5.88144e+09
8.01446e+09
7.92945e+09
8.25206e+09
5.84197e+09
7.8138e+09
1.11251e+10
6.51671e+09
9.09636e+09
4.85886e+09
9.19608e+09
1.00787e+10
6.92176e+09
7.71695e+09
6.5287e+09
7.5849e+09
7.57108e+09
5.85471e+09
7.72542e+09
1.04793e+10
6.44192e+09
9.07438e+09
7.3963e+09
1.04369e+10
5.1203e+09
6.7459e+09
8.45392e+09
8.03013e+09
7.87906e+09
7.61439e+09
)
;

boundaryField
{
    inlet
    {
        type            calculated;
        value           uniform 0;
    }
    outlet
    {
        type            calculated;
        value           nonuniform 0();
    }
    wall
    {
        type            calculated;
        value           uniform 0;
    }
    procBoundary2to0
    {
        type            processor;
        value           nonuniform List<scalar> 
44
(
4.91051e+09
6.02899e+09
4.19786e+09
4.39247e+09
3.75709e+09
8.66944e+09
2.98831e+09
4.81716e+09
4.2762e+09
4.2762e+09
4.85359e+09
1.06886e+10
6.80745e+09
9.58042e+09
6.04208e+09
6.02078e+09
7.86352e+09
6.73159e+09
7.43364e+09
4.85359e+09
1.06886e+10
1.06886e+10
7.87116e+09
8.7272e+09
6.325e+09
5.26782e+09
6.83704e+09
8.32297e+09
9.3306e+09
8.42508e+09
9.94587e+09
7.87116e+09
8.7272e+09
8.7272e+09
5.65134e+09
2.69067e+09
4.77515e+09
6.51343e+09
9.46143e+09
1.00762e+10
5.37925e+09
9.82463e+09
8.62785e+09
5.65134e+09
)
;
    }
    procBoundary2to3
    {
        type            processor;
        value           nonuniform List<scalar> 
12
(
6.16443e+09
5.06301e+09
5.85906e+09
5.18532e+09
7.13895e+09
6.77317e+09
1.18863e+10
8.92755e+09
8.20544e+09
9.43437e+09
6.80006e+09
9.24669e+09
)
;
    }
    procBoundary2to6
    {
        type            processor;
        value           nonuniform List<scalar> 
32
(
8.14722e+09
6.50982e+09
8.70199e+09
6.95515e+09
7.37193e+09
6.98597e+09
9.82186e+09
8.75321e+09
5.92526e+09
7.64573e+09
1.07986e+10
5.3626e+09
9.14324e+09
8.14722e+09
6.50982e+09
6.6508e+09
6.29189e+09
9.08518e+09
8.1273e+09
9.6979e+09
9.2274e+09
8.46356e+09
6.50982e+09
6.95515e+09
9.04783e+09
5.54503e+09
8.07329e+09
6.90544e+09
6.93839e+09
9.88938e+09
6.95515e+09
1.08065e+10
)
;
    }
}


// ************************************************************************* //
