/*--------------------------------*- C++ -*----------------------------------*\
| =========                 |                                                 |
| \\      /  F ield         | OpenFOAM: The Open Source CFD Toolbox           |
|  \\    /   O peration     | Version:  4.x                                   |
|   \\  /    A nd           | Web:      www.OpenFOAM.org                      |
|    \\/     M anipulation  |                                                 |
\*---------------------------------------------------------------------------*/
FoamFile
{
    version     2.0;
    format      ascii;
    class       volScalarField;
    location    "3.5";
    object      Sm;
}
// * * * * * * * * * * * * * * * * * * * * * * * * * * * * * * * * * * * * * //

dimensions      [1 -3 -1 0 0 0 0];

internalField   nonuniform List<scalar> 
114
(
6.49992e-65
4.87511e-65
2.55334e-65
4.87732e-65
2.24661e-65
2.63483e-65
5.73322e-65
6.50532e-65
5.10981e-65
3.8695e-65
6.19098e-65
4.41066e-65
6.19303e-65
6.11891e-65
3.95192e-65
4.02938e-65
5.65449e-65
2.78748e-65
5.18621e-65
3.87033e-65
5.18598e-65
2.78757e-65
4.64731e-65
3.09914e-65
4.41658e-65
4.261e-65
3.87319e-65
4.56908e-65
3.33e-65
3.79465e-65
2.71075e-65
4.49291e-65
3.09926e-65
8.43292e-65
9.75094e-65
5.73271e-65
9.37602e-65
5.42292e-65
6.81453e-65
7.66221e-65
7.42772e-65
7.03978e-65
6.5757e-65
8.97519e-65
7.59074e-65
5.19108e-65
6.0435e-65
8.59667e-65
8.28399e-65
7.58437e-65
7.35146e-65
7.35232e-65
7.04423e-65
7.12502e-65
6.27493e-65
5.88872e-65
5.18983e-65
6.96948e-65
5.80635e-65
6.88975e-65
5.88355e-65
5.88457e-65
6.50578e-65
4.26088e-65
7.58876e-65
7.97956e-65
7.28193e-65
4.95555e-65
5.4939e-65
5.7242e-65
5.87823e-65
7.11643e-65
8.35672e-65
6.58143e-65
4.88041e-65
5.34568e-65
6.04029e-65
7.12047e-65
9.05297e-65
7.272e-65
6.42189e-65
7.50707e-65
7.43347e-65
8.36594e-65
5.34595e-65
7.5126e-65
6.0395e-65
6.96585e-65
4.64392e-65
6.50165e-65
8.28383e-65
4.9561e-65
6.66187e-65
4.8025e-65
8.12857e-65
8.35651e-65
6.5745e-65
6.41843e-65
6.26436e-65
6.26687e-65
7.7418e-65
6.89524e-65
6.8914e-65
8.35919e-65
5.80264e-65
7.19385e-65
6.88522e-65
8.35784e-65
5.26855e-65
6.50552e-65
6.2707e-65
7.12027e-65
5.49433e-65
6.34593e-65
)
;

boundaryField
{
    inlet
    {
        type            calculated;
        value           uniform 0;
    }
    outlet
    {
        type            calculated;
        value           nonuniform 0();
    }
    wall
    {
        type            calculated;
        value           uniform 0;
    }
    procBoundary2to0
    {
        type            processor;
        value           nonuniform List<scalar> 
44
(
4.71973e-65
4.25567e-65
4.33344e-65
3.25198e-65
4.18347e-65
7.20801e-65
2.86674e-65
4.41388e-65
3.25185e-65
3.25185e-65
4.56337e-65
9.12712e-65
6.57634e-65
8.28354e-65
5.88624e-65
5.11523e-65
8.05656e-65
6.11703e-65
6.11304e-65
4.56337e-65
9.12712e-65
9.12712e-65
7.11528e-65
7.11901e-65
6.34988e-65
4.57137e-65
7.28169e-65
7.5865e-65
7.65938e-65
7.96621e-65
8.35224e-65
7.11528e-65
7.11901e-65
7.11901e-65
5.41756e-65
2.32382e-65
5.26762e-65
5.88369e-65
7.81436e-65
9.20316e-65
4.40737e-65
9.20285e-65
7.11815e-65
5.41756e-65
)
;
    }
    procBoundary2to3
    {
        type            processor;
        value           nonuniform List<scalar> 
12
(
6.97785e-65
5.03876e-65
5.50318e-65
4.65006e-65
7.52045e-65
6.5114e-65
1.03846e-64
7.7495e-65
7.67368e-65
8.98974e-65
5.65567e-65
7.98064e-65
)
;
    }
    procBoundary2to6
    {
        type            processor;
        value           nonuniform List<scalar> 
32
(
6.738e-65
6.03893e-65
7.12607e-65
5.10935e-65
5.80782e-65
4.95778e-65
1.03799e-64
7.58762e-65
4.95232e-65
7.42499e-65
9.35725e-65
5.5688e-65
7.8907e-65
6.738e-65
6.03893e-65
6.50211e-65
5.80977e-65
7.89857e-65
6.42359e-65
8.51025e-65
7.34906e-65
7.58179e-65
6.03893e-65
5.10935e-65
7.27418e-65
4.95873e-65
7.20237e-65
5.41983e-65
6.11409e-65
7.58428e-65
5.10935e-65
8.74477e-65
)
;
    }
}


// ************************************************************************* //
