/*--------------------------------*- C++ -*----------------------------------*\
  =========                 |
  \\      /  F ield         | OpenFOAM: The Open Source CFD Toolbox
   \\    /   O peration     | Website:  https://openfoam.org
    \\  /    A nd           | Version:  4.x
     \\/     M anipulation  |
\*---------------------------------------------------------------------------*/
FoamFile
{
    version     2.0;
    format      ascii;
    class       Cloud<passiveParticle>;
    location    0;
    object      positions;
}
// * * * * * * * * * * * * * * * * * * * * * * * * * * * * * * * * * * * * * //

302
(
( 0.253024 0.0900613 -0.0560371 ) 63
( 0.250564 0.0316046 -0.0549856 ) 45
( 0.250386 0.0300035 -0.0351959 ) 81
( 0.254161 0.0692915 -0.0505359 ) 54
( 0.251155 0.0682373 -0.0700697 ) 54
( 0.250642 0.0107704 -0.0753133 ) 0
( 0.250209 0.0359356 -0.0744049 ) 9
( 0.256104 0.0313028 -0.0150887 ) 81
( 0.381254 -0.0139654 -0.0338299 ) 76
( 0.421112 -0.0111108 -0.0808566 ) 6
( 0.47371 -0.00616932 -0.0415445 ) 80
( 0.324638 -0.0105134 -0.0764269 ) 2
( 0.404061 -0.00382224 -0.0735893 ) 5
( 0.490063 -0.0109759 -0.0578753 ) 44
( 0.371805 -0.00591816 -0.04931 ) 40
( 0.468871 -0.00178917 -0.0855465 ) 7
( 0.342739 -0.00284259 -0.0731392 ) 3
( 0.334778 -0.0140255 -0.032883 ) 75
( 0.439368 -0.00179027 -0.0578662 ) 42
( 0.321743 -0.011807 -0.0474558 ) 38
( 0.360908 -0.000880573 -0.065169 ) 39
( 0.310747 -0.00597814 -0.0628468 ) 38
( 0.354328 -0.0122691 -0.0387258 ) 75
( 0.272234 -0.00317519 -0.0685535 ) 36
( 0.283943 -0.0122308 -0.0390123 ) 73
( 0.43676 0.000620717 -0.0773921 ) 6
( 0.490044 -0.0122298 -0.0777661 ) 8
( 0.302514 -0.00849637 -0.0445321 ) 37
( 0.394224 -0.00441272 -0.0448742 ) 41
( 0.47241 -0.0116074 -0.0685112 ) 44
( 0.27548 -0.010074 -0.0201374 ) 72
( 0.47309 -0.0126313 -0.021233 ) 80
( 0.387716 0.0265421 -0.0548368 ) 49
( 0.304009 0.0718542 -0.0648556 ) 64
( 0.337133 0.06393 -0.0468226 ) 57
( 0.325626 0.0164944 -0.0485028 ) 47
( 0.443447 0.0376346 -0.0467037 ) 51
( 0.286762 0.064669 -0.0583287 ) 55
( 0.331347 0.0508304 -0.0605905 ) 56
( 0.455464 0.0130018 -0.0859333 ) 7
( 0.369747 0.0348565 -0.0532906 ) 49
( 0.490044 0.0227696 -0.0532156 ) 53
( 0.324614 0.0376367 -0.0747211 ) 11
( 0.293369 0.0258588 -0.0575722 ) 46
( 0.379306 0.00961602 -0.0642904 ) 40
( 0.470536 0.068701 -0.0578162 ) 61
( 0.431438 0.0710965 -0.0625295 ) 60
( 0.456089 0.0710605 -0.0785455 ) 25
( 0.342846 0.0322438 -0.0689721 ) 48
( 0.320232 0.0460792 -0.044737 ) 56
( 0.301113 0.0613423 -0.045217 ) 55
( 0.368821 0.0542652 -0.0494162 ) 58
( 0.353861 0.045508 -0.0592409 ) 57
( 0.324489 0.0853678 -0.0375794 ) 101
( 0.35319 0.0835897 -0.0695131 ) 66
( 0.452591 0.0772049 -0.0555879 ) 70
( 0.286622 0.0901329 -0.0312502 ) 100
( 0.417232 0.0203405 -0.0480746 ) 51
( 0.334489 0.0725809 -0.0645678 ) 66
( 0.388335 0.0701542 -0.0536557 ) 58
( 0.471242 0.0901295 -0.0645234 ) 70
( 0.474013 0.0680518 -0.0382234 ) 98
( 0.48995 0.0146736 -0.0838949 ) 17
( 0.265458 0.0160626 -0.0366483 ) 81
( 0.39999 0.0667066 -0.0694501 ) 59
( 0.327185 0.0285197 -0.03218 ) 83
( 0.349345 0.0641068 -0.0205497 ) 93
( 0.395612 0.013736 -0.0780024 ) 5
( 0.306437 0.0317664 -0.04034 ) 83
( 0.303063 0.0349226 -0.0724188 ) 10
( 0.458184 0.0434201 -0.0606567 ) 61
( 0.272636 0.0513303 -0.0543584 ) 54
( 0.411046 0.0510379 -0.0599735 ) 59
( 0.457354 0.0242689 -0.051539 ) 52
( 0.430502 0.0824936 -0.078786 ) 33
( 0.365797 0.0410864 -0.0348603 ) 85
( 0.316128 0.0314624 -0.0577196 ) 47
( 0.473534 0.0304655 -0.0613788 ) 53
( 0.366733 0.0115037 -0.0796779 ) 4
( 0.290981 0.0900343 -0.0505639 ) 64
( 0.269235 0.0164637 -0.0711065 ) 45
( 0.405376 0.0262712 -0.0641103 ) 50
( 0.474281 0.0474052 -0.0501003 ) 62
( 0.4412 0.0387057 -0.0696044 ) 51
( 0.41964 0.0138364 -0.0704225 ) 42
( 0.346567 0.0806627 -0.0509555 ) 66
( 0.438844 0.0558635 -0.0404914 ) 96
( 0.43749 0.0204448 -0.0764043 ) 15
( 0.478485 0.0748816 -0.075084 ) 35
( 0.334674 0.0338906 -0.0508328 ) 48
( 0.380843 0.0381304 -0.0694484 ) 49
( 0.460909 0.0406583 -0.0375824 ) 88
( 0.401549 0.083689 -0.0593874 ) 68
( 0.363338 0.0533919 -0.0747887 ) 22
( 0.280525 0.068229 -0.0395725 ) 91
( 0.422476 0.0628992 -0.0782486 ) 24
( 0.371515 0.0898793 -0.074279 ) 31
( 0.397032 0.0211299 -0.0382336 ) 86
( 0.347229 0.0156466 -0.0790498 ) 12
( 0.3528 0.0296466 -0.044305 ) 48
( 0.273581 0.0789395 -0.0547149 ) 63
( 0.489972 0.0338984 -0.0785463 ) 17
( 0.385222 0.0737781 -0.0844594 ) 31
( 0.458183 0.029113 -0.0744361 ) 16
( 0.424253 0.0430597 -0.0792831 ) 24
( 0.28751 0.0824474 -0.0685849 ) 64
( 0.430963 0.0736788 -0.0429465 ) 69
( 0.490014 0.0898023 -0.0822936 ) 35
( 0.29365 0.0526727 -0.0725934 ) 19
( 0.326641 0.00583919 -0.0652086 ) 38
( 0.293845 0.0110469 -0.0709266 ) 37
( 0.351113 0.0159395 -0.0300936 ) 84
( 0.490038 0.0537431 -0.0821456 ) 26
( 0.413097 0.0679719 -0.0496239 ) 59
( 0.319439 0.0690857 -0.0771137 ) 20
( 0.457921 0.0583146 -0.0463226 ) 61
( 0.380943 0.00957616 -0.0399952 ) 76
( 0.473283 0.0107617 -0.0537297 ) 44
( 0.472267 0.0135783 -0.0733546 ) 8
( 0.284069 0.021098 -0.0407865 ) 82
( 0.269377 0.0318468 -0.0485223 ) 45
( 0.361878 0.0187484 -0.0617718 ) 49
( 0.472151 0.0230641 -0.0383421 ) 88
( 0.308292 0.0495549 -0.0293353 ) 92
( 0.371107 0.072918 -0.0630312 ) 67
( 0.437784 0.0900974 -0.0616376 ) 69
( 0.42899 0.00665421 -0.0395948 ) 78
( 0.488689 0.0765097 -0.0485569 ) 71
( 0.391345 0.050823 -0.0566879 ) 59
( 0.474881 0.0497664 -0.0697997 ) 62
( 0.406235 0.0515166 -0.0806237 ) 23
( 0.398466 0.0717177 -0.0366387 ) 104
( 0.392529 0.0901387 -0.0758664 ) 32
( 0.412567 0.0900767 -0.0746822 ) 32
( 0.274073 0.00935081 -0.053215 ) 36
( 0.436571 0.0198982 -0.0540183 ) 51
( 0.444155 0.0900528 -0.0430164 ) 69
( 0.356265 0.00636942 -0.0472135 ) 39
( 0.329861 0.0900798 -0.0560691 ) 65
( 0.4902 0.0413614 -0.060131 ) 53
( 0.433078 0.0252978 -0.0351726 ) 87
( 0.342674 0.0155041 -0.0583574 ) 48
( 0.363871 0.0727427 -0.0445349 ) 67
( 0.490256 0.0379979 -0.0405833 ) 89
( 0.469765 0.090045 -0.0846154 ) 34
( 0.419506 0.0507315 -0.0419125 ) 96
( 0.283639 0.0519601 -0.021984 ) 91
( 0.425805 0.090287 -0.0339655 ) 105
( 0.363656 0.0902197 -0.0539812 ) 67
( 0.300646 0.0105974 -0.0394771 ) 73
( 0.265906 0.0902206 -0.0403586 ) 99
( 0.300866 0.0440534 -0.0548717 ) 55
( 0.342954 0.0554618 -0.0760189 ) 21
( 0.352832 0.0652248 -0.0617894 ) 57
( 0.398396 0.00855924 -0.0590286 ) 41
( 0.382953 0.0900407 -0.0580118 ) 67
( 0.417446 0.00158976 -0.0549387 ) 42
( 0.448768 0.00808016 -0.0435401 ) 43
( 0.295729 0.0668499 -0.0271141 ) 91
( 0.385465 0.0566788 -0.0387071 ) 94
( 0.490534 0.0901585 -0.062402 ) 71
( 0.399117 0.0329764 -0.0817945 ) 14
( 0.308409 0.0129567 -0.0574562 ) 38
( 0.49013 0.0523916 -0.0263982 ) 98
( 0.490056 0.0903493 -0.0346556 ) 107
( 0.270869 0.0663189 -0.0699643 ) 54
( 0.307798 0.0800182 -0.0471032 ) 65
( 0.464347 0.0900767 -0.0459518 ) 70
( 0.322094 0.0657542 -0.0340198 ) 92
( 0.490101 0.00457512 -0.0450024 ) 44
( 0.490015 0.0627437 -0.064358 ) 62
( 0.266468 0.0471538 -0.0728027 ) 18
( 0.431035 0.0512662 -0.0580954 ) 60
( 0.347274 0.0904298 -0.0339377 ) 102
( 0.311634 0.0901588 -0.0638682 ) 65
( 0.405512 0.0902545 -0.0410598 ) 104
( 0.490361 0.0573056 -0.0452964 ) 62
( 0.382694 0.0575936 -0.0732202 ) 22
( 0.455441 0.0495116 -0.0793861 ) 25
( 0.473245 0.0276683 -0.0874335 ) 17
( 0.267412 0.090121 -0.0698154 ) 63
( 0.381466 0.0825117 -0.039688 ) 103
( 0.452382 0.0119126 -0.0662995 ) 43
( 0.445217 0.0893686 -0.0903707 ) 34
( 0.375223 0.0248492 -0.0286606 ) 85
( 0.335251 0.0900467 -0.0751665 ) 30
( 0.453678 0.0899906 -0.0728065 ) 34
( 0.318698 0.0646658 -0.0536404 ) 56
( 0.287001 0.0479861 -0.0411204 ) 91
( 0.447844 0.059973 -0.0642082 ) 61
( 0.315851 0.0197561 -0.0745858 ) 11
( 0.474024 0.0715792 -0.0148914 ) 107
( 0.39345 0.0606446 -0.0209838 ) 95
( 0.410641 0.0815347 -0.0243043 ) 104
( 0.317546 0.0369815 -0.0169104 ) 83
( 0.455553 0.0776488 -0.0162604 ) 106
( 0.390662 0.0155851 -0.0202894 ) 86
( 0.490005 0.0185252 -0.0308292 ) 89
( 0.323776 0.0606418 -0.0149794 ) 92
( 0.363349 0.0818011 -0.0270315 ) 103
( 0.407733 0.0246515 -0.0171577 ) 86
( 0.440612 0.00383647 -0.0235432 ) 78
( 0.466807 0.0229627 -0.019243 ) 88
( 0.348695 0.0850761 -0.0144357 ) 102
( 0.380669 0.0455503 -0.0230208 ) 94
( 0.447777 0.0607662 -0.0235543 ) 97
( 0.431112 0.0440338 -0.0265491 ) 96
( 0.393006 0.0902446 -0.0254563 ) 104
( 0.414782 0.043031 -0.015522 ) 95
( 0.458261 0.00596822 -0.0147287 ) 79
( 0.490069 0.0721743 -0.0271402 ) 107
( 0.439585 0.0251589 -0.0164827 ) 87
( 0.305801 0.0221493 -0.0230871 ) 83
( 0.423877 0.0142648 -0.0212932 ) 78
( 0.269732 0.0900765 -0.020805 ) 99
( 0.333311 0.0124335 -0.0221215 ) 74
( 0.414989 0.0620401 -0.0262665 ) 95
( 0.330985 0.0782706 -0.020308 ) 101
( 0.270612 0.0348218 -0.028914 ) 81
( 0.3807 0.0750929 -0.0213522 ) 103
( 0.471477 0.0895537 -0.0275568 ) 106
( 0.490082 0.0899576 -0.0146755 ) 107
( 0.259602 0.046891 -0.040048 ) 90
( 0.255993 -0.000336943 -0.0572445 ) 36
( 0.459527 -0.00334751 -0.0558734 ) 43
( 0.321445 -0.00175432 -0.0157207 ) 74
( 0.362329 0.0334484 -0.075177 ) 13
( 0.419514 0.0900543 -0.0548319 ) 69
( 0.318756 0.00539604 -0.0337831 ) 74
( 0.489743 0.00725827 -0.0654224 ) 44
( 0.409376 0.00580112 -0.0368642 ) 77
( 0.280289 0.0330533 -0.0706231 ) 46
( 0.265886 0.0564128 -0.0145051 ) 90
( 0.44277 0.0903549 -0.0234655 ) 105
( 0.474713 0.00637071 -0.0261929 ) 80
( 0.262406 0.0722977 -0.032746 ) 99
( 0.387728 -0.00839541 -0.0631398 ) 40
( 0.423746 0.0332094 -0.0620229 ) 51
( 0.269023 0.0104234 -0.0179969 ) 72
( 0.428039 -0.0127967 -0.0421486 ) 78
( 0.266175 -0.00364042 -0.0404565 ) 72
( 0.396599 -0.00297054 -0.0244291 ) 77
( 0.337323 0.000505853 -0.0461985 ) 39
( 0.254425 -0.00878508 -0.0752716 ) 0
( 0.331314 0.0476145 -0.0280911 ) 92
( 0.455485 0.0751432 -0.0359472 ) 106
( 0.376946 -0.00562732 -0.0796097 ) 4
( 0.31302 0.0524008 -0.0681849 ) 56
( 0.402906 0.0374084 -0.0478953 ) 50
( 0.2532 0.0510279 -0.058406 ) 54
( 0.288911 -0.00309482 -0.0578134 ) 37
( 0.348976 0.0495992 -0.0405006 ) 93
( 0.31385 -0.0138324 -0.0291996 ) 74
( 0.415458 0.0333739 -0.0331458 ) 86
( 0.347368 -0.00227165 -0.0230171 ) 75
( 0.490143 -0.00980455 -0.0310396 ) 80
( 0.290465 0.0340743 -0.0274513 ) 82
( 0.277702 0.0714171 -0.0199938 ) 90
( 0.368043 0.0606161 -0.0266619 ) 94
( 0.36535 0.00205937 -0.0302631 ) 76
( 0.452259 0.0238689 -0.0322141 ) 88
( 0.305809 0.085443 -0.0281105 ) 101
( 0.47701 0.0378412 -0.0261711 ) 89
( 0.250435 0.0141114 -0.0235211 ) 72
( 0.420202 -0.00485972 -0.0242584 ) 78
( 0.350207 0.0418099 -0.0224501 ) 84
( 0.468218 0.0552732 -0.0242783 ) 97
( 0.295222 -0.0110146 -0.0230411 ) 73
( 0.431909 0.0737031 -0.0229942 ) 105
( 0.286672 0.00672242 -0.0261926 ) 73
( 0.456908 -0.00495696 -0.0311008 ) 79
( 0.39959 0.04366 -0.0284305 ) 95
( 0.449927 0.0412108 -0.0212672 ) 88
( 0.346356 -0.0137501 -0.0569009 ) 39
( 0.281752 -0.0119577 -0.083654 ) 1
( 0.470926 0.0602025 -0.0862944 ) 25
( 0.380535 0.0250695 -0.0844892 ) 13
( 0.384006 0.044405 -0.0881077 ) 22
( 0.30038 0.0676382 -0.083978 ) 19
( 0.347408 0.039429 -0.0869859 ) 12
( 0.445141 0.0342709 -0.0886273 ) 16
( 0.275719 0.0792462 -0.084319 ) 27
( 0.28299 0.0196969 -0.0851958 ) 10
( 0.329428 0.00857981 -0.0847299 ) 2
( 0.278831 0.056461 -0.0853557 ) 19
( 0.3641 0.0721278 -0.0816502 ) 31
( 0.302166 0.0873554 -0.0811687 ) 28
( 0.311151 0.0459344 -0.0869366 ) 20
( 0.266407 0.0307647 -0.0847435 ) 9
( 0.34315 0.073841 -0.0837031 ) 30
( 0.357015 0.0900332 -0.087968 ) 30
( 0.408055 0.0742885 -0.0860185 ) 32
( 0.253441 0.090065 -0.0839784 ) 27
( 0.417202 0.0257348 -0.0862026 ) 15
( 0.308715 0.00220773 -0.0808808 ) 2
( 0.43808 0.0547909 -0.0876413 ) 24
( 0.260945 0.0656243 -0.0872396 ) 18
( 0.290017 0.0392371 -0.0868877 ) 10
( 0.302274 0.0234321 -0.0887094 ) 10
( 0.320642 0.088368 -0.0886101 ) 29
( 0.265869 0.00373436 -0.0861257 ) 0
( 0.328194 0.0560278 -0.0894015 ) 20
)
