/*--------------------------------*- C++ -*----------------------------------*\
| =========                 |                                                 |
| \\      /  F ield         | OpenFOAM: The Open Source CFD Toolbox           |
|  \\    /   O peration     | Version:  4.x                                   |
|   \\  /    A nd           | Web:      www.OpenFOAM.org                      |
|    \\/     M anipulation  |                                                 |
\*---------------------------------------------------------------------------*/
FoamFile
{
    version     2.0;
    format      ascii;
    class       volVectorField;
    location    "55.5";
    object      DDtUrel;
}
// * * * * * * * * * * * * * * * * * * * * * * * * * * * * * * * * * * * * * //

dimensions      [0 1 -2 0 0 0 0];

internalField   nonuniform List<vector> 
132
(
(0.00184825 -6.26748e-05 -0.000176269)
(0.0012345 -3.39769e-05 -9.82171e-05)
(0.000859079 -7.32716e-06 -3.76533e-05)
(0.000651571 9.35985e-06 -1.07288e-06)
(0.000505511 1.88729e-05 1.65989e-05)
(0.000423178 2.28629e-05 2.36988e-05)
(0.000348972 2.67872e-05 2.16301e-05)
(0.000323323 3.21558e-05 2.24109e-05)
(0.000277008 4.22378e-05 1.46187e-05)
(0.00181485 -7.67425e-05 -0.000179571)
(0.00118983 -3.85023e-05 -9.78593e-05)
(0.000811434 -9.25029e-06 -3.87706e-05)
(0.000601913 7.5455e-06 -2.78946e-06)
(0.000457335 1.57123e-05 1.65635e-05)
(0.000379268 1.689e-05 2.50938e-05)
(0.000306523 1.4049e-05 2.49362e-05)
(0.0002774 1.94065e-05 2.55622e-05)
(0.000225051 2.28888e-05 1.52075e-05)
(0.00178119 -5.39334e-05 -0.000182555)
(0.00114616 -2.63437e-05 -9.74125e-05)
(0.000765012 -7.72638e-06 -3.81717e-05)
(0.000548164 6.29629e-06 -2.32709e-06)
(0.000405994 1.16452e-05 1.71578e-05)
(0.000327239 1.20243e-05 2.90739e-05)
(0.000256585 1.13587e-05 3.22179e-05)
(0.000220931 1.21964e-05 3.19201e-05)
(0.000172041 1.23604e-05 1.85006e-05)
(0.00176965 -2.31547e-05 -0.000179992)
(0.00113273 -8.036e-06 -9.49317e-05)
(0.000749403 -2.57151e-06 -3.60463e-05)
(0.00178778 -6.78397e-05 -0.00018944)
(0.00114783 -3.52482e-05 -9.45883e-05)
(0.000760545 -9.68197e-06 -3.25713e-05)
(0.000543918 6.65925e-06 6.75939e-06)
(0.000400963 1.73538e-05 2.05046e-05)
(0.000322867 2.23441e-05 2.84129e-05)
(0.000254805 2.71816e-05 2.62248e-05)
(0.000226858 3.08608e-05 2.7773e-05)
(0.00017805 3.38229e-05 1.73733e-05)
(0.00174966 -8.17029e-05 -0.000194574)
(0.00109895 -3.84894e-05 -9.45076e-05)
(0.000710766 -1.01443e-05 -3.26574e-05)
(0.000492346 6.18791e-06 6.214e-06)
(0.000351686 1.46886e-05 2.03238e-05)
(0.000277196 1.85403e-05 2.90141e-05)
(0.000212673 1.83106e-05 2.67379e-05)
(0.000186877 2.17982e-05 2.84396e-05)
(0.00014332 1.9759e-05 1.71633e-05)
(0.00171217 -5.54591e-05 -0.000200491)
(0.00105417 -2.53392e-05 -9.57683e-05)
(0.000665201 -7.09699e-06 -3.2597e-05)
(0.00044457 5.49527e-06 7.66952e-06)
(0.000308082 9.91093e-06 2.10385e-05)
(0.000233358 1.33798e-05 3.31027e-05)
(0.000174969 1.15728e-05 2.87314e-05)
(0.000148309 1.23027e-05 2.97353e-05)
(0.000111928 9.89779e-06 1.77267e-05)
(0.00170083 -1.84311e-05 -0.000203816)
(0.00104051 -7.9961e-06 -9.59654e-05)
(0.000649805 -1.24232e-06 -3.14509e-05)
(0.000430984 2.37979e-06 8.12183e-06)
(0.000294452 1.38632e-06 2.12123e-05)
(0.00174129 -7.64181e-05 -0.000174455)
(0.00108081 -3.86062e-05 -8.75768e-05)
(0.000686358 -1.06068e-05 -3.33395e-05)
(0.000466313 6.43361e-06 1.90093e-06)
(0.000324018 1.66704e-05 1.29331e-05)
(0.000250612 2.21152e-05 2.13652e-05)
(0.000185007 2.54288e-05 1.63237e-05)
(0.000159467 2.9976e-05 1.65131e-05)
(0.000108756 3.09251e-05 6.84288e-06)
(0.00169826 -9.18264e-05 -0.000179254)
(0.00102899 -4.23245e-05 -8.68373e-05)
(0.0006351 -1.11203e-05 -3.07092e-05)
(0.000415291 7.39245e-06 4.63016e-06)
(0.000278074 1.49337e-05 1.37453e-05)
(0.00020825 2.11123e-05 2.19406e-05)
(0.000149445 1.82759e-05 1.82271e-05)
(0.000129137 2.17045e-05 1.87099e-05)
(8.83779e-05 1.67597e-05 8.19215e-06)
(0.00165547 -6.53891e-05 -0.000183455)
(0.000978254 -2.90131e-05 -8.74004e-05)
(0.000587158 -7.74991e-06 -2.97086e-05)
(0.000368423 6.12392e-06 7.43511e-06)
(0.000240289 8.79621e-06 1.56906e-05)
(0.000170535 1.31936e-05 2.72938e-05)
(0.000121247 1.02261e-05 2.02365e-05)
(9.58646e-05 1.08036e-05 2.16062e-05)
(6.43071e-05 8.53212e-06 1.04402e-05)
(0.00164044 -2.10121e-05 -0.000183046)
(0.00096092 -9.57399e-06 -8.62112e-05)
(0.000570481 -3.33185e-06 -2.82491e-05)
(0.000355858 -2.12341e-09 8.34613e-06)
(0.000228418 -2.97058e-07 1.53716e-05)
(0.000163237 3.93069e-07 2.47954e-05)
(0.000113696 1.03327e-06 1.98202e-05)
(0.00171432 -8.3987e-05 -0.000131852)
(0.00104076 -4.07971e-05 -6.73062e-05)
(0.000639131 -1.02246e-05 -2.76469e-05)
(0.000411568 7.88417e-06 -2.28903e-07)
(0.000268702 1.51486e-05 7.77919e-06)
(0.000189373 2.00152e-05 1.46987e-05)
(0.00012564 2.28313e-05 1.25892e-05)
(9.41462e-05 2.67268e-05 1.65936e-05)
(4.55202e-05 2.36819e-05 1.52083e-05)
(0.00166486 -9.86453e-05 -0.000133798)
(0.000982054 -4.3953e-05 -6.55588e-05)
(0.000584372 -1.09753e-05 -2.51021e-05)
(0.000361328 8.82956e-06 2.33034e-06)
(0.000228195 1.39192e-05 8.89743e-06)
(0.000155078 2.22848e-05 1.48878e-05)
(0.000102045 1.82957e-05 1.2533e-05)
(7.50755e-05 2.2921e-05 1.29198e-05)
(4.16106e-05 1.68497e-05 1.00181e-05)
(0.00161944 -6.40527e-05 -0.000133877)
(0.000929214 -2.82384e-05 -6.25665e-05)
(0.000538634 -7.69709e-06 -2.27801e-05)
(0.000318082 6.82015e-06 3.66999e-06)
(0.000198513 8.09576e-06 9.52903e-06)
(0.000124441 1.29054e-05 1.4664e-05)
(8.52308e-05 9.62923e-06 1.2742e-05)
(5.13796e-05 9.87727e-06 1.35876e-05)
(3.20425e-05 7.69061e-06 7.199e-06)
(0.00160941 -1.47586e-05 -0.000133684)
(0.000917135 -4.33803e-06 -6.363e-05)
(0.000526231 -1.44627e-06 -2.32133e-05)
(0.000312256 1.07203e-06 2.08889e-06)
(0.000189514 4.14729e-07 9.27082e-06)
(0.000123711 -1.2191e-06 1.54952e-05)
(7.84903e-05 1.91036e-07 1.24763e-05)
(5.03694e-05 4.33868e-07 1.33913e-05)
(2.90143e-05 -8.94267e-08 6.42984e-06)
)
;

boundaryField
{
    inlet
    {
        type            calculated;
        value           nonuniform List<vector> 
16
(
(0.00412394 -9.67513e-05 -0.000378703)
(0.00404094 -0.000298382 -0.000399402)
(0.00398214 -0.000163146 -0.000420478)
(0.00401228 -0.00011673 -0.000398917)
(0.00393569 -0.000120583 -0.000567335)
(0.00381385 -0.000328814 -0.000609306)
(0.00372622 -0.000160359 -0.000654883)
(0.00376293 -5.03321e-05 -0.000720199)
(0.00395334 -0.000154914 -0.000525844)
(0.00381066 -0.000390548 -0.000572885)
(0.00370152 -0.000272709 -0.000608548)
(0.0036772 -0.000101633 -0.00059643)
(0.00395855 -0.000191452 -0.00039332)
(0.00375873 -0.000437881 -0.000429204)
(0.00362962 -0.000204429 -0.000432695)
(0.00369995 -1.82074e-05 -0.000416462)
)
;
    }
    outlet
    {
        type            calculated;
        value           nonuniform 0();
    }
    wall
    {
        type            calculated;
        value           nonuniform List<vector> 
66
(
(0.00412394 -9.67513e-05 -0.000378703)
(0.00404094 -0.000298382 -0.000399402)
(0.00398214 -0.000163146 -0.000420478)
(0.00401228 -0.00011673 -0.000398917)
(0.000864316 -9.69735e-06 -5.37694e-05)
(0.000666148 -6.05753e-05 -3.51512e-05)
(0.000512747 -1.91859e-05 -2.48423e-05)
(0.000569892 2.0206e-05 -1.63062e-06)
(0.000763763 3.80789e-05 2.7806e-05)
(0.000568912 2.33573e-05 1.1994e-05)
(0.000443907 -5.83474e-06 1.57875e-05)
(0.000497898 -7.66626e-06 2.42755e-05)
(0.000933822 4.64841e-05 4.13977e-05)
(0.00073949 3.80547e-05 1.67547e-05)
(0.000510538 4.89923e-05 1.71419e-05)
(0.000766824 5.11452e-05 3.89039e-05)
(0.000575399 4.42496e-05 3.80726e-05)
(0.000392437 5.48152e-05 2.39804e-05)
(0.000838659 4.29809e-05 3.46572e-05)
(0.000699409 2.13991e-05 3.3438e-05)
(0.000464166 3.21718e-05 4.10719e-05)
(0.000609998 5.97199e-05 -1.17928e-05)
(0.000475571 -5.6704e-05 4.6582e-06)
(0.000270308 2.56395e-05 6.17211e-05)
(0.000826832 5.95805e-05 2.42457e-05)
(0.00066159 6.41926e-07 4.22478e-05)
(0.000309916 2.34697e-05 8.45039e-05)
(0.000764868 0.000142298 -9.25135e-06)
(0.000352196 -2.16e-06 -2.63451e-05)
(5.80095e-05 2.07692e-05 -3.79934e-05)
(0.00412394 -9.67513e-05 -0.000378703)
(0.00393569 -0.000120583 -0.000567335)
(0.00395334 -0.000154914 -0.000525844)
(0.00395855 -0.000191452 -0.00039332)
(0.000864316 -9.69735e-06 -5.37694e-05)
(0.000418668 3.7626e-06 1.15488e-06)
(0.000295067 9.44986e-07 -2.48055e-05)
(0.000242185 7.38965e-06 -1.84305e-05)
(0.000763763 3.80789e-05 2.7806e-05)
(0.000285572 1.72951e-05 5.8972e-05)
(0.000195682 2.25509e-05 1.91175e-07)
(0.0001413 3.6195e-05 -3.84121e-06)
(0.000933822 4.64841e-05 4.13977e-05)
(0.000370941 1.8932e-05 0.000130081)
(0.000300663 2.0445e-05 6.33619e-05)
(0.000171921 4.38969e-05 5.23763e-05)
(0.000766824 5.11452e-05 3.89039e-05)
(0.000257448 4.14059e-05 7.48775e-05)
(0.000175558 4.00551e-05 1.14242e-05)
(6.59804e-05 2.03444e-05 2.79875e-06)
(0.000838659 4.29809e-05 3.46572e-05)
(0.000344555 3.35242e-05 9.54153e-05)
(0.000321045 3.74639e-05 6.21081e-05)
(9.4289e-05 1.50031e-05 4.22265e-05)
(0.000609998 5.97199e-05 -1.17928e-05)
(0.000179387 6.41009e-05 5.7068e-05)
(0.000132473 4.57575e-05 -2.52254e-05)
(-6.02886e-05 4.18229e-05 -1.19797e-05)
(0.000826832 5.95805e-05 2.42457e-05)
(0.000327486 5.9614e-05 0.0001151)
(0.000327018 7.42429e-05 7.04185e-06)
(8.32042e-06 8.13825e-05 4.14605e-05)
(0.000764868 0.000142298 -9.25135e-06)
(0.000123847 6.50037e-05 4.37304e-05)
(3.68686e-05 8.91148e-05 -7.45155e-05)
(-0.000216899 2.65952e-05 4.50746e-05)
)
;
    }
    procBoundary0to1
    {
        type            processor;
        value           nonuniform List<vector> 
12
(
(0.000222771 4.74849e-05 1.07935e-05)
(0.000211726 2.89534e-05 1.33514e-05)
(0.000165517 1.75989e-05 1.8373e-05)
(0.000150891 3.5084e-05 1.10121e-05)
(0.000132257 2.47184e-05 1.44561e-05)
(9.92088e-05 1.20551e-05 1.80516e-05)
(9.38837e-05 3.15599e-05 2.9414e-06)
(8.1471e-05 2.22583e-05 7.56751e-06)
(4.69114e-05 1.08541e-05 4.16701e-06)
(1.81558e-05 2.81694e-05 1.31768e-05)
(2.17963e-05 1.95542e-05 8.53025e-06)
(8.24506e-06 8.40729e-06 4.35882e-06)
)
;
    }
    procBoundary0to2
    {
        type            processor;
        value           nonuniform List<vector> 
44
(
(0.000531447 1.06126e-06 -9.13158e-07)
(0.000389919 4.36658e-07 1.95822e-05)
(0.000315924 3.48204e-07 3.41951e-05)
(0.00024689 2.14807e-06 3.68621e-05)
(0.00022206 1.88742e-06 3.69233e-05)
(0.000171218 -3.86089e-06 2.69008e-05)
(0.00176863 1.7434e-05 -0.000172144)
(0.00112689 1.12027e-05 -9.41824e-05)
(0.000531447 1.06126e-06 -9.13158e-07)
(0.0007408 4.6958e-06 -3.30439e-05)
(0.000531447 1.06126e-06 -9.13158e-07)
(0.000389919 4.36658e-07 1.95822e-05)
(0.000225043 9.75627e-07 3.41699e-05)
(0.000167487 1.93418e-06 2.99336e-05)
(0.000148806 2.61975e-06 3.13713e-05)
(0.0001098 1.49179e-07 1.94163e-05)
(0.00170648 2.52455e-05 -0.000197318)
(0.00104214 1.24776e-05 -9.6237e-05)
(0.000650367 6.12841e-06 -3.24528e-05)
(0.000429994 -2.66756e-07 7.35161e-06)
(0.000225043 9.75627e-07 3.41699e-05)
(0.00029546 -6.54596e-06 2.02761e-05)
(0.000225043 9.75627e-07 3.41699e-05)
(0.000167487 1.93418e-06 2.99336e-05)
(9.10184e-05 4.09535e-06 1.97281e-05)
(6.09041e-05 4.61625e-07 1.03477e-05)
(0.00165002 2.87105e-05 -0.000178832)
(0.000965579 1.13361e-05 -8.27781e-05)
(0.000574612 3.37058e-06 -2.85278e-05)
(0.000355161 -4.14196e-06 7.21839e-06)
(0.000229526 -6.99216e-06 1.59454e-05)
(0.000158408 -1.19573e-05 2.6548e-05)
(9.10184e-05 4.09535e-06 1.97281e-05)
(0.000113789 -9.01591e-06 2.1698e-05)
(9.10184e-05 4.09535e-06 1.97281e-05)
(6.09041e-05 4.61625e-07 1.03477e-05)
(0.00162012 3.85565e-05 -0.000134764)
(0.000926619 1.76611e-05 -6.06092e-05)
(0.000536173 3.99366e-06 -2.34185e-05)
(0.000318977 -4.23023e-06 3.68643e-06)
(0.000195921 -6.46878e-06 1.03854e-05)
(0.000127568 -1.03157e-05 1.80747e-05)
(8.37277e-05 -9.09366e-06 1.23267e-05)
(5.84624e-05 -9.12486e-06 8.98882e-06)
)
;
    }
    procBoundary0to4
    {
        type            processor;
        value           nonuniform List<vector> 
36
(
(0.00171667 -8.75442e-05 -7.02784e-05)
(0.00103228 -4.22506e-05 -3.85074e-05)
(0.000625273 -1.10824e-05 -1.94893e-05)
(0.000395762 8.12059e-06 -1.78075e-06)
(0.000252706 1.56116e-05 4.21987e-06)
(0.000176906 1.92061e-05 8.52123e-06)
(0.000116503 1.74103e-05 1.03937e-05)
(9.40738e-05 1.71511e-05 1.79274e-05)
(4.94091e-05 1.50335e-05 1.94526e-05)
(0.00166624 -0.000101854 -6.60329e-05)
(0.000974037 -4.35271e-05 -3.49495e-05)
(0.000572094 -1.06526e-05 -1.70715e-05)
(0.000349561 8.92482e-06 -1.45622e-06)
(0.000214888 1.35875e-05 3.94162e-06)
(0.000144621 1.85459e-05 7.81979e-06)
(9.11394e-05 1.49762e-05 8.44405e-06)
(7.01007e-05 1.72444e-05 1.13109e-05)
(3.45212e-05 1.21383e-05 1.00241e-05)
(0.00162196 -6.95143e-05 -6.25858e-05)
(0.000922036 -3.03675e-05 -3.13768e-05)
(0.000528829 -8.51427e-06 -1.38614e-05)
(0.000311351 4.32069e-06 -5.32376e-07)
(0.00018619 7.86966e-06 3.93826e-06)
(0.000118547 1.25922e-05 4.47994e-06)
(7.28302e-05 9.42304e-06 5.91982e-06)
(4.82304e-05 1.04551e-05 5.60833e-06)
(2.41019e-05 6.02048e-06 3.53004e-06)
(0.00160731 -2.25252e-05 -6.52305e-05)
(0.000903811 -7.7488e-06 -3.18339e-05)
(0.000512698 -3.67319e-06 -1.49037e-05)
(0.000296435 1.71435e-07 -1.5791e-06)
(0.000174489 1.01501e-06 3.97732e-06)
(0.000106453 3.53969e-06 5.9771e-06)
(6.55264e-05 3.5104e-07 5.1124e-06)
(3.86505e-05 -1.67779e-06 5.05376e-06)
(1.98422e-05 -2.02608e-06 1.07832e-06)
)
;
    }
    procBoundary0to6
    {
        type            processor;
        value           uniform (3.65211e-05 -8.70804e-06 5.43261e-06);
    }
    procBoundary0to7
    {
        type            processor;
        value           uniform (1.25926e-05 9.60141e-07 3.771e-06);
    }
}


// ************************************************************************* //
