/*--------------------------------*- C++ -*----------------------------------*\
| =========                 |                                                 |
| \\      /  F ield         | OpenFOAM: The Open Source CFD Toolbox           |
|  \\    /   O peration     | Version:  4.x                                   |
|   \\  /    A nd           | Web:      www.OpenFOAM.org                      |
|    \\/     M anipulation  |                                                 |
\*---------------------------------------------------------------------------*/
FoamFile
{
    version     2.0;
    format      ascii;
    class       volScalarField;
    location    "55.5";
    object      particleRelTemp;
}
// * * * * * * * * * * * * * * * * * * * * * * * * * * * * * * * * * * * * * //

dimensions      [0 0 0 0 0 0 0];

internalField   nonuniform List<scalar> 
132
(
6.54729e-10
1.89548e-09
2.93934e-09
5.48694e-09
8.64708e-09
1.54783e-08
2.39711e-08
3.26355e-08
2.01894e-08
7.0839e-10
2.34376e-09
3.67033e-09
5.11628e-09
7.96897e-09
1.45045e-08
2.49245e-08
3.04302e-08
2.40425e-08
1.31647e-09
2.27618e-09
3.11876e-09
4.54261e-09
6.77095e-09
1.20368e-08
2.07984e-08
2.35601e-08
2.25402e-08
9.58344e-11
1.95635e-09
2.2097e-09
4.25689e-10
2.18371e-09
3.48567e-09
5.59143e-09
8.79424e-09
1.5697e-08
2.50551e-08
3.02781e-08
2.14287e-08
3.48999e-10
2.15133e-09
3.65933e-09
5.40261e-09
8.90564e-09
1.39524e-08
2.27975e-08
2.73229e-08
2.06504e-08
2.57707e-10
2.20297e-09
3.1621e-09
4.30143e-09
6.78496e-09
1.11812e-08
1.84236e-08
2.10478e-08
1.82998e-08
4.27369e-10
1.8456e-09
2.58507e-09
3.39677e-09
3.97105e-09
5.24802e-10
1.89592e-09
3.09034e-09
4.64687e-09
6.79993e-09
1.11307e-08
1.6618e-08
2.07643e-08
1.52326e-08
4.70629e-10
2.0017e-09
3.06583e-09
4.17749e-09
6.74751e-09
1.16903e-08
1.69954e-08
1.79264e-08
1.29532e-08
1.73756e-10
1.75611e-09
2.80788e-09
3.54653e-09
5.19519e-09
7.9081e-09
1.13455e-08
1.18081e-08
1.14747e-08
1.63982e-10
1.63906e-09
2.15403e-09
2.3957e-09
3.22515e-09
4.17111e-09
6.1457e-09
1.04674e-10
1.73681e-09
2.42194e-09
2.84019e-09
4.29792e-09
6.50142e-09
8.09301e-09
1.18727e-08
7.51084e-09
1.52201e-10
1.45546e-09
2.14548e-09
3.0069e-09
4.06873e-09
5.61183e-09
6.96701e-09
7.73247e-09
5.93248e-09
5.65318e-10
1.46219e-09
1.90226e-09
2.4247e-09
3.3314e-09
4.14904e-09
4.95601e-09
5.83662e-09
2.68141e-09
8.89511e-12
1.11541e-09
1.47313e-09
1.39549e-09
1.57636e-09
2.09231e-09
2.67134e-09
2.01539e-09
1.80006e-09
)
;

boundaryField
{
    inlet
    {
        type            calculated;
        value           nonuniform List<scalar> 
16
(
6.54729e-10
7.0839e-10
1.31647e-09
9.58344e-11
4.25689e-10
3.48999e-10
2.57707e-10
4.27369e-10
5.24802e-10
4.70629e-10
1.73756e-10
1.63982e-10
1.04674e-10
1.52201e-10
5.65318e-10
8.89511e-12
)
;
    }
    outlet
    {
        type            calculated;
        value           nonuniform 0();
    }
    wall
    {
        type            calculated;
        value           nonuniform List<scalar> 
66
(
6.54729e-10
7.0839e-10
1.31647e-09
9.58344e-11
1.89548e-09
2.34376e-09
2.27618e-09
1.95635e-09
2.93934e-09
3.67033e-09
3.11876e-09
2.2097e-09
5.48694e-09
5.11628e-09
4.54261e-09
8.64708e-09
7.96897e-09
6.77095e-09
1.54783e-08
1.45045e-08
1.20368e-08
2.39711e-08
2.49245e-08
2.07984e-08
3.26355e-08
3.04302e-08
2.35601e-08
2.01894e-08
2.40425e-08
2.25402e-08
6.54729e-10
4.25689e-10
5.24802e-10
1.04674e-10
1.89548e-09
2.18371e-09
1.89592e-09
1.73681e-09
2.93934e-09
3.48567e-09
3.09034e-09
2.42194e-09
5.48694e-09
5.59143e-09
4.64687e-09
2.84019e-09
8.64708e-09
8.79424e-09
6.79993e-09
4.29792e-09
1.54783e-08
1.5697e-08
1.11307e-08
6.50142e-09
2.39711e-08
2.50551e-08
1.6618e-08
8.09301e-09
3.26355e-08
3.02781e-08
2.07643e-08
1.18727e-08
2.01894e-08
2.14287e-08
1.52326e-08
7.51084e-09
)
;
    }
    procBoundary0to1
    {
        type            processor;
        value           nonuniform List<scalar> 
12
(
-3.60143e-09
7.87898e-09
7.42908e-09
4.87274e-09
5.13556e-09
6.83992e-09
2.72463e-09
9.66184e-10
3.82819e-09
9.72101e-10
-1.49197e-09
-1.56323e-09
)
;
    }
    procBoundary0to2
    {
        type            processor;
        value           nonuniform List<scalar> 
44
(
3.01777e-09
4.97161e-09
7.00587e-09
1.2155e-08
1.49896e-08
1.38182e-08
2.53644e-10
1.40386e-09
3.01777e-09
1.87596e-09
3.01777e-09
4.97161e-09
7.3671e-09
1.05733e-08
1.23803e-08
1.1546e-08
-9.45617e-11
1.26772e-09
1.97423e-09
2.19498e-09
7.3671e-09
2.3319e-09
7.3671e-09
1.05733e-08
7.8376e-09
6.24825e-09
2.67652e-11
1.06545e-09
1.57113e-09
1.53585e-09
1.95533e-09
2.35951e-09
7.8376e-09
2.78028e-09
7.8376e-09
6.24825e-09
-6.52259e-11
7.85707e-10
1.00974e-09
7.42799e-10
8.35387e-10
5.53545e-10
8.76879e-10
-7.6006e-10
)
;
    }
    procBoundary0to4
    {
        type            processor;
        value           nonuniform List<scalar> 
36
(
3.74748e-11
1.1039e-09
1.49592e-09
1.56302e-09
1.86664e-09
2.13964e-09
3.0419e-09
2.46248e-09
-1.99373e-13
-1.18139e-11
9.38763e-10
1.51083e-09
1.63298e-09
1.89584e-09
2.1667e-09
2.3592e-09
1.56163e-09
1.20883e-10
-9.7778e-11
9.66349e-10
1.39968e-09
1.34598e-09
1.30309e-09
1.01266e-09
7.53349e-10
5.30003e-10
-2.81583e-09
-2.18463e-10
6.8016e-10
7.57015e-10
6.56167e-10
6.29009e-10
4.05735e-10
-2.19817e-10
-1.87452e-09
-3.06346e-09
)
;
    }
    procBoundary0to6
    {
        type            processor;
        value           uniform -1.14815e-09;
    }
    procBoundary0to7
    {
        type            processor;
        value           uniform -2.66076e-09;
    }
}


// ************************************************************************* //
