/*--------------------------------*- C++ -*----------------------------------*\
| =========                 |                                                 |
| \\      /  F ield         | OpenFOAM: The Open Source CFD Toolbox           |
|  \\    /   O peration     | Version:  4.x                                   |
|   \\  /    A nd           | Web:      www.OpenFOAM.org                      |
|    \\/     M anipulation  |                                                 |
\*---------------------------------------------------------------------------*/
FoamFile
{
    version     2.0;
    format      ascii;
    class       volScalarField;
    location    "55.5";
    object      Sm;
}
// * * * * * * * * * * * * * * * * * * * * * * * * * * * * * * * * * * * * * //

dimensions      [1 -3 -1 0 0 0 0];

internalField   nonuniform List<scalar> 
132
(
5.50257e-65
4.41755e-65
3.10003e-65
2.86752e-65
3.79753e-65
4.03e-65
4.72748e-65
3.48745e-65
3.87497e-65
4.88256e-65
4.72755e-65
4.57254e-65
5.11504e-65
3.17752e-65
5.8125e-65
4.41747e-65
4.95993e-65
3.95246e-65
2.71253e-65
5.34756e-65
4.72755e-65
4.72754e-65
4.26253e-65
4.34001e-65
3.25498e-65
4.49496e-65
6.89745e-65
2.86754e-65
4.41755e-65
3.25503e-65
4.18505e-65
6.66507e-65
8.06008e-65
7.05256e-65
6.82004e-65
7.13e-65
5.73495e-65
6.4324e-65
6.27745e-65
5.42506e-65
7.98258e-65
6.27756e-65
7.20756e-65
7.28503e-65
7.13001e-65
7.05245e-65
7.74991e-65
7.05245e-65
5.89007e-65
8.13759e-65
6.82007e-65
6.27756e-65
7.36255e-65
5.89002e-65
8.29247e-65
6.04496e-65
4.95997e-65
8.0601e-65
6.12257e-65
6.12256e-65
4.72755e-65
8.99008e-65
5.96757e-65
6.82007e-65
7.28507e-65
6.74256e-65
6.58755e-65
5.19251e-65
7.05249e-65
6.89746e-65
4.72749e-65
6.43258e-65
7.05258e-65
6.43256e-65
5.96756e-65
7.36255e-65
5.73502e-65
7.36249e-65
8.83497e-65
8.215e-65
7.67259e-65
6.27757e-65
6.58757e-65
8.21508e-65
7.82757e-65
7.36255e-65
7.44002e-65
6.20002e-65
4.57251e-65
7.28509e-65
7.59508e-65
7.67258e-65
8.13759e-65
8.21508e-65
7.13007e-65
7.13006e-65
4.57256e-65
4.88255e-65
5.73506e-65
5.34755e-65
6.12256e-65
7.44005e-65
4.80503e-65
4.10751e-65
4.96003e-65
5.50257e-65
8.13759e-65
7.28508e-65
6.74257e-65
5.81256e-65
5.96755e-65
8.37006e-65
6.58754e-65
5.50254e-65
4.57256e-65
4.96006e-65
7.28508e-65
5.73506e-65
7.28507e-65
8.06007e-65
6.74256e-65
5.11504e-65
8.06008e-65
5.27007e-65
5.89007e-65
7.98259e-65
9.0676e-65
4.49505e-65
9.1451e-65
7.13008e-65
5.42506e-65
2.32503e-65
)
;

boundaryField
{
    inlet
    {
        type            calculated;
        value           uniform 0;
    }
    outlet
    {
        type            calculated;
        value           nonuniform 0();
    }
    wall
    {
        type            calculated;
        value           uniform 0;
    }
    procBoundary0to1
    {
        type            processor;
        value           nonuniform List<scalar> 
12
(
1.62754e-65
3.64251e-65
3.48751e-65
6.58757e-65
7.28506e-65
8.06005e-65
7.05257e-65
5.65757e-65
7.82757e-65
6.58758e-65
7.0526e-65
5.73509e-65
)
;
    }
    procBoundary0to2
    {
        type            processor;
        value           nonuniform List<scalar> 
44
(
6.51007e-65
4.88254e-65
2.55752e-65
4.88252e-65
3.0225e-65
4.10751e-65
5.73507e-65
6.51007e-65
6.51007e-65
5.11506e-65
6.51007e-65
4.88254e-65
8.44755e-65
9.76504e-65
5.73501e-65
9.22253e-65
5.42507e-65
6.82008e-65
7.67258e-65
7.82758e-65
8.44755e-65
6.97507e-65
8.44755e-65
9.76504e-65
7.59505e-65
8.13755e-65
7.28509e-65
4.96006e-65
5.50256e-65
6.12257e-65
5.58006e-65
7.13008e-65
7.59505e-65
8.37009e-65
7.59505e-65
8.13755e-65
4.80506e-65
8.1376e-65
8.3701e-65
6.51008e-65
6.82008e-65
5.89007e-65
6.27757e-65
7.7501e-65
)
;
    }
    procBoundary0to4
    {
        type            processor;
        value           nonuniform List<scalar> 
36
(
5.19256e-65
7.36259e-65
7.51759e-65
5.58006e-65
5.96757e-65
5.65756e-65
7.59508e-65
6.74257e-65
8.91261e-65
7.7501e-65
6.35507e-65
7.36258e-65
8.6026e-65
8.21509e-65
7.51758e-65
6.35507e-65
5.42506e-65
9.06762e-65
6.97509e-65
8.7576e-65
6.66508e-65
8.4476e-65
6.66508e-65
5.96757e-65
6.12258e-65
9.68762e-65
5.65759e-65
4.34005e-65
5.73507e-65
7.59509e-65
5.19256e-65
7.36259e-65
6.35508e-65
9.22262e-65
5.96759e-65
5.96759e-65
)
;
    }
    procBoundary0to6
    {
        type            processor;
        value           uniform 6.74259e-65;
    }
    procBoundary0to7
    {
        type            processor;
        value           uniform 9.92015e-65;
    }
}


// ************************************************************************* //
