/*--------------------------------*- C++ -*----------------------------------*\
| =========                 |                                                 |
| \\      /  F ield         | OpenFOAM: The Open Source CFD Toolbox           |
|  \\    /   O peration     | Version:  4.x                                   |
|   \\  /    A nd           | Web:      www.OpenFOAM.org                      |
|    \\/     M anipulation  |                                                 |
\*---------------------------------------------------------------------------*/
FoamFile
{
    version     2.0;
    format      ascii;
    class       volVectorField;
    location    "55.5";
    object      Us;
}
// * * * * * * * * * * * * * * * * * * * * * * * * * * * * * * * * * * * * * //

dimensions      [0 1 -1 0 0 0 0];

internalField   nonuniform List<vector> 
132
(
(-1.03876e-10 2.22697e-10 -2.38404e-12)
(-1.66593e-10 3.77085e-10 8.04592e-11)
(6.15791e-09 8.4545e-10 4.95005e-10)
(3.81574e-09 -6.84585e-10 -5.65502e-10)
(3.02702e-09 -1.82528e-10 -8.13229e-10)
(4.22532e-09 -2.10749e-10 -6.3299e-10)
(5.051e-09 -7.3072e-10 -1.33298e-09)
(8.29859e-09 -2.8405e-10 -1.35392e-09)
(1.71197e-08 -7.4516e-09 -7.38582e-09)
(5.45662e-10 5.48627e-10 -9.92313e-11)
(1.7065e-09 1.43293e-10 2.20211e-10)
(5.31292e-09 6.33464e-10 -1.4984e-10)
(5.06835e-09 -1.22621e-09 -1.81321e-10)
(6.45169e-09 -1.06566e-09 -5.94642e-10)
(7.34864e-09 3.87479e-11 -1.30906e-09)
(1.27405e-08 -1.8916e-09 -3.79841e-09)
(1.79501e-08 -5.9098e-09 -4.49548e-09)
(3.03091e-08 -4.34633e-09 -7.38921e-09)
(2.39151e-09 1.8961e-10 2.92944e-10)
(2.57875e-09 -9.71085e-11 -2.81949e-11)
(4.4019e-09 -4.2574e-10 7.17806e-11)
(5.26702e-09 -7.10828e-10 -5.65632e-10)
(7.82258e-09 -8.20644e-10 -1.95922e-10)
(9.62621e-09 -6.68332e-10 -2.52404e-09)
(1.46349e-08 -2.33978e-09 -4.85077e-09)
(1.74506e-08 -3.55457e-09 -7.02575e-09)
(2.06507e-08 -5.25986e-09 -7.89777e-09)
(8.7674e-10 1.09344e-10 -5.99468e-11)
(2.12247e-09 -2.0734e-10 -1.67283e-10)
(3.59817e-09 -8.59591e-10 -2.65822e-10)
(4.41322e-10 1.15593e-10 3.19034e-10)
(3.11641e-10 3.11907e-10 3.71613e-10)
(2.3625e-09 4.69806e-10 5.98464e-10)
(4.06217e-09 -2.09193e-10 -1.03294e-09)
(4.28718e-09 -2.38215e-10 -1.09922e-09)
(4.96539e-09 7.24373e-10 -1.09914e-09)
(6.43634e-09 -6.29586e-10 -1.33156e-09)
(1.19366e-08 -8.42964e-10 -1.80355e-09)
(1.67649e-08 3.13988e-09 -4.0519e-09)
(7.56412e-10 3.30602e-10 1.76686e-11)
(1.43489e-09 3.2273e-10 2.66423e-10)
(4.41246e-09 -3.42636e-11 3.64895e-10)
(4.81491e-09 -3.89361e-10 -3.00575e-10)
(7.6281e-09 -4.06409e-10 -1.19708e-09)
(8.34934e-09 4.76499e-10 -1.82464e-09)
(1.19111e-08 -9.62363e-10 -3.29092e-09)
(1.60826e-08 -4.27663e-09 -3.8139e-09)
(2.42065e-08 -5.97788e-09 -9.24023e-09)
(1.29828e-09 1.31084e-10 -1.45076e-10)
(2.31767e-09 -1.66334e-11 -8.23418e-11)
(4.30585e-09 -3.38677e-10 -3.41891e-10)
(5.88337e-09 -7.93954e-10 -6.49418e-10)
(9.1018e-09 -1.0539e-09 -1.59752e-09)
(1.17366e-08 -5.33404e-10 -2.33612e-09)
(1.54244e-08 -1.72132e-09 -4.97968e-09)
(1.81529e-08 -3.49881e-09 -7.25384e-09)
(2.15922e-08 -5.19453e-09 -9.17288e-09)
(1.05026e-09 -6.71024e-11 -3.46958e-11)
(2.19782e-09 -1.9394e-10 -1.80907e-10)
(3.61751e-09 -1.17885e-10 -6.63502e-10)
(5.899e-09 -8.58125e-10 -1.00749e-09)
(7.82432e-09 -3.9291e-10 -2.47626e-09)
(2.73454e-10 8.69001e-11 2.41965e-10)
(1.90101e-10 2.02487e-10 -2.60707e-11)
(1.44285e-09 2.93007e-10 3.92715e-11)
(2.40276e-09 2.59772e-10 -4.52183e-10)
(3.94712e-09 -9.81243e-11 -7.00932e-10)
(5.77495e-09 6.44352e-10 -1.56001e-09)
(6.43372e-09 4.5631e-10 -1.71031e-09)
(7.18289e-09 -4.2107e-10 -1.71825e-09)
(1.25817e-08 1.69569e-09 -6.02481e-09)
(4.67719e-10 2.17465e-10 1.24977e-11)
(9.28273e-10 2.30905e-10 -2.05284e-10)
(3.004e-09 1.95445e-10 -4.31668e-10)
(3.9459e-09 1.47874e-10 -4.1007e-10)
(6.90957e-09 2.48513e-10 -1.77831e-09)
(9.07562e-09 7.22033e-10 -2.33325e-09)
(1.15427e-08 3.35076e-10 -3.08013e-09)
(1.34908e-08 -1.40765e-09 -3.71885e-09)
(2.07114e-08 -3.40373e-09 -8.491e-09)
(6.43338e-10 7.43685e-11 -2.24601e-10)
(1.59191e-09 7.24395e-11 -3.20608e-10)
(3.87378e-09 1.37123e-11 -6.84839e-10)
(5.1741e-09 -1.57003e-10 -8.255e-10)
(8.58155e-09 -1.58777e-10 -2.23248e-09)
(1.04698e-08 -1.68202e-10 -2.89459e-09)
(1.22492e-08 -4.90552e-10 -3.7894e-09)
(1.66703e-08 -1.77573e-09 -6.03596e-09)
(1.94111e-08 -4.75974e-09 -8.33123e-09)
(5.88792e-10 -3.38158e-11 -1.84888e-10)
(1.86341e-09 -5.6942e-10 -3.21645e-10)
(3.5021e-09 -3.85958e-10 -7.80397e-10)
(5.02865e-09 -9.2548e-10 -1.16276e-09)
(8.45601e-09 -4.76014e-10 -2.74116e-09)
(1.0342e-08 -1.83114e-10 -3.45074e-09)
(1.35237e-08 -5.1408e-10 -5.15471e-09)
(2.00659e-10 5.57911e-11 1.28815e-10)
(1.68733e-10 1.10158e-10 -1.8766e-10)
(1.22334e-09 2.03286e-10 -3.08404e-10)
(1.60983e-09 7.97324e-11 -4.14573e-10)
(2.80467e-09 1.89804e-10 -8.11096e-10)
(4.80067e-09 8.86341e-10 -1.3855e-09)
(5.93026e-09 4.0923e-10 -2.17131e-09)
(8.46571e-09 3.20598e-10 -3.08912e-09)
(1.09377e-08 3.11388e-10 -4.86648e-09)
(2.97683e-10 1.5693e-10 -5.7462e-11)
(7.12884e-10 9.44057e-11 -3.48273e-10)
(2.02237e-09 -2.05752e-10 -7.90745e-10)
(3.89559e-09 4.81218e-10 -1.28165e-09)
(6.14146e-09 3.26871e-10 -1.72203e-09)
(6.98015e-09 5.40012e-10 -1.82799e-09)
(1.0078e-08 3.9285e-10 -2.82341e-09)
(1.2509e-08 1.17006e-10 -3.32993e-09)
(1.56799e-08 -1.74029e-09 -4.31441e-09)
(7.02221e-10 4.14805e-11 -4.58261e-10)
(1.33625e-09 -4.74332e-11 -6.84045e-10)
(2.92208e-09 -2.60994e-10 -8.2057e-10)
(3.32477e-09 -3.57882e-10 -1.82277e-09)
(6.69664e-09 7.89747e-10 -2.26654e-09)
(8.74673e-09 2.7668e-11 -2.77891e-09)
(1.22392e-08 2.84935e-11 -4.18233e-09)
(1.44997e-08 -5.19404e-10 -4.90529e-09)
(1.71305e-08 -1.49934e-09 -5.63518e-09)
(4.63918e-10 -1.31086e-10 -3.30174e-10)
(1.08968e-09 -4.75746e-10 -6.41057e-10)
(2.8404e-09 -3.5901e-10 -1.04864e-09)
(3.68391e-09 -4.55761e-10 -1.30582e-09)
(6.60281e-09 4.24262e-10 -1.8627e-09)
(9.89043e-09 -2.58041e-10 -3.16329e-09)
(1.32655e-08 -1.73075e-10 -4.96277e-09)
(1.46803e-08 -1.31435e-10 -6.32432e-09)
(2.09393e-08 -1.34405e-09 -1.11053e-08)
)
;

boundaryField
{
    inlet
    {
        type            zeroGradient;
    }
    outlet
    {
        type            zeroGradient;
    }
    wall
    {
        type            zeroGradient;
    }
    procBoundary0to1
    {
        type            processor;
        value           nonuniform List<vector> 
12
(
(2.58182e-08 -1.66484e-08 -2.19359e-08)
(4.12037e-08 -1.39846e-08 -2.17416e-08)
(4.34531e-08 -1.11763e-08 -3.7703e-08)
(2.66465e-08 -8.55479e-09 -1.24462e-08)
(4.08699e-08 -7.68495e-09 -2.1773e-08)
(3.51729e-08 -1.23268e-08 -2.58537e-08)
(1.67338e-08 -7.17198e-10 -5.32416e-09)
(2.32485e-08 -2.00615e-10 -1.24443e-08)
(2.48334e-08 -7.99454e-09 -1.4283e-08)
(1.07784e-08 4.10389e-10 -3.8708e-09)
(1.8863e-08 -4.57888e-10 -7.11646e-09)
(1.95901e-08 -2.49087e-09 -9.5782e-09)
)
;
    }
    procBoundary0to2
    {
        type            processor;
        value           nonuniform List<vector> 
44
(
(3.786e-09 -8.76173e-10 -5.48444e-10)
(8.14119e-09 -1.39333e-09 -5.79333e-10)
(1.23776e-08 -3.76531e-10 -3.46286e-09)
(1.6853e-08 -6.566e-10 -4.60485e-09)
(2.17041e-08 -2.05543e-09 -8.5135e-09)
(2.42519e-08 -3.72553e-09 -9.53145e-09)
(1.13818e-08 -4.26159e-09 -5.4207e-10)
(1.59189e-09 -5.13404e-10 -3.44837e-10)
(3.786e-09 -8.76173e-10 -5.48444e-10)
(3.37718e-09 -9.28669e-10 -5.40692e-10)
(3.786e-09 -8.76173e-10 -5.48444e-10)
(8.14119e-09 -1.39333e-09 -5.79333e-10)
(1.13358e-08 -1.87089e-10 -3.64879e-09)
(1.5814e-08 -4.43427e-12 -5.13365e-09)
(2.07096e-08 -7.74976e-10 -8.42047e-09)
(2.43303e-08 -2.25406e-09 -1.11296e-08)
(6.92862e-10 -3.37802e-10 -6.22346e-11)
(1.6647e-09 -4.47692e-10 -3.29323e-10)
(2.95279e-09 -5.11463e-10 -7.09028e-10)
(4.5902e-09 -1.07061e-09 -1.20554e-09)
(1.13358e-08 -1.87089e-10 -3.64879e-09)
(6.35304e-09 -7.56971e-10 -2.17821e-09)
(1.13358e-08 -1.87089e-10 -3.64879e-09)
(1.5814e-08 -4.43427e-12 -5.13365e-09)
(1.86301e-08 -8.34442e-10 -8.23879e-09)
(2.39621e-08 -1.25893e-09 -1.15811e-08)
(5.11661e-10 -1.05727e-10 -2.64935e-10)
(1.09312e-09 -4.14012e-10 -3.93485e-10)
(2.68854e-09 -6.06608e-10 -9.09524e-10)
(3.9992e-09 -9.32821e-10 -1.14628e-09)
(6.62926e-09 -8.03117e-10 -2.1939e-09)
(9.43177e-09 1.54018e-10 -3.48412e-09)
(1.86301e-08 -8.34442e-10 -8.23879e-09)
(1.17878e-08 3.14293e-10 -4.41036e-09)
(1.86301e-08 -8.34442e-10 -8.23879e-09)
(2.39621e-08 -1.25893e-09 -1.15811e-08)
(4.18856e-10 -1.16474e-10 -3.23347e-10)
(9.92692e-10 -4.6397e-10 -7.6264e-10)
(2.36054e-09 -6.16527e-10 -1.15803e-09)
(3.20008e-09 -7.42023e-10 -1.46415e-09)
(5.58826e-09 -7.5543e-10 -2.21509e-09)
(8.3623e-09 -6.1598e-10 -3.43746e-09)
(1.18714e-08 4.36485e-11 -4.19861e-09)
(1.53031e-08 1.33924e-09 -7.45342e-09)
)
;
    }
    procBoundary0to4
    {
        type            processor;
        value           nonuniform List<vector> 
36
(
(2.01987e-10 1.85801e-11 -6.80564e-11)
(-9.64444e-11 4.68198e-11 -1.81701e-10)
(8.27405e-10 3.74629e-11 -4.17734e-10)
(1.22494e-09 3.42448e-11 -5.04733e-10)
(2.0889e-09 -4.9492e-10 -8.87323e-10)
(2.56485e-09 2.91829e-12 -1.14113e-09)
(5.06827e-09 6.38333e-10 -1.78682e-09)
(4.90155e-09 7.69545e-10 -1.77941e-09)
(6.52289e-09 5.20081e-10 -8.21115e-10)
(2.7972e-10 8.11156e-11 -1.84033e-10)
(4.89527e-10 1.81171e-10 -4.61018e-10)
(1.41148e-09 -2.6549e-10 -7.58691e-10)
(1.97835e-09 -3.02742e-10 -9.94722e-10)
(3.56124e-09 -4.82252e-11 -1.56975e-09)
(4.62509e-09 9.40082e-10 -1.01143e-09)
(8.43505e-09 1.29894e-09 -2.63763e-09)
(1.0525e-08 1.48769e-10 -2.74539e-09)
(1.45809e-08 -1.75006e-09 -2.63703e-09)
(3.42511e-10 -2.85945e-11 -2.86772e-10)
(9.6243e-10 7.77565e-11 -6.97339e-10)
(2.07639e-09 -3.71776e-10 -9.85093e-10)
(2.88302e-09 -5.01347e-10 -1.82314e-09)
(4.56458e-09 -2.87634e-11 -2.14499e-09)
(6.90992e-09 6.17715e-10 -2.33753e-09)
(9.76689e-09 6.46502e-10 -3.43612e-09)
(1.18786e-08 7.64971e-10 -3.91413e-09)
(1.66801e-08 -5.80429e-10 -4.02226e-09)
(2.97485e-10 -1.06321e-10 -3.39099e-10)
(6.4461e-10 -1.07361e-10 -6.20573e-10)
(2.06697e-09 -5.0111e-10 -1.11996e-09)
(2.64383e-09 -5.77874e-10 -1.38042e-09)
(5.78332e-09 -6.26687e-11 -1.97958e-09)
(8.62702e-09 2.33518e-10 -2.94348e-09)
(1.0148e-08 6.488e-10 -3.59589e-09)
(1.34578e-08 1.47582e-09 -6.112e-09)
(1.46162e-08 -7.59823e-11 -6.39343e-09)
)
;
    }
    procBoundary0to6
    {
        type            processor;
        value           uniform (1.8021e-08 -1.9632e-10 -9.3931e-09);
    }
    procBoundary0to7
    {
        type            processor;
        value           uniform (1.8749e-08 1.05003e-09 -1.39783e-08);
    }
}


// ************************************************************************* //
