/*--------------------------------*- C++ -*----------------------------------*\
  =========                 |
  \\      /  F ield         | OpenFOAM: The Open Source CFD Toolbox
   \\    /   O peration     | Website:  https://openfoam.org
    \\  /    A nd           | Version:  4.x
     \\/     M anipulation  |
\*---------------------------------------------------------------------------*/
FoamFile
{
    version     2.0;
    format      ascii;
    class       Cloud<passiveParticle>;
    location    0;
    object      positions;
}
// * * * * * * * * * * * * * * * * * * * * * * * * * * * * * * * * * * * * * //

313
(
( 0.211569 -0.00559655 -0.0726488 ) 4
( 0.187063 -0.0094404 -0.0456937 ) 34
( 0.22344 -0.0130664 -0.0585916 ) 36
( 0.203021 -0.0136585 -0.0353002 ) 64
( 0.23555 -0.0037852 -0.071254 ) 36
( 0.220381 -0.00513063 -0.0324387 ) 64
( 0.176592 -0.0093496 -0.0624231 ) 34
( 0.235974 -0.00904767 -0.0438447 ) 36
( 0.205703 -0.00152021 -0.0507132 ) 35
( 0.167557 -0.0112911 -0.0447136 ) 34
( 0.226248 -0.0111289 -0.0146871 ) 65
( 0.225208 0.0300926 -0.027319 ) 74
( 0.0457589 0.0271859 -0.0469746 ) 38
( 0.215104 0.0376312 -0.042538 ) 73
( 0.185323 0.0222814 -0.07007 ) 43
( 0.113516 0.0388536 -0.0534801 ) 41
( 0.0323754 0.0742175 -0.0323206 ) 85
( 0.201763 0.064099 -0.045041 ) 53
( 0.21235 0.018 -0.0410106 ) 73
( 0.0749063 0.0448103 -0.0509456 ) 48
( 0.0697476 0.0214963 -0.0471346 ) 39
( 0.0322687 0.0515541 -0.061104 ) 47
( 0.173422 0.0183908 -0.0546655 ) 43
( 0.125896 0.0707917 -0.048476 ) 50
( 0.0266197 0.0590278 -0.0436111 ) 46
( 0.023804 0.0902935 -0.0398973 ) 84
( 0.0432991 0.0901351 -0.054322 ) 56
( 0.0625147 0.050168 -0.0659066 ) 48
( 0.0782304 0.0721617 -0.0575109 ) 57
( 0.137985 0.0576333 -0.0571805 ) 50
( 0.18061 0.0551987 -0.0492472 ) 52
( 0.0592303 0.0312552 -0.0609013 ) 39
( 0.203187 0.00505226 -0.0291601 ) 64
( 0.100147 0.0434105 -0.0349116 ) 78
( 0.0790067 0.0455043 -0.0254538 ) 77
( 0.239175 0.0524698 -0.0724187 ) 23
( 0.156893 0.0557925 -0.0682818 ) 51
( 0.215902 0.0777335 -0.0409657 ) 91
( 0.244053 0.0825873 -0.039655 ) 92
( 0.168044 0.0665568 -0.038926 ) 81
( 0.0925364 0.0600438 -0.067287 ) 49
( 0.145267 0.0711014 -0.0444564 ) 51
( 0.110905 0.0824321 -0.0427367 ) 87
( 0.154375 0.056548 -0.0289509 ) 80
( 0.136331 0.0382217 -0.0531508 ) 41
( 0.210383 0.0742571 -0.0596904 ) 62
( 0.0254401 0.0819936 -0.0577857 ) 55
( 0.186188 0.0389546 -0.0592717 ) 43
( 0.185106 0.0890131 -0.070917 ) 61
( 0.168783 0.0901197 -0.0375042 ) 90
( 0.223298 0.0641698 -0.0707379 ) 54
( 0.118313 0.0218111 -0.0623746 ) 41
( 0.113971 0.0888654 -0.0613102 ) 59
( 0.0724368 0.062914 -0.032104 ) 77
( 0.0925161 0.077263 -0.0356251 ) 87
( 0.133715 0.0243607 -0.0392038 ) 70
( 0.19627 0.052665 -0.0696145 ) 53
( 0.144846 0.00353749 -0.0699941 ) 33
( 0.218379 0.0258954 -0.0582861 ) 44
( 0.0270862 0.0247918 -0.0326782 ) 66
( 0.0995852 0.0176931 -0.067529 ) 40
( 0.0900566 0.0248264 -0.0214972 ) 69
( 0.1255 0.0399798 -0.0697462 ) 41
( 0.124064 0.0635343 -0.0278311 ) 79
( 0.00983244 0.0177748 -0.0395036 ) 66
( 0.106529 0.0460317 -0.0707849 ) 49
( 0.0581404 0.0798813 -0.0461353 ) 57
( 0.0999893 0.0251775 -0.0491515 ) 40
( 0.154422 0.0242493 -0.0524803 ) 42
( 0.225727 0.0635945 -0.0509026 ) 54
( 0.157019 0.00536316 -0.0468715 ) 33
( 0.181689 0.0316002 -0.0414019 ) 72
( 0.202624 0.0124706 -0.0703605 ) 35
( 0.0881616 0.0572337 -0.0427367 ) 78
( 0.0977476 0.0749207 -0.0553212 ) 58
( 0.124657 0.0517378 -0.0436844 ) 50
( 0.0899633 0.0619862 -0.0230667 ) 78
( 0.191185 0.0711681 -0.0642253 ) 52
( 0.231405 0.0689583 -0.0325824 ) 83
( 0.0349015 0.0416918 -0.0389773 ) 67
( 0.144518 0.0731584 -0.0678237 ) 60
( 0.0618821 0.0465868 -0.0360542 ) 77
( 0.0762058 0.088608 -0.0352376 ) 86
( 0.155492 0.0545358 -0.0485419 ) 51
( 0.00998418 0.0726751 -0.0468368 ) 55
( 0.192972 0.0220077 -0.0284375 ) 72
( 0.0379217 0.0181543 -0.0645012 ) 38
( 0.135939 0.04558 -0.0287215 ) 79
( 0.00989922 0.0813171 -0.0289935 ) 84
( 0.0108107 0.0545524 -0.0549508 ) 46
( 0.1693 0.0438919 -0.0320579 ) 81
( 0.056707 0.072249 -0.0644578 ) 57
( 0.150972 0.0900399 -0.0594598 ) 60
( 0.0282632 0.0328975 -0.0554514 ) 38
( 0.114647 0.0289952 -0.0362497 ) 70
( 0.229953 0.0121132 -0.0340576 ) 65
( 0.248685 0.0608349 -0.0242419 ) 83
( 0.0279828 0.0556726 -0.0187451 ) 76
( 0.241948 0.0556004 -0.0424815 ) 83
( 0.0959732 0.0900505 -0.0694513 ) 58
( 0.165054 0.0708691 -0.0580439 ) 51
( 0.188429 0.090292 -0.0347441 ) 90
( 0.231978 0.0279814 -0.0742289 ) 14
( 0.239027 0.0160786 -0.0599737 ) 45
( 0.196648 0.0449595 -0.0434764 ) 53
( 0.164416 0.0285286 -0.0691572 ) 42
( 0.0637211 0.0612404 -0.0495719 ) 48
( 0.247486 0.0106301 -0.0428706 ) 36
( 0.184855 0.0743534 -0.0457352 ) 61
( 0.0835373 0.0270184 -0.0603211 ) 40
( 0.17113 0.0773791 -0.0226092 ) 90
( 0.167419 0.0393752 -0.052768 ) 43
( 0.176673 0.0581569 -0.0684949 ) 52
( 0.114063 0.090297 -0.0250223 ) 88
( 0.226999 0.0901964 -0.0298575 ) 92
( 0.165839 0.0204089 -0.0366294 ) 71
( 0.204964 0.0901391 -0.0701967 ) 62
( 0.188852 0.00641142 -0.0574654 ) 34
( 0.12084 0.0661741 -0.0671253 ) 50
( 0.0585989 0.0274762 -0.03186 ) 68
( 0.0472621 0.0567748 -0.0272643 ) 76
( 0.0843571 0.0320259 -0.0390039 ) 69
( 0.00990938 0.0284625 -0.067784 ) 37
( 0.22235 0.0110224 -0.070894 ) 36
( 0.132793 0.0897571 -0.0675467 ) 59
( 0.049025 0.0481995 -0.0510645 ) 47
( 0.16325 0.0825303 -0.0740331 ) 29
( 0.185359 0.0613856 -0.0307902 ) 81
( 0.00969993 0.0356791 -0.0493276 ) 37
( 0.207127 0.090042 -0.0282178 ) 91
( 0.21127 0.0510866 -0.056605 ) 53
( 0.085407 0.0901652 -0.0526869 ) 58
( 0.233271 0.0281773 -0.0453064 ) 45
( 0.202786 0.0329495 -0.0684536 ) 44
( 0.128704 0.0902643 -0.0480721 ) 59
( 0.054879 0.0732226 -0.0190687 ) 85
( 0.0355289 0.0693652 -0.0693063 ) 47
( 0.2313 0.0450619 -0.0556217 ) 54
( 0.0282546 0.090153 -0.0195196 ) 85
( 0.228706 0.0901205 -0.0497498 ) 63
( 0.149072 0.0901834 -0.0396936 ) 89
( 0.0104477 0.0351152 -0.0297393 ) 66
( 0.151413 0.0373502 -0.0379271 ) 71
( 0.143447 0.0277918 -0.0686199 ) 42
( 0.0433523 0.0673035 -0.0504236 ) 47
( 0.167714 0.00693803 -0.069904 ) 34
( 0.170751 0.0900726 -0.0572118 ) 61
( 0.196761 0.0238246 -0.0518111 ) 44
( 0.1371 0.0900851 -0.0227427 ) 88
( 0.0527617 0.0273159 -0.00503073 ) 94
( 0.135464 0.070097 8.37884e-05 ) 105
( 0.0832669 0.0549764 -0.00355997 ) 103
( 0.0894367 0.0423312 0.0105538 ) 96
( 0.217785 0.0166332 0.0112716 ) 100
( 0.114783 0.0250141 0.0087266 ) 97
( 0.0430237 0.0347492 0.0105565 ) 94
( 0.110131 0.0412257 -0.00204444 ) 96
( 0.175565 0.0361726 -0.0120102 ) 99
( 0.168789 0.04865 0.0017977 ) 107
( 0.191093 0.0822268 -0.0167418 ) 90
( 0.124982 0.051064 0.00638137 ) 105
( 0.153833 0.0394178 0.0108651 ) 98
( 0.0490057 0.0902089 0.00758549 ) 109
( 0.125176 0.0234395 -0.00779427 ) 97
( 0.0098517 0.0488415 0.00689901 ) 101
( 0.0110336 0.0659921 -0.016512 ) 75
( 0.103362 0.0901009 -0.00350029 ) 111
( 0.158925 0.0681889 -0.00998495 ) 106
( 0.193252 0.0595632 -0.0127446 ) 107
( 0.0293278 0.0881174 0.00606024 ) 109
( 0.0272535 0.0433882 -0.00308698 ) 101
( 0.0907227 0.0902233 0.011906 ) 111
( 0.0756006 0.0182167 0.00723611 ) 95
( 0.062832 0.0800393 -0.00214517 ) 110
( 0.207029 0.0272394 -0.00113627 ) 100
( 0.133871 0.0427952 -0.0090335 ) 97
( 0.0581637 0.0697155 0.0138867 ) 103
( 0.0099048 0.0682298 0.00299477 ) 101
( 0.124228 0.0776343 -0.0140449 ) 112
( 0.232213 0.0781367 -0.0151494 ) 92
( 0.162127 0.0798731 0.00559099 ) 113
( 0.163593 0.0259521 0.000295824 ) 98
( 0.145109 0.0901242 0.00641214 ) 113
( 0.0952451 0.023927 0.00531846 ) 96
( 0.0643271 0.0605344 -0.00572529 ) 103
( 0.0201261 0.0274243 -0.0143913 ) 66
( 0.0466206 0.0898396 -0.0119397 ) 109
( 0.0662966 0.0371172 0.00536061 ) 95
( 0.0927601 0.0732022 -0.00373699 ) 111
( 0.0531884 0.0515877 0.00797705 ) 102
( 0.105689 0.0730604 -0.0187518 ) 87
( 0.153617 0.0900498 -0.0115651 ) 113
( 0.0292191 0.0233353 0.00247271 ) 94
( 0.142438 0.0276171 0.000305572 ) 98
( 0.220985 0.0370542 0.00871477 ) 100
( 0.153115 0.0467079 -0.0119359 ) 106
( 0.116915 0.0594629 -0.00963894 ) 105
( 0.07698 0.0702057 0.00781339 ) 103
( 0.0110881 0.0868579 -0.00996773 ) 108
( 0.0803575 0.0891319 -0.00479318 ) 110
( 0.191263 0.0389429 -0.000697973 ) 99
( 0.124996 0.0903327 0.000717205 ) 112
( 0.211613 0.0529864 -0.0156583 ) 82
( 0.108901 0.0286637 -0.0172518 ) 69
( 0.0823921 0.0340577 -0.00582023 ) 95
( 0.101086 0.0573508 0.00492272 ) 104
( 0.182637 0.0210114 -0.000688084 ) 99
( 0.0360821 0.0604798 0.00214327 ) 102
( 0.178839 0.071264 -0.00555627 ) 107
( 0.00975487 0.0442725 -0.0122832 ) 101
( 0.107778 0.0577678 -0.0547145 ) 49
( 0.00985047 0.0901752 -0.0670866 ) 55
( 0.216618 0.0558615 -0.0346338 ) 82
( 0.139849 0.0605873 -0.0164151 ) 80
( 0.0517646 0.0144452 0.0101152 ) 94
( 0.00983656 0.0296275 0.00234277 ) 93
( 0.00990873 0.0901401 0.00952088 ) 108
( 0.0701926 0.0230228 -0.0165185 ) 68
( 0.220881 0.044447 -0.0726863 ) 22
( 0.0499438 0.0901443 -0.0313938 ) 85
( 0.158571 -0.0107646 -0.0703313 ) 33
( 0.00983013 0.0561002 -0.0336283 ) 75
( 0.22803 0.0901098 -0.069612 ) 63
( 0.0942097 0.0431377 -0.0554102 ) 49
( 0.224179 0.00563148 -0.0518443 ) 36
( 0.217573 0.0137589 -0.0187162 ) 64
( 0.230834 0.0582265 -0.0159706 ) 83
( 0.0671601 0.0900607 -0.0606723 ) 57
( 0.240801 0.0425597 -0.0229992 ) 74
( 0.10588 0.0625502 -0.0355473 ) 78
( 0.145652 -0.00926955 -0.0541458 ) 33
( 0.202542 0.090111 -0.0486972 ) 62
( 0.139557 0.0278542 -0.0206215 ) 71
( 0.249292 -0.00446956 -0.0300968 ) 65
( 0.092822 0.0900494 -0.0203611 ) 87
( 0.116486 0.0456694 -0.0239077 ) 79
( 0.150072 0.0575885 0.00405229 ) 106
( 0.15063 0.0758965 -0.0260562 ) 89
( 0.159236 0.0304846 -0.0210998 ) 71
( 0.188296 0.0424321 -0.0257174 ) 72
( 0.114274 0.0737678 0.00388756 ) 112
( 0.0407259 0.0312916 -0.0200944 ) 67
( 0.0358749 0.0730622 -0.0129423 ) 109
( 0.173125 0.0166702 -0.0176361 ) 72
( 0.175217 0.064126 0.0124463 ) 107
( 0.172953 0.0556125 -0.0163513 ) 81
( 0.0960748 0.0446736 -0.0154402 ) 78
( 0.0755178 0.0734859 -0.0158084 ) 86
( 0.205326 0.0345775 -0.0193644 ) 73
( 0.203704 0.0703621 -0.0264084 ) 82
( 0.0636757 0.0415568 -0.0137054 ) 95
( 0.0453215 0.0476458 -0.00975251 ) 102
( 0.0653463 0.090218 -0.0188506 ) 86
( 0.0117257 0.0704845 -0.0666199 ) 46
( 0.109951 0.0787643 -0.0780775 ) 27
( 0.178164 0.0403678 -0.0774307 ) 12
( 0.029041 0.0316761 -0.0760822 ) 7
( 0.237907 0.0776471 -0.0814768 ) 32
( 0.19889 0.0750734 -0.0821293 ) 31
( 0.178338 -0.0141563 -0.0816968 ) 3
( 0.0516026 0.023812 -0.077715 ) 7
( 0.112262 0.0290244 -0.0799444 ) 10
( 0.0684896 0.0163299 -0.0702962 ) 39
( 0.074633 0.0625916 -0.0755135 ) 17
( 0.138871 0.0535171 -0.0765745 ) 19
( 0.218217 0.0794169 -0.083318 ) 31
( 0.016577 0.0466599 -0.0722081 ) 15
( 0.15342 0.0405211 -0.0806073 ) 11
( 0.0809144 0.0442286 -0.0700945 ) 48
( 0.0503521 0.0601693 -0.0789287 ) 16
( 0.154592 0.0164531 -0.0815993 ) 11
( 0.0455988 0.041999 -0.0722802 ) 7
( 0.0457549 0.0859899 -0.0736869 ) 25
( 0.0851869 0.00825972 -0.077402 ) 0
( 0.0787494 0.0820179 -0.0751042 ) 26
( 0.129603 0.0192532 -0.0800357 ) 10
( 0.133527 -0.0067237 -0.0828022 ) 1
( 0.160789 0.0660043 -0.0849288 ) 20
( 0.186071 0.00360257 -0.0770307 ) 3
( 0.0267344 0.0900588 -0.077447 ) 24
( 0.23433 0.0125748 -0.0867315 ) 5
( 0.0881402 -0.0102087 -0.084238 ) 0
( 0.21421 0.0249196 -0.082671 ) 13
( 0.0184143 0.0161394 -0.0825185 ) 6
( 0.209809 0.0570453 -0.0835657 ) 22
( 0.0104979 0.0799898 -0.0841579 ) 24
( 0.130409 0.0758776 -0.0816761 ) 28
( 0.0925308 0.0315233 -0.0799365 ) 9
( 0.0656916 0.0374834 -0.0809769 ) 8
( 0.120097 0.0539789 -0.0830849 ) 19
( 0.0314939 0.0548327 -0.0825638 ) 16
( 0.179119 0.0731208 -0.081403 ) 30
( 0.101865 0.0617697 -0.0847611 ) 18
( 0.196425 0.0407363 -0.0856269 ) 13
( 0.108487 0.00600827 -0.0809759 ) 0
( 0.146634 0.0900871 -0.0818216 ) 29
( 0.0626123 0.0901272 -0.0832877 ) 26
( 0.233138 0.0420423 -0.0882756 ) 14
( 0.173218 0.022225 -0.0859027 ) 12
( 0.0913691 0.0891993 -0.0888089 ) 27
( 0.00991253 0.0601003 -0.0852001 ) 15
( 0.0108313 0.0343204 -0.0868046 ) 6
( 0.0374603 0.01441 -0.0881062 ) 7
( 0.195322 0.0203607 -0.0871811 ) 13
( 0.0314828 0.0739836 -0.0882501 ) 25
( 0.0851951 0.0513529 -0.0881944 ) 18
( 0.0768292 0.0226531 -0.0884033 ) 8
( 0.134873 0.0371073 -0.0871615 ) 10
( 0.115013 -0.0111469 -0.088774 ) 1
( 0.22926 0.0615811 -0.0895656 ) 23
( 0.063258 0.0711735 -0.0894306 ) 17
( 0.183452 0.0554044 -0.0894139 ) 21
( 0.224702 -0.00775181 -0.0875036 ) 5
)
