/*--------------------------------*- C++ -*----------------------------------*\
| =========                 |                                                 |
| \\      /  F ield         | OpenFOAM: The Open Source CFD Toolbox           |
|  \\    /   O peration     | Version:  4.x                                   |
|   \\  /    A nd           | Web:      www.OpenFOAM.org                      |
|    \\/     M anipulation  |                                                 |
\*---------------------------------------------------------------------------*/
FoamFile
{
    version     2.0;
    format      ascii;
    class       volScalarField;
    location    "4.5";
    object      Cs;
}
// * * * * * * * * * * * * * * * * * * * * * * * * * * * * * * * * * * * * * //

dimensions      [1 -3 0 0 0 0 0];

internalField   nonuniform List<scalar> 
132
(
335.045
335.083
335.116
335.155
335.186
335.167
335.071
335.032
335.002
335.075
335.11
335.14
335.176
335.207
335.215
335.175
335.145
335.046
335.07
335.135
335.171
335.185
335.207
335.206
335.198
335.184
335.168
334.869
334.898
334.93
334.955
334.984
335.004
335.044
335.059
336.716
335.157
335.205
335.149
335.02
335.007
335.007
335
335.118
335.136
335.177
335.202
335.2
335.136
335.078
335.03
335.001
335.07
335.108
335.146
335.176
335.173
335.139
335.127
335.107
335.055
334.909
334.924
334.956
334.984
335.005
335.015
335.038
335.054
335.166
335.193
335.178
335.147
335.095
335.004
335.066
335.082
335.127
335.159
335.184
335.176
335.151
335.11
335.053
335.085
335.099
335.111
335.11
335.108
335.088
335.111
335.095
335.084
334.917
334.926
334.941
334.957
334.974
334.99
335.011
335.023
335.281
335.06
335.066
336.359
334.943
334.99
335.042
335.057
335.064
335.082
335.11
335.116
335.333
334.918
334.93
334.945
334.967
334.976
334.992
335.026
335.053
335.201
334.904
334.91
334.917
334.927
334.936
334.945
334.957
334.965
335.581
)
;

boundaryField
{
    inlet
    {
        type            calculated;
        value           nonuniform 0();
    }
    outlet
    {
        type            calculated;
        value           uniform 335;
    }
    wall
    {
        type            calculated;
        value           nonuniform List<scalar> 
66
(
334.943
334.918
334.904
334.99
334.93
334.91
335.042
334.945
334.917
335.057
334.967
334.927
335.064
334.976
334.936
335.082
334.992
334.945
335.06
335.11
335.026
334.957
335.066
335.116
335.053
334.965
336.359
335.333
335.201
335.581
334.869
334.909
334.917
334.904
334.898
334.924
334.926
334.91
334.93
334.956
334.941
334.917
334.955
334.984
334.957
334.927
334.984
335.005
334.974
334.936
335.004
335.015
334.99
334.945
335.044
335.038
335.011
334.957
335.059
335.054
335.023
334.965
336.716
335.166
335.281
335.581
)
;
    }
    procBoundary7to0
    {
        type            processor;
        value           uniform 335.005;
    }
    procBoundary7to1
    {
        type            processor;
        value           uniform 335.104;
    }
    procBoundary7to3
    {
        type            processor;
        value           nonuniform List<scalar> 
36
(
335.035
335.089
335.145
335.205
335.239
335.236
335.194
335.145
335.105
335.067
335.121
335.169
335.212
335.248
335.263
335.242
335.217
335.293
335.051
335.146
335.187
335.199
335.237
335.239
335.245
335.224
335.572
334.816
334.874
334.902
334.938
334.981
335.023
335.068
335.09
338.367
)
;
    }
    procBoundary7to5
    {
        type            processor;
        value           nonuniform List<scalar> 
44
(
335.152
335.197
335.224
335.233
335.213
335.169
335.132
335.05
335.075
335.116
335.183
335.207
335.209
335.156
335.105
335.05
335.001
335.075
335.116
335.116
335.131
335.168
335.184
335.185
335.174
335.146
335.079
335.052
335.085
335.131
335.168
335.168
335.009
335.033
335.039
335.052
335.313
334.932
334.947
334.969
334.985
335.009
335.033
335.033
)
;
    }
    procBoundary7to6
    {
        type            processor;
        value           nonuniform List<scalar> 
12
(
335.034
335.017
334.844
335.071
335.03
334.89
335.034
335.044
334.91
334.919
334.915
334.902
)
;
    }
}


// ************************************************************************* //
