/*--------------------------------*- C++ -*----------------------------------*\
| =========                 |                                                 |
| \\      /  F ield         | OpenFOAM: The Open Source CFD Toolbox           |
|  \\    /   O peration     | Version:  4.x                                   |
|   \\  /    A nd           | Web:      www.OpenFOAM.org                      |
|    \\/     M anipulation  |                                                 |
\*---------------------------------------------------------------------------*/
FoamFile
{
    version     2.0;
    format      ascii;
    class       volScalarField;
    location    "4.5";
    object      Deff;
}
// * * * * * * * * * * * * * * * * * * * * * * * * * * * * * * * * * * * * * //

dimensions      [0 2 -1 0 0 0 0];

internalField   nonuniform List<scalar> 
132
(
9.78785e-08
9.78522e-08
9.78798e-08
9.77939e-08
9.76001e-08
9.75679e-08
9.76273e-08
9.77429e-08
9.7646e-08
9.79684e-08
9.7804e-08
9.78475e-08
9.78442e-08
9.7702e-08
9.77355e-08
9.76704e-08
9.77091e-08
9.76609e-08
9.81566e-08
9.79534e-08
9.7938e-08
9.78974e-08
9.77783e-08
9.76879e-08
9.76743e-08
9.77149e-08
9.76964e-08
9.82926e-08
9.8064e-08
9.79284e-08
9.79969e-08
9.78636e-08
9.78023e-08
9.77325e-08
9.78416e-08
9.79752e-08
9.77705e-08
9.76755e-08
9.76424e-08
9.75836e-08
9.75062e-08
9.7531e-08
9.76018e-08
9.79874e-08
9.77447e-08
9.77243e-08
9.76899e-08
9.75773e-08
9.75938e-08
9.76082e-08
9.75577e-08
9.76524e-08
9.80169e-08
9.77838e-08
9.77934e-08
9.7794e-08
9.76391e-08
9.75424e-08
9.75011e-08
9.75914e-08
9.76153e-08
9.81111e-08
9.78607e-08
9.78675e-08
9.78007e-08
9.7719e-08
9.77167e-08
9.7653e-08
9.76588e-08
9.78485e-08
9.76466e-08
9.76224e-08
9.75523e-08
9.75966e-08
9.76547e-08
9.7841e-08
9.77461e-08
9.77015e-08
9.77264e-08
9.7572e-08
9.76072e-08
9.75642e-08
9.75095e-08
9.75937e-08
9.79224e-08
9.78048e-08
9.77427e-08
9.77217e-08
9.75972e-08
9.75906e-08
9.75596e-08
9.7593e-08
9.76169e-08
9.80804e-08
9.79155e-08
9.78132e-08
9.77761e-08
9.77507e-08
9.77551e-08
9.76281e-08
9.76816e-08
9.78325e-08
9.76769e-08
9.76681e-08
9.77153e-08
9.79192e-08
9.78665e-08
9.77041e-08
9.76875e-08
9.77286e-08
9.7795e-08
9.76572e-08
9.76564e-08
9.77481e-08
9.79815e-08
9.79054e-08
9.78385e-08
9.77851e-08
9.77075e-08
9.77105e-08
9.76406e-08
9.76913e-08
9.772e-08
9.8036e-08
9.78952e-08
9.79112e-08
9.78614e-08
9.77709e-08
9.77456e-08
9.77116e-08
9.77873e-08
9.79865e-08
)
;

boundaryField
{
    inlet
    {
        type            calculated;
        value           nonuniform 0();
    }
    outlet
    {
        type            calculated;
        value           uniform 0;
    }
    wall
    {
        type            calculated;
        value           uniform 0;
    }
    procBoundary7to0
    {
        type            processor;
        value           uniform 0;
    }
    procBoundary7to1
    {
        type            processor;
        value           uniform 0;
    }
    procBoundary7to3
    {
        type            processor;
        value           uniform 0;
    }
    procBoundary7to5
    {
        type            processor;
        value           uniform 0;
    }
    procBoundary7to6
    {
        type            processor;
        value           uniform 0;
    }
}


// ************************************************************************* //
