/*--------------------------------*- C++ -*----------------------------------*\
| =========                 |                                                 |
| \\      /  F ield         | OpenFOAM: The Open Source CFD Toolbox           |
|  \\    /   O peration     | Version:  4.x                                   |
|   \\  /    A nd           | Web:      www.OpenFOAM.org                      |
|    \\/     M anipulation  |                                                 |
\*---------------------------------------------------------------------------*/
FoamFile
{
    version     2.0;
    format      ascii;
    class       volScalarField;
    location    "4.5";
    object      particleRelTemp;
}
// * * * * * * * * * * * * * * * * * * * * * * * * * * * * * * * * * * * * * //

dimensions      [0 0 0 0 0 0 0];

internalField   nonuniform List<scalar> 
132
(
-3.62237e-07
-6.35727e-07
-6.9512e-07
-4.94896e-07
-3.64436e-08
7.21522e-07
1.52786e-06
2.20216e-06
2.57141e-06
-4.3303e-07
-6.58478e-07
-6.98792e-07
-5.69804e-07
-1.52172e-07
3.65287e-07
1.08321e-06
1.82604e-06
2.2522e-06
-4.98087e-07
-6.9927e-07
-7.34399e-07
-6.38325e-07
-3.37409e-07
9.84306e-08
6.97722e-07
1.25534e-06
1.64828e-06
-5.91556e-07
-7.37545e-07
-7.83508e-07
-6.78293e-07
-5.24274e-07
-1.45725e-07
3.29407e-07
7.26925e-07
9.57249e-07
-6.59286e-07
-4.82629e-07
-7.48922e-08
5.82823e-07
1.3289e-06
2.00134e-06
2.25794e-06
-4.42122e-07
-5.92804e-07
-6.78971e-07
-5.22467e-07
-1.53456e-07
4.34266e-07
1.17562e-06
1.72581e-06
2.07261e-06
-4.73555e-07
-6.50293e-07
-7.09647e-07
-6.01831e-07
-3.56347e-07
1.21681e-07
6.23615e-07
1.23429e-06
1.43497e-06
-5.48465e-07
-7.03149e-07
-7.55714e-07
-6.82812e-07
-5.05722e-07
-2.01424e-07
1.92251e-07
6.31848e-07
8.0728e-07
-1.88613e-07
2.63795e-07
9.63821e-07
1.42056e-06
1.95959e-06
-4.16954e-07
-6.1065e-07
-6.58722e-07
-5.1658e-07
-2.46571e-07
2.74815e-07
8.97503e-07
1.29184e-06
1.68563e-06
-4.91063e-07
-6.43515e-07
-7.02318e-07
-6.22414e-07
-4.06332e-07
5.88264e-09
4.31304e-07
8.03849e-07
1.11649e-06
-5.86185e-07
-6.9078e-07
-7.4475e-07
-6.94134e-07
-5.81067e-07
-2.93135e-07
2.73456e-08
3.10342e-07
5.42887e-07
6.35086e-07
1.09056e-06
1.36472e-06
-4.05891e-07
-6.2019e-07
-6.63808e-07
-5.55702e-07
-2.8712e-07
9.61682e-08
4.62575e-07
8.9312e-07
1.27372e-06
-5.32751e-07
-6.45938e-07
-7.089e-07
-6.64183e-07
-4.53476e-07
-1.3072e-07
1.55643e-07
4.7574e-07
7.62717e-07
-5.98502e-07
-7.06097e-07
-7.60178e-07
-7.34595e-07
-6.21385e-07
-4.17593e-07
-1.63049e-07
4.19111e-08
1.17889e-07
)
;

boundaryField
{
    inlet
    {
        type            calculated;
        value           nonuniform 0();
    }
    outlet
    {
        type            calculated;
        value           nonuniform List<scalar> 
16
(
2.57141e-06
2.2522e-06
1.64828e-06
9.57249e-07
2.25794e-06
2.07261e-06
1.43497e-06
8.0728e-07
1.95959e-06
1.68563e-06
1.11649e-06
5.42887e-07
1.36472e-06
1.27372e-06
7.62717e-07
1.17889e-07
)
;
    }
    wall
    {
        type            calculated;
        value           nonuniform List<scalar> 
66
(
-4.05891e-07
-5.32751e-07
-5.98502e-07
-6.2019e-07
-6.45938e-07
-7.06097e-07
-6.63808e-07
-7.089e-07
-7.60178e-07
-5.55702e-07
-6.64183e-07
-7.34595e-07
-2.8712e-07
-4.53476e-07
-6.21385e-07
9.61682e-08
-1.3072e-07
-4.17593e-07
6.35086e-07
4.62575e-07
1.55643e-07
-1.63049e-07
1.09056e-06
8.9312e-07
4.7574e-07
4.19111e-08
1.36472e-06
1.27372e-06
7.62717e-07
1.17889e-07
-5.91556e-07
-5.48465e-07
-5.86185e-07
-5.98502e-07
-7.37545e-07
-7.03149e-07
-6.9078e-07
-7.06097e-07
-7.83508e-07
-7.55714e-07
-7.4475e-07
-7.60178e-07
-6.78293e-07
-6.82812e-07
-6.94134e-07
-7.34595e-07
-5.24274e-07
-5.05722e-07
-5.81067e-07
-6.21385e-07
-1.45725e-07
-2.01424e-07
-2.93135e-07
-4.17593e-07
3.29407e-07
1.92251e-07
2.73456e-08
-1.63049e-07
7.26925e-07
6.31848e-07
3.10342e-07
4.19111e-08
9.57249e-07
8.0728e-07
5.42887e-07
1.17889e-07
)
;
    }
    procBoundary7to0
    {
        type            processor;
        value           uniform -4.31406e-08;
    }
    procBoundary7to1
    {
        type            processor;
        value           uniform -3.24944e-07;
    }
    procBoundary7to3
    {
        type            processor;
        value           nonuniform List<scalar> 
36
(
-4.68452e-07
-7.07577e-07
-7.58004e-07
-5.942e-07
-1.0856e-07
5.38744e-07
1.28709e-06
2.16511e-06
2.534e-06
-4.1961e-07
-7.31769e-07
-7.70785e-07
-5.77048e-07
-2.05255e-07
4.45884e-07
1.18959e-06
1.79839e-06
2.16073e-06
-5.58825e-07
-7.3249e-07
-7.90951e-07
-6.70006e-07
-3.04625e-07
2.06312e-07
6.9932e-07
1.28724e-06
1.57709e-06
-6.38199e-07
-7.88033e-07
-8.33351e-07
-7.31048e-07
-4.71926e-07
-1.48829e-07
3.79044e-07
7.72182e-07
1.08157e-06
)
;
    }
    procBoundary7to5
    {
        type            processor;
        value           nonuniform List<scalar> 
44
(
-6.28198e-07
-7.06263e-07
-4.90949e-07
-1.58817e-07
4.37057e-07
1.21309e-06
1.94302e-06
2.42052e-06
-3.34075e-07
-6.47819e-07
-6.82734e-07
-4.9429e-07
-9.07119e-08
4.17226e-07
1.11718e-06
1.78772e-06
2.08074e-06
-3.34075e-07
-6.47819e-07
-6.47819e-07
-6.45593e-07
-5.41386e-07
-2.36534e-07
2.21492e-07
7.43699e-07
1.26274e-06
1.57885e-06
-4.15968e-07
-5.97156e-07
-6.45593e-07
-5.41386e-07
-5.41386e-07
-2.91411e-07
1.82368e-07
4.2864e-07
8.32118e-07
1.10764e-06
-4.39299e-07
-6.12491e-07
-6.65318e-07
-5.60379e-07
-2.91411e-07
1.82368e-07
1.82368e-07
)
;
    }
    procBoundary7to6
    {
        type            processor;
        value           nonuniform List<scalar> 
12
(
-3.7815e-08
-2.51217e-07
-3.63041e-07
-1.17662e-07
-2.23555e-07
-3.31329e-07
-1.33535e-07
-2.38313e-07
-3.74438e-07
-2.13227e-07
-3.36945e-07
-4.49423e-07
)
;
    }
}


// ************************************************************************* //
