/*--------------------------------*- C++ -*----------------------------------*\
| =========                 |                                                 |
| \\      /  F ield         | OpenFOAM: The Open Source CFD Toolbox           |
|  \\    /   O peration     | Version:  4.x                                   |
|   \\  /    A nd           | Web:      www.OpenFOAM.org                      |
|    \\/     M anipulation  |                                                 |
\*---------------------------------------------------------------------------*/
FoamFile
{
    version     2.0;
    format      ascii;
    class       volScalarField;
    location    "4.5";
    object      QWallFluid;
}
// * * * * * * * * * * * * * * * * * * * * * * * * * * * * * * * * * * * * * //

dimensions      [1 -1 -3 0 0 0 0];

internalField   nonuniform List<scalar> 
132
(
0
0
0
0
0
0
0
0
0
0
0
0
0
0
0
0
0
0
0
0
0
0
0
0
0
0
0
6.85701e+08
1.0731e+09
6.82282e+08
1.1533e+09
7.15472e+08
1.24041e+09
6.44726e+08
1.50382e+09
1.10372e+09
0
0
0
0
0
0
0
0
0
0
0
0
0
0
0
0
0
0
0
0
0
0
0
0
0
6.23562e+08
1.00602e+09
6.16424e+08
1.04353e+09
5.72423e+08
1.08491e+09
5.24603e+08
1.01183e+09
6.61519e+08
0
0
0
0
0
0
0
0
0
0
0
0
0
0
0
0
0
0
0
0
0
0
0
6.86335e+08
1.063e+09
7.04569e+08
1.12297e+09
6.7736e+08
1.17945e+09
5.87351e+08
1.31386e+09
5.45993e+08
4.2557e+08
1.07852e+09
4.40775e+08
2.39468e+08
8.17515e+08
3.19019e+07
8.23358e+08
48235.4
8.55624e+08
9.00261e+06
8.56939e+08
1.87206e+08
4.99736e+08
9.40282e+08
3.99363e+08
9.29013e+08
3.63875e+08
8.70516e+08
9.65777e+07
7.93252e+08
2.11265e+08
1.40083e+09
2.13653e+09
1.55496e+09
2.30267e+09
1.63862e+09
2.42862e+09
1.71511e+09
2.54303e+09
1.76633e+09
)
;

boundaryField
{
    inlet
    {
        type            calculated;
        value           nonuniform 0();
    }
    outlet
    {
        type            calculated;
        value           uniform 0;
    }
    wall
    {
        type            calculated;
        value           uniform 0;
    }
    procBoundary7to0
    {
        type            processor;
        value           uniform 0;
    }
    procBoundary7to1
    {
        type            processor;
        value           uniform 0;
    }
    procBoundary7to3
    {
        type            processor;
        value           nonuniform List<scalar> 
36
(
0
0
0
0
0
0
0
0
0
0
0
0
0
0
0
0
0
0
0
0
0
0
0
0
0
0
0
6.43819e+08
1.09873e+09
7.23806e+08
1.14207e+09
6.39595e+08
1.1872e+09
5.40904e+08
1.37702e+09
7.22647e+08
)
;
    }
    procBoundary7to5
    {
        type            processor;
        value           nonuniform List<scalar> 
44
(
0
0
0
0
0
0
0
0
0
0
0
0
0
0
0
0
0
0
0
0
0
0
0
0
0
0
0
0
0
0
0
0
3.98886e+08
9.45846e+08
3.52842e+08
9.2469e+08
3.49238e+08
6.11706e+08
9.63276e+08
5.20458e+08
9.53721e+08
3.98886e+08
9.45846e+08
9.45846e+08
)
;
    }
    procBoundary7to6
    {
        type            processor;
        value           nonuniform List<scalar> 
12
(
0
0
1.01843e+09
0
0
9.57454e+08
0
0
9.97491e+08
8.54458e+08
9.22966e+08
1.99523e+09
)
;
    }
}


// ************************************************************************* //
