/*--------------------------------*- C++ -*----------------------------------*\
| =========                 |                                                 |
| \\      /  F ield         | OpenFOAM: The Open Source CFD Toolbox           |
|  \\    /   O peration     | Version:  4.x                                   |
|   \\  /    A nd           | Web:      www.OpenFOAM.org                      |
|    \\/     M anipulation  |                                                 |
\*---------------------------------------------------------------------------*/
FoamFile
{
    version     2.0;
    format      ascii;
    class       volScalarField;
    location    "4.5";
    object      thCond;
}
// * * * * * * * * * * * * * * * * * * * * * * * * * * * * * * * * * * * * * //

dimensions      [1 1 -3 -1 0 0 0];

internalField   nonuniform List<scalar> 
132
(
189.999
189.948
190.002
189.835
189.459
189.397
189.512
189.736
189.548
190.174
189.855
189.939
189.933
189.657
189.722
189.595
189.671
189.577
190.539
190.145
190.115
190.036
189.805
189.629
189.603
189.682
189.646
190.803
190.36
190.096
190.229
189.971
189.852
189.716
189.928
190.187
189.79
189.605
189.541
189.427
189.277
189.325
189.462
190.211
189.74
189.7
189.633
189.415
189.447
189.475
189.377
189.561
190.268
189.816
189.834
189.835
189.535
189.347
189.267
189.442
189.488
190.451
189.965
189.978
189.848
189.69
189.685
189.562
189.573
189.941
189.549
189.502
189.366
189.452
189.565
189.927
189.742
189.656
189.704
189.404
189.473
189.389
189.283
189.447
190.085
189.856
189.736
189.695
189.453
189.44
189.38
189.445
189.492
190.391
190.071
189.873
189.801
189.751
189.76
189.513
189.617
189.91
189.608
189.591
189.683
190.079
189.976
189.661
189.629
189.708
189.837
189.57
189.568
189.746
190.199
190.052
189.922
189.818
189.668
189.673
189.538
189.636
189.692
190.305
190.032
190.063
189.966
189.791
189.742
189.675
189.822
190.209
)
;

boundaryField
{
    inlet
    {
        type            zeroGradient;
    }
    outlet
    {
        type            zeroGradient;
    }
    wall
    {
        type            zeroGradient;
    }
    procBoundary7to0
    {
        type            processor;
        value           uniform 190.806;
    }
    procBoundary7to1
    {
        type            processor;
        value           uniform 190.369;
    }
    procBoundary7to3
    {
        type            processor;
        value           nonuniform List<scalar> 
36
(
190.492
190.315
190.248
190.129
190.261
190.159
189.949
190.075
190.086
190.513
190.573
190.368
190.573
190.483
190.126
189.999
189.919
190.14
190.839
190.568
190.455
190.58
190.397
190.134
190.136
190.083
190.249
191.124
191.155
190.869
190.727
190.569
190.321
190.274
190.118
190.13
)
;
    }
    procBoundary7to5
    {
        type            processor;
        value           nonuniform List<scalar> 
44
(
190.092
190.178
189.957
189.952
189.944
189.746
189.828
189.704
189.835
190.03
189.838
189.673
189.633
189.53
189.462
189.489
189.647
189.835
190.03
190.03
189.467
189.493
189.264
189.352
189.271
189.264
189.363
190.164
189.658
189.467
189.493
189.493
189.277
189.415
189.526
189.515
189.567
190.046
189.962
189.617
189.627
189.277
189.415
189.415
)
;
    }
    procBoundary7to6
    {
        type            processor;
        value           nonuniform List<scalar> 
12
(
190.483
190.534
190.872
190.071
190.174
190.386
190.021
190.115
190.462
190.373
190.185
190.467
)
;
    }
}


// ************************************************************************* //
