/*--------------------------------*- C++ -*----------------------------------*\
| =========                 |                                                 |
| \\      /  F ield         | OpenFOAM: The Open Source CFD Toolbox           |
|  \\    /   O peration     | Version:  4.x                                   |
|   \\  /    A nd           | Web:      www.OpenFOAM.org                      |
|    \\/     M anipulation  |                                                 |
\*---------------------------------------------------------------------------*/
FoamFile
{
    version     2.0;
    format      ascii;
    class       volVectorField;
    location    "29.5";
    object      ddtUrel;
}
// * * * * * * * * * * * * * * * * * * * * * * * * * * * * * * * * * * * * * //

dimensions      [0 1 -2 0 0 0 0];

internalField   nonuniform List<vector> 
114
(
(3.00889e-08 -3.45056e-09 -1.08263e-08)
(1.58619e-08 -1.46774e-09 -1.07397e-08)
(-4.44343e-09 -1.67361e-09 -9.15226e-09)
(-4.09451e-08 1.24667e-10 -5.3619e-09)
(-6.21307e-08 3.90239e-09 -2.90672e-09)
(-5.53476e-08 6.23672e-09 -4.00389e-10)
(4.00349e-08 -1.18916e-08 -1.21701e-08)
(3.02693e-08 -4.49428e-09 -1.14659e-08)
(1.40971e-08 -5.63054e-09 -1.17662e-08)
(-8.38907e-09 -1.54843e-09 -1.11948e-08)
(-5.34073e-08 1.27584e-09 -9.78002e-09)
(-7.72921e-08 4.82849e-09 -4.92763e-09)
(-6.96436e-08 7.93104e-09 -6.41823e-10)
(2.47942e-08 -2.06018e-08 -1.85965e-08)
(4.49079e-08 -1.21885e-08 -1.63376e-08)
(3.36393e-08 -6.31892e-09 -1.37308e-08)
(1.19785e-08 -5.75629e-09 -1.04499e-08)
(-1.88392e-08 1.42131e-09 -1.04885e-08)
(-6.57865e-08 4.79075e-09 -9.14269e-09)
(-8.82289e-08 4.60908e-09 -6.75886e-09)
(-7.61033e-08 8.86019e-09 -3.04771e-09)
(2.66866e-08 -9.56854e-09 -9.13198e-09)
(3.47385e-08 -9.79151e-09 -5.61577e-09)
(3.97217e-08 -4.54953e-09 -4.00936e-09)
(2.91564e-08 -3.59749e-09 -5.088e-09)
(1.52855e-08 -4.00429e-09 -3.33542e-09)
(-7.15184e-09 -1.7044e-09 -4.35863e-09)
(-4.09659e-08 -1.98265e-09 -2.21827e-09)
(-6.13286e-08 1.31793e-09 6.13142e-10)
(-5.23385e-08 4.29038e-09 1.42884e-09)
(3.70264e-08 -1.36238e-08 -1.34167e-08)
(3.5576e-08 -1.38034e-08 -8.94509e-09)
(3.97264e-08 -1.01925e-08 -7.63526e-09)
(3.01007e-08 -4.97125e-09 -6.93448e-09)
(1.57484e-08 -4.65519e-09 -5.28923e-09)
(-5.71529e-09 -9.23965e-10 -5.19174e-09)
(-4.29847e-08 1.64158e-09 -2.99196e-09)
(-6.11194e-08 1.23563e-09 -3.27542e-10)
(-5.41201e-08 3.96513e-09 8.66944e-10)
(4.23604e-08 -1.92402e-08 -1.74278e-08)
(3.86619e-08 -1.34936e-08 -1.08366e-08)
(4.32764e-08 -7.86295e-09 -9.50168e-09)
(3.6393e-08 -4.89938e-09 -8.98976e-09)
(6.12267e-09 -2.78649e-09 -4.89496e-09)
(-1.25755e-08 1.42873e-09 -5.09661e-09)
(-5.51334e-08 5.25175e-09 -3.98626e-09)
(-6.95212e-08 4.40507e-09 -1.30674e-09)
(-5.64921e-08 5.60266e-09 -1.38793e-09)
(5.13405e-08 -1.69149e-08 -1.77947e-08)
(5.54349e-08 -1.25371e-08 -1.36498e-08)
(3.34481e-08 -8.14303e-09 -6.07626e-09)
(3.4169e-08 -9.13846e-09 -5.15997e-09)
(3.12732e-08 -8.57425e-09 -4.22494e-09)
(2.59826e-08 -4.54304e-09 -3.16512e-09)
(1.32541e-08 -2.88473e-09 -1.16455e-09)
(-6.52018e-09 -1.98883e-09 -1.99682e-09)
(-4.03855e-08 -1.82884e-09 6.91352e-10)
(-6.04511e-08 9.16591e-10 2.41159e-09)
(-5.28856e-08 3.10723e-09 1.40178e-09)
(3.85203e-08 -8.4836e-09 -7.88001e-09)
(3.76175e-08 -1.04467e-08 -5.93914e-09)
(3.52782e-08 -8.83168e-09 -7.55811e-09)
(3.22118e-08 -3.75268e-09 -4.5121e-09)
(1.56382e-08 -2.7176e-09 -1.16433e-09)
(-6.16108e-09 -1.27379e-09 -9.89964e-10)
(-4.55182e-08 -1.8159e-09 2.60907e-09)
(-6.33358e-08 6.33143e-10 3.50168e-09)
(-5.37381e-08 3.57852e-09 1.09131e-09)
(4.60906e-08 -8.85975e-09 -1.01901e-08)
(4.31327e-08 -1.02293e-08 -7.33823e-09)
(4.13929e-08 -7.00204e-09 -5.72846e-09)
(3.38517e-08 -3.35029e-09 -6.05877e-09)
(1.28637e-08 -1.5866e-09 -1.47351e-09)
(-1.03808e-08 8.2684e-10 -2.01294e-09)
(-5.05417e-08 1.97905e-09 -2.45815e-10)
(-6.33258e-08 3.07341e-09 2.47772e-09)
(-5.37888e-08 5.17059e-09 4.72044e-10)
(5.32073e-08 -6.19618e-09 -1.09468e-08)
(4.71076e-08 -8.38668e-09 -9.22198e-09)
(4.48622e-08 -6.95864e-09 -9.67578e-09)
(3.35418e-08 -2.52375e-09 -6.58931e-09)
(3.3203e-08 -7.95146e-09 -4.83452e-09)
(2.96404e-08 -1.07045e-08 -4.12708e-09)
(2.0159e-08 -1.78199e-08 -3.94568e-09)
(2.25783e-08 -7.48265e-09 -3.27233e-09)
(1.21114e-08 -3.52709e-09 -2.28056e-09)
(-5.33144e-09 -2.26005e-09 -1.56662e-09)
(-3.5094e-08 -2.00134e-09 1.44693e-09)
(-5.27248e-08 3.0335e-10 2.65541e-09)
(-4.14743e-08 2.89652e-09 1.33499e-09)
(3.90878e-08 -7.23651e-09 -5.21641e-09)
(3.53463e-08 -9.90399e-09 -4.31144e-09)
(3.05516e-08 -1.1693e-08 -4.22021e-09)
(2.65005e-08 -4.952e-09 -3.77129e-09)
(9.89926e-09 -2.77825e-09 -2.39658e-09)
(-1.0063e-08 -1.82619e-09 -1.55914e-09)
(-4.48369e-08 -1.43813e-09 2.31746e-09)
(-5.97278e-08 1.17502e-09 2.29493e-09)
(-4.9161e-08 3.11325e-09 4.48488e-10)
(4.69286e-08 -6.32587e-09 -7.03847e-09)
(4.10007e-08 -8.60047e-09 -5.36376e-09)
(3.63317e-08 -7.67764e-09 -4.22869e-09)
(2.5889e-08 -3.05499e-09 -3.2157e-09)
(8.00131e-09 -9.78205e-10 -1.99112e-09)
(-1.28743e-08 7.40886e-10 -6.82231e-10)
(-5.14322e-08 1.37632e-09 2.98706e-09)
(-6.48813e-08 3.88633e-09 1.6646e-09)
(-5.13076e-08 5.9783e-09 -9.49276e-10)
(4.95501e-08 -3.56278e-09 -8.38835e-09)
(4.69917e-08 -7.45986e-09 -5.04437e-09)
(3.77444e-08 -1.09831e-08 -4.15291e-09)
(2.23219e-08 -2.2094e-09 -3.76994e-09)
(5.35362e-09 3.05116e-09 -6.63961e-10)
(-1.74568e-08 5.36404e-09 5.46758e-10)
)
;

boundaryField
{
    inlet
    {
        type            calculated;
        value           nonuniform 0();
    }
    outlet
    {
        type            calculated;
        value           nonuniform List<vector> 
12
(
(5.15814e-08 -4.30724e-09 2.20232e-09)
(1.51152e-08 1.02508e-09 6.12643e-09)
(5.11729e-09 9.69792e-09 3.57055e-09)
(7.24106e-09 2.17176e-09 -3.71359e-09)
(3.41366e-09 -2.83325e-09 8.76106e-09)
(1.86664e-09 -4.04531e-09 3.22818e-09)
(8.92598e-09 -5.40061e-10 -4.41778e-09)
(-2.49177e-09 -3.66526e-09 2.52161e-09)
(5.60029e-09 -1.04527e-08 2.34377e-09)
(1.64467e-08 1.40897e-09 -8.98033e-10)
(5.39426e-09 -7.9093e-10 6.79712e-10)
(1.01118e-08 6.58802e-10 -2.92436e-10)
)
;
    }
    wall
    {
        type            calculated;
        value           nonuniform List<vector> 
66
(
(4.23925e-08 -4.92408e-09 2.86095e-09)
(7.08871e-08 -6.94317e-09 3.21113e-09)
(5.45878e-08 -1.11862e-08 2.75199e-09)
(5.36834e-08 -7.08665e-09 -2.57837e-08)
(3.34869e-08 -6.73075e-10 -1.38692e-09)
(6.77858e-08 -1.30162e-08 3.3e-09)
(3.95673e-08 -1.2204e-08 4.58207e-09)
(7.06935e-08 -9.59965e-09 1.65153e-08)
(-7.53801e-08 -1.22345e-07 -1.23366e-09)
(7.09181e-08 -4.42583e-08 2.1465e-09)
(4.59794e-08 9.62362e-09 7.87147e-09)
(9.04974e-09 -1.03785e-07 4.03123e-08)
(2.54837e-08 -8.93477e-11 -1.70165e-09)
(1.02037e-07 1.15015e-08 -2.96303e-09)
(2.95618e-08 3.58771e-09 -5.32178e-09)
(-1.34442e-08 2.6799e-09 -4.6504e-09)
(1.76441e-08 -3.22621e-09 -6.38726e-10)
(4.28061e-08 -9.98379e-09 -1.487e-09)
(2.09077e-08 7.74544e-09 -2.05903e-09)
(-3.62829e-08 1.27325e-08 1.69564e-08)
(7.13186e-08 -8.90993e-09 -1.22314e-08)
(9.02793e-08 -6.15419e-09 -2.03358e-08)
(9.28262e-10 4.50854e-09 -2.92789e-09)
(-2.10204e-08 9.97276e-09 -1.11427e-08)
(-4.84843e-08 -5.32927e-09 2.77152e-09)
(-1.04655e-07 -1.06662e-08 9.94705e-09)
(-1.30089e-07 -6.93109e-09 2.04867e-08)
(-1.30811e-07 1.06534e-09 2.59347e-09)
(-1.49224e-07 -5.00749e-09 6.17462e-09)
(-1.49635e-07 -6.68966e-09 2.35448e-09)
(7.65533e-09 5.79658e-09 -2.34791e-09)
(-1.06894e-08 6.80746e-09 -1.66903e-09)
(-1.52635e-09 1.94832e-09 -4.99034e-09)
(1.92584e-08 -3.72583e-09 7.94152e-10)
(3.14325e-08 4.72008e-09 -5.87441e-09)
(3.36436e-08 -3.98672e-09 3.23515e-09)
(5.53614e-08 -4.49333e-09 7.18664e-09)
(4.46197e-08 -2.5611e-10 6.45472e-10)
(2.70334e-08 2.12634e-11 -8.00755e-10)
(4.50581e-08 3.61221e-08 9.92753e-09)
(4.39484e-08 1.52201e-09 -2.20223e-09)
(-2.12325e-07 -1.19499e-07 -8.02527e-10)
(4.03716e-08 7.97955e-09 1.4608e-09)
(6.07815e-08 4.12306e-09 5.37321e-09)
(4.98777e-08 3.65433e-09 1.46407e-09)
(1.63053e-08 -3.41069e-10 -1.98459e-09)
(-9.22503e-09 7.02367e-09 -8.65801e-09)
(4.05733e-08 -1.708e-08 1.64941e-08)
(4.76476e-08 2.14444e-09 7.08796e-09)
(1.82719e-08 -3.25361e-09 -8.95452e-10)
(4.57791e-08 -4.32275e-09 -1.34967e-08)
(2.48601e-08 -2.27859e-09 -8.65909e-10)
(9.587e-09 -4.3544e-09 -2.2314e-09)
(2.56342e-08 -9.74456e-09 -1.24199e-08)
(-8.90238e-08 -8.15256e-09 3.08294e-09)
(-9.96905e-08 -2.95997e-08 -3.04823e-09)
(-8.58558e-08 -1.27925e-08 1.30462e-11)
(-5.22403e-08 -5.13535e-09 2.38924e-09)
(-1.58279e-07 9.08599e-09 5.6178e-09)
(-1.46082e-07 -1.42617e-08 1.00752e-08)
(-1.33393e-07 7.86417e-10 3.731e-09)
(-1.18086e-07 2.16379e-09 2.71615e-09)
(-1.22558e-08 5.90937e-09 5.66156e-09)
(-1.10153e-08 9.4896e-09 -8.46541e-09)
(-6.93715e-09 4.29217e-09 -7.22443e-09)
(1.38273e-08 3.216e-09 -3.71337e-09)
)
;
    }
    procBoundary5to1
    {
        type            processor;
        value           nonuniform List<vector> 
32
(
(2.16935e-08 -9.62238e-10 -1.56146e-08)
(9.80312e-09 -2.21417e-09 -1.87647e-08)
(-6.76788e-09 -2.93996e-10 -1.76504e-08)
(-4.6035e-08 3.37768e-09 -1.1391e-08)
(-7.05413e-08 5.86731e-09 -8.36917e-09)
(-5.77196e-08 7.35024e-09 -3.76132e-09)
(3.00693e-08 -1.36081e-08 -2.15684e-08)
(1.50301e-08 -2.97133e-09 -1.95865e-08)
(9.45571e-09 -6.44531e-09 -1.7921e-08)
(-9.87436e-09 3.9208e-11 -1.78858e-08)
(-6.30394e-08 5.67055e-09 -1.29788e-08)
(-9.64078e-08 7.0402e-09 -7.89729e-09)
(-7.76974e-08 8.16241e-09 -5.0776e-09)
(1.31359e-09 -2.31523e-08 -3.52022e-08)
(4.13353e-08 -4.04361e-09 -3.17843e-08)
(2.24878e-08 -7.1971e-09 -2.45483e-08)
(9.55235e-09 -1.14495e-08 -1.98027e-08)
(-1.25588e-08 2.31354e-09 -1.63403e-08)
(-7.4435e-08 5.60328e-09 -1.52417e-08)
(-1.12992e-07 6.21595e-09 -1.22152e-08)
(-9.97167e-08 8.44487e-09 -6.30356e-09)
(2.49513e-08 -1.60396e-08 -1.8477e-08)
(3.44778e-08 -1.1729e-08 -1.08425e-08)
(4.44137e-08 -5.84042e-09 -1.03851e-08)
(4.44137e-08 -5.84042e-09 -1.03851e-08)
(4.44137e-08 -5.84042e-09 -1.03851e-08)
(3.05839e-08 -2.20513e-08 -2.36381e-08)
(3.12105e-08 -2.01631e-08 -1.39898e-08)
(3.12105e-08 -2.01631e-08 -1.39898e-08)
(3.12105e-08 -2.01631e-08 -1.39898e-08)
(2.30602e-08 -3.02728e-08 -3.38267e-08)
(2.30602e-08 -3.02728e-08 -3.38267e-08)
)
;
    }
    procBoundary5to4
    {
        type            processor;
        value           nonuniform List<vector> 
12
(
(2.95687e-08 -1.21848e-08 -1.22932e-08)
(4.5434e-08 -1.42714e-08 -1.59343e-08)
(5.15033e-08 -1.73824e-08 -2.00817e-08)
(5.97203e-08 -1.57994e-08 -2.16684e-08)
(3.21808e-08 -8.5882e-09 -6.68943e-09)
(4.02578e-08 -8.41055e-09 -8.91369e-09)
(4.80445e-08 -9.19971e-09 -1.15947e-08)
(5.58229e-08 -7.99962e-09 -1.61657e-08)
(3.26092e-08 -5.44978e-09 -4.87692e-09)
(3.75916e-08 -5.36401e-09 -5.93827e-09)
(4.18983e-08 -4.59351e-09 -8.40634e-09)
(4.48913e-08 -4.17911e-09 -1.26296e-08)
)
;
    }
    procBoundary5to7
    {
        type            processor;
        value           nonuniform List<vector> 
44
(
(3.10919e-08 -1.96288e-08 -2.60423e-08)
(4.45355e-08 -1.43345e-08 -3.25442e-08)
(3.71687e-08 -6.54065e-09 -1.66684e-08)
(1.69e-08 5.29248e-10 -6.10732e-09)
(-1.57011e-08 4.13139e-09 -1.10353e-08)
(-7.07076e-08 1.02246e-08 -6.80805e-09)
(-9.4288e-08 9.22816e-09 -5.64486e-09)
(-8.4957e-08 1.01875e-08 -1.66813e-09)
(3.61953e-08 -2.92021e-08 -3.06354e-08)
(3.10919e-08 -1.96288e-08 -2.60423e-08)
(4.81391e-08 -1.14503e-08 -1.2261e-08)
(3.38257e-08 -5.55265e-09 -1.0483e-08)
(1.13372e-08 -6.09092e-10 -7.63249e-09)
(-9.69564e-09 5.34483e-09 -7.17324e-09)
(-5.99162e-08 9.22787e-09 -4.56356e-09)
(-7.7123e-08 1.09909e-08 -7.30663e-10)
(-6.45384e-08 1.01083e-08 1.12886e-09)
(6.17737e-08 -1.40738e-08 -2.06893e-08)
(4.81391e-08 -1.14503e-08 -1.2261e-08)
(5.54961e-08 -1.42493e-08 -1.63885e-08)
(4.81391e-08 -1.14503e-08 -1.2261e-08)
(3.38257e-08 -5.55265e-09 -1.0483e-08)
(9.42497e-09 -3.39662e-10 -4.43065e-10)
(-1.79874e-08 3.70003e-09 -8.30478e-10)
(-5.80092e-08 8.07889e-09 -1.39273e-10)
(-7.03332e-08 1.17311e-08 3.64939e-09)
(-5.72147e-08 1.23746e-08 2.45316e-09)
(5.65694e-08 -9.78777e-09 -1.60207e-08)
(5.12058e-08 -8.65147e-09 -1.12644e-08)
(4.60031e-08 -6.56267e-09 -7.50588e-09)
(9.42497e-09 -3.39662e-10 -4.43065e-10)
(3.57593e-08 -7.38877e-10 -6.3455e-09)
(9.42497e-09 -3.39662e-10 -4.43065e-10)
(-1.79874e-08 3.70003e-09 -8.30478e-10)
(-5.88308e-08 5.70761e-09 4.54953e-09)
(-7.32845e-08 1.10521e-08 4.27621e-09)
(-6.10438e-08 1.44292e-08 2.78121e-09)
(4.57885e-08 -5.63996e-09 -1.35167e-08)
(4.83904e-08 -7.2769e-09 -7.7537e-09)
(3.96132e-08 -6.62209e-09 -5.05188e-09)
(2.43497e-08 -2.32199e-11 -4.63114e-09)
(5.66904e-09 5.34237e-09 -2.67739e-10)
(-5.88308e-08 5.70761e-09 4.54953e-09)
(-1.75832e-08 7.287e-09 1.7447e-09)
)
;
    }
}


// ************************************************************************* //
