/*--------------------------------*- C++ -*----------------------------------*\
| =========                 |                                                 |
| \\      /  F ield         | OpenFOAM: The Open Source CFD Toolbox           |
|  \\    /   O peration     | Version:  4.x                                   |
|   \\  /    A nd           | Web:      www.OpenFOAM.org                      |
|    \\/     M anipulation  |                                                 |
\*---------------------------------------------------------------------------*/
FoamFile
{
    version     2.0;
    format      ascii;
    class       volVectorField;
    location    "29.5";
    object      UsNext;
}
// * * * * * * * * * * * * * * * * * * * * * * * * * * * * * * * * * * * * * //

dimensions      [0 1 -1 0 0 0 0];

internalField   nonuniform List<vector> 
114
(
(-3.27608e-10 8.04076e-10 -9.42746e-10)
(-3.05454e-10 1.13982e-10 -2.14678e-09)
(-9.63491e-10 1.07088e-09 -3.26227e-09)
(-1.0345e-09 9.83744e-10 -3.24755e-09)
(-1.97588e-09 1.12606e-09 -1.23504e-09)
(-1.07257e-07 3.81481e-09 1.10486e-09)
(1.13163e-09 2.96492e-09 -1.37626e-10)
(5.3287e-10 1.49611e-09 -1.81484e-09)
(-3.86694e-10 2.04713e-10 -3.18985e-09)
(-2.17689e-09 1.37176e-09 -4.5993e-09)
(-2.2433e-09 1.85746e-09 -6.21608e-09)
(-3.71723e-09 7.56488e-10 -4.65981e-09)
(-6.32121e-09 2.88062e-09 -5.67512e-09)
(2.98251e-09 4.32622e-09 -2.00478e-09)
(2.32166e-09 3.82639e-09 -2.62689e-09)
(2.27758e-09 2.41456e-09 -3.59735e-09)
(1.63959e-09 1.05169e-09 -4.37999e-09)
(-5.33476e-10 1.44063e-10 -4.72387e-09)
(-2.19209e-09 7.19707e-10 -5.14816e-09)
(-3.16771e-09 -1.26385e-11 -5.90412e-09)
(-3.881e-09 -3.95392e-09 -6.69964e-09)
(-8.85948e-10 7.25982e-10 -1.83337e-09)
(-3.7676e-10 9.4006e-10 -8.2188e-10)
(-8.89009e-10 9.12271e-10 -1.61373e-09)
(-1.30688e-09 4.17783e-10 -8.36896e-10)
(-2.21716e-09 8.22593e-10 -7.22372e-10)
(-3.52991e-09 9.21849e-10 -1.29889e-09)
(-4.60007e-09 8.92369e-10 -1.65386e-09)
(-5.26476e-09 6.23146e-10 -5.05976e-10)
(-4.53174e-09 1.25526e-09 -2.84021e-09)
(-1.35851e-09 2.05003e-09 -2.35894e-09)
(-1.30862e-09 2.67633e-09 -1.84234e-09)
(-1.79026e-09 3.039e-09 -1.93045e-09)
(-2.6772e-09 1.9051e-09 -1.7635e-09)
(-3.27432e-09 1.75605e-09 -1.88555e-09)
(-5.67415e-09 2.08991e-09 -2.41977e-09)
(-7.32954e-09 1.24738e-09 -2.54492e-09)
(-9.14983e-09 2.03347e-09 -2.76303e-09)
(-6.9591e-09 8.85331e-10 -4.80467e-09)
(-1.63874e-09 2.36097e-09 -2.82809e-09)
(-1.67196e-11 3.11332e-09 -2.51835e-09)
(-2.5606e-10 3.90833e-09 -3.31833e-09)
(-3.16609e-10 3.27206e-09 -3.04144e-09)
(-2.12651e-09 2.54358e-09 -2.93928e-09)
(-3.65586e-09 1.7757e-09 -3.05142e-09)
(-5.21889e-09 1.21111e-09 -3.64319e-09)
(-5.97473e-09 1.09575e-09 -2.59217e-09)
(-4.23605e-09 1.04142e-09 -3.11685e-09)
(-1.50321e-09 1.17126e-09 -2.72022e-09)
(1.8308e-09 1.05106e-09 -2.45105e-09)
(-1.34917e-09 1.06344e-09 -1.03677e-09)
(-1.46387e-09 8.65045e-10 -8.77905e-10)
(-1.53856e-09 1.44332e-09 -1.55134e-09)
(-1.40566e-09 2.01319e-09 -1.35923e-09)
(-3.22097e-09 1.23554e-09 -3.29855e-10)
(-4.65064e-09 3.48868e-10 7.72395e-10)
(-6.57293e-09 2.02928e-10 1.43725e-10)
(-8.89596e-09 4.17831e-11 -3.7816e-10)
(-4.85522e-09 -5.08708e-10 -5.97686e-09)
(-2.23016e-09 2.24578e-09 -9.97953e-10)
(-2.28228e-09 2.06675e-09 -1.1788e-09)
(-2.99993e-09 3.63739e-09 -2.01705e-09)
(-4.44933e-09 2.74485e-09 -8.91568e-10)
(-5.16869e-09 2.28819e-09 -1.06393e-09)
(-7.59293e-09 1.85407e-09 -1.323e-09)
(-9.85371e-09 1.74683e-09 -1.32128e-10)
(-1.22802e-08 1.77134e-09 -8.37792e-10)
(-7.24784e-09 1.02474e-09 -3.40756e-09)
(-2.66641e-09 4.07913e-09 -1.42592e-09)
(-2.17371e-09 3.35035e-09 -1.78382e-09)
(-1.56953e-09 4.96002e-09 -3.05203e-09)
(-4.43116e-10 3.41807e-09 -1.90167e-09)
(-1.35334e-09 2.78318e-09 -1.04862e-09)
(-1.75945e-09 2.4573e-09 -1.49757e-09)
(-4.15758e-09 1.32745e-09 -7.09538e-10)
(-5.33626e-09 4.64765e-11 -3.54585e-10)
(-3.29595e-09 1.05913e-09 -1.33451e-09)
(1.11249e-09 2.83964e-09 -5.14229e-10)
(1.94978e-09 2.64356e-09 -1.95169e-09)
(2.53259e-09 3.02695e-09 -2.35149e-09)
(3.72014e-09 2.06576e-09 -1.33213e-09)
(-2.73005e-10 4.14272e-10 -1.41409e-10)
(-3.75214e-10 5.44391e-10 -4.3009e-10)
(1.92262e-10 -7.61369e-10 8.21656e-10)
(-9.82781e-10 1.09486e-09 -5.21873e-10)
(-2.35397e-09 5.74966e-10 1.77479e-10)
(-2.73454e-09 -2.18746e-10 8.28058e-10)
(-3.37511e-09 5.52879e-11 7.59344e-10)
(-3.38193e-09 1.68846e-09 -2.22206e-09)
(3.9787e-10 5.22783e-09 -6.01959e-09)
(-1.34939e-09 8.07111e-10 -1.74062e-10)
(-9.24148e-10 1.01619e-09 -6.7992e-10)
(2.63571e-09 1.52713e-09 -2.32023e-09)
(-3.03839e-09 1.04538e-09 4.74004e-11)
(-3.79301e-09 2.76181e-09 7.27152e-10)
(-5.81014e-09 6.41156e-10 -3.8446e-10)
(-8.67217e-09 1.78695e-09 -5.81936e-11)
(-5.43149e-09 2.35302e-09 3.61359e-12)
(-1.97145e-09 6.53776e-09 -7.1037e-10)
(-1.00016e-10 1.55165e-09 -2.5832e-10)
(1.05697e-11 1.76571e-09 -6.63686e-10)
(3.50183e-10 3.25493e-09 -3.75292e-10)
(2.46933e-10 2.06973e-09 -2.78801e-10)
(5.44076e-11 2.06531e-09 -3.02315e-10)
(-6.01293e-10 1.55599e-09 -8.81618e-10)
(-1.70743e-09 9.82689e-10 -4.47467e-11)
(-1.13424e-09 -1.53809e-10 -2.36278e-10)
(-1.17538e-09 5.75476e-11 -3.45474e-10)
(1.96231e-09 1.74917e-09 -5.85767e-10)
(2.60051e-09 2.30001e-09 -4.06884e-10)
(5.00729e-09 5.24786e-09 -5.74339e-10)
(2.57034e-09 1.57943e-09 -5.00649e-10)
(3.3992e-09 5.46415e-10 -6.17514e-11)
(4.05677e-09 1.49385e-09 4.9667e-10)
)
;

boundaryField
{
    inlet
    {
        type            calculated;
        value           nonuniform 0();
    }
    outlet
    {
        type            calculated;
        value           nonuniform List<vector> 
12
(
(-1.07257e-07 3.81481e-09 1.10486e-09)
(-6.32121e-09 2.88062e-09 -5.67512e-09)
(-3.881e-09 -3.95392e-09 -6.69964e-09)
(-4.53174e-09 1.25526e-09 -2.84021e-09)
(-6.9591e-09 8.85331e-10 -4.80467e-09)
(-4.23605e-09 1.04142e-09 -3.11685e-09)
(-4.85522e-09 -5.08708e-10 -5.97686e-09)
(-7.24784e-09 1.02474e-09 -3.40756e-09)
(-3.29595e-09 1.05913e-09 -1.33451e-09)
(3.9787e-10 5.22783e-09 -6.01959e-09)
(-1.97145e-09 6.53776e-09 -7.1037e-10)
(-1.17538e-09 5.75476e-11 -3.45474e-10)
)
;
    }
    wall
    {
        type            calculated;
        value           nonuniform List<vector> 
66
(
(-2.73005e-10 4.14272e-10 -1.41409e-10)
(-1.34939e-09 8.07111e-10 -1.74062e-10)
(-1.00016e-10 1.55165e-09 -2.5832e-10)
(1.96231e-09 1.74917e-09 -5.85767e-10)
(-3.75214e-10 5.44391e-10 -4.3009e-10)
(-9.24148e-10 1.01619e-09 -6.7992e-10)
(1.05697e-11 1.76571e-09 -6.63686e-10)
(2.60051e-09 2.30001e-09 -4.06884e-10)
(1.92262e-10 -7.61369e-10 8.21656e-10)
(2.63571e-09 1.52713e-09 -2.32023e-09)
(3.50183e-10 3.25493e-09 -3.75292e-10)
(5.00729e-09 5.24786e-09 -5.74339e-10)
(-9.82781e-10 1.09486e-09 -5.21873e-10)
(-3.03839e-09 1.04538e-09 4.74004e-11)
(2.46933e-10 2.06973e-09 -2.78801e-10)
(2.57034e-09 1.57943e-09 -5.00649e-10)
(-2.35397e-09 5.74966e-10 1.77479e-10)
(-3.79301e-09 2.76181e-09 7.27152e-10)
(5.44076e-11 2.06531e-09 -3.02315e-10)
(3.3992e-09 5.46415e-10 -6.17514e-11)
(-2.73454e-09 -2.18746e-10 8.28058e-10)
(-5.81014e-09 6.41156e-10 -3.8446e-10)
(-6.01293e-10 1.55599e-09 -8.81618e-10)
(4.05677e-09 1.49385e-09 4.9667e-10)
(-3.37511e-09 5.52879e-11 7.59344e-10)
(-8.67217e-09 1.78695e-09 -5.81936e-11)
(-1.70743e-09 9.82689e-10 -4.47467e-11)
(-3.38193e-09 1.68846e-09 -2.22206e-09)
(-5.43149e-09 2.35302e-09 3.61359e-12)
(-1.13424e-09 -1.53809e-10 -2.36278e-10)
(3.9787e-10 5.22783e-09 -6.01959e-09)
(-1.97145e-09 6.53776e-09 -7.1037e-10)
(-1.17538e-09 5.75476e-11 -3.45474e-10)
(-8.85948e-10 7.25982e-10 -1.83337e-09)
(-1.34917e-09 1.06344e-09 -1.03677e-09)
(-2.73005e-10 4.14272e-10 -1.41409e-10)
(-3.7676e-10 9.4006e-10 -8.2188e-10)
(-1.46387e-09 8.65045e-10 -8.77905e-10)
(-3.75214e-10 5.44391e-10 -4.3009e-10)
(-8.89009e-10 9.12271e-10 -1.61373e-09)
(-1.53856e-09 1.44332e-09 -1.55134e-09)
(1.92262e-10 -7.61369e-10 8.21656e-10)
(-3.27608e-10 8.04076e-10 -9.42746e-10)
(-1.30688e-09 4.17783e-10 -8.36896e-10)
(-1.40566e-09 2.01319e-09 -1.35923e-09)
(-9.82781e-10 1.09486e-09 -5.21873e-10)
(-3.05454e-10 1.13982e-10 -2.14678e-09)
(-2.21716e-09 8.22593e-10 -7.22372e-10)
(-3.22097e-09 1.23554e-09 -3.29855e-10)
(-2.35397e-09 5.74966e-10 1.77479e-10)
(-9.63491e-10 1.07088e-09 -3.26227e-09)
(-3.52991e-09 9.21849e-10 -1.29889e-09)
(-4.65064e-09 3.48868e-10 7.72395e-10)
(-2.73454e-09 -2.18746e-10 8.28058e-10)
(-1.0345e-09 9.83744e-10 -3.24755e-09)
(-4.60007e-09 8.92369e-10 -1.65386e-09)
(-6.57293e-09 2.02928e-10 1.43725e-10)
(-3.37511e-09 5.52879e-11 7.59344e-10)
(-1.97588e-09 1.12606e-09 -1.23504e-09)
(-5.26476e-09 6.23146e-10 -5.05976e-10)
(-8.89596e-09 4.17831e-11 -3.7816e-10)
(-3.38193e-09 1.68846e-09 -2.22206e-09)
(-1.07257e-07 3.81481e-09 1.10486e-09)
(-4.53174e-09 1.25526e-09 -2.84021e-09)
(-4.85522e-09 -5.08708e-10 -5.97686e-09)
(3.9787e-10 5.22783e-09 -6.01959e-09)
)
;
    }
    procBoundary5to1
    {
        type            processor;
        value           nonuniform List<vector> 
32
(
(1.17053e-09 -6.66685e-10 -1.27121e-09)
(1.34192e-09 -1.03438e-09 -2.62978e-09)
(2.09512e-09 -6.57312e-10 -4.29709e-09)
(2.707e-09 1.34779e-09 -5.77689e-09)
(2.81488e-09 1.21266e-09 -5.45225e-09)
(1.71151e-09 8.19904e-10 -1.03955e-08)
(5.03557e-09 8.32493e-10 3.38194e-09)
(1.97182e-09 -1.4895e-09 -1.95954e-09)
(2.95891e-09 -2.6116e-09 -5.29346e-09)
(2.40719e-09 -8.56872e-10 -7.52229e-09)
(4.21514e-09 1.47195e-09 -1.21656e-08)
(4.33086e-09 -1.45124e-09 -1.24804e-08)
(-1.03026e-09 2.84959e-09 -8.57534e-09)
(9.05362e-09 4.3716e-09 -4.03694e-10)
(7.62518e-09 3.23406e-09 1.25282e-10)
(5.3652e-09 4.29492e-10 -3.08195e-09)
(6.1948e-09 -1.14598e-09 -6.83642e-09)
(5.87604e-09 -2.87889e-09 -1.0304e-08)
(5.69522e-09 4.4141e-10 -1.50635e-08)
(2.83044e-09 -6.26156e-10 -1.16211e-08)
(-1.40894e-09 4.51651e-09 -1.14903e-08)
(-5.66716e-10 1.79412e-09 -9.9563e-10)
(-7.12193e-11 7.92968e-10 -5.10656e-10)
(-1.41406e-10 1.08005e-09 -7.9744e-10)
(-1.41406e-10 1.08005e-09 -7.9744e-10)
(-1.41406e-10 1.08005e-09 -7.9744e-10)
(-5.64959e-10 3.1502e-09 -2.3258e-09)
(7.98903e-10 3.99999e-09 1.51913e-10)
(7.98903e-10 3.99999e-09 1.51913e-10)
(7.98903e-10 3.99999e-09 1.51913e-10)
(-7.20206e-10 2.49795e-09 -3.16204e-09)
(-7.20206e-10 2.49795e-09 -3.16204e-09)
)
;
    }
    procBoundary5to4
    {
        type            processor;
        value           nonuniform List<vector> 
12
(
(-1.87618e-09 8.50944e-10 -6.84475e-10)
(-2.88234e-09 2.0591e-09 -1.44015e-09)
(-2.74516e-09 1.55461e-09 -2.98556e-09)
(-2.85797e-09 8.68454e-11 -2.31437e-09)
(-1.29153e-09 4.92703e-10 -6.91059e-10)
(-2.23713e-09 1.38946e-09 -1.50042e-09)
(-3.44977e-09 1.75342e-09 -2.33443e-09)
(-7.61422e-10 9.9994e-10 -1.45214e-09)
(-5.79089e-10 4.25372e-10 -2.44979e-11)
(-1.40722e-09 7.34169e-10 -5.9514e-10)
(-2.09603e-09 1.3861e-09 -6.67732e-10)
(1.03966e-09 5.38498e-10 -3.61171e-10)
)
;
    }
    procBoundary5to7
    {
        type            processor;
        value           nonuniform List<vector> 
44
(
(8.61435e-10 1.80567e-09 -1.99796e-09)
(2.61565e-09 3.17874e-09 -2.15945e-09)
(3.14158e-09 1.53492e-09 -4.20487e-09)
(2.64883e-09 1.38044e-09 -4.31195e-09)
(-2.95211e-09 5.0486e-10 -5.4991e-09)
(-1.01514e-09 6.65137e-11 -6.65951e-09)
(-3.78021e-09 2.56193e-10 -6.51481e-09)
(-3.25703e-09 -8.85265e-10 -6.18542e-09)
(-6.65036e-10 1.21216e-09 -2.91992e-09)
(8.61435e-10 1.80567e-09 -1.99796e-09)
(1.77515e-09 2.17712e-09 -3.51073e-09)
(2.46021e-09 2.39488e-09 -2.62605e-09)
(2.03018e-09 2.24015e-09 -2.10237e-09)
(1.01146e-09 7.5316e-10 -3.12722e-09)
(-1.30218e-10 9.32909e-11 -2.93593e-09)
(-1.76531e-09 -2.1316e-11 -3.53771e-09)
(-2.34979e-10 2.71984e-10 -1.82386e-09)
(2.23873e-10 -6.86979e-10 -2.35509e-09)
(1.77515e-09 2.17712e-09 -3.51073e-09)
(1.17472e-09 -4.43234e-10 -2.44022e-09)
(1.77515e-09 2.17712e-09 -3.51073e-09)
(2.46021e-09 2.39488e-09 -2.62605e-09)
(4.11533e-09 3.1135e-10 -6.82356e-10)
(3.53775e-09 6.18113e-10 -1.00839e-10)
(2.73683e-09 -2.69331e-10 -9.12259e-11)
(1.78576e-09 -1.06696e-09 -1.09076e-11)
(7.5665e-10 1.87539e-10 1.23584e-09)
(1.36918e-09 9.49597e-10 -1.44381e-09)
(2.1567e-09 -3.22394e-10 -2.42307e-09)
(3.22719e-09 -1.01642e-09 -3.6568e-09)
(4.11533e-09 3.1135e-10 -6.82356e-10)
(2.9757e-09 -1.19135e-09 -2.00689e-09)
(4.11533e-09 3.1135e-10 -6.82356e-10)
(3.53775e-09 6.18113e-10 -1.00839e-10)
(3.50943e-09 3.79477e-10 8.83905e-10)
(4.52467e-09 -1.75606e-09 1.99404e-10)
(1.18532e-09 -2.48409e-11 1.47109e-09)
(1.64794e-09 1.06571e-09 -5.19553e-10)
(2.63917e-09 7.70257e-10 -4.90976e-10)
(2.72126e-09 2.72397e-10 -4.56222e-10)
(2.63205e-09 -3.82404e-10 -4.02943e-10)
(2.3427e-09 -3.85799e-10 -7.23842e-10)
(3.50943e-09 3.79477e-10 8.83905e-10)
(2.72961e-09 -1.79273e-09 -1.27185e-09)
)
;
    }
}


// ************************************************************************* //
