/*--------------------------------*- C++ -*----------------------------------*\
| =========                 |                                                 |
| \\      /  F ield         | OpenFOAM: The Open Source CFD Toolbox           |
|  \\    /   O peration     | Version:  4.x                                   |
|   \\  /    A nd           | Web:      www.OpenFOAM.org                      |
|    \\/     M anipulation  |                                                 |
\*---------------------------------------------------------------------------*/
FoamFile
{
    version     2.0;
    format      ascii;
    class       volVectorField;
    location    "29.5";
    object      UsPrev;
}
// * * * * * * * * * * * * * * * * * * * * * * * * * * * * * * * * * * * * * //

dimensions      [0 1 -1 0 0 0 0];

internalField   nonuniform List<vector> 
114
(
(-4.85111e-10 8.07997e-10 -9.12775e-10)
(-2.99246e-10 1.11156e-10 -2.13279e-09)
(-8.71417e-10 9.51167e-10 -3.227e-09)
(-1.0851e-09 8.86257e-10 -3.25005e-09)
(-2.11243e-09 1.00875e-09 -1.24023e-09)
(-1.07353e-07 3.8078e-09 1.10201e-09)
(1.03438e-09 2.95608e-09 -1.50319e-10)
(3.5167e-10 1.50703e-09 -1.82439e-09)
(-4.98079e-10 1.97668e-10 -3.20468e-09)
(-2.40498e-09 1.24506e-09 -4.60327e-09)
(-2.31917e-09 1.73602e-09 -6.2176e-09)
(-3.70729e-09 6.27227e-10 -4.65296e-09)
(-6.32557e-09 2.87285e-09 -5.67595e-09)
(2.90353e-09 4.30373e-09 -1.99759e-09)
(2.27348e-09 3.8224e-09 -2.62923e-09)
(2.12724e-09 2.407e-09 -3.61897e-09)
(1.5383e-09 1.05033e-09 -4.39918e-09)
(-6.75107e-10 1.43072e-10 -4.7389e-09)
(-2.26635e-09 7.49295e-10 -5.15199e-09)
(-3.1602e-09 -1.73473e-11 -5.90766e-09)
(-3.86999e-09 -3.94919e-09 -6.69952e-09)
(-9.84612e-10 6.68239e-10 -1.76002e-09)
(-5.85895e-10 9.26716e-10 -8.64903e-10)
(-9.94352e-10 9.11158e-10 -1.63695e-09)
(-1.4328e-09 4.14505e-10 -8.40655e-10)
(-2.24001e-09 8.10238e-10 -7.24245e-10)
(-3.53936e-09 8.56782e-10 -1.35214e-09)
(-4.66705e-09 8.2236e-10 -1.70861e-09)
(-5.38065e-09 5.62688e-10 -5.60135e-10)
(-4.60255e-09 1.2564e-09 -2.84581e-09)
(-1.46609e-09 1.97771e-09 -2.35282e-09)
(-1.46068e-09 2.64734e-09 -1.86693e-09)
(-1.89241e-09 3.03191e-09 -1.95056e-09)
(-2.8412e-09 1.89763e-09 -1.77474e-09)
(-3.36415e-09 1.74177e-09 -1.88467e-09)
(-5.77576e-09 1.99895e-09 -2.38169e-09)
(-7.39612e-09 1.17539e-09 -2.4974e-09)
(-9.19754e-09 1.94544e-09 -2.73279e-09)
(-6.99213e-09 8.75831e-10 -4.80356e-09)
(-1.71845e-09 2.33993e-09 -2.83825e-09)
(-1.26417e-10 3.09968e-09 -2.53748e-09)
(-3.10786e-10 3.90584e-09 -3.32697e-09)
(-4.7239e-10 3.27129e-09 -3.04963e-09)
(-2.22969e-09 2.53673e-09 -2.9389e-09)
(-3.76714e-09 1.76522e-09 -3.01512e-09)
(-5.2946e-09 1.21472e-09 -3.61299e-09)
(-5.99055e-09 1.0918e-09 -2.55991e-09)
(-4.24175e-09 1.04099e-09 -3.11239e-09)
(-1.57705e-09 1.17631e-09 -2.72689e-09)
(1.73594e-09 1.05845e-09 -2.45463e-09)
(-1.45438e-09 9.48435e-10 -1.38229e-09)
(-1.73307e-09 8.48829e-10 -1.01326e-09)
(-1.65887e-09 1.44251e-09 -1.59422e-09)
(-1.51882e-09 2.01371e-09 -1.37035e-09)
(-3.27409e-09 1.22741e-09 -3.34466e-10)
(-4.68891e-09 3.33359e-10 7.4436e-10)
(-6.64303e-09 1.89061e-10 1.21498e-10)
(-8.96114e-09 2.49328e-11 -4.06775e-10)
(-4.9035e-09 -5.10265e-10 -5.98205e-09)
(-2.35995e-09 2.16712e-09 -1.16093e-09)
(-2.46328e-09 2.05736e-09 -1.26321e-09)
(-3.09409e-09 3.64555e-09 -2.04213e-09)
(-4.59935e-09 2.74825e-09 -9.02844e-10)
(-5.25914e-09 2.28137e-09 -1.06416e-09)
(-7.68494e-09 1.81955e-09 -1.30447e-09)
(-9.95164e-09 1.72321e-09 -1.21039e-10)
(-1.23736e-08 1.74094e-09 -8.28443e-10)
(-7.29185e-09 1.02304e-09 -3.4112e-09)
(-2.78855e-09 4.07445e-09 -1.44147e-09)
(-2.2932e-09 3.35908e-09 -1.78615e-09)
(-1.65999e-09 4.97177e-09 -3.0529e-09)
(-5.89908e-10 3.42311e-09 -1.90216e-09)
(-1.45116e-09 2.7821e-09 -1.04611e-09)
(-1.85325e-09 2.44473e-09 -1.47259e-09)
(-4.2426e-09 1.32241e-09 -6.87546e-10)
(-5.39492e-09 3.82356e-11 -3.27292e-10)
(-3.3307e-09 1.05956e-09 -1.33401e-09)
(9.87207e-10 2.86676e-09 -5.12079e-10)
(1.82341e-09 2.67865e-09 -1.94406e-09)
(2.44393e-09 3.04261e-09 -2.34906e-09)
(3.55815e-09 2.07257e-09 -1.32865e-09)
(-2.81171e-10 5.43948e-10 -4.44221e-10)
(-1.98379e-10 5.95989e-10 -5.48366e-10)
(2.62167e-10 -7.38829e-10 7.83676e-10)
(-1.06531e-09 1.09751e-09 -5.292e-10)
(-2.39953e-09 5.72123e-10 1.76479e-10)
(-2.7776e-09 -2.23247e-10 8.18508e-10)
(-3.43164e-09 5.2419e-11 7.51751e-10)
(-3.4419e-09 1.68101e-09 -2.23183e-09)
(3.67201e-10 5.22813e-09 -6.02113e-09)
(-1.4421e-09 1.05497e-09 -2.96367e-10)
(-9.2668e-10 1.13069e-09 -7.55983e-10)
(2.61583e-09 1.55529e-09 -2.33766e-09)
(-3.13733e-09 1.05351e-09 4.3041e-11)
(-3.84116e-09 2.77004e-09 7.25577e-10)
(-5.84878e-09 6.3048e-10 -3.8262e-10)
(-8.75589e-09 1.7795e-09 -5.76725e-11)
(-5.49406e-09 2.34272e-09 8.58065e-12)
(-2.00877e-09 6.53772e-09 -7.10852e-10)
(-1.72899e-10 1.61969e-09 -2.65501e-10)
(-7.49524e-11 1.82141e-09 -6.47536e-10)
(2.73135e-10 3.27474e-09 -3.72849e-10)
(1.24862e-10 2.07842e-09 -2.77972e-10)
(-1.39439e-11 2.06978e-09 -3.00008e-10)
(-6.51758e-10 1.54943e-09 -8.73376e-10)
(-1.76631e-09 9.78711e-10 -3.76146e-11)
(-1.1831e-09 -1.5821e-10 -2.27161e-10)
(-1.21186e-09 5.73345e-11 -3.45301e-10)
(1.88518e-09 1.772e-09 -5.84906e-10)
(2.49807e-09 2.31082e-09 -3.97707e-10)
(4.924e-09 5.26348e-09 -5.69936e-10)
(2.42498e-09 1.58541e-09 -4.99217e-10)
(3.32224e-09 5.49524e-10 -5.91796e-11)
(4.01465e-09 1.4957e-09 5.03072e-10)
)
;

boundaryField
{
    inlet
    {
        type            calculated;
        value           nonuniform 0();
    }
    outlet
    {
        type            calculated;
        value           uniform (0 0 0);
    }
    wall
    {
        type            calculated;
        value           uniform (0 0 0);
    }
    procBoundary5to1
    {
        type            processor;
        value           uniform (0 0 0);
    }
    procBoundary5to4
    {
        type            processor;
        value           uniform (0 0 0);
    }
    procBoundary5to7
    {
        type            processor;
        value           uniform (0 0 0);
    }
}


// ************************************************************************* //
