/*--------------------------------*- C++ -*----------------------------------*\
| =========                 |                                                 |
| \\      /  F ield         | OpenFOAM: The Open Source CFD Toolbox           |
|  \\    /   O peration     | Version:  4.x                                   |
|   \\  /    A nd           | Web:      www.OpenFOAM.org                      |
|    \\/     M anipulation  |                                                 |
\*---------------------------------------------------------------------------*/
FoamFile
{
    version     2.0;
    format      ascii;
    class       volScalarField;
    location    "52";
    object      p_rgh;
}
// * * * * * * * * * * * * * * * * * * * * * * * * * * * * * * * * * * * * * //

dimensions      [1 -1 -2 0 0 0 0];

internalField   nonuniform List<scalar> 
132
(
20.763
74.8437
1.94106
68.3777
-16.8401
62.5024
-35.5624
57.6852
-51.7909
20.9898
74.888
2.20793
68.0901
-16.1378
61.0782
-33.8748
54.6423
-49.2756
19.155
74.7133
-0.599164
68.344
-20.9664
62.9971
-42.5422
60.2579
-64.9324
19.7367
74.7933
0.144551
68.4928
-20.0253
63.0905
-41.3312
59.8855
-63.6796
3.57547
68.2819
-14.6566
62.4471
-32.6264
56.6571
-49.1252
23.0089
75.0276
5.04403
68.5208
-13.0134
62.2411
-31.1979
55.6773
-49.1246
21.1431
74.9283
2.82803
68.324
-14.9729
62.0328
-32.189
55.8486
-46.5016
21.2924
75.5353
2.91334
68.9487
-15.1949
62.0156
-32.2741
55.5508
-46.7276
-17.7451
61.9485
-36.9443
57.1013
-54.9305
21.4498
74.9286
2.95546
68.1379
-15.3146
61.0852
-33.2905
54.4364
-49.3803
20.6623
74.7785
1.40824
68.1504
-18.7641
62.3932
-40.884
59.1176
-66.1769
20.8792
74.8622
1.98814
68.3963
-17.6
62.5899
-38.5636
58.7588
-74.6767
-39.5448
58.8845
-66.4171
21.4085
75.0496
2.84864
68.4478
-15.9506
62.2199
-34.2806
56.4086
-54.5751
20.9308
74.9268
2.21935
68.5235
-17.0221
62.7855
-36.482
58.432
-64.5511
21.2835
75.0427
2.69578
68.5899
-16.0539
62.3875
-34.5836
56.8235
-54.3961
)
;

boundaryField
{
    inlet
    {
        type            fixedFluxPressure;
        gradient        nonuniform 0();
        value           nonuniform 0();
    }
    outlet
    {
        type            fixedValue;
        value           uniform 0;
    }
    wall
    {
        type            fixedFluxPressure;
        gradient        nonuniform List<scalar> 
66
(
1.40079e-06
7.73637e-08
-2.34166e-07
-2.42917e-07
2.13668e-08
-1.41581e-07
-5.79639e-07
-1.54006e-06
-4.68027e-08
-3.11664e-08
5.41753e-09
4.36724e-07
1.96857e-06
1.41801e-06
4.66861e-07
-1.4992e-07
-3.34032e-07
1.19116e-06
1.86076e-06
5.13275e-06
-1.7053e-06
6.76143e-07
1.4174e-06
2.43555e-06
1.3871e-06
1.36559e-06
1.66241e-05
3.12262e-05
-7.73965e-06
8.03681e-06
-8.56314e-07
-2.33045e-06
-4.21932e-07
-3.24977e-07
-5.71223e-07
-3.40327e-07
2.94339e-07
2.76795e-07
2.22847e-06
1.74201e-05
9.86789e-07
7.95094e-07
1.23427e-06
1.37334e-06
1.16681e-06
8.56127e-07
1.99254e-06
0.000181258
3.40799e-06
-7.84244e-05
6.74567e-07
4.40209e-06
1.87869e-06
1.40036e-06
1.39673e-06
5.24761
3.79596e-06
1.62773e-06
7.47963e-07
6.34507e-08
4.78757e-07
2.09072e-06
2.15704e-06
8.38165e-06
4.41777e-06
4.51925e-05
)
;
        value           nonuniform List<scalar> 
66
(
21.4085
20.9308
21.2835
75.0496
74.9268
75.0427
2.84864
2.21935
2.69578
68.4478
68.5235
68.5899
-15.9506
-17.0221
-16.0539
62.2199
62.7855
62.3875
-39.5448
-34.2806
-36.482
-34.5836
58.8845
56.4086
58.432
56.8235
-66.4171
-54.5751
-64.5511
-54.3961
19.7367
21.2924
20.8792
21.2835
74.7933
75.5353
74.8622
75.0427
0.144551
2.91334
1.98814
2.69578
68.4928
68.9487
68.3963
68.5899
-20.0253
-15.1949
-17.6
-16.0539
63.0905
62.0156
62.5899
62.3875
-41.3312
-32.1991
-38.5636
-34.5836
59.8855
55.5508
58.7588
56.8235
-63.6796
-46.7276
-74.6767
-54.3961
)
;
    }
    procBoundary7to0
    {
        type            processor;
        value           uniform 81.9922;
    }
    procBoundary7to1
    {
        type            processor;
        value           uniform 22.5716;
    }
    procBoundary7to3
    {
        type            processor;
        value           nonuniform List<scalar> 
36
(
19.2677
74.7512
-0.122351
68.3008
-19.7017
62.9285
-38.9312
58.8408
-55.7949
21.4236
74.9216
3.33054
68.6577
-14.5046
62.8562
-32.3222
56.729
-48.1872
19.9329
74.9116
0.782423
68.2317
-18.4121
62.2502
-37.9005
57.7643
-55.0029
20.1794
75.1088
1.19329
68.8479
-18.3872
63.0903
-38.995
58.6948
-61.1711
)
;
    }
    procBoundary7to5
    {
        type            processor;
        value           nonuniform List<scalar> 
44
(
75.1258
4.98823
68.4393
-12.3822
61.6719
-29.2425
53.7283
-44.4153
21.5694
74.8072
2.94791
68.2897
-15.75
62.2013
-34.5281
57.2257
-52.3064
21.5694
74.8072
74.8072
1.57476
68.0435
-16.0627
61.3012
-33.9635
54.4266
-49.8313
20.6129
74.9002
1.57476
68.0435
68.0435
-18.499
62.6802
-39.2805
58.5506
-67.6757
20.5165
74.8486
1.40506
68.4168
-18.499
62.6802
62.6802
)
;
    }
    procBoundary7to6
    {
        type            processor;
        value           nonuniform List<scalar> 
12
(
82.1347
81.6091
81.6416
81.8974
82.1063
82.2579
82.2473
81.8598
81.7762
81.9537
81.7948
81.8375
)
;
    }
}


// ************************************************************************* //
