/*--------------------------------*- C++ -*----------------------------------*\
| =========                 |                                                 |
| \\      /  F ield         | OpenFOAM: The Open Source CFD Toolbox           |
|  \\    /   O peration     | Version:  4.x                                   |
|   \\  /    A nd           | Web:      www.OpenFOAM.org                      |
|    \\/     M anipulation  |                                                 |
\*---------------------------------------------------------------------------*/
FoamFile
{
    version     2.0;
    format      ascii;
    class       volScalarField;
    location    "52";
    object      QPartFluidCoeff;
}
// * * * * * * * * * * * * * * * * * * * * * * * * * * * * * * * * * * * * * //

dimensions      [1 -1 -3 -1 0 0 0];

internalField   nonuniform List<scalar> 
132
(
-3.38922e+07
-3.06354e+07
-2.16712e+07
-2.66649e+07
-3.71036e+07
-4.18818e+07
-2.67571e+07
-2.18451e+07
-2.05393e+07
-2.49952e+07
-3.82316e+07
-2.48717e+07
-2.73016e+07
-2.79829e+07
-2.3222e+07
-2.62705e+07
-2.56271e+07
-2.28236e+07
-1.78493e+07
-3.15904e+07
-2.3336e+07
-3.01205e+07
-2.81466e+07
-3.52689e+07
-2.89321e+07
-3.06635e+07
-2.3131e+07
-2.36118e+07
-2.51511e+07
-3.00144e+07
-1.99639e+07
-2.65277e+07
-2.69045e+07
-2.67872e+07
-2.35237e+07
-1.21398e+07
-2.1859e+07
-2.88205e+07
-2.33324e+07
-2.73853e+07
-2.94164e+07
-3.29668e+07
-2.02136e+07
-1.28569e+07
-3.36856e+07
-2.44822e+07
-2.96111e+07
-2.89074e+07
-2.77717e+07
-1.90335e+07
-3.02516e+07
-1.53307e+07
-2.00627e+07
-3.37939e+07
-2.50601e+07
-2.43635e+07
-2.73467e+07
-3.50266e+07
-3.17572e+07
-2.78464e+07
-2.06277e+07
-2.19814e+07
-2.86524e+07
-1.92093e+07
-2.65198e+07
-2.19523e+07
-2.18708e+07
-1.79674e+07
-2.7817e+07
-1.34058e+07
-1.67541e+07
-2.43337e+07
-2.74948e+07
-2.55998e+07
-1.55447e+07
-2.86045e+07
-3.054e+07
-2.36417e+07
-2.17903e+07
-3.05806e+07
-2.95662e+07
-2.62368e+07
-3.60208e+07
-2.30671e+07
-2.73758e+07
-3.17614e+07
-2.89941e+07
-3.02473e+07
-3.12776e+07
-3.3467e+07
-3.01096e+07
-3.16595e+07
-2.31826e+07
-2.01567e+07
-2.44559e+07
-2.4072e+07
-2.7131e+07
-2.16537e+07
-2.30566e+07
-2.75886e+07
-2.8119e+07
-1.74714e+07
-1.96966e+07
-2.70877e+07
-1.63304e+07
-2.44028e+07
-2.3387e+07
-2.51507e+07
-2.88412e+07
-1.7268e+07
-1.64078e+07
-2.30335e+07
-2.56448e+07
-1.42852e+07
-2.1168e+07
-2.27042e+07
-2.12289e+07
-2.6061e+07
-2.45871e+07
-2.40468e+07
-2.53526e+07
-2.58606e+07
-1.99528e+07
-2.03068e+07
-2.76684e+07
-1.97161e+07
-2.39164e+07
-2.45402e+07
-2.348e+07
-2.18795e+07
-2.37988e+07
-1.23195e+07
)
;

boundaryField
{
    inlet
    {
        type            calculated;
        value           nonuniform 0();
    }
    outlet
    {
        type            calculated;
        value           uniform 0;
    }
    wall
    {
        type            calculated;
        value           uniform 0;
    }
    procBoundary7to0
    {
        type            processor;
        value           uniform 198.341;
    }
    procBoundary7to1
    {
        type            processor;
        value           uniform 446.079;
    }
    procBoundary7to3
    {
        type            processor;
        value           nonuniform List<scalar> 
36
(
625.311
834.665
703.17
786.457
503.278
596.369
697.39
642.894
532.056
722.249
463.922
617.196
379.484
331.286
712.972
576.883
799.807
388.061
455.532
779.234
693.773
549.453
558.145
754.44
612.185
703.489
379.678
660.636
367.415
435.452
525.796
484.513
646.008
474.034
719.499
567.508
)
;
    }
    procBoundary7to5
    {
        type            processor;
        value           nonuniform List<scalar> 
44
(
752.731
465.044
659.11
445.383
402.228
564.534
473.28
502.568
777.552
383.671
551.147
689.2
468.316
637.692
553.54
614.503
340.022
777.552
383.671
383.671
722.409
755.425
859.408
700.709
683.306
830.799
622.324
400.895
888.12
722.409
755.425
755.425
789.769
647.468
531.544
620.947
486.282
545.193
490.968
556.173
511.026
789.769
647.468
647.468
)
;
    }
    procBoundary7to6
    {
        type            processor;
        value           nonuniform List<scalar> 
12
(
613.575
678.479
425.477
753.471
709.671
660.572
723.808
755.318
519.884
343.38
641.749
543.512
)
;
    }
}


// ************************************************************************* //
