/*--------------------------------*- C++ -*----------------------------------*\
| =========                 |                                                 |
| \\      /  F ield         | OpenFOAM: The Open Source CFD Toolbox           |
|  \\    /   O peration     | Version:  4.x                                   |
|   \\  /    A nd           | Web:      www.OpenFOAM.org                      |
|    \\/     M anipulation  |                                                 |
\*---------------------------------------------------------------------------*/
FoamFile
{
    version     2.0;
    format      ascii;
    class       volVectorField;
    location    "7";
    object      impParticleForces;
}
// * * * * * * * * * * * * * * * * * * * * * * * * * * * * * * * * * * * * * //

dimensions      [1 1 -2 0 0 0 0];

internalField   nonuniform List<vector> 
132
(
(0.00246424 -4.60899e-05 -5.60201e-05)
(0.00250215 -4.79851e-05 -5.05086e-05)
(0.00258213 -5.10763e-05 -3.81611e-05)
(0.00264713 -5.33622e-05 -1.66516e-05)
(0.0027474 -5.67926e-05 7.72592e-06)
(0.00284687 -5.98316e-05 3.16184e-05)
(0.00295461 -6.23057e-05 4.9404e-05)
(0.00298951 -5.81449e-05 5.24048e-05)
(0.00304722 -4.92255e-05 4.3188e-05)
(0.00249147 -4.30148e-05 -5.84064e-05)
(0.00254316 -4.53889e-05 -5.39805e-05)
(0.00262593 -4.86045e-05 -4.1045e-05)
(0.00268851 -5.07674e-05 -1.78866e-05)
(0.00277674 -5.39824e-05 8.30373e-06)
(0.00286973 -5.73612e-05 3.28386e-05)
(0.00294684 -5.89424e-05 4.95733e-05)
(0.00301036 -5.75969e-05 5.23784e-05)
(0.00310409 -5.35586e-05 4.24768e-05)
(0.00250667 -3.46457e-05 -5.95741e-05)
(0.0025629 -3.67718e-05 -5.52643e-05)
(0.00263915 -3.92733e-05 -4.10217e-05)
(0.0026994 -4.11251e-05 -1.64162e-05)
(0.00279723 -4.47001e-05 1.0587e-05)
(0.0028493 -4.64015e-05 3.4502e-05)
(0.00292819 -4.81701e-05 5.02136e-05)
(0.00299199 -4.77434e-05 5.05856e-05)
(0.00311195 -4.6846e-05 3.8998e-05)
(0.00251431 -2.19933e-05 -5.95913e-05)
(0.00255416 -2.27045e-05 -5.39106e-05)
(0.00262011 -2.374e-05 -3.90215e-05)
(0.00249869 -4.7674e-05 -5.65407e-05)
(0.00255283 -5.0453e-05 -5.24353e-05)
(0.00263344 -5.37122e-05 -3.95705e-05)
(0.00270743 -5.59555e-05 -1.68344e-05)
(0.002803 -5.89746e-05 9.82069e-06)
(0.00288761 -6.08159e-05 3.57149e-05)
(0.00300467 -6.30084e-05 5.55337e-05)
(0.00304797 -5.8998e-05 5.90486e-05)
(0.00313755 -5.26071e-05 5.23014e-05)
(0.00252913 -4.46492e-05 -5.90818e-05)
(0.00260499 -4.82774e-05 -5.705e-05)
(0.00268335 -5.14213e-05 -4.29726e-05)
(0.0027488 -5.33826e-05 -1.7463e-05)
(0.00285911 -5.72673e-05 1.08174e-05)
(0.00292402 -5.87177e-05 3.743e-05)
(0.00302657 -6.096e-05 5.71142e-05)
(0.0030868 -5.92924e-05 5.96806e-05)
(0.00318658 -5.51853e-05 4.91928e-05)
(0.00254883 -3.58072e-05 -6.04828e-05)
(0.00261887 -3.86949e-05 -5.75009e-05)
(0.00269427 -4.11243e-05 -4.22377e-05)
(0.00275397 -4.28109e-05 -1.52149e-05)
(0.00284967 -4.57669e-05 1.43631e-05)
(0.00291255 -4.79372e-05 3.98884e-05)
(0.00302212 -5.09188e-05 5.88509e-05)
(0.00306133 -4.90148e-05 5.68074e-05)
(0.00316938 -4.64066e-05 4.32884e-05)
(0.00256856 -2.23635e-05 -6.20457e-05)
(0.00261118 -2.3169e-05 -5.60367e-05)
(0.00269296 -2.46063e-05 -4.14527e-05)
(0.00274305 -2.60518e-05 -1.30845e-05)
(0.00286087 -2.85556e-05 1.73418e-05)
(0.00251161 -4.84749e-05 -4.90665e-05)
(0.00256201 -5.10603e-05 -4.46633e-05)
(0.00264666 -5.43051e-05 -3.22989e-05)
(0.00270434 -5.51853e-05 -9.61822e-06)
(0.00280229 -5.72993e-05 1.53968e-05)
(0.00288021 -5.75265e-05 3.89512e-05)
(0.00299732 -5.8318e-05 5.71013e-05)
(0.0030586 -5.44226e-05 6.00029e-05)
(0.00314765 -4.81137e-05 5.16347e-05)
(0.00255085 -4.56992e-05 -5.19802e-05)
(0.0026133 -4.88128e-05 -4.83019e-05)
(0.00269322 -5.1785e-05 -3.44956e-05)
(0.00274528 -5.23762e-05 -9.68782e-06)
(0.00285392 -5.50477e-05 1.73211e-05)
(0.00291547 -5.50153e-05 4.13526e-05)
(0.00304344 -5.6672e-05 6.00301e-05)
(0.00310721 -5.40805e-05 6.14614e-05)
(0.00320101 -4.869e-05 4.96486e-05)
(0.00256836 -3.62628e-05 -5.24172e-05)
(0.00262284 -3.85161e-05 -4.78857e-05)
(0.00270746 -4.12143e-05 -3.35561e-05)
(0.00276547 -4.24114e-05 -7.47544e-06)
(0.00286683 -4.46684e-05 2.1111e-05)
(0.00292034 -4.53564e-05 4.43728e-05)
(0.00303471 -4.69572e-05 6.0818e-05)
(0.00307751 -4.48203e-05 5.79816e-05)
(0.0031813 -4.11481e-05 4.36031e-05)
(0.00257912 -2.19751e-05 -5.28491e-05)
(0.00263038 -2.30157e-05 -4.77037e-05)
(0.00271722 -2.44649e-05 -3.29872e-05)
(0.00276246 -2.58384e-05 -5.99166e-06)
(0.00285889 -2.81147e-05 2.33445e-05)
(0.00291795 -3.0125e-05 4.68236e-05)
(0.0030285 -3.21061e-05 6.35812e-05)
(0.0025038 -4.79775e-05 -3.55286e-05)
(0.0025533 -5.03274e-05 -3.10864e-05)
(0.00264252 -5.33906e-05 -2.02546e-05)
(0.00269221 -5.31085e-05 -1.10327e-07)
(0.00279504 -5.44095e-05 2.12073e-05)
(0.00288012 -5.38894e-05 4.09148e-05)
(0.00298586 -5.2897e-05 5.49173e-05)
(0.00305011 -4.84197e-05 5.6055e-05)
(0.00316569 -4.32263e-05 4.89111e-05)
(0.00254729 -4.52923e-05 -3.76547e-05)
(0.00261698 -4.86426e-05 -3.40565e-05)
(0.00270016 -5.13001e-05 -2.14916e-05)
(0.00275047 -5.10378e-05 2.54424e-07)
(0.00283466 -5.149e-05 2.35306e-05)
(0.00290293 -5.05825e-05 4.33914e-05)
(0.0030366 -5.09763e-05 5.83801e-05)
(0.00308912 -4.69709e-05 5.67267e-05)
(0.00320508 -4.22453e-05 4.56563e-05)
(0.00256627 -3.60253e-05 -3.77082e-05)
(0.00261928 -3.78808e-05 -3.24652e-05)
(0.00271494 -4.05139e-05 -1.98506e-05)
(0.00275344 -4.04749e-05 3.08358e-06)
(0.00284668 -4.1773e-05 2.71098e-05)
(0.00291358 -4.18538e-05 4.66562e-05)
(0.00302511 -4.19366e-05 5.88815e-05)
(0.00307047 -3.95525e-05 5.47565e-05)
(0.00319662 -3.63253e-05 4.1124e-05)
(0.00256444 -2.16568e-05 -3.67981e-05)
(0.00262677 -2.26155e-05 -3.20523e-05)
(0.00272293 -2.41286e-05 -1.88865e-05)
(0.00276627 -2.51132e-05 4.39758e-06)
(0.00283517 -2.66203e-05 2.86725e-05)
(0.002914 -2.83419e-05 4.90604e-05)
(0.00302158 -2.93562e-05 6.15216e-05)
(0.00306651 -2.79877e-05 5.6329e-05)
(0.00316601 -2.48856e-05 4.0172e-05)
)
;

boundaryField
{
    inlet
    {
        type            zeroGradient;
    }
    outlet
    {
        type            zeroGradient;
    }
    wall
    {
        type            zeroGradient;
    }
    procBoundary0to1
    {
        type            processor;
        value           nonuniform List<vector> 
12
(
(0.00312919 -3.15425e-05 2.34044e-05)
(0.00316345 -3.92015e-05 1.741e-05)
(0.00317363 -3.49456e-05 1.00749e-05)
(0.00321057 -3.93837e-05 3.02103e-05)
(0.00327029 -4.39174e-05 2.3823e-05)
(0.00327001 -3.84116e-05 1.34063e-05)
(0.00322964 -3.76204e-05 3.00042e-05)
(0.00329581 -3.93969e-05 2.38851e-05)
(0.00329099 -3.41027e-05 1.41512e-05)
(0.00322791 -3.41362e-05 2.53636e-05)
(0.00328748 -3.37612e-05 1.95806e-05)
(0.0032738 -2.91029e-05 1.13578e-05)
)
;
    }
    procBoundary0to2
    {
        type            processor;
        value           nonuniform List<vector> 
44
(
(0.00270182 -2.53323e-05 -1.56737e-05)
(0.00278344 -2.7704e-05 1.24124e-05)
(0.00283674 -2.97496e-05 3.66388e-05)
(0.0029314 -3.16955e-05 5.32624e-05)
(0.00298057 -3.083e-05 5.18365e-05)
(0.00307955 -2.84725e-05 3.83677e-05)
(0.00252219 -8.37085e-06 -5.95703e-05)
(0.00256921 -8.00694e-06 -5.49566e-05)
(0.00270182 -2.53323e-05 -1.56737e-05)
(0.00264194 -7.83814e-06 -4.05452e-05)
(0.00270182 -2.53323e-05 -1.56737e-05)
(0.00278344 -2.7704e-05 1.24124e-05)
(0.00291471 -3.1484e-05 4.34252e-05)
(0.00302728 -3.40685e-05 6.27686e-05)
(0.00305902 -3.2877e-05 5.90676e-05)
(0.00318776 -3.17535e-05 4.6583e-05)
(0.00254658 -7.74718e-06 -5.89965e-05)
(0.00261288 -7.27308e-06 -5.60135e-05)
(0.00270627 -6.984e-06 -4.27434e-05)
(0.0027601 -8.28417e-06 -1.47246e-05)
(0.00291471 -3.1484e-05 4.34252e-05)
(0.00284855 -9.8108e-06 1.6359e-05)
(0.00291471 -3.1484e-05 4.34252e-05)
(0.00302728 -3.40685e-05 6.27686e-05)
(0.00308255 -3.14207e-05 6.09492e-05)
(0.00320243 -2.91208e-05 4.67446e-05)
(0.00256746 -6.92746e-06 -5.15015e-05)
(0.00261552 -6.76765e-06 -4.62767e-05)
(0.00269987 -6.84123e-06 -3.24231e-05)
(0.00275062 -8.49149e-06 -6.47465e-06)
(0.00283369 -1.05774e-05 2.24193e-05)
(0.0029018 -1.30973e-05 4.76324e-05)
(0.00308255 -3.14207e-05 6.09492e-05)
(0.0030233 -1.45829e-05 6.61778e-05)
(0.00308255 -3.14207e-05 6.09492e-05)
(0.00320243 -2.91208e-05 4.67446e-05)
(0.0025694 -6.48144e-06 -3.69493e-05)
(0.00263538 -6.17144e-06 -3.22017e-05)
(0.00271684 -6.28429e-06 -1.91948e-05)
(0.00274822 -8.46457e-06 4.03745e-06)
(0.00283256 -1.06565e-05 2.85915e-05)
(0.0028934 -1.29914e-05 4.87835e-05)
(0.00301166 -1.44433e-05 6.2767e-05)
(0.00308443 -1.42782e-05 6.03859e-05)
)
;
    }
    procBoundary0to4
    {
        type            processor;
        value           nonuniform List<vector> 
36
(
(0.00249955 -4.71705e-05 -2.07839e-05)
(0.00254601 -4.91445e-05 -1.62851e-05)
(0.00263591 -5.18804e-05 -6.21501e-06)
(0.00269603 -5.15003e-05 9.6196e-06)
(0.00279377 -5.17717e-05 2.70134e-05)
(0.00285994 -4.95715e-05 4.17797e-05)
(0.00298172 -4.823e-05 5.26109e-05)
(0.0030486 -4.37642e-05 5.16734e-05)
(0.00316321 -3.89561e-05 4.31474e-05)
(0.00254739 -4.45225e-05 -2.14874e-05)
(0.00260078 -4.67585e-05 -1.65639e-05)
(0.00269568 -4.96089e-05 -5.68572e-06)
(0.00275116 -4.90749e-05 1.14902e-05)
(0.0028389 -4.88273e-05 3.02538e-05)
(0.00289517 -4.67638e-05 4.49845e-05)
(0.00300945 -4.55766e-05 5.44909e-05)
(0.00307089 -4.17615e-05 5.15415e-05)
(0.00321189 -3.80078e-05 4.11434e-05)
(0.00256849 -3.53513e-05 -2.10601e-05)
(0.00263403 -3.75936e-05 -1.61766e-05)
(0.00271066 -3.90827e-05 -3.60422e-06)
(0.00275907 -3.90508e-05 1.43003e-05)
(0.00284378 -3.92872e-05 3.36424e-05)
(0.0028939 -3.83782e-05 4.74134e-05)
(0.00300631 -3.79823e-05 5.60044e-05)
(0.00308256 -3.61871e-05 5.1881e-05)
(0.00318081 -3.24771e-05 3.60474e-05)
(0.00255681 -2.10919e-05 -1.99143e-05)
(0.00262615 -2.23562e-05 -1.45262e-05)
(0.0027118 -2.33333e-05 -2.07523e-06)
(0.00274749 -2.43118e-05 1.5849e-05)
(0.00284206 -2.57322e-05 3.55547e-05)
(0.00289623 -2.64441e-05 4.93233e-05)
(0.00302558 -2.72888e-05 5.88346e-05)
(0.00306436 -2.59308e-05 5.15782e-05)
(0.00317245 -2.35985e-05 3.52621e-05)
)
;
    }
    procBoundary0to6
    {
        type            processor;
        value           uniform (0.00321462 -1.19041e-05 4.63925e-05);
    }
    procBoundary0to7
    {
        type            processor;
        value           uniform (0.00330196 -1.98888e-05 1.06638e-05);
    }
}


// ************************************************************************* //
