/*--------------------------------*- C++ -*----------------------------------*\
| =========                 |                                                 |
| \\      /  F ield         | OpenFOAM: The Open Source CFD Toolbox           |
|  \\    /   O peration     | Version:  4.x                                   |
|   \\  /    A nd           | Web:      www.OpenFOAM.org                      |
|    \\/     M anipulation  |                                                 |
\*---------------------------------------------------------------------------*/
FoamFile
{
    version     2.0;
    format      ascii;
    class       volScalarField;
    location    "7";
    object      SPartFluid;
}
// * * * * * * * * * * * * * * * * * * * * * * * * * * * * * * * * * * * * * //

dimensions      [1 -3 -1 0 0 0 0];

internalField   nonuniform List<scalar> 
132
(
4.03284e-65
3.64505e-65
3.10231e-65
2.8702e-65
3.80189e-65
4.03594e-65
4.89142e-65
3.49489e-65
1.70877e-65
4.88598e-65
4.65335e-65
4.65379e-65
5.12e-65
3.18126e-65
5.82172e-65
4.27139e-65
4.66172e-65
4.2756e-65
2.71448e-65
5.35165e-65
4.7315e-65
4.73233e-65
4.26805e-65
4.34779e-65
3.26263e-65
4.20045e-65
7.24734e-65
2.86976e-65
4.4211e-65
3.25797e-65
4.18792e-65
6.66968e-65
8.06608e-65
7.05846e-65
6.82714e-65
7.13937e-65
6.28797e-65
6.44465e-65
6.21249e-65
5.42886e-65
7.98818e-65
6.2822e-65
7.21383e-65
7.29329e-65
7.14007e-65
6.52212e-65
7.76775e-65
6.761e-65
5.89434e-65
8.14347e-65
6.82546e-65
6.28355e-65
6.67344e-65
6.59901e-65
8.31302e-65
6.06432e-65
4.98364e-65
8.06616e-65
6.12726e-65
6.12766e-65
4.57735e-65
9.15809e-65
5.97149e-65
6.82459e-65
7.29026e-65
6.82539e-65
6.59359e-65
5.19879e-65
7.0626e-65
6.90829e-65
4.7355e-65
6.43683e-65
7.05719e-65
6.74726e-65
5.58446e-65
7.36964e-65
5.74191e-65
7.3743e-65
8.85122e-65
6.29021e-65
7.67786e-65
6.28185e-65
6.59238e-65
8.2222e-65
7.83611e-65
7.37323e-65
7.45447e-65
6.21638e-65
4.58741e-65
7.29019e-65
7.60042e-65
7.6786e-65
7.99017e-65
8.38086e-65
7.14164e-65
7.1472e-65
4.57535e-65
4.88553e-65
5.73887e-65
5.35144e-65
6.12763e-65
7.75743e-65
4.81052e-65
4.1124e-65
4.9657e-65
5.50597e-65
8.14263e-65
7.28991e-65
6.74739e-65
5.81736e-65
5.66314e-65
8.37987e-65
6.59642e-65
5.51128e-65
4.57542e-65
4.96322e-65
7.29003e-65
5.73943e-65
7.29173e-65
8.06965e-65
6.75257e-65
5.12557e-65
8.07714e-65
5.27349e-65
5.89394e-65
7.83317e-65
9.23012e-65
4.42181e-65
9.23443e-65
7.14202e-65
5.43633e-65
2.3314e-65
)
;

boundaryField
{
    inlet
    {
        type            calculated;
        value           uniform 0;
    }
    outlet
    {
        type            calculated;
        value           nonuniform 0();
    }
    wall
    {
        type            calculated;
        value           uniform 0;
    }
    procBoundary0to1
    {
        type            processor;
        value           nonuniform List<scalar> 
12
(
3.7269e-65
3.65384e-65
3.50987e-65
6.44253e-65
7.53542e-65
8.18205e-65
7.06049e-65
7.68758e-65
7.93322e-65
6.59266e-65
7.0602e-65
5.74531e-65
)
;
    }
    procBoundary0to2
    {
        type            processor;
        value           nonuniform List<scalar> 
44
(
6.51775e-65
4.89015e-65
2.5636e-65
4.8999e-65
2.26067e-65
2.65851e-65
5.7397e-65
6.51561e-65
6.51775e-65
5.12014e-65
6.51775e-65
4.89015e-65
8.46629e-65
9.79655e-65
5.76905e-65
9.45605e-65
5.42936e-65
6.82573e-65
7.68011e-65
7.75966e-65
8.46629e-65
7.064e-65
8.46629e-65
9.79655e-65
7.62262e-65
8.02578e-65
7.29046e-65
4.96388e-65
5.50742e-65
6.12923e-65
5.58798e-65
7.14386e-65
7.62262e-65
8.39319e-65
7.62262e-65
8.02578e-65
4.80838e-65
8.14311e-65
8.37643e-65
6.51595e-65
6.43959e-65
6.28669e-65
6.29027e-65
7.77161e-65
)
;
    }
    procBoundary0to4
    {
        type            processor;
        value           nonuniform List<scalar> 
36
(
5.19548e-65
7.36677e-65
7.52215e-65
5.58369e-65
5.97196e-65
5.66201e-65
7.60149e-65
6.7483e-65
8.91937e-65
7.75451e-65
6.3587e-65
7.28946e-65
8.53066e-65
8.2209e-65
7.52341e-65
6.36057e-65
5.43011e-65
9.07516e-65
6.97914e-65
8.76269e-65
6.43642e-65
8.53072e-65
6.98027e-65
5.97265e-65
6.12871e-65
9.69845e-65
5.66365e-65
4.34266e-65
5.73853e-65
7.59992e-65
5.19619e-65
7.36846e-65
6.0506e-65
9.54371e-65
5.97521e-65
5.97575e-65
)
;
    }
    procBoundary0to6
    {
        type            processor;
        value           uniform 6.76448e-65;
    }
    procBoundary0to7
    {
        type            processor;
        value           uniform 9.94988e-65;
    }
}


// ************************************************************************* //
