/*--------------------------------*- C++ -*----------------------------------*\
| =========                 |                                                 |
| \\      /  F ield         | OpenFOAM: The Open Source CFD Toolbox           |
|  \\    /   O peration     | Version:  4.x                                   |
|   \\  /    A nd           | Web:      www.OpenFOAM.org                      |
|    \\/     M anipulation  |                                                 |
\*---------------------------------------------------------------------------*/
FoamFile
{
    version     2.0;
    format      ascii;
    class       volScalarField;
    location    "40.5";
    object      Ksl;
}
// * * * * * * * * * * * * * * * * * * * * * * * * * * * * * * * * * * * * * //

dimensions      [1 -3 -1 0 0 0 0];

internalField   nonuniform List<scalar> 
87
(
3829.21
2547.81
3756.21
2392.72
3763.48
2107.82
4112.38
1681.52
5496.37
4484.18
2695.76
4431.8
2558.63
4562.65
2309.87
5167.77
1961.4
6196.04
5372.24
2950.01
5476.56
2842.19
5733.81
2614.63
6087.12
2179
6321.4
6053.58
3028.49
6099.44
2948.64
6408.58
2769.16
7598.05
2539.58
10738
11387.9
3391.57
12794.2
3286.31
15423.8
3059.15
16259.9
2816.44
10251
39658.5
3712.64
246630
3698.75
1e+10
3802.26
61734.6
4072.21
7847.66
6318.82
3004.26
6579.99
2894.88
7104.81
2683.54
8041.03
2476.47
8272.31
12798.1
3352.29
12892
3198.16
12745.3
2987.94
11144.6
2721.34
7636.15
33230.1
3684.86
39916.9
3644.04
35588.9
3599.44
19729.8
3679.57
8042.43
8666.58
3338.17
12256.3
66374.5
3720.58
1e+10
)
;

boundaryField
{
    inlet
    {
        type            zeroGradient;
    }
    outlet
    {
        type            zeroGradient;
    }
    wall
    {
        type            zeroGradient;
    }
    procBoundary1to0
    {
        type            processor;
        value           nonuniform List<scalar> 
12
(
2612.45
2818.2
3030.11
3110.47
3477.95
3703.75
3105.45
3484.21
3704.23
3309.78
3724.08
4075.74
)
;
    }
    procBoundary1to3
    {
        type            processor;
        value           nonuniform List<scalar> 
27
(
4921.12
2754.34
4777.82
2589.43
4911.39
2396.32
5695.4
2115.27
6456.56
17522
3446.45
21391.4
3310.23
25963.6
3136.01
24953.3
2892.78
9425.92
40169.8
3660.72
57279
3631.89
49839.5
3630.07
28901.1
3794.62
9067.44
)
;
    }
    procBoundary1to5
    {
        type            processor;
        value           nonuniform List<scalar> 
32
(
3587.19
31396
4103.62
1e+10
5746.89
98724.9
1e+10
3749.53
1e+10
3871.05
99882.6
4276.77
13825.7
4145.47
1e+10
4183.39
1e+10
4275
1e+10
4770.25
14268.8
7202.47
3064.32
3587.19
1e+10
7431.24
32092.1
1e+10
4145.47
3542.52
4145.47
693076
)
;
    }
    procBoundary1to7
    {
        type            processor;
        value           uniform 1e+10;
    }
}


// ************************************************************************* //
