/*--------------------------------*- C++ -*----------------------------------*\
| =========                 |                                                 |
| \\      /  F ield         | OpenFOAM: The Open Source CFD Toolbox           |
|  \\    /   O peration     | Version:  4.x                                   |
|   \\  /    A nd           | Web:      www.OpenFOAM.org                      |
|    \\/     M anipulation  |                                                 |
\*---------------------------------------------------------------------------*/
FoamFile
{
    version     2.0;
    format      ascii;
    class       volScalarField;
    location    "40.5";
    object      KslPrev;
}
// * * * * * * * * * * * * * * * * * * * * * * * * * * * * * * * * * * * * * //

dimensions      [1 -3 -1 0 0 0 0];

internalField   nonuniform List<scalar> 
87
(
3829.22
2547.82
3756.23
2392.72
3763.48
2107.82
4112.38
1681.52
5496.35
4484.2
2695.76
4431.81
2558.63
4562.66
2309.87
5167.79
1961.41
6196.08
5372.24
2950.02
5476.57
2842.18
5733.79
2614.63
6087.12
2179
6321.4
6053.61
3028.5
6099.48
2948.65
6408.57
2769.14
7597.99
2539.57
10737.9
11387.9
3391.57
12794.1
3286.3
15423.8
3059.16
16259.9
2816.44
10251.1
39657.9
3712.64
246605
3698.74
1e+10
3802.27
61736.9
4072.2
7847.72
6318.84
3004.27
6580.02
2894.88
7104.82
2683.53
8040.99
2476.47
8272.26
12798.3
3352.3
12892.1
3198.16
12745.4
2987.94
11144.7
2721.34
7636.16
33229.8
3684.86
39916.1
3644.04
35587.9
3599.44
19729.7
3679.57
8042.42
8666.58
3338.18
12256.3
66375.3
3720.58
1e+10
)
;

boundaryField
{
    inlet
    {
        type            zeroGradient;
    }
    outlet
    {
        type            zeroGradient;
    }
    wall
    {
        type            zeroGradient;
    }
    procBoundary1to0
    {
        type            processor;
        value           uniform 0;
    }
    procBoundary1to3
    {
        type            processor;
        value           uniform 0;
    }
    procBoundary1to5
    {
        type            processor;
        value           uniform 0;
    }
    procBoundary1to7
    {
        type            processor;
        value           uniform 0;
    }
}


// ************************************************************************* //
