/*--------------------------------*- C++ -*----------------------------------*\
| =========                 |                                                 |
| \\      /  F ield         | OpenFOAM: The Open Source CFD Toolbox           |
|  \\    /   O peration     | Version:  4.x                                   |
|   \\  /    A nd           | Web:      www.OpenFOAM.org                      |
|    \\/     M anipulation  |                                                 |
\*---------------------------------------------------------------------------*/
FoamFile
{
    version     2.0;
    format      ascii;
    class       volVectorField;
    location    "40.5";
    object      GField;
}
// * * * * * * * * * * * * * * * * * * * * * * * * * * * * * * * * * * * * * //

dimensions      [1 -2 -1 0 0 0 0];

internalField   nonuniform List<vector> 
87
(
(86.8934 1.31176 0.235402)
(22.747 1.60287 -1.5967)
(94.4491 2.39633 -1.21049)
(102.616 1.28299 -2.54785)
(48.4872 -0.270023 -2.91619)
(104.84 0.05357 -2.3739)
(92.2137 1.19523 -1.7611)
(26.6796 0.755316 -0.542286)
(87.5233 1.41714 -1.21356)
(12.7073 0.341776 -0.380071)
(84.1507 0.729273 -0.678158)
(2.9012 0.095651 -0.097388)
(82.8743 -0.364009 -0.361166)
(3.69744e-05 6.80963e-07 1.56038e-07)
(82.3547 -1.34885 -0.454494)
(94.3721 5.13623 -1.4951)
(30.6568 1.82464 -0.848325)
(91.0578 4.79219 -1.28993)
(21.4326 1.34278 -0.930456)
(88.6291 2.99707 -1.11108)
(13.2184 0.868165 -0.761325)
(87.2658 1.19875 -1.25483)
(5.43853 0.445684 -0.466408)
(86.6149 -0.457222 -1.14174)
(96.2719 3.06634 -1.68864)
(39.8723 1.45172 -1.12807)
(96.9033 3.24513 -1.71232)
(41.232 1.09171 -1.7361)
(96.5827 2.35522 -1.70253)
(40.0592 0.780729 -1.77924)
(96.867 2.11132 -1.53677)
(38.4762 0.492414 -2.05611)
(96.6644 0.603567 -1.29056)
(93.1583 2.29192 2.74158)
(30.7305 0.959534 0.80035)
(90.0636 2.51872 2.7067)
(21.4933 0.6632 0.78752)
(88.3206 1.67664 2.01658)
(13.582 0.151454 0.494452)
(87.1645 0.662435 0.476928)
(6.50825 -0.0514373 0.45964)
(86.5906 0.131893 -0.135876)
(94.658 5.01047 2.30492)
(35.7644 2.15347 0.868592)
(93.1769 4.94415 2.69693)
(32.3867 1.51319 0.558628)
(92.3299 3.97289 2.41593)
(28.9762 1.3596 0.391941)
(91.4194 3.1536 2.06604)
(24.2684 0.992714 0.149436)
(91.559 2.13342 1.14344)
(96.0664 2.61444 1.40305)
(42.3888 1.33707 0.426185)
(98.4493 2.47047 1.52557)
(46.2557 0.988719 0.481396)
(99.6333 1.82078 1.49781)
(48.4343 0.943439 0.116284)
(101.262 1.55452 0.999177)
(49.438 0.657419 -0.201227)
(102.757 0.950604 0.752881)
(94.755 2.26922 2.42012)
(39.9098 0.791145 1.04744)
(95.0684 1.7495 2.44815)
(39.8659 0.504486 0.730598)
(95.2529 0.734451 2.26032)
(39.5239 -0.112648 0.695417)
(95.4833 -0.451488 2.101)
(37.6065 -0.588683 0.94767)
(97.1767 -0.71768 1.87317)
(95.363 3.79975 1.66369)
(42.4753 1.81957 0.785507)
(97.2556 3.76891 1.56989)
(45.7721 1.65489 0.460966)
(98.5993 2.76345 1.23539)
(47.6364 1.37688 0.589873)
(100.163 2.12534 1.30963)
(48.1377 0.417568 0.266918)
(101.433 0.74545 0.843878)
(96.5143 2.09286 1.15761)
(45.5162 0.986432 0.399316)
(100.514 1.96442 1.06404)
(52.9705 0.978963 0.388144)
(104.733 1.45598 0.835444)
(58.357 0.464263 0.054895)
(107.85 1.02476 0.747089)
(61.7706 0.0968806 -0.35391)
(109.344 0.217718 0.0787092)
)
;

boundaryField
{
    inlet
    {
        type            calculated;
        value           uniform (67 0 0);
    }
    outlet
    {
        type            calculated;
        value           nonuniform 0();
    }
    wall
    {
        type            calculated;
        value           uniform (0 0 0);
    }
    procBoundary6to0
    {
        type            processor;
        value           uniform (87.7614 -0.312984 -0.413069);
    }
    procBoundary6to2
    {
        type            processor;
        value           nonuniform List<vector> 
32
(
(87.9166 -1.10496 -0.268275)
(13.3177 0.634967 -0.859978)
(91.9281 1.06118 -0.798613)
(102.989 2.02056 -2.94997)
(48.2176 0.392514 -2.72909)
(105.161 0.987289 -2.05385)
(94.881 2.0005 -5.68492)
(28.8087 1.07119 -2.30155)
(90.5216 2.84071 -4.66179)
(18.6069 0.750199 -1.57312)
(88.3911 2.26882 -2.72772)
(10.6186 0.504103 -0.799093)
(87.2981 1.45889 -0.430297)
(3.71462 0.227632 -0.38789)
(3.71462 0.227632 -0.38789)
(3.71462 0.227632 -0.38789)
(94.9583 4.83821 -4.84472)
(33.4515 2.29636 -2.3348)
(92.9782 5.16958 -4.27905)
(28.5351 1.75812 -2.03801)
(92.3214 4.51784 -3.36604)
(24.8938 1.55715 -1.5376)
(92.7406 3.73025 -2.05278)
(92.7406 3.73025 -2.05278)
(92.7406 3.73025 -2.05278)
(96.5484 2.7861 -4.39418)
(40.6048 1.33783 -2.68909)
(98.3318 2.72954 -4.44503)
(43.6611 1.01142 -3.12041)
(100.316 2.09489 -4.03648)
(46.3691 0.633087 -2.43567)
(46.3691 0.633087 -2.43567)
)
;
    }
    procBoundary6to4
    {
        type            processor;
        value           nonuniform List<vector> 
27
(
(94.5048 -1.76159 -1.84465)
(29.4583 -0.40187 -0.655926)
(89.0977 -1.53057 -0.899735)
(17.2235 -0.594646 -0.599061)
(86.2333 -1.33953 -0.427872)
(6.73171 -0.310948 -0.148899)
(84.7874 0.0777318 -0.38248)
(3.82097e-05 -1.83471e-06 3.29494e-07)
(84.1719 0.0149615 0.074651)
(93.7764 -0.997823 1.25202)
(31.3135 0.0681021 1.02028)
(90.2716 -0.212678 2.44866)
(22.1329 -0.0231466 0.683583)
(87.9565 -0.186046 2.52244)
(15.1543 -0.242978 0.743027)
(87.411 -0.257147 2.24581)
(10.0139 -0.211873 0.520502)
(88.2521 -0.217239 0.440259)
(93.5178 -0.479863 1.67461)
(38.0163 -0.195495 1.12039)
(93.9955 -0.765084 2.4302)
(37.5872 -0.510421 1.0359)
(94.7793 -0.851247 2.33939)
(38.9294 -0.759509 1.08455)
(97.267 -1.05086 2.53329)
(42.0309 -0.809078 0.689355)
(99.8743 -1.19832 1.63751)
)
;
    }
    procBoundary6to7
    {
        type            processor;
        value           nonuniform List<vector> 
12
(
(4.03052e-05 1.52535e-06 1.668e-07)
(22.5468 2.12077 -2.04564)
(48.3634 -1.25418 -3.66323)
(3.77112e-05 1.11082e-06 1.64616e-06)
(0.000488222 5.4514e-05 -5.35971e-05)
(33.8511 0.171076 -2.28863)
(0.309121 0.00218823 0.0314247)
(19.8285 0.861943 0.183619)
(49.3815 0.0509489 -0.291295)
(35.6961 -0.724726 0.751154)
(47.4494 0.27831 -0.17457)
(61.7967 -0.527376 -0.797481)
)
;
    }
}


// ************************************************************************* //
