/*--------------------------------*- C++ -*----------------------------------*\
| =========                 |                                                 |
| \\      /  F ield         | OpenFOAM: The Open Source CFD Toolbox           |
|  \\    /   O peration     | Version:  4.x                                   |
|   \\  /    A nd           | Web:      www.OpenFOAM.org                      |
|    \\/     M anipulation  |                                                 |
\*---------------------------------------------------------------------------*/
FoamFile
{
    version     2.0;
    format      ascii;
    class       volScalarField;
    location    "40.5";
    object      pSmooth;
}
// * * * * * * * * * * * * * * * * * * * * * * * * * * * * * * * * * * * * * //

dimensions      [1 -1 -2 0 0 0 0];

internalField   nonuniform List<scalar> 
87
(
82.033
38.0272
81.6546
88.5983
38.2581
81.6188
111.744
93.5277
104.461
75.9713
96.8165
57.9078
89.0505
40.0179
81.7324
111.209
93.3604
104.092
75.559
96.6698
57.3116
89.2523
39.0242
81.9491
110.571
93.0532
103.503
75.4249
96.2228
57.2054
88.8315
39.0045
81.8542
111.632
93.5695
104.365
75.7241
96.8793
57.6333
89.414
39.3423
82.136
111.037
93.3287
103.822
75.5439
96.3938
57.4059
89.0448
39.0661
81.8724
110.5
93.0602
103.406
75.4215
96.0763
57.2483
88.784
38.9921
81.7219
111.11
93.3675
103.899
75.6503
96.4171
57.5546
88.9792
39.1224
81.7989
110.694
93.1818
103.544
75.5268
96.1521
57.3129
88.7987
39.1054
81.7009
110.273
93.0251
103.207
75.4003
95.9259
57.3261
88.6147
39.1947
81.6614
)
;

boundaryField
{
    inlet
    {
        type            zeroGradient;
    }
    outlet
    {
        type            fixedValue;
        value           nonuniform 0();
    }
    wall
    {
        type            zeroGradient;
    }
    procBoundary6to0
    {
        type            processor;
        value           uniform 81.9046;
    }
    procBoundary6to2
    {
        type            processor;
        value           nonuniform List<scalar> 
32
(
81.8208
38.1179
81.81
88.4924
38.1819
81.6159
111.215
93.4069
104.125
75.3904
96.7438
57.2368
89.3338
39.015
39.015
39.015
110.706
93.0355
103.603
75.0085
96.2162
56.6882
88.8209
88.8209
88.8209
110.133
92.7591
103.123
74.877
95.8428
56.657
56.657
)
;
    }
    procBoundary6to4
    {
        type            processor;
        value           nonuniform List<scalar> 
27
(
111.493
93.6973
104.361
75.8463
96.8182
57.7161
89.1681
39.4434
81.6505
111.571
93.6178
104.333
75.8042
96.7294
57.439
89.1827
38.9073
81.9017
111.206
93.2936
103.874
75.5719
96.2744
57.1914
88.7002
38.884
81.5921
)
;
    }
    procBoundary6to7
    {
        type            processor;
        value           nonuniform List<scalar> 
12
(
20.9072
19.2027
19.675
22.2304
20.7482
20.6919
21.0955
20.5467
20.6304
20.9242
20.7016
20.8976
)
;
    }
}


// ************************************************************************* //
