/*--------------------------------*- C++ -*----------------------------------*\
| =========                 |                                                 |
| \\      /  F ield         | OpenFOAM: The Open Source CFD Toolbox           |
|  \\    /   O peration     | Version:  4.x                                   |
|   \\  /    A nd           | Web:      www.OpenFOAM.org                      |
|    \\/     M anipulation  |                                                 |
\*---------------------------------------------------------------------------*/
FoamFile
{
    version     2.0;
    format      ascii;
    class       volScalarField;
    location    "40.5";
    object      QPartFluid;
}
// * * * * * * * * * * * * * * * * * * * * * * * * * * * * * * * * * * * * * //

dimensions      [1 -1 -3 0 0 0 0];

internalField   nonuniform List<scalar> 
87
(
8.09148e+09
6.75627e+09
8.94643e+09
5.69687e+09
6.21912e+09
5.61731e+09
9.95453e+09
8.9543e+09
6.08801e+09
8.00393e+09
1.10682e+10
6.1021e+09
8.70375e+09
6.65945e+09
9.96271e+09
6.30515e+09
9.21834e+09
8.18294e+09
1.02276e+10
8.86056e+09
8.74724e+09
8.75994e+09
9.22911e+09
9.39874e+09
4.68044e+09
7.58395e+09
5.96418e+09
6.14942e+09
8.7172e+09
9.48411e+09
7.36236e+09
6.33977e+09
8.79024e+09
7.35157e+09
8.99997e+09
9.66153e+09
8.63116e+09
6.67269e+09
7.88645e+09
7.93599e+09
6.09829e+09
9.57015e+09
5.37541e+09
8.87284e+09
8.84934e+09
8.03651e+09
7.94944e+09
6.55996e+09
1.00261e+10
6.58476e+09
9.97618e+09
4.81208e+09
6.67693e+09
6.18144e+09
7.84161e+09
8.22191e+09
6.17707e+09
7.63379e+09
6.44473e+09
6.88275e+09
4.91421e+09
5.40659e+09
7.43697e+09
7.02839e+09
7.17576e+09
6.51264e+09
1.03108e+10
8.71078e+09
4.54416e+09
5.19888e+09
5.83075e+09
7.63057e+09
6.18583e+09
9.67525e+09
6.71381e+09
7.20868e+09
6.09664e+09
8.47747e+09
4.2496e+09
6.13377e+09
6.768e+09
6.3356e+09
5.24364e+09
8.48642e+09
5.61664e+09
5.64472e+09
7.193e+09
)
;

boundaryField
{
    inlet
    {
        type            calculated;
        value           uniform 0;
    }
    outlet
    {
        type            calculated;
        value           nonuniform 0();
    }
    wall
    {
        type            calculated;
        value           uniform 0;
    }
    procBoundary6to0
    {
        type            processor;
        value           uniform 2.60542e+09;
    }
    procBoundary6to2
    {
        type            processor;
        value           nonuniform List<scalar> 
32
(
5.74746e+09
8.50663e+09
1.02495e+10
9.71163e+09
5.37056e+09
7.75566e+09
4.89939e+09
9.48134e+09
1.02994e+10
7.15263e+09
8.23646e+09
6.26409e+09
7.57697e+09
7.46176e+09
7.46176e+09
7.46176e+09
5.87375e+09
7.90344e+09
1.05274e+10
6.60399e+09
9.12096e+09
7.67975e+09
1.03098e+10
1.03098e+10
1.03098e+10
4.26016e+09
6.30023e+09
7.51369e+09
7.24352e+09
6.75211e+09
6.48552e+09
6.48552e+09
)
;
    }
    procBoundary6to4
    {
        type            processor;
        value           nonuniform List<scalar> 
27
(
3.45701e+09
6.72772e+09
9.39378e+09
5.69455e+09
8.78779e+09
6.64395e+09
1.10123e+10
5.97613e+09
7.05027e+09
6.20562e+09
8.58271e+09
7.54455e+09
9.65146e+09
1.05247e+10
7.61581e+09
1.18399e+10
8.48998e+09
8.13947e+09
7.25481e+09
7.0094e+09
6.70148e+09
7.97384e+09
8.44218e+09
9.53402e+09
4.97181e+09
5.17601e+09
7.08889e+09
)
;
    }
    procBoundary6to7
    {
        type            processor;
        value           nonuniform List<scalar> 
12
(
7.45258e+09
5.27671e+09
7.06395e+09
3.84419e+09
6.00256e+09
6.73621e+09
8.54834e+09
8.18346e+09
6.02673e+09
7.30846e+09
6.33109e+09
6.09182e+09
)
;
    }
}


// ************************************************************************* //
