/*--------------------------------*- C++ -*----------------------------------*\
| =========                 |                                                 |
| \\      /  F ield         | OpenFOAM: The Open Source CFD Toolbox           |
|  \\    /   O peration     | Version:  4.x                                   |
|   \\  /    A nd           | Web:      www.OpenFOAM.org                      |
|    \\/     M anipulation  |                                                 |
\*---------------------------------------------------------------------------*/
FoamFile
{
    version     2.0;
    format      ascii;
    class       volScalarField;
    location    "12";
    object      particleRelTemp;
}
// * * * * * * * * * * * * * * * * * * * * * * * * * * * * * * * * * * * * * //

dimensions      [0 0 0 0 0 0 0];

internalField   nonuniform List<scalar> 
87
(
3.63504e-08
3.0038e-08
4.95693e-08
6.18518e-09
4.11685e-08
4.66272e-08
-5.8206e-08
-5.14658e-08
-4.67519e-08
-4.11701e-08
-3.11275e-08
-2.13518e-08
-9.0209e-09
5.97565e-09
1.66573e-08
-5.79357e-08
-5.28531e-08
-4.88239e-08
-4.40053e-08
-3.60513e-08
-2.38623e-08
-6.4106e-09
3.45022e-09
1.62007e-08
-5.96261e-08
-5.34092e-08
-5.05917e-08
-4.49203e-08
-3.96638e-08
-2.71023e-08
-1.17359e-08
1.19291e-09
1.26252e-08
-5.98107e-08
-5.31301e-08
-5.03469e-08
-4.7036e-08
-4.14747e-08
-3.19978e-08
-2.18885e-08
-1.07133e-08
-1.56548e-09
-5.98628e-08
-5.44633e-08
-5.16435e-08
-4.81513e-08
-4.49943e-08
-3.43369e-08
-2.37624e-08
-1.72649e-08
-4.40567e-09
-6.01688e-08
-5.51778e-08
-5.28348e-08
-5.05617e-08
-4.5457e-08
-3.9382e-08
-3.15953e-08
-2.04781e-08
-1.35558e-08
-6.00601e-08
-5.47204e-08
-5.24652e-08
-5.03013e-08
-4.66376e-08
-3.82866e-08
-3.00884e-08
-2.16999e-08
-1.68541e-08
-6.01604e-08
-5.57329e-08
-5.37458e-08
-5.19198e-08
-4.81045e-08
-4.17571e-08
-3.46153e-08
-2.71144e-08
-1.98087e-08
-6.10154e-08
-5.59786e-08
-5.49567e-08
-5.33884e-08
-5.07441e-08
-4.47275e-08
-4.12146e-08
-3.73697e-08
-2.78355e-08
)
;

boundaryField
{
    inlet
    {
        type            calculated;
        value           nonuniform List<scalar> 9(-5.8206e-08 -5.79357e-08 -5.96261e-08 -5.98107e-08 -5.98628e-08 -6.01688e-08 -6.00601e-08 -6.01604e-08 -6.10154e-08);
    }
    outlet
    {
        type            calculated;
        value           nonuniform 0();
    }
    wall
    {
        type            calculated;
        value           nonuniform List<scalar> 
57
(
-6.00601e-08
-6.01604e-08
-6.10154e-08
-5.47204e-08
-5.57329e-08
-5.59786e-08
-5.24652e-08
-5.37458e-08
-5.49567e-08
-5.03013e-08
-5.19198e-08
-5.33884e-08
-4.66376e-08
-4.81045e-08
-5.07441e-08
-3.82866e-08
-4.17571e-08
-4.47275e-08
-3.00884e-08
-3.46153e-08
-4.12146e-08
-2.16999e-08
-2.71144e-08
-3.73697e-08
-1.68541e-08
-1.98087e-08
-2.78355e-08
-5.96261e-08
-6.01688e-08
-6.10154e-08
-5.34092e-08
-5.51778e-08
-5.59786e-08
-5.05917e-08
-5.28348e-08
-5.49567e-08
-4.49203e-08
-5.05617e-08
-5.33884e-08
-3.96638e-08
-4.5457e-08
-5.07441e-08
-2.71023e-08
-3.9382e-08
-4.47275e-08
6.18518e-09
-1.17359e-08
-3.15953e-08
-4.12146e-08
4.11685e-08
1.19291e-09
-2.04781e-08
-3.73697e-08
4.66272e-08
1.26252e-08
-1.35558e-08
-2.78355e-08
)
;
    }
    procBoundary6to0
    {
        type            processor;
        value           uniform 3.35671e-08;
    }
    procBoundary6to2
    {
        type            processor;
        value           nonuniform List<scalar> 
32
(
6.3724e-08
6.04094e-08
7.93299e-08
2.58289e-08
6.78728e-08
7.93626e-08
-5.70421e-08
-4.86091e-08
-4.18068e-08
-3.64361e-08
-2.65964e-08
-1.37193e-08
9.29879e-09
2.40593e-08
2.40593e-08
2.40593e-08
-5.95365e-08
-4.93252e-08
-4.49543e-08
-3.82556e-08
-2.80488e-08
-1.02692e-08
8.95395e-09
8.95395e-09
8.95395e-09
-5.96674e-08
-5.10664e-08
-4.56744e-08
-4.19234e-08
-3.29804e-08
-1.68684e-08
-1.68684e-08
)
;
    }
    procBoundary6to4
    {
        type            processor;
        value           nonuniform List<scalar> 
27
(
-5.92169e-08
-5.16186e-08
-4.66966e-08
-4.197e-08
-3.2421e-08
-2.33797e-08
-1.2078e-08
-1.30446e-09
9.84306e-09
-5.9634e-08
-5.36007e-08
-4.94078e-08
-4.68651e-08
-4.00168e-08
-3.09057e-08
-2.25867e-08
-1.21363e-08
-3.36225e-09
-5.96291e-08
-5.46419e-08
-5.22602e-08
-4.93221e-08
-4.55305e-08
-3.89454e-08
-3.10511e-08
-2.12612e-08
-1.32179e-08
)
;
    }
    procBoundary6to7
    {
        type            processor;
        value           nonuniform List<scalar> 
12
(
4.9527e-08
4.57794e-08
5.25127e-08
3.0223e-08
2.66152e-08
1.93462e-08
6.63809e-09
2.27691e-09
-9.36953e-09
-5.53265e-09
-1.40401e-08
-2.27294e-08
)
;
    }
}


// ************************************************************************* //
