/*--------------------------------*- C++ -*----------------------------------*\
| =========                 |                                                 |
| \\      /  F ield         | OpenFOAM: The Open Source CFD Toolbox           |
|  \\    /   O peration     | Version:  4.x                                   |
|   \\  /    A nd           | Web:      www.OpenFOAM.org                      |
|    \\/     M anipulation  |                                                 |
\*---------------------------------------------------------------------------*/
FoamFile
{
    version     2.0;
    format      ascii;
    class       volScalarField;
    location    "12";
    object      QPartFluid;
}
// * * * * * * * * * * * * * * * * * * * * * * * * * * * * * * * * * * * * * //

dimensions      [1 -1 -3 0 0 0 0];

internalField   nonuniform List<scalar> 
87
(
8.12083e+09
6.56154e+09
8.80993e+09
5.62515e+09
6.16145e+09
5.55994e+09
9.911e+09
8.93865e+09
6.04555e+09
8.02165e+09
1.09982e+10
6.16502e+09
8.65082e+09
6.628e+09
9.927e+09
6.26908e+09
9.19782e+09
8.10717e+09
9.78981e+09
9.11132e+09
8.64045e+09
8.62808e+09
9.05261e+09
9.28336e+09
4.64825e+09
7.58425e+09
5.91367e+09
6.13522e+09
8.63221e+09
9.43652e+09
7.14758e+09
6.47494e+09
8.69067e+09
7.57248e+09
8.98465e+09
9.7746e+09
8.16341e+09
6.68615e+09
7.86055e+09
7.85892e+09
6.15764e+09
9.49954e+09
5.34659e+09
8.82797e+09
8.75832e+09
8.30896e+09
7.83394e+09
6.45105e+09
9.87334e+09
6.44923e+09
9.82539e+09
4.78319e+09
6.67141e+09
6.13054e+09
7.79896e+09
8.13212e+09
6.13802e+09
7.41543e+09
6.54091e+09
6.82585e+09
4.61576e+09
5.40552e+09
7.16932e+09
6.9753e+09
7.09513e+09
6.4312e+09
1.01763e+10
8.61946e+09
4.48352e+09
5.18059e+09
5.82e+09
7.56017e+09
6.13646e+09
9.55784e+09
6.03021e+09
7.7239e+09
6.14615e+09
8.39013e+09
4.22138e+09
6.12518e+09
6.7053e+09
6.2842e+09
5.18116e+09
8.37577e+09
5.52845e+09
5.46417e+09
7.09527e+09
)
;

boundaryField
{
    inlet
    {
        type            calculated;
        value           uniform 0;
    }
    outlet
    {
        type            calculated;
        value           nonuniform 0();
    }
    wall
    {
        type            calculated;
        value           uniform 0;
    }
    procBoundary6to0
    {
        type            processor;
        value           uniform 2.6085e+09;
    }
    procBoundary6to2
    {
        type            processor;
        value           nonuniform List<scalar> 
32
(
5.65986e+09
8.34598e+09
1.00912e+10
9.59125e+09
5.3441e+09
9.73014e+09
4.87048e+09
9.48351e+09
1.02373e+10
7.18174e+09
7.75987e+09
6.70123e+09
7.52608e+09
7.78352e+09
7.78352e+09
7.78352e+09
5.84724e+09
7.89002e+09
1.04375e+10
6.54246e+09
8.99412e+09
7.50676e+09
1.01411e+10
1.01411e+10
1.01411e+10
4.23544e+09
6.30619e+09
7.45003e+09
7.22566e+09
6.67667e+09
6.44775e+09
6.44775e+09
)
;
    }
    procBoundary6to4
    {
        type            processor;
        value           nonuniform List<scalar> 
27
(
3.44493e+09
6.70876e+09
9.31299e+09
5.66898e+09
8.72195e+09
6.27716e+09
1.13263e+10
6.07344e+09
7.05848e+09
6.17778e+09
8.55125e+09
7.47267e+09
9.59029e+09
1.07733e+10
7.16899e+09
1.17131e+10
8.43818e+09
8.10279e+09
7.43148e+09
6.99823e+09
6.6344e+09
8.0592e+09
8.47988e+09
9.44678e+09
4.91944e+09
5.14986e+09
7.0276e+09
)
;
    }
    procBoundary6to7
    {
        type            processor;
        value           nonuniform List<scalar> 
12
(
7.80702e+09
6.06763e+09
5.47171e+09
3.85093e+09
6.35452e+09
5.70378e+09
8.64875e+09
8.0836e+09
5.85026e+09
7.2588e+09
6.34711e+09
6.24316e+09
)
;
    }
}


// ************************************************************************* //
