/*--------------------------------*- C++ -*----------------------------------*\
| =========                 |                                                 |
| \\      /  F ield         | OpenFOAM: The Open Source CFD Toolbox           |
|  \\    /   O peration     | Version:  4.x                                   |
|   \\  /    A nd           | Web:      www.OpenFOAM.org                      |
|    \\/     M anipulation  |                                                 |
\*---------------------------------------------------------------------------*/
FoamFile
{
    version     2.0;
    format      ascii;
    class       volScalarField;
    location    "12";
    object      Qsource;
}
// * * * * * * * * * * * * * * * * * * * * * * * * * * * * * * * * * * * * * //

dimensions      [1 -1 -3 0 0 0 0];

internalField   nonuniform List<scalar> 
87
(
8.12083e+09
6.56154e+09
8.80993e+09
6.47993e+09
6.65029e+09
6.43563e+09
9.911e+09
8.93865e+09
6.04555e+09
8.02165e+09
1.09982e+10
6.16502e+09
8.65082e+09
6.628e+09
9.927e+09
6.26908e+09
9.19782e+09
8.10717e+09
9.78981e+09
9.11132e+09
8.64045e+09
8.62808e+09
9.05261e+09
9.28336e+09
5.46326e+09
8.0056e+09
6.73147e+09
6.5672e+09
9.44716e+09
9.86189e+09
7.96484e+09
6.90319e+09
9.51171e+09
7.57248e+09
8.98465e+09
9.7746e+09
8.16341e+09
6.68615e+09
7.86055e+09
7.85892e+09
6.15764e+09
9.49954e+09
5.34659e+09
8.82797e+09
8.75832e+09
8.30896e+09
7.83394e+09
6.45105e+09
9.87334e+09
6.44923e+09
9.82539e+09
5.59567e+09
7.11247e+09
6.95761e+09
8.2671e+09
8.96685e+09
6.62456e+09
8.26418e+09
7.04509e+09
7.69312e+09
5.4197e+09
5.82342e+09
7.97068e+09
7.38063e+09
7.89232e+09
6.82196e+09
1.09713e+10
8.99639e+09
5.28959e+09
5.9898e+09
6.25625e+09
8.37705e+09
6.58933e+09
1.03783e+10
6.49412e+09
8.55104e+09
6.62382e+09
9.22781e+09
5.85418e+09
7.04551e+09
8.38279e+09
7.2953e+09
6.90169e+09
9.44615e+09
7.27869e+09
6.57941e+09
8.86534e+09
)
;

boundaryField
{
    inlet
    {
        type            calculated;
        value           uniform 0;
    }
    outlet
    {
        type            calculated;
        value           nonuniform 0();
    }
    wall
    {
        type            calculated;
        value           uniform 0;
    }
    procBoundary6to0
    {
        type            processor;
        value           uniform 2.6085e+09;
    }
    procBoundary6to2
    {
        type            processor;
        value           nonuniform List<scalar> 
32
(
5.65986e+09
8.34598e+09
1.00912e+10
1.04452e+10
5.82792e+09
1.05951e+10
4.87048e+09
9.48351e+09
1.02373e+10
7.18174e+09
7.75987e+09
6.70123e+09
7.52608e+09
7.78352e+09
7.78352e+09
7.78352e+09
5.84724e+09
7.89002e+09
1.04375e+10
6.54246e+09
8.99412e+09
7.50676e+09
1.01411e+10
1.01411e+10
1.01411e+10
5.0514e+09
6.73776e+09
8.27809e+09
7.67899e+09
7.51733e+09
6.91816e+09
6.91816e+09
)
;
    }
    procBoundary6to4
    {
        type            processor;
        value           nonuniform List<scalar> 
27
(
3.44493e+09
6.70876e+09
9.31299e+09
5.66898e+09
8.72195e+09
6.27716e+09
1.13263e+10
6.07344e+09
7.05848e+09
6.17778e+09
8.55125e+09
7.47267e+09
9.59029e+09
1.07733e+10
7.16899e+09
1.17131e+10
8.43818e+09
8.10279e+09
8.22642e+09
7.39815e+09
7.42692e+09
8.44476e+09
9.27205e+09
9.83889e+09
5.72496e+09
5.57664e+09
7.84783e+09
)
;
    }
    procBoundary6to7
    {
        type            processor;
        value           nonuniform List<scalar> 
12
(
7.80702e+09
6.06763e+09
5.98025e+09
3.85093e+09
6.35452e+09
6.12237e+09
8.64875e+09
8.0836e+09
6.37352e+09
7.62435e+09
6.83976e+09
7.37511e+09
)
;
    }
}


// ************************************************************************* //
