/*--------------------------------*- C++ -*----------------------------------*\
| =========                 |                                                 |
| \\      /  F ield         | OpenFOAM: The Open Source CFD Toolbox           |
|  \\    /   O peration     | Version:  4.x                                   |
|   \\  /    A nd           | Web:      www.OpenFOAM.org                      |
|    \\/     M anipulation  |                                                 |
\*---------------------------------------------------------------------------*/
FoamFile
{
    version     2.0;
    format      ascii;
    class       volScalarField;
    location    "12";
    object      Sm;
}
// * * * * * * * * * * * * * * * * * * * * * * * * * * * * * * * * * * * * * //

dimensions      [1 -3 -1 0 0 0 0];

internalField   nonuniform List<scalar> 
87
(
6.74203e-65
6.04458e-65
7.12942e-65
5.1148e-65
5.81209e-65
4.95963e-65
1.03851e-64
7.59501e-65
4.95999e-65
7.43995e-65
9.37736e-65
6.12236e-65
7.36227e-65
6.50969e-65
8.52454e-65
5.81253e-65
7.90501e-65
6.43249e-65
8.52496e-65
7.36242e-65
7.82733e-65
7.05225e-65
8.60213e-65
7.5946e-65
4.96004e-65
7.20752e-65
5.42501e-65
6.12248e-65
7.59495e-65
8.75735e-65
6.35482e-65
6.81972e-65
7.51715e-65
7.98255e-65
7.67252e-65
7.905e-65
7.28498e-65
5.42496e-65
7.0524e-65
6.27737e-65
5.88982e-65
7.90468e-65
5.65753e-65
7.28502e-65
6.82001e-65
7.20749e-65
5.96748e-65
5.57992e-65
7.74984e-65
5.73486e-65
7.74971e-65
5.19254e-65
6.74252e-65
5.58001e-65
7.59501e-65
7.28499e-65
5.96745e-65
6.50992e-65
6.12235e-65
5.65736e-65
4.72753e-65
5.27002e-65
5.96751e-65
6.89751e-65
6.50999e-65
6.43245e-65
8.67988e-65
8.75731e-65
3.79741e-65
6.04505e-65
5.50252e-65
6.82002e-65
5.65751e-65
8.6025e-65
5.65747e-65
6.89742e-65
5.65739e-65
7.82733e-65
4.41754e-65
6.27753e-65
6.12253e-65
6.43252e-65
4.96001e-65
8.21497e-65
4.80498e-65
5.11495e-65
6.04492e-65
)
;

boundaryField
{
    inlet
    {
        type            calculated;
        value           uniform 0;
    }
    outlet
    {
        type            calculated;
        value           nonuniform 0();
    }
    wall
    {
        type            calculated;
        value           uniform 0;
    }
    procBoundary6to0
    {
        type            processor;
        value           uniform 2.32486e-65;
    }
    procBoundary6to2
    {
        type            processor;
        value           nonuniform List<scalar> 
32
(
4.88204e-65
7.43928e-65
8.36907e-65
8.29202e-65
4.95952e-65
8.91156e-65
4.80502e-65
8.13749e-65
8.36994e-65
6.50993e-65
6.43238e-65
6.27732e-65
6.27721e-65
7.74953e-65
7.74953e-65
7.74953e-65
6.89754e-65
6.89749e-65
8.36996e-65
5.81245e-65
7.20737e-65
6.89727e-65
8.36958e-65
8.36958e-65
8.36958e-65
5.27003e-65
6.51e-65
6.27748e-65
7.12996e-65
5.50244e-65
6.35484e-65
6.35484e-65
)
;
    }
    procBoundary6to4
    {
        type            processor;
        value           nonuniform List<scalar> 
27
(
4.34002e-65
5.735e-65
7.59498e-65
5.19247e-65
7.3624e-65
6.04488e-65
9.53221e-65
5.96727e-65
5.96722e-65
6.66504e-65
7.20751e-65
5.96749e-65
8.52498e-65
8.75743e-65
6.43241e-65
9.60978e-65
7.90476e-65
6.81975e-65
7.75006e-65
7.05253e-65
5.81251e-65
7.8275e-65
7.12998e-65
9.22242e-65
4.49494e-65
4.8824e-65
6.35482e-65
)
;
    }
    procBoundary6to7
    {
        type            processor;
        value           nonuniform List<scalar> 
12
(
7.67189e-65
5.50204e-65
5.1146e-65
3.95223e-65
5.81215e-65
5.6572e-65
8.05963e-65
7.05221e-65
5.34735e-65
6.89725e-65
5.96734e-65
6.27739e-65
)
;
    }
}


// ************************************************************************* //
