/*--------------------------------*- C++ -*----------------------------------*\
| =========                 |                                                 |
| \\      /  F ield         | OpenFOAM: The Open Source CFD Toolbox           |
|  \\    /   O peration     | Version:  4.x                                   |
|   \\  /    A nd           | Web:      www.OpenFOAM.org                      |
|    \\/     M anipulation  |                                                 |
\*---------------------------------------------------------------------------*/
FoamFile
{
    version     2.0;
    format      ascii;
    class       volScalarField;
    location    "54";
    object      KslPrev;
}
// * * * * * * * * * * * * * * * * * * * * * * * * * * * * * * * * * * * * * //

dimensions      [1 -3 -1 0 0 0 0];

internalField   nonuniform List<scalar> 
108
(
4877.61
2747.53
4725.16
2576.52
4838.32
2373.78
5586.94
2083.64
6445.9
6471.52
3136.16
7293.92
3144.9
9973.82
3387.4
28785.9
4341.79
1e+10
4914.92
2794.38
4857.22
2647.06
5061.15
2445.62
5722.61
2043.12
5859.1
3813.09
2517.33
3799.5
2446.46
3909.5
2287.05
4278.73
1938.15
6233.51
16057.3
3436.54
18643.7
3276.97
20920.2
3060.06
20093.2
2769.71
8347.03
48768.3
3737.87
238903
3732.91
882283
3855.94
116951
4371.09
20010.2
10837.7
3306.87
10588
3084.14
9636.12
2731.74
7797.79
2222.38
4074.64
5352.32
2895.67
5426.01
2803.22
5844.47
2587.81
6640.35
2060.92
4835.96
27452
3631.87
32716.1
3563.99
28172
3542.66
20079.1
3696.95
7897.48
1e+10
4020.14
1e+10
4014
1e+10
4076.95
1e+10
4562.62
26231.3
123041
3711.51
1e+10
3626
86963.8
3532.41
18802.3
3526.33
6138.17
7732.01
3233.23
8474.19
3190.39
10004.9
3086.48
12046.5
2629.79
11564.5
)
;

boundaryField
{
    inlet
    {
        type            zeroGradient;
    }
    outlet
    {
        type            zeroGradient;
    }
    wall
    {
        type            zeroGradient;
    }
    procBoundary3to1
    {
        type            processor;
        value           uniform 0;
    }
    procBoundary3to2
    {
        type            processor;
        value           uniform 0;
    }
    procBoundary3to7
    {
        type            processor;
        value           uniform 0;
    }
}


// ************************************************************************* //
