/*--------------------------------*- C++ -*----------------------------------*\
| =========                 |                                                 |
| \\      /  F ield         | OpenFOAM: The Open Source CFD Toolbox           |
|  \\    /   O peration     | Version:  4.x                                   |
|   \\  /    A nd           | Web:      www.OpenFOAM.org                      |
|    \\/     M anipulation  |                                                 |
\*---------------------------------------------------------------------------*/
FoamFile
{
    version     2.0;
    format      ascii;
    class       volScalarField;
    location    "54";
    object      QPartFluid;
}
// * * * * * * * * * * * * * * * * * * * * * * * * * * * * * * * * * * * * * //

dimensions      [1 -1 -3 0 0 0 0];

internalField   nonuniform List<scalar> 
108
(
8.49393e+09
3.85806e+09
6.73857e+09
3.23852e+09
5.02364e+09
3.80642e+09
5.65274e+09
5.31435e+09
2.93272e+09
6.18436e+09
8.81708e+09
4.94153e+09
5.49411e+09
5.91942e+09
4.88598e+09
5.84925e+09
5.50321e+09
3.59326e+09
6.64289e+09
6.80662e+09
7.10231e+09
4.93747e+09
5.88402e+09
5.40799e+09
6.76241e+09
7.1283e+09
4.10075e+09
4.33956e+09
4.30698e+09
4.66344e+09
6.67762e+09
5.5284e+09
5.51568e+09
3.62078e+09
5.5547e+09
4.29843e+09
8.56715e+09
8.10235e+09
1.02999e+10
1.06815e+10
8.56845e+09
8.0326e+09
6.90617e+09
8.66898e+09
7.75189e+09
7.59855e+09
8.02156e+09
8.02759e+09
8.98749e+09
7.49074e+09
7.87129e+09
9.28297e+09
8.65436e+09
5.75948e+09
1.27445e+10
9.91073e+09
9.08469e+09
1.14247e+10
8.55902e+09
1.02448e+10
8.30435e+09
9.91471e+09
7.90178e+09
8.42949e+09
7.16842e+09
7.3164e+09
8.04506e+09
9.17122e+09
7.63534e+09
7.29642e+09
8.67558e+09
5.55808e+09
8.27484e+09
1.1044e+10
9.30502e+09
1.04076e+10
6.66131e+09
7.89381e+09
9.23208e+09
8.51063e+09
7.04604e+09
9.5561e+09
6.13763e+09
8.16722e+09
5.02129e+09
4.38357e+09
9.43299e+09
7.63343e+09
1.05817e+10
5.13626e+09
6.02619e+09
1.03089e+10
9.17938e+09
7.2693e+09
7.38242e+09
9.97949e+09
8.09653e+09
9.3051e+09
5.02102e+09
8.73878e+09
4.86027e+09
5.75954e+09
6.95507e+09
6.40761e+09
8.5429e+09
6.2638e+09
9.51345e+09
7.50646e+09
)
;

boundaryField
{
    inlet
    {
        type            calculated;
        value           nonuniform 0();
    }
    outlet
    {
        type            calculated;
        value           uniform 0;
    }
    wall
    {
        type            calculated;
        value           uniform 0;
    }
    procBoundary3to1
    {
        type            processor;
        value           nonuniform List<scalar> 
27
(
3.94958e+09
7.09912e+09
6.2308e+09
8.96492e+09
6.30487e+09
5.82934e+09
5.78029e+09
6.31736e+09
4.32118e+09
7.91437e+09
8.48526e+09
7.18794e+09
6.8079e+09
5.80286e+09
9.32667e+09
9.48088e+09
1.32259e+10
4.49883e+09
9.42634e+09
7.86578e+09
5.46015e+09
1.11341e+10
8.86669e+09
1.07175e+10
7.51352e+09
9.70934e+09
3.39112e+09
)
;
    }
    procBoundary3to2
    {
        type            processor;
        value           nonuniform List<scalar> 
12
(
4.59982e+09
4.47144e+09
6.51426e+09
3.98173e+09
1.12267e+10
6.40123e+09
7.69064e+09
4.82049e+09
9.30137e+09
5.72828e+09
1.02212e+10
7.73207e+09
)
;
    }
    procBoundary3to7
    {
        type            processor;
        value           nonuniform List<scalar> 
36
(
1.01797e+10
9.19507e+09
6.50581e+09
8.00197e+09
1.11326e+10
1.25685e+10
8.02881e+09
6.555e+09
6.16452e+09
7.50098e+09
1.14724e+10
7.46366e+09
8.19217e+09
8.39594e+09
6.9674e+09
7.88189e+09
7.68923e+09
6.84805e+09
5.35718e+09
9.47915e+09
7.00309e+09
9.03782e+09
8.44556e+09
1.05821e+10
8.67873e+09
9.20165e+09
6.94037e+09
7.08339e+09
7.5458e+09
9.00497e+09
5.9888e+09
7.95722e+09
8.0705e+09
8.03273e+09
7.05695e+09
3.64111e+09
)
;
    }
}


// ************************************************************************* //
