/*--------------------------------*- C++ -*----------------------------------*\
| =========                 |                                                 |
| \\      /  F ield         | OpenFOAM: The Open Source CFD Toolbox           |
|  \\    /   O peration     | Version:  4.x                                   |
|   \\  /    A nd           | Web:      www.OpenFOAM.org                      |
|    \\/     M anipulation  |                                                 |
\*---------------------------------------------------------------------------*/
FoamFile
{
    version     2.0;
    format      ascii;
    class       volVectorField;
    location    "54";
    object      UsPrev;
}
// * * * * * * * * * * * * * * * * * * * * * * * * * * * * * * * * * * * * * //

dimensions      [0 1 -1 0 0 0 0];

internalField   nonuniform List<vector> 
108
(
(1.72931e-09 -3.01174e-09 1.41394e-09)
(2.14666e-09 -4.96662e-09 2.06734e-09)
(1.56471e-09 -4.0515e-09 1.07275e-09)
(1.02481e-09 -1.73593e-09 5.35523e-10)
(4.30941e-10 -1.0612e-09 -5.71631e-11)
(8.36846e-10 -9.97252e-10 -3.59601e-10)
(1.69757e-09 -8.59068e-10 5.95932e-11)
(-3.12444e-09 -1.54749e-09 6.24103e-10)
(7.29488e-10 -4.99438e-10 1.05618e-09)
(1.18043e-09 -1.26657e-09 6.59636e-10)
(1.06516e-09 -1.32072e-09 5.80038e-10)
(1.03977e-09 -1.21362e-09 4.86415e-10)
(9.14087e-10 -8.22701e-10 1.46685e-10)
(4.68055e-10 -5.65382e-10 -1.13457e-10)
(-7.765e-11 -5.22116e-10 -3.65118e-10)
(-2.75868e-10 -4.26253e-10 -4.72376e-11)
(-1.3113e-09 -1.13768e-09 1.20822e-10)
(8.26002e-10 -1.57897e-10 3.79613e-10)
(9.70902e-10 -1.47739e-10 3.10487e-10)
(1.24248e-09 -7.17742e-10 2.74717e-10)
(7.48872e-10 -4.58366e-10 1.13436e-10)
(6.94861e-10 -3.66627e-10 3.93283e-12)
(4.04145e-10 -3.48974e-10 -7.86398e-11)
(-3.38463e-10 -6.8975e-11 -2.79991e-10)
(-7.23144e-10 1.55662e-10 -5.25037e-11)
(-2.4104e-09 -1.88424e-10 -7.17932e-10)
(-1.2261e-09 6.00987e-09 -1.99506e-09)
(4.61297e-10 -7.21296e-11 -6.95684e-11)
(6.98029e-10 -4.67373e-10 -9.63023e-11)
(5.42297e-10 -8.53291e-10 -1.41433e-11)
(4.25093e-10 -1.32336e-10 2.06991e-11)
(4.63207e-10 -7.23473e-11 2.77233e-11)
(2.1308e-10 1.30318e-10 -3.20103e-10)
(2.44083e-09 8.47414e-10 -2.46077e-10)
(2.36808e-09 1.01525e-09 -1.37686e-09)
(-1.10983e-09 2.53172e-07 -1.01187e-08)
(1.59244e-09 -1.74274e-09 1.27082e-09)
(1.61842e-09 -8.77333e-10 1.56018e-09)
(1.24707e-09 -1.36361e-09 1.36093e-09)
(1.11412e-09 -9.71895e-10 7.02693e-10)
(9.09584e-10 -7.67655e-10 -4.80415e-12)
(6.23043e-10 -1.04402e-09 -4.21924e-10)
(1.11581e-09 -7.11449e-10 -4.99347e-10)
(1.199e-09 -7.1181e-10 1.73255e-10)
(1.05269e-09 -4.35688e-10 6.78439e-10)
(1.21751e-09 -6.79918e-10 5.8622e-10)
(1.17388e-09 -8.06844e-10 5.71022e-10)
(1.14617e-09 -9.37634e-10 4.10551e-10)
(1.13434e-09 -7.44355e-10 1.73181e-10)
(7.98974e-10 -4.55477e-10 -6.84851e-11)
(4.0336e-10 -4.93842e-10 -2.69224e-10)
(1.05143e-09 2.1396e-10 -2.80015e-10)
(6.24013e-10 -3.21772e-10 1.87781e-10)
(5.38183e-10 1.57742e-10 -2.16639e-10)
(8.99867e-10 -3.80356e-10 3.42349e-10)
(9.38352e-10 -3.94363e-10 2.32949e-10)
(9.01885e-10 -4.58329e-10 5.43092e-11)
(7.56886e-10 -3.70815e-10 3.4367e-11)
(5.90569e-10 -2.39177e-10 -2.24492e-11)
(3.08629e-10 -1.03678e-10 -8.49333e-12)
(-2.25102e-10 -1.1776e-10 -1.76917e-10)
(-3.36787e-10 2.23568e-10 -7.46438e-10)
(-2.37822e-10 9.23652e-11 -1.12154e-09)
(5.59991e-10 -1.63793e-10 7.07004e-11)
(8.48918e-10 -3.02471e-10 1.42502e-11)
(4.72874e-10 -1.93162e-10 -2.12783e-11)
(4.49938e-10 -1.77819e-10 3.5198e-11)
(4.66569e-10 -5.34521e-11 -8.60948e-12)
(6.19404e-10 -8.16412e-11 -2.26706e-12)
(6.39712e-10 2.37311e-10 -3.43211e-10)
(3.31839e-10 3.18326e-10 -1.46406e-09)
(-6.07389e-11 9.15602e-11 -5.97493e-09)
(1.28653e-09 -5.18628e-12 1.13929e-09)
(1.44768e-09 1.69432e-10 1.66329e-09)
(1.26475e-09 1.0478e-09 2.20522e-09)
(1.46199e-09 -4.16371e-10 9.23427e-10)
(1.27986e-09 -5.02317e-10 1.59927e-10)
(1.03745e-09 -5.10781e-10 -2.39678e-10)
(1.11466e-09 -3.95298e-10 -4.30728e-10)
(9.17655e-10 -2.87213e-10 -1.28237e-10)
(6.72951e-10 -8.32433e-11 4.44403e-11)
(1.15669e-09 -1.68292e-10 5.01025e-10)
(1.33026e-09 -2.61903e-10 5.13263e-10)
(1.53497e-09 2.78896e-11 5.40424e-10)
(1.37904e-09 -1.4808e-10 2.7498e-10)
(1.18582e-09 -1.96583e-10 -5.65609e-11)
(9.49896e-10 -1.6421e-10 -4.6943e-11)
(8.66983e-10 -9.80177e-11 -2.1672e-10)
(8.3306e-10 -8.37285e-12 4.37887e-11)
(5.42332e-10 -2.76847e-11 1.00771e-10)
(1.00579e-09 -9.79512e-11 1.75533e-10)
(1.07138e-09 -2.03152e-10 1.67071e-10)
(1.07525e-09 -4.60802e-12 1.80326e-10)
(9.98098e-10 -3.66494e-11 1.30219e-10)
(8.27774e-10 -5.15134e-11 5.30907e-11)
(6.02304e-10 2.52177e-11 9.09685e-11)
(3.86546e-10 -1.77258e-11 -1.24057e-10)
(5.71001e-10 1.19112e-10 -7.23356e-10)
(3.52066e-10 -1.48022e-10 -1.02776e-09)
(5.95344e-10 -1.22972e-10 1.5896e-10)
(6.23657e-10 -1.19383e-10 1.02548e-10)
(5.86685e-10 -1.00248e-11 7.77211e-11)
(5.10885e-10 1.24667e-10 8.72441e-11)
(4.46857e-10 2.0604e-12 4.5532e-11)
(2.83278e-10 7.05714e-11 1.07118e-10)
(8.23162e-11 4.74021e-11 -1.51565e-10)
(-3.08079e-12 -4.18053e-11 -9.04434e-10)
(5.67559e-11 -6.1695e-10 -2.00977e-09)
)
;

boundaryField
{
    inlet
    {
        type            calculated;
        value           nonuniform 0();
    }
    outlet
    {
        type            calculated;
        value           uniform (0 0 0);
    }
    wall
    {
        type            calculated;
        value           uniform (0 0 0);
    }
    procBoundary3to1
    {
        type            processor;
        value           uniform (0 0 0);
    }
    procBoundary3to2
    {
        type            processor;
        value           uniform (0 0 0);
    }
    procBoundary3to7
    {
        type            processor;
        value           uniform (0 0 0);
    }
}


// ************************************************************************* //
