/*--------------------------------*- C++ -*----------------------------------*\
| =========                 |                                                 |
| \\      /  F ield         | OpenFOAM: The Open Source CFD Toolbox           |
|  \\    /   O peration     | Version:  4.x                                   |
|   \\  /    A nd           | Web:      www.OpenFOAM.org                      |
|    \\/     M anipulation  |                                                 |
\*---------------------------------------------------------------------------*/
FoamFile
{
    version     2.0;
    format      ascii;
    class       volScalarField;
    location    "45.5";
    object      p_rgh;
}
// * * * * * * * * * * * * * * * * * * * * * * * * * * * * * * * * * * * * * //

dimensions      [1 -1 -2 0 0 0 0];

internalField   nonuniform List<scalar> 
132
(
108.601
92.4604
103.221
71.976
93.3417
55.3407
87.2128
37.1413
80.77
108.609
92.008
101.963
73.396
94.0276
55.3878
87.3331
36.9884
80.7614
108.792
92.0174
101.996
74.048
94.7633
55.7918
87.8533
37.5608
81.1994
108.604
91.6987
101.818
109.22
92.4772
102.513
73.7404
94.5488
55.7008
87.8504
37.4523
81.2491
109.417
92.344
102.528
74.0701
95.0114
55.7291
88.0767
37.2522
81.3348
109.769
92.4752
102.901
74.4793
95.7092
56.1268
88.6597
37.6313
81.8221
109.584
92.0923
102.669
74.3393
95.5174
109.539
92.3449
102.433
74.2581
94.9207
55.9339
87.8105
37.3758
80.988
109.903
92.4394
102.782
74.3863
95.3129
55.9308
88.0948
37.2002
81.0695
110.389
92.7412
103.354
74.8134
95.8769
56.3645
88.4711
37.8794
81.4224
110.434
92.6944
103.357
74.7321
95.8659
56.2256
88.3939
110.072
92.8093
103.073
74.8958
95.8095
56.6647
88.5808
38.4266
81.7882
110.571
93.0103
103.5
74.9758
96.1433
56.7559
88.897
38.2948
81.8753
111.122
93.4873
104.159
75.5448
96.7106
57.4443
89.0045
39.5473
81.7073
111.027
93.3075
103.938
75.1871
96.3468
56.9345
88.7796
38.4473
81.6558
)
;

boundaryField
{
    inlet
    {
        type            fixedFluxPressure;
        gradient        nonuniform List<scalar> 
16
(
1.50706e-06
3.64805e-07
-1.02726e-06
-6.77882e-07
4.875e-07
-1.52299e-07
-4.97124e-07
-6.00235e-07
-2.63787e-07
-4.16579e-07
-3.66348e-07
-2.89804e-07
-2.84583e-07
-3.51524e-07
-7.17623e-07
-3.85569e-07
)
;
        value           nonuniform List<scalar> 
16
(
108.601
108.609
108.792
108.604
109.22
109.417
109.769
109.584
109.539
109.903
110.389
110.434
110.072
110.571
111.122
111.027
)
;
    }
    outlet
    {
        type            fixedValue;
        value           nonuniform 0();
    }
    wall
    {
        type            fixedFluxPressure;
        gradient        nonuniform List<scalar> 
66
(
-1.83235e-06
-1.74622e-06
-1.9038e-06
-1.38421e-06
-8.62363e-06
-8.31733e-06
-6.3556e-06
-5.19486e-06
-9.07205e-06
-3.08349e-06
-2.95348e-06
-2.42466e-06
7.57394e-06
-3.0073e-07
-5.33707e-06
1.30611e-06
-3.7848e-07
-2.75691e-06
-2.2069e-06
-4.38147e-06
-6.00527e-06
-4.40209e-06
-5.12055e-06
-5.27814e-06
-3.75451e-07
-1.62454e-05
-1.86322e-05
-2.27137e-06
-2.25768e-05
-1.54065e-05
-1.68963e-06
-1.25968e-06
-5.31845e-07
-3.55307e-07
-7.22118e-06
-5.7897e-06
-1.85947e-06
-1.09457e-06
-2.13594e-05
-2.01396e-06
-3.82631e-07
5.3169e-08
7.25709e-06
4.9348e-06
2.74962e-07
-7.38303e-07
1.08383e-06
1.48223e-06
3.29785e-07
-2.87628e-08
6.21126e-07
1.70703e-06
-5.46972e-07
-7.30077e-07
-1.4456e-06
1.03273e-06
5.47831e-07
-6.90573e-07
-3.09542e-06
-1.23703e-06
2.74372e-08
1.79605e-06
-2.31378e-08
9.16945e-06
4.9376e-06
2.22746e-06
)
;
        value           nonuniform List<scalar> 
66
(
108.601
108.609
108.792
108.604
92.4604
92.008
92.0174
91.6987
103.221
101.963
101.996
101.818
71.976
73.396
74.048
93.3417
94.0276
94.7633
55.3407
55.3878
55.7918
87.2128
87.3331
87.8533
37.1413
36.9884
37.5608
80.77
80.7614
81.1994
108.601
109.22
109.539
110.072
92.4604
92.4772
92.3449
92.8093
103.221
102.513
102.433
103.073
71.976
73.7404
74.2581
74.8958
93.3417
94.5488
94.9207
95.8095
55.3407
55.7008
55.9339
56.6647
87.2128
87.8504
87.8105
88.5808
37.1413
37.4523
37.3758
38.4266
80.77
81.2491
80.988
81.7882
)
;
    }
    procBoundary0to1
    {
        type            processor;
        value           nonuniform List<scalar> 
12
(
18.7422
18.2071
18.9421
18.9816
18.5651
19.2544
18.7261
18.2128
19.6841
20.166
19.9886
22.136
)
;
    }
    procBoundary0to2
    {
        type            processor;
        value           nonuniform List<scalar> 
44
(
73.9952
94.6568
55.6232
87.6194
36.9221
80.907
108.775
91.7906
73.9952
102.057
73.9952
94.6568
55.8276
88.2309
36.9354
81.3133
109.656
92.3131
102.898
74.4721
55.8276
95.8409
55.8276
88.2309
37.514
81.2984
110.485
92.8046
103.568
75.1199
96.2513
57.1021
37.514
88.8397
37.514
81.2984
111.14
93.3249
104.004
75.2632
96.5599
57.0511
89.1116
38.7676
)
;
    }
    procBoundary0to4
    {
        type            processor;
        value           nonuniform List<scalar> 
36
(
110.203
92.8098
103.057
74.9307
95.6338
56.6975
88.2975
38.1618
81.1959
110.794
93.0605
103.614
75.1187
96.0408
56.7471
88.6086
38.275
81.5027
111.367
93.4828
104.091
75.5594
96.4152
57.3107
88.8929
39.025
81.5216
111.424
93.6212
104.237
75.7174
96.6319
57.5377
88.9408
39.2462
81.3817
)
;
    }
    procBoundary0to6
    {
        type            processor;
        value           uniform 81.8166;
    }
    procBoundary0to7
    {
        type            processor;
        value           uniform 20.5352;
    }
}


// ************************************************************************* //
