/*--------------------------------*- C++ -*----------------------------------*\
| =========                 |                                                 |
| \\      /  F ield         | OpenFOAM: The Open Source CFD Toolbox           |
|  \\    /   O peration     | Version:  4.x                                   |
|   \\  /    A nd           | Web:      www.OpenFOAM.org                      |
|    \\/     M anipulation  |                                                 |
\*---------------------------------------------------------------------------*/
FoamFile
{
    version     2.0;
    format      ascii;
    class       volScalarField;
    location    "25.5";
    object      Cs;
}
// * * * * * * * * * * * * * * * * * * * * * * * * * * * * * * * * * * * * * //

dimensions      [1 -3 0 0 0 0 0];

internalField   nonuniform List<scalar> 
114
(
334.995
334.992
334.988
334.98
334.969
334.766
334.986
334.979
334.971
334.959
334.952
334.937
334.923
334.985
334.975
334.965
334.957
334.952
334.951
334.942
334.999
334.999
334.997
334.996
334.994
334.991
334.986
334.981
334.973
334.79
334.994
334.988
334.981
334.977
334.974
334.973
334.979
334.971
335.015
334.991
334.985
334.977
334.97
334.969
334.974
334.983
334.984
335.243
334.989
334.981
334.999
334.999
334.998
334.997
334.995
334.993
334.988
334.986
334.643
334.997
334.994
334.991
334.988
334.983
334.98
334.977
334.978
335.006
334.996
334.992
334.989
334.984
334.979
334.975
334.975
334.976
335.052
334.993
334.988
334.981
334.974
334.999
334.999
334.999
334.998
334.997
334.996
334.993
334.992
336.746
334.999
334.998
334.998
334.997
334.995
334.993
334.988
334.986
334.929
334.999
334.998
334.997
334.995
334.992
334.988
334.984
334.98
334.932
334.998
334.996
334.995
334.992
334.988
334.984
)
;

boundaryField
{
    inlet
    {
        type            calculated;
        value           nonuniform 0();
    }
    outlet
    {
        type            calculated;
        value           uniform 335;
    }
    wall
    {
        type            calculated;
        value           nonuniform List<scalar> 
66
(
334.999
334.999
334.999
334.998
334.999
334.998
334.998
334.996
334.999
334.998
334.997
334.995
334.998
334.997
334.995
334.992
334.997
334.995
334.992
334.988
334.996
334.993
334.988
334.984
334.993
334.988
334.984
334.992
334.986
334.98
336.746
334.929
334.932
334.999
334.999
334.999
334.997
334.999
334.999
334.996
334.998
334.999
334.995
334.994
334.997
334.998
334.992
334.991
334.995
334.997
334.988
334.986
334.993
334.996
334.98
334.981
334.988
334.993
334.969
334.973
334.986
334.992
334.766
334.79
334.643
336.746
)
;
    }
    procBoundary5to1
    {
        type            processor;
        value           nonuniform List<scalar> 
32
(
334.99
334.983
334.975
334.961
334.952
334.585
334.964
334.941
334.909
334.897
334.883
334.89
334.819
334.964
334.955
334.939
334.931
334.921
334.927
334.916
334.945
335
334.998
334.997
334.997
334.997
334.996
334.991
334.991
334.991
334.991
334.991
)
;
    }
    procBoundary5to4
    {
        type            processor;
        value           nonuniform List<scalar> 
12
(
334.999
334.997
334.996
334.995
335
334.999
334.998
334.997
334.999
335
334.999
334.999
)
;
    }
    procBoundary5to7
    {
        type            processor;
        value           nonuniform List<scalar> 
44
(
334.977
334.968
334.956
334.943
334.932
334.938
334.933
335.126
334.988
334.977
334.975
334.967
334.964
334.964
334.972
334.981
335.455
334.984
334.975
334.976
334.975
334.967
334.97
334.971
334.979
334.987
335.069
334.995
334.99
334.986
334.97
334.98
334.97
334.971
334.978
334.973
334.879
334.998
334.997
334.996
334.993
334.989
334.978
334.983
)
;
    }
}


// ************************************************************************* //
