/*--------------------------------*- C++ -*----------------------------------*\
| =========                 |                                                 |
| \\      /  F ield         | OpenFOAM: The Open Source CFD Toolbox           |
|  \\    /   O peration     | Version:  4.x                                   |
|   \\  /    A nd           | Web:      www.OpenFOAM.org                      |
|    \\/     M anipulation  |                                                 |
\*---------------------------------------------------------------------------*/
FoamFile
{
    version     2.0;
    format      ascii;
    class       volScalarField;
    location    "25.5";
    object      Sm;
}
// * * * * * * * * * * * * * * * * * * * * * * * * * * * * * * * * * * * * * //

dimensions      [1 -3 -1 0 0 0 0];

internalField   nonuniform List<scalar> 
114
(
6.81994e-65
8.06e-65
6.35504e-65
6.74253e-65
7.59501e-65
8.44747e-65
6.8198e-65
5.65744e-65
5.81249e-65
6.66503e-65
8.21502e-65
8.52497e-65
7.90494e-65
8.44683e-65
6.04483e-65
7.51747e-65
5.735e-65
4.57252e-65
7.28498e-65
5.42495e-65
8.67989e-65
6.35488e-65
4.80497e-65
6.97496e-65
5.425e-65
6.43254e-65
6.82005e-65
7.13005e-65
5.65752e-65
5.9675e-65
7.05233e-65
6.81988e-65
8.52494e-65
7.13e-65
8.37004e-65
8.13754e-65
5.27002e-65
8.60249e-65
6.89747e-65
8.21483e-65
4.57243e-65
7.28494e-65
7.59501e-65
6.20003e-65
7.05252e-65
7.12999e-65
6.89745e-65
5.57995e-65
9.99737e-65
4.33997e-65
6.66498e-65
8.21502e-65
6.74253e-65
7.36256e-65
6.97506e-65
6.89757e-65
6.66506e-65
7.28505e-65
6.58751e-65
5.42497e-65
8.36997e-65
6.04503e-65
7.13005e-65
7.13006e-65
7.05255e-65
9.14505e-65
6.43252e-65
5.50249e-65
6.89745e-65
6.35499e-65
6.89753e-65
6.04505e-65
1.00751e-64
7.36254e-65
8.21501e-65
8.91247e-65
8.67994e-65
4.80499e-65
9.37751e-65
8.99006e-65
7.98258e-65
2.63502e-65
6.89756e-65
4.57255e-65
7.13008e-65
6.04507e-65
4.96005e-65
6.97507e-65
6.27755e-65
6.04503e-65
6.35501e-65
6.58754e-65
4.34004e-65
5.65757e-65
7.44008e-65
6.51006e-65
4.57254e-65
7.05253e-65
6.045e-65
6.1225e-65
6.43253e-65
8.52508e-65
6.97508e-65
5.89006e-65
8.06006e-65
6.51003e-65
6.74251e-65
6.81998e-65
7.36251e-65
5.65753e-65
7.13007e-65
5.58007e-65
9.6876e-65
7.75005e-65
)
;

boundaryField
{
    inlet
    {
        type            calculated;
        value           nonuniform 0();
    }
    outlet
    {
        type            calculated;
        value           uniform 0;
    }
    wall
    {
        type            calculated;
        value           uniform 0;
    }
    procBoundary5to1
    {
        type            processor;
        value           nonuniform List<scalar> 
32
(
7.98235e-65
5.73498e-65
8.44753e-65
7.05252e-65
5.73499e-65
4.18496e-65
5.65712e-65
6.12238e-65
6.97498e-65
6.97501e-65
6.58748e-65
7.20744e-65
4.41744e-65
6.35431e-65
5.11472e-65
9.06737e-65
8.29251e-65
8.75748e-65
6.81993e-65
7.90489e-65
3.48745e-65
6.587e-65
5.2698e-65
8.05977e-65
8.05977e-65
8.05977e-65
7.05182e-65
9.99679e-65
9.99679e-65
9.99679e-65
5.73436e-65
5.73436e-65
)
;
    }
    procBoundary5to4
    {
        type            processor;
        value           nonuniform List<scalar> 
12
(
8.91232e-65
9.06722e-65
5.6574e-65
5.96743e-65
8.21497e-65
8.13745e-65
6.81996e-65
6.82e-65
7.20752e-65
7.595e-65
6.2775e-65
6.35501e-65
)
;
    }
    procBoundary5to7
    {
        type            processor;
        value           nonuniform List<scalar> 
44
(
7.8272e-65
6.43241e-65
6.74251e-65
1.03075e-64
1.03849e-64
7.98237e-65
5.65741e-65
8.36986e-65
9.91948e-65
7.8272e-65
6.4325e-65
7.36254e-65
6.74254e-65
6.89749e-65
8.60241e-65
8.44737e-65
7.36238e-65
3.95251e-65
6.4325e-65
8.52499e-65
6.4325e-65
7.36254e-65
5.03754e-65
5.81251e-65
7.36246e-65
6.04494e-65
5.81242e-65
8.06001e-65
7.36252e-65
6.82005e-65
5.03754e-65
5.19255e-65
5.03754e-65
5.81251e-65
5.5025e-65
6.43247e-65
6.12245e-65
6.89751e-65
5.81253e-65
7.67257e-65
7.44009e-65
5.19257e-65
5.5025e-65
3.87503e-65
)
;
    }
}


// ************************************************************************* //
