/*--------------------------------*- C++ -*----------------------------------*\
| =========                 |                                                 |
| \\      /  F ield         | OpenFOAM: The Open Source CFD Toolbox           |
|  \\    /   O peration     | Version:  4.x                                   |
|   \\  /    A nd           | Web:      www.OpenFOAM.org                      |
|    \\/     M anipulation  |                                                 |
\*---------------------------------------------------------------------------*/
FoamFile
{
    version     2.0;
    format      ascii;
    class       volVectorField;
    location    "25.5";
    object      Urel;
}
// * * * * * * * * * * * * * * * * * * * * * * * * * * * * * * * * * * * * * //

dimensions      [0 1 -1 0 0 0 0];

internalField   nonuniform List<vector> 
114
(
(-0.0226048 1.38291e-05 0.000177798)
(-0.0208947 8.38381e-05 6.58151e-05)
(-0.0220946 3.85414e-05 -0.000179412)
(-0.0198177 0.000312675 -0.00036579)
(-0.0206093 0.000273618 -0.000895123)
(-0.0172756 0.00108288 -0.000791224)
(-0.018979 0.000216404 0.000459788)
(-0.020647 2.21186e-05 0.000150036)
(-0.0186542 0.000133185 9.84173e-05)
(-0.0202527 8.15301e-05 -0.000118591)
(-0.0179644 0.000361414 -0.000239905)
(-0.0192038 3.82668e-05 -0.000795646)
(-0.0166193 0.0013085 -9.09579e-05)
(-0.0188457 0.000455118 0.000607023)
(-0.015865 -2.39705e-06 0.000639397)
(-0.0185232 -0.000120189 0.000387014)
(-0.0158082 -3.59903e-05 0.000257017)
(-0.0181703 -8.21834e-05 0.000146255)
(-0.0152514 0.000153225 -0.000260476)
(-0.01756 -7.46202e-05 -0.000690791)
(-0.0156875 0.000754454 -8.18092e-06)
(-0.0209294 0.000564684 0.000112454)
(-0.0222996 0.0007623 7.38137e-05)
(-0.0209099 0.00037743 5.52336e-05)
(-0.0221964 0.000111721 -6.18303e-05)
(-0.0205377 0.000295476 -0.00025027)
(-0.0218815 0.000370752 -0.000517129)
(-0.0198469 0.000787552 -0.000934465)
(-0.0207609 0.000814133 -0.00130999)
(-0.0177072 0.00233394 -0.00288413)
(-0.018861 0.000426976 0.00011649)
(-0.0204756 0.000429978 0.000100932)
(-0.0176899 0.000292158 0.000220856)
(-0.0200318 0.000210198 4.75679e-05)
(-0.0176707 0.000334872 -9.24926e-05)
(-0.0195804 0.000370963 -0.000368368)
(-0.016808 0.000627211 -0.000548801)
(-0.0185836 0.00045053 -0.000856492)
(-0.0161873 0.00191885 -0.00137069)
(-0.0173388 0.000258579 0.000204346)
(-0.0191603 0.000195825 -2.44271e-05)
(-0.0163292 0.000149125 0.000261503)
(-0.0184989 0.000203923 0.000165477)
(-0.0158426 0.000107382 4.18412e-05)
(-0.0177537 -3.43192e-05 -0.000194636)
(-0.0146338 0.000460336 -0.000254665)
(-0.0170917 0.000454696 -0.000243376)
(-0.0151735 0.00104871 -0.000632067)
(-0.0165885 -2.33976e-05 0.000199722)
(-0.0187936 -1.99109e-05 -4.52883e-05)
(-0.0217017 0.000500924 -0.000101464)
(-0.0231286 0.000569622 -0.000195632)
(-0.0220495 0.000444652 -0.000118479)
(-0.0234626 0.000387657 -0.000122999)
(-0.0221778 0.000567867 -0.000350761)
(-0.0237909 0.000681985 -0.000495725)
(-0.0219971 0.00135727 -0.00107682)
(-0.0236923 0.00169303 -0.00118453)
(-0.0195402 0.00389564 -0.00326744)
(-0.0200782 0.000388844 -0.000140913)
(-0.0216707 0.000461157 -0.000370954)
(-0.0200879 0.000388973 -6.95716e-05)
(-0.0216538 0.000377673 3.71375e-05)
(-0.0200156 0.000533079 -0.000201839)
(-0.0215883 0.000620282 -0.000360396)
(-0.0196364 0.00121696 -0.00072222)
(-0.0209022 0.0013952 -0.00067903)
(-0.017876 0.00372788 -0.00223855)
(-0.018841 0.000270746 -0.00011801)
(-0.0204312 0.000421149 -0.000219619)
(-0.0185993 0.000316635 1.43689e-07)
(-0.0201564 0.000300062 3.27823e-05)
(-0.0182259 0.000370308 -0.000121334)
(-0.0197621 0.000384339 -0.000208549)
(-0.0176025 0.00083349 -0.000344457)
(-0.0187961 0.00074935 -2.50323e-05)
(-0.016339 0.00205476 -0.00114908)
(-0.0179446 2.76643e-05 -9.20727e-05)
(-0.0196808 2.63685e-05 -0.000288662)
(-0.0172631 8.16956e-05 0.000106959)
(-0.0191601 9.86391e-05 0.000150604)
(-0.0227887 0.000509229 -3.17852e-05)
(-0.0241767 0.000579013 -5.66531e-05)
(-0.0234514 0.000527449 -1.56451e-05)
(-0.0247804 0.000526904 -6.91464e-05)
(-0.0238035 0.000767212 -0.000163024)
(-0.0254086 0.000940996 -0.000375479)
(-0.0238464 0.00180244 -0.000718209)
(-0.0258156 0.00234827 -0.00108537)
(-0.0210249 0.00503321 -0.0020915)
(-0.0215607 0.00043555 -4.07772e-05)
(-0.0229824 0.000487827 -8.53232e-05)
(-0.0220594 0.00050277 3.17891e-06)
(-0.0232468 0.000532353 -2.6442e-05)
(-0.0220258 0.000760008 -9.25635e-05)
(-0.0233163 0.00089655 -0.000282278)
(-0.0216629 0.00168048 -0.000498766)
(-0.0227016 0.00202066 -0.000792502)
(-0.019237 0.00477577 -0.00158024)
(-0.0204541 0.000319809 -4.73948e-06)
(-0.0217906 0.000391656 -8.23655e-05)
(-0.0205401 0.000403736 3.22976e-05)
(-0.0217158 0.000421701 2.36033e-05)
(-0.0202149 0.000562304 -1.78727e-05)
(-0.0214024 0.000580716 -0.000151597)
(-0.0195277 0.00113971 -0.00027369)
(-0.0202901 0.00121264 -0.000401018)
(-0.0172938 0.0025586 -0.000959268)
(-0.0196752 9.32059e-05 -1.49406e-05)
(-0.0210663 0.000107067 -0.000193564)
(-0.0196917 0.000177054 1.40266e-05)
(-0.0207561 0.000186753 6.33343e-05)
(-0.0191387 0.00026498 7.92962e-05)
(-0.0201301 0.000242541 -3.2542e-05)
)
;

boundaryField
{
    inlet
    {
        type            calculated;
        value           nonuniform 0();
    }
    outlet
    {
        type            calculated;
        value           nonuniform List<vector> 
12
(
(-0.00397409 -0.000163664 -0.000915772)
(-0.00668911 0.00565632 0.00437309)
(-0.00655603 0.00353637 0.00135525)
(-0.00817602 0.00757899 -0.0178564)
(-0.000372691 0.00439892 -0.0019271)
(-0.000938633 0.000587985 -0.00161472)
(-0.0122459 0.0128428 -0.0179423)
(-0.00867485 0.0182288 -0.0121505)
(-0.00646076 0.00718961 -0.00589854)
(-0.0155205 0.0180041 -0.00331598)
(-0.0126464 0.0229165 -0.00245348)
(-0.00696614 0.00616075 -0.00198203)
)
;
    }
    wall
    {
        type            calculated;
        value           nonuniform List<vector> 
66
(
(-8.28722e-07 1.15545e-07 -7.54539e-09)
(-1.28214e-06 2.08562e-07 -3.43202e-08)
(-1.95862e-06 2.0901e-07 -5.25836e-08)
(-1.00474e-06 4.74823e-08 3.4008e-07)
(-1.027e-06 1.01493e-07 1.24497e-07)
(-1.3648e-06 2.79288e-07 1.61388e-07)
(-1.62686e-06 3.15292e-07 -3.62367e-08)
(-1.09417e-06 4.60594e-07 -1.20879e-07)
(-1.09603e-06 7.07204e-06 4.06812e-07)
(-2.6609e-06 2.1593e-06 4.97401e-07)
(-1.72146e-06 5.05712e-07 9.30553e-08)
(-5.53188e-07 5.2268e-06 -2.16222e-07)
(-1.11704e-06 -3.58633e-08 8.29282e-08)
(-3.33704e-06 -1.67565e-07 -6.38971e-09)
(-1.97519e-06 1.01287e-07 -4.72109e-08)
(-1.30576e-06 9.57388e-08 -2.67825e-07)
(-1.29769e-06 1.3163e-07 -5.42051e-08)
(-1.49656e-06 2.39813e-07 -1.99128e-08)
(-1.09504e-06 -3.83303e-07 -1.7254e-08)
(-1.17314e-06 -3.03721e-07 -1.62862e-07)
(-1.02291e-06 4.14489e-07 7.82689e-07)
(-8.68695e-07 3.31662e-07 8.02109e-07)
(-7.22913e-07 -1.36684e-07 -2.79794e-07)
(-1.32441e-06 5.42419e-08 -2.80747e-08)
(-7.60988e-07 1.79338e-08 5.08835e-10)
(-8.0479e-07 2.48085e-07 -4.38554e-08)
(-6.02243e-07 2.34008e-07 -1.39022e-07)
(-6.63658e-07 6.52125e-08 -2.10773e-07)
(-4.37451e-07 1.21503e-07 -1.34805e-07)
(-4.22701e-07 1.47829e-07 -4.92283e-08)
(-1.91206e-07 5.75239e-08 -1.47035e-07)
(-6.80443e-08 1.21045e-07 -1.06015e-07)
(-2.19919e-07 1.67173e-08 -5.06731e-08)
(-1.09444e-06 5.29916e-08 1.64642e-07)
(-1.20338e-06 1.01389e-07 7.74094e-08)
(-8.28722e-07 1.15545e-07 -7.54539e-09)
(-1.39822e-06 1.72492e-07 2.73477e-07)
(-1.2102e-06 -9.93623e-09 2.5704e-07)
(-1.027e-06 1.01493e-07 1.24497e-07)
(-2.24931e-06 3.97742e-07 1.89481e-07)
(-1.24007e-06 -2.99693e-08 1.68273e-07)
(-1.09603e-06 7.07204e-06 4.06812e-07)
(-3.05217e-06 1.35432e-07 2.43241e-07)
(-1.9049e-06 -9.77059e-08 8.88507e-08)
(-1.29059e-06 -1.63861e-07 6.18722e-09)
(-1.11704e-06 -3.58633e-08 8.29282e-08)
(-2.44678e-06 6.05869e-08 2.85939e-07)
(-1.49537e-06 -5.89315e-08 -4.73135e-07)
(-1.41655e-06 -3.29394e-08 -1.4799e-07)
(-1.29769e-06 1.3163e-07 -5.42051e-08)
(-2.30625e-06 5.95262e-07 2.45022e-07)
(-1.24187e-06 1.27548e-07 1.12042e-07)
(-1.0459e-06 2.70949e-07 2.89924e-07)
(-1.02291e-06 4.14489e-07 7.82689e-07)
(-1.53223e-06 -8.35564e-09 1.30818e-08)
(-1.1304e-06 1.04993e-07 -5.41918e-08)
(-1.12331e-06 3.00275e-07 -9.4672e-08)
(-7.60988e-07 1.79338e-08 5.08835e-10)
(-9.78836e-07 -3.03007e-08 7.44633e-08)
(-7.70643e-07 7.18085e-08 -4.29232e-08)
(-6.32158e-07 9.58969e-08 -1.4986e-07)
(-6.63658e-07 6.52125e-08 -2.10773e-07)
(-3.51659e-08 -6.97764e-08 1.08578e-08)
(-4.07317e-07 3.13529e-08 7.41582e-08)
(-2.21806e-07 4.3806e-08 4.3437e-09)
(-1.91206e-07 5.75239e-08 -1.47035e-07)
)
;
    }
    procBoundary5to1
    {
        type            processor;
        value           nonuniform List<vector> 
32
(
(-0.0237678 -0.000181188 0.000284369)
(-0.0221701 -0.000144277 0.000216382)
(-0.0233791 -0.000212041 -2.94462e-05)
(-0.0211098 6.75632e-05 9.30539e-05)
(-0.0220357 8.42299e-05 -0.000292428)
(-0.0183108 0.000869415 0.000753188)
(-0.0205831 2.09096e-05 0.000473169)
(-0.021993 -0.000168265 0.00018343)
(-0.0201496 -3.42887e-05 0.000127792)
(-0.0218029 -0.00024592 -0.000169536)
(-0.0197064 0.000223541 1.59605e-05)
(-0.0207568 4.90603e-05 -0.000397359)
(-0.0178337 0.00140125 0.00109554)
(-0.0191505 0.000777861 0.000864725)
(-0.0166806 -0.000269176 0.000561951)
(-0.0196265 -0.000559346 0.000165444)
(-0.0171519 -0.000200292 0.000125656)
(-0.0197263 -0.000297392 -0.000156707)
(-0.017447 -2.77693e-05 -0.000190348)
(-0.0189242 -0.000165777 -0.000564302)
(-0.0167168 0.000726163 0.000746662)
(-0.0212937 0.00049578 0.000384334)
(-0.0226899 0.000472273 0.000467568)
(-0.0214054 0.000217511 0.000356975)
(-0.0214054 0.000217511 0.000356975)
(-0.0214054 0.000217511 0.000356975)
(-0.0192586 0.000476741 0.000393307)
(-0.0208677 0.000543791 0.000646229)
(-0.0208677 0.000543791 0.000646229)
(-0.0208677 0.000543791 0.000646229)
(-0.0171786 0.000371295 0.000348332)
(-0.0171786 0.000371295 0.000348332)
)
;
    }
    procBoundary5to4
    {
        type            processor;
        value           nonuniform List<vector> 
12
(
(-0.0222195 0.000570703 0.00014049)
(-0.0208394 0.000545229 0.000105431)
(-0.0197063 0.000336204 7.78943e-06)
(-0.0191278 -0.000208028 8.18624e-05)
(-0.0228126 0.000510047 -0.000129567)
(-0.0216236 0.000425345 -0.000182299)
(-0.0206477 0.000292606 -0.000261113)
(-0.0200242 -2.6103e-06 -0.000216346)
(-0.0236162 0.000502748 -3.15301e-05)
(-0.022649 0.000430069 -4.68562e-05)
(-0.021712 0.000307078 -4.62048e-05)
(-0.0211162 5.25564e-05 -3.32025e-05)
)
;
    }
    procBoundary5to7
    {
        type            processor;
        value           nonuniform List<vector> 
44
(
(-0.0182754 -0.000158958 -7.72196e-05)
(-0.0150654 -3.55634e-05 0.000817433)
(-0.0179707 -1.04822e-05 0.00081798)
(-0.0152417 -9.97074e-05 0.000299696)
(-0.0178948 -0.00018273 -0.000140525)
(-0.0150536 -1.96663e-05 -5.39604e-05)
(-0.0172746 0.000284363 -0.000337364)
(-0.0152381 -9.58459e-05 0.0002209)
(-0.0166838 -5.52523e-06 2.32453e-05)
(-0.0182754 -0.000158958 -7.72196e-05)
(-0.0160779 1.01384e-05 0.000308356)
(-0.0180659 5.14606e-05 0.000318435)
(-0.0151779 -7.00811e-05 0.000164029)
(-0.0177178 -0.000338469 -9.66831e-05)
(-0.0153986 0.000107356 -0.000116441)
(-0.0170259 0.000371828 -0.000255347)
(-0.0150973 0.000246023 -9.10343e-05)
(-0.0170955 -0.00029739 0.000240031)
(-0.0160779 1.01384e-05 0.000308356)
(-0.0191183 -0.000321354 8.5807e-05)
(-0.0160779 1.01384e-05 0.000308356)
(-0.0180659 5.14606e-05 0.000318435)
(-0.0166376 0.000109947 0.000119061)
(-0.0186497 7.99651e-05 0.000209345)
(-0.0161047 0.000302605 -0.0001047)
(-0.0176828 0.000392213 6.78524e-05)
(-0.0156346 0.000587211 -0.000406451)
(-0.018382 -0.000197595 -3.12123e-07)
(-0.0200694 -0.000360743 -0.000153124)
(-0.0180897 -0.000137365 6.25151e-05)
(-0.0166376 0.000109947 0.000119061)
(-0.0197614 -9.33094e-05 0.000113336)
(-0.0166376 0.000109947 0.000119061)
(-0.0186497 7.99651e-05 0.000209345)
(-0.0182223 0.000559574 -6.09241e-05)
(-0.018933 0.000553817 1.83782e-05)
(-0.0165041 0.00109311 -0.000405097)
(-0.0198712 -0.000137842 8.56002e-05)
(-0.021235 -0.00020063 2.39974e-05)
(-0.0198321 -7.69221e-05 0.000145964)
(-0.0209873 -5.37361e-05 0.000166928)
(-0.0193508 -2.61298e-05 0.00024494)
(-0.0182223 0.000559574 -6.09241e-05)
(-0.0203309 -1.97922e-06 0.000183108)
)
;
    }
}


// ************************************************************************* //
