/*--------------------------------*- C++ -*----------------------------------*\
| =========                 |                                                 |
| \\      /  F ield         | OpenFOAM: The Open Source CFD Toolbox           |
|  \\    /   O peration     | Version:  4.x                                   |
|   \\  /    A nd           | Web:      www.OpenFOAM.org                      |
|    \\/     M anipulation  |                                                 |
\*---------------------------------------------------------------------------*/
FoamFile
{
    version     2.0;
    format      ascii;
    class       volVectorField;
    location    "2";
    object      DDtUrel;
}
// * * * * * * * * * * * * * * * * * * * * * * * * * * * * * * * * * * * * * //

dimensions      [0 1 -2 0 0 0 0];

internalField   nonuniform List<vector> 
87
(
(0.0504412 0.000764268 0.00277241)
(0.0475097 0.000986794 0.00255196)
(0.0404076 0.00129061 0.00225281)
(0.0286991 0.00173024 0.0019207)
(0.0145162 0.00232476 0.00175819)
(0.0001833 0.00179992 0.00154801)
(-0.0166366 0.00104056 0.0016325)
(-0.0400585 0.000672827 0.00216578)
(-0.0484794 -0.000216639 0.00408994)
(0.0488322 0.000128696 0.00245846)
(0.0458912 -6.81617e-06 0.00204456)
(0.0393711 -0.000222208 0.00157922)
(0.0290855 -0.000237505 0.00105865)
(0.0160432 2.2287e-05 0.00067925)
(0.0019564 0.000394564 0.000627286)
(-0.0150734 0.000717679 0.000986834)
(-0.0394866 0.000615224 0.0011317)
(-0.047596 -0.00018687 0.00160004)
(0.0466218 4.38182e-05 0.00224633)
(0.0441524 -0.000301741 0.00188761)
(0.038373 -0.000699921 0.00150927)
(0.0293957 -0.000865382 0.000911365)
(0.0169754 -0.000685841 0.000402597)
(0.00289567 -7.47224e-05 0.000213728)
(-0.014576 0.000691051 0.000196629)
(-0.0389729 0.000821711 1.26794e-05)
(-0.0470828 0.000394529 0.000271293)
(0.0486483 0.000633327 0.0023677)
(0.0458689 0.000900007 0.00182247)
(0.0396499 0.00122293 0.00147015)
(0.029157 0.00160607 0.00119113)
(0.0159112 0.00205714 0.00096024)
(0.000552598 0.00136538 0.00102539)
(-0.0175085 0.000545573 0.000549322)
(-0.043573 -0.00115154 0.00193147)
(-0.0517934 -0.00350411 0.00533893)
(0.0465992 0.000294428 0.00234375)
(0.0438921 0.000199195 0.00184457)
(0.0376112 1.94952e-05 0.0013509)
(0.0277795 -0.000147038 0.000820541)
(0.0150349 -0.000146343 0.000344795)
(0.000440249 -0.000182603 0.000139165)
(-0.0172114 -0.000485593 0.00025244)
(-0.042452 -0.00118758 0.000931594)
(-0.0491587 -0.00236444 0.00210065)
(0.0444069 0.000192426 0.00221123)
(0.0419304 -2.1334e-05 0.00170429)
(0.0360731 -0.000400565 0.00123193)
(0.0272884 -0.000644224 0.000715417)
(0.015255 -0.000733667 0.000186983)
(0.00121567 -0.000544553 -0.000191074)
(-0.0164412 -0.000408633 -0.000219076)
(-0.0406766 -0.000514461 -0.000263109)
(-0.0477415 -0.000838452 1.06343e-05)
(0.0476713 0.000910759 0.0015639)
(0.0439338 0.00148637 0.000782592)
(0.0367087 0.00169406 9.65027e-05)
(0.0266505 0.00178849 -0.000314931)
(0.0145969 0.00203884 -0.000524768)
(-0.000504146 0.000846316 -0.000456651)
(-0.0169135 -0.000242068 -0.00110607)
(-0.0470965 -0.00412205 0.00155194)
(-0.0583373 -0.00856752 0.00430716)
(0.0440807 0.000426106 0.0017246)
(0.0408951 0.000384658 0.00123664)
(0.0341894 0.000369576 0.000647055)
(0.0249807 0.000315415 0.000172735)
(0.0132159 0.000180129 -0.000227249)
(-0.00109661 -0.000368234 -0.000449928)
(-0.0182866 -0.00120043 -0.000718066)
(-0.044604 -0.00364796 0.000357526)
(-0.0509138 -0.00642559 0.0020762)
(0.0413814 0.000258204 0.00170377)
(0.0387215 0.000200415 0.00124665)
(0.0327225 3.98395e-06 0.000738937)
(0.0241834 -0.000174894 0.000358918)
(0.0130362 -0.000371801 -3.68829e-05)
(-0.00029771 -0.000558481 -0.000414027)
(-0.0174447 -0.00107383 -0.000485497)
(-0.042106 -0.00210821 -0.000233328)
(-0.0490482 -0.00319656 -0.00012127)
(0.0451626 0.0010366 0.000538625)
(0.0409167 0.00168896 0.00012089)
(0.0334919 0.0020529 -0.000763677)
(0.0411646 0.000544036 0.000949801)
(0.0374209 0.00056704 0.000500337)
(0.0384361 0.000285524 0.00100825)
)
;

boundaryField
{
    inlet
    {
        type            calculated;
        value           nonuniform 0();
    }
    outlet
    {
        type            calculated;
        value           nonuniform List<vector> 9((-0.0683795 0.00687283 0.0141268) (-0.0679023 0.00222324 -0.00194406) (-0.0695235 0.00241482 0.00106872) (-0.0766155 -0.00918566 0.0333163) (-0.0666442 -0.00157872 0.00399678) (-0.0666171 0.00199893 -0.00335849) (-0.132113 -0.0347206 0.0370575) (-0.0579428 -0.0237308 0.0150628) (-0.0672782 -0.008075 -0.00807441));
    }
    wall
    {
        type            calculated;
        value           nonuniform List<vector> 
57
(
(0.06638 0.00320784 0.0047383)
(0.0625804 -0.00139738 0.00258734)
(0.0540989 0.000508289 0.0017923)
(0.0710199 0.00404112 0.00661463)
(0.0639991 -0.00251759 0.0017731)
(0.0593325 -0.0021593 0.00198053)
(0.0608001 0.00569673 0.00680754)
(0.0568382 -0.0047751 0.000623057)
(0.0537126 -0.00482407 0.00289058)
(0.0341365 0.00762286 0.00625128)
(0.0423379 -0.00550549 -0.000876476)
(0.0468462 -0.00603831 0.000906155)
(0.00609255 0.0138319 0.00764991)
(0.0243409 -0.00470648 -0.00183997)
(0.0281464 -0.00635604 -0.000379834)
(0.0017278 0.0081876 0.00500973)
(0.0186969 -0.000536769 -0.00078571)
(0.0205224 -0.00263907 0.000694302)
(0.00270215 0.00225741 0.00547042)
(0.0186748 0.00490113 0.00438523)
(0.016488 0.0041365 0.00168524)
(-0.0795736 0.0081463 0.00158041)
(-0.0830488 0.00758024 0.000956516)
(-0.082158 0.00554706 -0.00146941)
(-0.0683795 0.00687283 0.0141268)
(-0.0679023 0.00222324 -0.00194406)
(-0.0695235 0.00241482 0.00106872)
(0.06638 0.00320784 0.0047383)
(0.0594692 2.2751e-05 0.00365881)
(0.0751371 0.00199843 0.00178199)
(0.0758632 0.000924397 -0.00166573)
(0.0710199 0.00404112 0.00661463)
(0.0639597 0.000819377 0.0020891)
(0.0678316 0.00722674 -0.00206601)
(0.0657596 0.00648129 0.000866204)
(0.0608001 0.00569673 0.00680754)
(0.0664195 0.00305404 0.00342399)
(0.0544624 0.00644649 -0.00406056)
(0.0527677 0.00785784 -0.00372704)
(0.0341365 0.00762286 0.00625128)
(0.0514221 0.00582614 0.00452405)
(0.0412222 0.00448358 -0.00350004)
(0.00609255 0.0138319 0.00764991)
(0.0337101 0.0117363 0.00400612)
(0.0363251 0.0108759 -0.00241991)
(0.0017278 0.0081876 0.00500973)
(0.0139487 0.00678489 0.008399)
(0.0145767 0.0017138 0.00301571)
(0.00270215 0.00225741 0.00547042)
(0.00310445 0.00745468 -0.00278796)
(0.0460275 0.00988094 -0.0128659)
(-0.0795736 0.0081463 0.00158041)
(-0.104756 0.0045835 -0.00110053)
(-0.117872 -0.00432648 0.0172433)
(-0.0683795 0.00687283 0.0141268)
(-0.0766155 -0.00918566 0.0333163)
(-0.132113 -0.0347206 0.0370575)
)
;
    }
    procBoundary1to0
    {
        type            processor;
        value           nonuniform List<vector> 
12
(
(0.0516479 0.000514533 0.00307265)
(0.0501986 5.36604e-05 0.00286052)
(0.0479596 5.03234e-05 0.00260899)
(0.0492417 0.000485344 0.00292031)
(0.0477017 0.000214574 0.00276553)
(0.0454955 0.000135905 0.00252628)
(0.0477485 0.00060382 0.00232788)
(0.0449633 0.000327923 0.00213443)
(0.04262 0.000122748 0.00195379)
(0.0453378 0.000701605 0.00109221)
(0.0421613 0.000389463 0.0013954)
(0.0399095 0.000135608 0.00139481)
)
;
    }
    procBoundary1to3
    {
        type            processor;
        value           nonuniform List<vector> 
27
(
(0.0452925 1.9177e-05 0.00223936)
(0.0431837 -0.000212611 0.00191295)
(0.0380173 -0.000373571 0.00149205)
(0.0297722 -0.000384425 0.000865503)
(0.0177384 5.30453e-05 0.00023425)
(0.00336861 0.000595268 -0.00010787)
(-0.015054 0.0013081 -0.000480249)
(-0.0399279 0.00142028 -0.000804178)
(-0.0471424 0.0011061 -0.000790261)
(0.043162 6.29236e-05 0.00211111)
(0.041118 -9.3009e-05 0.00175244)
(0.0359634 -0.00029379 0.0014119)
(0.0279056 -0.000353947 0.000904635)
(0.0161522 -0.000113907 0.000259271)
(0.00187411 0.000202383 -0.000262441)
(-0.0158573 0.000478145 -0.000690952)
(-0.0399402 0.00055896 -0.000829835)
(-0.0469717 0.000531325 -0.000833341)
(0.0401001 5.59073e-05 0.00158848)
(0.0374969 -2.52163e-05 0.00118792)
(0.0323948 -0.000170427 0.000675304)
(0.0243951 -0.000195521 0.000237367)
(0.0138356 -7.38705e-05 -0.000212101)
(0.000896737 0.000110201 -0.000461199)
(-0.0158121 1.55733e-05 -0.000524852)
(-0.0400879 -0.00012309 -0.000137283)
(-0.0485909 2.74185e-05 2.09927e-05)
)
;
    }
    procBoundary1to5
    {
        type            processor;
        value           nonuniform List<vector> 
32
(
(0.023201 0.00239708 -0.0014957)
(0.0108088 0.00251972 -0.00199719)
(-0.00454222 0.00115374 -0.00231999)
(-0.021 -0.000409876 -0.00282153)
(-0.0500939 -0.0069063 -0.00284743)
(-0.0601025 -0.0119381 -0.00227191)
(0.030727 0.000617544 -0.000161845)
(0.0218317 0.000686034 -0.000644445)
(0.010386 0.000543767 -0.0010615)
(-0.00353689 -0.00016973 -0.00126288)
(-0.020313 -0.0012032 -0.00146141)
(-0.045502 -0.00515202 -0.00103747)
(-0.0514099 -0.00886838 -0.000399014)
(0.0350851 0.000338468 0.000558907)
(0.0293667 0.000250722 4.47126e-05)
(0.0214706 9.6331e-05 -0.000343287)
(0.0106612 -0.000188388 -0.000625162)
(-0.00215419 -0.000603637 -0.000750363)
(-0.0187346 -0.00132029 -0.000688641)
(-0.0428021 -0.00297084 -0.000178588)
(-0.0504096 -0.00511739 0.000137682)
(0.0409486 0.00136159 -0.000302545)
(0.0366569 0.00175713 -0.000684017)
(0.023201 0.00239708 -0.0014957)
(0.030727 0.000617544 -0.000161845)
(0.0298467 0.0019689 -0.001444)
(0.0383066 0.000635355 0.000235483)
(0.030727 0.000617544 -0.000161845)
(0.0350851 0.000338468 0.000558907)
(0.0342642 0.000725806 -0.000220221)
(0.0350851 0.000338468 0.000558907)
(0.0363965 0.000319198 0.000397597)
)
;
    }
    procBoundary1to7
    {
        type            processor;
        value           uniform (0.0374319 1.84154e-05 0.000919831);
    }
}


// ************************************************************************* //
