/*--------------------------------*- C++ -*----------------------------------*\
| =========                 |                                                 |
| \\      /  F ield         | OpenFOAM: The Open Source CFD Toolbox           |
|  \\    /   O peration     | Version:  4.x                                   |
|   \\  /    A nd           | Web:      www.OpenFOAM.org                      |
|    \\/     M anipulation  |                                                 |
\*---------------------------------------------------------------------------*/
FoamFile
{
    version     2.0;
    format      ascii;
    class       volVectorField;
    location    "2";
    object      ddtUrel;
}
// * * * * * * * * * * * * * * * * * * * * * * * * * * * * * * * * * * * * * //

dimensions      [0 1 -2 0 0 0 0];

internalField   nonuniform List<vector> 
87
(
(0.000818777 4.53812e-06 -0.000693812)
(0.000453761 -3.14507e-05 -0.000571954)
(0.000185418 -7.50658e-05 -0.000408005)
(-0.00138275 -0.000101665 -0.000322184)
(-0.00342965 -6.74844e-05 -0.00030193)
(-0.0059486 -4.06441e-06 -0.000307438)
(-0.0118945 3.23018e-05 -0.000361354)
(-0.0143545 0.000187459 -0.000470011)
(-0.0127629 0.000301258 -0.000744391)
(0.00117171 1.17962e-05 -0.000638795)
(0.000466221 -2.59299e-05 -0.000578018)
(-9.48769e-05 -9.61976e-05 -0.000428317)
(-0.00139082 -0.000126645 -0.000350675)
(-0.00349984 -8.00612e-05 -0.000340955)
(-0.00680869 -2.59746e-05 -0.000367279)
(-0.0128867 4.71313e-05 -0.000394579)
(-0.0161859 0.000343022 -0.000388072)
(-0.0135316 0.000473561 -0.000626743)
(0.00145892 -2.55204e-05 -0.000584569)
(0.000766447 -4.24284e-05 -0.000527409)
(-6.54349e-05 -8.5097e-05 -0.000451714)
(-0.00146645 -0.000104855 -0.000399015)
(-0.00403513 -7.30767e-05 -0.000423057)
(-0.00715751 -6.88722e-06 -0.000390081)
(-0.0134428 0.000100832 -0.000400886)
(-0.0167492 0.000363909 -0.000341973)
(-0.0133534 0.000549771 -0.000589131)
(0.000701942 1.50661e-06 -0.000653994)
(0.0003275 -5.0318e-05 -0.000517184)
(-0.000180374 -8.50411e-05 -0.000450082)
(-0.00177737 -0.000106007 -0.000416807)
(-0.0041018 -7.85307e-05 -0.000407055)
(-0.00693552 1.42853e-05 -0.000469854)
(-0.0129911 3.85274e-05 -0.000521487)
(-0.0156052 8.53928e-05 -0.000551666)
(-0.0135482 0.000165804 -0.000727862)
(0.000930351 4.4028e-06 -0.000638508)
(0.000393341 -1.80176e-05 -0.000583541)
(-0.000350875 -7.23467e-05 -0.000489449)
(-0.00182089 -0.000110261 -0.000443697)
(-0.00409518 -6.65977e-05 -0.00046004)
(-0.00748524 -9.94854e-06 -0.000489674)
(-0.0141704 8.07059e-05 -0.000493971)
(-0.0172108 0.000294588 -0.000478005)
(-0.0143963 0.000305913 -0.000699976)
(0.00110316 -1.98496e-05 -0.000605495)
(0.000505299 -4.69128e-05 -0.000585846)
(-0.000321713 -6.92057e-05 -0.000552991)
(-0.00186108 -8.37279e-05 -0.000503662)
(-0.0042349 -4.93747e-05 -0.000504246)
(-0.007751 4.9155e-06 -0.000524809)
(-0.0146092 0.000112406 -0.000496273)
(-0.0179328 0.000285702 -0.000433989)
(-0.0147516 0.000360314 -0.000671761)
(0.000474742 -5.09348e-05 -0.000672472)
(0.000309253 -0.00012127 -0.00059646)
(-6.84828e-05 -0.000108232 -0.000569409)
(-0.00156904 -5.80908e-05 -0.00056292)
(-0.00432362 -4.21326e-05 -0.000591018)
(-0.00752065 5.1006e-05 -0.000629663)
(-0.0138263 0.000132259 -0.000696224)
(-0.0167711 0.000190113 -0.00070168)
(-0.0141611 0.000173585 -0.000738478)
(0.00082276 -1.11964e-05 -0.000705388)
(0.000280142 -7.14376e-05 -0.000677011)
(-0.000516437 -0.000127676 -0.00064396)
(-0.00197535 -8.16979e-05 -0.000609326)
(-0.00439266 -2.69764e-05 -0.000616474)
(-0.00797352 -5.18895e-06 -0.000660247)
(-0.014759 0.00016595 -0.000708369)
(-0.0178573 0.000312127 -0.000649097)
(-0.0147608 0.000225664 -0.000671395)
(0.000885662 -4.33621e-05 -0.000726251)
(0.000448713 -4.97182e-05 -0.000710094)
(-0.000529678 -5.73167e-05 -0.000696343)
(-0.00217857 -6.2894e-05 -0.000680949)
(-0.00444718 -3.82534e-05 -0.000676564)
(-0.00808254 -2.40711e-05 -0.000693398)
(-0.0151575 7.28905e-05 -0.000703013)
(-0.0182561 0.000188057 -0.000597337)
(-0.0149727 0.000170812 -0.000623491)
(0.000635376 -5.36204e-05 -0.000808721)
(0.000585417 -0.000113051 -0.000811783)
(-0.000182759 -0.000115486 -0.000764623)
(0.000882739 -4.00428e-05 -0.000850987)
(0.000387426 -8.49544e-05 -0.000842592)
(0.000851155 -3.70729e-05 -0.000897828)
)
;

boundaryField
{
    inlet
    {
        type            calculated;
        value           nonuniform 0();
    }
    outlet
    {
        type            calculated;
        value           nonuniform List<vector> 9((0.000563938 0.000457143 -0.00201056) (0.00204073 0.00187942 -0.00105491) (0.00753099 0.00269591 -0.00163706) (-0.00112012 -0.000525099 -0.00145366) (-0.00161249 0.000203756 -0.0019339) (-0.00351835 0.000734029 -0.0021033) (-0.00158243 -0.000496202 -0.00143716) (0.000140624 7.43922e-05 -0.0014294) (-0.00115259 -0.000281031 -0.00106668));
    }
    wall
    {
        type            calculated;
        value           nonuniform List<vector> 
57
(
(-0.000495564 -0.000118046 -0.00106566)
(0.00633239 -7.48255e-05 -0.000590394)
(0.00646912 -0.000529488 -0.000453139)
(-0.00340181 -6.81631e-05 -0.00172503)
(-0.0016156 0.000181503 -0.00120251)
(0.00299961 -0.000196701 -0.000840768)
(0.00810567 -0.00026041 -0.000305918)
(0.00421105 -0.000510476 8.42677e-05)
(0.00367635 -0.000360758 4.79484e-05)
(0.00109775 -0.000617309 -9.49288e-05)
(0.0050714 -0.000899242 0.00029597)
(0.0045263 -0.000507272 0.000144874)
(0.000863984 -0.000413721 0.000113426)
(0.00780885 -0.000110428 0.000556813)
(-0.00931105 -0.000488705 -0.000568114)
(0.0149416 0.000164431 0.000726914)
(0.0053704 -0.000506304 6.49246e-05)
(0.00654027 -0.000258999 0.000338713)
(-0.0134923 -0.000253666 5.28592e-05)
(-0.016748 -0.00142089 -0.000243832)
(-0.0176319 -0.000434784 -7.37272e-05)
(-0.015137 0.00097537 -0.000196668)
(-0.0327946 0.00202108 0.00109493)
(-0.0319635 0.0013662 0.00156254)
(0.000303246 0.000653491 -0.00163089)
(-0.00260018 0.00283998 -0.000516432)
(0.0107016 0.00261697 0.000640708)
(0.00645719 -0.000116636 -0.000937805)
(0.00191806 0.000254132 -0.000471302)
(-0.00271893 -0.000167084 -7.3868e-05)
(-0.00143199 6.04323e-05 -0.000651909)
(0.00778914 -8.97294e-06 -0.000189158)
(3.16893e-05 -4.27987e-05 0.000384668)
(0.000264145 -0.000779442 0.000331975)
(0.00826068 -0.000374642 -0.00102625)
(0.0125213 9.55552e-05 0.000690803)
(0.00537882 -0.000139165 0.000178822)
(0.00943583 -0.000155953 7.57794e-05)
(0.0078359 -0.000168198 -0.00064555)
(0.00314752 -0.000165803 0.00041234)
(-0.00100327 -0.00042663 -0.000160934)
(0.0105793 0.000441366 -0.000197398)
(0.00319127 -5.15314e-05 0.000355221)
(-0.00529024 -0.000458106 0.000244809)
(-0.00486758 -5.78081e-05 -0.000708746)
(0.0160934 0.00031748 0.000399695)
(0.00651262 0.000362262 -0.000370668)
(0.00685958 0.000970331 -0.000760603)
(-0.0168355 -0.000502575 0.000342107)
(-0.0229422 -0.000463914 -0.000469714)
(-0.024325 0.000374239 -0.000924119)
(-0.0176865 -7.02926e-05 0.000156293)
(-0.028222 -0.0016808 -6.50772e-05)
(-0.0394805 0.000180839 -0.00120399)
(-0.0036111 0.000821606 -0.0021352)
(-0.00459189 -0.00116758 -0.00101346)
(-0.00709972 -0.00123528 -0.0014996)
)
;
    }
    procBoundary1to0
    {
        type            processor;
        value           nonuniform List<vector> 
12
(
(0.000391978 6.33562e-05 -0.000816697)
(0.00118113 0.000103082 -0.000735076)
(0.00179753 3.0069e-06 -0.00067664)
(0.000892823 1.60363e-05 -0.0008023)
(0.00120459 1.58724e-05 -0.000739915)
(0.00146662 -1.52301e-05 -0.000675243)
(0.000844575 -1.64395e-05 -0.000787336)
(0.00121528 -2.06541e-05 -0.000796094)
(0.00129794 -3.82098e-05 -0.000817736)
(0.00100271 -2.36112e-05 -0.000851841)
(0.00130495 -2.93948e-05 -0.000889448)
(0.00130314 -2.23786e-05 -0.000937434)
)
;
    }
    procBoundary1to3
    {
        type            processor;
        value           nonuniform List<vector> 
27
(
(0.00150569 5.68601e-06 -0.000561629)
(0.000767256 -1.34193e-07 -0.000555855)
(-6.58134e-05 -8.34556e-06 -0.000505994)
(-0.00124485 -6.53364e-05 -0.000406459)
(-0.0033569 -7.90911e-05 -0.00041493)
(-0.00706892 -6.41697e-06 -0.000457199)
(-0.0137385 9.16124e-05 -0.000422558)
(-0.0168133 0.000215755 -0.000335012)
(-0.0134231 0.000205288 -0.000476727)
(0.00106724 9.60949e-06 -0.000623408)
(0.000457303 -3.36342e-05 -0.00059883)
(-0.000409924 -2.96294e-05 -0.000556963)
(-0.00180386 -4.13464e-05 -0.000523685)
(-0.00404126 -4.80874e-05 -0.000534991)
(-0.00772126 -7.56625e-06 -0.000594585)
(-0.0147072 6.24994e-05 -0.000520037)
(-0.0175914 0.000170278 -0.000437343)
(-0.014184 0.00022667 -0.000693172)
(0.00083644 -2.53937e-05 -0.000757972)
(0.000299319 -2.8655e-05 -0.000726924)
(-0.000598754 1.3544e-05 -0.000708785)
(-0.0021188 -1.89205e-05 -0.00072061)
(-0.00439892 -4.04788e-05 -0.000719771)
(-0.0080827 -1.99655e-05 -0.000729385)
(-0.0152545 -1.17694e-05 -0.000740923)
(-0.0181612 4.61201e-05 -0.0006324)
(-0.0148116 7.81667e-05 -0.000653892)
)
;
    }
    procBoundary1to5
    {
        type            processor;
        value           nonuniform List<vector> 
32
(
(-0.00188603 -0.000111444 -0.000721949)
(-0.00412569 -7.87843e-05 -0.000711601)
(-0.00776409 -2.95476e-05 -0.000758762)
(-0.0133123 0.000121775 -0.000815159)
(-0.0162281 0.00024802 -0.000762283)
(-0.0139673 0.000211406 -0.000649619)
(-0.000515363 -0.000103104 -0.000794962)
(-0.00211787 -9.10591e-05 -0.000787921)
(-0.00445301 -6.243e-05 -0.000782948)
(-0.00808782 -4.71561e-05 -0.000810989)
(-0.014782 0.000144156 -0.000866386)
(-0.0177432 0.000279657 -0.000754929)
(-0.0145657 0.000193255 -0.000643047)
(0.000333373 -3.80469e-05 -0.00085785)
(-0.000635477 -3.91912e-05 -0.000809432)
(-0.0021913 -5.02898e-05 -0.000829783)
(-0.00452755 -4.99251e-05 -0.000829397)
(-0.00820649 -3.31134e-05 -0.000824217)
(-0.0152225 6.22245e-05 -0.000851994)
(-0.0182443 0.000153567 -0.0007266)
(-0.0146687 0.000112338 -0.000618527)
(0.000729747 -6.79714e-05 -0.000939366)
(0.000544387 -0.000111708 -0.000945478)
(-0.00188603 -0.000111444 -0.000721949)
(-0.000515363 -0.000103104 -0.000794962)
(-0.000367093 -0.000103705 -0.000908844)
(0.000892711 -3.66338e-05 -0.000973929)
(-0.000515363 -0.000103104 -0.000794962)
(0.000333373 -3.80469e-05 -0.00085785)
(0.00042862 -9.0681e-05 -0.000955749)
(0.000333373 -3.80469e-05 -0.00085785)
(0.000887126 -3.02907e-05 -0.000998011)
)
;
    }
    procBoundary1to7
    {
        type            processor;
        value           uniform (0.000794619 -5.60906e-07 -0.000908689);
    }
}


// ************************************************************************* //
