/*--------------------------------*- C++ -*----------------------------------*\
| =========                 |                                                 |
| \\      /  F ield         | OpenFOAM: The Open Source CFD Toolbox           |
|  \\    /   O peration     | Version:  4.x                                   |
|   \\  /    A nd           | Web:      www.OpenFOAM.org                      |
|    \\/     M anipulation  |                                                 |
\*---------------------------------------------------------------------------*/
FoamFile
{
    version     2.0;
    format      ascii;
    class       volScalarField;
    location    "2";
    object      Deff;
}
// * * * * * * * * * * * * * * * * * * * * * * * * * * * * * * * * * * * * * //

dimensions      [0 2 -1 0 0 0 0];

internalField   nonuniform List<scalar> 
87
(
9.9456e-08
9.92473e-08
9.92442e-08
9.90891e-08
9.90961e-08
9.88833e-08
9.87872e-08
9.87924e-08
9.88738e-08
9.93616e-08
9.92994e-08
9.91645e-08
9.90479e-08
9.90076e-08
9.8841e-08
9.86688e-08
9.87769e-08
9.89074e-08
9.92123e-08
9.91057e-08
9.90752e-08
9.8834e-08
9.88559e-08
9.88394e-08
9.8721e-08
9.87214e-08
9.88209e-08
9.89318e-08
9.89007e-08
9.88374e-08
9.86618e-08
9.86169e-08
9.84495e-08
9.82945e-08
9.83879e-08
9.85288e-08
9.87951e-08
9.88307e-08
9.87358e-08
9.85883e-08
9.85246e-08
9.84477e-08
9.82882e-08
9.83302e-08
9.8542e-08
9.86409e-08
9.86586e-08
9.86291e-08
9.85123e-08
9.8486e-08
9.8347e-08
9.82292e-08
9.81791e-08
9.84672e-08
9.85322e-08
9.84937e-08
9.83228e-08
9.82175e-08
9.82179e-08
9.80344e-08
9.80497e-08
9.81751e-08
9.83528e-08
9.83871e-08
9.8356e-08
9.83591e-08
9.82466e-08
9.81587e-08
9.80452e-08
9.80233e-08
9.80596e-08
9.8299e-08
9.82836e-08
9.8271e-08
9.82772e-08
9.80424e-08
9.80154e-08
9.7938e-08
9.79484e-08
9.79657e-08
9.82281e-08
9.82838e-08
9.82346e-08
9.8027e-08
9.81425e-08
9.79594e-08
9.80898e-08
)
;

boundaryField
{
    inlet
    {
        type            calculated;
        value           nonuniform 0();
    }
    outlet
    {
        type            calculated;
        value           uniform 0;
    }
    wall
    {
        type            calculated;
        value           uniform 0;
    }
    procBoundary1to0
    {
        type            processor;
        value           uniform 0;
    }
    procBoundary1to3
    {
        type            processor;
        value           uniform 0;
    }
    procBoundary1to5
    {
        type            processor;
        value           uniform 0;
    }
    procBoundary1to7
    {
        type            processor;
        value           uniform 0;
    }
}


// ************************************************************************* //
