/*--------------------------------*- C++ -*----------------------------------*\
| =========                 |                                                 |
| \\      /  F ield         | OpenFOAM: The Open Source CFD Toolbox           |
|  \\    /   O peration     | Version:  4.x                                   |
|   \\  /    A nd           | Web:      www.OpenFOAM.org                      |
|    \\/     M anipulation  |                                                 |
\*---------------------------------------------------------------------------*/
FoamFile
{
    version     2.0;
    format      ascii;
    class       volScalarField;
    location    "2";
    object      magGField;
}
// * * * * * * * * * * * * * * * * * * * * * * * * * * * * * * * * * * * * * //

dimensions      [1 -2 -1 0 0 0 0];

internalField   nonuniform List<scalar> 
87
(
75.3947
147.09
113.537
181.934
155.925
202.224
120.576
77.6861
73.0075
20.9771
91.4753
18.6724
78.454
19.2438
23.6831
66.9853
50.6524
80.7695
9.37279
52.0461
28.0695
28.9749
63.2735
13.8921
89.147
44.4925
85.0324
54.5061
128.429
72.0592
147.613
101.684
170.256
124.116
151.765
134.331
12.3496
75.5056
17.8793
70.0479
15.8193
49.1653
47.7237
40.6785
31.7245
4.63845
49.7009
23.3081
35.4476
43.0167
24.2845
58.4909
11.3239
66.183
78.752
137.647
84.518
148.448
100.914
172.366
141.752
227.362
165.407
10.4129
83.3192
16.9036
78.8548
14.4786
79.0256
38.6021
125.245
115.105
1.03914
59.8272
1.8846
50.447
26.2166
46.0811
52.7595
49.7288
84.8602
103.079
159.428
114.587
0.428388
85.5936
0.77215
)
;

boundaryField
{
    inlet
    {
        type            calculated;
        value           nonuniform 0();
    }
    outlet
    {
        type            calculated;
        value           nonuniform List<scalar> 9(151.299 167.101 176.711 283.434 66.8927 140.139 351.627 245.874 182.037);
    }
    wall
    {
        type            calculated;
        value           uniform 0;
    }
    procBoundary1to0
    {
        type            processor;
        value           nonuniform List<scalar> 
12
(
133.699
91.0872
59.3483
125.051
77.7755
55.5441
136.25
85.3958
64.152
152.515
85.4142
68.2807
)
;
    }
    procBoundary1to3
    {
        type            processor;
        value           nonuniform List<scalar> 
27
(
1.34817
58.1043
16.3962
24.4036
51.5012
11.4342
67.5715
17.7625
69.327
0.725019
60.7499
5.02227
28.3093
33.254
9.11729
52.4871
10.0311
46.7329
3.23756
86.7186
4.16484
86.5064
10.2593
63.6898
12.894
29.3309
27.3069
)
;
    }
    procBoundary1to5
    {
        type            processor;
        value           nonuniform List<scalar> 
32
(
172.834
129.186
204.248
149.358
304.771
160.927
0.626256
85.5268
9.55919
96.719
18.58
141.008
171.381
72.3816
0.426535
72.397
11.9957
72.4168
28.7999
87.7703
60.7789
107.757
161.205
172.834
0.626256
124.208
0.280009
0.626256
72.3816
78.5982
72.3816
0.803011
)
;
    }
    procBoundary1to7
    {
        type            processor;
        value           uniform 12.9134;
    }
}


// ************************************************************************* //
