/*--------------------------------*- C++ -*----------------------------------*\
| =========                 |                                                 |
| \\      /  F ield         | OpenFOAM: The Open Source CFD Toolbox           |
|  \\    /   O peration     | Version:  4.x                                   |
|   \\  /    A nd           | Web:      www.OpenFOAM.org                      |
|    \\/     M anipulation  |                                                 |
\*---------------------------------------------------------------------------*/
FoamFile
{
    version     2.0;
    format      ascii;
    class       volScalarField;
    location    "2";
    object      pSmooth;
}
// * * * * * * * * * * * * * * * * * * * * * * * * * * * * * * * * * * * * * //

dimensions      [1 -1 -2 0 0 0 0];

internalField   nonuniform List<scalar> 
87
(
314.217
346.89
189.804
252.349
67.1261
179.091
0.1
108.265
0.1
311.216
342.93
183.745
246.754
57.0926
163.984
0.1
95.4385
0.1
321.885
355.618
198.385
261.578
66.8418
169.584
0.1
102.658
0.1
311.346
343.499
182.259
245.044
59.0715
168.267
0.1
110.836
0.1
310.907
344.38
183.429
245.299
54.1651
158.785
0.1
97.2958
0.1
322.21
354.376
193.341
259.087
65.6917
168.693
0.1
105.092
0.1
307.394
341.647
182.863
247.137
57.8579
168.877
0.1
118.201
0.1
307.501
342.249
177.475
244.613
51.2786
160.625
0.1
94.7499
0.1
319.385
351.725
194.26
258.494
61.7652
170.327
0.1
110.236
0.165984
302.5
337.52
174.207
303.587
341.169
313.745
)
;

boundaryField
{
    inlet
    {
        type            zeroGradient;
    }
    outlet
    {
        type            fixedValue;
        value           uniform 0;
    }
    wall
    {
        type            zeroGradient;
    }
    procBoundary1to0
    {
        type            processor;
        value           nonuniform List<scalar> 
12
(
443.781
443.852
449.681
442.279
442.509
447.281
437.04
438.985
443.494
434.291
435.804
440.736
)
;
    }
    procBoundary1to3
    {
        type            processor;
        value           nonuniform List<scalar> 
27
(
321.336
354.005
193.899
256.674
63.3347
162.321
0.1
91.942
0.1
321.007
353.867
193.489
256.385
65.3713
160.295
0.1
93.4842
0.1
310.631
347.485
184.01
247.439
59.876
162.937
0.1
99.5999
0.1
)
;
    }
    procBoundary1to5
    {
        type            processor;
        value           nonuniform List<scalar> 
32
(
247.146
51.2631
171.077
0.1
132.035
0.1
171.508
241.932
44.2733
156.954
0.1
97.6977
0.1
348.43
185.078
255.529
58.761
172.376
0.1
112.308
0.1
302.927
338.42
247.146
171.508
178.627
301.834
171.508
348.43
341.003
348.43
315.331
)
;
    }
    procBoundary1to7
    {
        type            processor;
        value           uniform 303.347;
    }
}


// ************************************************************************* //
