/*--------------------------------*- C++ -*----------------------------------*\
| =========                 |                                                 |
| \\      /  F ield         | OpenFOAM: The Open Source CFD Toolbox           |
|  \\    /   O peration     | Version:  4.x                                   |
|   \\  /    A nd           | Web:      www.OpenFOAM.org                      |
|    \\/     M anipulation  |                                                 |
\*---------------------------------------------------------------------------*/
FoamFile
{
    version     2.0;
    format      ascii;
    class       volScalarField;
    location    "2";
    object      QPartFluidCoeff;
}
// * * * * * * * * * * * * * * * * * * * * * * * * * * * * * * * * * * * * * //

dimensions      [1 -1 -3 -1 0 0 0];

internalField   nonuniform List<scalar> 
87
(
-1.31019e+07
-2.29549e+07
-1.36753e+07
-2.24433e+07
-1.38159e+07
-1.81335e+07
-1.73691e+07
-1.61804e+07
-1.31796e+07
-1.17251e+07
-1.22082e+07
-1.41608e+07
-1.51602e+07
-1.07044e+07
-1.43221e+07
-2.14804e+07
-1.48178e+07
-1.36013e+07
-9.50739e+06
-1.60562e+07
-8.28257e+06
-1.81225e+07
-1.49785e+07
-1.17348e+07
-1.83389e+07
-1.598e+07
-1.42385e+07
-2.29356e+07
-2.15441e+07
-1.94261e+07
-2.76791e+07
-2.31222e+07
-2.76478e+07
-3.35207e+07
-2.93833e+07
-2.37648e+07
-2.66232e+07
-2.04552e+07
-2.14754e+07
-2.75589e+07
-2.31966e+07
-1.9752e+07
-2.59059e+07
-2.64517e+07
-1.62808e+07
-2.44033e+07
-2.12808e+07
-1.54496e+07
-1.6512e+07
-1.41799e+07
-1.91e+07
-2.55466e+07
-2.82715e+07
-1.43672e+07
-2.53108e+07
-2.50175e+07
-2.98843e+07
-3.48737e+07
-2.40457e+07
-3.73282e+07
-3.42007e+07
-3.18694e+07
-1.41039e+07
-2.8494e+07
-2.83174e+07
-2.02041e+07
-2.4886e+07
-2.44691e+07
-3.00243e+07
-2.61337e+07
-3.13763e+07
-1.60288e+07
-2.40404e+07
-2.24576e+07
-1.54809e+07
-3.08137e+07
-2.17698e+07
-2.69782e+07
-1.93585e+07
-2.53861e+07
-1.16822e+07
-2.5212e+07
-2.14602e+07
-3.23221e+07
-2.67812e+07
-4.12615e+07
-1.81468e+07
)
;

boundaryField
{
    inlet
    {
        type            calculated;
        value           nonuniform 0();
    }
    outlet
    {
        type            calculated;
        value           uniform 0;
    }
    wall
    {
        type            calculated;
        value           uniform 0;
    }
    procBoundary1to0
    {
        type            processor;
        value           nonuniform List<scalar> 
12
(
143.915
353.275
516.55
543.129
581.88
394.573
426.321
557.104
357.852
510.65
501.46
657.405
)
;
    }
    procBoundary1to3
    {
        type            processor;
        value           nonuniform List<scalar> 
27
(
314.729
206.951
285.589
137.045
282.099
183.467
357.607
221.182
244.961
472.892
509.862
536.724
512.652
442.588
360.651
389.217
372.506
519.339
553.261
744.758
573.511
696.372
357.849
433.71
533.342
441.87
453.826
)
;
    }
    procBoundary1to5
    {
        type            processor;
        value           nonuniform List<scalar> 
32
(
725.566
736.128
727.722
684.673
952.773
756.152
567.11
558.378
470.853
670.279
705.011
957.445
696.852
696.25
421.055
597.263
410.661
361.574
460.357
478.659
551.922
582.859
503.539
725.566
567.11
723.603
627.433
567.11
696.25
625.447
696.25
588.523
)
;
    }
    procBoundary1to7
    {
        type            processor;
        value           uniform 678.435;
    }
}


// ************************************************************************* //
