/*--------------------------------*- C++ -*----------------------------------*\
| =========                 |                                                 |
| \\      /  F ield         | OpenFOAM: The Open Source CFD Toolbox           |
|  \\    /   O peration     | Version:  4.x                                   |
|   \\  /    A nd           | Web:      www.OpenFOAM.org                      |
|    \\/     M anipulation  |                                                 |
\*---------------------------------------------------------------------------*/
FoamFile
{
    version     2.0;
    format      ascii;
    class       volScalarField;
    location    "2";
    object      QWallFluid;
}
// * * * * * * * * * * * * * * * * * * * * * * * * * * * * * * * * * * * * * //

dimensions      [1 -1 -3 0 0 0 0];

internalField   nonuniform List<scalar> 
87
(
1.36057e+09
2.32229e+09
1.88782e+09
2.75284e+09
2.43322e+09
2.99581e+09
1.98087e+09
1.39355e+09
1.326e+09
2.44464e+08
7.94075e+08
2.2273e+08
7.02281e+08
2.28167e+08
2.69383e+08
6.18874e+08
4.94879e+08
7.18814e+08
1.28326e+08
5.05742e+08
3.08608e+08
3.16545e+08
5.91284e+08
1.75805e+08
7.77865e+08
4.46116e+08
7.49007e+08
5.24777e+08
1.04172e+09
6.561e+08
1.16445e+09
8.64215e+08
1.30527e+09
1.01363e+09
1.19057e+09
1.07984e+09
0
0
0
0
0
0
0
0
0
0
0
0
0
0
0
0
0
0
7.04414e+08
1.10111e+09
7.4538e+08
1.16971e+09
8.58971e+08
1.31819e+09
1.12731e+09
1.6451e+09
1.27544e+09
0
0
0
0
0
0
0
0
0
0
0
0
0
0
0
0
0
0
8.73686e+08
1.23843e+09
9.50886e+08
0
0
0
)
;

boundaryField
{
    inlet
    {
        type            calculated;
        value           nonuniform 0();
    }
    outlet
    {
        type            calculated;
        value           uniform 0;
    }
    wall
    {
        type            calculated;
        value           uniform 0;
    }
    procBoundary1to0
    {
        type            processor;
        value           nonuniform List<scalar> 
12
(
0
7.91379e+08
5.61753e+08
1.01973e+09
0
0
1.09216e+09
0
0
1.19528e+09
0
0
)
;
    }
    procBoundary1to3
    {
        type            processor;
        value           nonuniform List<scalar> 
27
(
2.72028e+07
5.52313e+08
2.0073e+08
2.75919e+08
5.01502e+08
1.50447e+08
6.23203e+08
2.14004e+08
6.36122e+08
0
0
0
0
0
0
0
0
0
0
0
0
0
0
0
0
0
0
)
;
    }
    procBoundary1to5
    {
        type            processor;
        value           nonuniform List<scalar> 
32
(
1.32106e+09
1.04662e+09
1.50989e+09
1.17545e+09
2.07969e+09
1.24773e+09
0
0
0
0
0
0
0
0
0
0
0
0
0
0
0
9.05262e+08
1.24946e+09
1.32106e+09
0
1.01424e+09
0
0
0
0
0
0
)
;
    }
    procBoundary1to7
    {
        type            processor;
        value           uniform 0;
    }
}


// ************************************************************************* //
