/*--------------------------------*- C++ -*----------------------------------*\
| =========                 |                                                 |
| \\      /  F ield         | OpenFOAM: The Open Source CFD Toolbox           |
|  \\    /   O peration     | Version:  4.x                                   |
|   \\  /    A nd           | Web:      www.OpenFOAM.org                      |
|    \\/     M anipulation  |                                                 |
\*---------------------------------------------------------------------------*/
FoamFile
{
    version     2.0;
    format      ascii;
    class       volScalarField;
    location    "2";
    object      T;
}
// * * * * * * * * * * * * * * * * * * * * * * * * * * * * * * * * * * * * * //

dimensions      [0 0 0 1 0 0 0];

internalField   nonuniform List<scalar> 
87
(
300.003
300.002
300.002
300.002
300.001
299.998
299.996
299.992
299.991
300.005
300.005
300.004
300.001
299.998
299.994
299.991
299.988
299.988
300.006
300.005
300.003
300
299.995
299.992
299.988
299.986
299.986
300.004
300.003
300.003
300.002
300
299.997
299.994
299.99
299.99
300.004
300.005
300.004
300.002
299.998
299.993
299.989
299.985
299.981
300.005
300.006
300.005
300.001
299.995
299.991
299.986
299.981
299.978
300.003
300.003
300.003
300.002
300
299.997
299.994
299.991
299.988
300.004
300.005
300.005
300.003
299.999
299.995
299.988
299.984
299.977
300.005
300.006
300.006
300.003
299.998
299.991
299.983
299.979
299.973
300.002
300.002
300.003
300.003
300.004
300.004
)
;

boundaryField
{
    inlet
    {
        type            fixedValue;
        value           nonuniform 0();
    }
    outlet
    {
        type            zeroGradient;
    }
    wall
    {
        type            zeroGradient;
    }
    procBoundary1to0
    {
        type            processor;
        value           nonuniform List<scalar> 
12
(
300.003
300.004
300.004
300.002
300.004
300.005
300.001
300.002
300.003
300
300.001
300.001
)
;
    }
    procBoundary1to3
    {
        type            processor;
        value           nonuniform List<scalar> 
27
(
300.006
300.006
300.003
300.001
299.997
299.991
299.987
299.983
299.983
300.006
300.006
300.005
300
299.997
299.99
299.983
299.978
299.978
300.005
300.006
300.006
300.003
299.998
299.991
299.984
299.976
299.973
)
;
    }
    procBoundary1to5
    {
        type            processor;
        value           nonuniform List<scalar> 
32
(
300.002
300.001
299.999
299.996
299.993
299.989
300.004
300.003
300.001
299.996
299.991
299.986
299.98
300.005
300.005
300.003
300
299.994
299.987
299.98
299.974
300.001
300.001
300.002
300.004
300.002
300.001
300.004
300.005
300.003
300.005
300.002
)
;
    }
    procBoundary1to7
    {
        type            processor;
        value           uniform 300.003;
    }
}


// ************************************************************************* //
