/*--------------------------------*- C++ -*----------------------------------*\
| =========                 |                                                 |
| \\      /  F ield         | OpenFOAM: The Open Source CFD Toolbox           |
|  \\    /   O peration     | Version:  4.x                                   |
|   \\  /    A nd           | Web:      www.OpenFOAM.org                      |
|    \\/     M anipulation  |                                                 |
\*---------------------------------------------------------------------------*/
FoamFile
{
    version     2.0;
    format      ascii;
    class       volScalarField;
    location    "2";
    object      thCond;
}
// * * * * * * * * * * * * * * * * * * * * * * * * * * * * * * * * * * * * * //

dimensions      [1 1 -3 -1 0 0 0];

internalField   nonuniform List<scalar> 
87
(
193.062
192.657
192.651
192.349
192.363
191.95
191.763
191.773
191.931
192.878
192.758
192.496
192.269
192.191
191.868
191.534
191.743
191.997
192.589
192.382
192.322
191.854
191.897
191.865
191.635
191.636
191.829
192.044
191.984
191.861
191.52
191.433
191.108
190.807
190.988
191.262
191.779
191.848
191.664
191.377
191.254
191.104
190.795
190.876
191.287
191.479
191.514
191.456
191.23
191.179
190.909
190.68
190.583
191.142
191.268
191.194
190.862
190.657
190.658
190.302
190.332
190.575
190.92
190.987
190.926
190.932
190.714
190.543
190.323
190.281
190.351
190.816
190.786
190.761
190.773
190.318
190.265
190.115
190.135
190.169
190.678
190.786
190.691
190.288
190.512
190.156
190.41
)
;

boundaryField
{
    inlet
    {
        type            zeroGradient;
    }
    outlet
    {
        type            zeroGradient;
    }
    wall
    {
        type            zeroGradient;
    }
    procBoundary1to0
    {
        type            processor;
        value           nonuniform List<scalar> 
12
(
193.415
192.898
192.441
192.22
191.909
191.797
191.62
191.278
191.225
191.089
190.832
190.582
)
;
    }
    procBoundary1to3
    {
        type            processor;
        value           nonuniform List<scalar> 
27
(
192.37
192.269
191.978
192.12
191.994
192.018
191.703
191.675
191.618
191.328
191.25
190.932
190.894
190.96
190.984
190.818
190.741
190.589
190.562
190.373
190.303
190.176
190.303
190.212
189.93
190.076
190.088
)
;
    }
    procBoundary1to5
    {
        type            processor;
        value           nonuniform List<scalar> 
32
(
190.243
190.041
190.021
189.933
189.894
189.905
190.265
190.272
190.134
189.955
189.757
189.711
189.838
190.133
190.217
189.992
189.982
189.964
189.752
189.833
189.707
190.404
190.434
190.243
190.265
190.106
190.184
190.265
190.133
190.105
190.133
190.018
)
;
    }
    procBoundary1to7
    {
        type            processor;
        value           uniform 190.04;
    }
}


// ************************************************************************* //
