/*--------------------------------*- C++ -*----------------------------------*\
| =========                 |                                                 |
| \\      /  F ield         | OpenFOAM: The Open Source CFD Toolbox           |
|  \\    /   O peration     | Version:  4.x                                   |
|   \\  /    A nd           | Web:      www.OpenFOAM.org                      |
|    \\/     M anipulation  |                                                 |
\*---------------------------------------------------------------------------*/
FoamFile
{
    version     2.0;
    format      ascii;
    class       volVectorField;
    location    "2";
    object      UsPrev;
}
// * * * * * * * * * * * * * * * * * * * * * * * * * * * * * * * * * * * * * //

dimensions      [0 1 -1 0 0 0 0];

internalField   nonuniform List<vector> 
87
(
(6.53443e-05 -6.49504e-05 -6.83975e-05)
(2.63376e-05 -6.07595e-05 -6.75492e-05)
(0.000111602 -6.62913e-05 -6.58345e-05)
(0.000101473 -4.43281e-05 -9.07874e-05)
(6.53706e-05 -4.37039e-05 -8.35663e-05)
(5.83089e-05 -3.22113e-05 -4.49754e-05)
(5.61744e-05 -2.34932e-05 -1.77945e-05)
(6.14494e-05 -5.01527e-05 -8.29002e-06)
(2.1385e-05 -2.07314e-05 4.57238e-06)
(0.00016593 -9.06851e-05 -0.000126618)
(0.000179225 -0.000101055 -0.000129902)
(0.000187455 -8.37312e-05 -0.000128012)
(0.000216282 -9.66477e-05 -0.00012127)
(0.000232293 -0.000135159 -5.64142e-05)
(0.000189794 -4.54165e-05 -0.000149826)
(0.000134092 -5.75892e-05 -6.22418e-05)
(8.26616e-05 -4.96006e-05 -2.47812e-05)
(4.70692e-05 -3.04997e-05 -1.82481e-06)
(0.000237321 -6.79824e-05 -0.000178589)
(0.00026349 -0.000102706 -0.000180822)
(0.00033245 -0.000160627 -0.000172861)
(0.000297444 -0.000129829 -0.000171974)
(0.000279426 -9.35169e-05 -0.000136747)
(0.000246113 -5.37342e-05 -0.000125061)
(0.000209503 -3.18669e-05 -0.000123804)
(0.000106055 -6.19809e-05 -5.53061e-05)
(5.07598e-05 -3.07702e-05 -2.01667e-05)
(8.45545e-05 -4.12779e-05 -5.94799e-05)
(8.74021e-05 -3.23218e-05 -6.85003e-05)
(9.19195e-05 -3.61656e-05 -5.96746e-05)
(8.13525e-05 -2.8929e-05 -4.27894e-05)
(5.8781e-05 -1.73147e-05 -8.41851e-06)
(3.3257e-05 -2.67328e-06 -1.74074e-05)
(3.8283e-05 -1.19717e-05 -1.94676e-05)
(2.70632e-05 -1.49289e-05 -2.67959e-06)
(1.70033e-05 -1.37064e-05 2.93282e-06)
(0.000149589 -5.34749e-05 -0.00010702)
(0.000159052 -6.34541e-05 -0.000120405)
(0.000169794 -6.13294e-05 -0.000119874)
(0.00018279 -7.27738e-05 -0.000108717)
(0.000174061 -8.09281e-05 -6.6569e-05)
(0.000127125 -4.119e-05 -8.375e-05)
(0.000108782 -2.54198e-05 -6.43208e-05)
(6.00149e-05 -2.39696e-05 -1.62031e-05)
(2.70373e-05 -1.3526e-05 -3.98566e-06)
(0.000215721 -4.14453e-05 -0.000163839)
(0.000226284 -6.95292e-05 -0.000170053)
(0.000248415 -6.01913e-05 -0.000178146)
(0.000231223 -7.30373e-05 -0.000143112)
(0.000226407 -7.49491e-05 -0.000132483)
(0.000188984 -5.6686e-05 -0.000102184)
(0.000145933 -2.25694e-05 -9.76037e-05)
(9.77305e-05 -2.0803e-05 -3.19413e-05)
(3.38871e-05 -1.58643e-05 -2.02267e-05)
(6.38362e-05 -9.12693e-06 -3.84161e-05)
(7.48714e-05 -1.34612e-05 -4.84538e-05)
(6.62695e-05 -1.75508e-05 -4.56805e-05)
(5.27269e-05 -1.70546e-05 -2.66723e-05)
(4.6323e-05 -2.14551e-05 -2.2363e-05)
(4.26185e-05 -2.04148e-05 -2.28827e-05)
(2.92484e-05 -4.56676e-06 -1.60112e-05)
(2.03518e-05 -9.02764e-06 -3.97253e-06)
(1.15818e-05 -1.15461e-05 1.41777e-06)
(0.000148513 -2.04969e-05 -9.46249e-05)
(0.000132044 -2.95418e-05 -9.8195e-05)
(0.000129348 -3.94934e-05 -9.12753e-05)
(0.000115922 -4.52781e-05 -7.88248e-05)
(9.66561e-05 -5.04953e-05 -5.2681e-05)
(7.9305e-05 -2.86043e-05 -5.21377e-05)
(5.47611e-05 -1.08786e-05 -3.73441e-05)
(4.01963e-05 -1.42716e-05 -1.4014e-05)
(1.93714e-05 -1.05786e-05 -2.2411e-06)
(0.000187708 -2.56022e-05 -0.000123922)
(0.000179039 -3.75702e-05 -0.00013126)
(0.000168866 -5.11946e-05 -0.000124789)
(0.000154227 -4.74014e-05 -0.000117461)
(0.000150219 -5.42713e-05 -9.97859e-05)
(0.000117073 -4.48268e-05 -7.76503e-05)
(7.44964e-05 -1.31896e-05 -4.92269e-05)
(5.14686e-05 -1.42642e-05 -2.32679e-05)
(3.0528e-05 -1.00162e-05 -9.4787e-06)
(6.12612e-05 2.57174e-06 -3.4244e-05)
(3.96028e-05 3.7842e-06 -3.01876e-05)
(4.36038e-05 -6.13515e-06 -2.86715e-05)
(0.000122366 -6.84623e-06 -6.22139e-05)
(0.000110769 -1.12898e-05 -8.54428e-05)
(0.000162085 -4.44486e-06 -8.90605e-05)
)
;

boundaryField
{
    inlet
    {
        type            calculated;
        value           nonuniform 0();
    }
    outlet
    {
        type            calculated;
        value           uniform (0 0 0);
    }
    wall
    {
        type            calculated;
        value           uniform (0 0 0);
    }
    procBoundary1to0
    {
        type            processor;
        value           uniform (0 0 0);
    }
    procBoundary1to3
    {
        type            processor;
        value           uniform (0 0 0);
    }
    procBoundary1to5
    {
        type            processor;
        value           uniform (0 0 0);
    }
    procBoundary1to7
    {
        type            processor;
        value           uniform (0 0 0);
    }
}


// ************************************************************************* //
