/*--------------------------------*- C++ -*----------------------------------*\
| =========                 |                                                 |
| \\      /  F ield         | OpenFOAM: The Open Source CFD Toolbox           |
|  \\    /   O peration     | Version:  4.x                                   |
|   \\  /    A nd           | Web:      www.OpenFOAM.org                      |
|    \\/     M anipulation  |                                                 |
\*---------------------------------------------------------------------------*/
FoamFile
{
    version     2.0;
    format      ascii;
    class       volScalarField;
    location    "5";
    object      Deff;
}
// * * * * * * * * * * * * * * * * * * * * * * * * * * * * * * * * * * * * * //

dimensions      [0 2 -1 0 0 0 0];

internalField   nonuniform List<scalar> 
108
(
9.88299e-08
9.86009e-08
9.84363e-08
9.84204e-08
9.8361e-08
9.83283e-08
9.82174e-08
9.81579e-08
9.79781e-08
9.86142e-08
9.85102e-08
9.83485e-08
9.82031e-08
9.81696e-08
9.81722e-08
9.81569e-08
9.81199e-08
9.79318e-08
9.85764e-08
9.83766e-08
9.82874e-08
9.81172e-08
9.81055e-08
9.81176e-08
9.80603e-08
9.79361e-08
9.80089e-08
9.85999e-08
9.84303e-08
9.82431e-08
9.81756e-08
9.80479e-08
9.80374e-08
9.78792e-08
9.80164e-08
9.80153e-08
9.88007e-08
9.86445e-08
9.8425e-08
9.8273e-08
9.82509e-08
9.82755e-08
9.82466e-08
9.80281e-08
9.78933e-08
9.86777e-08
9.84918e-08
9.83717e-08
9.82386e-08
9.82037e-08
9.81564e-08
9.80879e-08
9.79547e-08
9.78685e-08
9.8637e-08
9.8399e-08
9.82053e-08
9.80906e-08
9.80385e-08
9.80094e-08
9.79825e-08
9.79356e-08
9.7916e-08
9.8441e-08
9.83129e-08
9.82171e-08
9.79969e-08
9.79151e-08
9.79414e-08
9.78187e-08
9.78961e-08
9.79336e-08
9.88004e-08
9.85792e-08
9.85616e-08
9.83362e-08
9.82662e-08
9.80819e-08
9.80977e-08
9.80133e-08
9.79829e-08
9.86729e-08
9.8375e-08
9.83965e-08
9.83102e-08
9.8209e-08
9.80715e-08
9.80686e-08
9.80272e-08
9.79235e-08
9.85913e-08
9.8327e-08
9.82086e-08
9.81182e-08
9.81171e-08
9.80067e-08
9.8011e-08
9.79464e-08
9.79581e-08
9.83871e-08
9.83112e-08
9.82401e-08
9.80181e-08
9.79551e-08
9.78466e-08
9.80203e-08
9.80356e-08
9.7992e-08
)
;

boundaryField
{
    inlet
    {
        type            calculated;
        value           uniform 0;
    }
    outlet
    {
        type            calculated;
        value           nonuniform 0();
    }
    wall
    {
        type            calculated;
        value           uniform 0;
    }
    procBoundary4to0
    {
        type            processor;
        value           uniform 0;
    }
    procBoundary4to5
    {
        type            processor;
        value           uniform 0;
    }
    procBoundary4to6
    {
        type            processor;
        value           uniform 0;
    }
}


// ************************************************************************* //
