/*--------------------------------*- C++ -*----------------------------------*\
| =========                 |                                                 |
| \\      /  F ield         | OpenFOAM: The Open Source CFD Toolbox           |
|  \\    /   O peration     | Version:  4.x                                   |
|   \\  /    A nd           | Web:      www.OpenFOAM.org                      |
|    \\/     M anipulation  |                                                 |
\*---------------------------------------------------------------------------*/
FoamFile
{
    version     2.0;
    format      ascii;
    class       volScalarField;
    location    "5";
    object      SPartFluid;
}
// * * * * * * * * * * * * * * * * * * * * * * * * * * * * * * * * * * * * * //

dimensions      [1 -3 -1 0 0 0 0];

internalField   nonuniform List<scalar> 
108
(
5.19198e-65
7.3608e-65
7.51469e-65
5.5771e-65
5.96377e-65
5.65386e-65
7.59048e-65
6.73898e-65
8.90926e-65
7.74897e-65
6.35317e-65
7.28119e-65
8.51934e-65
8.20844e-65
7.51136e-65
6.35013e-65
5.42132e-65
9.06284e-65
6.97386e-65
8.75449e-65
6.42883e-65
8.51858e-65
6.96866e-65
5.96188e-65
6.11708e-65
9.68005e-65
5.65409e-65
4.33924e-65
5.73296e-65
7.59042e-65
5.18829e-65
7.35551e-65
6.03902e-65
9.52378e-65
5.96275e-65
5.96362e-65
5.34701e-65
5.11392e-65
7.05012e-65
7.66899e-65
6.97152e-65
5.26716e-65
4.41529e-65
7.04934e-65
8.21243e-65
5.65675e-65
6.50831e-65
5.96488e-65
6.58357e-65
5.88615e-65
6.04076e-65
6.66061e-65
7.90035e-65
8.134e-65
4.41703e-65
6.2756e-65
7.82358e-65
7.20282e-65
7.35677e-65
7.27901e-65
6.65977e-65
6.66041e-65
6.81638e-65
6.66409e-65
7.20523e-65
5.96409e-65
8.51919e-65
8.75026e-65
6.42706e-65
9.60198e-65
7.89932e-65
6.81619e-65
4.95976e-65
6.66378e-65
4.41635e-65
6.73997e-65
5.73279e-65
8.05637e-65
6.585e-65
6.895e-65
7.20577e-65
5.34712e-65
8.75573e-65
5.81032e-65
5.49992e-65
6.19675e-65
7.20349e-65
6.35177e-65
5.65488e-65
7.59221e-65
5.03714e-65
7.43813e-65
7.43684e-65
7.12598e-65
5.49926e-65
6.66036e-65
6.42853e-65
7.51325e-65
6.27488e-65
7.74921e-65
7.05081e-65
5.81028e-65
7.82276e-65
7.12525e-65
9.21586e-65
4.49203e-65
4.87971e-65
6.35198e-65
)
;

boundaryField
{
    inlet
    {
        type            calculated;
        value           uniform 0;
    }
    outlet
    {
        type            calculated;
        value           nonuniform 0();
    }
    wall
    {
        type            calculated;
        value           uniform 0;
    }
    procBoundary4to0
    {
        type            processor;
        value           nonuniform List<scalar> 
36
(
4.57221e-65
4.88106e-65
5.73266e-65
5.34428e-65
6.11852e-65
7.74479e-65
4.80206e-65
4.10538e-65
4.95797e-65
5.50182e-65
8.13495e-65
7.28127e-65
6.73773e-65
5.80762e-65
5.65256e-65
8.36346e-65
6.58308e-65
5.34464e-65
4.57167e-65
4.95784e-65
7.28065e-65
5.73015e-65
7.27815e-65
7.74245e-65
7.04585e-65
5.11086e-65
8.21011e-65
5.26923e-65
5.88777e-65
7.82265e-65
9.21486e-65
4.41322e-65
9.21319e-65
7.12325e-65
5.42015e-65
2.3234e-65
)
;
    }
    procBoundary4to5
    {
        type            processor;
        value           nonuniform List<scalar> 
12
(
6.27579e-65
7.12762e-65
8.21161e-65
9.99314e-65
6.66342e-65
5.34598e-65
8.05692e-65
3.56359e-65
2.63468e-65
6.04356e-65
6.27546e-65
7.20502e-65
)
;
    }
    procBoundary4to6
    {
        type            processor;
        value           nonuniform List<scalar> 
27
(
1.03834e-64
7.59247e-65
4.95724e-65
7.43416e-65
9.36897e-65
6.11678e-65
7.35582e-65
6.50511e-65
8.52013e-65
7.9815e-65
7.67009e-65
7.90121e-65
7.28e-65
5.4208e-65
7.04673e-65
6.27261e-65
5.88574e-65
7.90065e-65
4.72707e-65
5.26882e-65
5.96517e-65
6.89364e-65
6.50607e-65
6.42809e-65
8.67441e-65
8.75232e-65
3.7958e-65
)
;
    }
}


// ************************************************************************* //
