/*--------------------------------*- C++ -*----------------------------------*\
  =========                 |
  \\      /  F ield         | OpenFOAM: The Open Source CFD Toolbox
   \\    /   O peration     | Website:  https://openfoam.org
    \\  /    A nd           | Version:  4.x
     \\/     M anipulation  |
\*---------------------------------------------------------------------------*/
FoamFile
{
    version     2.0;
    format      ascii;
    class       Cloud<passiveParticle>;
    location    0;
    object      positions;
}
// * * * * * * * * * * * * * * * * * * * * * * * * * * * * * * * * * * * * * //

301
(
( 0.253046 0.0900619 -0.0560442 ) 63
( 0.250589 0.0316049 -0.0549917 ) 45
( 0.250411 0.030004 -0.0352018 ) 81
( 0.254185 0.0692925 -0.0505438 ) 54
( 0.251181 0.0682383 -0.0700772 ) 54
( 0.250667 0.0107701 -0.0753176 ) 0
( 0.250235 0.0359356 -0.0744116 ) 9
( 0.256128 0.031305 -0.0150922 ) 81
( 0.381275 -0.0139629 -0.0338332 ) 76
( 0.421133 -0.0111038 -0.0808701 ) 6
( 0.473714 -0.00616503 -0.0415516 ) 80
( 0.324663 -0.0105174 -0.0764335 ) 2
( 0.40408 -0.00381778 -0.0736054 ) 5
( 0.490062 -0.0109738 -0.057889 ) 44
( 0.371827 -0.00591675 -0.0493145 ) 40
( 0.468936 -0.00178214 -0.0855751 ) 7
( 0.342764 -0.00284635 -0.0731453 ) 3
( 0.334801 -0.0140241 -0.0328893 ) 75
( 0.439391 -0.00178676 -0.0578809 ) 42
( 0.321768 -0.0118079 -0.047463 ) 38
( 0.360933 -0.000878595 -0.0651753 ) 39
( 0.310771 -0.00598041 -0.0628541 ) 38
( 0.354349 -0.0122699 -0.0387292 ) 75
( 0.272258 -0.00317577 -0.06856 ) 36
( 0.283968 -0.0122309 -0.0390195 ) 73
( 0.436783 0.00062428 -0.0774081 ) 6
( 0.490047 -0.0122364 -0.0777853 ) 8
( 0.302539 -0.00849632 -0.0445395 ) 37
( 0.394243 -0.00441116 -0.0448812 ) 41
( 0.472417 -0.0116063 -0.0685282 ) 44
( 0.275505 -0.0100736 -0.0201412 ) 72
( 0.473098 -0.0126338 -0.0212384 ) 80
( 0.387733 0.026547 -0.0548494 ) 49
( 0.304047 0.0718426 -0.0648753 ) 64
( 0.337163 0.0639258 -0.0468475 ) 57
( 0.32565 0.016497 -0.0485146 ) 47
( 0.443455 0.037637 -0.0467143 ) 51
( 0.286791 0.0646719 -0.0583392 ) 55
( 0.331366 0.0508323 -0.0606203 ) 56
( 0.455508 0.0129906 -0.0859491 ) 7
( 0.369766 0.0348596 -0.053299 ) 49
( 0.490043 0.0227725 -0.0532208 ) 53
( 0.324639 0.0376353 -0.0747362 ) 11
( 0.293396 0.0258585 -0.057585 ) 46
( 0.379327 0.00961981 -0.0642961 ) 40
( 0.470553 0.0686832 -0.0578241 ) 61
( 0.431461 0.0710884 -0.0625349 ) 60
( 0.4561 0.0710628 -0.0785513 ) 25
( 0.34287 0.0322396 -0.0689896 ) 48
( 0.320266 0.0460853 -0.0447524 ) 56
( 0.301141 0.0613394 -0.0452292 ) 55
( 0.368838 0.0542657 -0.0494209 ) 58
( 0.353896 0.0454982 -0.0592669 ) 57
( 0.324521 0.0853667 -0.0376008 ) 101
( 0.353222 0.0835833 -0.0695358 ) 66
( 0.452614 0.077198 -0.0555862 ) 70
( 0.286651 0.0901324 -0.0312624 ) 100
( 0.41725 0.0203427 -0.0480818 ) 51
( 0.334522 0.0725423 -0.0646034 ) 66
( 0.388365 0.0701608 -0.0536664 ) 58
( 0.47125 0.0901317 -0.0645267 ) 70
( 0.474021 0.0680423 -0.0382288 ) 98
( 0.489885 0.0146837 -0.0839044 ) 17
( 0.265483 0.0160634 -0.0366544 ) 81
( 0.400019 0.0667138 -0.069463 ) 59
( 0.327211 0.0285193 -0.0321893 ) 83
( 0.349379 0.0641414 -0.0205669 ) 93
( 0.395633 0.0137451 -0.078007 ) 5
( 0.30647 0.0317644 -0.0403546 ) 83
( 0.303093 0.0349279 -0.0724391 ) 10
( 0.4582 0.0434165 -0.0606805 ) 61
( 0.272662 0.0513327 -0.0543676 ) 54
( 0.411068 0.051037 -0.0599869 ) 59
( 0.457364 0.0242743 -0.0515545 ) 52
( 0.430489 0.0824055 -0.0788447 ) 33
( 0.365816 0.0410844 -0.0348672 ) 85
( 0.316154 0.0314674 -0.0577357 ) 47
( 0.473541 0.0304674 -0.0614045 ) 53
( 0.366756 0.0115081 -0.0796858 ) 4
( 0.291019 0.090036 -0.0505765 ) 64
( 0.26926 0.0164642 -0.0711148 ) 45
( 0.405395 0.0262689 -0.0641218 ) 50
( 0.474285 0.0474068 -0.050112 ) 62
( 0.441213 0.0387098 -0.0696269 ) 51
( 0.41966 0.0138338 -0.070436 ) 42
( 0.346594 0.0806604 -0.0509809 ) 66
( 0.438856 0.0558668 -0.0404996 ) 96
( 0.437506 0.0204491 -0.0764279 ) 15
( 0.47849 0.0748848 -0.0750941 ) 35
( 0.334701 0.033893 -0.0508512 ) 48
( 0.380859 0.0381437 -0.0694564 ) 49
( 0.460917 0.040658 -0.037593 ) 88
( 0.401582 0.0836931 -0.0593966 ) 68
( 0.363366 0.0533877 -0.0748162 ) 22
( 0.280557 0.0682281 -0.0395884 ) 91
( 0.422509 0.0628908 -0.0782595 ) 24
( 0.37155 0.0898602 -0.0742991 ) 31
( 0.397052 0.021128 -0.0382471 ) 86
( 0.347248 0.0156407 -0.0790659 ) 12
( 0.352823 0.0296431 -0.0443154 ) 48
( 0.273616 0.0789463 -0.0547241 ) 63
( 0.489959 0.0339071 -0.0785508 ) 17
( 0.385526 0.0736987 -0.0845449 ) 31
( 0.458195 0.0291149 -0.0744645 ) 16
( 0.424265 0.0430505 -0.0793129 ) 24
( 0.287549 0.0824465 -0.0685991 ) 64
( 0.430985 0.0736873 -0.0429536 ) 69
( 0.490014 0.0899886 -0.0822974 ) 35
( 0.293676 0.0526802 -0.0726076 ) 19
( 0.326666 0.00583616 -0.0652175 ) 38
( 0.29387 0.0110452 -0.0709367 ) 37
( 0.351134 0.0159378 -0.0301037 ) 84
( 0.490036 0.0537878 -0.08217 ) 26
( 0.413123 0.0679711 -0.049636 ) 59
( 0.31947 0.0690688 -0.0771673 ) 20
( 0.45792 0.0583168 -0.0463251 ) 61
( 0.38096 0.00957751 -0.040006 ) 76
( 0.473286 0.0107767 -0.053743 ) 44
( 0.472278 0.0135843 -0.0733693 ) 8
( 0.284095 0.0210984 -0.040795 ) 82
( 0.269402 0.0318466 -0.048529 ) 45
( 0.3619 0.0187508 -0.0617807 ) 49
( 0.472151 0.0230666 -0.038346 ) 88
( 0.308326 0.0495583 -0.0293456 ) 92
( 0.371136 0.0729117 -0.0630406 ) 67
( 0.437807 0.0900967 -0.0616348 ) 69
( 0.429008 0.00665511 -0.0396025 ) 78
( 0.488692 0.0765108 -0.0485601 ) 71
( 0.391365 0.0508273 -0.056698 ) 59
( 0.474897 0.0497708 -0.0698127 ) 62
( 0.406253 0.0515258 -0.0806431 ) 23
( 0.398492 0.0717114 -0.0366487 ) 104
( 0.392598 0.0901361 -0.075894 ) 32
( 0.412604 0.0900781 -0.0746933 ) 32
( 0.274098 0.0093519 -0.0532226 ) 36
( 0.436593 0.0199052 -0.0540266 ) 51
( 0.44418 0.0900517 -0.0430161 ) 69
( 0.356288 0.00637248 -0.0472194 ) 39
( 0.329897 0.0900826 -0.0560929 ) 65
( 0.490205 0.0413646 -0.0601325 ) 53
( 0.433093 0.0252977 -0.0351795 ) 87
( 0.342697 0.0155034 -0.0583682 ) 48
( 0.363893 0.0727433 -0.0445467 ) 67
( 0.490257 0.038 -0.0405865 ) 89
( 0.469776 0.0900462 -0.0846287 ) 34
( 0.419519 0.0507297 -0.041922 ) 96
( 0.283663 0.051961 -0.0219933 ) 91
( 0.42582 0.0902894 -0.0339682 ) 105
( 0.363686 0.0902175 -0.0539992 ) 67
( 0.300671 0.0105979 -0.0394851 ) 73
( 0.265927 0.0902199 -0.0403657 ) 99
( 0.300893 0.0440523 -0.0548873 ) 55
( 0.342962 0.0554627 -0.0760714 ) 21
( 0.352859 0.0652164 -0.0618183 ) 57
( 0.398417 0.0085571 -0.0590366 ) 41
( 0.382984 0.0900397 -0.0580302 ) 67
( 0.417465 0.00159418 -0.0549482 ) 42
( 0.448783 0.00808125 -0.0435461 ) 43
( 0.295755 0.0668479 -0.0271253 ) 91
( 0.385485 0.0566803 -0.0387158 ) 94
( 0.490538 0.0901594 -0.0624025 ) 71
( 0.399137 0.0329846 -0.0818029 ) 14
( 0.308434 0.0129549 -0.0574653 ) 38
( 0.49013 0.0523946 -0.0264014 ) 98
( 0.490057 0.0903498 -0.0346569 ) 107
( 0.270896 0.0663227 -0.069972 ) 54
( 0.307829 0.0800129 -0.0471203 ) 65
( 0.46436 0.0900772 -0.0459526 ) 70
( 0.322132 0.0657404 -0.0340336 ) 92
( 0.490101 0.00458362 -0.0450103 ) 44
( 0.490015 0.0627455 -0.0643619 ) 62
( 0.266493 0.0471559 -0.0728108 ) 18
( 0.431054 0.0512654 -0.0581047 ) 60
( 0.347287 0.0904267 -0.0339528 ) 102
( 0.311662 0.0901561 -0.0638846 ) 65
( 0.405525 0.0902532 -0.041064 ) 104
( 0.490361 0.0573087 -0.0452991 ) 62
( 0.382716 0.0576112 -0.073227 ) 22
( 0.455428 0.0495065 -0.0794059 ) 25
( 0.473253 0.0276579 -0.0874651 ) 17
( 0.267435 0.0901217 -0.0698218 ) 63
( 0.381495 0.0825214 -0.0397011 ) 103
( 0.452397 0.0119185 -0.0663186 ) 43
( 0.445227 0.0893379 -0.0903719 ) 34
( 0.375245 0.0248492 -0.0286709 ) 85
( 0.335289 0.0900486 -0.0751916 ) 30
( 0.453692 0.0899922 -0.0728136 ) 34
( 0.318725 0.0646592 -0.0536495 ) 56
( 0.287028 0.0479844 -0.0411312 ) 91
( 0.447863 0.0599702 -0.064214 ) 61
( 0.315876 0.019754 -0.0745941 ) 11
( 0.474028 0.0715775 -0.0148913 ) 107
( 0.393466 0.060648 -0.020992 ) 95
( 0.410656 0.0815315 -0.0243088 ) 104
( 0.317573 0.0369822 -0.0169192 ) 83
( 0.455561 0.0776514 -0.0162595 ) 106
( 0.390682 0.015584 -0.0202977 ) 86
( 0.490007 0.0185316 -0.0308322 ) 89
( 0.323801 0.0606393 -0.0149901 ) 92
( 0.363368 0.0818081 -0.0270457 ) 103
( 0.40775 0.0246543 -0.017165 ) 86
( 0.440624 0.00383876 -0.0235531 ) 78
( 0.466817 0.0229603 -0.019245 ) 88
( 0.348711 0.0850744 -0.0144487 ) 102
( 0.380687 0.0455526 -0.0230275 ) 94
( 0.447786 0.0607687 -0.02356 ) 97
( 0.431126 0.0440377 -0.0265557 ) 96
( 0.393028 0.0902476 -0.0254604 ) 104
( 0.414797 0.0430334 -0.0155273 ) 95
( 0.458268 0.00596842 -0.0147325 ) 79
( 0.49007 0.0721757 -0.0271409 ) 107
( 0.439599 0.0251607 -0.0164886 ) 87
( 0.305828 0.02215 -0.0230986 ) 83
( 0.423892 0.0142656 -0.0212987 ) 78
( 0.269761 0.0900763 -0.0208138 ) 99
( 0.333333 0.0124355 -0.022126 ) 75
( 0.415 0.0620372 -0.0262727 ) 95
( 0.331004 0.0782711 -0.0203197 ) 101
( 0.270637 0.0348232 -0.0289205 ) 81
( 0.380718 0.0750999 -0.0213651 ) 103
( 0.47148 0.0895548 -0.0275549 ) 106
( 0.490081 0.0899536 -0.0146772 ) 107
( 0.259628 0.0468915 -0.0400551 ) 90
( 0.256016 -0.000332769 -0.057251 ) 36
( 0.459537 -0.00334152 -0.0558892 ) 43
( 0.321469 -0.00175246 -0.0157262 ) 74
( 0.362351 0.0334442 -0.0751958 ) 13
( 0.419541 0.0900557 -0.054825 ) 69
( 0.318782 0.00539973 -0.0337909 ) 74
( 0.489734 0.00726317 -0.065433 ) 44
( 0.409396 0.00580126 -0.0368742 ) 77
( 0.280315 0.0330544 -0.0706343 ) 46
( 0.265912 0.0564165 -0.0145093 ) 90
( 0.442781 0.0903548 -0.0234659 ) 105
( 0.474722 0.00636838 -0.0261969 ) 80
( 0.262439 0.0722907 -0.0327579 ) 99
( 0.387751 -0.00839065 -0.0631469 ) 40
( 0.423761 0.0332133 -0.0620444 ) 51
( 0.269047 0.0104241 -0.0180017 ) 72
( 0.428055 -0.0127951 -0.0421552 ) 78
( 0.2662 -0.00363983 -0.0404632 ) 72
( 0.396636 -0.00296854 -0.0244282 ) 77
( 0.337347 0.000507582 -0.0462061 ) 39
( 0.254448 -0.00878645 -0.0752746 ) 0
( 0.331344 0.0476133 -0.028101 ) 92
( 0.4555 0.0751436 -0.0359452 ) 106
( 0.376972 -0.0056226 -0.0796177 ) 4
( 0.313046 0.0524042 -0.0682009 ) 56
( 0.402924 0.0374093 -0.047907 ) 50
( 0.253226 0.0510285 -0.0584128 ) 54
( 0.288936 -0.00309473 -0.0578209 ) 37
( 0.349 0.0495923 -0.0405287 ) 93
( 0.313875 -0.0138307 -0.0292062 ) 74
( 0.415474 0.0333753 -0.0331533 ) 86
( 0.347389 -0.00227039 -0.0230221 ) 75
( 0.490145 -0.00980374 -0.0310468 ) 80
( 0.29049 0.0340741 -0.0274583 ) 82
( 0.277728 0.0714202 -0.0199996 ) 90
( 0.36807 0.0606174 -0.0266792 ) 94
( 0.365372 0.00205839 -0.030268 ) 76
( 0.452273 0.023869 -0.0322182 ) 88
( 0.305841 0.0854404 -0.0281276 ) 101
( 0.477015 0.0378406 -0.0261718 ) 89
( 0.250459 0.0141126 -0.0235252 ) 72
( 0.420214 -0.00485896 -0.0242613 ) 78
( 0.35022 0.0418152 -0.0224696 ) 84
( 0.468223 0.0552712 -0.0242775 ) 97
( 0.295247 -0.011014 -0.0230483 ) 73
( 0.431923 0.0737012 -0.0229995 ) 105
( 0.286695 0.0067229 -0.0261985 ) 73
( 0.456916 -0.00495867 -0.0311033 ) 79
( 0.399608 0.043663 -0.0284364 ) 95
( 0.44994 0.0412124 -0.0212741 ) 88
( 0.34638 -0.0137524 -0.0569058 ) 39
( 0.281776 -0.0119614 -0.0836598 ) 1
( 0.470935 0.0602053 -0.0863065 ) 25
( 0.380557 0.0250807 -0.0844954 ) 13
( 0.384028 0.0444195 -0.0881139 ) 22
( 0.300427 0.0676303 -0.0840004 ) 19
( 0.347426 0.0394108 -0.0870123 ) 12
( 0.445153 0.034279 -0.0886513 ) 16
( 0.275745 0.0792508 -0.0843264 ) 27
( 0.283016 0.0196974 -0.0852056 ) 10
( 0.329453 0.00855588 -0.0847419 ) 2
( 0.278853 0.0564645 -0.0853647 ) 19
( 0.364151 0.0721282 -0.081667 ) 31
( 0.302204 0.0873496 -0.0811889 ) 28
( 0.311203 0.0459526 -0.08696 ) 20
( 0.266432 0.0307654 -0.0847523 ) 9
( 0.343183 0.0738473 -0.0837389 ) 30
( 0.35705 0.0900338 -0.0879882 ) 30
( 0.408093 0.0742879 -0.0860276 ) 32
( 0.253466 0.0900657 -0.0839886 ) 27
( 0.417211 0.0257224 -0.0862205 ) 15
( 0.30874 0.00220481 -0.080889 ) 2
( 0.438081 0.054775 -0.0876974 ) 24
( 0.260973 0.0656468 -0.0872486 ) 18
( 0.290039 0.0392442 -0.0869019 ) 10
( 0.302302 0.0234237 -0.0887211 ) 10
( 0.320678 0.088384 -0.0886361 ) 29
( 0.265892 0.00373291 -0.0861324 ) 0
)
