/*--------------------------------*- C++ -*----------------------------------*\
| =========                 |                                                 |
| \\      /  F ield         | OpenFOAM: The Open Source CFD Toolbox           |
|  \\    /   O peration     | Version:  4.x                                   |
|   \\  /    A nd           | Web:      www.OpenFOAM.org                      |
|    \\/     M anipulation  |                                                 |
\*---------------------------------------------------------------------------*/
FoamFile
{
    version     2.0;
    format      ascii;
    class       volScalarField;
    location    "49.5";
    object      magGField;
}
// * * * * * * * * * * * * * * * * * * * * * * * * * * * * * * * * * * * * * //

dimensions      [1 -2 -1 0 0 0 0];

internalField   nonuniform List<scalar> 
132
(
4.61047
88.473
3.76506
88.2912
1.09487
86.0667
0.410308
75.2114
12.2496
0.176338
87.0612
3.8923e-05
85.2947
2.27906
81.855
14.3416
73.8606
42.611
28.168
99.4617
27.9301
104.029
28.3055
109.657
29.1445
118.473
35.9356
50.8909
109.238
49.5138
112.765
46.0912
116.184
37.9774
122.837
32.3439
3.66493e-05
83.8797
3.28509e-05
82.4137
2.97043e-05
73.9237
18.19
3.49794e-05
81.7097
3.52646e-05
82.795
3.38425e-05
83.7138
3.23417e-05
82.3338
10.5858
3.67542e-05
84.7112
3.52047e-05
81.6676
3.41199e-05
73.9781
3.03566e-05
58.1135
11.35
27.0212
91.6378
14.7059
87.0594
2.12206
78.5005
3.05425e-05
61.2422
8.86442
6.44463
92.5408
13.848
87.9709
43.2904
1.30776
86.5095
3.66534e-05
85.8997
0.572909
83.932
8.79293
77.5774
37.4082
21.5906
94.8543
20.9455
100.789
23.4268
111.277
28.4873
131.15
41.9857
50.5038
104.982
48.8993
107.643
45.8703
114.576
39.354
131.008
31.853
36.4649
126.009
36.0451
36.3485
97.1179
32.7077
96.6036
28.6978
96.1323
22.1067
93.1588
13.9097
47.9235
103.361
45.5758
104.374
40.5199
105.974
32.7809
109.472
19.979
61.4737
109.334
59.4758
109.006
55.6523
106.437
51.9911
98.1509
55.2341
)
;

boundaryField
{
    inlet
    {
        type            calculated;
        value           nonuniform 0();
    }
    outlet
    {
        type            calculated;
        value           nonuniform List<scalar> 
16
(
27.1591
94.4136
79.4701
70.3969
40.447
23.4722
25.2198
19.4323
95.9743
83.2371
93.3117
70.1219
79.6841
30.6888
44.1864
120.212
)
;
    }
    wall
    {
        type            calculated;
        value           uniform 0;
    }
    procBoundary7to0
    {
        type            processor;
        value           uniform 88.7816;
    }
    procBoundary7to1
    {
        type            processor;
        value           uniform 3.2739e-05;
    }
    procBoundary7to3
    {
        type            processor;
        value           nonuniform List<scalar> 
36
(
12.0823
93.4404
10.0578
94.5615
11.4415
93.7993
15.7894
86.568
38.6818
3.60463e-05
84.6731
3.62738e-05
84.1336
3.42604e-05
81.9832
3.24496e-05
70.5747
11.4853
3.28252
92.4018
3.82885e-05
93.9433
4.30402
95.7975
18.2821
92.9451
51.542
43.6856
105.165
40.1557
106.192
34.2062
109.587
28.1683
124.804
27.0824
)
;
    }
    procBoundary7to5
    {
        type            processor;
        value           nonuniform List<scalar> 
44
(
79.4264
3.71154e-05
77.977
3.55086e-05
75.168
3.43349e-05
64.5865
19.8436
3.6039e-05
84.3356
3.97517e-05
87.5597
2.16153
89.3499
9.64817
85.2892
23.6859
3.6039e-05
84.3356
84.3356
3.53447
91.3089
3.50636e-05
82.1977
7.35589
74.8824
39.6869
5.96512
89.629
3.53447
91.3089
91.3089
38.1802
111.454
40.7839
133.211
38.4327
42.9425
102.701
41.3252
105.73
38.1802
111.454
111.454
)
;
    }
    procBoundary7to6
    {
        type            processor;
        value           nonuniform List<scalar> 
12
(
87.5288
96.1086
106.072
80.9951
86.154
94.3787
86.4404
92.1308
103.11
96.9025
101.483
108.855
)
;
    }
}


// ************************************************************************* //
