/*--------------------------------*- C++ -*----------------------------------*\
| =========                 |                                                 |
| \\      /  F ield         | OpenFOAM: The Open Source CFD Toolbox           |
|  \\    /   O peration     | Version:  4.x                                   |
|   \\  /    A nd           | Web:      www.OpenFOAM.org                      |
|    \\/     M anipulation  |                                                 |
\*---------------------------------------------------------------------------*/
FoamFile
{
    version     2.0;
    format      ascii;
    class       volVectorField;
    location    "49.5";
    object      U;
}
// * * * * * * * * * * * * * * * * * * * * * * * * * * * * * * * * * * * * * //

dimensions      [0 1 -1 0 0 0 0];

internalField   nonuniform List<vector> 
132
(
(0.00147665 0.000170893 -0.000265878)
(0.0290038 0.000386624 -0.000121246)
(0.00115509 0.00025685 -0.000343159)
(0.0290026 0.000540532 -4.58554e-05)
(0.000321744 0.000100723 -0.000136003)
(0.0286084 0.000747861 0.000763591)
(0.000110902 4.83417e-05 -6.24036e-05)
(0.0245043 -0.00128378 0.00328849)
(0.00335219 0.00139606 -0.00180152)
(5.6587e-05 7.56025e-06 -6.76985e-06)
(0.0286303 0.000161287 -9.46243e-05)
(1.25681e-08 2.35995e-09 -8.84102e-10)
(0.0279625 1.297e-05 0.0002841)
(0.000712653 0.000229926 -7.35963e-05)
(0.0269425 -0.00069074 0.000963892)
(0.00415859 0.00226506 -0.000251845)
(0.0241291 -0.00299816 0.00150266)
(0.00952995 0.0103348 0.000971376)
(0.00900893 0.00086795 -0.000730516)
(0.0324314 0.000482548 -0.000244413)
(0.00894989 0.00122086 -0.00119519)
(0.0339995 -7.85164e-05 -0.000607549)
(0.00882657 0.00215253 -0.00202954)
(0.0361818 -0.00188003 -0.000522531)
(0.00810958 0.00395056 -0.00338047)
(0.0386423 -0.00548884 0.00157714)
(0.00567192 0.00910052 -0.00506931)
(0.0163439 -0.000504884 -0.00125366)
(0.0353812 -0.000358251 -0.0011278)
(0.0160486 -0.000713402 -0.00177284)
(0.036628 -0.000588472 -0.000984677)
(0.014803 -0.000870073 -0.00279088)
(0.0381351 -0.000605886 4.58953e-05)
(0.0115722 -0.000865627 -0.0046696)
(0.0401337 -3.34048e-05 0.00239225)
(0.0059312 -0.000371519 -0.00866482)
(1.18936e-08 -1.34981e-09 1.01902e-09)
(0.0277466 -0.000389208 0.000481805)
(1.07246e-08 -1.90254e-09 6.88714e-10)
(0.0273788 -0.000131642 0.000847128)
(9.69056e-09 -2.0008e-09 5.38772e-10)
(0.0245415 0.00197862 0.000925613)
(0.00570687 -0.00132794 0.00145311)
(1.14123e-08 5.47481e-10 -2.93876e-12)
(0.0269453 -0.000177766 -2.11066e-05)
(1.15717e-08 7.87766e-10 -2.28041e-10)
(0.0273819 -7.75461e-05 1.19646e-05)
(1.12907e-08 7.67522e-10 -5.7207e-10)
(0.0278058 0.000493827 9.6813e-05)
(1.07218e-08 2.23534e-10 -8.39616e-10)
(0.0273723 0.0010416 0.000365488)
(0.00344969 -0.000596437 0.000130502)
(1.19068e-08 1.4214e-09 -1.08925e-09)
(0.0278463 -0.000732864 -9.48533e-05)
(1.14214e-08 1.96231e-09 -1.19132e-09)
(0.0268505 -0.000682001 0.000303937)
(1.11266e-08 2.52236e-09 -1.7638e-09)
(0.0246335 0.000203492 0.000872179)
(9.91979e-09 1.18987e-09 -1.51998e-09)
(0.0192402 0.000111855 0.00150173)
(0.00369821 -0.000637043 0.000292727)
(0.00874692 -9.7915e-05 -0.000712897)
(0.0300028 -0.000845555 -0.000352373)
(0.00476897 -9.32493e-05 -0.000642659)
(0.0285864 -0.000969729 -4.80351e-05)
(0.000688253 2.34047e-06 -0.000127876)
(0.0258832 -8.92898e-05 0.000714165)
(9.66507e-09 3.03271e-10 -2.22363e-09)
(0.0201908 0.000320442 0.00163852)
(0.00285533 7.83618e-05 0.000502538)
(0.00204705 -0.000109171 0.000596207)
(0.0306889 0.000220611 -7.16567e-05)
(0.00404457 -0.000224694 0.00220258)
(0.0291088 -0.000146247 -0.00242307)
(0.00875607 -0.000632626 0.0113192)
(0.000426099 2.05037e-07 5.16007e-05)
(0.0285267 0.000156253 1.86744e-05)
(1.18068e-08 4.94823e-10 1.83201e-09)
(0.0283315 -0.000166132 0.000174969)
(0.000184928 1.48992e-05 4.35359e-05)
(0.0278512 -0.000712579 0.000157344)
(0.00272896 0.000763438 0.000729517)
(0.0257339 -0.00268169 -0.00101425)
(0.00921831 0.00750022 0.00362087)
(0.00704169 0.000351542 0.000158279)
(0.0311726 0.000210867 7.83975e-05)
(0.00688408 0.000445637 0.000290018)
(0.0332516 -0.000256919 -0.000126432)
(0.00764272 0.00102983 0.00100512)
(0.0369312 -0.00173735 -0.00040726)
(0.00876475 0.00260239 0.00253671)
(0.0432608 -0.00460676 -0.00226612)
(0.00711963 0.00863973 0.00828444)
(0.0163731 -0.000101785 0.000189842)
(0.0343067 -0.000151478 0.000737966)
(0.0160365 -0.000504479 0.000420609)
(0.0353887 -0.000599073 0.000743426)
(0.0150341 -0.00107407 0.000934646)
(0.0376969 -0.000842827 0.000178956)
(0.0128171 -0.00173007 0.00171948)
(0.0432774 -0.000465689 -0.000882387)
(0.00738959 -0.00161611 0.00723318)
(0.0114399 -0.00341114 0.00166159)
(0.041607 0.00127745 -0.00182222)
(0.00745919 -0.00700362 0.00606286)
(0.0118648 -0.000333969 0.000164635)
(0.0317992 -0.000244823 -4.86963e-05)
(0.0107888 -0.00056177 9.13548e-05)
(0.0319244 -0.000370618 -0.000378961)
(0.00940938 -0.000902107 0.000365801)
(0.0315259 -0.000449834 -0.00144476)
(0.00716214 -0.00142142 0.000454189)
(0.0306939 0.00013727 -0.00285573)
(0.00404607 -0.00182634 0.00112849)
(0.0155906 0.00013576 -0.000182061)
(0.0337674 3.2262e-05 -0.000258949)
(0.0149223 7.08934e-05 -0.000714184)
(0.0342939 -0.000225094 -0.000826693)
(0.0132903 -0.000105655 -0.00147215)
(0.0349456 -0.000311077 -0.00113392)
(0.0104863 -0.000114301 -0.00282435)
(0.0361492 -0.000498095 -0.000331453)
(0.00579636 -0.000400184 -0.00312034)
(0.0199253 -0.000347841 -0.000448811)
(0.0357492 -0.000320069 -0.000439657)
(0.0193911 -0.000543139 -0.00081798)
(0.0356634 -0.000383821 -0.000659418)
(0.0182047 -0.000991765 -0.00159043)
(0.0350441 -5.77285e-05 -0.000483517)
(0.0166669 -0.00184511 -0.00360687)
(0.0322037 0.00115121 0.000818927)
(0.0159266 -0.0047775 -0.00674097)
)
;

boundaryField
{
    inlet
    {
        type            fixedValue;
        value           nonuniform 0();
    }
    outlet
    {
        type            zeroGradient;
    }
    wall
    {
        type            fixedValue;
        value           uniform (0 0 0);
    }
    procBoundary7to0
    {
        type            processor;
        value           uniform (0.0284126 -5.55432e-05 -0.000276501);
    }
    procBoundary7to1
    {
        type            processor;
        value           uniform (1.05044e-08 3.38252e-10 1.05732e-09);
    }
    procBoundary7to3
    {
        type            processor;
        value           nonuniform List<vector> 
36
(
(0.00382009 -0.000352148 -0.000729707)
(0.030339 -0.000218898 -0.000140393)
(0.00313234 -0.000461661 -0.000827086)
(0.030768 -0.000521624 0.000236161)
(0.00331116 -0.000895849 -0.00141538)
(0.0304811 -0.000667483 0.00122344)
(0.00410032 -0.00167326 -0.00266075)
(0.0279489 0.00106724 0.00382734)
(0.00779595 -0.00415171 -0.00896583)
(1.16792e-08 -9.56053e-10 -5.66454e-10)
(0.0272871 -0.000264025 0.000483277)
(1.17937e-08 -7.62202e-10 -9.53563e-10)
(0.0270562 8.07888e-05 0.000732365)
(1.08706e-08 -1.35475e-09 -2.5998e-09)
(0.0266154 0.000853534 0.00190571)
(1.01093e-08 -7.41069e-10 -3.28898e-09)
(0.0229275 0.00112505 0.00265704)
(0.00369764 -0.000110969 -0.000508822)
(0.00104488 9.87988e-05 -5.7395e-05)
(0.0298074 -0.000222301 -6.46213e-05)
(1.23333e-08 1.69883e-09 -1.02833e-09)
(0.0302426 -0.000305529 0.000365375)
(0.00131223 0.000387345 -0.000255068)
(0.0311687 -0.000234884 0.00121344)
(0.00502569 0.00266888 -0.00173419)
(0.0300333 -0.00211606 0.00325202)
(0.0100412 0.0113468 -0.00704273)
(0.0139849 -8.89772e-05 -0.000677467)
(0.033452 -0.000251093 -0.000270519)
(0.0128187 -0.000369087 -0.000752959)
(0.0340415 -0.0010582 0.000157308)
(0.0109419 -0.000237694 -0.0011876)
(0.035455 -0.00132799 0.000808916)
(0.0088928 0.000413679 -0.00201798)
(0.0405137 -0.00123087 0.00268003)
(0.00610923 0.00370151 -0.00515905)
)
;
    }
    procBoundary7to5
    {
        type            processor;
        value           nonuniform List<vector> 
44
(
(0.0259108 0.000580599 7.29142e-05)
(1.1953e-08 6.95862e-10 1.20802e-09)
(0.0255247 0.000211394 0.000289804)
(1.14511e-08 4.79657e-11 -1.3548e-09)
(0.0245876 -0.000360841 0.000747309)
(1.10263e-08 5.26172e-10 -2.38005e-09)
(0.0211002 -0.0014984 0.00120251)
(0.0064997 0.000238545 -0.000647759)
(1.17902e-08 -8.62179e-10 9.56075e-10)
(0.0275659 -0.000278745 -8.57757e-05)
(1.23042e-08 -1.63398e-09 3.80568e-09)
(0.0288997 0.000264757 0.000314045)
(0.000651109 -0.000214517 0.000200212)
(0.029599 0.000139315 0.000638662)
(0.00272839 -0.00123144 0.00114017)
(0.0282038 0.00198615 -0.000718734)
(0.00645995 -0.00327978 0.00293526)
(1.17902e-08 -8.62179e-10 9.56075e-10)
(0.0275659 -0.000278745 -8.57757e-05)
(0.0275659 -0.000278745 -8.57757e-05)
(0.00115789 -4.426e-05 0.00019032)
(0.0303046 0.000151282 -0.000111305)
(1.15809e-08 -5.99504e-10 1.81743e-09)
(0.0273718 0.000667265 -0.000381722)
(0.00227865 -0.000332973 0.00085439)
(0.0249322 0.000635125 -0.00181201)
(0.0087312 -0.00297776 0.00945835)
(0.00193981 -7.43714e-05 0.000164671)
(0.0296336 0.000243273 1.03013e-05)
(0.00115789 -4.426e-05 0.00019032)
(0.0303046 0.000151282 -0.000111305)
(0.0303046 0.000151282 -0.000111305)
(0.0126385 -0.0016117 0.000497176)
(0.0370477 -0.00039249 -0.000802579)
(0.0128947 -0.00150465 0.00375071)
(0.0439451 0.00154021 -0.0039326)
(0.00798724 -0.00210594 0.00968042)
(0.0140297 -0.000627597 0.00021888)
(0.0336489 -0.000477788 0.000174653)
(0.013627 -0.000953831 0.000201024)
(0.0349285 -0.000591311 -0.000422781)
(0.0126385 -0.0016117 0.000497176)
(0.0370477 -0.00039249 -0.000802579)
(0.0370477 -0.00039249 -0.000802579)
)
;
    }
    procBoundary7to6
    {
        type            processor;
        value           nonuniform List<vector> 
12
(
(0.0282705 0.000589852 -0.000163708)
(0.0309897 0.000945041 -0.000315438)
(0.0339076 -0.000101434 -0.000897686)
(0.0264627 -0.000445802 -0.000125051)
(0.0280682 -0.000438031 -0.000402998)
(0.0305958 -0.000147756 -0.000455248)
(0.0282808 0.000115654 1.60692e-05)
(0.0300477 0.000779573 0.000472618)
(0.033315 0.000211005 0.000590171)
(0.031364 -0.000268773 0.000554478)
(0.033029 0.000212253 0.000128678)
(0.0351448 -7.41159e-05 -0.000169244)
)
;
    }
}


// ************************************************************************* //
