/*--------------------------------*- C++ -*----------------------------------*\
| =========                 |                                                 |
| \\      /  F ield         | OpenFOAM: The Open Source CFD Toolbox           |
|  \\    /   O peration     | Version:  4.x                                   |
|   \\  /    A nd           | Web:      www.OpenFOAM.org                      |
|    \\/     M anipulation  |                                                 |
\*---------------------------------------------------------------------------*/
FoamFile
{
    version     2.0;
    format      ascii;
    class       volScalarField;
    location    "24";
    object      D;
}
// * * * * * * * * * * * * * * * * * * * * * * * * * * * * * * * * * * * * * //

dimensions      [0 2 -1 0 0 0 0];

internalField   uniform 1.7e-07;

boundaryField
{
    inlet
    {
        type            calculated;
        value           nonuniform 0();
    }
    outlet
    {
        type            calculated;
        value           uniform 1.7e-07;
    }
    wall
    {
        type            calculated;
        value           uniform 1.7e-07;
    }
    procBoundary3to1
    {
        type            processor;
        value           uniform 1.7e-07;
    }
    procBoundary3to2
    {
        type            processor;
        value           uniform 1.7e-07;
    }
    procBoundary3to7
    {
        type            processor;
        value           uniform 1.7e-07;
    }
}


// ************************************************************************* //
