/*--------------------------------*- C++ -*----------------------------------*\
| =========                 |                                                 |
| \\      /  F ield         | OpenFOAM: The Open Source CFD Toolbox           |
|  \\    /   O peration     | Version:  4.x                                   |
|   \\  /    A nd           | Web:      www.OpenFOAM.org                      |
|    \\/     M anipulation  |                                                 |
\*---------------------------------------------------------------------------*/
FoamFile
{
    version     2.0;
    format      ascii;
    class       surfaceScalarField;
    location    "24";
    object      phi;
}
// * * * * * * * * * * * * * * * * * * * * * * * * * * * * * * * * * * * * * //

dimensions      [0 3 -1 0 0 0 0];

internalField   nonuniform List<scalar> 
249
(
1.22706e-05
-5.03301e-08
-1.79193e-07
1.25749e-05
1.04252e-08
-2.33037e-07
1.28223e-05
3.71832e-08
-1.6714e-07
1.28576e-05
5.88794e-08
1.35355e-07
1.30848e-05
5.64981e-08
-1.76106e-07
1.25046e-05
8.43732e-08
8.08672e-07
1.31838e-05
8.96732e-08
-6.34871e-07
1.15372e-05
2.18095e-08
2.03174e-06
1.9165e-07
-5.06279e-06
1.11577e-05
-2.46075e-08
-1.35943e-07
1.13581e-05
-3.05121e-08
-1.59478e-07
1.15658e-05
-6.98861e-08
-1.00647e-07
1.1594e-05
-1.0503e-07
1.35738e-07
1.16185e-05
1.75423e-08
1.44405e-08
1.10424e-05
-1.19109e-07
7.79601e-07
1.07754e-05
1.86569e-07
1.70065e-07
9.17247e-06
-3.45388e-07
1.97015e-06
5.33895e-07
-2.70152e-06
1.19618e-05
1.74106e-08
-1.94282e-07
1.21744e-05
1.94357e-08
-2.62466e-07
1.2295e-05
-4.89787e-08
-1.41517e-07
1.21743e-05
-1.10132e-07
1.25765e-07
1.19226e-05
2.7046e-07
-1.19054e-09
1.11494e-05
-1.38582e-07
7.92686e-07
9.98557e-06
1.23717e-06
1.13197e-07
8.6296e-06
-7.80539e-07
1.79113e-06
4.451e-06
-1.08945e-07
1.41617e-05
-2.82646e-07
1.44641e-05
-2.82937e-07
1.4706e-05
-2.9094e-07
1.47734e-05
-1.77558e-07
1.534e-05
-2.9607e-07
1.50134e-05
1.88037e-07
1.63127e-05
-6.21541e-08
1.44365e-05
1.09564e-06
-7.24068e-06
7.11998e-06
-7.34505e-09
-1.73571e-07
6.91772e-06
8.31864e-08
-5.70232e-08
6.87829e-06
4.5274e-08
-1.32243e-07
6.83414e-06
1.49849e-08
3.21925e-07
6.80028e-06
1.0074e-07
-1.68253e-07
7.20152e-06
-1.19806e-07
7.73564e-07
6.8751e-06
3.09874e-07
-4.41691e-07
7.82902e-06
-3.83716e-07
1.92247e-06
1.80831e-06
-3.52007e-06
7.45082e-06
-3.01803e-08
-1.88802e-07
7.41649e-06
4.4771e-08
-8.67327e-08
7.55588e-06
-2.60681e-09
-1.92161e-07
7.53794e-06
-7.85013e-08
2.4717e-07
7.81811e-06
8.02411e-08
-2.45231e-07
7.80194e-06
-2.13043e-07
8.89002e-07
8.41499e-06
3.00978e-07
-4.34092e-07
8.74096e-06
-8.74742e-07
2.1352e-06
2.12173e-06
-3.50052e-06
7.66324e-06
3.03772e-08
-2.0011e-07
7.46808e-06
1.31378e-07
-1.5392e-07
7.42846e-06
6.13407e-08
-1.65844e-07
7.18706e-06
-1.94458e-08
3.0811e-07
7.08154e-06
3.38557e-07
-1.53983e-07
7.0829e-06
-2.73209e-07
8.51488e-07
6.43664e-06
1.23443e-06
-1.73996e-07
7.09168e-06
-1.41115e-06
1.6725e-06
5.85685e-06
-2.85739e-07
1.13821e-05
-4.57761e-07
1.15901e-05
-3.59555e-07
1.19388e-05
-5.78257e-07
1.19782e-05
-2.36418e-07
1.28505e-05
-8.29868e-07
1.2673e-05
9.2387e-08
1.50125e-05
-1.16729e-06
1.35599e-05
1.13713e-06
-4.95835e-06
5.25807e-06
-1.86352e-09
5.18755e-06
-7.43542e-08
5.05531e-06
8.6444e-14
5.12498e-06
1.11983e-08
4.95673e-06
-1.11433e-12
5.03788e-06
1.01552e-07
4.54471e-06
2.71432e-08
5.37388e-06
-5.72668e-08
4.91453e-07
5.37764e-06
1.90357e-08
5.25082e-06
-5.59087e-08
5.17813e-06
3.99211e-13
5.24818e-06
-6.26563e-08
5.11573e-06
1.82476e-14
5.61347e-06
-2.06098e-07
5.41058e-06
6.62708e-08
6.8678e-06
-8.26067e-07
1.04737e-06
5.64949e-06
7.56677e-08
5.31601e-06
1.01268e-07
5.27054e-06
4.57186e-08
5.34117e-06
-9.82523e-08
5.27864e-06
1.36881e-07
5.51309e-06
-2.65827e-07
5.39982e-06
4.30359e-07
6.33332e-06
-1.26499e-06
1.20309e-06
9.4281e-06
9.47189e-06
9.49259e-06
9.33879e-06
9.44219e-06
9.13215e-06
9.64485e-06
8.36651e-06
)
;

boundaryField
{
    inlet
    {
        type            calculated;
        value           nonuniform 0();
    }
    outlet
    {
        type            calculated;
        value           nonuniform List<scalar> 
12
(
1.70527e-05
1.15317e-05
4.82143e-06
2.61282e-05
4.91923e-06
9.22655e-06
3.53335e-06
1.71344e-05
1.76171e-06
4.45341e-06
7.07834e-06
6.11678e-06
)
;
    }
    wall
    {
        type            calculated;
        value           nonuniform List<scalar> 
63
(
0
0
0
0
0
0
0
0
0
0
0
0
0
0
0
0
0
0
0
0
0
0
0
0
0
0
0
0
0
0
0
0
0
0
0
0
0
0
0
0
0
0
0
0
0
0
0
0
0
0
0
0
0
0
0
0
0
0
0
4.93038e-32
0
0
0
)
;
    }
    procBoundary3to1
    {
        type            processor;
        value           nonuniform List<scalar> 
27
(
2.11983e-08
-8.16955e-08
-1.17439e-07
-2.29491e-07
-1.07574e-07
-3.1287e-07
-1.34042e-07
-4.06898e-07
-6.44383e-07
-8.34249e-09
-5.69425e-08
-4.07391e-08
-1.57407e-07
-7.47311e-08
-2.4633e-07
-1.76631e-07
-4.60936e-07
-4.41237e-07
4.16282e-11
-9.80422e-09
-2.06729e-12
-8.75734e-08
-1.05983e-12
-8.92145e-08
2.43461e-08
-1.58549e-07
1.49758e-07
)
;
    }
    procBoundary3to2
    {
        type            processor;
        value           nonuniform List<scalar> 
12
(
-1.20623e-05
-1.10475e-05
-1.18096e-05
-1.38616e-05
-7.10991e-06
-7.37512e-06
-7.71797e-06
-1.11766e-05
-5.38115e-06
-5.46627e-06
-5.7387e-06
-9.36752e-06
)
;
    }
    procBoundary3to7
    {
        type            processor;
        value           nonuniform List<scalar> 
36
(
-4.86704e-08
9.76538e-08
-2.4734e-12
3.28634e-07
-3.23715e-12
6.80073e-07
-2.74268e-12
1.30911e-06
-5.49112e-07
-1.21066e-07
2.16422e-08
-1.19476e-07
2.50977e-07
-1.12782e-07
6.98911e-07
-2.70327e-07
1.44678e-06
-1.64206e-06
-1.67529e-07
2.23774e-08
-1.66094e-07
2.73084e-07
-2.2834e-07
6.76771e-07
-4.24816e-07
1.17792e-06
-1.18648e-06
-4.42679e-07
-3.02072e-07
-5.53239e-07
-1.80875e-07
-7.96387e-07
1.36608e-07
-1.24963e-06
1.15047e-06
-1.50552e-06
)
;
    }
}


// ************************************************************************* //
