/*--------------------------------*- C++ -*----------------------------------*\
| =========                 |                                                 |
| \\      /  F ield         | OpenFOAM: The Open Source CFD Toolbox           |
|  \\    /   O peration     | Version:  4.x                                   |
|   \\  /    A nd           | Web:      www.OpenFOAM.org                      |
|    \\/     M anipulation  |                                                 |
\*---------------------------------------------------------------------------*/
FoamFile
{
    version     2.0;
    format      ascii;
    class       volScalarField;
    location    "24";
    object      rho;
}
// * * * * * * * * * * * * * * * * * * * * * * * * * * * * * * * * * * * * * //

dimensions      [1 -3 0 0 0 0 0];

internalField   nonuniform List<scalar> 
108
(
6699.95
6699.92
6699.86
6699.8
6699.67
6699.51
6699.2
6698.9
6720.49
6699.97
6699.97
6699.94
6699.89
6699.78
6699.59
6699.29
6698.84
6765.03
6699.6
6699.44
6699.28
6699.12
6698.96
6698.81
6698.62
6698.41
6700.21
6699.89
6699.88
6699.88
6699.87
6699.85
6699.82
6699.68
6699.59
6867
6699.7
6699.43
6699.02
6698.53
6697.97
6697.69
6697.37
6697.48
6696.88
6699.82
6699.62
6699.3
6698.9
6698.39
6698.05
6697.63
6697.5
6693.38
6699.91
6699.79
6699.55
6699.17
6698.64
6698.2
6697.64
6697.59
6694.59
6699.95
6699.94
6699.91
6699.86
6699.72
6699.6
6699.25
6699.11
6688.66
6699.43
6699.05
6698.62
6698.23
6697.96
6697.81
6697.94
6698.02
6699.06
6699.69
6699.4
6699.02
6698.59
6698.22
6697.91
6697.87
6697.69
6697.6
6699.77
6699.51
6699.13
6698.69
6698.27
6697.93
6697.75
6697.68
6696.17
6699.95
6699.92
6699.86
6699.75
6699.58
6699.36
6699.07
6698.8
6693.38
)
;

boundaryField
{
    inlet
    {
        type            calculated;
        value           nonuniform 0();
    }
    outlet
    {
        type            calculated;
        value           uniform 6700;
    }
    wall
    {
        type            calculated;
        value           nonuniform List<scalar> 
63
(
6699.95
6699.97
6699.6
6699.89
6699.92
6699.97
6699.44
6699.88
6699.86
6699.94
6699.28
6699.88
6699.8
6699.89
6699.12
6699.87
6699.67
6699.78
6698.96
6699.85
6699.51
6699.59
6698.81
6699.82
6699.2
6699.29
6698.62
6699.68
6698.9
6698.84
6698.41
6699.59
6720.49
6765.03
6700.21
6867
6699.89
6699.95
6699.95
6699.88
6699.94
6699.92
6699.88
6699.91
6699.86
6699.87
6699.86
6699.75
6699.85
6699.72
6699.58
6699.82
6699.6
6699.36
6699.68
6699.25
6699.07
6699.59
6699.11
6698.8
6867
6688.66
6693.38
)
;
    }
    procBoundary3to1
    {
        type            processor;
        value           nonuniform List<scalar> 
27
(
6699.94
6699.91
6699.85
6699.76
6699.61
6699.35
6698.93
6698.42
6696.66
6699.7
6699.44
6699.05
6698.62
6698.13
6697.92
6697.72
6697.81
6697.71
6699.5
6699.21
6698.95
6698.67
6698.52
6698.41
6698.66
6698.59
6699.78
)
;
    }
    procBoundary3to2
    {
        type            processor;
        value           nonuniform List<scalar> 
12
(
6699.97
6699.97
6699.74
6699.91
6699.86
6699.92
6699.95
6699.96
6699.72
6699.86
6699.9
6699.97
)
;
    }
    procBoundary3to7
    {
        type            processor;
        value           nonuniform List<scalar> 
36
(
6699.7
6699.47
6699.22
6698.92
6698.75
6698.62
6698.78
6698.93
6703.89
6699.79
6699.64
6699.44
6699.19
6698.99
6698.75
6698.81
6698.69
6700.18
6699.85
6699.74
6699.58
6699.34
6699.14
6698.86
6698.8
6698.64
6699.06
6699.96
6699.94
6699.9
6699.84
6699.73
6699.63
6699.42
6699.23
6690.5
)
;
    }
}


// ************************************************************************* //
