/*--------------------------------*- C++ -*----------------------------------*\
| =========                 |                                                 |
| \\      /  F ield         | OpenFOAM: The Open Source CFD Toolbox           |
|  \\    /   O peration     | Version:  4.x                                   |
|   \\  /    A nd           | Web:      www.OpenFOAM.org                      |
|    \\/     M anipulation  |                                                 |
\*---------------------------------------------------------------------------*/
FoamFile
{
    version     2.0;
    format      ascii;
    class       volScalarField;
    location    "27";
    object      pSmooth;
}
// * * * * * * * * * * * * * * * * * * * * * * * * * * * * * * * * * * * * * //

dimensions      [1 -1 -2 0 0 0 0];

internalField   nonuniform List<scalar> 
114
(
69.0492
0.1
63.869
0.1
58.9335
0.1
2.18003
68.8181
0.1
63.4018
0.1
58.8795
0.1
75.1841
4.39946
68.5979
0.1
62.9071
0.1
55.3479
0.1
19.4935
74.6877
1.69041
68.5714
0.1
63.0758
0.1
59.1801
0.1
19.6906
75.1342
1.61355
67.7426
0.1
62.5352
0.1
56.8353
0.1
21.3264
74.4871
4.58086
68.1419
0.1
62.5406
0.1
56.5107
0.1
21.6466
75.0079
19.9002
74.6879
1.60572
68.6369
0.1
63.4762
0.1
60.6531
0.1
19.7774
74.6986
1.283
68.501
0.1
62.7916
0.1
59.0634
0.1
20.6458
74.7706
2.71218
68.3403
0.1
62.1684
0.1
56.5887
0.1
20.455
75.0593
2.21225
68.1687
19.8566
74.5553
1.48308
68.6168
0.1
63.8731
0.1
62.708
0.1
19.834
74.6295
1.27921
68.5351
0.1
63.2938
0.1
60.2502
0.1
20.6323
74.7906
2.48493
68.5508
0.1
62.85
0.1
58.6267
0.1
20.3852
74.7987
2.11912
68.553
0.1
62.6711
)
;

boundaryField
{
    inlet
    {
        type            zeroGradient;
    }
    outlet
    {
        type            fixedValue;
        value           uniform 0;
    }
    wall
    {
        type            zeroGradient;
    }
    procBoundary5to1
    {
        type            processor;
        value           nonuniform List<scalar> 
32
(
68.9111
0.1
63.8541
0.1
60.4238
0.1
1.16139
68.8204
0.1
63.4119
0.1
59.8064
0.1
73.9517
2.28317
68.8035
0.1
62.9854
0.1
57.2966
0.1
20.068
74.913
2.49912
2.49912
2.49912
20.0716
74.8735
74.8735
74.8735
21.2455
21.2455
)
;
    }
    procBoundary5to4
    {
        type            processor;
        value           nonuniform List<scalar> 
12
(
81.2622
81.5233
81.5518
81.8243
81.2511
81.4686
81.5065
81.5553
81.0057
81.2736
81.3474
81.4998
)
;
    }
    procBoundary5to7
    {
        type            processor;
        value           nonuniform List<scalar> 
44
(
75.1256
3.29988
68.6303
0.1
63.2694
0.1
57.7337
0.1
20.9247
75.1256
4.78559
67.8843
0.1
62.0891
0.1
55.8115
0.1
21.8966
4.78559
74.8066
4.78559
67.8843
0.1
62.3564
0.1
57.1672
0.1
21.0877
74.7704
3.12673
0.1
68.3671
0.1
62.3564
0.1
57.695
0.1
21.1399
74.9613
3.3769
68.6969
0.1
0.1
62.7226
)
;
    }
}


// ************************************************************************* //
