/*--------------------------------*- C++ -*----------------------------------*\
| =========                 |                                                 |
| \\      /  F ield         | OpenFOAM: The Open Source CFD Toolbox           |
|  \\    /   O peration     | Version:  4.x                                   |
|   \\  /    A nd           | Web:      www.OpenFOAM.org                      |
|    \\/     M anipulation  |                                                 |
\*---------------------------------------------------------------------------*/
FoamFile
{
    version     2.0;
    format      ascii;
    class       volScalarField;
    location    "27";
    object      Sm;
}
// * * * * * * * * * * * * * * * * * * * * * * * * * * * * * * * * * * * * * //

dimensions      [1 -3 -1 0 0 0 0];

internalField   nonuniform List<scalar> 
114
(
6.81994e-65
8.05995e-65
6.355e-65
6.74251e-65
7.59502e-65
8.44752e-65
6.81988e-65
5.65743e-65
5.81245e-65
6.66498e-65
8.21499e-65
8.52501e-65
7.905e-65
8.4473e-65
6.04489e-65
7.51741e-65
5.73495e-65
4.57249e-65
7.28499e-65
5.425e-65
8.67999e-65
6.35494e-65
4.80497e-65
6.97494e-65
5.42497e-65
6.43249e-65
6.82001e-65
7.13002e-65
5.65753e-65
5.96752e-65
7.05241e-65
6.81992e-65
8.52491e-65
7.12995e-65
8.36997e-65
8.1375e-65
5.27001e-65
8.60252e-65
6.89751e-65
8.21489e-65
4.57244e-65
7.28491e-65
7.59494e-65
6.19998e-65
7.05249e-65
7.13e-65
6.8975e-65
5.58e-65
9.99737e-65
4.33995e-65
6.66497e-65
8.21498e-65
6.74248e-65
7.3625e-65
6.97501e-65
6.89753e-65
6.66504e-65
7.28505e-65
6.58754e-65
5.42497e-65
8.36995e-65
6.04498e-65
7.12999e-65
7.13e-65
7.05251e-65
9.14504e-65
6.43253e-65
5.50252e-65
6.89744e-65
6.35496e-65
6.89747e-65
6.04499e-65
1.0075e-64
7.36251e-65
8.21502e-65
8.91252e-65
8.68002e-65
4.80497e-65
9.37746e-65
8.98997e-65
7.98249e-65
2.63501e-65
6.89752e-65
4.57252e-65
7.13004e-65
6.04504e-65
4.96004e-65
6.97506e-65
6.27755e-65
6.04505e-65
6.355e-65
6.58751e-65
4.34e-65
5.65752e-65
7.44003e-65
6.51003e-65
4.57253e-65
7.05254e-65
6.04503e-65
6.12249e-65
6.4325e-65
8.525e-65
6.97501e-65
5.89002e-65
8.06004e-65
6.51003e-65
6.74253e-65
6.82003e-65
7.36249e-65
5.6575e-65
7.13e-65
5.58002e-65
9.68753e-65
7.75004e-65
)
;

boundaryField
{
    inlet
    {
        type            calculated;
        value           nonuniform 0();
    }
    outlet
    {
        type            calculated;
        value           uniform 0;
    }
    wall
    {
        type            calculated;
        value           uniform 0;
    }
    procBoundary5to1
    {
        type            processor;
        value           nonuniform List<scalar> 
32
(
7.98241e-65
5.73496e-65
8.44749e-65
7.0525e-65
5.73502e-65
4.18501e-65
5.65737e-65
6.1224e-65
6.97493e-65
6.97497e-65
6.58749e-65
7.2075e-65
4.4175e-65
6.35481e-65
5.11487e-65
9.06733e-65
8.29241e-65
8.75746e-65
6.81999e-65
7.90499e-65
3.4875e-65
6.58738e-65
5.26993e-65
8.05989e-65
8.05989e-65
8.05989e-65
7.05234e-65
9.99729e-65
9.99729e-65
9.99729e-65
5.73485e-65
5.73485e-65
)
;
    }
    procBoundary5to4
    {
        type            processor;
        value           nonuniform List<scalar> 
12
(
8.91243e-65
9.06738e-65
5.65742e-65
5.96742e-65
8.21498e-65
8.13746e-65
6.81996e-65
6.81997e-65
7.20753e-65
7.595e-65
6.2775e-65
6.355e-65
)
;
    }
    procBoundary5to7
    {
        type            processor;
        value           nonuniform List<scalar> 
44
(
7.82734e-65
6.43239e-65
6.74243e-65
1.03074e-64
1.0385e-64
7.98249e-65
5.6575e-65
8.36999e-65
9.91979e-65
7.82734e-65
6.43244e-65
7.36245e-65
6.74248e-65
6.89749e-65
8.6025e-65
8.4475e-65
7.3625e-65
3.95246e-65
6.43244e-65
8.52492e-65
6.43244e-65
7.36245e-65
5.0375e-65
5.81251e-65
7.36252e-65
6.04501e-65
5.8125e-65
8.05998e-65
7.36247e-65
6.81999e-65
5.0375e-65
5.19251e-65
5.0375e-65
5.81251e-65
5.50252e-65
6.43253e-65
6.12252e-65
6.8975e-65
5.81251e-65
7.67251e-65
7.44003e-65
5.19253e-65
5.50252e-65
3.87502e-65
)
;
    }
}


// ************************************************************************* //
