/*--------------------------------*- C++ -*----------------------------------*\
| =========                 |                                                 |
| \\      /  F ield         | OpenFOAM: The Open Source CFD Toolbox           |
|  \\    /   O peration     | Version:  4.x                                   |
|   \\  /    A nd           | Web:      www.OpenFOAM.org                      |
|    \\/     M anipulation  |                                                 |
\*---------------------------------------------------------------------------*/
FoamFile
{
    version     2.0;
    format      ascii;
    class       volScalarField;
    location    "55.5";
    object      Ksl;
}
// * * * * * * * * * * * * * * * * * * * * * * * * * * * * * * * * * * * * * //

dimensions      [1 -3 -1 0 0 0 0];

internalField   nonuniform List<scalar> 
114
(
6248.14
3147.5
5505.3
3032.24
5065.96
2876.75
3399.62
8074.4
3332.24
6978.23
3283.46
6431.63
3218.36
6221.49
3137.04
3353.14
7521.49
3230.07
6170.7
3140.14
5502.42
3034.36
5126.86
2915.84
3296.12
6758.97
3095.01
5282.31
2912.14
4510.95
2742.28
4074.66
2638.78
12728.9
3683.72
14520.9
3558.94
3440.25
9910.97
3591.93
11896.8
3696.89
15341.8
3752.69
23314.2
3730.56
3416.46
9029.62
3519.67
9365.19
3527.36
9645.72
3508.13
10170.1
3418.95
3338.02
7544.41
3295.13
6525.15
3167.1
5887.05
3077.01
5513.95
2966.52
23177
3663.62
3500.68
10852.7
3728.41
16576.3
3858.94
33040.8
3931.94
199776
3951.44
3444.41
10032.8
3646.67
13127
3739.71
18482.6
3790.52
34660.7
3769.88
3369.38
8195.08
3396.26
7700.52
3331.23
7274.84
3334.46
7285.24
3274.91
3511.78
11484.3
3763.07
17598.6
3838.17
29331.3
3845.94
66593.4
3469.35
9596.62
3635.63
10929.5
3647.43
11801.8
3583.82
3364.43
7917.79
3390.92
7420.28
3330.11
6935.61
)
;

boundaryField
{
    inlet
    {
        type            zeroGradient;
    }
    outlet
    {
        type            zeroGradient;
    }
    wall
    {
        type            zeroGradient;
    }
    procBoundary2to0
    {
        type            processor;
        value           nonuniform List<scalar> 
44
(
6388.94
3191.96
5733.51
3082.09
5392.39
3040.71
3370.29
7540.2
3232.07
3232.07
10666.7
3669.51
14182.8
3752.38
20563.3
3722.37
3491.2
9669.4
3577.98
10666.7
3669.51
3669.51
20604.5
3774.17
30787.7
3767.78
3536.87
11051.7
3739.31
15520.6
3809.3
20604.5
3774.17
3774.17
29592.3
3715.62
3509.57
10923.5
3748.74
16226.2
3782.37
22527.4
3766.24
29592.3
)
;
    }
    procBoundary2to3
    {
        type            processor;
        value           nonuniform List<scalar> 
12
(
4885.08
6472.12
4914.14
3811.85
15944.3
45529
10820.4
5349.12
26690.3
1e+10
113071
7718.24
)
;
    }
    procBoundary2to6
    {
        type            processor;
        value           nonuniform List<scalar> 
32
(
3809.1
12035.8
3481.64
3221.08
6556.54
3125.33
3578.86
12655.3
3870.14
28594.6
4010.62
163542
4052.13
3809.1
12035.8
1e+10
3488.01
10768.3
3690.41
15857.6
3797.85
27188.3
12035.8
3221.08
3839.08
3373.09
8159.85
3399.55
8049.63
3441.23
3221.08
8570.77
)
;
    }
}


// ************************************************************************* //
