/*--------------------------------*- C++ -*----------------------------------*\
| =========                 |                                                 |
| \\      /  F ield         | OpenFOAM: The Open Source CFD Toolbox           |
|  \\    /   O peration     | Version:  4.x                                   |
|   \\  /    A nd           | Web:      www.OpenFOAM.org                      |
|    \\/     M anipulation  |                                                 |
\*---------------------------------------------------------------------------*/
FoamFile
{
    version     2.0;
    format      ascii;
    class       volScalarField;
    location    "55.5";
    object      QPartFluidCoeff;
}
// * * * * * * * * * * * * * * * * * * * * * * * * * * * * * * * * * * * * * //

dimensions      [1 -1 -3 -1 0 0 0];

internalField   nonuniform List<scalar> 
114
(
-2.379e+07
-1.86462e+07
-1.01795e+07
-1.99113e+07
-1.21225e+07
-1.53167e+07
-1.9384e+07
-2.31093e+07
-2.04411e+07
-1.45955e+07
-2.44614e+07
-1.66445e+07
-2.33211e+07
-2.23789e+07
-1.48994e+07
-1.2926e+07
-2.05627e+07
-1.69881e+07
-1.79852e+07
-1.93742e+07
-1.74959e+07
-2.26744e+07
-1.80158e+07
-2.17084e+07
-1.32855e+07
-1.33553e+07
-1.72001e+07
-1.51467e+07
-1.31969e+07
-1.36598e+07
-1.02056e+07
-1.78132e+07
-1.32723e+07
-3.28328e+07
-4.10105e+07
-2.20548e+07
-3.74447e+07
-1.57722e+07
-2.64586e+07
-3.19683e+07
-3.0576e+07
-2.95905e+07
-2.3272e+07
-3.71372e+07
-2.89636e+07
-2.1346e+07
-1.95297e+07
-3.33958e+07
-3.55363e+07
-3.06286e+07
-3.1404e+07
-2.95865e+07
-3.0572e+07
-2.96945e+07
-2.56364e+07
-1.68793e+07
-1.79467e+07
-2.78607e+07
-2.00991e+07
-2.53317e+07
-2.17879e+07
-2.23993e+07
-2.36814e+07
-1.60663e+07
-2.69399e+07
-3.10349e+07
-2.2866e+07
-1.91115e+07
-2.24745e+07
-2.28243e+07
-2.24895e+07
-2.54864e+07
-3.26917e+07
-2.3957e+07
-1.91055e+07
-1.6636e+07
-2.31715e+07
-3.02798e+07
-3.48568e+07
-3.05665e+07
-2.32717e+07
-3.15228e+07
-2.81734e+07
-3.40698e+07
-1.66953e+07
-2.53372e+07
-2.32686e+07
-2.49476e+07
-1.59295e+07
-2.27768e+07
-3.22978e+07
-1.77757e+07
-2.57698e+07
-1.63246e+07
-3.16313e+07
-3.43369e+07
-2.38671e+07
-2.7465e+07
-2.09465e+07
-2.52972e+07
-2.51481e+07
-1.95685e+07
-2.63995e+07
-3.50947e+07
-2.20976e+07
-3.04195e+07
-2.58031e+07
-3.43806e+07
-1.41934e+07
-2.10274e+07
-2.5044e+07
-2.41985e+07
-2.25231e+07
-2.17096e+07
)
;

boundaryField
{
    inlet
    {
        type            calculated;
        value           uniform 0;
    }
    outlet
    {
        type            calculated;
        value           nonuniform 0();
    }
    wall
    {
        type            calculated;
        value           uniform 0;
    }
    procBoundary2to0
    {
        type            processor;
        value           nonuniform List<scalar> 
44
(
382.819
420.56
369.67
300.877
390.916
643.094
225.051
342.686
265.185
265.185
416.593
855.224
509.622
794.975
521.453
479.954
601.802
532.059
589.115
416.593
855.224
855.224
608.119
663.586
485.544
407.816
521.85
655.479
723.548
680.408
753.94
608.119
663.586
663.586
424.847
198.533
364.949
509.463
743.904
775.167
417.628
747.012
649.451
424.847
)
;
    }
    procBoundary2to3
    {
        type            processor;
        value           nonuniform List<scalar> 
12
(
641.69
467.266
502.011
327.9
648.671
574.766
963.577
637.158
626.297
722.706
455.61
660.572
)
;
    }
    procBoundary2to6
    {
        type            processor;
        value           nonuniform List<scalar> 
32
(
613.845
516.711
678.434
431.204
471.67
425.436
752.36
677.022
459.825
603.886
837.654
460.41
658.753
613.845
516.711
504.716
476.404
696.634
617.914
771.854
668.832
659.343
516.711
431.204
661.125
353.629
573.145
450.451
464.033
657.628
431.204
713.265
)
;
    }
}


// ************************************************************************* //
