/*--------------------------------*- C++ -*----------------------------------*\
| =========                 |                                                 |
| \\      /  F ield         | OpenFOAM: The Open Source CFD Toolbox           |
|  \\    /   O peration     | Version:  4.x                                   |
|   \\  /    A nd           | Web:      www.OpenFOAM.org                      |
|    \\/     M anipulation  |                                                 |
\*---------------------------------------------------------------------------*/
FoamFile
{
    version     2.0;
    format      ascii;
    class       volScalarField;
    location    "0.5";
    object      Cs;
}
// * * * * * * * * * * * * * * * * * * * * * * * * * * * * * * * * * * * * * //

dimensions      [1 -3 0 0 0 0 0];

internalField   nonuniform List<scalar> 
114
(
335.114
335.116
335.127
335.149
335.17
335.424
335.23
335.314
335.269
335.245
335.199
335.13
335.33
335.214
335.258
335.263
335.256
335.208
335.147
335.081
335.112
335.008
335.028
335.044
335.061
335.082
335.114
335.155
335.166
335.181
335.169
335.215
335.233
335.251
335.229
335.214
335.154
335.104
335.154
335.159
335.211
335.245
335.259
335.253
335.217
335.143
335.065
335.037
335.108
335.15
335.005
335.023
335.042
335.068
335.1
335.142
335.178
335.162
335.181
335.15
335.181
335.195
335.2
335.198
335.183
335.14
335.091
335.006
335.128
335.168
335.197
335.212
335.227
335.222
335.162
335.079
335.117
335.075
335.148
335.184
335.223
334.949
334.965
334.992
335.024
335.056
335.086
335.111
335.12
335.301
334.99
335.012
335.046
335.086
335.129
335.166
335.175
335.124
335.079
335.001
335.018
335.028
335.04
335.057
335.088
335.137
335.151
335.161
334.998
335.02
335.034
335.043
335.049
335.055
)
;

boundaryField
{
    inlet
    {
        type            calculated;
        value           nonuniform 0();
    }
    outlet
    {
        type            calculated;
        value           uniform 335;
    }
    wall
    {
        type            calculated;
        value           nonuniform List<scalar> 
66
(
334.949
334.99
335.001
334.998
334.965
335.012
335.018
335.02
334.992
335.046
335.028
335.034
335.024
335.086
335.04
335.043
335.056
335.129
335.057
335.049
335.086
335.166
335.088
335.055
335.111
335.175
335.137
335.12
335.124
335.151
335.301
335.079
335.161
335.008
335.005
334.949
335.028
335.023
334.965
335.044
335.042
334.992
335.114
335.061
335.068
335.024
335.116
335.082
335.1
335.056
335.127
335.114
335.142
335.086
335.149
335.155
335.178
335.111
335.17
335.166
335.162
335.12
335.424
335.181
335.181
335.301
)
;
    }
    procBoundary5to1
    {
        type            processor;
        value           nonuniform List<scalar> 
32
(
335.154
335.145
335.165
335.199
335.217
336.35
335.328
335.545
335.346
335.289
335.234
335.173
335.342
335.26
335.249
335.043
335.215
335.212
335.168
335.14
335.222
335.014
335.048
335.082
335.082
335.082
335.171
335.205
335.205
335.205
335.164
335.164
)
;
    }
    procBoundary5to4
    {
        type            processor;
        value           nonuniform List<scalar> 
12
(
334.986
335.096
335.105
335.092
334.985
335.094
335.093
335.082
334.936
334.973
334.98
334.977
)
;
    }
    procBoundary5to7
    {
        type            processor;
        value           nonuniform List<scalar> 
44
(
335.107
335.146
335.179
335.252
335.279
335.254
335.145
335.773
335.109
335.107
335.205
335.24
335.261
335.242
335.168
335.041
334.941
335.131
335.205
335.191
335.205
335.24
335.228
335.197
335.143
335.04
334.935
335.093
335.173
335.218
335.228
335.233
335.228
335.197
335.071
335.089
335.228
335.015
335.036
335.051
335.073
335.114
335.071
335.182
)
;
    }
}


// ************************************************************************* //
