/*--------------------------------*- C++ -*----------------------------------*\
| =========                 |                                                 |
| \\      /  F ield         | OpenFOAM: The Open Source CFD Toolbox           |
|  \\    /   O peration     | Version:  4.x                                   |
|   \\  /    A nd           | Web:      www.OpenFOAM.org                      |
|    \\/     M anipulation  |                                                 |
\*---------------------------------------------------------------------------*/
FoamFile
{
    version     2.0;
    format      ascii;
    class       volScalarField;
    location    "0.5";
    object      KslNext;
}
// * * * * * * * * * * * * * * * * * * * * * * * * * * * * * * * * * * * * * //

dimensions      [1 -3 -1 0 0 0 0];

internalField   nonuniform List<scalar> 
114
(
1435.24
1204.43
1035.68
955.028
683.47
884.209
3930.22
11838.7
3900.94
3934.91
3412.28
1011.08
591.334
3468.38
1642.82
1447.32
613.884
829.121
531.934
1047.05
1008.51
2826.38
2253.16
2193.94
1785.8
1695.02
1516.42
1628.26
1357.54
1841.07
6150.07
8554.32
4603.41
10121.6
4896.69
6423.6
3829.66
2031.83
2784.5
4119.29
3829.76
2152.25
2069.26
1406.6
1929.94
1221.54
2126.33
2646.86
6645.67
12741.6
3881
3135
3185.29
2642.33
2902.28
2394.09
2902.7
1850.97
2158.91
7251.97
10818.4
6592.13
14808.7
6477.53
11121.1
6415.82
2887.43
2640.96
6013.32
7311.91
4198.04
6354.76
3998.99
7472.82
3502.7
2655.43
3801.85
11403.4
35638.9
6670.77
13193.3
2938.05
2684.67
2788.4
2413.08
2458.13
1950.29
2028.92
1166.32
2050.96
4103.17
3448.27
4085.75
3531.8
5726.51
3779.43
9429.32
2679.34
1978.41
3549.32
2805.74
2614.05
2131.25
2212.74
1874.8
2185.46
1849.18
1236.69
3146.33
2518.01
2273.5
1795.33
1624.97
1194.69
)
;

boundaryField
{
    inlet
    {
        type            zeroGradient;
    }
    outlet
    {
        type            zeroGradient;
    }
    wall
    {
        type            zeroGradient;
    }
    procBoundary5to1
    {
        type            processor;
        value           uniform 0;
    }
    procBoundary5to4
    {
        type            processor;
        value           uniform 0;
    }
    procBoundary5to7
    {
        type            processor;
        value           uniform 0;
    }
}


// ************************************************************************* //
