/*--------------------------------*- C++ -*----------------------------------*\
| =========                 |                                                 |
| \\      /  F ield         | OpenFOAM: The Open Source CFD Toolbox           |
|  \\    /   O peration     | Version:  4.x                                   |
|   \\  /    A nd           | Web:      www.OpenFOAM.org                      |
|    \\/     M anipulation  |                                                 |
\*---------------------------------------------------------------------------*/
FoamFile
{
    version     2.0;
    format      ascii;
    class       volScalarField;
    location    "0.5";
    object      magGField;
}
// * * * * * * * * * * * * * * * * * * * * * * * * * * * * * * * * * * * * * //

dimensions      [1 -2 -1 0 0 0 0];

internalField   nonuniform List<scalar> 
114
(
678.575
692.558
757.266
644.762
697.744
275.497
177.588
51.9365
128.443
112.254
100.479
275.283
253.546
175.558
271.49
207.758
308.08
186.076
262.06
128.488
110.663
453.915
560.543
570.269
647.646
604.099
611.897
462.238
401.526
191.981
179.493
120.837
204.043
84.3188
150.249
100.524
135.028
196.984
98.621
229.425
221.275
322.651
277.557
334.256
206.734
256.164
121.643
73.0442
140.884
65.7508
382.339
464.128
442.694
488.789
398.179
415.998
277.343
337.158
201.668
181.686
118.05
181.05
74.2685
148.354
74.138
104.382
183.456
147.983
197.649
153.495
243.212
145.811
202.413
94.4867
163.516
172.984
92.3984
103.78
31.2007
152.527
69.5314
522.364
570.348
528.414
561.783
491.971
549.752
440.825
628.769
247.376
357.681
424.417
335.981
356.103
194.49
253.658
84.1235
235.285
238.658
391.823
487.848
488.875
560.478
496.784
505.828
366.817
346.474
405.82
441.584
543.874
577.094
700.614
731.717
843.541
)
;

boundaryField
{
    inlet
    {
        type            calculated;
        value           nonuniform 0();
    }
    outlet
    {
        type            calculated;
        value           nonuniform List<scalar> 
12
(
604.779
557.772
244.517
422.301
217.994
161.698
444.453
326.817
206.141
543.476
526.142
899.968
)
;
    }
    wall
    {
        type            calculated;
        value           uniform 0;
    }
    procBoundary5to1
    {
        type            processor;
        value           nonuniform List<scalar> 
32
(
553.352
530.599
583.89
499.424
651.964
304.075
241.085
141.554
225.093
57.2107
136.71
230.452
285.369
252.223
362.122
311.489
371.051
262.502
297.849
141.576
109.232
451.618
550.272
576.299
576.299
576.299
177.303
110.728
110.728
110.728
212.942
212.942
)
;
    }
    procBoundary5to4
    {
        type            processor;
        value           nonuniform List<scalar> 
12
(
421.966
85.5599
125.132
52.1731
386.711
88.3509
109.09
46.2092
501.991
375.697
382.199
422.544
)
;
    }
    procBoundary5to7
    {
        type            processor;
        value           nonuniform List<scalar> 
44
(
86.6236
87.2191
94.2763
115.279
72.5414
114.651
129.586
53.788
76.5944
86.6236
184.107
127.249
264.15
160.966
258.409
102.709
132.424
211.569
184.107
190.982
184.107
127.249
197.626
34.9065
145.371
290.964
544.055
230.597
191.673
259.799
197.626
181.479
197.626
34.9065
771.189
958.732
409.993
270.876
318.858
216.324
279.137
139.724
771.189
206.219
)
;
    }
}


// ************************************************************************* //
