/*--------------------------------*- C++ -*----------------------------------*\
| =========                 |                                                 |
| \\      /  F ield         | OpenFOAM: The Open Source CFD Toolbox           |
|  \\    /   O peration     | Version:  4.x                                   |
|   \\  /    A nd           | Web:      www.OpenFOAM.org                      |
|    \\/     M anipulation  |                                                 |
\*---------------------------------------------------------------------------*/
FoamFile
{
    version     2.0;
    format      ascii;
    class       volScalarField;
    location    "0.5";
    object      nu;
}
// * * * * * * * * * * * * * * * * * * * * * * * * * * * * * * * * * * * * * //

dimensions      [0 2 -1 0 0 0 0];

internalField   nonuniform List<scalar> 
114
(
9.99661e-07
9.99654e-07
9.99621e-07
9.99555e-07
9.99493e-07
9.98737e-07
9.99314e-07
9.99062e-07
9.99197e-07
9.99268e-07
9.99406e-07
9.99613e-07
9.99017e-07
9.99361e-07
9.9923e-07
9.99214e-07
9.99237e-07
9.9938e-07
9.9956e-07
9.99757e-07
9.99666e-07
9.99976e-07
9.99915e-07
9.99867e-07
9.99819e-07
9.99756e-07
9.99659e-07
9.99538e-07
9.99504e-07
9.9946e-07
9.99497e-07
9.99359e-07
9.99305e-07
9.9925e-07
9.99316e-07
9.99363e-07
9.9954e-07
9.9969e-07
9.9954e-07
9.99527e-07
9.99371e-07
9.99269e-07
9.99227e-07
9.99246e-07
9.99351e-07
9.99573e-07
9.99806e-07
9.99891e-07
9.99678e-07
9.99551e-07
9.99985e-07
9.9993e-07
9.99874e-07
9.99797e-07
9.99701e-07
9.99576e-07
9.9947e-07
9.99518e-07
9.9946e-07
9.99552e-07
9.99459e-07
9.99419e-07
9.99403e-07
9.9941e-07
9.99454e-07
9.99583e-07
9.99729e-07
9.99983e-07
9.99617e-07
9.99498e-07
9.99413e-07
9.99367e-07
9.99323e-07
9.99338e-07
9.99517e-07
9.99764e-07
9.99652e-07
9.99775e-07
9.99557e-07
9.9945e-07
9.99334e-07
1.00015e-06
1.0001e-06
1.00002e-06
9.99927e-07
9.99833e-07
9.99744e-07
9.99667e-07
9.99643e-07
9.99102e-07
1.00003e-06
9.99965e-07
9.99863e-07
9.99743e-07
9.99615e-07
9.99505e-07
9.99476e-07
9.9963e-07
9.99766e-07
9.99998e-07
9.99947e-07
9.99916e-07
9.9988e-07
9.99829e-07
9.99737e-07
9.99592e-07
9.99549e-07
9.9952e-07
1.00001e-06
9.9994e-07
9.99899e-07
9.99872e-07
9.99854e-07
9.99835e-07
)
;

boundaryField
{
    inlet
    {
        type            calculated;
        value           nonuniform 0();
    }
    outlet
    {
        type            calculated;
        value           uniform 1e-06;
    }
    wall
    {
        type            calculated;
        value           nonuniform List<scalar> 
66
(
1.00015e-06
1.00003e-06
9.99998e-07
1.00001e-06
1.0001e-06
9.99965e-07
9.99947e-07
9.9994e-07
1.00002e-06
9.99863e-07
9.99916e-07
9.99899e-07
9.99927e-07
9.99743e-07
9.9988e-07
9.99872e-07
9.99833e-07
9.99615e-07
9.99829e-07
9.99854e-07
9.99744e-07
9.99505e-07
9.99737e-07
9.99835e-07
9.99667e-07
9.99476e-07
9.99592e-07
9.99643e-07
9.9963e-07
9.99549e-07
9.99102e-07
9.99766e-07
9.9952e-07
9.99976e-07
9.99985e-07
1.00015e-06
9.99915e-07
9.9993e-07
1.0001e-06
9.99867e-07
9.99874e-07
1.00002e-06
9.99661e-07
9.99819e-07
9.99797e-07
9.99927e-07
9.99654e-07
9.99756e-07
9.99701e-07
9.99833e-07
9.99621e-07
9.99659e-07
9.99576e-07
9.99744e-07
9.99555e-07
9.99538e-07
9.9947e-07
9.99667e-07
9.99493e-07
9.99504e-07
9.99518e-07
9.99643e-07
9.98737e-07
9.9946e-07
9.9946e-07
9.99102e-07
)
;
    }
    procBoundary5to1
    {
        type            processor;
        value           nonuniform List<scalar> 
32
(
9.9954e-07
9.99566e-07
9.99507e-07
9.99407e-07
9.99353e-07
9.95987e-07
9.99022e-07
9.98375e-07
9.98969e-07
9.99139e-07
9.99301e-07
9.99483e-07
9.9898e-07
9.99224e-07
9.99257e-07
9.99871e-07
9.99359e-07
9.99366e-07
9.99498e-07
9.99582e-07
9.99338e-07
9.99958e-07
9.99857e-07
9.99756e-07
9.99756e-07
9.99756e-07
9.99491e-07
9.99389e-07
9.99389e-07
9.99389e-07
9.9951e-07
9.9951e-07
)
;
    }
    procBoundary5to4
    {
        type            processor;
        value           nonuniform List<scalar> 
12
(
1.00004e-06
9.99712e-07
9.99686e-07
9.99725e-07
1.00004e-06
9.9972e-07
9.99723e-07
9.99754e-07
1.00019e-06
1.00008e-06
1.00006e-06
1.00007e-06
)
;
    }
    procBoundary5to7
    {
        type            processor;
        value           nonuniform List<scalar> 
44
(
9.9968e-07
9.99566e-07
9.99466e-07
9.99248e-07
9.99169e-07
9.99243e-07
9.99568e-07
9.97697e-07
9.99674e-07
9.9968e-07
9.99388e-07
9.99285e-07
9.9922e-07
9.99279e-07
9.995e-07
9.99879e-07
1.00018e-06
9.99609e-07
9.99388e-07
9.99429e-07
9.99388e-07
9.99285e-07
9.9932e-07
9.99413e-07
9.99575e-07
9.9988e-07
1.00019e-06
9.99722e-07
9.99485e-07
9.99349e-07
9.9932e-07
9.99304e-07
9.9932e-07
9.99413e-07
9.99788e-07
9.99735e-07
9.9932e-07
9.99954e-07
9.99892e-07
9.99848e-07
9.99781e-07
9.9966e-07
9.99788e-07
9.99456e-07
)
;
    }
}


// ************************************************************************* //
