/*--------------------------------*- C++ -*----------------------------------*\
| =========                 |                                                 |
| \\      /  F ield         | OpenFOAM: The Open Source CFD Toolbox           |
|  \\    /   O peration     | Version:  4.x                                   |
|   \\  /    A nd           | Web:      www.OpenFOAM.org                      |
|    \\/     M anipulation  |                                                 |
\*---------------------------------------------------------------------------*/
FoamFile
{
    version     2.0;
    format      ascii;
    class       volScalarField;
    location    "0.5";
    object      UsWeightField_;
}
// * * * * * * * * * * * * * * * * * * * * * * * * * * * * * * * * * * * * * //

dimensions      [0 0 0 0 0 0 0];

internalField   nonuniform List<scalar> 
114
(
3.03448
3.58621
2.82759
3
3.37931
3.75862
2.93103
2.48276
2.68966
3
3.65517
3.7931
3.51724
3.65517
2.82759
3.31034
2.44828
2.17241
3.10345
2.55172
3.86207
2.7931
2.13793
3.10345
2.44828
2.82759
3.03448
3.17241
2.37931
2.7931
3.17241
3.03448
3.68966
3.10345
3.89655
3.65517
2.34483
3.82759
3.06897
3.62069
2.03448
3.24138
3.37931
2.75862
3
3.31034
3.06897
2.48276
4.31034
2.10345
3.72414
3.51724
3.06897
3.34483
3.03448
3.13793
3.10345
3.24138
2.93103
2.58621
3.68966
2.62069
3.34483
3.17241
3.13793
3.89655
3
2.51724
3.58621
2.75862
3.06897
2.7931
4.51724
3.27586
3.65517
3.86207
3.7931
1.58621
4.13793
4
3.58621
1.2069
3.03448
2.06897
3.17241
2.65517
2.27586
3.10345
2.7931
2.68966
2.68966
3.06897
1.86207
2.48276
3.31034
2.89655
2.03448
3.13793
2.68966
2.7931
2.65517
3.93103
2.82759
2.89655
3.44828
2.89655
3
3.03448
3.2069
2.44828
3.10345
2.55172
4.37931
3.58621
)
;

boundaryField
{
    inlet
    {
        type            calculated;
        value           nonuniform 0();
    }
    outlet
    {
        type            calculated;
        value           uniform 0;
    }
    wall
    {
        type            calculated;
        value           uniform 0;
    }
    procBoundary5to1
    {
        type            processor;
        value           uniform 0;
    }
    procBoundary5to4
    {
        type            processor;
        value           uniform 0;
    }
    procBoundary5to7
    {
        type            processor;
        value           uniform 0;
    }
}


// ************************************************************************* //
