/*--------------------------------*- C++ -*----------------------------------*\
| =========                 |                                                 |
| \\      /  F ield         | OpenFOAM: The Open Source CFD Toolbox           |
|  \\    /   O peration     | Version:  4.x                                   |
|   \\  /    A nd           | Web:      www.OpenFOAM.org                      |
|    \\/     M anipulation  |                                                 |
\*---------------------------------------------------------------------------*/
FoamFile
{
    version     2.0;
    format      ascii;
    class       volScalarField;
    location    "29";
    object      Ksl;
}
// * * * * * * * * * * * * * * * * * * * * * * * * * * * * * * * * * * * * * //

dimensions      [1 -3 -1 0 0 0 0];

internalField   nonuniform List<scalar> 
114
(
6320.79
3168.38
5593.89
3069.65
5191.16
2936.51
3409.76
7983.53
3333.74
6850.61
3273.8
6253.99
3191.36
5937.95
3078.58
3353.28
7531.29
3232.78
6179.72
3146.76
5518.98
3046.4
5154.28
2935.29
3300.66
6728.81
3095.8
5251.2
2908.89
4477
2733.72
4030.49
2621.51
12320.2
3683.29
14195.7
3589.13
3456.18
9672.74
3596.97
11150.5
3682.73
13069.3
3704.44
15692.2
3616.39
3418.87
9109.12
3530.81
9608.83
3549.33
10174.4
3544.14
11276.6
3478.66
3345.37
7527.09
3302.43
6521.59
3173.7
5890.05
3082.05
5516.82
2967.53
415309
3865.72
3501.71
10384.4
3695.22
13946.8
3781.54
19352.1
3796.27
27356.3
3745.23
3438.54
10018.6
3635.31
12886.3
3717.41
17307.2
3753.38
28813.9
3721.64
3369.69
8098.95
3383.92
7521.75
3303.31
7014.43
3283.87
6880.32
3190.43
3530.77
11117.9
3777.34
16221.3
3849.53
24447.1
3864.46
40512.8
3478.58
9841.96
3674.24
11929.5
3718.57
14205.5
3693.45
3371.5
7920.62
3404.15
7502.74
3351.62
7093.3
)
;

boundaryField
{
    inlet
    {
        type            zeroGradient;
    }
    outlet
    {
        type            zeroGradient;
    }
    wall
    {
        type            zeroGradient;
    }
    procBoundary2to0
    {
        type            processor;
        value           nonuniform List<scalar> 
44
(
6369.77
3191.05
5705.46
3078.37
5353.27
3036.62
3369.92
7600.84
3240.68
3240.68
10435.6
3658.71
12670.9
3689.44
16896.5
3648.01
3489.84
9557.27
3568.62
10435.6
3658.71
3658.71
62370.6
3932.14
87957.6
3810.96
3531.16
11909.6
3781.74
21827.7
3912.01
62370.6
3932.14
3932.14
44408.4
3900.35
3533.24
11074.9
3819.3
17721.5
3916.12
28559.9
3948.78
44408.4
)
;
    }
    procBoundary2to3
    {
        type            processor;
        value           nonuniform List<scalar> 
12
(
5058.54
5851.33
4957.43
3745.08
16909.3
18058.6
13063.1
5337.74
5.69269e+07
48927.8
65843.1
6909.42
)
;
    }
    procBoundary2to6
    {
        type            processor;
        value           nonuniform List<scalar> 
32
(
3868.44
16596.5
3635.47
3255.48
6776.41
3175.06
3575.26
11941.1
3826.49
21546.1
3924.76
52355
3936.51
3868.44
16596.5
1e+10
3485.89
10689.8
3679.65
15278.1
3768.88
24374.4
16596.5
3255.48
3789.47
3372.01
8078.32
3386.6
7878.85
3409
3255.48
8138.4
)
;
    }
}


// ************************************************************************* //
