/*--------------------------------*- C++ -*----------------------------------*\
| =========                 |                                                 |
| \\      /  F ield         | OpenFOAM: The Open Source CFD Toolbox           |
|  \\    /   O peration     | Version:  4.x                                   |
|   \\  /    A nd           | Web:      www.OpenFOAM.org                      |
|    \\/     M anipulation  |                                                 |
\*---------------------------------------------------------------------------*/
FoamFile
{
    version     2.0;
    format      ascii;
    class       volScalarField;
    location    "29";
    object      QPartFluid;
}
// * * * * * * * * * * * * * * * * * * * * * * * * * * * * * * * * * * * * * //

dimensions      [1 -1 -3 0 0 0 0];

internalField   nonuniform List<scalar> 
114
(
7.14215e+09
5.59337e+09
3.06548e+09
5.98096e+09
3.64791e+09
4.61203e+09
5.81377e+09
6.93911e+09
6.13559e+09
4.39372e+09
7.35529e+09
5.02105e+09
7.03421e+09
6.78307e+09
4.50401e+09
3.87842e+09
6.16879e+09
5.09629e+09
5.39549e+09
5.81433e+09
5.25105e+09
6.80714e+09
5.41229e+09
6.52561e+09
3.9847e+09
4.00725e+09
5.16019e+09
4.54852e+09
3.95864e+09
4.10506e+09
3.06041e+09
5.34838e+09
3.98505e+09
9.85299e+09
1.226e+10
6.62402e+09
1.12245e+10
4.73023e+09
7.95036e+09
9.60269e+09
9.21583e+09
8.91166e+09
7.08271e+09
1.12298e+10
8.83588e+09
6.465e+09
5.85951e+09
1.0019e+10
1.06662e+10
9.19707e+09
9.436e+09
8.88035e+09
9.18931e+09
8.91009e+09
7.72449e+09
5.06284e+09
5.38549e+09
8.35692e+09
6.03094e+09
7.59936e+09
6.54051e+09
6.72073e+09
7.10956e+09
4.8265e+09
7.75623e+09
9.16117e+09
6.86001e+09
5.74796e+09
6.75207e+09
6.89679e+09
6.77651e+09
7.78076e+09
9.86084e+09
7.3125e+09
5.77764e+09
4.99253e+09
6.95423e+09
9.09774e+09
1.04833e+10
9.19683e+09
7.01816e+09
9.49973e+09
8.50437e+09
1.02617e+10
5.0087e+09
7.60593e+09
6.98455e+09
7.50218e+09
4.78345e+09
6.84551e+09
9.71085e+09
5.37971e+09
7.75274e+09
4.89342e+09
9.49714e+09
1.03023e+10
7.19469e+09
8.24183e+09
6.30667e+09
7.58035e+09
7.63658e+09
5.8697e+09
7.90729e+09
1.05154e+10
6.60083e+09
9.10472e+09
7.65317e+09
1.02942e+10
4.25583e+09
6.30606e+09
7.50455e+09
7.24487e+09
6.74037e+09
6.4818e+09
)
;

boundaryField
{
    inlet
    {
        type            calculated;
        value           uniform 0;
    }
    outlet
    {
        type            calculated;
        value           nonuniform 0();
    }
    wall
    {
        type            calculated;
        value           uniform 0;
    }
    procBoundary2to0
    {
        type            processor;
        value           nonuniform List<scalar> 
44
(
5.07556e+09
5.57589e+09
4.90752e+09
3.99847e+09
5.19338e+09
8.53312e+09
2.9779e+09
4.53492e+09
3.50893e+09
3.50893e+09
5.50882e+09
1.13205e+10
6.7856e+09
1.05307e+10
6.92319e+09
6.35353e+09
7.96269e+09
7.04288e+09
7.79263e+09
5.50882e+09
1.13205e+10
1.13205e+10
7.91894e+09
8.65695e+09
6.22841e+09
5.34218e+09
6.90134e+09
8.62714e+09
9.53139e+09
8.85121e+09
9.89367e+09
7.91894e+09
8.65695e+09
8.65695e+09
5.50812e+09
2.58972e+09
4.82197e+09
6.72449e+09
9.80327e+09
1.02014e+10
5.47149e+09
9.76669e+09
8.47035e+09
5.50812e+09
)
;
    }
    procBoundary2to3
    {
        type            processor;
        value           nonuniform List<scalar> 
12
(
8.48576e+09
6.30949e+09
6.64501e+09
4.34964e+09
8.55894e+09
7.79583e+09
1.27473e+10
8.43424e+09
8.08946e+09
9.69777e+09
6.05449e+09
8.79958e+09
)
;
    }
    procBoundary2to6
    {
        type            processor;
        value           nonuniform List<scalar> 
32
(
8.09013e+09
6.70132e+09
8.91022e+09
5.68631e+09
6.2066e+09
5.60703e+09
9.95786e+09
8.9709e+09
6.10231e+09
8.07768e+09
1.11232e+10
6.21804e+09
8.75137e+09
8.09013e+09
6.70132e+09
6.67853e+09
6.30467e+09
9.22443e+09
8.18608e+09
1.02442e+10
8.86716e+09
8.767e+09
6.70132e+09
5.68631e+09
8.77317e+09
4.67814e+09
7.58894e+09
5.96255e+09
6.14986e+09
8.71658e+09
5.68631e+09
9.48041e+09
)
;
    }
}


// ************************************************************************* //
