/*--------------------------------*- C++ -*----------------------------------*\
| =========                 |                                                 |
| \\      /  F ield         | OpenFOAM: The Open Source CFD Toolbox           |
|  \\    /   O peration     | Version:  4.x                                   |
|   \\  /    A nd           | Web:      www.OpenFOAM.org                      |
|    \\/     M anipulation  |                                                 |
\*---------------------------------------------------------------------------*/
FoamFile
{
    version     2.0;
    format      ascii;
    class       volVectorField;
    location    "29";
    object      UsNext;
}
// * * * * * * * * * * * * * * * * * * * * * * * * * * * * * * * * * * * * * //

dimensions      [0 1 -1 0 0 0 0];

internalField   nonuniform List<vector> 
114
(
(5.11839e-09 -3.09283e-10 -5.01382e-09)
(8.80523e-09 -1.41077e-09 -5.40443e-09)
(1.15198e-08 -2.05982e-09 -6.83395e-09)
(1.40168e-08 -1.43816e-09 -8.60939e-09)
(1.3054e-08 -3.65835e-09 -7.60103e-09)
(1.24109e-08 -3.49103e-09 -6.71495e-09)
(-6.10196e-09 2.14757e-09 -1.20923e-09)
(1.24611e-09 -6.91255e-11 -2.71417e-09)
(2.46859e-09 2.51896e-10 -4.01635e-09)
(4.10909e-09 2.77054e-10 -5.05372e-09)
(6.11147e-09 1.20561e-09 -5.92027e-09)
(1.02166e-08 -9.85697e-10 -6.94883e-09)
(1.26906e-08 -1.23036e-09 -7.24368e-09)
(1.19147e-08 -3.88603e-09 -7.04748e-09)
(1.15811e-08 -6.93722e-10 -6.32236e-09)
(-1.25267e-10 2.9712e-10 -1.53915e-09)
(9.5174e-10 4.7705e-10 -2.10339e-09)
(2.10259e-09 3.04558e-10 -3.50474e-09)
(4.57209e-09 6.62341e-10 -3.02766e-09)
(6.10313e-09 1.13679e-09 -3.91212e-09)
(9.40335e-09 2.72448e-11 -5.11007e-09)
(1.20417e-08 2.88475e-09 -5.09113e-09)
(1.38015e-08 -1.26626e-09 -4.99586e-09)
(1.12463e-08 3.67362e-10 -3.69225e-09)
(-2.00578e-09 2.42359e-10 -1.05926e-09)
(6.89132e-10 2.26631e-10 -1.39586e-09)
(6.65118e-10 1.80065e-10 -2.15155e-09)
(3.84766e-09 -2.03802e-09 -2.03798e-09)
(3.16742e-09 1.39632e-09 -2.49558e-09)
(4.44422e-09 1.24545e-10 -2.59123e-09)
(8.08027e-09 2.39955e-09 -1.68709e-09)
(9.48567e-09 1.98684e-09 -3.87999e-09)
(9.46229e-09 -2.36934e-10 -2.61427e-09)
(1.12345e-08 -1.36934e-09 -7.92672e-09)
(1.18588e-08 -1.2604e-09 -9.50026e-09)
(1.16345e-08 -2.30095e-09 -7.20368e-09)
(1.15492e-08 -2.31478e-09 -7.65335e-09)
(2.60243e-10 9.96205e-11 -1.19206e-09)
(1.62656e-09 -2.59873e-11 -2.47045e-09)
(2.94714e-09 1.47652e-10 -3.84442e-09)
(4.97964e-09 -2.72608e-10 -4.85221e-09)
(6.32922e-09 4.33886e-10 -6.13536e-09)
(9.75484e-09 1.53836e-12 -7.55256e-09)
(1.16186e-08 1.27662e-10 -7.31481e-09)
(1.07924e-08 -2.45508e-09 -7.00796e-09)
(1.12316e-08 -8.9746e-10 -6.87392e-09)
(3.3939e-10 -3.17111e-11 -1.18617e-09)
(1.1028e-09 -9.80872e-11 -1.68011e-09)
(2.31565e-09 1.88931e-10 -3.1679e-09)
(3.73452e-09 3.39489e-10 -3.44328e-09)
(5.22152e-09 2.64284e-10 -4.37044e-09)
(8.08971e-09 -3.66853e-11 -4.45757e-09)
(1.11467e-08 1.07289e-10 -5.20342e-09)
(1.16868e-08 -6.79951e-10 -4.76917e-09)
(1.19753e-08 1.14916e-10 -4.02082e-09)
(-1.18378e-11 -7.75667e-11 -6.51503e-10)
(4.37272e-10 -2.14401e-12 -1.00713e-09)
(9.28314e-10 6.23661e-11 -1.32585e-09)
(2.02731e-09 1.06972e-10 -1.53205e-09)
(2.86423e-09 2.26944e-10 -2.28366e-09)
(3.98518e-09 2.78115e-10 -2.31991e-09)
(6.29983e-09 3.32951e-10 -1.62315e-09)
(7.16061e-09 9.05958e-11 -2.4118e-09)
(6.39025e-09 1.2521e-10 -9.75155e-10)
(7.56038e-09 -2.52577e-09 -9.30602e-09)
(8.67731e-09 -7.67654e-10 -8.89076e-09)
(1.93253e-11 1.04635e-10 -1.57911e-09)
(1.0125e-09 1.20005e-10 -3.10059e-09)
(2.19884e-09 1.1343e-10 -4.27871e-09)
(3.48904e-09 -1.44324e-10 -5.30838e-09)
(5.89046e-09 -2.19019e-10 -6.56561e-09)
(7.32354e-09 -1.5673e-10 -7.14193e-09)
(8.44804e-09 1.12376e-09 -7.00898e-09)
(8.44374e-09 -2.22458e-09 -7.02099e-09)
(9.59275e-09 -1.72184e-09 -6.90531e-09)
(2.44985e-10 6.32914e-11 -8.90706e-10)
(1.55982e-09 4.31428e-10 -2.98254e-09)
(2.58709e-09 2.81426e-11 -3.60961e-09)
(3.23892e-09 6.44033e-11 -4.0993e-09)
(4.88487e-09 3.0581e-10 -5.17145e-09)
(7.08059e-09 -5.27732e-11 -4.74956e-09)
(8.78649e-09 4.18332e-10 -4.37889e-09)
(9.51585e-09 -6.84248e-10 -5.32488e-09)
(1.04176e-08 6.65065e-10 -4.9552e-09)
(1.54764e-11 -7.78616e-11 -7.80499e-10)
(1.01651e-09 -2.34951e-11 -1.53617e-09)
(1.2948e-09 9.12224e-11 -1.66396e-09)
(3.06183e-09 3.4212e-10 -2.39041e-09)
(2.57023e-09 -2.13502e-10 -2.37034e-09)
(3.49544e-09 -3.71522e-10 -2.23274e-09)
(5.05848e-09 -7.91561e-10 -3.07674e-09)
(5.91988e-09 -8.56061e-10 -2.46918e-09)
(6.91497e-09 5.53611e-10 -2.57437e-09)
(-8.57411e-11 3.31914e-10 -1.37235e-09)
(-9.98425e-11 1.05383e-09 -3.15562e-09)
(6.50814e-11 1.05013e-09 -4.3221e-09)
(5.84108e-10 9.12898e-10 -4.75131e-09)
(2.18565e-09 1.9982e-10 -6.02074e-09)
(2.60583e-09 8.06634e-10 -5.58811e-09)
(4.42084e-09 1.51137e-09 -5.56572e-09)
(3.75013e-09 1.30767e-09 -5.79557e-09)
(5.27221e-11 1.95459e-10 -8.26082e-10)
(6.31812e-10 7.23616e-10 -2.81528e-09)
(7.59528e-10 8.64114e-10 -2.99594e-09)
(1.38353e-09 2.82276e-10 -3.67864e-09)
(2.77363e-09 6.66073e-10 -4.69979e-09)
(4.22587e-09 1.0817e-10 -4.48845e-09)
(5.1126e-09 2.72914e-10 -3.56218e-09)
(1.25864e-10 4.26381e-12 -5.2007e-10)
(8.16361e-10 -6.06005e-11 -1.47759e-09)
(1.31594e-09 1.8778e-10 -2.16952e-09)
(1.45152e-09 1.72023e-10 -1.82271e-09)
(1.65342e-09 1.28926e-11 -2.43299e-09)
(2.36134e-09 -1.5513e-10 -1.90376e-09)
)
;

boundaryField
{
    inlet
    {
        type            calculated;
        value           nonuniform List<vector> 
12
(
(-6.10196e-09 2.14757e-09 -1.20923e-09)
(-1.25267e-10 2.9712e-10 -1.53915e-09)
(-2.00578e-09 2.42359e-10 -1.05926e-09)
(2.60243e-10 9.96205e-11 -1.19206e-09)
(3.3939e-10 -3.17111e-11 -1.18617e-09)
(-1.18378e-11 -7.75667e-11 -6.51503e-10)
(1.93253e-11 1.04635e-10 -1.57911e-09)
(2.44985e-10 6.32914e-11 -8.90706e-10)
(1.54764e-11 -7.78616e-11 -7.80499e-10)
(-8.57411e-11 3.31914e-10 -1.37235e-09)
(5.27221e-11 1.95459e-10 -8.26082e-10)
(1.25864e-10 4.26381e-12 -5.2007e-10)
)
;
    }
    outlet
    {
        type            calculated;
        value           nonuniform 0();
    }
    wall
    {
        type            calculated;
        value           nonuniform List<vector> 
66
(
(-6.10196e-09 2.14757e-09 -1.20923e-09)
(-1.25267e-10 2.9712e-10 -1.53915e-09)
(-2.00578e-09 2.42359e-10 -1.05926e-09)
(1.24611e-09 -6.91255e-11 -2.71417e-09)
(9.5174e-10 4.7705e-10 -2.10339e-09)
(6.89132e-10 2.26631e-10 -1.39586e-09)
(2.46859e-09 2.51896e-10 -4.01635e-09)
(2.10259e-09 3.04558e-10 -3.50474e-09)
(6.65118e-10 1.80065e-10 -2.15155e-09)
(5.11839e-09 -3.09283e-10 -5.01382e-09)
(4.10909e-09 2.77054e-10 -5.05372e-09)
(4.57209e-09 6.62341e-10 -3.02766e-09)
(3.84766e-09 -2.03802e-09 -2.03798e-09)
(8.80523e-09 -1.41077e-09 -5.40443e-09)
(6.11147e-09 1.20561e-09 -5.92027e-09)
(6.10313e-09 1.13679e-09 -3.91212e-09)
(3.16742e-09 1.39632e-09 -2.49558e-09)
(1.15198e-08 -2.05982e-09 -6.83395e-09)
(1.02166e-08 -9.85697e-10 -6.94883e-09)
(9.40335e-09 2.72448e-11 -5.11007e-09)
(4.44422e-09 1.24545e-10 -2.59123e-09)
(1.40168e-08 -1.43816e-09 -8.60939e-09)
(1.26906e-08 -1.23036e-09 -7.24368e-09)
(1.20417e-08 2.88475e-09 -5.09113e-09)
(8.08027e-09 2.39955e-09 -1.68709e-09)
(1.3054e-08 -3.65835e-09 -7.60103e-09)
(1.19147e-08 -3.88603e-09 -7.04748e-09)
(1.38015e-08 -1.26626e-09 -4.99586e-09)
(9.48567e-09 1.98684e-09 -3.87999e-09)
(1.24109e-08 -3.49103e-09 -6.71495e-09)
(1.15811e-08 -6.93722e-10 -6.32236e-09)
(1.12463e-08 3.67362e-10 -3.69225e-09)
(9.46229e-09 -2.36934e-10 -2.61427e-09)
(-2.00578e-09 2.42359e-10 -1.05926e-09)
(-1.18378e-11 -7.75667e-11 -6.51503e-10)
(1.54764e-11 -7.78616e-11 -7.80499e-10)
(1.25864e-10 4.26381e-12 -5.2007e-10)
(6.89132e-10 2.26631e-10 -1.39586e-09)
(4.37272e-10 -2.14401e-12 -1.00713e-09)
(1.01651e-09 -2.34951e-11 -1.53617e-09)
(8.16361e-10 -6.06005e-11 -1.47759e-09)
(6.65118e-10 1.80065e-10 -2.15155e-09)
(9.28314e-10 6.23661e-11 -1.32585e-09)
(1.2948e-09 9.12224e-11 -1.66396e-09)
(1.31594e-09 1.8778e-10 -2.16952e-09)
(3.84766e-09 -2.03802e-09 -2.03798e-09)
(2.02731e-09 1.06972e-10 -1.53205e-09)
(3.06183e-09 3.4212e-10 -2.39041e-09)
(1.45152e-09 1.72023e-10 -1.82271e-09)
(3.16742e-09 1.39632e-09 -2.49558e-09)
(2.86423e-09 2.26944e-10 -2.28366e-09)
(2.57023e-09 -2.13502e-10 -2.37034e-09)
(1.65342e-09 1.28926e-11 -2.43299e-09)
(4.44422e-09 1.24545e-10 -2.59123e-09)
(3.98518e-09 2.78115e-10 -2.31991e-09)
(3.49544e-09 -3.71522e-10 -2.23274e-09)
(2.36134e-09 -1.5513e-10 -1.90376e-09)
(8.08027e-09 2.39955e-09 -1.68709e-09)
(6.29983e-09 3.32951e-10 -1.62315e-09)
(5.05848e-09 -7.91561e-10 -3.07674e-09)
(9.48567e-09 1.98684e-09 -3.87999e-09)
(7.16061e-09 9.05958e-11 -2.4118e-09)
(5.91988e-09 -8.56061e-10 -2.46918e-09)
(9.46229e-09 -2.36934e-10 -2.61427e-09)
(6.39025e-09 1.2521e-10 -9.75155e-10)
(6.91497e-09 5.53611e-10 -2.57437e-09)
)
;
    }
    procBoundary2to0
    {
        type            processor;
        value           nonuniform List<vector> 
44
(
(6.66388e-09 -4.97084e-10 -4.66105e-09)
(8.74869e-09 -1.82382e-09 -5.41068e-09)
(1.13158e-08 -3.55246e-09 -8.60538e-09)
(1.39665e-08 -3.82885e-09 -1.05735e-08)
(1.55592e-08 -5.42297e-09 -8.51073e-09)
(1.03229e-08 -2.64815e-09 -5.06473e-09)
(-4.49906e-11 3.81819e-10 -1.08686e-09)
(2.12463e-09 9.50041e-11 -2.7149e-09)
(2.9134e-09 -3.1555e-11 -3.70134e-09)
(2.9134e-09 -3.1555e-11 -3.70134e-09)
(7.27637e-09 -6.91634e-10 -4.66992e-09)
(8.68654e-09 -2.43887e-10 -7.37002e-09)
(1.20053e-08 -2.34587e-09 -8.15305e-09)
(1.25645e-08 -3.45023e-09 -1.01408e-08)
(1.1212e-08 -3.12436e-09 -8.73412e-09)
(9.20162e-09 -6.09572e-10 -6.55921e-09)
(7.92785e-10 2.36229e-10 -1.20095e-09)
(2.48636e-09 1.89354e-10 -2.26692e-09)
(4.32413e-09 9.41744e-11 -3.88521e-09)
(7.27637e-09 -6.91634e-10 -4.66992e-09)
(8.68654e-09 -2.43887e-10 -7.37002e-09)
(8.68654e-09 -2.43887e-10 -7.37002e-09)
(8.3537e-09 -9.34691e-10 -9.41843e-09)
(7.38741e-09 -2.09039e-10 -9.65959e-09)
(5.53758e-09 1.32671e-10 -8.77569e-09)
(3.55032e-09 2.68697e-09 -5.21363e-09)
(5.23662e-10 2.83968e-11 -1.63097e-09)
(2.45674e-09 -5.95953e-10 -3.39565e-09)
(4.28758e-09 6.02036e-11 -4.73202e-09)
(6.14896e-09 -1.13794e-09 -5.68727e-09)
(8.89629e-09 -8.28518e-10 -8.21604e-09)
(8.3537e-09 -9.34691e-10 -9.41843e-09)
(7.38741e-09 -2.09039e-10 -9.65959e-09)
(7.38741e-09 -2.09039e-10 -9.65959e-09)
(-7.85434e-10 6.06917e-10 -7.2161e-09)
(4.77978e-09 -9.52374e-10 -7.07671e-09)
(-3.44192e-10 -6.36901e-11 -1.78039e-09)
(3.75076e-10 1.02061e-10 -3.23883e-09)
(-1.35718e-09 3.9732e-10 -3.90965e-09)
(-2.5726e-09 4.97454e-10 -5.91073e-09)
(-2.20241e-09 -1.4384e-10 -8.06975e-09)
(1.28862e-10 1.49052e-11 -8.95068e-09)
(-3.66039e-10 9.29342e-10 -8.43818e-09)
(-7.85434e-10 6.06917e-10 -7.2161e-09)
)
;
    }
    procBoundary2to3
    {
        type            processor;
        value           nonuniform List<vector> 
12
(
(1.65334e-08 -5.04038e-10 -6.57162e-09)
(1.51382e-08 2.56347e-09 -5.88525e-09)
(1.46815e-08 -8.1257e-09 -3.18923e-09)
(8.9947e-09 1.58507e-09 -2.73603e-09)
(1.54873e-08 1.52883e-09 -7.3468e-09)
(1.3134e-08 2.97913e-10 -7.33141e-09)
(1.37842e-08 4.83069e-10 -4.71138e-09)
(1.04134e-08 9.05421e-10 -2.42033e-09)
(9.69566e-09 2.98163e-09 -1.02128e-08)
(1.00832e-08 -8.34212e-10 -8.61933e-09)
(1.23139e-08 -1.52955e-09 -6.95727e-09)
(9.94762e-09 -1.66487e-09 -3.23606e-09)
)
;
    }
    procBoundary2to6
    {
        type            processor;
        value           nonuniform List<vector> 
32
(
(4.24124e-09 -1.66472e-10 -5.52682e-09)
(6.8787e-09 7.06623e-10 -4.60662e-09)
(7.53372e-09 5.376e-10 -4.75236e-09)
(2.90215e-09 -4.53682e-10 -2.07439e-09)
(4.49488e-09 -4.43231e-11 -2.43726e-09)
(2.94333e-09 1.41302e-10 -1.77702e-09)
(-2.95626e-10 3.20267e-10 -1.08132e-09)
(-6.29362e-10 5.79062e-10 -2.03508e-09)
(-1.72482e-09 7.19427e-10 -2.32855e-09)
(-2.17053e-09 5.95955e-10 -3.58229e-09)
(-2.06181e-09 4.54728e-10 -5.4123e-09)
(1.13503e-10 7.45979e-10 -4.06292e-09)
(8.70374e-10 8.04109e-10 -4.29099e-09)
(4.24124e-09 -1.66472e-10 -5.52682e-09)
(6.8787e-09 7.06623e-10 -4.60662e-09)
(2.64037e-09 1.83931e-09 -4.54506e-09)
(2.67338e-10 2.0582e-10 -5.26789e-10)
(6.4377e-10 3.77862e-10 -1.71335e-09)
(-3.08822e-10 6.54392e-10 -1.89256e-09)
(5.47216e-10 3.62961e-10 -2.65403e-09)
(1.47073e-09 8.94097e-10 -3.12203e-09)
(2.42171e-09 3.69868e-10 -3.26852e-09)
(6.8787e-09 7.06623e-10 -4.60662e-09)
(2.90215e-09 -4.53682e-10 -2.07439e-09)
(3.18699e-09 5.24848e-10 -2.48168e-09)
(-6.29225e-11 -5.00472e-11 -2.48148e-10)
(7.90293e-10 1.36317e-10 -1.25088e-09)
(2.90173e-10 2.18725e-11 -9.06113e-10)
(7.84133e-10 -2.17968e-10 -1.40044e-09)
(8.5372e-10 -2.66971e-10 -1.26132e-09)
(2.90215e-09 -4.53682e-10 -2.07439e-09)
(2.01929e-09 -3.64906e-11 -1.71349e-09)
)
;
    }
}


// ************************************************************************* //
