/*--------------------------------*- C++ -*----------------------------------*\
| =========                 |                                                 |
| \\      /  F ield         | OpenFOAM: The Open Source CFD Toolbox           |
|  \\    /   O peration     | Version:  4.x                                   |
|   \\  /    A nd           | Web:      www.OpenFOAM.org                      |
|    \\/     M anipulation  |                                                 |
\*---------------------------------------------------------------------------*/
FoamFile
{
    version     2.0;
    format      ascii;
    class       volScalarField;
    location    "48";
    object      KslNext;
}
// * * * * * * * * * * * * * * * * * * * * * * * * * * * * * * * * * * * * * //

dimensions      [1 -3 -1 0 0 0 0];

internalField   nonuniform List<scalar> 
108
(
3385.1
7939.06
3390.81
7584.99
3372.94
7288.17
3310.06
7133.39
3186.95
3477.39
9878.91
3654.93
12630.8
3706.39
15348.6
3684.51
19250.4
3611.65
3513.99
11150.8
3767.62
17134
3824.14
27343.8
3797.21
73991
3742.74
3491.16
11162.1
3782.68
18396.5
3868.32
41748.4
3895.3
445808
3858.82
3365.69
7851.01
3356.73
7550.9
3363.65
7288.96
3303.32
7383.27
3262.9
3448.27
9001.52
3542.79
9956.94
3580.35
11043.9
3571.36
12964.1
3542.49
3463.55
10200.1
3682.26
13955.2
3760.07
19831
3735.21
32522.1
3693.09
3497.18
10525.8
3709.36
15088.4
3785.15
22692.3
3761.57
35792.2
3667.62
3321.17
6957.39
3169.48
5960.92
3104.94
5535.72
3031.4
5219.01
2903.93
3373.65
7716.7
3356.32
7081.5
3290.96
6672.82
3199.65
6364.77
3083.98
3425.6
8265.01
3453.71
8117.07
3423.16
7816.1
3321.09
7411.94
3209.36
3466.88
8479.65
3495.75
8612.62
3460.24
8242.64
3329.43
7580.63
3206.6
)
;

boundaryField
{
    inlet
    {
        type            zeroGradient;
    }
    outlet
    {
        type            zeroGradient;
    }
    wall
    {
        type            zeroGradient;
    }
    procBoundary4to0
    {
        type            processor;
        value           uniform 0;
    }
    procBoundary4to5
    {
        type            processor;
        value           uniform 0;
    }
    procBoundary4to6
    {
        type            processor;
        value           uniform 0;
    }
}


// ************************************************************************* //
