/*--------------------------------*- C++ -*----------------------------------*\
| =========                 |                                                 |
| \\      /  F ield         | OpenFOAM: The Open Source CFD Toolbox           |
|  \\    /   O peration     | Version:  4.x                                   |
|   \\  /    A nd           | Web:      www.OpenFOAM.org                      |
|    \\/     M anipulation  |                                                 |
\*---------------------------------------------------------------------------*/
FoamFile
{
    version     2.0;
    format      ascii;
    class       surfaceScalarField;
    location    "48";
    object      phi;
}
// * * * * * * * * * * * * * * * * * * * * * * * * * * * * * * * * * * * * * //

dimensions      [0 3 -1 0 0 0 0];

internalField   nonuniform List<scalar> 
249
(
8.36472e-06
-4.89077e-07
-7.26232e-08
8.41931e-06
-2.28259e-07
-5.68022e-08
8.62541e-06
-5.06652e-07
-6.39514e-08
8.68808e-06
-1.84995e-07
-1.10685e-07
8.86369e-06
-3.75752e-07
-5.55213e-08
8.89057e-06
-1.21393e-07
-1.04875e-07
9.00334e-06
-2.76909e-07
-3.74947e-08
9.02116e-06
-1.16628e-07
-1.02843e-07
-2.04401e-07
6.43616e-08
7.80177e-06
-4.91266e-07
-1.45165e-08
7.64166e-06
-2.45228e-07
-1.99516e-08
7.25476e-06
-5.21259e-07
4.41244e-08
7.12877e-06
-1.7745e-07
-3.88157e-08
6.89968e-06
-4.09924e-07
4.25974e-08
6.8441e-06
-1.28018e-07
-4.17406e-08
6.6463e-06
-2.79157e-07
6.35005e-08
6.57794e-06
-9.56526e-08
-3.8718e-08
-8.70291e-08
1.24398e-07
7.57081e-06
-2.89216e-07
2.38462e-08
7.27263e-06
-1.26319e-07
4.71951e-09
6.67765e-06
-3.01007e-07
9.61086e-08
6.51406e-06
-1.08063e-07
1.86418e-08
6.1249e-06
-2.57809e-07
1.11155e-07
6.03576e-06
-7.31079e-08
2.56227e-08
5.64821e-06
-8.30505e-08
6.38649e-08
5.56175e-06
-2.26475e-08
2.48752e-08
2.91817e-08
2.23856e-08
7.58661e-06
-5.38237e-08
7.24056e-06
1.13072e-08
6.56233e-06
5.46545e-08
6.34462e-06
-6.2781e-09
5.78212e-06
8.64699e-08
5.61504e-06
2.56228e-08
5.25868e-06
9.32882e-08
5.1469e-06
2.44484e-08
4.49668e-08
8.37818e-06
-4.11118e-07
1.23581e-07
8.44748e-06
-2.02867e-07
7.67618e-08
8.61653e-06
-4.04166e-07
1.71164e-07
8.63526e-06
-1.45497e-07
1.60854e-08
8.79732e-06
-3.15032e-07
9.74513e-08
8.81424e-06
-1.06575e-07
-1.52208e-08
8.8428e-06
-2.01779e-07
1.35721e-07
8.7391e-06
-4.33653e-08
4.42215e-08
-1.11377e-07
2.0637e-07
8.02594e-06
-4.55308e-07
1.67e-07
7.94396e-06
-2.22543e-07
8.16988e-08
7.7922e-06
-4.54871e-07
2.46593e-07
7.70035e-06
-1.54459e-07
6.19951e-08
7.5556e-06
-3.20788e-07
1.93106e-07
7.45823e-06
-8.99954e-08
3.90461e-08
7.25826e-06
-1.53914e-07
2.15614e-07
7.16059e-06
-4.09225e-08
5.65088e-08
-7.58565e-08
2.16833e-07
7.75875e-06
-2.37195e-07
2.10244e-07
7.49862e-06
-7.22428e-08
1.14554e-07
7.0137e-06
-1.73872e-07
3.00032e-07
6.83166e-06
-5.28866e-08
9.91046e-08
6.45692e-06
-1.01716e-07
2.66826e-07
6.355e-06
-3.32965e-08
7.08406e-08
6.03448e-06
-2.41022e-08
2.54568e-07
5.95376e-06
-1.24314e-08
7.71081e-08
2.32702e-09
2.09677e-07
7.62841e-06
1.66673e-07
7.3854e-06
1.22134e-07
6.84584e-06
2.79132e-07
6.65533e-06
9.531e-08
6.2618e-06
2.80605e-07
6.16287e-06
9.89973e-08
5.914e-06
2.79924e-07
5.88429e-06
5.94883e-08
1.22129e-07
8.67297e-06
-3.86121e-07
8.96046e-06
-2.10732e-07
9.49424e-06
-3.62618e-07
9.64902e-06
-1.38691e-07
9.97714e-06
-2.30668e-07
1.00528e-05
-9.08981e-08
1.03527e-05
-1.6414e-07
1.04993e-05
-1.02388e-07
-1.74885e-07
8.37395e-06
-4.29807e-07
8.46685e-06
-2.21927e-07
8.77166e-06
-4.20837e-07
8.86768e-06
-1.72721e-07
9.0956e-06
-2.6548e-07
9.14987e-06
-1.06119e-07
9.35987e-06
-1.58532e-07
9.43369e-06
-1.19696e-07
-1.63024e-07
8.14946e-06
-2.05762e-07
8.1341e-06
-9.20138e-08
8.23058e-06
-2.17278e-07
8.26127e-06
-1.04313e-07
8.41446e-06
-1.51836e-07
8.45813e-06
-7.89513e-08
8.65208e-06
-9.79113e-08
8.69802e-06
-8.85255e-08
-1.16026e-07
8.02601e-06
8.02762e-06
8.04084e-06
8.04143e-06
8.18571e-06
8.27094e-06
8.54875e-06
8.62196e-06
)
;

boundaryField
{
    inlet
    {
        type            calculated;
        value           nonuniform List<scalar> 
12
(
-8.16327e-06
-8.16327e-06
-8.16327e-06
-8.16327e-06
-8.16327e-06
-8.16327e-06
-8.16327e-06
-8.16327e-06
-8.16327e-06
-8.16327e-06
-8.16327e-06
-8.16327e-06
)
;
    }
    outlet
    {
        type            calculated;
        value           nonuniform 0();
    }
    wall
    {
        type            calculated;
        value           nonuniform List<scalar> 
63
(
0
0
0
0
0
0
0
0
0
0
0
0
0
0
0
-7.70372e-34
0
0
0
0
0
0
0
0
0
0
0
0
-6.16298e-33
0
0
0
0
0
0
0
0
0
0
0
0
0
0
0
0
0
0
0
0
0
0
0
0
0
0
0
0
0
0
0
0
0
0
)
;
    }
    procBoundary4to0
    {
        type            processor;
        value           nonuniform List<scalar> 
36
(
3.60243e-07
2.3047e-07
3.64509e-07
2.33006e-07
2.5567e-07
1.99381e-07
2.01634e-07
2.01658e-07
7.1739e-08
3.78201e-07
1.97032e-07
3.5738e-07
1.57258e-07
2.20666e-07
1.0395e-07
1.36548e-07
8.61044e-08
7.91785e-08
3.66554e-07
1.74556e-07
2.78615e-07
7.5563e-08
1.25891e-07
8.61258e-09
1.27573e-07
-1.142e-08
5.42807e-08
3.9913e-07
2.03098e-07
3.6664e-07
1.46197e-07
2.86103e-07
9.19555e-08
2.0261e-07
6.85858e-08
3.31447e-08
)
;
    }
    procBoundary4to5
    {
        type            processor;
        value           nonuniform List<scalar> 
12
(
9.08946e-06
6.25699e-06
5.36887e-06
5.17574e-06
8.70847e-06
7.03263e-06
5.68829e-06
5.7997e-06
1.08805e-05
9.63866e-06
8.86069e-06
8.74949e-06
)
;
    }
    procBoundary4to6
    {
        type            processor;
        value           nonuniform List<scalar> 
27
(
-5.78716e-08
5.33351e-09
-4.40784e-08
-3.02659e-08
-6.78833e-08
-2.36084e-08
-2.25892e-08
-3.90289e-09
-7.77633e-08
7.71641e-08
5.99382e-08
1.4121e-07
3.60377e-08
9.76826e-08
-7.74394e-09
3.81363e-08
-1.77654e-08
9.75108e-09
9.81637e-08
2.85171e-08
4.863e-08
-9.59694e-09
-1.5506e-08
-6.51813e-08
-9.58029e-08
-1.02241e-07
-1.21434e-07
)
;
    }
}


// ************************************************************************* //
