/*--------------------------------*- C++ -*----------------------------------*\
| =========                 |                                                 |
| \\      /  F ield         | OpenFOAM: The Open Source CFD Toolbox           |
|  \\    /   O peration     | Version:  4.x                                   |
|   \\  /    A nd           | Web:      www.OpenFOAM.org                      |
|    \\/     M anipulation  |                                                 |
\*---------------------------------------------------------------------------*/
FoamFile
{
    version     2.0;
    format      ascii;
    class       volScalarField;
    location    "56";
    object      KslNext;
}
// * * * * * * * * * * * * * * * * * * * * * * * * * * * * * * * * * * * * * //

dimensions      [1 -3 -1 0 0 0 0];

internalField   nonuniform List<scalar> 
108
(
4885.83
2748.26
4732.26
2576.43
4840
2372.69
5587.78
2080.3
6449.7
6480.31
3140.99
7325.95
3150.27
10045.5
3392.41
29162
4348.68
1e+10
4916.08
2794.29
4858.2
2647.36
5059.76
2444.79
5712.39
2040.88
5853.56
3812.84
2517.52
3798.81
2446.77
3908.08
2287.35
4277.07
1939.02
6267.19
15995
3435.38
18417.6
3272.65
20541.6
3055.58
19751.2
2766.73
8294.17
46129.9
3742.35
148505
3735.47
272206
3850.79
96393
4362.5
19801.9
10834.4
3307.63
10587
3084.01
9615.77
2729.84
7777.42
2218.58
4068.29
5350.9
2895.76
5426.95
2803.36
5847.85
2587.84
6640.23
2061.2
4840.93
26938.1
3632.43
32399.7
3565.55
28533.9
3544.84
20246.2
3696.59
7882.3
1e+10
4017.77
1e+10
4019.51
1e+10
4092
1e+10
4583.11
26287
122666
3715.76
1e+10
3624.57
87023
3532.32
18989.3
3528.85
6157.16
7733.34
3234.97
8483.04
3193.3
10049.1
3090.76
12122.1
2637.09
11581.7
)
;

boundaryField
{
    inlet
    {
        type            zeroGradient;
    }
    outlet
    {
        type            zeroGradient;
    }
    wall
    {
        type            zeroGradient;
    }
    procBoundary3to1
    {
        type            processor;
        value           uniform 0;
    }
    procBoundary3to2
    {
        type            processor;
        value           uniform 0;
    }
    procBoundary3to7
    {
        type            processor;
        value           uniform 0;
    }
}


// ************************************************************************* //
