/*--------------------------------*- C++ -*----------------------------------*\
| =========                 |                                                 |
| \\      /  F ield         | OpenFOAM: The Open Source CFD Toolbox           |
|  \\    /   O peration     | Version:  4.x                                   |
|   \\  /    A nd           | Web:      www.OpenFOAM.org                      |
|    \\/     M anipulation  |                                                 |
\*---------------------------------------------------------------------------*/
FoamFile
{
    version     2.0;
    format      ascii;
    class       volScalarField;
    location    "56";
    object      QWallFluidCoeff;
}
// * * * * * * * * * * * * * * * * * * * * * * * * * * * * * * * * * * * * * //

dimensions      [1 -1 -3 -1 0 0 0];

internalField   nonuniform List<scalar> 
108
(
-2.19687e+06
-3.48579e+06
-2.24822e+06
-3.66795e+06
-2.20128e+06
-3.88256e+06
-1.92265e+06
-4.17582e+06
-1.64144e+06
-1.74626e+06
-3.1237e+06
-1.58254e+06
-3.11027e+06
-1.2215e+06
-2.91495e+06
-508897
-2.29437e+06
-81.4713
-2.17862e+06
-3.43546e+06
-2.20086e+06
-3.60448e+06
-2.13599e+06
-3.84027e+06
-1.89792e+06
-4.27655e+06
-1.78201e+06
-5.26783e+06
-7.40026e+06
-5.34999e+06
-7.61227e+06
-5.22129e+06
-8.00905e+06
-4.76655e+06
-8.78333e+06
-3.41542e+06
0
0
0
0
0
0
0
0
0
0
0
0
0
0
0
0
0
0
0
0
0
0
0
0
0
0
0
-1.99647e+06
-3.29975e+06
-1.98641e+06
-3.40853e+06
-1.87665e+06
-3.63215e+06
-1.66055e+06
-4.20057e+06
-2.05037e+06
0
0
0
0
0
0
0
0
0
0
0
0
0
0
0
0
0
0
0
0
0
0
0
0
0
0
0
-1.45692e+06
-2.95332e+06
-1.35465e+06
-2.97293e+06
-1.18391e+06
-3.04184e+06
-997781
-3.35748e+06
-993622
)
;

boundaryField
{
    inlet
    {
        type            calculated;
        value           nonuniform 0();
    }
    outlet
    {
        type            calculated;
        value           uniform 0;
    }
    wall
    {
        type            calculated;
        value           uniform 0;
    }
    procBoundary3to1
    {
        type            processor;
        value           uniform 0;
    }
    procBoundary3to2
    {
        type            processor;
        value           uniform 0;
    }
    procBoundary3to7
    {
        type            processor;
        value           uniform 0;
    }
}


// ************************************************************************* //
