/*--------------------------------*- C++ -*----------------------------------*\
| =========                 |                                                 |
| \\      /  F ield         | OpenFOAM: The Open Source CFD Toolbox           |
|  \\    /   O peration     | Version:  4.x                                   |
|   \\  /    A nd           | Web:      www.OpenFOAM.org                      |
|    \\/     M anipulation  |                                                 |
\*---------------------------------------------------------------------------*/
FoamFile
{
    version     2.0;
    format      ascii;
    class       volScalarField;
    location    "56";
    object      Sm;
}
// * * * * * * * * * * * * * * * * * * * * * * * * * * * * * * * * * * * * * //

dimensions      [1 -3 -1 0 0 0 0];

internalField   nonuniform List<scalar> 
108
(
6.97506e-65
3.25504e-65
5.81258e-65
2.55754e-65
4.10756e-65
3.02255e-65
4.72757e-65
4.18506e-65
4.26255e-65
5.19255e-65
7.44008e-65
4.10755e-65
4.65007e-65
5.42508e-65
3.87506e-65
5.50259e-65
4.96007e-65
5.42507e-65
5.50256e-65
5.50257e-65
6.20008e-65
3.72005e-65
4.88257e-65
3.72006e-65
5.73509e-65
5.27008e-65
4.03006e-65
4.65006e-65
3.87505e-65
3.79755e-65
5.89008e-65
4.80507e-65
4.65007e-65
3.17755e-65
5.65758e-65
4.10756e-65
7.51757e-65
6.27757e-65
8.99012e-65
8.52513e-65
7.59512e-65
6.2776e-65
6.04509e-65
6.58759e-65
9.22262e-65
6.66507e-65
6.20007e-65
7.5176e-65
7.2851e-65
6.8201e-65
6.27759e-65
8.60263e-65
6.8976e-65
6.82009e-65
1.03851e-64
7.5176e-65
7.4401e-65
8.44762e-65
6.8201e-65
7.36261e-65
6.5876e-65
7.20761e-65
7.82761e-65
7.7501e-65
5.65757e-65
6.66509e-65
6.20009e-65
8.06011e-65
5.65758e-65
6.7426e-65
6.8201e-65
5.65758e-65
7.67258e-65
9.06761e-65
8.75763e-65
8.52513e-65
6.12259e-65
6.27759e-65
8.52512e-65
7.13009e-65
7.44009e-65
9.0676e-65
5.03757e-65
7.75011e-65
4.34006e-65
4.65007e-65
7.90511e-65
7.2851e-65
8.83512e-65
6.12258e-65
5.11507e-65
8.13761e-65
8.21511e-65
5.81258e-65
6.8201e-65
7.98261e-65
6.6651e-65
7.2076e-65
5.50258e-65
8.52511e-65
4.03005e-65
5.42507e-65
6.12258e-65
5.58008e-65
7.1301e-65
6.20009e-65
7.90511e-65
8.52512e-65
)
;

boundaryField
{
    inlet
    {
        type            calculated;
        value           nonuniform 0();
    }
    outlet
    {
        type            calculated;
        value           uniform 0;
    }
    wall
    {
        type            calculated;
        value           uniform 0;
    }
    procBoundary3to1
    {
        type            processor;
        value           nonuniform List<scalar> 
27
(
3.48753e-65
5.58006e-65
5.73509e-65
7.13012e-65
5.50259e-65
4.34007e-65
4.96008e-65
4.57256e-65
4.49506e-65
8.06007e-65
6.51008e-65
6.2001e-65
5.27009e-65
5.27009e-65
7.20761e-65
7.90512e-65
1.03076e-64
4.88256e-65
7.82757e-65
6.27759e-65
5.11508e-65
9.06765e-65
8.29263e-65
8.91263e-65
6.9751e-65
7.9051e-65
3.48754e-65
)
;
    }
    procBoundary3to2
    {
        type            processor;
        value           nonuniform List<scalar> 
12
(
4.10753e-65
3.95253e-65
5.27006e-65
3.10004e-65
9.22256e-65
5.19255e-65
5.96757e-65
4.26255e-65
8.13756e-65
4.88255e-65
8.3701e-65
6.66508e-65
)
;
    }
    procBoundary3to7
    {
        type            processor;
        value           nonuniform List<scalar> 
36
(
9.92012e-65
7.82761e-65
6.4326e-65
6.7426e-65
1.06177e-64
1.03851e-64
7.9826e-65
5.65757e-65
8.3701e-65
7.6726e-65
9.45513e-65
7.28511e-65
6.8976e-65
8.29262e-65
5.65758e-65
7.5176e-65
6.43258e-65
7.9826e-65
4.80507e-65
7.4401e-65
6.12259e-65
7.1301e-65
7.4401e-65
8.06011e-65
7.5176e-65
7.2076e-65
8.60261e-65
6.51009e-65
6.58759e-65
8.68012e-65
5.50258e-65
7.2851e-65
6.74259e-65
7.90511e-65
5.89008e-65
4.34006e-65
)
;
    }
}


// ************************************************************************* //
