/*--------------------------------*- C++ -*----------------------------------*\
| =========                 |                                                 |
| \\      /  F ield         | OpenFOAM: The Open Source CFD Toolbox           |
|  \\    /   O peration     | Version:  4.x                                   |
|   \\  /    A nd           | Web:      www.OpenFOAM.org                      |
|    \\/     M anipulation  |                                                 |
\*---------------------------------------------------------------------------*/
FoamFile
{
    version     2.0;
    format      ascii;
    class       volVectorField;
    location    "59.5";
    object      Urel;
}
// * * * * * * * * * * * * * * * * * * * * * * * * * * * * * * * * * * * * * //

dimensions      [0 1 -1 0 0 0 0];

internalField   nonuniform List<vector> 
108
(
(-0.0233615 0.000601991 0.000512363)
(-0.0214293 0.000535984 0.000476214)
(-0.0223733 0.000540549 0.000461038)
(-0.0209207 0.000449278 0.000413605)
(-0.0221275 0.000419555 0.000362807)
(-0.0207964 0.000326761 0.000317381)
(-0.0220934 0.000292994 0.000265874)
(-0.0207456 0.00021797 0.000219712)
(-0.022108 0.000184752 0.000130327)
(-0.0231706 0.000625168 0.000497394)
(-0.0210389 0.000542162 0.000454999)
(-0.0218911 0.000569175 0.000429123)
(-0.0201057 0.000451172 0.00037594)
(-0.0213494 0.000442116 0.000323444)
(-0.0196428 0.000331674 0.000275848)
(-0.0210927 0.0003097 0.00022525)
(-0.0193451 0.00022759 0.000184401)
(-0.0209599 0.000190525 0.000116029)
(-0.0229801 0.000418807 0.000486784)
(-0.0206888 0.000365195 0.000438205)
(-0.0214437 0.000377557 0.000401358)
(-0.0194093 0.000299617 0.000340961)
(-0.0206396 0.000294903 0.000287436)
(-0.0186646 0.000217353 0.000239089)
(-0.0201934 0.000195696 0.000208948)
(-0.018172 0.000141212 0.000159066)
(-0.0199339 0.00011115 0.000128667)
(-0.0228966 0.000143246 0.000497658)
(-0.0205659 0.000110213 0.00044015)
(-0.0212726 0.000122105 0.000413663)
(-0.0191685 9.91835e-05 0.000349983)
(-0.0203669 0.000104201 0.000306216)
(-0.0183103 7.99995e-05 0.000245166)
(-0.0198454 6.48703e-05 0.000212258)
(-0.0177792 6.48138e-05 0.000165622)
(-0.0195364 6.56044e-05 0.000129881)
(-0.0234376 0.000578957 0.000184567)
(-0.0215614 0.000516074 0.000179775)
(-0.0225401 0.000504921 0.000154152)
(-0.0211603 0.00042192 0.000163781)
(-0.0223845 0.000389155 0.000131874)
(-0.0211161 0.000309577 0.000121441)
(-0.0224061 0.000272622 6.64425e-05)
(-0.0211239 0.000206612 4.61822e-05)
(-0.0224835 0.000178352 -2.335e-05)
(-0.0232706 0.000602749 0.000156211)
(-0.0212391 0.000528128 0.00015452)
(-0.0221311 0.000542786 0.000110012)
(-0.0205062 0.000433438 0.000121701)
(-0.0217298 0.00042022 8.05861e-05)
(-0.0201892 0.000318641 8.02731e-05)
(-0.0215695 0.00029383 2.52294e-05)
(-0.0199951 0.000225353 2.0552e-05)
(-0.0215251 0.000208223 -3.72309e-05)
(-0.0230874 0.000411497 0.000129802)
(-0.0209019 0.000353374 0.000128787)
(-0.0217039 0.00036104 7.67138e-05)
(-0.0198255 0.000288425 8.54924e-05)
(-0.0210463 0.000271007 3.85508e-05)
(-0.0192348 0.000206271 4.42182e-05)
(-0.0207104 0.000178265 -1.17009e-06)
(-0.0188607 0.000148034 7.31334e-06)
(-0.0205405 0.000132804 -2.00045e-05)
(-0.0229999 0.000115608 0.000127216)
(-0.0207689 8.93918e-05 0.000117641)
(-0.0215225 8.94353e-05 6.79726e-05)
(-0.0195737 8.18733e-05 7.66852e-05)
(-0.0207781 8.14138e-05 2.16892e-05)
(-0.0188906 8.03333e-05 3.36735e-05)
(-0.020382 7.7446e-05 -1.0073e-05)
(-0.018484 8.46669e-05 1.51682e-05)
(-0.020177 9.23514e-05 -3.1642e-07)
(-0.0235535 0.000565837 1.35374e-05)
(-0.0218062 0.000507544 1.30649e-05)
(-0.0228421 0.000487578 -2.42815e-05)
(-0.021672 0.000403678 -1.79439e-06)
(-0.0228984 0.000362617 -3.26673e-05)
(-0.0218394 0.000289606 -3.01174e-05)
(-0.0230905 0.000258298 -9.95341e-05)
(-0.0220544 0.000213813 -0.00011946)
(-0.023359 0.000202546 -0.000186298)
(-0.0234032 0.000586232 -3.31709e-06)
(-0.0215245 0.000517695 -9.70068e-07)
(-0.0224757 0.000521632 -4.75778e-05)
(-0.0211166 0.000420338 -2.83453e-05)
(-0.0223266 0.000393181 -6.78388e-05)
(-0.0210958 0.000311786 -5.94926e-05)
(-0.0223832 0.000291064 -0.000121337)
(-0.0211768 0.000251611 -0.000116176)
(-0.0225425 0.000250686 -0.000164931)
(-0.023224 0.000402622 -2.58775e-05)
(-0.0212291 0.000349106 -2.46925e-05)
(-0.0220924 0.000358616 -7.83064e-05)
(-0.020541 0.00029183 -5.66359e-05)
(-0.0217156 0.00026969 -0.000103597)
(-0.020311 0.000212314 -7.92669e-05)
(-0.0216228 0.000193661 -0.00013026)
(-0.0202602 0.00017858 -0.000104296)
(-0.0216524 0.000185053 -0.000136972)
(-0.0231421 0.000102077 -2.91715e-05)
(-0.0211093 9.22623e-05 -2.47272e-05)
(-0.0219253 0.000102535 -6.88043e-05)
(-0.020308 9.72247e-05 -5.0241e-05)
(-0.021469 0.000103959 -9.15556e-05)
(-0.0199967 0.00010608 -7.23949e-05)
(-0.0213063 0.000117597 -0.000108082)
(-0.0198925 0.000128949 -6.66075e-05)
(-0.0212822 0.000154966 -7.7772e-05)
)
;

boundaryField
{
    inlet
    {
        type            calculated;
        value           nonuniform List<vector> 
12
(
(-0.01 4.1516e-12 1.65389e-10)
(-0.01 -3.25194e-11 2.36465e-10)
(-0.01 2.05004e-10 2.94049e-10)
(-0.01 2.34774e-10 4.0569e-10)
(-0.01 -2.97099e-11 1.41439e-10)
(-0.01 5.78198e-11 1.80336e-10)
(-0.01 8.96533e-11 1.66554e-10)
(-0.01 1.7742e-10 1.87722e-10)
(-0.01 1.07805e-11 2.84511e-11)
(-0.01 -4.30517e-12 2.74628e-11)
(-0.01 2.94264e-11 6.21922e-11)
(-0.01 -1.38544e-12 6.16713e-11)
)
;
    }
    outlet
    {
        type            calculated;
        value           nonuniform 0();
    }
    wall
    {
        type            calculated;
        value           nonuniform List<vector> 
63
(
(-1.52077e-11 1.07805e-11 2.84511e-11)
(2.21561e-11 -4.30517e-12 2.74628e-11)
(1.56147e-11 2.94264e-11 6.21922e-11)
(9.36855e-11 -1.38544e-12 6.16713e-11)
(-3.92826e-11 5.20469e-11 3.61471e-11)
(-5.00954e-11 7.82299e-11 1.02589e-10)
(-3.58438e-13 1.84562e-10 1.1677e-10)
(2.68553e-10 1.92714e-10 -1.64503e-11)
(1.07221e-10 2.05468e-10 -1.0407e-10)
(1.22577e-10 2.32019e-10 -1.33432e-10)
(1.08768e-10 3.61369e-10 -6.87119e-11)
(1.2476e-09 8.41078e-10 -1.84602e-10)
(3.54859e-10 2.97218e-10 -4.2722e-10)
(8.83684e-10 7.20808e-10 -5.51028e-10)
(1.01829e-09 6.63933e-10 -6.1141e-10)
(1.51106e-09 1.13005e-10 -6.53127e-10)
(5.95808e-10 4.82072e-10 -7.50604e-10)
(1.41192e-09 7.36653e-10 -1.54412e-09)
(2.67188e-09 5.59848e-10 -2.17389e-09)
(3.32928e-09 -8.64375e-10 -2.14446e-09)
(1.19131e-09 8.8283e-10 -1.29055e-09)
(2.31482e-09 -6.93689e-10 -1.70375e-09)
(3.24963e-09 -2.85304e-10 -3.69774e-09)
(6.16741e-09 -1.12728e-09 -4.13167e-09)
(6.22425e-09 2.39855e-09 -5.63753e-09)
(3.88096e-09 9.62016e-10 -3.30929e-09)
(5.31708e-09 1.00413e-10 -7.37687e-09)
(5.34097e-09 -1.78968e-09 -8.34901e-09)
(1.1962e-09 2.2471e-09 -9.0633e-09)
(7.3732e-09 2.42743e-09 -1.37419e-08)
(9.33762e-09 -1.85667e-09 -1.33024e-08)
(1.98776e-08 8.23297e-10 -1.08374e-08)
(-2.65492e-09 8.45606e-09 -1.49436e-08)
(1.02376e-08 1.42188e-08 -2.72513e-08)
(2.15432e-09 2.11069e-08 -1.88052e-08)
(5.89386e-09 -5.99691e-09 -1.80561e-08)
(-1.61222e-10 4.1516e-12 1.65389e-10)
(-1.44165e-10 -2.97099e-11 1.41439e-10)
(-1.52077e-11 1.07805e-11 2.84511e-11)
(-4.63901e-10 -1.98264e-11 1.94785e-10)
(-2.74179e-10 2.13762e-11 1.42373e-10)
(-3.92826e-11 5.20469e-11 3.61471e-11)
(-8.16171e-10 3.81744e-10 2.64633e-10)
(-3.01065e-10 2.26417e-10 -4.17451e-11)
(1.07221e-10 2.05468e-10 -1.0407e-10)
(-2.18415e-09 5.3391e-10 -4.9229e-10)
(-2.96177e-10 3.18176e-10 -6.94021e-10)
(3.54859e-10 2.97218e-10 -4.2722e-10)
(-3.60816e-09 2.40489e-09 -1.55404e-09)
(-2.94497e-10 7.81716e-10 -1.49064e-09)
(5.95808e-10 4.82072e-10 -7.50604e-10)
(-5.32671e-09 3.50736e-09 -2.79476e-09)
(-2.44908e-10 1.29176e-09 -1.95401e-09)
(1.19131e-09 8.8283e-10 -1.29055e-09)
(-1.20263e-08 3.92852e-09 -1.34142e-08)
(-3.56288e-10 4.12012e-09 -8.26376e-09)
(6.22425e-09 2.39855e-09 -5.63753e-09)
(-1.80624e-08 -3.43109e-09 -2.99303e-08)
(-2.36729e-09 3.69661e-09 -2.1949e-08)
(1.1962e-09 2.2471e-09 -9.0633e-09)
(-1.42948e-08 2.89948e-08 -9.08887e-08)
(-1.60219e-08 1.3302e-08 -3.55794e-08)
(-2.65492e-09 8.45606e-09 -1.49436e-08)
)
;
    }
    procBoundary4to0
    {
        type            processor;
        value           nonuniform List<vector> 
36
(
(-0.0233824 0.000584739 0.000874963)
(-0.0214331 0.000522817 0.000806379)
(-0.0224189 0.000526194 0.000803188)
(-0.0209766 0.000439073 0.000702489)
(-0.0222212 0.00041128 0.000654353)
(-0.0208872 0.00032313 0.000564639)
(-0.0222041 0.000284139 0.000512287)
(-0.0208238 0.000190703 0.000445952)
(-0.0221737 0.000132409 0.000373757)
(-0.0231975 0.000607976 0.000888166)
(-0.0210445 0.000530549 0.000801312)
(-0.0219392 0.000563923 0.000797571)
(-0.0201493 0.000446594 0.000669962)
(-0.0214182 0.000440585 0.000622513)
(-0.0196892 0.000326613 0.000513389)
(-0.0211703 0.000287213 0.000467705)
(-0.0193722 0.000206764 0.000384746)
(-0.0210113 0.000139338 0.000338283)
(-0.0229997 0.00039669 0.000891595)
(-0.0206901 0.000345298 0.000793944)
(-0.0214801 0.000350654 0.000776931)
(-0.0194052 0.000274763 0.000635792)
(-0.0206725 0.00025072 0.000582692)
(-0.0186376 0.000190883 0.000464132)
(-0.0202248 0.00014965 0.000419851)
(-0.0182188 0.000119083 0.000326693)
(-0.0199499 7.68994e-05 0.00027302)
(-0.0229268 0.000111956 0.000886722)
(-0.020607 8.93584e-05 0.000793404)
(-0.0213573 7.69103e-05 0.000777872)
(-0.0192769 6.38054e-05 0.000640538)
(-0.0205086 5.15049e-05 0.000595175)
(-0.018513 5.01252e-05 0.000474038)
(-0.0200533 5.28609e-05 0.000427278)
(-0.0180712 3.89835e-05 0.000339485)
(-0.0197716 3.77889e-05 0.000285816)
)
;
    }
    procBoundary4to5
    {
        type            processor;
        value           nonuniform List<vector> 
12
(
(-0.0206466 0.000119703 7.25552e-05)
(-0.0190881 0.000138927 7.90616e-05)
(-0.017892 8.44986e-05 8.9483e-05)
(-0.0175133 6.0997e-05 0.000109509)
(-0.0211197 0.000124633 -3.28323e-05)
(-0.0198754 0.000171676 -3.48995e-05)
(-0.0186311 0.000125165 -1.66284e-05)
(-0.0182708 0.000101734 1.01031e-05)
(-0.0223096 0.000164162 -0.000192147)
(-0.0213094 0.000243799 -0.000152028)
(-0.0202687 0.000200393 -0.000110301)
(-0.0198551 0.00018548 -4.5494e-05)
)
;
    }
    procBoundary4to6
    {
        type            processor;
        value           nonuniform List<vector> 
27
(
(-0.0229179 -0.000193191 0.000487759)
(-0.0205591 -0.00017035 0.000434599)
(-0.0212882 -0.000170245 0.000410834)
(-0.0191488 -0.000127047 0.000350871)
(-0.0204024 -0.000106989 0.000310353)
(-0.0183078 -6.86757e-05 0.000254821)
(-0.019891 -3.38656e-05 0.000223175)
(-0.0178737 -9.00292e-06 0.000186502)
(-0.0196178 3.1909e-05 0.000170664)
(-0.0230416 -0.00022578 8.84194e-05)
(-0.0208298 -0.00018746 0.000110631)
(-0.0216067 -0.000200367 5.78428e-05)
(-0.0196904 -0.00013996 7.82216e-05)
(-0.0208962 -0.000130428 3.42872e-05)
(-0.0190285 -6.84997e-05 5.43097e-05)
(-0.0204904 -4.69196e-05 4.24597e-05)
(-0.0185992 2.66994e-06 4.59298e-05)
(-0.0202546 2.6583e-05 5.43138e-05)
(-0.0232076 -0.000223009 -4.45574e-05)
(-0.0212143 -0.00017774 -1.73974e-05)
(-0.0220441 -0.0001772 -5.21276e-05)
(-0.0204747 -0.000123465 -2.49004e-05)
(-0.0216068 -9.75382e-05 -5.98434e-05)
(-0.0201417 -4.1251e-05 -3.42084e-05)
(-0.021391 -8.27943e-07 -5.67386e-05)
(-0.0199106 4.60144e-05 -2.55651e-05)
(-0.0212585 8.06367e-05 -2.11681e-05)
)
;
    }
}


// ************************************************************************* //
