/*--------------------------------*- C++ -*----------------------------------*\
| =========                 |                                                 |
| \\      /  F ield         | OpenFOAM: The Open Source CFD Toolbox           |
|  \\    /   O peration     | Version:  4.x                                   |
|   \\  /    A nd           | Web:      www.OpenFOAM.org                      |
|    \\/     M anipulation  |                                                 |
\*---------------------------------------------------------------------------*/
FoamFile
{
    version     2.0;
    format      ascii;
    class       volVectorField;
    location    "59.5";
    object      Us;
}
// * * * * * * * * * * * * * * * * * * * * * * * * * * * * * * * * * * * * * //

dimensions      [0 1 -1 0 0 0 0];

internalField   nonuniform List<vector> 
108
(
(3.07662e-11 5.08169e-12 5.5631e-11)
(5.45507e-11 2.01899e-11 1.6565e-11)
(1.43529e-10 2.21699e-12 -4.23355e-11)
(1.65007e-10 -8.82447e-12 -1.04727e-10)
(2.00765e-10 9.52227e-12 -1.89089e-10)
(1.82719e-10 2.39103e-11 -2.1666e-10)
(2.06582e-10 -1.10051e-11 -2.14728e-10)
(1.01362e-10 2.47637e-11 -1.86192e-10)
(1.67783e-10 -4.86609e-13 -4.36358e-11)
(4.87871e-11 1.11553e-11 2.06394e-11)
(9.7551e-11 1.83564e-11 -1.8635e-11)
(1.97806e-10 -6.50321e-11 -9.5849e-11)
(1.83674e-10 -7.50536e-11 -1.97032e-10)
(2.23994e-10 -9.83798e-11 -2.58861e-10)
(2.18671e-10 -7.50975e-11 -2.37366e-10)
(2.98132e-10 -5.78004e-11 -2.54287e-10)
(3.27988e-10 -9.14568e-11 -1.91722e-10)
(4.84171e-10 -1.48712e-10 -1.09059e-10)
(4.62842e-11 2.62625e-11 -2.29952e-11)
(1.22381e-10 4.26076e-11 -9.58738e-11)
(1.91739e-10 -3.51965e-11 -1.76767e-10)
(1.86061e-10 -6.58658e-11 -2.58122e-10)
(2.32615e-10 -1.01726e-10 -3.04671e-10)
(2.32232e-10 -9.53358e-11 -2.67349e-10)
(3.08641e-10 -7.71186e-11 -2.94706e-10)
(4.00825e-10 -9.47219e-11 -2.53812e-10)
(4.55999e-10 -1.67039e-10 -1.08712e-10)
(4.93393e-11 5.4085e-12 -5.87876e-11)
(8.60546e-11 -8.94148e-12 -9.69844e-11)
(1.22063e-10 -7.56399e-11 -1.62307e-10)
(1.58336e-10 -1.0197e-10 -1.81869e-10)
(2.72874e-10 -1.1064e-10 -2.21033e-10)
(3.04885e-10 -1.25372e-10 -2.50657e-10)
(4.63673e-10 -1.03061e-10 -1.89258e-10)
(4.52542e-10 -1.10862e-10 -1.68416e-10)
(4.42272e-10 -1.2193e-10 -7.18215e-11)
(2.04153e-11 2.3007e-11 1.073e-11)
(3.66855e-11 3.16001e-11 -4.9488e-12)
(8.59856e-11 7.30537e-12 -3.01702e-11)
(7.42366e-11 1.40031e-11 -5.93107e-11)
(1.14148e-10 1.23249e-11 -8.29227e-11)
(6.25064e-11 4.49457e-12 -1.12998e-10)
(1.15826e-10 2.68815e-11 -1.00184e-10)
(1.18972e-10 1.972e-11 -8.49791e-11)
(1.82697e-10 2.66893e-11 -3.73394e-11)
(3.70442e-11 2.64594e-13 6.28429e-12)
(6.22929e-11 1.78336e-11 -3.47811e-11)
(1.06348e-10 -8.06715e-12 -6.81976e-11)
(1.02835e-10 -3.53538e-11 -1.46207e-10)
(1.02808e-10 -3.73415e-11 -1.59155e-10)
(8.93815e-11 -6.10897e-11 -1.85993e-10)
(1.23074e-10 -1.14388e-10 -1.9377e-10)
(8.34506e-11 -1.51203e-10 -1.66776e-10)
(2.75794e-10 -5.6531e-11 -9.33511e-11)
(2.63233e-11 1.10362e-11 -3.02364e-11)
(2.62447e-11 2.62157e-11 -7.19207e-11)
(6.32817e-11 -5.27233e-13 -9.57791e-11)
(3.05571e-11 -6.68306e-11 -1.39015e-10)
(6.80276e-11 -8.78406e-11 -2.00819e-10)
(7.93735e-11 -5.21348e-11 -1.89893e-10)
(9.77862e-11 -6.33266e-11 -2.30809e-10)
(1.46788e-10 -7.28906e-11 -1.94188e-10)
(1.64962e-10 -1.04002e-10 -1.63677e-10)
(2.36839e-11 5.63973e-12 -4.42037e-11)
(4.57455e-11 -1.83321e-11 -8.87425e-11)
(7.14735e-11 -6.29558e-11 -1.31646e-10)
(8.50388e-11 -7.04178e-11 -1.3972e-10)
(1.56944e-10 -9.25639e-11 -1.74151e-10)
(2.4865e-10 -7.89768e-11 -1.75083e-10)
(2.53987e-10 -6.83531e-11 -1.80864e-10)
(3.25413e-10 -8.25674e-11 -1.83345e-10)
(4.60599e-10 -2.0529e-10 -4.88676e-11)
(8.32904e-12 1.89552e-11 4.29938e-12)
(1.60476e-11 2.32603e-11 -1.44604e-11)
(3.7309e-11 1.88088e-11 -1.2953e-11)
(5.16116e-12 1.55597e-11 -2.71811e-11)
(4.49223e-11 3.21476e-11 -3.13861e-11)
(3.56663e-11 2.25445e-11 -4.72409e-11)
(6.65055e-11 3.17319e-11 -6.25903e-11)
(4.0674e-11 7.60983e-12 -3.78021e-11)
(6.09063e-11 2.05593e-11 -3.45991e-11)
(1.32546e-11 -1.04783e-12 -4.76876e-12)
(2.41069e-11 2.95963e-12 -2.2168e-11)
(6.72995e-11 -2.32063e-11 -3.52105e-11)
(4.61625e-11 -1.91613e-11 -3.58817e-11)
(5.24439e-11 -6.8786e-12 -6.6685e-11)
(-7.52235e-12 -1.16028e-10 -6.39957e-11)
(-1.52203e-11 -1.45418e-10 -7.47238e-11)
(3.6834e-11 -3.24959e-11 -6.65145e-11)
(6.14085e-11 -2.81351e-11 -7.35998e-11)
(1.48921e-11 1.94168e-11 -2.24128e-11)
(3.72234e-12 2.21065e-11 -3.21575e-11)
(2.84274e-11 -1.4658e-11 -4.51143e-11)
(8.04413e-12 -1.85261e-11 -5.68925e-11)
(8.98525e-12 -2.46696e-11 -9.83894e-11)
(-4.50612e-12 -1.1694e-10 -1.04709e-10)
(-3.72533e-11 -8.23787e-11 -9.67821e-11)
(-2.54744e-11 -4.84744e-11 -1.19846e-10)
(-1.71247e-11 -3.0804e-11 -7.8082e-11)
(1.37799e-11 4.1979e-12 -2.76684e-11)
(1.73461e-11 -2.71537e-11 -3.85605e-11)
(4.58445e-11 -4.16236e-11 -6.54377e-11)
(4.68791e-11 -5.44999e-11 -7.36092e-11)
(9.23602e-11 -8.27718e-11 -9.58583e-11)
(6.71103e-11 -1.04975e-10 -8.7555e-11)
(3.31462e-11 -1.46436e-10 -1.31112e-10)
(3.23549e-10 -3.0526e-10 -1.25954e-10)
(8.10409e-11 -1.29106e-10 -9.54061e-11)
)
;

boundaryField
{
    inlet
    {
        type            zeroGradient;
    }
    outlet
    {
        type            zeroGradient;
    }
    wall
    {
        type            zeroGradient;
    }
    procBoundary4to0
    {
        type            processor;
        value           nonuniform List<vector> 
36
(
(4.37715e-11 5.32057e-11 1.43286e-10)
(1.51573e-10 2.06084e-11 8.77081e-11)
(3.49429e-10 5.0096e-11 2.30381e-11)
(2.34834e-10 -3.13852e-11 -1.76865e-10)
(2.97934e-10 -4.53414e-12 -2.86628e-10)
(2.98774e-10 -5.29101e-12 -3.25794e-10)
(2.80625e-10 -4.75757e-11 -3.13138e-10)
(2.63675e-10 -6.28208e-11 -2.32984e-10)
(2.91093e-10 -5.08491e-11 -1.38811e-10)
(6.94932e-11 5.06178e-11 1.06511e-10)
(2.0792e-10 2.64117e-11 5.25371e-11)
(3.81972e-10 -6.58645e-11 -1.0328e-10)
(4.46588e-10 -6.61178e-11 -2.81076e-10)
(4.77817e-10 -8.71194e-11 -3.8371e-10)
(3.8968e-10 -1.07518e-10 -3.48705e-10)
(4.30819e-10 -8.51684e-11 -2.82002e-10)
(4.28532e-10 -1.78065e-10 -2.35757e-10)
(4.47489e-10 -1.68026e-10 -1.06001e-10)
(9.12596e-11 6.51796e-11 -2.00693e-11)
(2.00668e-10 3.19995e-11 -8.55535e-11)
(3.45309e-10 -3.6983e-11 -1.80269e-10)
(2.87095e-10 -9.66523e-11 -3.23547e-10)
(4.1e-10 -8.96165e-11 -3.66569e-10)
(3.70472e-10 -1.5562e-10 -3.33644e-10)
(4.73825e-10 -1.59356e-10 -2.77498e-10)
(4.83265e-10 -2.10767e-10 -2.63288e-10)
(4.92235e-10 -1.57164e-10 -1.23633e-10)
(5.41183e-11 1.79554e-11 -4.08314e-11)
(1.4127e-10 4.36244e-12 -8.02125e-11)
(2.58884e-10 -3.73179e-11 -1.78074e-10)
(2.30966e-10 -1.07624e-10 -2.45989e-10)
(3.52963e-10 -1.14297e-10 -2.74238e-10)
(3.41566e-10 -1.49826e-10 -2.53289e-10)
(4.34927e-10 -2.06421e-10 -2.17666e-10)
(4.39545e-10 -1.83119e-10 -2.43218e-10)
(3.11442e-10 -1.93295e-10 -1.30547e-10)
)
;
    }
    procBoundary4to5
    {
        type            processor;
        value           nonuniform List<vector> 
12
(
(2.64645e-10 -6.33955e-12 -7.72205e-11)
(1.13077e-09 3.80296e-10 -1.12369e-10)
(4.75613e-10 -1.11496e-10 -7.00244e-11)
(4.53566e-10 -2.08227e-10 2.21543e-12)
(2.98711e-10 -5.9674e-11 -5.21575e-11)
(5.04752e-10 -1.6571e-10 -6.76702e-11)
(3.83644e-10 -9.39836e-11 -9.06488e-11)
(4.75883e-10 -5.57049e-11 -1.13218e-10)
(2.15393e-10 3.45268e-11 -4.73766e-11)
(3.1795e-10 -7.30335e-11 -1.06694e-10)
(7.04841e-11 -1.38657e-11 -7.66428e-11)
(2.32219e-10 -5.39303e-11 -6.49073e-11)
)
;
    }
    procBoundary4to6
    {
        type            processor;
        value           nonuniform List<vector> 
27
(
(5.70582e-11 -2.93334e-11 -6.62246e-11)
(4.80604e-11 -8.05402e-11 -1.16131e-10)
(-1.34907e-11 -1.0446e-10 -1.61373e-10)
(-3.12306e-12 -1.17312e-10 -2.1239e-10)
(1.00992e-10 -1.28569e-10 -2.32671e-10)
(1.07356e-10 -1.13346e-10 -2.37045e-10)
(1.17383e-10 -1.0422e-10 -2.4786e-10)
(1.5883e-10 -1.14623e-10 -2.12145e-10)
(2.67778e-10 -1.00044e-10 -1.31987e-10)
(2.30738e-11 -3.17846e-11 -4.60477e-11)
(-1.71369e-11 -6.25822e-11 -9.52915e-11)
(-1.9529e-11 -9.18768e-11 -1.08482e-10)
(-1.50399e-11 -7.60519e-11 -1.35757e-10)
(4.49068e-12 -8.98856e-11 -1.58256e-10)
(3.5437e-11 -9.25294e-11 -1.7816e-10)
(7.25069e-11 -1.03491e-10 -2.33719e-10)
(6.21843e-11 -1.26167e-10 -1.89045e-10)
(1.94411e-10 -5.17555e-11 -1.23029e-10)
(1.64479e-11 -2.76574e-11 -2.49038e-11)
(-5.7599e-12 -3.47297e-11 -3.68007e-11)
(1.88944e-12 -7.74998e-11 -6.92802e-11)
(-2.15366e-11 -5.85153e-11 -6.66911e-11)
(6.64543e-12 -5.09083e-11 -6.66216e-11)
(-3.29082e-11 -9.04876e-11 -9.07244e-11)
(2.05177e-11 -7.14606e-11 -1.29643e-10)
(-1.32726e-10 -1.24415e-10 -9.60121e-11)
(-1.94561e-10 -1.01791e-10 -1.58606e-10)
)
;
    }
}


// ************************************************************************* //
