/*--------------------------------*- C++ -*----------------------------------*\
| =========                 |                                                 |
| \\      /  F ield         | OpenFOAM: The Open Source CFD Toolbox           |
|  \\    /   O peration     | Version:  4.x                                   |
|   \\  /    A nd           | Web:      www.OpenFOAM.org                      |
|    \\/     M anipulation  |                                                 |
\*---------------------------------------------------------------------------*/
FoamFile
{
    version     2.0;
    format      ascii;
    class       volVectorField;
    location    "14.5";
    object      GField;
}
// * * * * * * * * * * * * * * * * * * * * * * * * * * * * * * * * * * * * * //

dimensions      [1 -2 -1 0 0 0 0];

internalField   nonuniform List<vector> 
132
(
(98.4386 -2.19859 -3.74437)
(50.8485 -1.27397 -2.57856)
(110.025 -1.55342 -3.22274)
(67.7633 -0.722846 -1.80211)
(120.985 -1.53621 -3.22565)
(82.7394 0.223478 -2.3868)
(127.424 0.259896 -2.74913)
(89.7203 -0.483665 -1.87083)
(136.686 0.3649 -3.41554)
(98.3761 -3.21281 -4.17526)
(47.7735 -2.27282 -2.51661)
(106.251 -3.75576 -3.97559)
(62.6329 -2.32333 -2.2741)
(118.477 -5.38677 -4.05663)
(77.9813 1.75178 -2.83187)
(122.859 -1.92327 -2.90884)
(82.4814 -0.97059 -1.75749)
(129.485 -3.57901 -3.89662)
(99.0842 -3.29632 -4.15573)
(46.2398 -1.96577 -2.18942)
(104.137 -3.97865 -3.55649)
(57.5651 -3.23529 -1.87479)
(117.576 -8.60695 -2.39717)
(71.6994 6.28777 -3.91661)
(116.546 -0.826976 -4.5721)
(72.487 1.85317 -1.88298)
(118.107 -2.1656 -5.59762)
(98.9382 -4.40565 -4.1458)
(45.9875 -2.77671 -1.93563)
(103.505 -4.65544 -3.4163)
(96.4719 -2.08425 -7.33517)
(44.4098 -1.0251 -4.96353)
(100.919 -2.19454 -7.21248)
(52.543 -1.16311 -4.50683)
(107.106 -2.36642 -6.65866)
(59.2004 -0.317773 -5.65957)
(108.861 -0.420305 -5.64617)
(61.9776 -0.99603 -6.12938)
(112.614 -1.20411 -6.39356)
(95.7717 -3.70683 -8.46472)
(40.5614 -1.78382 -4.7687)
(97.6016 -3.73694 -7.75658)
(43.9099 -2.11276 -4.57727)
(100.919 -4.37944 -6.05764)
(45.2255 0.256147 -6.22501)
(99.4155 -4.13534 -4.95396)
(46.1326 -1.08415 -7.72296)
(97.0061 -7.67807 -1.76412)
(94.8619 -3.28835 -8.34024)
(38.0827 -1.31095 -4.28939)
(94.9165 -3.2619 -7.76095)
(38.4222 -1.857 -3.26783)
(98.6007 -5.10702 -4.90461)
(38.5553 2.4975 -6.17565)
(93.4489 -3.72678 -8.81818)
(26.7006 0.97436 -4.19525)
(89.6439 -2.56536 -1.5753)
(94.4115 -2.6777 -7.68303)
(38.4259 -1.75848 -4.09629)
(94.3568 -2.87908 -7.18258)
(37.8463 -2.27601 -2.27011)
(100.053 -7.04774 -1.90335)
(94.6219 -2.24372 -5.22506)
(42.2725 -1.18575 -3.22314)
(96.2981 -2.5108 -5.19937)
(45.7541 -1.50039 -3.13867)
(98.9531 -1.62207 -4.41062)
(47.0471 -1.88842 -3.22965)
(99.1839 -0.685335 -3.6544)
(50.879 -4.90753 -3.16929)
(102.193 -1.29517 -3.33022)
(93.5283 -3.90238 -5.98008)
(37.1763 -1.79329 -3.30206)
(92.0229 -4.35502 -5.59796)
(34.7746 -1.71059 -2.31919)
(90.3961 -4.2035 -3.72558)
(33.4385 -0.273814 -3.00699)
(83.4236 -6.98697 -3.72243)
(37.9999 -1.0169 -1.10308)
(71.4751 -3.54547 -1.00512)
(92.6726 -2.93209 -5.33019)
(34.5809 -1.25679 -2.93425)
(89.8334 -3.18253 -4.80134)
(27.7035 -0.891802 -1.31991)
(88.9294 -4.35434 -1.69402)
(20.7357 1.58181 -2.41805)
(84.3329 -7.80183 -0.684405)
(-1.83278 -0.748187 -0.0622429)
(81.8001 -3.31196 2.68058)
(92.3025 -1.58154 -5.23911)
(33.3266 -0.824785 -3.23279)
(88.3694 -1.73175 -5.0392)
(25.4214 -1.26909 -1.22142)
(88.4534 -2.91118 -0.406846)
(20.2879 2.45478 -4.25856)
(82.8328 2.9376 -1.73776)
(94.1192 -2.79 -4.00676)
(43.0475 -1.47277 -2.75216)
(96.2888 -2.86396 -4.07267)
(46.4731 -1.1058 -2.64846)
(98.7355 -2.26559 -3.17121)
(47.7994 -1.23493 -2.80451)
(100.802 -2.15876 -3.99297)
(50.6864 -1.65311 -2.53641)
(103.984 -3.61506 -2.05205)
(92.924 -3.55486 -4.48584)
(36.7833 -1.79602 -2.6385)
(91.3072 -3.5713 -4.47978)
(33.0899 -1.34573 -1.90126)
(91.5252 -2.56012 -2.98581)
(30.7732 -0.521108 -1.36384)
(90.211 -3.18563 -4.4972)
(27.8533 -0.605167 0.970462)
(90.4241 -4.30927 -4.11819)
(92.0932 -2.60434 -4.65341)
(35.9923 -1.50639 -2.91442)
(89.2343 -2.84983 -3.99126)
(30.0085 -1.30785 -1.76152)
(88.9873 -2.10587 -1.12421)
(26.6511 -0.0141202 -1.88975)
(87.8674 -2.72151 2.54524)
(22.3346 -0.402616 -0.739081)
(88.5123 -1.16149 -2.68222)
(92.1709 -1.46773 -3.9538)
(34.8742 -0.672403 -2.88173)
(88.061 -1.01865 -3.52278)
(28.462 -0.678385 -1.99875)
(88.5946 -1.39046 -0.76068)
(26.6568 1.42906 -3.30458)
(86.1043 -0.528359 1.0914)
(20.9729 1.57975 -2.04485)
(86.5665 2.23624 -3.00433)
)
;

boundaryField
{
    inlet
    {
        type            calculated;
        value           uniform (67 0 0);
    }
    outlet
    {
        type            calculated;
        value           nonuniform 0();
    }
    wall
    {
        type            calculated;
        value           uniform (0 0 0);
    }
    procBoundary0to1
    {
        type            processor;
        value           nonuniform List<vector> 
12
(
(100.109 1.43705 -0.333429)
(88.2679 -2.00462 -0.277973)
(74.0866 -1.31746 -0.751006)
(68.306 0.317061 -4.05763)
(42.6447 -2.86902 2.84401)
(6.55586 0.340711 -1.28274)
(49.3056 3.4493 -2.81904)
(40.3978 -4.05485 -1.73849)
(-1.09476 -0.713014 0.233579)
(53.5956 -1.60112 -2.94023)
(20.8945 -0.784471 -3.34242)
(14.2211 -1.1091 -1.48927)
)
;
    }
    procBoundary0to2
    {
        type            processor;
        value           nonuniform List<vector> 
44
(
(54.5621 -4.9185 -1.08227)
(122.72 -13.3651 -0.602219)
(76.9514 13.6084 -6.34072)
(111.782 3.30715 -5.49363)
(73.3311 4.29848 -2.71417)
(119.262 1.6595 -3.13018)
(97.3143 -3.59972 -2.34236)
(43.1491 -3.6608 -1.05345)
(54.5621 -4.9185 -1.08227)
(99.9236 -6.90796 -1.73088)
(54.5621 -4.9185 -1.08227)
(122.72 -13.3651 -0.602219)
(42.3828 6.33577 -9.73808)
(90.7955 0.189015 -10.206)
(28.7677 2.19181 -5.25711)
(88.8185 3.64656 -1.30193)
(95.0863 -1.70886 -5.59124)
(38.2562 -2.11265 -2.42304)
(93.6957 -3.43046 -4.88348)
(34.6983 -4.65673 0.444276)
(42.3828 6.33577 -9.73808)
(106.812 -12.0037 5.22133)
(42.3828 6.33577 -9.73808)
(90.7955 0.189015 -10.206)
(-1.95047 -0.342548 0.32461)
(78.9144 -3.69905 0.853836)
(93.0153 0.202443 -4.16809)
(35.439 -0.421212 -2.00087)
(89.6746 -0.990797 -3.04992)
(28.9453 -2.16647 0.112649)
(94.4005 -4.59995 3.88107)
(31.9102 5.62097 -7.35577)
(-1.95047 -0.342548 0.32461)
(86.9988 3.19988 -2.52658)
(-1.95047 -0.342548 0.32461)
(78.9144 -3.69905 0.853836)
(91.4424 0.278584 -5.51001)
(35.1713 0.0519003 -3.24389)
(87.9745 0.070394 -4.66428)
(31.546 -0.864326 -2.95021)
(91.0857 -1.52878 -3.03042)
(31.9651 2.31693 -5.75963)
(87.7382 0.927451 0.928348)
(22.9496 2.00885 -1.00488)
)
;
    }
    procBoundary0to4
    {
        type            processor;
        value           nonuniform List<vector> 
36
(
(93.5234 -2.88328 -2.56582)
(42.8111 -1.55733 -1.77886)
(94.3998 -3.2685 -2.59647)
(44.8522 -1.62492 -2.11889)
(96.1056 -2.01626 -1.96301)
(45.4765 -1.36765 -2.52121)
(97.1257 -2.48629 -3.01696)
(44.5806 -2.11291 -2.94191)
(98.3566 -6.07079 -0.274103)
(91.5478 -4.60106 -2.41735)
(35.9417 -2.31095 -1.49994)
(88.561 -4.53092 -2.48118)
(28.0264 -1.53779 -1.48958)
(86.6704 -2.82765 -2.60227)
(23.8987 -0.525915 -1.62532)
(85.3633 -2.24852 -1.73149)
(16.9151 -0.747528 -1.19041)
(85.5976 -5.06124 2.10075)
(91.3226 -2.48049 -2.63636)
(33.7112 -1.56001 -1.64273)
(86.7908 -2.32442 -2.44711)
(24.9962 -1.13494 -1.18887)
(85.701 -2.46484 -0.911387)
(22.7125 -0.390958 -1.59324)
(84.8322 -3.0298 -0.259891)
(17.4086 -0.779307 -1.28531)
(82.1738 -0.563585 3.28551)
(91.4848 -2.54997 -2.99777)
(34.5155 -1.26348 -1.66311)
(86.3232 -2.50935 -2.56901)
(26.8098 -1.9586 -1.57568)
(84.3201 -4.58672 -1.09841)
(22.0877 -0.460566 -1.90805)
(81.2289 1.96157 -0.940804)
(14.0658 1.60614 -1.14705)
(78.2686 2.68956 2.7303)
)
;
    }
    procBoundary0to6
    {
        type            processor;
        value           uniform (87.4763 2.70543 3.94294);
    }
    procBoundary0to7
    {
        type            processor;
        value           uniform (14.5276 0.783654 -2.25318);
    }
}


// ************************************************************************* //
