/*--------------------------------*- C++ -*----------------------------------*\
| =========                 |                                                 |
| \\      /  F ield         | OpenFOAM: The Open Source CFD Toolbox           |
|  \\    /   O peration     | Version:  4.x                                   |
|   \\  /    A nd           | Web:      www.OpenFOAM.org                      |
|    \\/     M anipulation  |                                                 |
\*---------------------------------------------------------------------------*/
FoamFile
{
    version     2.0;
    format      ascii;
    class       volScalarField;
    location    "14.5";
    object      nu;
}
// * * * * * * * * * * * * * * * * * * * * * * * * * * * * * * * * * * * * * //

dimensions      [0 2 -1 0 0 0 0];

internalField   nonuniform List<scalar> 
132
(
1.00018e-06
1.00008e-06
1.00001e-06
9.99999e-07
1.00001e-06
1.00003e-06
1.00006e-06
1.00009e-06
1.00011e-06
1.00001e-06
1.00001e-06
1e-06
1e-06
1.00002e-06
1.00004e-06
1.00008e-06
1.00013e-06
1.00016e-06
9.99999e-07
1e-06
1e-06
1.00001e-06
1.00002e-06
1.00004e-06
1.00009e-06
1.00016e-06
1.00023e-06
1e-06
1e-06
1e-06
1.00001e-06
1.00001e-06
1e-06
1e-06
1.00001e-06
1.00004e-06
1.00009e-06
1.00015e-06
1.00015e-06
1.00001e-06
1.00001e-06
1e-06
1.00001e-06
1.00002e-06
1.00006e-06
1.00014e-06
1.00029e-06
1.00026e-06
1e-06
1e-06
1e-06
1.00001e-06
1.00004e-06
1.00008e-06
1.00018e-06
1.00031e-06
1.00038e-06
1e-06
1e-06
1e-06
1.00001e-06
1.00003e-06
1e-06
1e-06
1e-06
1e-06
1.00001e-06
1.00004e-06
1.00009e-06
1.00019e-06
1.00009e-06
1e-06
1e-06
1e-06
1.00001e-06
1.00003e-06
1.00006e-06
1.00016e-06
1.00045e-06
1.00097e-06
1e-06
1e-06
1e-06
1.00001e-06
1.00003e-06
1.00009e-06
1.00018e-06
1.0003e-06
1.00018e-06
1e-06
1e-06
1e-06
1.00001e-06
1.00004e-06
1.00009e-06
1.00019e-06
1e-06
1e-06
1e-06
1e-06
1.00001e-06
1.00002e-06
1.00005e-06
1.00008e-06
1.00006e-06
1e-06
1e-06
1e-06
1.00001e-06
1.00002e-06
1.00004e-06
1.00009e-06
1.00016e-06
1.00003e-06
1e-06
1e-06
1e-06
1.00001e-06
1.00002e-06
1.00005e-06
1.0001e-06
1.00016e-06
1.00016e-06
1e-06
1e-06
1e-06
1.00001e-06
1.00002e-06
1.00007e-06
1.00011e-06
1.00016e-06
1.00021e-06
)
;

boundaryField
{
    inlet
    {
        type            calculated;
        value           uniform 1e-06;
    }
    outlet
    {
        type            calculated;
        value           nonuniform 0();
    }
    wall
    {
        type            calculated;
        value           nonuniform List<scalar> 
66
(
1.00018e-06
1.00001e-06
9.99999e-07
1e-06
1.00008e-06
1.00001e-06
1e-06
1e-06
1.00001e-06
1e-06
1e-06
1e-06
9.99999e-07
1e-06
1.00001e-06
1.00001e-06
1.00002e-06
1.00002e-06
1.00003e-06
1.00004e-06
1.00004e-06
1.00006e-06
1.00008e-06
1.00009e-06
1.00009e-06
1.00013e-06
1.00016e-06
1.00011e-06
1.00016e-06
1.00023e-06
1.00018e-06
1.00001e-06
1e-06
1e-06
1.00008e-06
1.00001e-06
1e-06
1e-06
1.00001e-06
1e-06
1e-06
1e-06
9.99999e-07
1e-06
1e-06
1e-06
1.00001e-06
1.00001e-06
1.00001e-06
1.00001e-06
1.00003e-06
1.00004e-06
1.00004e-06
1.00002e-06
1.00006e-06
1.00009e-06
1.00009e-06
1.00005e-06
1.00009e-06
1.00015e-06
1.00019e-06
1.00008e-06
1.00011e-06
1.00015e-06
1.00009e-06
1.00006e-06
)
;
    }
    procBoundary0to1
    {
        type            processor;
        value           nonuniform List<scalar> 
12
(
1.00013e-06
1.00019e-06
1.00033e-06
1.00016e-06
1.00018e-06
1.00045e-06
9.99978e-07
1.00076e-06
1.00011e-06
1.00005e-06
9.9994e-07
1.00015e-06
)
;
    }
    procBoundary0to2
    {
        type            processor;
        value           nonuniform List<scalar> 
44
(
1.00001e-06
1.00002e-06
1.00004e-06
1.00009e-06
1.00016e-06
1.00025e-06
1e-06
1e-06
1.00001e-06
1.00001e-06
1.00001e-06
1.00002e-06
1.00008e-06
1.00019e-06
1.00032e-06
1.00046e-06
1e-06
1e-06
1.00001e-06
1.00001e-06
1.00008e-06
1.00003e-06
1.00008e-06
1.00019e-06
1.0003e-06
1.00036e-06
1e-06
1e-06
1e-06
1.00001e-06
1.00002e-06
1.00006e-06
1.0003e-06
1.00013e-06
1.0003e-06
1.00036e-06
1e-06
1e-06
1e-06
1.00001e-06
1.00002e-06
1.00005e-06
1.00008e-06
1.00013e-06
)
;
    }
    procBoundary0to4
    {
        type            processor;
        value           nonuniform List<scalar> 
36
(
1e-06
1e-06
1e-06
1e-06
1.00001e-06
1.00002e-06
1.00004e-06
1.00006e-06
1.00007e-06
1e-06
1e-06
1e-06
1.00001e-06
1.00002e-06
1.00004e-06
1.00008e-06
1.00011e-06
1.00011e-06
1e-06
1e-06
1e-06
1.00001e-06
1.00002e-06
1.00005e-06
1.00008e-06
1.00012e-06
1.00014e-06
1e-06
1e-06
1e-06
1.00001e-06
1.00002e-06
1.00005e-06
1.00009e-06
1.00013e-06
1.00016e-06
)
;
    }
    procBoundary0to6
    {
        type            processor;
        value           uniform 1.00019e-06;
    }
    procBoundary0to7
    {
        type            processor;
        value           uniform 1.00024e-06;
    }
}


// ************************************************************************* //
