/*--------------------------------*- C++ -*----------------------------------*\
| =========                 |                                                 |
| \\      /  F ield         | OpenFOAM: The Open Source CFD Toolbox           |
|  \\    /   O peration     | Version:  4.x                                   |
|   \\  /    A nd           | Web:      www.OpenFOAM.org                      |
|    \\/     M anipulation  |                                                 |
\*---------------------------------------------------------------------------*/
FoamFile
{
    version     2.0;
    format      ascii;
    class       volScalarField;
    location    "14.5";
    object      p_rgh;
}
// * * * * * * * * * * * * * * * * * * * * * * * * * * * * * * * * * * * * * //

dimensions      [1 -1 -2 0 0 0 0];

internalField   nonuniform List<scalar> 
132
(
-740.872
-774.03
-751.953
-646.517
-365.829
-130.375
126.269
175.788
210.831
-768.833
-813.392
-819.762
-753.192
-420.071
-103.228
216.126
236.864
235.293
-839.724
-903.657
-972.881
-992.09
-570.539
7.84668
441.912
345.208
299.862
-1022.47
-1046.77
-1288.93
-693.546
-720.104
-676.237
-588.129
-342.267
-140.16
90.0174
134.77
180.159
-711.19
-749.178
-734.059
-672.78
-381.192
-124.312
145.646
177.294
200.959
-771.5
-804.194
-843.839
-837.089
-472.213
-82.7671
274.954
253.205
242.091
-916.414
-931.716
-1053.14
-1164.8
-688.645
-594.059
-598.938
-553.516
-489.371
-295.999
-148.522
40.4217
78.7445
136.225
-599.91
-603.837
-587.095
-526.482
-314.323
-145.516
63.7334
99.3027
146.755
-615.236
-624.644
-635.256
-589.912
-347.268
-139.034
122.644
141.218
154.5
-669.527
-699.008
-735.029
-757.048
-428.832
-95.3777
259.683
-439.522
-450.229
-430.777
-381.045
-242.47
-147.144
2.70209
27.2971
94.5503
-435.695
-447.991
-428.342
-386.818
-248.225
-147.215
11.7376
36.536
101.325
-435.485
-456.065
-442.065
-418.932
-260.89
-144.56
34.1811
72.1359
123.88
-462.025
-503.006
-513.359
-509.027
-304.967
-125.185
123.802
141.072
166.175
)
;

boundaryField
{
    inlet
    {
        type            fixedFluxPressure;
        gradient        nonuniform List<scalar> 
16
(
-72.642
-3.54155
0.245709
-0.236929
-2.69384
-2.06134
-0.602041
-0.392055
-0.0319383
-0.327399
-0.23798
-0.211842
-0.0106046
-0.0174799
-0.0193155
-0.0172966
)
;
        value           nonuniform List<scalar> 
16
(
-741.881
-768.882
-839.721
-1022.47
-693.584
-711.219
-771.508
-916.42
-594.06
-599.915
-615.239
-669.53
-439.523
-435.696
-435.485
-462.025
)
;
    }
    outlet
    {
        type            fixedValue;
        value           nonuniform 0();
    }
    wall
    {
        type            fixedFluxPressure;
        gradient        nonuniform List<scalar> 
66
(
-0.00721821
-0.0107599
-0.0161694
-0.0334244
-0.0137789
-0.0428672
-0.0418034
-0.0484784
-0.0190121
-0.0166931
-0.0212489
-0.018003
-0.00430062
-0.0206729
-0.0520987
0.00181215
-0.0118506
-0.00812874
-0.0127666
-0.0220061
-0.0252289
-0.0061274
0.0016171
0.00602328
-0.000255931
-0.0118473
-0.0155038
0.0165098
0.0086275
0.00656388
0.0151751
0.0192557
0.0211083
0.0316842
0.0369823
0.0785148
0.0541415
0.0449712
0.028202
0.0313129
0.0295766
0.0198967
0.0170548
0.0306933
0.0276061
0.00879051
0.0072405
-0.00105153
0.00317821
0.0083936
0.000274778
0.0229969
0.0244599
0.0238279
-0.0112742
-0.0364317
-0.0122523
-0.00219107
-0.0368184
-0.0504996
-0.0335646
-0.0256501
-0.0304436
-0.00281107
-0.00975499
-0.0151814
)
;
        value           nonuniform List<scalar> 
66
(
-740.872
-768.833
-839.724
-1022.47
-774.03
-813.392
-903.657
-1046.77
-751.953
-819.763
-972.881
-1288.93
-646.517
-753.192
-992.09
-365.829
-420.071
-570.539
-130.375
-103.228
7.84632
126.269
216.126
441.912
175.788
236.864
345.208
210.831
235.293
299.862
-740.871
-693.546
-594.059
-439.522
-774.03
-720.103
-598.937
-450.228
-751.953
-676.237
-553.515
-430.776
-646.516
-588.128
-489.37
-381.045
-365.829
-342.267
-295.999
-242.47
-130.375
-140.159
-148.521
-147.144
126.269
90.0169
40.4215
2.70206
175.788
134.769
78.744
27.2967
210.83
180.159
136.225
94.5501
)
;
    }
    procBoundary0to1
    {
        type            processor;
        value           nonuniform List<scalar> 
12
(
102.556
133.411
199.233
90.2642
108.366
156.716
61.6945
72.5124
101.562
32.1917
37.0896
63.2814
)
;
    }
    procBoundary0to2
    {
        type            processor;
        value           nonuniform List<scalar> 
44
(
-1570.27
-930.548
341.936
947.163
555.923
392.224
-1321.86
-1316.44
-1570.27
-1718.42
-1570.27
-930.548
76.8598
566.589
405.476
326.424
-1112.48
-1159.59
-1393.16
-1941.36
76.8598
-1311.98
76.8598
566.589
238.316
224.944
-790.835
-876.657
-979.774
-1116.22
-650.561
69.3117
238.316
554.983
238.316
224.944
-524.701
-604.619
-656.197
-693.081
-393.66
-83.3698
258.869
240.846
)
;
    }
    procBoundary0to4
    {
        type            processor;
        value           nonuniform List<scalar> 
36
(
-317.065
-336.293
-314.116
-292.125
-197.657
-137.544
-16.809
-3.2504
68.7502
-318.543
-343.293
-322.164
-304.958
-201.612
-135.565
-8.02961
6.62022
80.6497
-331.522
-366.247
-354.001
-336.894
-213.069
-132.32
11.9819
38.7215
102.06
-368.241
-413.391
-421.353
-404.422
-245.608
-118.746
70.1639
93.9611
143.327
)
;
    }
    procBoundary0to6
    {
        type            processor;
        value           uniform 220.673;
    }
    procBoundary0to7
    {
        type            processor;
        value           uniform 93.5072;
    }
}


// ************************************************************************* //
