/*--------------------------------*- C++ -*----------------------------------*\
| =========                 |                                                 |
| \\      /  F ield         | OpenFOAM: The Open Source CFD Toolbox           |
|  \\    /   O peration     | Version:  4.x                                   |
|   \\  /    A nd           | Web:      www.OpenFOAM.org                      |
|    \\/     M anipulation  |                                                 |
\*---------------------------------------------------------------------------*/
FoamFile
{
    version     2.0;
    format      ascii;
    class       volScalarField;
    location    "14.5";
    object      pSmooth;
}
// * * * * * * * * * * * * * * * * * * * * * * * * * * * * * * * * * * * * * //

dimensions      [1 -1 -2 0 0 0 0];

internalField   nonuniform List<scalar> 
132
(
138.022
123.329
130.585
107.645
121.786
92.4955
111.25
82.3218
100.102
137.655
123.35
130.724
107.699
121.995
92.5249
111.302
82.6052
100.244
137.96
123.605
130.992
107.89
122.541
92.1549
111.759
82.8786
101.202
138.23
123.75
131.152
138.049
123.623
130.905
107.888
122.217
92.2643
111.625
81.6427
100.569
138.367
123.793
131.241
108.069
122.581
92.2392
111.854
81.8023
101.104
138.729
124.021
131.559
108.217
123.017
91.9882
112.614
81.6705
102.57
139.132
124.193
131.847
108.289
123.307
138.965
124.24
131.648
108.477
122.882
91.875
112.142
80.7684
100.875
139.352
124.459
132.056
108.694
123.189
92.1094
112.206
81.1855
101.987
139.844
124.736
132.511
108.808
123.749
91.8895
113.354
80.8178
100.995
140.201
124.976
132.743
108.879
123.871
91.4325
113.161
139.292
124.513
131.829
108.614
122.949
91.1549
111.883
79.419
100.173
139.847
124.802
132.31
108.723
123.376
91.4597
112.074
79.4778
100.684
140.196
125.088
132.627
108.976
123.578
91.399
111.951
79.1418
100.608
140.69
125.451
133.078
109.149
123.786
91.4244
112.163
78.7082
100.438
)
;

boundaryField
{
    inlet
    {
        type            zeroGradient;
    }
    outlet
    {
        type            fixedValue;
        value           nonuniform 0();
    }
    wall
    {
        type            zeroGradient;
    }
    procBoundary0to1
    {
        type            processor;
        value           nonuniform List<scalar> 
12
(
68.0365
68.2575
67.7739
67.1065
67.2656
66.9632
66.1821
66.3184
65.8933
63.3456
63.5729
62.9264
)
;
    }
    procBoundary0to2
    {
        type            processor;
        value           nonuniform List<scalar> 
44
(
108.074
122.964
91.1507
111.425
81.3472
100.583
138.692
124.156
108.074
131.698
108.074
122.964
91.333
112.319
80.831
101.511
139.373
124.569
132.212
108.547
91.333
123.841
91.333
112.319
80.1596
100.424
140.406
125.195
132.972
109.152
124.067
90.8525
80.1596
112.41
80.1596
100.424
140.735
125.461
132.969
109.081
123.529
90.0115
111.918
78.166
)
;
    }
    procBoundary0to4
    {
        type            processor;
        value           nonuniform List<scalar> 
36
(
139.962
125.043
132.427
109.054
123.39
90.9816
112.442
78.0333
100.419
140.542
125.362
133.003
109.325
123.762
91.2942
112.691
78.0164
101.35
141.18
125.839
133.49
109.671
124.096
91.5894
112.467
77.7886
100.902
141.409
126.1
133.7
109.889
124.157
92.226
112.699
77.3869
101.139
)
;
    }
    procBoundary0to6
    {
        type            processor;
        value           uniform 99.9945;
    }
    procBoundary0to7
    {
        type            processor;
        value           uniform 63.4593;
    }
}


// ************************************************************************* //
