/*--------------------------------*- C++ -*----------------------------------*\
| =========                 |                                                 |
| \\      /  F ield         | OpenFOAM: The Open Source CFD Toolbox           |
|  \\    /   O peration     | Version:  4.x                                   |
|   \\  /    A nd           | Web:      www.OpenFOAM.org                      |
|    \\/     M anipulation  |                                                 |
\*---------------------------------------------------------------------------*/
FoamFile
{
    version     2.0;
    format      ascii;
    class       volScalarField;
    location    "43.5";
    object      QPartFluidCoeff;
}
// * * * * * * * * * * * * * * * * * * * * * * * * * * * * * * * * * * * * * //

dimensions      [1 -1 -3 -1 0 0 0];

internalField   nonuniform List<scalar> 
132
(
-3.34681e+07
-3.04861e+07
-2.14752e+07
-2.65979e+07
-3.70068e+07
-4.17427e+07
-2.66633e+07
-2.17594e+07
-2.04434e+07
-2.4897e+07
-3.80963e+07
-2.47762e+07
-2.72238e+07
-2.79368e+07
-2.31857e+07
-2.62988e+07
-2.55879e+07
-2.27881e+07
-1.7712e+07
-3.1521e+07
-2.32083e+07
-3.00654e+07
-2.80362e+07
-3.5231e+07
-2.89786e+07
-3.06239e+07
-2.31818e+07
-2.35864e+07
-2.51251e+07
-2.99387e+07
-1.99711e+07
-2.64999e+07
-2.69151e+07
-2.68901e+07
-2.35823e+07
-1.22314e+07
-2.18312e+07
-2.88226e+07
-2.33282e+07
-2.74006e+07
-2.943e+07
-3.30215e+07
-2.038e+07
-1.28241e+07
-3.36801e+07
-2.44181e+07
-2.95924e+07
-2.88332e+07
-2.77252e+07
-1.89839e+07
-3.02202e+07
-1.53182e+07
-2.00264e+07
-3.37824e+07
-2.50823e+07
-2.43444e+07
-2.73095e+07
-3.49776e+07
-3.16202e+07
-2.78057e+07
-2.06575e+07
-2.23187e+07
-2.87667e+07
-1.99544e+07
-2.66607e+07
-2.2838e+07
-2.20022e+07
-1.93862e+07
-2.80741e+07
-1.36997e+07
-1.67627e+07
-2.43064e+07
-2.76003e+07
-2.55956e+07
-1.55878e+07
-2.8556e+07
-3.05283e+07
-2.36298e+07
-2.17762e+07
-3.05313e+07
-2.95586e+07
-2.62124e+07
-3.60218e+07
-2.3149e+07
-2.72863e+07
-3.16724e+07
-2.87431e+07
-3.00767e+07
-3.09478e+07
-3.31532e+07
-2.96609e+07
-3.1266e+07
-2.2932e+07
-2.01079e+07
-2.44342e+07
-2.39824e+07
-2.70471e+07
-2.15156e+07
-2.27962e+07
-2.71024e+07
-2.76164e+07
-1.71229e+07
-1.96332e+07
-2.70717e+07
-1.62414e+07
-2.44436e+07
-2.34311e+07
-2.52565e+07
-2.89962e+07
-1.7523e+07
-1.65939e+07
-2.34867e+07
-2.63061e+07
-1.46363e+07
-2.11278e+07
-2.26679e+07
-2.11835e+07
-2.60209e+07
-2.45164e+07
-2.39759e+07
-2.53547e+07
-2.57778e+07
-1.99005e+07
-2.03108e+07
-2.76285e+07
-1.96739e+07
-2.38564e+07
-2.43747e+07
-2.33182e+07
-2.16488e+07
-2.35041e+07
-1.20133e+07
)
;

boundaryField
{
    inlet
    {
        type            calculated;
        value           nonuniform 0();
    }
    outlet
    {
        type            calculated;
        value           uniform 0;
    }
    wall
    {
        type            calculated;
        value           uniform 0;
    }
    procBoundary7to0
    {
        type            processor;
        value           uniform 197.556;
    }
    procBoundary7to1
    {
        type            processor;
        value           uniform 445.437;
    }
    procBoundary7to3
    {
        type            processor;
        value           nonuniform List<scalar> 
36
(
622.562
833.058
698.785
783.661
499.562
592.401
691.348
638.125
526.798
721.875
464.388
616.158
379.11
330.887
712.494
575.761
799.86
385.874
456.734
780.402
696.465
550.978
561.883
757.021
615.242
706.392
383.044
663.46
368.708
438.222
528.322
488.167
651.117
482.399
725.848
571.983
)
;
    }
    procBoundary7to5
    {
        type            processor;
        value           nonuniform List<scalar> 
44
(
752.405
464.517
658.749
444.783
401.934
563.824
472.395
502.428
776.046
383.125
550.687
689.917
469.096
639.009
554.916
616.077
342.1
776.046
383.125
383.125
722.303
754.278
859.429
701.693
686.932
833.328
628.104
400.875
886.948
722.303
754.278
754.278
787.641
646.872
533.224
623.979
490.278
543.872
490.148
554.487
509.859
787.641
646.872
646.872
)
;
    }
    procBoundary7to6
    {
        type            processor;
        value           nonuniform List<scalar> 
12
(
612.782
677.52
425.027
752.768
709.748
662.709
723.425
754.222
519.932
343.685
641.046
543.466
)
;
    }
}


// ************************************************************************* //
