/*--------------------------------*- C++ -*----------------------------------*\
| =========                 |                                                 |
| \\      /  F ield         | OpenFOAM: The Open Source CFD Toolbox           |
|  \\    /   O peration     | Version:  4.x                                   |
|   \\  /    A nd           | Web:      www.OpenFOAM.org                      |
|    \\/     M anipulation  |                                                 |
\*---------------------------------------------------------------------------*/
FoamFile
{
    version     2.0;
    format      ascii;
    class       volScalarField;
    location    "22.5";
    object      p;
}
// * * * * * * * * * * * * * * * * * * * * * * * * * * * * * * * * * * * * * //

dimensions      [1 -1 -2 0 0 0 0];

internalField   nonuniform List<scalar> 
87
(
79.7233
40.4878
79.5625
86.7737
40.3221
79.3149
-1766.46
-1784.3
-1774.13
-1801.23
-1782.09
-1818.68
-1790.1
-1835.97
-1798.15
-1766.85
-1784.31
-1774.41
-1801.4
-1782.24
-1818.89
-1790.08
-1836.37
-1797.81
-1767.53
-1784.67
-1775.03
-1801.62
-1782.73
-1819.11
-1790.59
-1836.55
-1798.15
-3644.66
-3662.28
-3652.44
-3679.36
-3660.4
-3696.67
-3668.26
-3714.18
-3675.86
-3644.99
-3662.31
-3652.65
-3679.37
-3660.53
-3696.74
-3668.34
-3714.27
-3676.01
-3645.62
-3662.67
-3653.19
-3679.6
-3660.98
-3697.03
-3668.75
-3714.55
-3676.31
-5522.92
-5540.27
-5530.56
-5557.27
-5538.44
-5574.58
-5546.26
-5592.15
-5553.89
-5523.18
-5540.32
-5530.76
-5557.27
-5538.58
-5574.69
-5546.38
-5592.03
-5553.97
-5523.68
-5540.55
-5531.19
-5557.48
-5538.91
-5574.8
-5546.69
-5592.14
-5554.16
)
;

boundaryField
{
    inlet
    {
        type            calculated;
        value           nonuniform List<scalar> 9(-1766.46 -1766.85 -1767.53 -3644.66 -3644.99 -3645.62 -5522.92 -5523.18 -5523.68);
    }
    outlet
    {
        type            calculated;
        value           nonuniform 0();
    }
    wall
    {
        type            calculated;
        value           nonuniform List<scalar> 
57
(
-6461.88
-6462.14
-6462.64
-6479.23
-6479.27
-6479.51
-6469.51
-6469.72
-6470.14
-6496.22
-6496.22
-6496.44
-6477.39
-6477.53
-6477.87
-6513.53
-6513.65
-6513.76
-6485.22
-6485.33
-6485.65
-6531.1
-6530.99
-6531.1
-6492.84
-6492.93
-6493.12
-1767.53
-3645.62
-5523.68
-1784.67
-3662.67
-5540.55
-1775.03
-3653.19
-5531.19
-1801.62
-3679.6
-5557.48
-1782.73
-3660.98
-5538.91
-1819.11
-3697.03
-5574.8
86.7737
-1790.59
-3668.75
-5546.69
40.3221
-1836.55
-3714.55
-5592.14
79.3149
-1798.15
-3676.31
-5554.16
)
;
    }
    procBoundary6to0
    {
        type            processor;
        value           uniform 79.969;
    }
    procBoundary6to2
    {
        type            processor;
        value           nonuniform List<scalar> 
32
(
1957.72
1918.42
1957.8
1964.82
1918.34
1957.39
110.566
93.172
102.918
75.8423
95.0669
58.2753
87.28
40.489
40.489
40.489
110.408
93.1305
102.84
75.8485
95.0226
58.315
87.196
87.196
87.196
109.746
92.7618
102.242
75.5843
94.4869
58.0657
58.0657
)
;
    }
    procBoundary6to4
    {
        type            processor;
        value           nonuniform List<scalar> 
27
(
-1766.57
-1783.99
-1774.09
-1801.11
-1781.97
-1818.5
-1789.95
-1836.03
-1797.82
-3644.47
-3662.01
-3652.11
-3679.05
-3660.08
-3696.55
-3668.04
-3714.11
-3675.8
-5522.64
-5540.16
-5530.35
-5557.14
-5538.32
-5574.67
-5546.3
-5592.03
-5553.9
)
;
    }
    procBoundary6to7
    {
        type            processor;
        value           nonuniform List<scalar> 
12
(
22.6975
22.5828
22.3
-1852.98
-1853.77
-1854.04
-3731.73
-3731.87
-3732.26
-5609.39
-5609.45
-5609.6
)
;
    }
}


// ************************************************************************* //
