/*--------------------------------*- C++ -*----------------------------------*\
| =========                 |                                                 |
| \\      /  F ield         | OpenFOAM: The Open Source CFD Toolbox           |
|  \\    /   O peration     | Version:  4.x                                   |
|   \\  /    A nd           | Web:      www.OpenFOAM.org                      |
|    \\/     M anipulation  |                                                 |
\*---------------------------------------------------------------------------*/
FoamFile
{
    version     2.0;
    format      ascii;
    class       volScalarField;
    location    "22.5";
    object      thCond;
}
// * * * * * * * * * * * * * * * * * * * * * * * * * * * * * * * * * * * * * //

dimensions      [1 1 -3 -1 0 0 0];

internalField   nonuniform List<scalar> 
87
(
190.395
190.525
190.44
190.793
190.797
190.747
190.703
190.725
190.729
190.353
190.104
190.246
190.109
190.156
189.997
191.203
190.835
190.729
190.344
190.29
190.192
190.181
190.1
190.09
191.556
191.085
190.998
190.653
190.372
190.192
190.386
190.386
190.262
190.846
190.686
190.496
190.249
190.275
190.131
190.071
190.12
189.951
191.237
190.877
190.674
190.416
190.355
190.318
190.156
190.268
190.042
191.541
191.104
190.926
190.494
190.352
190.354
190.377
190.458
190.372
191.209
191.013
190.685
190.346
190.202
190.088
189.925
189.978
190.311
191.362
191.142
190.766
190.555
190.182
190.244
190.287
190.349
190.126
191.7
191.238
190.936
190.644
190.546
190.235
190.588
190.611
190.402
)
;

boundaryField
{
    inlet
    {
        type            zeroGradient;
    }
    outlet
    {
        type            zeroGradient;
    }
    wall
    {
        type            zeroGradient;
    }
    procBoundary6to0
    {
        type            processor;
        value           uniform 190.727;
    }
    procBoundary6to2
    {
        type            processor;
        value           nonuniform List<scalar> 
32
(
190.864
190.818
190.716
190.971
191.207
191.003
191.415
190.989
190.717
190.662
190.579
190.536
190.421
190.378
190.378
190.378
191.406
191.109
190.783
190.76
190.623
190.544
190.391
190.391
190.391
191.704
191.309
191.099
190.87
190.9
190.739
190.739
)
;
    }
    procBoundary6to4
    {
        type            processor;
        value           nonuniform List<scalar> 
27
(
191.305
190.973
190.608
190.482
190.242
190.203
189.953
190.203
190.198
191.016
190.761
190.573
190.148
190.013
190.021
189.818
189.972
190.033
190.93
190.763
190.622
190.206
190.091
189.866
190.215
190.248
190.158
)
;
    }
    procBoundary6to7
    {
        type            processor;
        value           nonuniform List<scalar> 
12
(
190.094
190.467
190.477
190.14
190.197
190.2
189.845
190.006
190.258
190.011
190.137
190.253
)
;
    }
}


// ************************************************************************* //
