/*--------------------------------*- C++ -*----------------------------------*\
| =========                 |                                                 |
| \\      /  F ield         | OpenFOAM: The Open Source CFD Toolbox           |
|  \\    /   O peration     | Version:  4.x                                   |
|   \\  /    A nd           | Web:      www.OpenFOAM.org                      |
|    \\/     M anipulation  |                                                 |
\*---------------------------------------------------------------------------*/
FoamFile
{
    version     2.0;
    format      ascii;
    class       volScalarField;
    location    "37.5";
    object      Ksl;
}
// * * * * * * * * * * * * * * * * * * * * * * * * * * * * * * * * * * * * * //

dimensions      [1 -3 -1 0 0 0 0];

internalField   nonuniform List<scalar> 
87
(
3822.51
2545.64
3748.73
2391.74
3756.75
2107.46
4110.46
1684.26
5397.8
4493.31
2704.35
4446.82
2570.8
4591.52
2327.83
5244.78
1987.83
6577.51
5300.27
2939.69
5389.79
2825.15
5630.73
2595.61
6019.36
2171.45
6328.06
6012.69
3023.4
6056.58
2937.21
6340.27
2741.23
7400.32
2468.65
10133.8
11080.3
3390.78
12281.1
3285.9
14657.1
3061.43
15342.4
2818.88
10334.5
32760.7
3704.57
131799
3684.63
1e+10
3771.72
70362.5
4024.37
8178.34
6308.13
3005.73
6575.95
2892.66
7085.51
2672.51
7907.36
2454.51
8012.78
13353.9
3374.56
13724.5
3222.59
13623.2
3008.77
11476.1
2742.56
7760.76
31542.4
3667.12
35484.3
3621.29
30168.9
3575.71
17547.4
3662.31
7831.89
8413.38
3322.14
11476.4
63437.8
3740.96
1e+10
)
;

boundaryField
{
    inlet
    {
        type            zeroGradient;
    }
    outlet
    {
        type            zeroGradient;
    }
    wall
    {
        type            zeroGradient;
    }
    procBoundary1to0
    {
        type            processor;
        value           nonuniform List<scalar> 
12
(
2613.78
2825.61
3025.16
3109.02
3478.77
3696.93
3108.36
3502.42
3693.45
3303.83
3734.91
4060.67
)
;
    }
    procBoundary1to3
    {
        type            processor;
        value           nonuniform List<scalar> 
27
(
4987.73
2776.92
4871.23
2620.28
5047.54
2440.49
5927.06
2178.58
6755.89
18746.5
3468
23790.6
3344.64
30236.2
3204.46
29279.5
3024.33
10460.1
59696.8
3715.85
105488
3695.73
90691.8
3708.41
44602.6
3904.54
10527.4
)
;
    }
    procBoundary1to5
    {
        type            processor;
        value           nonuniform List<scalar> 
32
(
3555.15
26651.2
4051.97
1e+10
5722.41
119570
1e+10
3779.15
1e+10
3907.75
242339
4380.82
16383.6
4131.39
1e+10
4178.34
1e+10
4277.08
6.67928e+06
4688.79
13392.4
7160.32
3063.83
3555.15
1e+10
7393.89
31737.5
1e+10
4131.39
3541.35
4131.39
530353
)
;
    }
    procBoundary1to7
    {
        type            processor;
        value           uniform 1e+10;
    }
}


// ************************************************************************* //
