/*--------------------------------*- C++ -*----------------------------------*\
| =========                 |                                                 |
| \\      /  F ield         | OpenFOAM: The Open Source CFD Toolbox           |
|  \\    /   O peration     | Version:  4.x                                   |
|   \\  /    A nd           | Web:      www.OpenFOAM.org                      |
|    \\/     M anipulation  |                                                 |
\*---------------------------------------------------------------------------*/
FoamFile
{
    version     2.0;
    format      ascii;
    class       volScalarField;
    location    "37.5";
    object      nu;
}
// * * * * * * * * * * * * * * * * * * * * * * * * * * * * * * * * * * * * * //

dimensions      [0 2 -1 0 0 0 0];

internalField   nonuniform List<scalar> 
87
(
1e-06
1e-06
1e-06
1e-06
1e-06
1e-06
1e-06
1e-06
1.00007e-06
1e-06
1e-06
1e-06
1e-06
1e-06
1e-06
1e-06
1e-06
1.00104e-06
1e-06
1e-06
1e-06
1e-06
1e-06
1e-06
1.00001e-06
1.00001e-06
1.00028e-06
1e-06
1e-06
1e-06
1e-06
1e-06
1e-06
1e-06
1e-06
1.001e-06
1e-06
1e-06
1e-06
1e-06
1e-06
1e-06
1.00001e-06
1.00001e-06
1.00065e-06
1e-06
1e-06
1e-06
1.00001e-06
1.00002e-06
1.00002e-06
1.00004e-06
1.00004e-06
1.00027e-06
1e-06
1e-06
1e-06
1e-06
1e-06
1e-06
1e-06
1e-06
1.00051e-06
1e-06
1e-06
1e-06
1e-06
1.00001e-06
1.00001e-06
1.00002e-06
1.00003e-06
1.00053e-06
1e-06
1e-06
1.00001e-06
1.00002e-06
1.00003e-06
1.00004e-06
1.00006e-06
1.00007e-06
1.00031e-06
1e-06
1e-06
1e-06
1e-06
1e-06
1e-06
)
;

boundaryField
{
    inlet
    {
        type            calculated;
        value           nonuniform 0();
    }
    outlet
    {
        type            calculated;
        value           uniform 1e-06;
    }
    wall
    {
        type            calculated;
        value           nonuniform List<scalar> 
57
(
1e-06
1e-06
1e-06
1e-06
1e-06
1e-06
1e-06
1e-06
1e-06
1e-06
1e-06
1e-06
1e-06
1e-06
1e-06
1e-06
1e-06
1e-06
1e-06
1e-06
1.00001e-06
1e-06
1e-06
1.00001e-06
1.00007e-06
1.00104e-06
1.00028e-06
1e-06
1e-06
1e-06
1e-06
1e-06
1e-06
1e-06
1e-06
1e-06
1e-06
1e-06
1e-06
1e-06
1e-06
1e-06
1e-06
1e-06
1e-06
1e-06
1e-06
1e-06
1e-06
1e-06
1e-06
1e-06
1e-06
1e-06
1.00007e-06
1.001e-06
1.00051e-06
)
;
    }
    procBoundary1to0
    {
        type            processor;
        value           nonuniform List<scalar> 
12
(
1e-06
1e-06
1e-06
1e-06
1e-06
1e-06
1e-06
1e-06
1e-06
1e-06
1e-06
1e-06
)
;
    }
    procBoundary1to3
    {
        type            processor;
        value           nonuniform List<scalar> 
27
(
1e-06
1e-06
1e-06
1e-06
1e-06
1e-06
1.00001e-06
1.00001e-06
9.99998e-07
1e-06
1e-06
1e-06
1.00001e-06
1.00001e-06
1.00002e-06
1.00003e-06
1.00004e-06
1.00041e-06
1e-06
1e-06
1.00001e-06
1.00002e-06
1.00004e-06
1.00006e-06
1.00009e-06
1.0001e-06
1.00029e-06
)
;
    }
    procBoundary1to5
    {
        type            processor;
        value           nonuniform List<scalar> 
32
(
1e-06
1e-06
1e-06
1e-06
1.00001e-06
1.00005e-06
1e-06
1e-06
1.00001e-06
1.00001e-06
1.00002e-06
1.00003e-06
1.00015e-06
1e-06
1e-06
1.00001e-06
1.00002e-06
1.00003e-06
1.00005e-06
1.00007e-06
1.00035e-06
1e-06
1e-06
1e-06
1e-06
1e-06
1e-06
1e-06
1e-06
1e-06
1e-06
1e-06
)
;
    }
    procBoundary1to7
    {
        type            processor;
        value           uniform 1e-06;
    }
}


// ************************************************************************* //
