/*--------------------------------*- C++ -*----------------------------------*\
| =========                 |                                                 |
| \\      /  F ield         | OpenFOAM: The Open Source CFD Toolbox           |
|  \\    /   O peration     | Version:  4.x                                   |
|   \\  /    A nd           | Web:      www.OpenFOAM.org                      |
|    \\/     M anipulation  |                                                 |
\*---------------------------------------------------------------------------*/
FoamFile
{
    version     2.0;
    format      ascii;
    class       volScalarField;
    location    "32";
    object      KslPrev;
}
// * * * * * * * * * * * * * * * * * * * * * * * * * * * * * * * * * * * * * //

dimensions      [1 -3 -1 0 0 0 0];

internalField   nonuniform List<scalar> 
108
(
3381.63
7950.04
3390.43
7619.72
3375.3
7347.32
3314.85
7237.43
3195.68
3472.74
9969.52
3656.61
13047.5
3713.26
16511.2
3695.05
21966.1
3627.25
3508.72
11218.5
3766.95
17785.7
3830.76
30227.3
3808.21
85328
3739.67
3497.41
11226.7
3805.64
18732.3
3905.09
42450
3929.57
438349
3862.09
3370.88
7781.56
3357.81
7452.95
3358.16
7137.62
3288.6
7142.27
3237.91
3452.51
8920.75
3544.19
9815.28
3577.36
10826.5
3565.11
12659.5
3533.14
3471.77
10066.1
3689.26
13621.3
3765.33
18771.7
3740.95
27204.2
3699.82
3499.84
10494.2
3714.52
15063.4
3786.16
22324
3753.64
33291.5
3655.63
3321.26
6949.13
3170.61
5966.46
3106.58
5553.42
3034.34
5249.95
2908.69
3373.06
7704.3
3356.34
7076.16
3290.42
6674.47
3199.26
6380.93
3084.83
3426.3
8289.42
3460.26
8237.54
3436.02
8051.53
3342
7786.93
3241.3
3467.01
8479.45
3497.77
8668.26
3463.34
8381.82
3334.93
7812.84
3215.47
)
;

boundaryField
{
    inlet
    {
        type            zeroGradient;
    }
    outlet
    {
        type            zeroGradient;
    }
    wall
    {
        type            zeroGradient;
    }
    procBoundary4to0
    {
        type            processor;
        value           uniform 0;
    }
    procBoundary4to5
    {
        type            processor;
        value           uniform 0;
    }
    procBoundary4to6
    {
        type            processor;
        value           uniform 0;
    }
}


// ************************************************************************* //
