/*--------------------------------*- C++ -*----------------------------------*\
| =========                 |                                                 |
| \\      /  F ield         | OpenFOAM: The Open Source CFD Toolbox           |
|  \\    /   O peration     | Version:  4.x                                   |
|   \\  /    A nd           | Web:      www.OpenFOAM.org                      |
|    \\/     M anipulation  |                                                 |
\*---------------------------------------------------------------------------*/
FoamFile
{
    version     2.0;
    format      ascii;
    class       volVectorField;
    location    "32";
    object      Urel;
}
// * * * * * * * * * * * * * * * * * * * * * * * * * * * * * * * * * * * * * //

dimensions      [0 1 -1 0 0 0 0];

internalField   nonuniform List<vector> 
108
(
(-0.0233337 0.000629623 0.000539754)
(-0.0214086 0.000563271 0.00050519)
(-0.0223447 0.000573774 0.000496817)
(-0.0208916 0.000480595 0.000451146)
(-0.0220877 0.000456605 0.000408518)
(-0.0207531 0.000361584 0.000365181)
(-0.0220412 0.000332689 0.000322323)
(-0.0206915 0.000255654 0.000279107)
(-0.0220499 0.0002257 0.000200888)
(-0.0231422 0.000622483 0.000522887)
(-0.0210118 0.000541521 0.000481665)
(-0.0218565 0.000566482 0.000463135)
(-0.0200599 0.000452665 0.000409698)
(-0.0212953 0.000442949 0.000366405)
(-0.0195678 0.000336936 0.000316561)
(-0.0210147 0.000315235 0.000273829)
(-0.0192409 0.000234565 0.000229229)
(-0.0208601 0.000196617 0.000166189)
(-0.0229488 0.000419381 0.000512693)
(-0.0206646 0.000366084 0.000464044)
(-0.0214064 0.000378004 0.000434689)
(-0.0193664 0.000301525 0.000370796)
(-0.0205776 0.000293956 0.000322908)
(-0.0185929 0.000218835 0.000270828)
(-0.0201022 0.000192107 0.000235512)
(-0.018085 0.00013671 0.000190977)
(-0.0198294 9.60843e-05 0.000161605)
(-0.0228592 0.000111584 0.000508756)
(-0.0205294 8.00865e-05 0.000452339)
(-0.0212149 8.1584e-05 0.000424907)
(-0.0190991 6.4958e-05 0.000362593)
(-0.0202703 6.43697e-05 0.000319709)
(-0.0182013 4.70298e-05 0.000261784)
(-0.0197093 4.16537e-05 0.000232447)
(-0.017636 3.14799e-05 0.000189331)
(-0.0193869 2.46545e-05 0.000160832)
(-0.0234024 0.000605923 0.000207018)
(-0.021545 0.000543224 0.000204362)
(-0.0225094 0.000538027 0.000180408)
(-0.0211423 0.000453912 0.000196299)
(-0.022347 0.000427241 0.000167094)
(-0.0210924 0.000346234 0.000165431)
(-0.02236 0.000315239 0.000114149)
(-0.0210975 0.00024755 0.000104516)
(-0.0224296 0.000224394 4.0918e-05)
(-0.0232349 0.000603512 0.000176252)
(-0.0212183 0.000530932 0.000176765)
(-0.0220947 0.000544185 0.000132867)
(-0.0204761 0.00043911 0.000150859)
(-0.0216776 0.000425907 0.000111064)
(-0.0201402 0.000328905 0.000119054)
(-0.021495 0.000305566 6.62626e-05)
(-0.0199245 0.00023995 7.01258e-05)
(-0.0214247 0.000226714 1.68777e-05)
(-0.0230485 0.000416568 0.000153112)
(-0.0208848 0.000357678 0.00015313)
(-0.0216652 0.000369479 0.000103894)
(-0.0198022 0.000293464 0.00011558)
(-0.0209907 0.000280177 7.20781e-05)
(-0.0191997 0.000210573 8.06631e-05)
(-0.0206327 0.000185911 3.95284e-05)
(-0.0188254 0.000148062 4.94937e-05)
(-0.0204379 0.000134363 3.03017e-05)
(-0.0229636 9.90852e-05 0.00014268)
(-0.0207398 7.12746e-05 0.000134407)
(-0.0214752 7.10672e-05 8.69771e-05)
(-0.0195216 5.96424e-05 9.75086e-05)
(-0.020703 6.12634e-05 4.78542e-05)
(-0.0188064 5.48656e-05 5.99927e-05)
(-0.0202713 5.83193e-05 2.45984e-05)
(-0.0183636 5.33278e-05 4.8998e-05)
(-0.0200262 6.34609e-05 4.81876e-05)
(-0.0235182 0.000590769 4.52886e-05)
(-0.0217806 0.000533008 4.64247e-05)
(-0.0228035 0.000518358 1.93141e-05)
(-0.0216326 0.000434283 4.29165e-05)
(-0.0228404 0.000398054 2.56279e-05)
(-0.0217748 0.000324737 2.81725e-05)
(-0.0230039 0.000297742 -2.58789e-05)
(-0.0219568 0.00025359 -4.60831e-05)
(-0.0232344 0.000245655 -9.69666e-05)
(-0.0233673 0.000586443 2.51776e-05)
(-0.0214952 0.000519358 2.8943e-05)
(-0.0224323 0.000522915 -8.75069e-06)
(-0.0210682 0.000424335 1.12841e-05)
(-0.022257 0.000398485 -1.63183e-05)
(-0.021014 0.000319862 -8.45249e-06)
(-0.0222753 0.000301973 -5.70765e-05)
(-0.0210497 0.000264223 -5.33831e-05)
(-0.0223826 0.000267729 -8.94556e-05)
(-0.0231855 0.000402911 1.23246e-06)
(-0.0211974 0.000349199 3.18101e-06)
(-0.0220428 0.000360711 -4.00628e-05)
(-0.0204818 0.000292638 -2.00249e-05)
(-0.0216324 0.000272432 -5.33796e-05)
(-0.0202063 0.000213203 -3.34778e-05)
(-0.0214915 0.000195845 -6.95503e-05)
(-0.020096 0.000177069 -5.04958e-05)
(-0.0214565 0.000183182 -7.0292e-05)
(-0.023106 8.12082e-05 -1.39221e-05)
(-0.0210742 7.05171e-05 -7.89998e-06)
(-0.0218724 7.78341e-05 -4.70907e-05)
(-0.0202374 7.02182e-05 -2.66041e-05)
(-0.0213748 7.52485e-05 -5.97834e-05)
(-0.0198671 7.22275e-05 -4.03108e-05)
(-0.0211523 8.37813e-05 -6.57417e-05)
(-0.0196842 8.34728e-05 -2.64735e-05)
(-0.0210487 0.0001073 -2.68875e-05)
)
;

boundaryField
{
    inlet
    {
        type            calculated;
        value           nonuniform List<vector> 
12
(
(-0.01 -1.16288e-10 1.07694e-10)
(-0.01 -2.38924e-10 1.1496e-10)
(-0.01 -2.96911e-10 5.99554e-11)
(-0.01 -2.43753e-10 -3.95936e-11)
(-0.01 -1.28678e-10 1.10116e-10)
(-0.01 -3.59063e-10 1.24964e-10)
(-0.01 -2.37201e-10 8.6044e-11)
(-0.01 -2.83881e-10 1.1622e-10)
(-0.01 -2.00304e-11 2.85028e-10)
(-0.01 -2.04063e-10 5.87561e-10)
(-0.01 -5.84921e-11 2.0308e-10)
(-0.01 -9.18927e-11 1.86787e-10)
)
;
    }
    outlet
    {
        type            calculated;
        value           nonuniform 0();
    }
    wall
    {
        type            calculated;
        value           nonuniform List<vector> 
63
(
(-9.64157e-11 -2.00304e-11 2.85028e-10)
(-1.15822e-10 -2.04063e-10 5.87561e-10)
(-5.43812e-11 -5.84921e-11 2.0308e-10)
(-1.63959e-10 -9.18927e-11 1.86787e-10)
(-2.81961e-10 -1.17586e-10 1.72013e-10)
(-2.95266e-10 -3.14758e-10 1.98766e-10)
(-4.49904e-10 -4.14378e-10 2.47068e-10)
(-4.1653e-10 -5.87983e-10 3.0849e-10)
(-2.85776e-10 -1.21009e-10 2.67973e-10)
(-3.75254e-10 -3.52138e-10 2.81699e-10)
(-3.97933e-10 -4.16937e-10 2.35286e-10)
(-8.86928e-10 -7.83558e-10 5.67897e-10)
(-5.87397e-10 -5.86597e-11 2.86994e-10)
(-7.89423e-10 -4.31469e-10 2.88209e-10)
(-8.41974e-10 -4.71585e-10 2.7385e-10)
(-1.06916e-09 -3.3772e-10 4.30506e-10)
(-5.98723e-10 -8.93696e-11 3.19133e-10)
(-9.17946e-10 -2.51116e-10 4.63304e-10)
(-1.77704e-09 -3.68509e-10 5.31819e-10)
(-1.7005e-09 -9.84089e-11 7.88147e-10)
(-8.92397e-10 -1.95336e-10 3.10516e-10)
(-1.66401e-09 -2.36884e-10 4.91647e-10)
(-2.85472e-09 -4.61255e-10 5.55919e-10)
(-2.22826e-09 -3.4359e-10 8.46069e-10)
(-1.00807e-09 -2.22562e-10 6.73947e-10)
(-1.52339e-09 -5.22631e-11 5.57635e-10)
(-1.56038e-09 -2.66354e-10 1.08086e-09)
(-1.81375e-09 -1.51666e-09 8.73794e-10)
(-8.82271e-10 -1.27553e-10 5.52686e-10)
(-1.71735e-09 -1.34874e-10 1.00864e-09)
(-2.17147e-09 -6.4461e-10 6.73329e-10)
(5.81171e-09 -6.70745e-09 7.70294e-10)
(-9.35172e-10 -3.55053e-10 5.70799e-10)
(-1.94002e-09 -4.00538e-10 1.2978e-09)
(-2.82678e-09 -5.6925e-10 9.68214e-10)
(-2.80429e-09 -1.05382e-09 1.29473e-09)
(-1.12946e-10 -1.16288e-10 1.07694e-10)
(-2.38378e-10 -1.28678e-10 1.10116e-10)
(-9.64157e-11 -2.00304e-11 2.85028e-10)
(-4.17475e-10 -1.93889e-10 2.03305e-10)
(-5.02911e-10 -2.47862e-10 1.53511e-10)
(-2.81961e-10 -1.17586e-10 1.72013e-10)
(-3.01648e-10 -3.33151e-10 2.49531e-10)
(-2.81214e-10 -2.25657e-10 1.54952e-10)
(-2.85776e-10 -1.21009e-10 2.67973e-10)
(-4.13233e-10 -3.93453e-10 2.62591e-10)
(-6.1826e-10 -1.06107e-10 3.08919e-10)
(-5.87397e-10 -5.86597e-11 2.86994e-10)
(-1.01962e-10 -5.94943e-10 3.56376e-10)
(-6.90836e-10 -8.35814e-11 3.43664e-10)
(-5.98723e-10 -8.93696e-11 3.19133e-10)
(-4.75053e-10 -6.16806e-10 3.85928e-10)
(-1.07406e-09 -3.27297e-10 4.24757e-10)
(-8.92397e-10 -1.95336e-10 3.10516e-10)
(-1.28066e-09 -8.85015e-10 1.32525e-09)
(-1.13623e-09 -3.8922e-10 8.98487e-10)
(-1.00807e-09 -2.22562e-10 6.73947e-10)
(-2.70593e-09 -7.65411e-11 1.03999e-09)
(-2.38104e-09 -5.07088e-10 8.45368e-10)
(-8.82271e-10 -1.27553e-10 5.52686e-10)
(-3.0975e-09 -2.3885e-10 1.7381e-09)
(-2.4249e-09 -4.29271e-10 9.86346e-10)
(-9.35172e-10 -3.55053e-10 5.70799e-10)
)
;
    }
    procBoundary4to0
    {
        type            processor;
        value           nonuniform List<vector> 
36
(
(-0.0233532 0.000613721 0.000897606)
(-0.0214295 0.000551711 0.000832172)
(-0.0224037 0.000559564 0.000832251)
(-0.0209844 0.000471752 0.000736962)
(-0.0222153 0.000448085 0.000692583)
(-0.0209103 0.000360523 0.000608424)
(-0.0222142 0.000328086 0.000558118)
(-0.0208879 0.000236653 0.00049428)
(-0.0222249 0.000190637 0.000418899)
(-0.0231679 0.000608326 0.000909858)
(-0.0210431 0.000534472 0.000826223)
(-0.021924 0.000564572 0.000824522)
(-0.0201699 0.000455597 0.000702752)
(-0.021411 0.000449907 0.000656642)
(-0.0197323 0.000344349 0.000553073)
(-0.0211639 0.000316077 0.000505522)
(-0.0194283 0.000231369 0.000424341)
(-0.021003 0.000171522 0.000368798)
(-0.0229636 0.000413309 0.000911382)
(-0.0206918 0.000360812 0.000817832)
(-0.0214545 0.000377231 0.00080145)
(-0.0194219 0.00029441 0.000667336)
(-0.0206366 0.000281631 0.000615016)
(-0.0186434 0.000206783 0.000501619)
(-0.020162 0.00017289 0.00045691)
(-0.0181581 0.000121272 0.000354952)
(-0.0198807 7.62551e-05 0.000297651)
(-0.0228816 0.000100076 0.000904118)
(-0.020557 7.50684e-05 0.000812466)
(-0.0212737 6.41472e-05 0.000792739)
(-0.0191565 4.51854e-05 0.000660784)
(-0.0203571 3.17922e-05 0.000611159)
(-0.0183048 2.55779e-05 0.000493596)
(-0.0198359 1.86676e-05 0.0004477)
(-0.017797 1.13738e-05 0.000346708)
(-0.0195295 4.9364e-06 0.000289051)
)
;
    }
    procBoundary4to5
    {
        type            processor;
        value           nonuniform List<vector> 
12
(
(-0.0205934 0.000163084 0.000145722)
(-0.0189623 0.000146538 0.000123705)
(-0.0177946 7.35823e-05 0.000115801)
(-0.0173787 2.00363e-05 0.000125715)
(-0.0210904 0.000169774 4.18682e-05)
(-0.0197803 0.000192285 2.20603e-05)
(-0.0185786 0.00012327 2.36886e-05)
(-0.0181086 5.80704e-05 4.27196e-05)
(-0.0221673 0.000209128 -0.000104773)
(-0.0211188 0.000260574 -8.17638e-05)
(-0.0200188 0.000193785 -5.89196e-05)
(-0.0195395 0.000122694 -6.81222e-06)
)
;
    }
    procBoundary4to6
    {
        type            processor;
        value           nonuniform List<vector> 
27
(
(-0.0229035 -0.000238025 0.000507145)
(-0.0205806 -0.000214957 0.00045546)
(-0.0213053 -0.000226608 0.000437706)
(-0.0192137 -0.000180669 0.000379479)
(-0.020438 -0.000172831 0.000347594)
(-0.0183766 -0.000129238 0.000292393)
(-0.0199141 -0.000104926 0.000270812)
(-0.0178547 -7.37929e-05 0.000226917)
(-0.0196116 -4.17975e-05 0.000216775)
(-0.0230164 -0.000258696 0.000118602)
(-0.0208246 -0.000222536 0.000140436)
(-0.0215895 -0.000240246 9.81619e-05)
(-0.0196885 -0.000184462 0.000115954)
(-0.0208721 -0.000179632 7.97333e-05)
(-0.0190102 -0.000123757 9.70709e-05)
(-0.0204397 -0.000105871 7.97566e-05)
(-0.0185322 -6.45675e-05 9.42093e-05)
(-0.0201626 -4.39531e-05 0.000113633)
(-0.0231791 -0.000259681 -3.01997e-05)
(-0.0211923 -0.000216384 -1.54083e-06)
(-0.022009 -0.000223656 -2.95355e-05)
(-0.0204274 -0.000174363 -1.43651e-06)
(-0.0215436 -0.00015781 -2.75604e-05)
(-0.0200471 -0.000109256 -3.96296e-06)
(-0.0212825 -7.85313e-05 -1.94483e-05)
(-0.0197594 -4.3653e-05 1.01252e-05)
(-0.0210877 -1.81336e-05 2.2374e-05)
)
;
    }
}


// ************************************************************************* //
