/*--------------------------------*- C++ -*----------------------------------*\
| =========                 |                                                 |
| \\      /  F ield         | OpenFOAM: The Open Source CFD Toolbox           |
|  \\    /   O peration     | Version:  4.x                                   |
|   \\  /    A nd           | Web:      www.OpenFOAM.org                      |
|    \\/     M anipulation  |                                                 |
\*---------------------------------------------------------------------------*/
FoamFile
{
    version     2.0;
    format      ascii;
    class       volScalarField;
    location    "7.5";
    object      KslPrev;
}
// * * * * * * * * * * * * * * * * * * * * * * * * * * * * * * * * * * * * * //

dimensions      [1 -3 -1 0 0 0 0];

internalField   nonuniform List<scalar> 
114
(
2653.42
4557.04
2376.82
5155.46
1884.4
3520.73
18119.8
3582.8
18613.7
3507.47
12232.3
3511.66
4185.01
3747.11
25501.7
3667.05
22462.3
3537.61
17102.2
3634.48
12146.7
5981.76
3142.24
5927.77
3016.32
6384.46
2982.01
8283.41
3191.85
11778
79385.2
4077.98
158893
4098.56
6.08035e+07
4257.97
49364.2
4884.43
14708.6
69651
4101.26
47460.2
4138.71
37675.1
4242.84
33124.1
4731.73
12624.5
104234
4345.72
5191.03
2977.31
4910.87
2740.13
4854.56
2462.16
5291.03
2050.53
4538.5
34550.5
3934.24
60598.3
3749.45
47659.1
3562.64
17333.8
3591.4
4914.44
19828.3
3787.63
23946.9
3672.5
34144.8
3573.63
24229
3657.06
11345.3
35474.6
4359.82
1e+10
4537.32
4555.92
2807.51
4206.92
2568.26
4048.09
2234.02
4168.24
1655.03
3652.2
5206.7
3107.7
5161.58
2987.29
5338.57
2880.76
5620.52
2838.15
3337.98
5168.73
3062.06
5182.83
2984.85
5767.47
3004.93
7495.13
3175.95
10563.3
5529.34
3239.89
5636.79
3306.1
6811.95
3492.89
)
;

boundaryField
{
    inlet
    {
        type            zeroGradient;
    }
    outlet
    {
        type            zeroGradient;
    }
    wall
    {
        type            zeroGradient;
    }
    procBoundary5to1
    {
        type            processor;
        value           uniform 0;
    }
    procBoundary5to4
    {
        type            processor;
        value           uniform 0;
    }
    procBoundary5to7
    {
        type            processor;
        value           uniform 0;
    }
}


// ************************************************************************* //
