/*--------------------------------*- C++ -*----------------------------------*\
| =========                 |                                                 |
| \\      /  F ield         | OpenFOAM: The Open Source CFD Toolbox           |
|  \\    /   O peration     | Version:  4.x                                   |
|   \\  /    A nd           | Web:      www.OpenFOAM.org                      |
|    \\/     M anipulation  |                                                 |
\*---------------------------------------------------------------------------*/
FoamFile
{
    version     2.0;
    format      ascii;
    class       volScalarField;
    location    "7.5";
    object      magGField;
}
// * * * * * * * * * * * * * * * * * * * * * * * * * * * * * * * * * * * * * //

dimensions      [1 -2 -1 0 0 0 0];

internalField   nonuniform List<scalar> 
114
(
128.021
73.2191
141.795
63.9196
175.663
89.6731
18.4542
94.3617
17.8649
95.3778
26.6696
92.6758
74.7812
88.723
12.908
90.2843
14.5309
92.1702
18.5875
86.5436
24.9784
54.9635
105.914
56.0705
110.909
51.7907
111.605
39.3542
101.604
26.4699
4.1441
81.4839
2.07229
81.2699
0.00436114
77.332
6.52527
65.4607
21.0049
4.64977
79.9942
6.82781
78.8038
8.51844
75.5525
9.43405
65.3164
23.8275
3.07938
74.8643
63.1697
111.211
67.4341
121.294
68.1475
135.144
61.8833
161.051
69.2964
9.49318
84.5356
5.44211
88.4332
6.87096
92.3746
18.6542
89.8495
63.1396
16.3463
86.4118
13.5303
88.4213
9.35854
89.5692
12.8657
84.4373
26.3659
9.08026
74.384
0.00173991
70.6381
71.2741
116.21
77.7585
127.65
80.8491
148.195
78.5078
200.983
86.9703
62.4361
105.982
63.5657
109.915
60.888
112.993
57.5446
113.352
93.0028
62.2256
106.135
61.9159
107.812
55.1921
105.444
41.5366
96.9237
28.3374
57.6609
99.3571
56.3184
96.3083
45.8435
88.6351
)
;

boundaryField
{
    inlet
    {
        type            calculated;
        value           nonuniform 0();
    }
    outlet
    {
        type            calculated;
        value           nonuniform List<scalar> 
12
(
196.458
164.309
55.1041
58.088
46.3515
52.6652
152.326
139.093
58.7592
189.448
204.628
62.7306
)
;
    }
    wall
    {
        type            calculated;
        value           uniform 0;
    }
    procBoundary5to1
    {
        type            processor;
        value           nonuniform List<scalar> 
32
(
122.264
66.406
131.834
57.6594
166.471
82.5436
15.9829
93.367
13.8379
92.7811
21.058
90.8817
74.5803
87.679
7.71286
86.6566
3.04762
84.6371
0.418676
80.9234
13.2969
69.6271
119.179
75.0941
75.0941
75.0941
21.2448
91.4888
91.4888
91.4888
15.4372
15.4372
)
;
    }
    procBoundary5to4
    {
        type            processor;
        value           nonuniform List<scalar> 
12
(
99.434
80.9993
80.6052
76.8668
103.857
83.8476
85.326
78.0571
107.045
101.734
101.77
98.0066
)
;
    }
    procBoundary5to7
    {
        type            processor;
        value           nonuniform List<scalar> 
44
(
84.458
19.2903
81.0731
18.0331
71.2195
10.2696
50.5959
10.3012
18.0032
84.458
0.00198697
68.0491
0.00106614
56.0632
0.000633802
42.1821
10.8167
5.73867
0.00198697
80.2804
0.00198697
68.0491
0.00100951
66.5933
0.000488728
56.7834
17.5587
12.6
85.2142
8.59046
0.00100951
86.8835
0.00100951
66.5933
36.5343
79.2812
36.8198
34.7745
90.0182
22.0809
85.3363
8.53139
36.5343
79.0531
)
;
    }
}


// ************************************************************************* //
