/*--------------------------------*- C++ -*----------------------------------*\
| =========                 |                                                 |
| \\      /  F ield         | OpenFOAM: The Open Source CFD Toolbox           |
|  \\    /   O peration     | Version:  4.x                                   |
|   \\  /    A nd           | Web:      www.OpenFOAM.org                      |
|    \\/     M anipulation  |                                                 |
\*---------------------------------------------------------------------------*/
FoamFile
{
    version     2.0;
    format      ascii;
    class       volScalarField;
    location    "7.5";
    object      SPartFluid;
}
// * * * * * * * * * * * * * * * * * * * * * * * * * * * * * * * * * * * * * //

dimensions      [1 -3 -1 0 0 0 0];

internalField   nonuniform List<scalar> 
114
(
6.81882e-65
8.05843e-65
6.3536e-65
6.74066e-65
7.59272e-65
8.44448e-65
6.81844e-65
5.6562e-65
5.81102e-65
6.66296e-65
8.21198e-65
8.52141e-65
7.9012e-65
8.44511e-65
6.0434e-65
7.4379e-65
5.81073e-65
4.5709e-65
6.97205e-65
5.73216e-65
8.67502e-65
6.27633e-65
4.88175e-65
6.97378e-65
5.42409e-65
6.43128e-65
6.81858e-65
7.1282e-65
5.65591e-65
5.96539e-65
7.12836e-65
6.81856e-65
8.52315e-65
7.12842e-65
8.36794e-65
8.13513e-65
5.26832e-65
8.59907e-65
6.89443e-65
8.21277e-65
4.57134e-65
7.28317e-65
7.593e-65
6.19818e-65
7.05012e-65
7.12712e-65
6.89425e-65
5.57716e-65
9.9946e-65
4.41628e-65
6.66394e-65
8.21384e-65
6.74153e-65
7.36145e-65
6.97391e-65
6.89638e-65
6.66364e-65
7.28344e-65
6.58563e-65
5.34646e-65
8.36845e-65
6.19884e-65
7.12868e-65
7.12855e-65
7.05075e-65
9.14252e-65
6.4305e-65
5.50054e-65
8.05804e-65
6.35357e-65
7.05098e-65
5.96621e-65
1.01499e-64
7.36035e-65
8.21209e-65
8.90882e-65
8.67602e-65
3.56408e-65
9.37531e-65
8.98796e-65
7.98059e-65
2.63476e-65
6.89685e-65
4.57211e-65
7.12931e-65
6.04433e-65
4.95936e-65
6.97396e-65
6.27652e-65
6.04384e-65
6.04407e-65
6.89657e-65
4.18443e-65
5.65674e-65
7.43882e-65
6.50877e-65
4.57148e-65
7.05073e-65
6.04323e-65
6.27629e-65
6.27646e-65
8.52353e-65
6.89631e-65
5.8888e-65
8.05803e-65
6.50813e-65
6.7403e-65
6.81748e-65
7.20607e-65
5.50148e-65
7.28362e-65
5.65638e-65
9.6852e-65
7.74792e-65
)
;

boundaryField
{
    inlet
    {
        type            calculated;
        value           nonuniform 0();
    }
    outlet
    {
        type            calculated;
        value           uniform 0;
    }
    wall
    {
        type            calculated;
        value           uniform 0;
    }
    procBoundary5to1
    {
        type            processor;
        value           nonuniform List<scalar> 
32
(
7.90363e-65
5.81137e-65
8.44546e-65
7.05053e-65
5.73323e-65
4.18337e-65
5.6563e-65
6.12114e-65
6.97316e-65
6.97293e-65
6.58497e-65
7.20434e-65
4.41512e-65
6.35329e-65
5.11367e-65
9.06506e-65
8.28997e-65
8.75433e-65
6.81695e-65
7.90101e-65
3.48544e-65
6.58618e-65
5.26912e-65
8.05862e-65
8.05862e-65
8.05862e-65
7.05075e-65
9.99516e-65
9.99516e-65
9.99516e-65
5.73328e-65
5.73328e-65
)
;
    }
    procBoundary5to4
    {
        type            processor;
        value           nonuniform List<scalar> 
12
(
8.91078e-65
9.06517e-65
5.65584e-65
5.96566e-65
8.21369e-65
8.13579e-65
6.81829e-65
6.81823e-65
7.20667e-65
7.59369e-65
6.2763e-65
6.35365e-65
)
;
    }
    procBoundary5to7
    {
        type            processor;
        value           nonuniform List<scalar> 
44
(
7.82516e-65
6.43065e-65
6.7405e-65
1.03042e-64
1.0381e-64
7.9788e-65
5.65443e-65
8.36502e-65
9.9169e-65
7.82516e-65
6.43072e-65
7.36039e-65
6.74035e-65
6.89493e-65
8.59872e-65
8.44317e-65
7.35836e-65
3.95139e-65
6.43072e-65
8.52275e-65
6.43072e-65
7.36039e-65
5.03597e-65
5.81052e-65
7.35958e-65
6.04228e-65
5.80943e-65
8.05812e-65
7.36079e-65
6.81845e-65
5.03597e-65
5.19122e-65
5.03597e-65
5.81052e-65
5.50062e-65
6.43011e-65
6.12002e-65
6.8961e-65
5.81146e-65
7.671e-65
7.43852e-65
5.19127e-65
5.50062e-65
3.87402e-65
)
;
    }
}


// ************************************************************************* //
