/*--------------------------------*- C++ -*----------------------------------*\
| =========                 |                                                 |
| \\      /  F ield         | OpenFOAM: The Open Source CFD Toolbox           |
|  \\    /   O peration     | Version:  4.x                                   |
|   \\  /    A nd           | Web:      www.OpenFOAM.org                      |
|    \\/     M anipulation  |                                                 |
\*---------------------------------------------------------------------------*/
FoamFile
{
    version     2.0;
    format      ascii;
    class       volScalarField;
    location    "7.5";
    object      thCond;
}
// * * * * * * * * * * * * * * * * * * * * * * * * * * * * * * * * * * * * * //

dimensions      [1 1 -3 -1 0 0 0];

internalField   nonuniform List<scalar> 
114
(
190.2
190.01
190.003
189.92
189.886
189.903
190.207
190.225
190.097
189.937
189.745
189.703
189.835
190.067
190.156
189.944
189.947
189.942
189.745
189.828
189.706
190.352
190.381
190.069
190.065
189.851
189.743
189.713
189.826
189.888
190.129
190.053
189.829
189.811
189.606
189.545
189.668
189.503
189.698
189.969
190.132
189.823
189.662
189.622
189.527
189.461
189.489
189.65
189.817
190.011
190.231
189.994
190.015
189.826
189.726
189.685
189.638
189.66
189.8
190.166
189.881
189.929
189.738
189.541
189.495
189.372
189.553
189.751
189.938
189.897
189.7
189.635
189.257
189.346
189.268
189.263
189.366
190.15
189.643
189.455
189.484
190.706
190.251
190.345
189.938
189.884
189.947
189.753
189.784
189.884
190.276
190.093
190.221
189.929
189.632
189.662
189.793
189.651
189.786
190.101
189.968
189.647
189.644
189.512
189.363
189.525
189.516
189.571
190.035
189.948
189.607
189.622
189.274
189.414
)
;

boundaryField
{
    inlet
    {
        type            zeroGradient;
    }
    outlet
    {
        type            zeroGradient;
    }
    wall
    {
        type            zeroGradient;
    }
    procBoundary5to1
    {
        type            processor;
        value           nonuniform List<scalar> 
32
(
190.604
190.615
190.279
190.315
190.564
190.92
190.843
190.649
190.477
190.319
190.269
190.342
190.815
190.66
190.668
190.258
190.215
190.094
190.125
190.161
190.675
190.717
190.626
190.231
190.231
190.231
190.449
190.094
190.094
190.094
190.349
190.349
)
;
    }
    procBoundary5to4
    {
        type            processor;
        value           nonuniform List<scalar> 
12
(
190.167
190.083
190.237
190.251
190.008
189.963
190.058
190.096
190.186
190.073
190.14
190.202
)
;
    }
    procBoundary5to7
    {
        type            processor;
        value           nonuniform List<scalar> 
44
(
189.921
189.974
189.83
189.471
189.404
189.511
189.738
189.547
189.979
189.921
189.772
189.587
189.504
189.425
189.276
189.325
189.461
190.193
189.772
189.72
189.772
189.587
189.533
189.496
189.361
189.452
189.566
189.912
189.729
189.644
189.533
189.689
189.533
189.496
189.603
189.59
189.683
190.058
189.959
189.651
189.617
189.699
189.603
189.829
)
;
    }
}


// ************************************************************************* //
