/*--------------------------------*- C++ -*----------------------------------*\
| =========                 |                                                 |
| \\      /  F ield         | OpenFOAM: The Open Source CFD Toolbox           |
|  \\    /   O peration     | Version:  4.x                                   |
|   \\  /    A nd           | Web:      www.OpenFOAM.org                      |
|    \\/     M anipulation  |                                                 |
\*---------------------------------------------------------------------------*/
FoamFile
{
    version     2.0;
    format      ascii;
    class       volScalarField;
    location    "49.5";
    object      alpha.iron;
}
// * * * * * * * * * * * * * * * * * * * * * * * * * * * * * * * * * * * * * //

dimensions      [0 0 0 0 0 0 0];

internalField   nonuniform List<scalar> 
108
(
1
1
1
1
1
1
1
1
0.999858
1
1
1
1
1
1
1
1
0.999998
1
1
1
1
1
1
1
1
0.999905
1
1
1
1
1
1
1
1
1.01578
1
1
1
1
1
1
0.999999
0.999998
0.999916
1
1
1
1
1
1
0.999999
0.999999
0.999978
1
1
1
1
1
1
1
1
0.999935
1
1
1
1
1
1
1
1
0.999728
1
1
1
1
0.999999
0.999998
0.999996
0.999995
0.999966
1
1
1
1
0.999999
0.999999
0.999997
0.999995
0.999979
1
1
1
1
1
1
0.999999
0.999999
0.999944
1
1
1
1
1
1
1
1
0.99981
)
;

boundaryField
{
    inlet
    {
        type            fixedValue;
        value           nonuniform 0();
    }
    outlet
    {
        type            fixedValue;
        value           uniform 1;
    }
    wall
    {
        type            zeroGradient;
    }
    procBoundary3to1
    {
        type            processor;
        value           nonuniform List<scalar> 
27
(
1
1
1
1
1
1
1
1
0.999651
1
1
1
1
0.999999
0.999999
0.999998
0.999998
0.999948
1
1
1
1
0.999999
0.999999
0.999997
0.999996
0.999949
)
;
    }
    procBoundary3to2
    {
        type            processor;
        value           nonuniform List<scalar> 
12
(
1
1
1
1
1
1
1
1
1
1
1
1
)
;
    }
    procBoundary3to7
    {
        type            processor;
        value           nonuniform List<scalar> 
36
(
1
1
1
1
0.999999
0.999998
0.999996
0.999993
0.999968
1
1
1
1
0.999999
0.999999
0.999997
0.999996
0.999948
1
1
1
1
1
1
0.999999
0.999999
0.999895
1
1
1
1
1
1
1
1
0.999829
)
;
    }
}


// ************************************************************************* //
