/*--------------------------------*- C++ -*----------------------------------*\
| =========                 |                                                 |
| \\      /  F ield         | OpenFOAM: The Open Source CFD Toolbox           |
|  \\    /   O peration     | Version:  4.x                                   |
|   \\  /    A nd           | Web:      www.OpenFOAM.org                      |
|    \\/     M anipulation  |                                                 |
\*---------------------------------------------------------------------------*/
FoamFile
{
    version     2.0;
    format      ascii;
    class       volVectorField;
    location    "49.5";
    object      GField;
}
// * * * * * * * * * * * * * * * * * * * * * * * * * * * * * * * * * * * * * //

dimensions      [1 -2 -1 0 0 0 0];

internalField   nonuniform List<vector> 
108
(
(72.5949 -1.03961 -0.834251)
(129.104 -1.1001 -1.55681)
(74.7131 -1.34643 -0.962621)
(137.465 -2.34461 0.206993)
(72.4504 -5.41636 -1.58114)
(147.315 -4.43638 4.43832)
(59.2761 -14.6558 -5.53938)
(160.896 0.662246 10.7589)
(28.9516 -37.1615 -17.2755)
(54.5367 -1.36403 -0.508346)
(112.865 -0.833298 -0.508282)
(48.4899 -1.34152 -0.625503)
(112.309 -0.679997 2.9188)
(35.409 -1.21912 -0.387799)
(103.293 0.186678 7.9169)
(12.2092 -0.224218 -0.255803)
(76.1998 -0.169333 10.0065)
(-2.48544e-05 4.10759e-06 -1.54222e-06)
(71.6626 1.96125 0.344576)
(126.71 2.5323 0.14914)
(72.6243 2.6348 1.88975)
(134.557 2.55193 2.36927)
(69.4326 7.19002 4.37626)
(145.48 2.46026 6.27134)
(57.3177 17.6736 5.79542)
(166.065 -8.38947 8.73155)
(31.1057 46.6243 -0.147008)
(90.8942 -2.06104 0.197791)
(139.106 -1.83459 0.0470245)
(92.5743 -4.26151 1.46707)
(144.09 -3.4035 1.68489)
(89.6224 -5.79401 3.08547)
(153.562 -3.58433 4.30616)
(79.6572 -7.44879 5.97201)
(172.529 -3.42847 8.72644)
(44.2065 -3.08892 -31.5974)
(21.4166 0.223312 -1.59241)
(102.167 0.587359 -1.18707)
(18.1507 0.363724 -2.00364)
(106.303 0.121487 1.81265)
(15.6943 0.289064 -3.24255)
(112.061 -1.0345 7.4737)
(14.6393 0.00635515 -7.1837)
(118.123 -3.51441 20.0002)
(17.451 -2.43899 -33.0994)
(7.12825 -0.083965 -0.985784)
(94.1353 0.946959 0.770147)
(1.27728 0.0309591 -0.294058)
(93.6541 0.504313 2.82313)
(0.017256 0.00160948 -0.00599026)
(88.9417 -1.20259 5.77282)
(2.30718 0.706 -0.959328)
(74.5639 -8.90423 8.98836)
(11.6051 10.0875 -4.70443)
(31.8761 1.43 -3.07099)
(106.61 2.33902 -2.46905)
(32.3871 2.61833 -4.42462)
(114.789 -0.0505317 0.774419)
(34.5486 6.49801 -7.81843)
(128.558 -3.80757 6.43414)
(36.5797 17.5944 -15.7231)
(149.976 -14.4563 16.9967)
(24.4583 59.1984 -46.1558)
(64.0254 -1.74084 -4.23285)
(120.419 -1.52 -3.42427)
(63.4554 -3.86162 -5.66444)
(125.411 -3.30184 -2.34431)
(58.6419 -5.72474 -8.34534)
(135.764 -4.22298 1.35585)
(49.2886 -6.04852 -11.4914)
(162.558 -2.14222 12.3483)
(29.4597 7.11035 -59.5678)
(11.8194 -1.08956 -2.25763)
(93.437 -0.674245 -0.432221)
(9.62725 -1.41909 -2.54184)
(94.5451 -1.60311 0.725853)
(10.2094 -2.76263 -4.36401)
(93.7014 -2.05263 3.76146)
(12.5317 -5.11515 -8.12998)
(85.7062 3.27213 11.7368)
(23.9608 -12.7602 -27.5561)
(3.5895e-05 -2.89667e-06 -1.57861e-06)
(84.6559 -0.819191 1.49949)
(3.60911e-05 -2.77059e-06 -2.35535e-06)
(84.1024 0.250964 2.27677)
(3.31187e-05 -4.61365e-06 -7.4592e-06)
(81.732 2.62088 5.85273)
(3.12666e-05 -2.36225e-06 -8.35443e-06)
(70.0223 3.4358 8.1155)
(11.3731 -0.341276 -1.56503)
(3.26307 0.308452 -0.17939)
(92.399 -0.689172 -0.200246)
(3.78311e-05 5.11283e-06 -2.94574e-06)
(93.9316 -0.949046 1.13501)
(4.05807 1.19781 -0.788603)
(95.7222 -0.721323 3.72692)
(15.4453 8.20233 -5.32915)
(92.1791 -6.49457 9.98158)
(30.975 35.0021 -21.725)
(43.6336 -0.277723 -2.11348)
(105.159 -0.789342 -0.850287)
(40.07 -1.15375 -2.35363)
(106.14 -3.29946 0.49056)
(33.9986 -0.738575 -3.69006)
(109.482 -4.10069 2.49804)
(27.4417 1.27661 -6.22689)
(124.474 -3.78171 8.23429)
(18.7774 11.3769 -15.8566)
)
;

boundaryField
{
    inlet
    {
        type            calculated;
        value           nonuniform 0();
    }
    outlet
    {
        type            calculated;
        value           nonuniform List<vector> 
12
(
(60.3395 -77.4503 -36.0047)
(-5.20691e-05 8.60524e-06 -3.23089e-06)
(64.9138 97.2993 -0.306787)
(90.5496 -6.32713 -64.7221)
(37.492 -5.23996 -71.1114)
(24.8981 21.6421 -10.0931)
(52.4356 126.914 -98.9525)
(62.7269 15.1397 -126.834)
(52.2332 -27.8165 -60.0709)
(24.7749 -0.743427 -3.40922)
(67.277 76.0238 -47.1861)
(40.9326 24.8002 -34.5655)
)
;
    }
    wall
    {
        type            calculated;
        value           uniform (0 0 0);
    }
    procBoundary3to1
    {
        type            processor;
        value           nonuniform List<vector> 
27
(
(66.1585 0.604648 -2.27396)
(121.247 0.947248 -2.45559)
(64.5442 1.63558 -3.1101)
(125.105 1.90266 -0.16162)
(60.9264 0.786726 -6.40032)
(134.091 2.12857 3.84629)
(54.6219 -3.11002 -14.2475)
(156.587 3.93238 14.5635)
(33.6029 -13.4025 -37.4426)
(8.02322 0.401646 -0.513375)
(94.9546 1.01695 0.694156)
(0.992761 0.0928945 -0.101378)
(94.4657 1.29407 2.35806)
(3.83368e-05 -1.57567e-06 -7.79463e-06)
(89.9573 0.414094 5.62325)
(6.42614 0.506511 -2.54871)
(81.1676 -0.921312 13.1093)
(29.1644 1.08386 -34.3515)
(6.60535 -0.363823 -1.43396)
(91.2544 -0.0478915 0.521201)
(4.85208 -0.389342 -1.60249)
(91.7485 1.54134 0.303736)
(6.08624 -1.00339 -2.83144)
(91.6086 2.96615 1.91039)
(12.4623 -4.6726 -7.40154)
(86.8237 8.82753 7.77992)
(27.6541 -21.9487 -16.9375)
)
;
    }
    procBoundary3to2
    {
        type            processor;
        value           nonuniform List<vector> 
12
(
(122.731 -0.751578 -2.44856)
(112.332 -0.721188 -2.44025)
(121.325 2.42143 -1.17453)
(133.223 -0.422571 -1.05602)
(98.2323 0.196881 -2.21254)
(93.8156 0.490196 -0.815928)
(102.427 3.33782 -4.10594)
(116.434 -0.0694652 -4.3545)
(92.5556 -0.234339 -2.02601)
(86.0321 -1.58672 0.141017)
(90.9883 -0.14885 -0.429201)
(103.529 0.695703 -1.54295)
)
;
    }
    procBoundary3to7
    {
        type            processor;
        value           nonuniform List<vector> 
36
(
(4.50837 0.521727 -0.811684)
(88.4643 1.17917 -0.369704)
(3.52989 0.784899 -1.04857)
(88.2758 1.64507 -0.139436)
(0.969079 0.303169 -0.409533)
(86.0067 2.24801 2.29588)
(0.334535 0.145551 -0.18776)
(74.4428 -3.90023 9.99048)
(10.1301 4.21877 -5.44398)
(0.173575 0.0231766 -0.0207287)
(87.0593 0.490358 -0.287629)
(3.82155e-05 7.01632e-06 -2.3119e-06)
(85.2903 0.0393967 0.866796)
(2.15864 0.696301 -0.222546)
(81.7758 -2.09674 2.92601)
(12.577 6.85009 -0.761136)
(73.1573 -9.09023 4.5562)
(28.8174 31.251 2.93741)
(27.9473 2.69251 -2.26619)
(99.4478 1.47961 -0.749374)
(27.4347 3.74227 -3.66362)
(104.012 -0.240377 -1.85846)
(26.8382 6.54481 -6.17073)
(109.498 -5.68974 -1.58111)
(24.5349 11.952 -10.2272)
(117.2 -16.6473 4.7836)
(17.1842 27.5716 -15.3583)
(50.7178 -1.56675 -3.8902)
(109.177 -1.1055 -3.48)
(49.1664 -2.18563 -5.43125)
(112.71 -1.81091 -3.03005)
(45.2179 -2.65786 -8.52537)
(116.17 -1.84577 0.13973)
(35.1338 -2.62806 -14.1771)
(122.619 -0.102094 7.3091)
(18.2584 -1.14361 -26.6731)
)
;
    }
}


// ************************************************************************* //
