/*--------------------------------*- C++ -*----------------------------------*\
| =========                 |                                                 |
| \\      /  F ield         | OpenFOAM: The Open Source CFD Toolbox           |
|  \\    /   O peration     | Version:  4.x                                   |
|   \\  /    A nd           | Web:      www.OpenFOAM.org                      |
|    \\/     M anipulation  |                                                 |
\*---------------------------------------------------------------------------*/
FoamFile
{
    version     2.0;
    format      ascii;
    class       volScalarField;
    location    "49.5";
    object      KslPrev;
}
// * * * * * * * * * * * * * * * * * * * * * * * * * * * * * * * * * * * * * //

dimensions      [1 -3 -1 0 0 0 0];

internalField   nonuniform List<scalar> 
108
(
4876.5
2746.96
4722.07
2575.95
4834.26
2373.19
5582.1
2082.64
6459.48
6459.42
3130.73
7259.69
3136.12
9856.08
3375.74
27763.4
4322.89
1e+10
4916.18
2793.18
4851.47
2644.95
5057.43
2442.93
5715.88
2040.39
5820.41
3811.32
2515.22
3797.19
2443.6
3907.39
2282.95
4273.88
1931.64
6091.19
16172.4
3439.43
18955.8
3282.26
21461.5
3069.14
20611.1
2783.41
8500.02
48243
3727.26
263561
3716.21
1.86634e+07
3864.34
128685
4368.5
19732.8
10905.1
3308.18
10654.9
3087.3
9718.41
2736.93
7853.92
2228.41
4080.09
5357.78
2894.95
5429.86
2801.79
5844.2
2586.39
6648.9
2058.55
4810.84
27770.4
3633.84
33265.1
3571.07
29072.1
3553.35
20503.2
3708.63
8023.2
1e+10
4010.94
1e+10
4000.58
1e+10
4056.97
1e+10
4545.63
26971.2
103439
3705.85
9.94507e+09
3619.81
77934
3520.56
18051.7
3508.64
6069.64
7673.11
3224.96
8359.66
3178.4
9822.97
3067.82
11620.2
2600.48
11483.8
)
;

boundaryField
{
    inlet
    {
        type            zeroGradient;
    }
    outlet
    {
        type            zeroGradient;
    }
    wall
    {
        type            zeroGradient;
    }
    procBoundary3to1
    {
        type            processor;
        value           uniform 0;
    }
    procBoundary3to2
    {
        type            processor;
        value           uniform 0;
    }
    procBoundary3to7
    {
        type            processor;
        value           uniform 0;
    }
}


// ************************************************************************* //
