/*--------------------------------*- C++ -*----------------------------------*\
| =========                 |                                                 |
| \\      /  F ield         | OpenFOAM: The Open Source CFD Toolbox           |
|  \\    /   O peration     | Version:  4.x                                   |
|   \\  /    A nd           | Web:      www.OpenFOAM.org                      |
|    \\/     M anipulation  |                                                 |
\*---------------------------------------------------------------------------*/
FoamFile
{
    version     2.0;
    format      ascii;
    class       volVectorField;
    location    "23.5";
    object      DDtUrel;
}
// * * * * * * * * * * * * * * * * * * * * * * * * * * * * * * * * * * * * * //

dimensions      [0 1 -2 0 0 0 0];

internalField   nonuniform List<vector> 
132
(
(0.00186111 -7.19931e-05 -0.000167593)
(0.00124878 -3.99445e-05 -9.3758e-05)
(0.000878167 -1.1745e-05 -3.44476e-05)
(0.000673978 5.93623e-06 2.30652e-06)
(0.000533888 1.59599e-05 2.17764e-05)
(0.000455347 2.12037e-05 3.03236e-05)
(0.000384023 2.49825e-05 3.47621e-05)
(0.000354544 3.47658e-05 4.23152e-05)
(0.000306942 4.57879e-05 5.28897e-05)
(0.0018261 -7.74371e-05 -0.000171668)
(0.00120229 -4.00954e-05 -9.40975e-05)
(0.000828497 -1.13151e-05 -3.62514e-05)
(0.000622093 5.51988e-06 -4.46068e-07)
(0.000483966 1.4102e-05 2.07846e-05)
(0.000408915 1.54406e-05 3.09081e-05)
(0.000342395 1.40926e-05 3.81575e-05)
(0.000310586 2.04694e-05 4.49144e-05)
(0.000266203 2.8473e-05 5.1651e-05)
(0.00179095 -5.75027e-05 -0.000173664)
(0.0011574 -2.88134e-05 -9.37011e-05)
(0.000779422 -9.40243e-06 -3.63082e-05)
(0.00056633 4.59563e-06 -1.74397e-06)
(0.000428984 1.04631e-05 1.90108e-05)
(0.000354014 1.07981e-05 3.12583e-05)
(0.000287651 1.10666e-05 4.14776e-05)
(0.000249339 1.31999e-05 4.45896e-05)
(0.000202074 1.62682e-05 4.61268e-05)
(0.00177706 -2.24354e-05 -0.000176285)
(0.00114092 -7.42529e-06 -9.43999e-05)
(0.000761213 -2.27989e-06 -3.65703e-05)
(0.00179811 -7.75462e-05 -0.000198589)
(0.00116041 -4.11688e-05 -0.000101143)
(0.000776452 -1.38735e-05 -3.71587e-05)
(0.000563887 3.30094e-06 1.94387e-06)
(0.000425394 1.43112e-05 1.70618e-05)
(0.000352267 2.01383e-05 2.57758e-05)
(0.000286847 2.46126e-05 2.72184e-05)
(0.000261959 3.12376e-05 3.67763e-05)
(0.000218168 3.54637e-05 3.91428e-05)
(0.00175846 -8.18472e-05 -0.000203757)
(0.00111017 -3.99422e-05 -0.00010121)
(0.00072519 -1.23379e-05 -3.72298e-05)
(0.000510471 3.38722e-06 1.34161e-06)
(0.000374087 1.20139e-05 1.7555e-05)
(0.000303561 1.52502e-05 2.72048e-05)
(0.000243101 1.68296e-05 3.05e-05)
(0.000219733 1.89789e-05 4.01075e-05)
(0.000180971 2.04165e-05 4.0837e-05)
(0.0017198 -6.03493e-05 -0.00020836)
(0.00106504 -2.84574e-05 -0.000102223)
(0.000677599 -9.16341e-06 -3.73751e-05)
(0.000461102 2.90807e-06 2.15943e-06)
(0.00032593 8.08587e-06 1.82418e-05)
(0.000255031 1.08396e-05 3.1242e-05)
(0.000197094 1.05384e-05 3.37838e-05)
(0.000170975 1.15834e-05 4.25942e-05)
(0.00013282 1.27919e-05 4.0052e-05)
(0.00170497 -2.00344e-05 -0.000212)
(0.00104656 -8.2929e-06 -0.000102789)
(0.000658021 -1.79858e-06 -3.63817e-05)
(0.000441118 2.92294e-06 2.29446e-06)
(0.000307557 1.62027e-06 1.76975e-05)
(0.00174206 -8.61213e-05 -0.000180734)
(0.001081 -4.48205e-05 -9.34978e-05)
(0.000688466 -1.51932e-05 -3.89604e-05)
(0.000468704 2.30069e-06 -3.05856e-06)
(0.000329903 1.24008e-05 9.06787e-06)
(0.000256678 1.76881e-05 1.90939e-05)
(0.000196563 2.04458e-05 1.89476e-05)
(0.000170267 2.55927e-05 2.72108e-05)
(0.000130718 2.60415e-05 2.98967e-05)
(0.00169677 -9.16821e-05 -0.000186404)
(0.0010271 -4.40007e-05 -9.29977e-05)
(0.000635308 -1.37877e-05 -3.64793e-05)
(0.000415728 3.83949e-06 -3.78715e-07)
(0.000282204 1.12902e-05 1.01353e-05)
(0.000211633 1.63361e-05 1.99803e-05)
(0.000158458 1.48054e-05 2.17971e-05)
(0.000135329 1.79688e-05 2.988e-05)
(0.000104186 1.56216e-05 3.12049e-05)
(0.00165279 -6.71588e-05 -0.000187604)
(0.000976083 -3.07848e-05 -9.25688e-05)
(0.000585936 -9.14887e-06 -3.52909e-05)
(0.000368509 4.09533e-06 1.64651e-06)
(0.000242676 7.17096e-06 1.18644e-05)
(0.000173784 1.11387e-05 2.30858e-05)
(0.0001288 9.0551e-06 2.41767e-05)
(0.000102091 1.04095e-05 3.2254e-05)
(7.85002e-05 1.03028e-05 3.19796e-05)
(0.00163567 -1.66783e-05 -0.000191153)
(0.000956018 -7.22622e-06 -9.3152e-05)
(0.000567307 -2.35247e-06 -3.42272e-05)
(0.000352635 1.33848e-06 2.53996e-06)
(0.000228959 8.5887e-07 1.17139e-05)
(0.000162764 9.9708e-07 2.25041e-05)
(0.000118728 2.51542e-06 2.37668e-05)
(0.00171618 -9.59619e-05 -0.000141676)
(0.00104444 -4.80939e-05 -7.59895e-05)
(0.000644166 -1.56884e-05 -3.47579e-05)
(0.000419945 3.06602e-06 -6.67139e-06)
(0.000279498 1.00221e-05 2.66267e-06)
(0.000206359 1.42153e-05 1.07202e-05)
(0.000149157 1.64216e-05 1.182e-05)
(0.000129141 1.88976e-05 2.12002e-05)
(9.23051e-05 1.49564e-05 2.73929e-05)
(0.00166451 -9.74248e-05 -0.000144102)
(0.000983335 -4.54155e-05 -7.43801e-05)
(0.00058627 -1.40493e-05 -3.20312e-05)
(0.000365758 4.12074e-06 -3.5598e-06)
(0.000233404 9.10256e-06 4.85827e-06)
(0.000164564 1.33325e-05 1.26838e-05)
(0.000113625 1.13661e-05 1.40575e-05)
(9.41261e-05 1.23207e-05 2.10367e-05)
(6.59576e-05 8.50318e-06 2.46848e-05)
(0.00162061 -6.98735e-05 -0.000142774)
(0.00093334 -3.20473e-05 -7.09031e-05)
(0.000539218 -9.77562e-06 -2.91465e-05)
(0.000321848 3.73026e-06 -1.48172e-06)
(0.000196802 5.99034e-06 6.28363e-06)
(0.000129613 9.54929e-06 1.36494e-05)
(8.63474e-05 7.02804e-06 1.64673e-05)
(6.31082e-05 6.97781e-06 2.4136e-05)
(4.30697e-05 5.84669e-06 2.41111e-05)
(0.00160357 -1.71582e-05 -0.000143092)
(0.000910958 -5.3089e-06 -7.13584e-05)
(0.000520204 -1.24778e-06 -2.949e-05)
(0.00030552 1.80158e-06 -2.73799e-06)
(0.000184166 1.47084e-06 6.45048e-06)
(0.000118383 1.51635e-06 1.44369e-05)
(7.69863e-05 2.11307e-06 1.68678e-05)
(5.10318e-05 3.83324e-06 2.34633e-05)
(3.58065e-05 3.05466e-06 2.23962e-05)
)
;

boundaryField
{
    inlet
    {
        type            calculated;
        value           nonuniform List<vector> 
16
(
(0.00414488 -0.000142152 -0.000299418)
(0.00405545 -0.000262608 -0.000331131)
(0.00399634 -0.000188095 -0.000324581)
(0.00401549 -9.91684e-05 -0.000360627)
(0.00396494 -0.000172981 -0.000648238)
(0.0038376 -0.000280016 -0.000689282)
(0.00375538 -0.000209169 -0.000725043)
(0.00376069 -7.53032e-05 -0.000778696)
(0.00393019 -0.000199031 -0.000510925)
(0.00377224 -0.000350833 -0.000579172)
(0.00365648 -0.000277039 -0.000562191)
(0.00362311 -3.59992e-05 -0.000621973)
(0.00398539 -0.000265697 -0.000398702)
(0.00376947 -0.000359362 -0.000441602)
(0.00368656 -0.000274018 -0.000425501)
(0.00367 -6.09502e-05 -0.000417908)
)
;
    }
    outlet
    {
        type            calculated;
        value           nonuniform 0();
    }
    wall
    {
        type            calculated;
        value           nonuniform List<vector> 
66
(
(0.00414488 -0.000142152 -0.000299418)
(0.00405545 -0.000262608 -0.000331131)
(0.00399634 -0.000188095 -0.000324581)
(0.00401549 -9.91684e-05 -0.000360627)
(0.000878524 -2.32772e-05 -2.30023e-05)
(0.000669582 -4.78278e-05 -1.06968e-05)
(0.000525109 -3.07922e-05 8.88755e-06)
(0.000557169 3.15556e-05 7.10121e-06)
(0.000803446 2.75625e-05 5.22964e-05)
(0.000600741 2.59808e-05 3.27291e-05)
(0.000462408 -8.56016e-06 4.15357e-05)
(0.000507298 -3.78142e-06 3.58936e-05)
(0.000961989 4.01151e-05 6.79141e-05)
(0.000754623 4.03225e-05 3.68112e-05)
(0.000535564 4.10753e-05 3.08879e-05)
(0.00081984 4.21469e-05 7.46065e-05)
(0.000632042 4.94213e-05 6.89615e-05)
(0.000431297 5.24775e-05 4.54487e-05)
(0.000890074 4.68742e-05 5.57208e-05)
(0.000729839 2.12861e-05 5.2222e-05)
(0.000507902 2.4164e-05 3.53285e-05)
(0.000673467 4.00194e-05 3.73186e-05)
(0.000574238 -4.34484e-05 6.33759e-05)
(0.000337404 1.5466e-05 0.000103235)
(0.000831445 8.53033e-05 4.14911e-05)
(0.000682691 -1.8291e-06 6.86236e-05)
(0.000324741 5.80096e-06 5.72576e-05)
(0.000604695 0.00016595 0.000128043)
(0.000493903 5.99199e-05 0.000101246)
(0.000121972 -9.73699e-06 3.49927e-05)
(0.00414488 -0.000142152 -0.000299418)
(0.00396494 -0.000172981 -0.000648238)
(0.00393019 -0.000199031 -0.000510925)
(0.00398539 -0.000265697 -0.000398702)
(0.000878524 -2.32772e-05 -2.30023e-05)
(0.000464676 -8.04048e-06 -3.85321e-05)
(0.00024474 -1.06941e-05 -1.93613e-05)
(0.000294336 -9.23877e-06 -2.69664e-05)
(0.000803446 2.75625e-05 5.22964e-05)
(0.00033616 1.17391e-05 4.08309e-05)
(0.000157716 1.72826e-05 -4.60016e-06)
(0.000187807 2.73585e-05 -7.75341e-06)
(0.000961989 4.01151e-05 6.79141e-05)
(0.000441854 1.79651e-05 9.56608e-05)
(0.000226553 1.60968e-05 6.14176e-05)
(0.000253872 4.29995e-05 4.18663e-05)
(0.00081984 4.21469e-05 7.46065e-05)
(0.000331283 3.89386e-05 4.62429e-05)
(0.000125687 3.28546e-05 7.66861e-06)
(0.000135692 1.58539e-05 -4.43586e-06)
(0.000890074 4.68742e-05 5.57208e-05)
(0.000453557 4.37497e-05 5.14342e-05)
(0.000213422 3.31603e-05 5.44379e-05)
(0.000223298 1.69052e-05 2.38318e-05)
(0.000673467 4.00194e-05 3.73186e-05)
(0.000268332 5.30587e-05 -6.98369e-06)
(7.2427e-05 2.952e-05 -2.06129e-05)
(7.86022e-05 3.73242e-05 -2.83405e-05)
(0.000831445 8.53033e-05 4.14911e-05)
(0.000449909 8.29597e-05 6.21801e-05)
(0.000165447 6.73283e-05 2.61624e-05)
(0.000254448 6.73176e-05 2.51946e-05)
(0.000604695 0.00016595 0.000128043)
(0.00020959 8.73395e-05 1.27653e-05)
(-2.32794e-05 5.97787e-05 -3.87516e-06)
(3.4585e-05 9.96691e-06 5.5412e-05)
)
;
    }
    procBoundary0to1
    {
        type            processor;
        value           nonuniform List<vector> 
12
(
(0.00028977 4.58374e-05 5.44175e-05)
(0.000254197 2.95776e-05 5.73641e-05)
(0.000178027 2.55212e-05 5.24825e-05)
(0.000210948 3.70434e-05 4.38174e-05)
(0.000174844 2.26596e-05 5.05718e-05)
(0.000114342 1.7719e-05 5.29145e-05)
(0.000117494 2.74944e-05 3.54325e-05)
(9.11336e-05 2.13792e-05 4.06243e-05)
(5.41197e-05 1.40859e-05 3.85793e-05)
(8.63776e-05 1.75572e-05 3.11077e-05)
(5.79158e-05 1.05904e-05 3.14977e-05)
(2.81867e-05 8.27545e-06 2.6975e-05)
)
;
    }
    procBoundary0to2
    {
        type            processor;
        value           nonuniform List<vector> 
44
(
(0.000545788 2.06134e-06 -3.01494e-06)
(0.000410327 1.34434e-06 1.83442e-05)
(0.000338873 1.80539e-06 3.23915e-05)
(0.000277684 5.1269e-06 3.97908e-05)
(0.000251338 8.94782e-06 4.37484e-05)
(0.000208304 9.62736e-06 4.5205e-05)
(0.00177748 1.94084e-05 -0.000169652)
(0.00113784 1.25357e-05 -9.44092e-05)
(0.000545788 2.06134e-06 -3.01494e-06)
(0.000755446 5.70384e-06 -3.5036e-05)
(0.000545788 2.06134e-06 -3.01494e-06)
(0.000410327 1.34434e-06 1.83442e-05)
(0.000238961 1.93502e-06 3.12651e-05)
(0.00018541 3.46763e-06 3.25891e-05)
(0.000163773 7.07476e-06 4.08305e-05)
(0.000128302 8.31267e-06 3.82884e-05)
(0.00171281 2.49382e-05 -0.00020276)
(0.00105122 1.30014e-05 -0.000101762)
(0.000661179 6.50062e-06 -3.7188e-05)
(0.000444483 8.1739e-07 1.52901e-06)
(0.000238961 1.93502e-06 3.12651e-05)
(0.000311792 -6.01803e-06 1.60415e-05)
(0.000238961 1.93502e-06 3.12651e-05)
(0.00018541 3.46763e-06 3.25891e-05)
(9.41704e-05 4.10982e-06 3.06573e-05)
(7.09081e-05 5.59483e-06 3.03285e-05)
(0.00165157 3.39398e-05 -0.000184919)
(0.000969579 1.49208e-05 -8.96955e-05)
(0.000578326 5.38491e-06 -3.462e-05)
(0.000361795 -1.10109e-06 7.15892e-07)
(0.000234797 -4.9565e-06 1.13856e-05)
(0.00016814 -9.19465e-06 2.21267e-05)
(9.41704e-05 4.10982e-06 3.06573e-05)
(0.000121599 -5.59022e-06 2.20113e-05)
(9.41704e-05 4.10982e-06 3.06573e-05)
(7.09081e-05 5.59483e-06 3.03285e-05)
(0.0016188 3.88337e-05 -0.000144468)
(0.000927547 1.88293e-05 -6.99168e-05)
(0.00053484 5.84953e-06 -3.0487e-05)
(0.000320203 -1.48588e-06 -3.2068e-06)
(0.000194341 -3.15249e-06 6.58e-06)
(0.000129899 -5.603e-06 1.54617e-05)
(8.42131e-05 -3.37517e-06 1.4647e-05)
(6.33468e-05 -1.101e-06 2.22157e-05)
)
;
    }
    procBoundary0to4
    {
        type            processor;
        value           nonuniform List<vector> 
36
(
(0.00171176 -9.95624e-05 -8.57619e-05)
(0.00102644 -5.04033e-05 -5.02476e-05)
(0.000620765 -1.74577e-05 -2.82447e-05)
(0.000391033 2.24506e-06 -9.45166e-06)
(0.000250836 9.59614e-06 -2.30977e-06)
(0.000175452 1.28184e-05 3.38286e-06)
(0.00012111 1.03015e-05 6.73093e-06)
(9.99879e-05 9.73897e-06 1.73913e-05)
(6.65029e-05 5.00472e-06 2.11207e-05)
(0.00165788 -0.00010167 -8.21799e-05)
(0.000964601 -4.60041e-05 -4.71193e-05)
(0.000563496 -1.42651e-05 -2.53277e-05)
(0.00034027 4.33468e-06 -8.48082e-06)
(0.00020852 8.77128e-06 -7.41735e-07)
(0.000137892 1.21836e-05 5.22083e-06)
(9.08373e-05 8.98469e-06 8.80419e-06)
(6.95174e-05 9.83662e-06 1.64819e-05)
(4.65644e-05 4.26835e-06 1.80497e-05)
(0.00161417 -7.11119e-05 -8.0044e-05)
(0.000913895 -3.19362e-05 -4.36789e-05)
(0.000519898 -1.0537e-05 -2.15366e-05)
(0.000301523 1.96223e-06 -5.3809e-06)
(0.000177519 5.33868e-06 1.47686e-06)
(0.000109508 9.10198e-06 7.08405e-06)
(6.88917e-05 6.619e-06 1.02136e-05)
(4.59774e-05 7.01852e-06 1.61546e-05)
(3.04481e-05 2.49283e-06 1.48702e-05)
(0.001597 -1.91635e-05 -8.01727e-05)
(0.00089258 -6.49509e-06 -4.27175e-05)
(0.000501455 -3.49512e-06 -2.21433e-05)
(0.000284086 -2.13356e-07 -6.33791e-06)
(0.00016353 1.09079e-06 1.82591e-06)
(9.61806e-05 2.82894e-06 6.97686e-06)
(5.90656e-05 1.65626e-06 9.5453e-06)
(3.57668e-05 2.74399e-06 1.42831e-05)
(2.20761e-05 3.59977e-07 1.19807e-05)
)
;
    }
    procBoundary0to6
    {
        type            processor;
        value           uniform (4.33291e-05 1.60173e-06 1.73354e-05);
    }
    procBoundary0to7
    {
        type            processor;
        value           uniform (2.00524e-05 3.81882e-06 2.44381e-05);
    }
}


// ************************************************************************* //
