/*--------------------------------*- C++ -*----------------------------------*\
| =========                 |                                                 |
| \\      /  F ield         | OpenFOAM: The Open Source CFD Toolbox           |
|  \\    /   O peration     | Version:  4.x                                   |
|   \\  /    A nd           | Web:      www.OpenFOAM.org                      |
|    \\/     M anipulation  |                                                 |
\*---------------------------------------------------------------------------*/
FoamFile
{
    version     2.0;
    format      ascii;
    class       volScalarField;
    location    "23.5";
    object      QPartFluidCoeff;
}
// * * * * * * * * * * * * * * * * * * * * * * * * * * * * * * * * * * * * * //

dimensions      [1 -1 -3 -1 0 0 0];

internalField   nonuniform List<scalar> 
132
(
-1.71964e+07
-1.42306e+07
-1.22582e+07
-9.91521e+06
-1.4361e+07
-1.50838e+07
-1.95609e+07
-1.32445e+07
-6.76254e+06
-1.54321e+07
-1.70644e+07
-1.8388e+07
-1.8748e+07
-1.28288e+07
-2.25574e+07
-1.77841e+07
-1.94908e+07
-1.7589e+07
-1.03256e+07
-1.96245e+07
-1.90918e+07
-1.70154e+07
-1.85129e+07
-1.64555e+07
-1.33328e+07
-1.74282e+07
-2.84093e+07
-9.83643e+06
-1.51452e+07
-1.16531e+07
-1.41229e+07
-2.33454e+07
-2.86895e+07
-2.54903e+07
-2.57334e+07
-2.54222e+07
-2.37201e+07
-2.2837e+07
-2.42308e+07
-1.65238e+07
-3.16141e+07
-2.66205e+07
-2.85555e+07
-3.19384e+07
-2.89475e+07
-3.06453e+07
-3.1187e+07
-3.00274e+07
-1.75811e+07
-3.16613e+07
-2.79781e+07
-2.51631e+07
-2.73752e+07
-2.56828e+07
-3.50691e+07
-2.33095e+07
-2.11276e+07
-2.64162e+07
-2.35789e+07
-2.5849e+07
-1.84283e+07
-3.76048e+07
-1.85235e+07
-2.33156e+07
-2.69499e+07
-2.3254e+07
-2.47964e+07
-1.88782e+07
-2.6638e+07
-2.34287e+07
-1.78978e+07
-2.07473e+07
-2.76689e+07
-2.65514e+07
-2.30786e+07
-3.07641e+07
-2.2367e+07
-3.11752e+07
-3.36659e+07
-3.36239e+07
-2.22862e+07
-2.40765e+07
-2.68471e+07
-3.09663e+07
-3.2445e+07
-2.6702e+07
-3.03082e+07
-2.09119e+07
-1.77601e+07
-2.29111e+07
-2.89624e+07
-3.1696e+07
-2.99061e+07
-3.29821e+07
-2.66317e+07
-2.8783e+07
-1.43971e+07
-1.67842e+07
-2.24507e+07
-1.74757e+07
-2.35305e+07
-2.62607e+07
-1.96813e+07
-1.47138e+07
-2.02323e+07
-1.70375e+07
-3.21227e+07
-3.02556e+07
-2.70344e+07
-2.40021e+07
-2.25638e+07
-3.48138e+07
-2.46744e+07
-2.31475e+07
-1.72222e+07
-1.88671e+07
-3.01079e+07
-2.08896e+07
-2.90403e+07
-2.90006e+07
-2.74647e+07
-1.70436e+07
-3.11408e+07
-1.60476e+07
-2.25575e+07
-3.20918e+07
-3.48334e+07
-1.82554e+07
-3.29014e+07
-2.82601e+07
-1.84807e+07
-8.64122e+06
)
;

boundaryField
{
    inlet
    {
        type            calculated;
        value           uniform 0;
    }
    outlet
    {
        type            calculated;
        value           nonuniform 0();
    }
    wall
    {
        type            calculated;
        value           uniform 0;
    }
    procBoundary0to1
    {
        type            processor;
        value           nonuniform List<scalar> 
12
(
328.825
349.083
301.201
567.73
692.396
693.46
534.582
484.694
608.774
505.266
607.708
444.758
)
;
    }
    procBoundary0to2
    {
        type            processor;
        value           nonuniform List<scalar> 
44
(
541.642
421.157
232.169
451.782
213.665
229.643
437.149
525.426
541.642
461.037
541.642
421.157
747.427
922.63
502.11
846.751
355.944
602.926
723.869
699.5
747.427
671.096
747.427
922.63
594.848
691.731
516.738
435.966
509.303
517.371
510.627
589.707
594.848
744.259
594.848
691.731
368.42
721.304
777.981
557.049
624.192
484.958
574.443
599.18
)
;
    }
    procBoundary0to4
    {
        type            processor;
        value           nonuniform List<scalar> 
36
(
369.825
540.032
633.107
452.722
536.371
452.501
668.811
517.57
720.504
528.941
553.648
705.612
759.095
761.555
646.786
607.451
431.036
834.235
503.295
779.558
626.124
712.731
611.164
478.832
548.024
780.999
502.763
261.328
510.478
707.657
434.477
663.517
509.636
827.087
454.116
528.277
)
;
    }
    procBoundary0to6
    {
        type            processor;
        value           uniform 612.831;
    }
    procBoundary0to7
    {
        type            processor;
        value           uniform 752.752;
    }
}


// ************************************************************************* //
