/*--------------------------------*- C++ -*----------------------------------*\
| =========                 |                                                 |
| \\      /  F ield         | OpenFOAM: The Open Source CFD Toolbox           |
|  \\    /   O peration     | Version:  4.x                                   |
|   \\  /    A nd           | Web:      www.OpenFOAM.org                      |
|    \\/     M anipulation  |                                                 |
\*---------------------------------------------------------------------------*/
FoamFile
{
    version     2.0;
    format      ascii;
    class       volScalarField;
    location    "23.5";
    object      Qsource;
}
// * * * * * * * * * * * * * * * * * * * * * * * * * * * * * * * * * * * * * //

dimensions      [1 -1 -3 0 0 0 0];

internalField   nonuniform List<scalar> 
132
(
6.82715e+09
5.27453e+09
5.4911e+09
4.22719e+09
6.25078e+09
5.95454e+09
7.91589e+09
5.53692e+09
4.18726e+09
5.46638e+09
5.60134e+09
6.40472e+09
6.20174e+09
4.7892e+09
7.4182e+09
6.31866e+09
6.55749e+09
6.30148e+09
3.09768e+09
6.35541e+09
6.60415e+09
5.64921e+09
6.46661e+09
5.53879e+09
4.94587e+09
5.86793e+09
9.48353e+09
3.78933e+09
5.01293e+09
4.37476e+09
5.0636e+09
7.46013e+09
9.46225e+09
8.15769e+09
8.60474e+09
8.18081e+09
8.03009e+09
7.43712e+09
8.21148e+09
4.95714e+09
9.48422e+09
7.98614e+09
8.56664e+09
9.58152e+09
8.68425e+09
9.19358e+09
9.3561e+09
9.00821e+09
5.27432e+09
9.49838e+09
8.39344e+09
7.54892e+09
8.21257e+09
7.70485e+09
1.05207e+10
6.99286e+09
6.33829e+09
7.92486e+09
7.07368e+09
7.75469e+09
5.52849e+09
1.12814e+10
6.37229e+09
7.42922e+09
8.91367e+09
7.43842e+09
8.28378e+09
6.14841e+09
8.85084e+09
7.52284e+09
6.24288e+09
6.22419e+09
8.30068e+09
7.96541e+09
6.92359e+09
9.22924e+09
6.71009e+09
9.35257e+09
1.00998e+10
1.00872e+10
6.68587e+09
7.22296e+09
8.05413e+09
9.28988e+09
9.73351e+09
8.0106e+09
9.09247e+09
6.27356e+09
5.32802e+09
6.87333e+09
8.68871e+09
9.5088e+09
8.97182e+09
9.89462e+09
7.98951e+09
8.6349e+09
5.13057e+09
5.47888e+09
7.56368e+09
5.71789e+09
7.90418e+09
8.37292e+09
6.76612e+09
4.9257e+09
6.94851e+09
5.11126e+09
9.63681e+09
9.07668e+09
8.11032e+09
7.20062e+09
6.76914e+09
1.04441e+10
7.40232e+09
6.94424e+09
5.16666e+09
5.66014e+09
9.03236e+09
6.26689e+09
8.71209e+09
8.70018e+09
8.23941e+09
5.11307e+09
9.34225e+09
4.81428e+09
6.76724e+09
9.62753e+09
1.045e+10
5.47661e+09
9.87042e+09
8.47802e+09
5.54422e+09
2.59236e+09
)
;

boundaryField
{
    inlet
    {
        type            calculated;
        value           uniform 0;
    }
    outlet
    {
        type            calculated;
        value           nonuniform 0();
    }
    wall
    {
        type            calculated;
        value           uniform 0;
    }
    procBoundary0to1
    {
        type            processor;
        value           nonuniform List<scalar> 
12
(
6.01049e+09
5.3739e+09
4.63215e+09
8.11657e+09
9.16039e+09
9.17448e+09
7.56032e+09
6.4125e+09
8.05408e+09
7.19523e+09
8.03997e+09
5.88415e+09
)
;
    }
    procBoundary0to2
    {
        type            processor;
        value           nonuniform List<scalar> 
44
(
7.71413e+09
6.48499e+09
3.6862e+09
6.92765e+09
3.49022e+09
4.0268e+09
6.60867e+09
7.40253e+09
7.71413e+09
6.95839e+09
7.71413e+09
6.48499e+09
9.88846e+09
1.22064e+10
6.64291e+09
1.12025e+10
4.70914e+09
7.97671e+09
9.57679e+09
9.25438e+09
9.88846e+09
8.8786e+09
9.88846e+09
1.22064e+10
7.86983e+09
9.15159e+09
6.83645e+09
5.76783e+09
6.73807e+09
6.84482e+09
6.75559e+09
7.80182e+09
7.86983e+09
9.84655e+09
7.86983e+09
9.15159e+09
4.8742e+09
9.54285e+09
1.02927e+10
7.36976e+09
8.25806e+09
6.416e+09
7.59989e+09
7.92715e+09
)
;
    }
    procBoundary0to4
    {
        type            processor;
        value           nonuniform List<scalar> 
36
(
5.70051e+09
7.58073e+09
9.19027e+09
6.44083e+09
7.91849e+09
6.44508e+09
9.67533e+09
7.30013e+09
1.03615e+10
6.99789e+09
7.32477e+09
9.33524e+09
1.00428e+10
1.00754e+10
8.55698e+09
8.03658e+09
5.7026e+09
1.10369e+10
6.65859e+09
1.03135e+10
8.28362e+09
9.42944e+09
8.0857e+09
6.33495e+09
7.25035e+09
1.03326e+10
6.65156e+09
3.45736e+09
6.75362e+09
9.3623e+09
5.74813e+09
8.77833e+09
6.74249e+09
1.09424e+10
6.00795e+09
6.9891e+09
)
;
    }
    procBoundary0to6
    {
        type            processor;
        value           uniform 8.10775e+09;
    }
    procBoundary0to7
    {
        type            processor;
        value           uniform 9.95891e+09;
    }
}


// ************************************************************************* //
