/*--------------------------------*- C++ -*----------------------------------*\
| =========                 |                                                 |
| \\      /  F ield         | OpenFOAM: The Open Source CFD Toolbox           |
|  \\    /   O peration     | Version:  4.x                                   |
|   \\  /    A nd           | Web:      www.OpenFOAM.org                      |
|    \\/     M anipulation  |                                                 |
\*---------------------------------------------------------------------------*/
FoamFile
{
    version     2.0;
    format      ascii;
    class       volScalarField;
    location    "23.5";
    object      Sm;
}
// * * * * * * * * * * * * * * * * * * * * * * * * * * * * * * * * * * * * * //

dimensions      [1 -3 -1 0 0 0 0];

internalField   nonuniform List<scalar> 
132
(
5.50257e-65
4.41756e-65
3.10004e-65
2.86753e-65
3.79754e-65
4.03004e-65
4.72754e-65
3.48753e-65
1.70501e-65
4.88256e-65
4.72756e-65
4.57255e-65
5.11505e-65
3.17753e-65
5.81255e-65
4.41753e-65
4.96003e-65
3.95251e-65
2.71253e-65
5.34756e-65
4.72755e-65
4.72754e-65
4.26254e-65
4.34003e-65
3.25501e-65
4.49502e-65
6.89752e-65
2.86754e-65
4.41755e-65
3.25504e-65
4.18505e-65
6.66508e-65
8.06009e-65
7.05257e-65
6.82006e-65
7.13005e-65
5.73504e-65
6.43253e-65
6.20003e-65
5.42507e-65
7.98259e-65
6.27757e-65
7.20757e-65
7.28505e-65
7.13004e-65
7.05253e-65
7.75002e-65
6.97501e-65
5.89008e-65
8.13759e-65
6.82007e-65
6.27755e-65
6.66504e-65
6.58754e-65
8.29252e-65
6.04501e-65
4.96e-65
8.0601e-65
6.12257e-65
6.12256e-65
4.72754e-65
8.99006e-65
5.96758e-65
6.82008e-65
7.28508e-65
6.74256e-65
6.58755e-65
5.19253e-65
7.05253e-65
6.89752e-65
4.72751e-65
6.43258e-65
7.05258e-65
6.43257e-65
5.96755e-65
7.36255e-65
5.73503e-65
7.36252e-65
8.83501e-65
8.2925e-65
7.6726e-65
6.27757e-65
6.58756e-65
8.21506e-65
7.82754e-65
7.36252e-65
7.44e-65
6.19998e-65
4.57249e-65
7.28509e-65
7.59508e-65
7.67257e-65
8.13756e-65
8.21504e-65
7.13002e-65
7.13e-65
4.57256e-65
4.88256e-65
5.73506e-65
5.34755e-65
6.12255e-65
7.44004e-65
4.80502e-65
4.10751e-65
4.96001e-65
5.50257e-65
8.1376e-65
7.28508e-65
6.74256e-65
5.81254e-65
5.96752e-65
8.37001e-65
6.5875e-65
5.50249e-65
4.57256e-65
4.96005e-65
7.28507e-65
5.73504e-65
7.28504e-65
8.06001e-65
6.7425e-65
5.11498e-65
8.05997e-65
5.27007e-65
5.89007e-65
7.82757e-65
9.22257e-65
4.49502e-65
9.14502e-65
7.12999e-65
5.42498e-65
2.32498e-65
)
;

boundaryField
{
    inlet
    {
        type            calculated;
        value           uniform 0;
    }
    outlet
    {
        type            calculated;
        value           nonuniform 0();
    }
    wall
    {
        type            calculated;
        value           uniform 0;
    }
    procBoundary0to1
    {
        type            processor;
        value           nonuniform List<scalar> 
12
(
3.72003e-65
3.64251e-65
3.4875e-65
6.66502e-65
7.20751e-65
8.13748e-65
7.0525e-65
5.57998e-65
7.90496e-65
6.5875e-65
7.05247e-65
5.73496e-65
)
;
    }
    procBoundary0to2
    {
        type            processor;
        value           nonuniform List<scalar> 
44
(
6.51006e-65
4.88254e-65
2.55751e-65
4.88252e-65
2.24751e-65
2.635e-65
5.73507e-65
6.51008e-65
6.51006e-65
5.11506e-65
6.51006e-65
4.88254e-65
8.44754e-65
9.76502e-65
5.735e-65
9.22249e-65
5.42507e-65
6.82008e-65
7.67258e-65
7.82757e-65
8.44754e-65
6.97505e-65
8.44754e-65
9.76502e-65
7.59498e-65
8.13747e-65
7.28509e-65
4.96006e-65
5.50255e-65
6.04505e-65
5.58003e-65
7.13002e-65
7.59498e-65
8.37001e-65
7.59498e-65
8.13747e-65
4.80506e-65
8.13759e-65
8.37008e-65
6.58755e-65
6.82004e-65
5.89002e-65
6.2775e-65
7.74998e-65
)
;
    }
    procBoundary0to4
    {
        type            processor;
        value           nonuniform List<scalar> 
36
(
5.19257e-65
7.36259e-65
7.51758e-65
5.58005e-65
5.96755e-65
5.65754e-65
7.59503e-65
6.74252e-65
8.91251e-65
7.7501e-65
6.35507e-65
7.36257e-65
8.60257e-65
8.21505e-65
7.51753e-65
6.35501e-65
5.425e-65
9.06748e-65
6.97509e-65
8.7576e-65
6.66507e-65
8.44757e-65
6.66503e-65
5.96752e-65
6.1225e-65
9.68748e-65
5.65748e-65
4.34005e-65
5.73507e-65
7.59507e-65
5.19254e-65
7.36254e-65
6.35502e-65
9.2225e-65
5.96748e-65
5.96747e-65
)
;
    }
    procBoundary0to6
    {
        type            processor;
        value           uniform 6.74247e-65;
    }
    procBoundary0to7
    {
        type            processor;
        value           uniform 9.91992e-65;
    }
}


// ************************************************************************* //
