/*--------------------------------*- C++ -*----------------------------------*\
| =========                 |                                                 |
| \\      /  F ield         | OpenFOAM: The Open Source CFD Toolbox           |
|  \\    /   O peration     | Version:  4.x                                   |
|   \\  /    A nd           | Web:      www.OpenFOAM.org                      |
|    \\/     M anipulation  |                                                 |
\*---------------------------------------------------------------------------*/
FoamFile
{
    version     2.0;
    format      ascii;
    class       surfaceScalarField;
    location    "37";
    object      phi;
}
// * * * * * * * * * * * * * * * * * * * * * * * * * * * * * * * * * * * * * //

dimensions      [0 3 -1 0 0 0 0];

internalField   nonuniform List<scalar> 
249
(
8.36459e-06
-4.8593e-07
-7.77032e-08
8.41896e-06
-2.26707e-07
-6.08352e-08
8.6249e-06
-5.03958e-07
-7.19914e-08
8.68808e-06
-1.84593e-07
-1.1589e-07
8.86497e-06
-3.74654e-07
-6.61989e-08
8.89318e-06
-1.22319e-07
-1.12865e-07
9.00708e-06
-2.75023e-07
-5.36386e-08
9.02529e-06
-1.19227e-07
-1.1652e-07
-1.9733e-07
3.58293e-08
7.79797e-06
-4.82411e-07
-6.81261e-09
7.63506e-06
-2.40989e-07
-1.56668e-08
7.24282e-06
-5.09958e-07
5.44131e-08
7.11487e-06
-1.76518e-07
-3.67043e-08
6.88137e-06
-3.97638e-07
4.98764e-08
6.82479e-06
-1.2977e-07
-4.27542e-08
6.62717e-06
-2.64549e-07
6.64585e-08
6.55676e-06
-9.80237e-08
-4.14783e-08
-7.60642e-08
1.2568e-07
7.57503e-06
-2.7725e-07
1.97002e-09
7.27836e-06
-1.21804e-07
-8.04676e-09
6.67875e-06
-2.80719e-07
6.31212e-08
6.51312e-06
-1.06714e-07
8.04505e-09
6.1228e-06
-2.44669e-07
8.11061e-08
6.03109e-06
-7.51183e-08
1.78257e-08
5.67627e-06
-9.99913e-08
5.04651e-08
5.59599e-06
-2.77233e-08
2.19134e-08
2.15552e-08
-1.42578e-08
7.55873e-06
-1.98465e-08
7.19387e-06
3.26923e-08
6.48791e-06
1.14531e-07
6.25923e-06
1.87575e-08
5.68917e-06
1.49674e-07
5.53466e-06
4.8334e-08
5.197e-06
1.25773e-07
5.12822e-06
3.75192e-08
5.13433e-09
8.37918e-06
-4.13987e-07
1.20369e-07
8.44996e-06
-2.06091e-07
7.44734e-08
8.62203e-06
-4.09461e-07
1.65402e-07
8.64299e-06
-1.49503e-07
1.26545e-08
8.8102e-06
-3.22583e-07
8.91751e-08
8.82984e-06
-1.11797e-07
-2.07083e-08
8.86322e-06
-2.11408e-07
1.24392e-07
8.7595e-06
-4.94229e-08
3.66181e-08
-1.19713e-07
1.91948e-07
8.03342e-06
-4.61491e-07
1.70538e-07
7.95498e-06
-2.27296e-07
8.39806e-08
7.81375e-06
-4.65022e-07
2.51201e-07
7.72361e-06
-1.59227e-07
6.31555e-08
7.58478e-06
-3.29999e-07
1.96125e-07
7.48652e-06
-9.4364e-08
3.80704e-08
7.28553e-06
-1.5942e-07
2.15467e-07
7.18533e-06
-4.4645e-08
5.39382e-08
-7.65008e-08
2.11567e-07
7.7572e-06
-2.52142e-07
1.98685e-07
7.49584e-06
-8.14079e-08
1.07424e-07
7.0065e-06
-1.94774e-07
2.82217e-07
6.82311e-06
-5.98368e-08
9.20488e-08
6.44749e-06
-1.19643e-07
2.4637e-07
6.34473e-06
-3.90912e-08
6.53109e-08
6.04204e-06
-3.714e-08
2.30869e-07
5.96286e-06
-1.84813e-08
7.49336e-08
-2.30919e-09
1.81261e-07
7.6355e-06
1.79467e-07
7.39335e-06
1.32103e-07
6.88009e-06
2.96808e-07
6.69265e-06
1.08005e-07
6.34377e-06
2.92725e-07
6.24493e-06
1.14622e-07
6.03306e-06
2.82465e-07
5.99403e-06
7.60958e-08
1.18893e-07
8.67018e-06
-3.86547e-07
8.95649e-06
-2.11831e-07
9.4868e-06
-3.64908e-07
9.64021e-06
-1.40764e-07
9.96416e-06
-2.34767e-07
1.00377e-05
-9.42232e-08
1.0332e-05
-1.69938e-07
1.04757e-05
-1.07113e-07
-1.81066e-07
8.3753e-06
-4.28044e-07
8.46875e-06
-2.21298e-07
8.77551e-06
-4.20465e-07
8.87151e-06
-1.7361e-07
9.0999e-06
-2.67036e-07
9.15348e-06
-1.09733e-07
9.36167e-06
-1.62662e-07
9.43446e-06
-1.25958e-07
-1.70293e-07
8.14017e-06
-2.0626e-07
8.1192e-06
-9.29117e-08
8.19901e-06
-2.18055e-07
8.22341e-06
-1.05963e-07
8.35729e-06
-1.54547e-07
8.39447e-06
-8.15962e-08
8.56732e-06
-1.0465e-07
8.60761e-06
-9.13067e-08
-1.23652e-07
8.0272e-06
8.02862e-06
8.0445e-06
8.0447e-06
8.18695e-06
8.27044e-06
8.53841e-06
8.60632e-06
)
;

boundaryField
{
    inlet
    {
        type            calculated;
        value           nonuniform List<scalar> 
12
(
-8.16327e-06
-8.16327e-06
-8.16327e-06
-8.16327e-06
-8.16327e-06
-8.16327e-06
-8.16327e-06
-8.16327e-06
-8.16327e-06
-8.16327e-06
-8.16327e-06
-8.16327e-06
)
;
    }
    outlet
    {
        type            calculated;
        value           nonuniform 0();
    }
    wall
    {
        type            calculated;
        value           nonuniform List<scalar> 
63
(
0
0
0
0
0
0
0
0
0
0
0
0
0
6.16298e-33
0
0
0
0
0
0
0
0
0
0
0
0
0
0
0
0
0
0
0
0
0
0
0
0
0
-3.08149e-33
0
0
0
0
0
0
0
0
0
0
0
0
0
0
0
0
0
0
0
0
0
0
0
)
;
    }
    procBoundary4to0
    {
        type            processor;
        value           nonuniform List<scalar> 
36
(
3.62314e-07
2.33171e-07
3.70001e-07
2.37312e-07
2.63954e-07
2.06983e-07
2.14753e-07
2.17541e-07
9.83412e-08
3.68586e-07
1.92861e-07
3.43825e-07
1.56581e-07
2.06607e-07
1.06785e-07
1.20693e-07
9.06778e-08
5.6369e-08
3.81102e-07
1.85536e-07
3.07243e-07
8.77895e-08
1.56239e-07
1.92357e-08
1.39794e-07
-1.19299e-08
8.08157e-08
3.66047e-07
1.80836e-07
2.95496e-07
1.11295e-07
1.94809e-07
4.04427e-08
1.28921e-07
4.46112e-09
3.33744e-08
)
;
    }
    procBoundary4to5
    {
        type            processor;
        value           nonuniform List<scalar> 
12
(
9.08845e-06
6.25345e-06
5.43181e-06
5.18445e-06
8.7231e-06
7.05623e-06
5.69315e-06
5.89125e-06
1.08487e-05
9.63525e-06
8.74223e-06
8.72009e-06
)
;
    }
    procBoundary4to6
    {
        type            processor;
        value           nonuniform List<scalar> 
27
(
-1.89179e-08
2.9528e-08
1.52109e-08
-8.07767e-09
-1.90963e-08
-9.38749e-09
-1.70262e-08
-9.20405e-10
-7.31867e-08
7.63094e-08
6.13289e-08
1.36211e-07
3.8353e-08
8.61915e-08
-6.53826e-09
1.80322e-08
-1.80262e-08
-1.32859e-08
1.09269e-07
3.77781e-08
6.2873e-08
1.83572e-09
-4.06676e-09
-5.04697e-08
-9.01542e-08
-8.31168e-08
-1.18533e-07
)
;
    }
}


// ************************************************************************* //
