/*--------------------------------*- C++ -*----------------------------------*\
| =========                 |                                                 |
| \\      /  F ield         | OpenFOAM: The Open Source CFD Toolbox           |
|  \\    /   O peration     | Version:  4.x                                   |
|   \\  /    A nd           | Web:      www.OpenFOAM.org                      |
|    \\/     M anipulation  |                                                 |
\*---------------------------------------------------------------------------*/
FoamFile
{
    version     2.0;
    format      ascii;
    class       volVectorField;
    location    "37";
    object      UsNext;
}
// * * * * * * * * * * * * * * * * * * * * * * * * * * * * * * * * * * * * * //

dimensions      [0 1 -1 0 0 0 0];

internalField   nonuniform List<vector> 
108
(
(5.09099e-11 2.64481e-11 1.71494e-10)
(1.5207e-11 5.86129e-11 1.81258e-10)
(2.85566e-10 6.32652e-11 2.45101e-10)
(1.5146e-10 8.24554e-11 3.61927e-10)
(1.34744e-10 2.47665e-10 5.47123e-10)
(-1.64441e-10 5.29061e-11 5.75753e-10)
(-6.07313e-11 -1.79192e-11 9.1849e-10)
(-5.69645e-10 5.54524e-11 1.19865e-09)
(-7.58876e-10 2.69224e-11 1.4923e-09)
(8.43817e-11 -9.21292e-12 2.13524e-10)
(2.08529e-10 -5.79744e-11 1.91626e-10)
(3.91956e-10 -1.45969e-11 3.91216e-10)
(4.47441e-10 1.24148e-11 5.44255e-10)
(5.71535e-10 1.50231e-10 7.45145e-10)
(5.15887e-10 6.11219e-11 8.7048e-10)
(4.55396e-10 1.61695e-11 1.24945e-09)
(1.26923e-10 -2.90646e-11 1.75007e-09)
(-3.82347e-10 1.44664e-10 2.40978e-09)
(1.32948e-10 3.63684e-11 2.5976e-10)
(3.92253e-10 8.21401e-11 3.98176e-10)
(7.00186e-10 1.00304e-11 6.30972e-10)
(9.16268e-10 4.21618e-11 6.45806e-10)
(1.10945e-09 1.1796e-10 1.01007e-09)
(1.34513e-09 1.48706e-11 1.11438e-09)
(1.37544e-09 2.8688e-11 1.50231e-09)
(1.26481e-09 -1.52548e-10 2.03923e-09)
(1.83078e-09 -4.46872e-10 2.15408e-09)
(8.55416e-11 -1.07941e-10 1.88729e-10)
(1.96314e-10 -2.36651e-10 2.72339e-10)
(5.2184e-10 -3.20941e-10 4.39636e-10)
(6.66336e-10 -2.06911e-10 2.61628e-10)
(1.44184e-09 -2.82586e-10 1.02662e-09)
(1.65575e-09 -1.9801e-10 1.21573e-09)
(2.03531e-09 -3.17863e-10 1.47677e-09)
(1.75659e-09 -7.76444e-10 1.41234e-09)
(1.94626e-09 -7.03974e-10 1.7441e-09)
(8.15365e-12 2.91006e-11 8.1619e-11)
(-6.74362e-11 3.86532e-11 1.06839e-10)
(1.22197e-10 1.65898e-11 1.40459e-10)
(-4.46055e-11 7.39962e-11 2.85162e-10)
(1.57905e-10 9.15369e-11 3.09928e-10)
(-4.48557e-11 -4.99506e-11 3.34461e-10)
(1.77038e-11 -4.25097e-11 4.43033e-10)
(-2.85201e-10 -2.76556e-11 7.75615e-10)
(-1.54718e-11 -1.54067e-10 7.31095e-10)
(4.72222e-11 1.88183e-11 1.54616e-10)
(-5.31261e-11 2.68505e-11 1.62295e-10)
(1.25203e-10 -1.33745e-11 1.87178e-10)
(1.45645e-10 5.07606e-11 4.11649e-10)
(3.95563e-10 -1.8756e-11 5.10591e-10)
(1.74774e-10 -6.12011e-11 6.20367e-10)
(4.21199e-10 1.78694e-10 9.26758e-10)
(2.95031e-10 1.09507e-10 1.17304e-09)
(4.77257e-10 -4.00099e-10 1.43365e-09)
(4.71365e-11 1.64176e-11 1.56467e-10)
(-2.05466e-11 -3.80063e-12 2.44965e-10)
(4.18496e-10 1.39424e-10 2.62514e-10)
(4.97974e-10 7.47729e-12 4.62881e-10)
(8.16867e-10 4.06281e-11 6.33599e-10)
(6.99129e-10 -1.2113e-10 8.61831e-10)
(1.10244e-09 5.30901e-11 1.14369e-09)
(1.29184e-09 1.20431e-11 1.20476e-09)
(1.41875e-09 -1.33e-10 1.82678e-09)
(4.48243e-11 -1.55599e-10 3.99712e-11)
(6.40154e-11 -2.55322e-10 1.38672e-10)
(3.66977e-10 -2.06909e-10 2.43261e-10)
(3.70597e-10 -1.7142e-10 3.66004e-10)
(6.37375e-10 -2.18122e-10 6.54203e-10)
(8.56886e-10 -1.62079e-10 7.38507e-10)
(1.36678e-09 3.7647e-11 1.02413e-09)
(1.44326e-09 -2.50558e-10 1.33222e-09)
(1.95059e-09 -5.65914e-10 1.51677e-09)
(2.21011e-11 2.62424e-11 5.91238e-11)
(-5.89963e-11 3.85945e-11 3.79808e-11)
(1.6437e-11 3.5501e-11 8.30144e-11)
(-5.34306e-11 3.85032e-11 1.53851e-10)
(6.75566e-11 -1.28069e-11 1.65809e-10)
(-2.90731e-12 -7.24114e-11 1.28004e-10)
(-5.71555e-11 -9.00737e-11 3.4859e-10)
(-4.92814e-11 -3.2234e-11 4.02595e-10)
(1.79856e-10 -8.42887e-11 2.87013e-10)
(7.26675e-11 -3.88484e-12 9.16007e-11)
(-1.92619e-11 2.42502e-11 6.88926e-11)
(6.68964e-11 4.111e-11 1.09179e-10)
(-1.15437e-11 1.56169e-12 1.31845e-10)
(2.09162e-10 -2.66746e-11 2.73715e-10)
(-1.17953e-10 4.79134e-11 1.90009e-10)
(2.38575e-10 2.13575e-10 3.52134e-10)
(1.52716e-10 -5.38845e-11 5.74046e-10)
(3.48854e-10 -1.74868e-10 6.83641e-10)
(6.67856e-11 2.21121e-11 7.07358e-11)
(4.8682e-11 4.20215e-11 9.27297e-11)
(1.76365e-10 2.72116e-11 1.45952e-10)
(2.12256e-10 -1.87969e-11 1.64594e-10)
(4.33875e-10 -1.5338e-11 3.48732e-10)
(1.77918e-10 4.93772e-11 3.56465e-10)
(8.78526e-10 2.14342e-10 5.13347e-10)
(8.72778e-10 2.86906e-11 6.47279e-10)
(9.37232e-10 -2.63911e-10 7.72916e-10)
(6.03215e-11 -8.25309e-11 1.29858e-11)
(4.60803e-11 -1.82029e-10 3.83695e-11)
(2.40551e-10 -1.02987e-10 1.59412e-10)
(1.97675e-10 -8.96531e-11 1.92558e-10)
(2.8295e-10 -1.05323e-10 2.32165e-10)
(3.42055e-10 -1.09942e-10 2.0716e-10)
(8.10092e-10 6.60719e-11 4.9803e-10)
(1.4562e-10 6.22815e-10 5.9981e-10)
(1.61006e-09 -1.78944e-10 8.68566e-10)
)
;

boundaryField
{
    inlet
    {
        type            calculated;
        value           nonuniform List<vector> 
12
(
(5.09099e-11 2.64481e-11 1.71494e-10)
(8.43817e-11 -9.21292e-12 2.13524e-10)
(1.32948e-10 3.63684e-11 2.5976e-10)
(8.55416e-11 -1.07941e-10 1.88729e-10)
(8.15365e-12 2.91006e-11 8.1619e-11)
(4.72222e-11 1.88183e-11 1.54616e-10)
(4.71365e-11 1.64176e-11 1.56467e-10)
(4.48243e-11 -1.55599e-10 3.99712e-11)
(2.21011e-11 2.62424e-11 5.91238e-11)
(7.26675e-11 -3.88484e-12 9.16007e-11)
(6.67856e-11 2.21121e-11 7.07358e-11)
(6.03215e-11 -8.25309e-11 1.29858e-11)
)
;
    }
    outlet
    {
        type            calculated;
        value           nonuniform 0();
    }
    wall
    {
        type            calculated;
        value           nonuniform List<vector> 
63
(
(2.21011e-11 2.62424e-11 5.91238e-11)
(7.26675e-11 -3.88484e-12 9.16007e-11)
(6.67856e-11 2.21121e-11 7.07358e-11)
(6.03215e-11 -8.25309e-11 1.29858e-11)
(-5.89963e-11 3.85945e-11 3.79808e-11)
(-1.92619e-11 2.42502e-11 6.88926e-11)
(4.8682e-11 4.20215e-11 9.27297e-11)
(4.60803e-11 -1.82029e-10 3.83695e-11)
(1.6437e-11 3.5501e-11 8.30144e-11)
(6.68964e-11 4.111e-11 1.09179e-10)
(1.76365e-10 2.72116e-11 1.45952e-10)
(2.40551e-10 -1.02987e-10 1.59412e-10)
(-5.34306e-11 3.85032e-11 1.53851e-10)
(-1.15437e-11 1.56169e-12 1.31845e-10)
(2.12256e-10 -1.87969e-11 1.64594e-10)
(1.97675e-10 -8.96531e-11 1.92558e-10)
(6.75566e-11 -1.28069e-11 1.65809e-10)
(2.09162e-10 -2.66746e-11 2.73715e-10)
(4.33875e-10 -1.5338e-11 3.48732e-10)
(2.8295e-10 -1.05323e-10 2.32165e-10)
(-2.90731e-12 -7.24114e-11 1.28004e-10)
(-1.17953e-10 4.79134e-11 1.90009e-10)
(1.77918e-10 4.93772e-11 3.56465e-10)
(3.42055e-10 -1.09942e-10 2.0716e-10)
(-5.71555e-11 -9.00737e-11 3.4859e-10)
(2.38575e-10 2.13575e-10 3.52134e-10)
(8.78526e-10 2.14342e-10 5.13347e-10)
(8.10092e-10 6.60719e-11 4.9803e-10)
(-4.92814e-11 -3.2234e-11 4.02595e-10)
(1.52716e-10 -5.38845e-11 5.74046e-10)
(8.72778e-10 2.86906e-11 6.47279e-10)
(1.4562e-10 6.22815e-10 5.9981e-10)
(1.79856e-10 -8.42887e-11 2.87013e-10)
(3.48854e-10 -1.74868e-10 6.83641e-10)
(9.37232e-10 -2.63911e-10 7.72916e-10)
(1.61006e-09 -1.78944e-10 8.68566e-10)
(5.09099e-11 2.64481e-11 1.71494e-10)
(8.15365e-12 2.91006e-11 8.1619e-11)
(2.21011e-11 2.62424e-11 5.91238e-11)
(1.5207e-11 5.86129e-11 1.81258e-10)
(-6.74362e-11 3.86532e-11 1.06839e-10)
(-5.89963e-11 3.85945e-11 3.79808e-11)
(2.85566e-10 6.32652e-11 2.45101e-10)
(1.22197e-10 1.65898e-11 1.40459e-10)
(1.6437e-11 3.5501e-11 8.30144e-11)
(1.5146e-10 8.24554e-11 3.61927e-10)
(-4.46055e-11 7.39962e-11 2.85162e-10)
(-5.34306e-11 3.85032e-11 1.53851e-10)
(1.34744e-10 2.47665e-10 5.47123e-10)
(1.57905e-10 9.15369e-11 3.09928e-10)
(6.75566e-11 -1.28069e-11 1.65809e-10)
(-1.64441e-10 5.29061e-11 5.75753e-10)
(-4.48557e-11 -4.99506e-11 3.34461e-10)
(-2.90731e-12 -7.24114e-11 1.28004e-10)
(-6.07313e-11 -1.79192e-11 9.1849e-10)
(1.77038e-11 -4.25097e-11 4.43033e-10)
(-5.71555e-11 -9.00737e-11 3.4859e-10)
(-5.69645e-10 5.54524e-11 1.19865e-09)
(-2.85201e-10 -2.76556e-11 7.75615e-10)
(-4.92814e-11 -3.2234e-11 4.02595e-10)
(-7.58876e-10 2.69224e-11 1.4923e-09)
(-1.54718e-11 -1.54067e-10 7.31095e-10)
(1.79856e-10 -8.42887e-11 2.87013e-10)
)
;
    }
    procBoundary4to0
    {
        type            processor;
        value           nonuniform List<vector> 
36
(
(1.26776e-10 3.95989e-11 3.50772e-10)
(6.01526e-11 7.35022e-11 4.47811e-10)
(4.62985e-10 -3.07403e-11 4.84343e-10)
(1.856e-10 9.72736e-11 4.01702e-10)
(2.82048e-10 -3.77337e-11 3.60303e-10)
(-2.44357e-11 1.16196e-10 7.56496e-10)
(-1.23973e-10 9.37495e-11 1.10464e-09)
(-2.75502e-10 -2.08076e-10 1.68648e-09)
(-3.55386e-10 -4.59236e-10 3.73969e-09)
(1.28447e-10 3.06668e-11 3.32172e-10)
(1.94122e-10 9.48199e-11 5.29093e-10)
(6.90527e-10 -6.32575e-11 6.01022e-10)
(7.39386e-10 1.51858e-10 7.72353e-10)
(8.00693e-10 1.03825e-10 8.31972e-10)
(5.08718e-10 2.20112e-10 1.23614e-09)
(5.77074e-10 1.61509e-10 1.65407e-09)
(1.27804e-10 -5.17574e-10 1.99394e-09)
(-1.43389e-10 9.60926e-11 2.98612e-09)
(3.08444e-10 2.01249e-10 4.91992e-10)
(5.50232e-10 1.10173e-10 6.10852e-10)
(1.29607e-09 3.60059e-11 8.47072e-10)
(1.11006e-09 2.51615e-10 9.33656e-10)
(1.77903e-09 9.50697e-11 1.28566e-09)
(1.63731e-09 2.65624e-10 1.65331e-09)
(2.15033e-09 -3.21723e-11 1.95737e-09)
(1.88415e-09 -3.47198e-10 2.70258e-09)
(1.09564e-09 5.02886e-10 3.51624e-09)
(1.84211e-10 -2.38594e-11 3.78313e-10)
(5.6053e-10 -2.8744e-10 5.19332e-10)
(1.58224e-09 -2.13836e-10 6.06396e-10)
(1.90088e-09 -2.18597e-10 8.11021e-10)
(2.88038e-09 -1.77112e-10 1.09089e-09)
(2.28194e-09 -4.62186e-10 1.99064e-09)
(3.04313e-09 -7.5295e-10 2.39474e-09)
(2.59029e-09 -5.6932e-10 2.41394e-09)
(1.738e-09 -1.12559e-09 3.67889e-09)
)
;
    }
    procBoundary4to5
    {
        type            processor;
        value           nonuniform List<vector> 
12
(
(-5.8404e-10 1.86105e-10 1.13128e-09)
(4.65553e-10 3.7066e-10 1.82471e-09)
(1.288e-09 -3.0459e-11 2.60349e-09)
(1.71134e-09 -1.67252e-10 1.17643e-09)
(-2.70379e-10 7.17474e-11 8.31008e-10)
(3.89103e-10 -2.16536e-11 1.4474e-09)
(1.56942e-09 1.21291e-10 1.95463e-09)
(2.15634e-09 -1.88276e-12 1.11997e-09)
(-1.00444e-10 -6.65076e-11 3.3271e-10)
(2.65341e-10 1.39681e-10 5.52218e-10)
(8.70481e-10 9.92631e-11 4.06442e-10)
(1.95391e-09 1.65624e-10 5.01819e-10)
)
;
    }
    procBoundary4to6
    {
        type            processor;
        value           nonuniform List<vector> 
27
(
(1.56196e-10 -2.54159e-10 2.02412e-10)
(1.05e-10 -4.71737e-10 3.96342e-10)
(1.30238e-10 -4.046e-10 6.36765e-10)
(9.041e-11 -3.11672e-10 8.44301e-10)
(6.96437e-10 -5.18794e-10 1.24626e-09)
(6.06751e-10 -4.86912e-10 1.06445e-09)
(7.77122e-10 -6.99573e-10 1.57672e-09)
(8.07494e-10 -1.10495e-09 1.45835e-09)
(1.25867e-09 -8.79778e-10 2.00804e-09)
(7.27151e-11 -1.98806e-10 2.18654e-10)
(3.04816e-11 -2.79908e-10 3.46635e-10)
(1.84491e-10 -3.2674e-10 3.91973e-10)
(7.98906e-11 -2.13902e-10 4.7777e-10)
(3.72589e-10 -2.41484e-10 6.0121e-10)
(6.30862e-10 -3.45826e-10 7.62925e-10)
(9.31115e-10 -3.89581e-10 9.84732e-10)
(1.35252e-09 -5.97815e-10 1.22642e-09)
(1.69316e-09 -7.44055e-10 1.2674e-09)
(6.20221e-11 -1.4947e-10 1.14906e-10)
(7.375e-11 -1.48652e-10 1.4902e-10)
(2.22055e-10 -2.25092e-10 1.82614e-10)
(1.505e-10 -1.36952e-10 1.83778e-10)
(3.2294e-10 -1.90424e-10 2.33147e-10)
(5.43583e-10 -2.40216e-10 2.95758e-10)
(1.05543e-09 -1.57247e-10 5.81549e-10)
(1.51835e-09 -4.02199e-10 4.95815e-10)
(2.10298e-09 -4.63907e-10 8.31204e-10)
)
;
    }
}


// ************************************************************************* //
