/*--------------------------------*- C++ -*----------------------------------*\
| =========                 |                                                 |
| \\      /  F ield         | OpenFOAM: The Open Source CFD Toolbox           |
|  \\    /   O peration     | Version:  4.x                                   |
|   \\  /    A nd           | Web:      www.OpenFOAM.org                      |
|    \\/     M anipulation  |                                                 |
\*---------------------------------------------------------------------------*/
FoamFile
{
    version     2.0;
    format      ascii;
    class       volScalarField;
    location    "5.5";
    object      Ksl;
}
// * * * * * * * * * * * * * * * * * * * * * * * * * * * * * * * * * * * * * //

dimensions      [1 -3 -1 0 0 0 0];

internalField   nonuniform List<scalar> 
108
(
3461.06
7336.22
3494.89
6797.64
3496.17
6297.72
3416.32
5719.84
3244.9
3555.08
10715.9
3897.75
19988.3
4159.93
29441.6
4364.43
30755.1
4616.96
3573.07
11184.4
3879.18
19130.8
3966.5
25483.4
3995.98
88104.4
4044.23
3610.28
11112.9
4017.35
19343.7
4200.76
26702.5
4414.5
35055.1
4529.02
3439.06
7136.24
3416.74
6414
3375.59
5551.42
3232.1
5028.49
3074.2
3498.47
9280.25
3675.2
12051.6
3814.74
15986.3
3978.74
23532.1
4086.05
3525.54
9504.43
3738.53
12232.9
3805.74
15099.9
3813.65
16728.9
3766.48
3559.17
9720.89
3790.14
12257.1
3906.09
14721.1
4050.1
23480.2
4313.05
3410.53
6796.02
3328.82
6000.4
3337.86
5440.4
3200.53
4740.05
2977.09
3452.39
7420.41
3485.12
6671.2
3425.97
5939.16
3309.32
5453
3178.5
3506.06
7602.71
3543.4
6886.5
3471.3
5917.87
3282.72
5024.59
3095.16
3557.61
7835.4
3609.87
7366.26
3553.11
6285.53
3334.67
5425.74
3145.93
)
;

boundaryField
{
    inlet
    {
        type            zeroGradient;
    }
    outlet
    {
        type            zeroGradient;
    }
    wall
    {
        type            zeroGradient;
    }
    procBoundary4to0
    {
        type            processor;
        value           nonuniform List<scalar> 
36
(
3445.36
7400.14
3435.03
6437.71
3347.04
5524.36
3176.27
4725.97
2943.68
3484.19
9826.55
3690.41
11903.5
3778.18
13443.4
3819.47
15417.9
3809.69
3551.33
10744.1
3801.39
15726.2
3870.92
19976.2
3888.01
21406.1
3821.96
3547.92
11383.5
3864.42
17927.5
3934.08
19504.5
3965.81
18966.3
3996.84
)
;
    }
    procBoundary4to5
    {
        type            processor;
        value           nonuniform List<scalar> 
12
(
5520.07
27980.4
232165
23869.5
4596.69
198905
18753.4
108636
4090.08
5128.03
4577.97
5334.95
)
;
    }
    procBoundary4to6
    {
        type            processor;
        value           nonuniform List<scalar> 
27
(
3642.08
12296.6
3952.88
26085.4
4054.42
28671.9
4054.68
73348.2
4076.33
3579.47
10272.1
3787.99
14695.3
3854.61
21171
3943.13
20615.5
3936.33
3501.23
7554.85
3551.08
7259.2
3513.52
7114.03
3529.85
7862.51
3547.52
)
;
    }
}


// ************************************************************************* //
