/*--------------------------------*- C++ -*----------------------------------*\
| =========                 |                                                 |
| \\      /  F ield         | OpenFOAM: The Open Source CFD Toolbox           |
|  \\    /   O peration     | Version:  4.x                                   |
|   \\  /    A nd           | Web:      www.OpenFOAM.org                      |
|    \\/     M anipulation  |                                                 |
\*---------------------------------------------------------------------------*/
FoamFile
{
    version     2.0;
    format      ascii;
    class       volScalarField;
    location    "5.5";
    object      QPartFluid;
}
// * * * * * * * * * * * * * * * * * * * * * * * * * * * * * * * * * * * * * //

dimensions      [1 -1 -3 0 0 0 0];

internalField   nonuniform List<scalar> 
108
(
4.87332e+09
7.11777e+09
8.31712e+09
5.9952e+09
7.07877e+09
6.082e+09
8.91777e+09
7.07783e+09
9.76181e+09
6.95137e+09
7.18213e+09
9.09996e+09
9.66677e+09
9.89266e+09
8.34768e+09
7.90123e+09
5.64807e+09
1.10101e+10
6.62696e+09
1.01638e+10
7.89907e+09
9.29389e+09
8.39308e+09
6.28352e+09
7.23762e+09
1.02876e+10
6.6546e+09
3.42696e+09
6.66352e+09
9.2348e+09
5.6492e+09
8.72423e+09
6.39731e+09
1.13055e+10
6.15236e+09
7.00091e+09
5.01772e+09
5.48502e+09
7.97007e+09
8.32636e+09
8.48365e+09
5.65843e+09
5.57685e+09
8.03917e+09
9.80114e+09
6.18721e+09
7.52047e+09
7.62685e+09
7.61157e+09
7.62574e+09
6.60546e+09
8.40716e+09
9.11237e+09
1.04838e+10
4.16081e+09
7.28997e+09
9.93157e+09
8.28646e+09
9.24714e+09
8.32e+09
8.17416e+09
7.42054e+09
8.70589e+09
6.16716e+09
8.54463e+09
7.48467e+09
9.72174e+09
1.09029e+10
7.37453e+09
1.18709e+10
8.68754e+09
8.14492e+09
4.50799e+09
6.29078e+09
4.38983e+09
6.02397e+09
6.2533e+09
8.05346e+09
7.52285e+09
7.14457e+09
8.28832e+09
4.83387e+09
8.98678e+09
7.04065e+09
5.8689e+09
7.40976e+09
7.78999e+09
7.39476e+09
6.40623e+09
8.71326e+09
4.87699e+09
7.59275e+09
8.41324e+09
7.0714e+09
6.56107e+09
7.22111e+09
7.53333e+09
8.58341e+09
7.25792e+09
7.41133e+09
7.04215e+09
6.65008e+09
8.29044e+09
8.60934e+09
9.86179e+09
5.07198e+09
5.46415e+09
7.24429e+09
)
;

boundaryField
{
    inlet
    {
        type            calculated;
        value           uniform 0;
    }
    outlet
    {
        type            calculated;
        value           nonuniform 0();
    }
    wall
    {
        type            calculated;
        value           uniform 0;
    }
    procBoundary4to0
    {
        type            processor;
        value           nonuniform List<scalar> 
36
(
4.31001e+09
5.00731e+09
6.70596e+09
5.26247e+09
7.07868e+09
8.47424e+09
6.02534e+09
4.64751e+09
6.29917e+09
5.10676e+09
9.51884e+09
8.98046e+09
8.00093e+09
7.15447e+09
6.32496e+09
1.04834e+10
7.45883e+09
7.03382e+09
5.13732e+09
5.55012e+09
8.9167e+09
6.09365e+09
8.6259e+09
8.6335e+09
8.31455e+09
5.25055e+09
9.48533e+09
4.78153e+09
6.63982e+09
9.49193e+09
1.02313e+10
5.36684e+09
1.00109e+10
8.59043e+09
5.76686e+09
2.6764e+09
)
;
    }
    procBoundary4to5
    {
        type            processor;
        value           nonuniform List<scalar> 
12
(
6.89563e+09
8.28373e+09
8.5296e+09
1.05779e+10
7.95545e+09
5.8987e+09
9.15473e+09
3.83463e+09
2.60492e+09
6.87423e+09
6.84037e+09
7.42544e+09
)
;
    }
    procBoundary4to6
    {
        type            processor;
        value           nonuniform List<scalar> 
27
(
9.85564e+09
8.85302e+09
5.98586e+09
7.89461e+09
1.09924e+10
6.28497e+09
8.72084e+09
6.74869e+09
1.00197e+10
7.55801e+09
8.93679e+09
9.75393e+09
8.13335e+09
6.70671e+09
7.88962e+09
7.90705e+09
6.28987e+09
9.57184e+09
4.60469e+09
5.42953e+09
7.1783e+09
7.08842e+09
7.16231e+09
6.6197e+09
1.03386e+10
8.85737e+09
4.51965e+09
)
;
    }
}


// ************************************************************************* //
