/*--------------------------------*- C++ -*----------------------------------*\
| =========                 |                                                 |
| \\      /  F ield         | OpenFOAM: The Open Source CFD Toolbox           |
|  \\    /   O peration     | Version:  4.x                                   |
|   \\  /    A nd           | Web:      www.OpenFOAM.org                      |
|    \\/     M anipulation  |                                                 |
\*---------------------------------------------------------------------------*/
FoamFile
{
    version     2.0;
    format      ascii;
    class       volScalarField;
    location    "5.5";
    object      Sm;
}
// * * * * * * * * * * * * * * * * * * * * * * * * * * * * * * * * * * * * * //

dimensions      [1 -3 -1 0 0 0 0];

internalField   nonuniform List<scalar> 
108
(
5.19208e-65
7.36122e-65
7.51541e-65
5.57784e-65
5.96465e-65
5.65467e-65
7.5913e-65
6.73951e-65
8.90934e-65
7.7492e-65
6.35363e-65
7.28221e-65
8.5208e-65
8.21e-65
7.51273e-65
6.35106e-65
5.42187e-65
9.06313e-65
6.97407e-65
8.75522e-65
6.42979e-65
8.52025e-65
6.97019e-65
5.96311e-65
6.1181e-65
9.68117e-65
5.65442e-65
4.33936e-65
5.73345e-65
7.59163e-65
5.1894e-65
7.35722e-65
6.04038e-65
9.52539e-65
5.96344e-65
5.964e-65
5.34707e-65
5.11417e-65
7.0507e-65
7.66988e-65
6.97231e-65
5.26782e-65
4.41573e-65
7.04982e-65
8.21252e-65
5.6569e-65
6.50873e-65
5.96556e-65
6.58457e-65
5.96448e-65
5.96431e-65
6.66151e-65
7.90112e-65
8.13425e-65
4.41709e-65
6.27607e-65
7.8246e-65
7.20403e-65
7.35815e-65
7.28035e-65
6.6608e-65
6.66114e-65
6.81672e-65
6.66424e-65
7.20578e-65
5.96499e-65
8.52072e-65
8.75204e-65
6.42829e-65
9.60354e-65
7.90019e-65
6.81657e-65
4.95977e-65
6.66406e-65
4.41661e-65
6.74059e-65
5.73328e-65
8.05721e-65
6.58549e-65
6.89543e-65
7.20586e-65
5.34715e-65
8.75615e-65
5.81087e-65
5.50057e-65
6.19749e-65
7.20442e-65
6.35244e-65
5.65531e-65
7.59243e-65
5.03714e-65
7.43858e-65
7.43766e-65
7.12703e-65
5.50003e-65
6.66142e-65
6.42935e-65
7.51397e-65
6.27511e-65
7.74937e-65
7.05125e-65
5.81086e-65
7.82401e-65
7.12641e-65
9.21739e-65
4.49263e-65
4.88016e-65
6.35229e-65
)
;

boundaryField
{
    inlet
    {
        type            calculated;
        value           uniform 0;
    }
    outlet
    {
        type            calculated;
        value           nonuniform 0();
    }
    wall
    {
        type            calculated;
        value           uniform 0;
    }
    procBoundary4to0
    {
        type            processor;
        value           nonuniform List<scalar> 
36
(
4.57222e-65
4.88142e-65
5.73325e-65
5.3451e-65
6.11941e-65
7.74587e-65
4.80258e-65
4.10564e-65
4.95806e-65
5.50193e-65
8.13559e-65
7.28225e-65
6.73895e-65
5.80876e-65
5.65355e-65
8.3646e-65
6.58368e-65
5.49969e-65
4.57182e-65
4.95839e-65
7.2818e-65
5.7314e-65
7.27975e-65
8.05357e-65
6.73728e-65
5.11149e-65
8.05555e-65
5.26932e-65
5.8883e-65
7.82391e-65
9.21682e-65
4.41428e-65
9.21518e-65
7.12442e-65
5.4209e-65
2.32354e-65
)
;
    }
    procBoundary4to5
    {
        type            processor;
        value           nonuniform List<scalar> 
12
(
6.27564e-65
7.12745e-65
8.21149e-65
9.9929e-65
6.66329e-65
5.34589e-65
8.05685e-65
3.56357e-65
2.63462e-65
6.0435e-65
6.27546e-65
7.20505e-65
)
;
    }
    procBoundary4to6
    {
        type            processor;
        value           nonuniform List<scalar> 
27
(
1.03836e-64
7.59305e-65
4.95798e-65
7.43575e-65
9.37108e-65
6.11803e-65
7.35715e-65
6.50579e-65
8.52043e-65
7.98162e-65
7.67067e-65
7.90221e-65
7.28134e-65
5.42185e-65
7.04805e-65
6.27361e-65
5.88646e-65
7.90106e-65
4.72711e-65
5.26911e-65
5.96578e-65
6.89469e-65
6.50707e-65
6.42912e-65
8.67553e-65
8.75318e-65
3.79599e-65
)
;
    }
}


// ************************************************************************* //
