/*--------------------------------*- C++ -*----------------------------------*\
| =========                 |                                                 |
| \\      /  F ield         | OpenFOAM: The Open Source CFD Toolbox           |
|  \\    /   O peration     | Version:  4.x                                   |
|   \\  /    A nd           | Web:      www.OpenFOAM.org                      |
|    \\/     M anipulation  |                                                 |
\*---------------------------------------------------------------------------*/
FoamFile
{
    version     2.0;
    format      ascii;
    class       volScalarField;
    location    "5.5";
    object      thCond;
}
// * * * * * * * * * * * * * * * * * * * * * * * * * * * * * * * * * * * * * //

dimensions      [1 1 -3 -1 0 0 0];

internalField   nonuniform List<scalar> 
108
(
191.84
191.394
191.075
191.041
190.923
190.857
190.641
190.52
190.167
191.421
191.217
190.904
190.618
190.548
190.553
190.526
190.45
190.084
191.343
190.955
190.781
190.45
190.423
190.443
190.339
190.1
190.238
191.387
191.058
190.692
190.558
190.31
190.291
189.984
190.254
190.252
191.78
191.478
191.05
190.755
190.708
190.755
190.699
190.272
190.008
191.542
191.182
190.947
190.684
190.609
190.529
190.392
190.131
189.963
191.462
190.999
190.622
190.397
190.293
190.238
190.187
190.096
190.059
191.08
190.831
190.643
190.213
190.052
190.102
189.868
190.019
190.096
191.781
191.351
191.313
190.876
190.737
190.38
190.41
190.245
190.186
191.533
190.956
190.994
190.823
190.623
190.36
190.354
190.273
190.073
191.371
190.86
190.629
190.451
190.447
190.235
190.242
190.117
190.14
190.98
190.832
190.69
190.256
190.131
189.923
190.258
190.29
190.202
)
;

boundaryField
{
    inlet
    {
        type            zeroGradient;
    }
    outlet
    {
        type            zeroGradient;
    }
    wall
    {
        type            zeroGradient;
    }
    procBoundary4to0
    {
        type            processor;
        value           nonuniform List<scalar> 
36
(
192.214
191.867
191.522
191.407
191.213
191.017
191.154
191.213
191.032
191.882
191.434
191.201
191.093
191.023
190.929
190.7
190.805
190.765
191.824
191.507
191.052
190.907
190.711
190.541
190.598
190.749
190.543
191.66
191.329
190.853
190.593
190.759
190.353
190.432
190.681
190.79
)
;
    }
    procBoundary4to5
    {
        type            processor;
        value           nonuniform List<scalar> 
12
(
190.353
190.13
189.97
189.817
190.231
190.166
189.938
190.15
190.706
190.276
190.101
190.036
)
;
    }
    procBoundary4to6
    {
        type            processor;
        value           nonuniform List<scalar> 
27
(
190.773
190.804
190.813
190.442
190.173
190.312
190.163
190.213
190.051
190.885
190.751
190.558
190.345
190.332
190.196
190.12
190.171
190.003
191.307
191.092
190.769
190.416
190.262
190.154
189.962
190.02
190.362
)
;
    }
}


// ************************************************************************* //
