/*--------------------------------*- C++ -*----------------------------------*\
| =========                 |                                                 |
| \\      /  F ield         | OpenFOAM: The Open Source CFD Toolbox           |
|  \\    /   O peration     | Version:  4.x                                   |
|   \\  /    A nd           | Web:      www.OpenFOAM.org                      |
|    \\/     M anipulation  |                                                 |
\*---------------------------------------------------------------------------*/
FoamFile
{
    version     2.0;
    format      ascii;
    class       volVectorField;
    location    "5.5";
    object      UsNext;
}
// * * * * * * * * * * * * * * * * * * * * * * * * * * * * * * * * * * * * * //

dimensions      [0 1 -1 0 0 0 0];

internalField   nonuniform List<vector> 
108
(
(9.05988e-08 1.46841e-08 2.25365e-08)
(1.57887e-07 3.23823e-08 3.63956e-08)
(1.22937e-07 -1.8333e-08 6.63881e-08)
(-1.39707e-07 -5.70759e-09 1.45722e-09)
(-3.04742e-07 2.94943e-08 7.09861e-08)
(-6.0193e-07 -6.8196e-09 1.01075e-07)
(-1.11204e-06 -7.63068e-08 -2.69698e-08)
(-1.49132e-06 -5.58386e-08 2.61972e-08)
(-1.23216e-06 1.48304e-07 -3.56804e-08)
(1.11432e-07 2.99591e-08 4.54196e-08)
(1.14337e-07 2.79512e-08 6.63891e-08)
(-5.84034e-09 1.02743e-07 8.06547e-08)
(-3.27915e-07 1.08407e-07 2.38623e-08)
(-7.67694e-07 -2.58215e-08 8.26027e-08)
(-1.2451e-06 -2.50043e-07 -1.97931e-07)
(-1.96274e-06 -2.6051e-07 -1.62921e-09)
(-2.25729e-06 7.38449e-08 -1.83757e-07)
(-3.03086e-06 9.22997e-08 -1.70143e-07)
(1.20848e-07 6.2932e-08 4.3226e-08)
(7.67933e-08 9.68922e-08 1.1127e-07)
(-1.50717e-07 1.5386e-07 1.03189e-07)
(-5.28948e-07 2.30373e-07 2.02476e-07)
(-1.034e-06 1.52669e-08 5.24908e-08)
(-1.84844e-06 -2.5573e-07 -1.37447e-07)
(-2.47691e-06 -1.24451e-07 -1.50339e-07)
(-2.93625e-06 -7.77863e-08 -2.4198e-07)
(-3.36383e-06 -1.34881e-07 -4.09221e-07)
(9.82618e-08 6.85243e-08 6.33464e-08)
(1.07672e-07 1.09924e-07 1.00213e-07)
(-1.16281e-07 2.03811e-07 1.15701e-07)
(-4.34206e-07 2.01938e-07 1.40357e-07)
(-1.28288e-06 1.28609e-08 2.12828e-08)
(-2.4578e-06 -2.08642e-07 -9.87215e-08)
(-3.001e-06 -1.17288e-07 -2.73247e-07)
(-3.47019e-06 -2.58029e-07 -1.70599e-07)
(-3.67737e-06 -8.45781e-08 -3.36441e-07)
(1.02269e-07 4.69502e-09 2.54632e-08)
(1.58011e-07 -8.71015e-10 3.27322e-08)
(1.05714e-07 3.79828e-09 3.53267e-08)
(-4.44218e-08 -2.18005e-08 3.92293e-08)
(-2.81219e-07 -1.26617e-08 7.05798e-08)
(-4.26107e-07 -5.40274e-08 1.37923e-07)
(-7.0682e-07 -3.43422e-08 3.8382e-08)
(-1.064e-06 -1.7661e-07 -5.49545e-08)
(-1.03244e-06 -1.31231e-08 -9.62575e-08)
(1.37622e-07 2.36111e-08 2.74008e-08)
(1.48116e-07 2.96571e-08 4.95685e-08)
(5.66887e-08 4.4075e-08 7.2129e-08)
(-2.36087e-07 4.74134e-08 8.98433e-08)
(-5.93588e-07 -4.26387e-08 6.52001e-08)
(-8.67108e-07 -1.52152e-07 9.66361e-08)
(-1.47551e-06 -2.74939e-07 2.00341e-08)
(-1.66642e-06 -3.19831e-07 -1.60243e-07)
(-1.90145e-06 1.31398e-08 -1.55873e-07)
(1.13924e-07 4.55569e-08 3.19319e-08)
(1.40522e-07 5.33536e-08 8.49684e-08)
(5.39449e-08 1.19863e-07 1.02797e-07)
(-2.49041e-07 1.29625e-07 7.87621e-08)
(-6.21117e-07 3.75115e-08 9.76059e-08)
(-1.36062e-06 -1.02841e-07 3.19781e-08)
(-1.95941e-06 -1.69561e-07 -2.5203e-08)
(-2.3328e-06 -2.58712e-07 -5.99783e-08)
(-2.57467e-06 -3.02365e-07 -3.33234e-07)
(1.43517e-07 7.53373e-08 5.92854e-08)
(1.1697e-07 9.66668e-08 6.33045e-08)
(-8.96657e-08 1.72184e-07 1.21304e-07)
(-3.09382e-07 1.33672e-07 1.36544e-07)
(-6.31992e-07 1.00933e-07 1.7693e-07)
(-1.9978e-06 -2.51071e-07 1.01135e-07)
(-2.34023e-06 -3.86355e-07 -3.4438e-08)
(-2.75733e-06 -2.0654e-07 -2.58864e-07)
(-3.01031e-06 -2.229e-07 -3.92317e-07)
(1.0342e-07 1.31151e-09 8.59765e-09)
(1.61343e-07 -6.03264e-10 1.91371e-08)
(1.54552e-07 -2.79137e-08 2.20962e-08)
(-2.31506e-08 -2.61864e-08 2.38531e-08)
(-1.45127e-07 -4.40788e-08 4.30384e-08)
(-2.8121e-07 -4.69295e-08 8.18407e-08)
(-4.45885e-07 -3.23742e-08 7.74718e-08)
(-5.97266e-07 -4.43566e-08 2.54457e-08)
(-5.69084e-07 2.27607e-08 2.07171e-08)
(1.50192e-07 1.96188e-08 -3.50185e-08)
(1.4327e-07 1.62248e-08 2.29677e-08)
(6.13828e-08 1.45139e-08 6.09083e-08)
(-8.21374e-08 -2.23733e-08 6.09272e-08)
(-2.95243e-07 -2.54418e-08 5.15261e-08)
(-6.04892e-07 5.01703e-08 3.92764e-08)
(-7.62477e-07 -1.34291e-07 4.4087e-08)
(-1.04091e-06 3.5689e-09 -4.79933e-08)
(-1.10737e-06 -5.35381e-08 -2.01611e-08)
(1.32013e-07 4.69996e-08 3.60046e-09)
(1.36757e-07 3.94781e-08 2.13337e-08)
(7.4435e-08 2.67527e-08 5.62779e-08)
(-1.16036e-07 -1.00834e-08 6.64685e-08)
(-3.97975e-07 -2.19481e-08 5.43796e-08)
(-8.81475e-07 4.8157e-08 8.91612e-08)
(-1.14808e-06 -1.30112e-07 1.17662e-07)
(-1.38618e-06 -1.89047e-07 -5.98992e-08)
(-1.39009e-06 -3.05435e-07 -1.39335e-07)
(1.16489e-07 8.06847e-08 2.49555e-08)
(1.22297e-07 9.17915e-08 2.73823e-08)
(-2.36308e-08 2.65139e-08 9.1693e-08)
(-1.91629e-07 5.23462e-08 8.72703e-08)
(-4.2535e-07 1.32035e-07 1.89829e-07)
(-8.70678e-07 6.64181e-08 1.83032e-07)
(-1.1329e-06 -1.60557e-07 1.04261e-08)
(-5.67882e-06 2.06077e-06 -6.36482e-08)
(-2.20081e-06 -2.49869e-07 -8.19993e-08)
)
;

boundaryField
{
    inlet
    {
        type            calculated;
        value           nonuniform List<vector> 
12
(
(9.05988e-08 1.46841e-08 2.25365e-08)
(1.11432e-07 2.99591e-08 4.54196e-08)
(1.20848e-07 6.2932e-08 4.3226e-08)
(9.82618e-08 6.85243e-08 6.33464e-08)
(1.02269e-07 4.69502e-09 2.54632e-08)
(1.37622e-07 2.36111e-08 2.74008e-08)
(1.13924e-07 4.55569e-08 3.19319e-08)
(1.43517e-07 7.53373e-08 5.92854e-08)
(1.0342e-07 1.31151e-09 8.59765e-09)
(1.50192e-07 1.96188e-08 -3.50185e-08)
(1.32013e-07 4.69996e-08 3.60046e-09)
(1.16489e-07 8.06847e-08 2.49555e-08)
)
;
    }
    outlet
    {
        type            calculated;
        value           nonuniform 0();
    }
    wall
    {
        type            calculated;
        value           nonuniform List<vector> 
63
(
(1.0342e-07 1.31151e-09 8.59765e-09)
(1.50192e-07 1.96188e-08 -3.50185e-08)
(1.32013e-07 4.69996e-08 3.60046e-09)
(1.16489e-07 8.06847e-08 2.49555e-08)
(1.61343e-07 -6.03264e-10 1.91371e-08)
(1.4327e-07 1.62248e-08 2.29677e-08)
(1.36757e-07 3.94781e-08 2.13337e-08)
(1.22297e-07 9.17915e-08 2.73823e-08)
(1.54552e-07 -2.79137e-08 2.20962e-08)
(6.13828e-08 1.45139e-08 6.09083e-08)
(7.4435e-08 2.67527e-08 5.62779e-08)
(-2.36308e-08 2.65139e-08 9.1693e-08)
(-2.31506e-08 -2.61864e-08 2.38531e-08)
(-8.21374e-08 -2.23733e-08 6.09272e-08)
(-1.16036e-07 -1.00834e-08 6.64685e-08)
(-1.91629e-07 5.23462e-08 8.72703e-08)
(-1.45127e-07 -4.40788e-08 4.30384e-08)
(-2.95243e-07 -2.54418e-08 5.15261e-08)
(-3.97975e-07 -2.19481e-08 5.43796e-08)
(-4.2535e-07 1.32035e-07 1.89829e-07)
(-2.8121e-07 -4.69295e-08 8.18407e-08)
(-6.04892e-07 5.01703e-08 3.92764e-08)
(-8.81475e-07 4.8157e-08 8.91612e-08)
(-8.70678e-07 6.64181e-08 1.83032e-07)
(-4.45885e-07 -3.23742e-08 7.74718e-08)
(-7.62477e-07 -1.34291e-07 4.4087e-08)
(-1.14808e-06 -1.30112e-07 1.17662e-07)
(-1.1329e-06 -1.60557e-07 1.04261e-08)
(-5.97266e-07 -4.43566e-08 2.54457e-08)
(-1.04091e-06 3.5689e-09 -4.79933e-08)
(-1.38618e-06 -1.89047e-07 -5.98992e-08)
(-5.67882e-06 2.06077e-06 -6.36482e-08)
(-5.69084e-07 2.27607e-08 2.07171e-08)
(-1.10737e-06 -5.35381e-08 -2.01611e-08)
(-1.39009e-06 -3.05435e-07 -1.39335e-07)
(-2.20081e-06 -2.49869e-07 -8.19993e-08)
(9.05988e-08 1.46841e-08 2.25365e-08)
(1.02269e-07 4.69502e-09 2.54632e-08)
(1.0342e-07 1.31151e-09 8.59765e-09)
(1.57887e-07 3.23823e-08 3.63956e-08)
(1.58011e-07 -8.71015e-10 3.27322e-08)
(1.61343e-07 -6.03264e-10 1.91371e-08)
(1.22937e-07 -1.8333e-08 6.63881e-08)
(1.05714e-07 3.79828e-09 3.53267e-08)
(1.54552e-07 -2.79137e-08 2.20962e-08)
(-1.39707e-07 -5.70759e-09 1.45722e-09)
(-4.44218e-08 -2.18005e-08 3.92293e-08)
(-2.31506e-08 -2.61864e-08 2.38531e-08)
(-3.04742e-07 2.94943e-08 7.09861e-08)
(-2.81219e-07 -1.26617e-08 7.05798e-08)
(-1.45127e-07 -4.40788e-08 4.30384e-08)
(-6.0193e-07 -6.8196e-09 1.01075e-07)
(-4.26107e-07 -5.40274e-08 1.37923e-07)
(-2.8121e-07 -4.69295e-08 8.18407e-08)
(-1.11204e-06 -7.63068e-08 -2.69698e-08)
(-7.0682e-07 -3.43422e-08 3.8382e-08)
(-4.45885e-07 -3.23742e-08 7.74718e-08)
(-1.49132e-06 -5.58386e-08 2.61972e-08)
(-1.064e-06 -1.7661e-07 -5.49545e-08)
(-5.97266e-07 -4.43566e-08 2.54457e-08)
(-1.23216e-06 1.48304e-07 -3.56804e-08)
(-1.03244e-06 -1.31231e-08 -9.62575e-08)
(-5.69084e-07 2.27607e-08 2.07171e-08)
)
;
    }
    procBoundary4to0
    {
        type            processor;
        value           nonuniform List<vector> 
36
(
(1.14528e-07 2.97326e-08 3.97722e-08)
(1.68137e-07 7.18031e-08 6.71276e-08)
(5.86804e-08 -1.01227e-08 3.41494e-08)
(-3.86428e-07 -4.04953e-08 -6.40372e-08)
(-6.25617e-07 -3.29071e-08 -2.72886e-08)
(-1.19987e-06 -1.94742e-07 -3.69433e-08)
(-1.40888e-06 -1.23174e-07 -5.61727e-08)
(-2.123e-06 1.17531e-07 -1.0605e-07)
(-2.34268e-06 3.53408e-08 -2.31378e-07)
(1.26912e-07 3.43923e-08 4.50769e-08)
(1.24464e-07 7.92985e-08 9.23753e-08)
(-4.53209e-08 5.61112e-08 6.20249e-08)
(-8.89387e-07 -5.11714e-08 5.03347e-09)
(-1.39423e-06 -8.52879e-08 8.57425e-10)
(-1.78621e-06 -1.31877e-07 -1.83814e-07)
(-2.43085e-06 -4.32391e-08 -1.60723e-07)
(-2.95126e-06 1.71582e-07 -2.85178e-07)
(-3.33157e-06 4.50965e-08 -4.30571e-07)
(1.50885e-07 1.10503e-07 6.45079e-08)
(9.0309e-08 1.46816e-07 9.49319e-08)
(-2.03664e-07 1.63543e-07 4.03855e-08)
(-7.72228e-07 1.44053e-07 1.13825e-07)
(-1.55053e-06 -1.60764e-07 1.82856e-08)
(-2.35655e-06 -6.35622e-08 -3.12547e-07)
(-3.02959e-06 -5.60517e-08 -3.11061e-07)
(-3.55501e-06 8.0892e-08 -4.55801e-07)
(-3.78934e-06 -1.75971e-08 -5.23068e-07)
(1.56569e-07 1.15856e-07 6.80471e-08)
(-1.13195e-10 2.27204e-07 8.93467e-08)
(-2.2218e-07 2.05567e-07 1.01257e-07)
(-8.42735e-07 1.34278e-07 -2.52315e-08)
(-1.6761e-06 -6.69758e-08 -9.88574e-08)
(-2.61117e-06 -9.16738e-09 -2.35418e-07)
(-3.29985e-06 9.79129e-10 -3.68638e-07)
(-3.55048e-06 3.39225e-08 -3.84958e-07)
(-4.04326e-06 -3.75948e-09 -5.43923e-07)
)
;
    }
    procBoundary4to5
    {
        type            processor;
        value           nonuniform List<vector> 
12
(
(-1.37435e-06 7.94264e-09 1.28347e-07)
(-2.81057e-06 -2.14113e-07 -2.19065e-07)
(-3.50788e-06 -2.57561e-07 -5.22627e-07)
(-3.77482e-06 -2.52213e-07 -3.31852e-07)
(-1.23494e-06 9.25984e-08 7.53149e-08)
(-2.02543e-06 1.98252e-07 -5.24762e-08)
(-3.03696e-06 -4.09501e-07 -2.90188e-07)
(-3.35447e-06 -3.97891e-07 -4.31373e-07)
(-5.56683e-07 -8.12194e-08 7.41811e-08)
(-1.14702e-06 -1.34724e-08 1.32837e-07)
(-1.26533e-06 -3.73464e-07 3.47188e-08)
(-2.10213e-06 -4.8372e-07 -2.42893e-08)
)
;
    }
    procBoundary4to6
    {
        type            processor;
        value           nonuniform List<vector> 
27
(
(7.49798e-08 7.21463e-08 1.07389e-07)
(4.30672e-08 1.49073e-07 1.08406e-07)
(-1.65579e-07 1.35114e-07 1.24438e-07)
(-4.88313e-07 1.12979e-07 1.17176e-07)
(-1.35049e-06 1.46585e-07 3.0859e-08)
(-2.44054e-06 -1.50387e-07 1.17903e-07)
(-2.80858e-06 -2.50328e-07 -1.19007e-08)
(-3.15325e-06 -2.62123e-07 -7.5956e-08)
(-3.51358e-06 -1.64587e-07 -1.13893e-07)
(1.30139e-07 2.57217e-07 5.33915e-08)
(1.28108e-07 1.38409e-07 8.38359e-08)
(-5.71238e-08 1.45272e-07 1.12099e-07)
(-3.28563e-07 1.5649e-07 1.21766e-07)
(-7.71113e-07 1.53718e-07 1.2694e-07)
(-1.84685e-06 1.19004e-07 1.44898e-07)
(-2.34606e-06 -1.63001e-07 -5.35874e-08)
(-2.72499e-06 -2.82037e-07 -8.81959e-09)
(-2.90944e-06 -3.22574e-07 -1.13909e-07)
(7.05361e-08 3.0698e-07 -2.35468e-08)
(1.36708e-07 1.06577e-07 3.86203e-08)
(3.70222e-08 7.2967e-08 9.45698e-08)
(-2.39379e-07 5.43834e-08 1.05246e-07)
(-5.88139e-07 8.58124e-08 1.3436e-07)
(-1.05424e-06 7.30879e-08 1.53396e-07)
(-1.48386e-06 2.76008e-08 -2.69367e-08)
(-1.8774e-06 -1.68593e-07 4.00179e-09)
(-2.18284e-06 -5.52203e-07 -3.10001e-07)
)
;
    }
}


// ************************************************************************* //
