/*--------------------------------*- C++ -*----------------------------------*\
| =========                 |                                                 |
| \\      /  F ield         | OpenFOAM: The Open Source CFD Toolbox           |
|  \\    /   O peration     | Version:  4.x                                   |
|   \\  /    A nd           | Web:      www.OpenFOAM.org                      |
|    \\/     M anipulation  |                                                 |
\*---------------------------------------------------------------------------*/
FoamFile
{
    version     2.0;
    format      ascii;
    class       volScalarField;
    location    "23.5";
    object      rho;
}
// * * * * * * * * * * * * * * * * * * * * * * * * * * * * * * * * * * * * * //

dimensions      [1 -3 0 0 0 0 0];

internalField   nonuniform List<scalar> 
108
(
6699.94
6699.9
6699.84
6699.75
6699.6
6699.41
6699.06
6698.71
6722.12
6699.97
6699.97
6699.93
6699.86
6699.72
6699.48
6699.12
6698.61
6767.77
6699.52
6699.35
6699.18
6699.02
6698.87
6698.73
6698.52
6698.25
6699.27
6699.88
6699.87
6699.87
6699.87
6699.84
6699.8
6699.63
6699.52
6871.16
6699.64
6699.33
6698.88
6698.36
6697.79
6697.53
6697.25
6697.39
6697.03
6699.78
6699.55
6699.18
6698.74
6698.21
6697.86
6697.46
6697.32
6693.6
6699.89
6699.75
6699.46
6699.03
6698.46
6698.01
6697.45
6697.4
6694.61
6699.95
6699.93
6699.89
6699.83
6699.67
6699.52
6699.13
6698.98
6688.42
6699.35
6698.94
6698.51
6698.14
6697.9
6697.79
6697.98
6698.1
6699.29
6699.64
6699.32
6698.92
6698.47
6698.12
6697.84
6697.85
6697.68
6697.86
6699.72
6699.43
6699.03
6698.57
6698.15
6697.82
6697.69
6697.6
6696.8
6699.95
6699.9
6699.83
6699.7
6699.51
6699.25
6698.94
6698.65
6693.19
)
;

boundaryField
{
    inlet
    {
        type            calculated;
        value           nonuniform 0();
    }
    outlet
    {
        type            calculated;
        value           uniform 6700;
    }
    wall
    {
        type            calculated;
        value           nonuniform List<scalar> 
63
(
6699.94
6699.97
6699.52
6699.88
6699.9
6699.97
6699.35
6699.87
6699.84
6699.93
6699.18
6699.87
6699.75
6699.86
6699.02
6699.87
6699.6
6699.72
6698.87
6699.84
6699.41
6699.48
6698.73
6699.8
6699.06
6699.12
6698.52
6699.63
6698.71
6698.61
6698.25
6699.52
6722.12
6767.77
6699.27
6871.16
6699.88
6699.95
6699.95
6699.87
6699.93
6699.9
6699.87
6699.89
6699.83
6699.87
6699.83
6699.7
6699.84
6699.67
6699.51
6699.8
6699.52
6699.25
6699.63
6699.13
6698.94
6699.52
6698.98
6698.65
6871.16
6688.42
6693.19
)
;
    }
    procBoundary3to1
    {
        type            processor;
        value           nonuniform List<scalar> 
27
(
6699.93
6699.89
6699.82
6699.71
6699.52
6699.22
6698.74
6698.19
6696.56
6699.64
6699.35
6698.92
6698.48
6697.98
6697.79
6697.66
6697.77
6697.9
6699.44
6699.14
6698.88
6698.61
6698.49
6698.41
6698.73
6698.69
6700.1
)
;
    }
    procBoundary3to2
    {
        type            processor;
        value           nonuniform List<scalar> 
12
(
6699.96
6699.97
6699.67
6699.89
6699.83
6699.9
6699.94
6699.95
6699.67
6699.83
6699.89
6699.97
)
;
    }
    procBoundary3to7
    {
        type            processor;
        value           nonuniform List<scalar> 
36
(
6699.66
6699.42
6699.16
6698.86
6698.71
6698.61
6698.82
6699.03
6704.1
6699.76
6699.6
6699.38
6699.12
6698.94
6698.72
6698.82
6698.73
6700.41
6699.83
6699.7
6699.52
6699.27
6699.07
6698.8
6698.77
6698.62
6699.23
6699.96
6699.93
6699.88
6699.81
6699.69
6699.57
6699.36
6699.15
6690.55
)
;
    }
}


// ************************************************************************* //
