/*--------------------------------*- C++ -*----------------------------------*\
| =========                 |                                                 |
| \\      /  F ield         | OpenFOAM: The Open Source CFD Toolbox           |
|  \\    /   O peration     | Version:  4.x                                   |
|   \\  /    A nd           | Web:      www.OpenFOAM.org                      |
|    \\/     M anipulation  |                                                 |
\*---------------------------------------------------------------------------*/
FoamFile
{
    version     2.0;
    format      ascii;
    class       volVectorField;
    location    "14";
    object      impParticleForces;
}
// * * * * * * * * * * * * * * * * * * * * * * * * * * * * * * * * * * * * * //

dimensions      [1 1 -2 0 0 0 0];

internalField   nonuniform List<vector> 
114
(
(0.0024058 -4.88884e-06 -9.28484e-05)
(0.0024425 -5.0066e-06 -8.54033e-05)
(0.00244473 -5.15526e-06 -7.4719e-05)
(0.0024752 -4.68856e-06 -6.31576e-05)
(0.00244763 -3.15637e-06 -4.67486e-05)
(0.00245057 -8.6235e-07 -3.05733e-05)
(0.0022981 3.12036e-06 -9.80301e-05)
(0.00233278 3.74668e-06 -9.94651e-05)
(0.00237896 4.26545e-06 -9.79591e-05)
(0.00240498 4.20087e-06 -9.25795e-05)
(0.00244971 3.96891e-06 -8.56341e-05)
(0.0024477 3.14653e-06 -7.45767e-05)
(0.00247937 3.22632e-06 -6.2691e-05)
(0.0024655 3.89658e-06 -4.68495e-05)
(0.0024585 5.51701e-06 -3.09157e-05)
(0.00227258 9.69411e-06 -9.57007e-05)
(0.00231277 1.04645e-05 -9.74195e-05)
(0.00235799 1.08721e-05 -9.61243e-05)
(0.00238468 1.05145e-05 -9.07685e-05)
(0.00242523 1.01627e-05 -8.3681e-05)
(0.00242953 9.20731e-06 -7.34029e-05)
(0.0024361 9.08352e-06 -6.07389e-05)
(0.00245899 9.15779e-06 -4.64408e-05)
(0.00247049 1.08619e-05 -3.20093e-05)
(0.00223508 1.20374e-05 -9.26913e-05)
(0.00226216 1.25779e-05 -9.33582e-05)
(0.00231661 1.3112e-05 -9.24318e-05)
(0.0023348 1.25851e-05 -8.70829e-05)
(0.00236695 1.213e-05 -8.01138e-05)
(0.00237545 1.14372e-05 -7.02891e-05)
(0.0023844 1.14876e-05 -5.84186e-05)
(0.00240623 1.17238e-05 -4.5164e-05)
(0.00241964 1.27502e-05 -3.19857e-05)
(0.00250914 -5.52813e-06 -7.6e-05)
(0.00253448 -5.39629e-06 -6.41849e-05)
(0.0024796 -3.81791e-06 -4.53457e-05)
(0.00249006 -1.78146e-06 -2.90752e-05)
(0.00232554 3.68953e-06 -9.85166e-05)
(0.00238074 4.47778e-06 -0.000101613)
(0.00244677 5.26474e-06 -0.000102221)
(0.00246542 5.20903e-06 -9.55821e-05)
(0.00250168 5.04243e-06 -8.76684e-05)
(0.00248999 3.99188e-06 -7.49003e-05)
(0.00252859 4.34567e-06 -6.28579e-05)
(0.0024908 4.80569e-06 -4.54968e-05)
(0.00247953 5.68374e-06 -2.96493e-05)
(0.00230956 1.10019e-05 -9.70266e-05)
(0.00237109 1.24077e-05 -0.000100551)
(0.00244162 1.35776e-05 -0.000101406)
(0.00245243 1.26676e-05 -9.43429e-05)
(0.00247992 1.20844e-05 -8.61456e-05)
(0.00248005 1.09937e-05 -7.46833e-05)
(0.00250137 1.14719e-05 -6.21565e-05)
(0.00248734 1.13649e-05 -4.62166e-05)
(0.00249176 1.21315e-05 -3.15494e-05)
(0.00226128 1.32391e-05 -9.2985e-05)
(0.00230515 1.42704e-05 -9.48998e-05)
(0.00237666 1.54493e-05 -9.57777e-05)
(0.00237942 1.44635e-05 -8.89104e-05)
(0.0024026 1.38246e-05 -8.11267e-05)
(0.00241611 1.31467e-05 -7.12652e-05)
(0.00243117 1.35816e-05 -5.91052e-05)
(0.00242977 1.36714e-05 -4.49803e-05)
(0.00242719 1.38174e-05 -3.15652e-05)
(0.00244134 -5.60523e-06 -3.73944e-05)
(0.00243894 -4.23137e-06 -2.373e-05)
(0.00234973 4.25627e-06 -9.34093e-05)
(0.00238743 4.82637e-06 -9.49303e-05)
(0.0024442 5.46566e-06 -9.4623e-05)
(0.0024554 5.16783e-06 -8.79963e-05)
(0.00247755 4.85571e-06 -7.9065e-05)
(0.0024695 4.23849e-06 -6.67288e-05)
(0.00249165 4.88759e-06 -5.3558e-05)
(0.00245181 4.5359e-06 -3.79023e-05)
(0.0024432 4.76283e-06 -2.39589e-05)
(0.00231881 1.17626e-05 -9.10155e-05)
(0.00237057 1.30967e-05 -9.36143e-05)
(0.0024425 1.46558e-05 -9.45466e-05)
(0.002456 1.37594e-05 -8.85371e-05)
(0.00247141 1.29928e-05 -7.92808e-05)
(0.00245447 1.14645e-05 -6.69196e-05)
(0.00248529 1.24808e-05 -5.4496e-05)
(0.0024571 1.19973e-05 -3.94996e-05)
(0.00246842 1.2444e-05 -2.61565e-05)
(0.00227785 1.42484e-05 -8.80583e-05)
(0.00232275 1.55929e-05 -9.00437e-05)
(0.00237923 1.65821e-05 -8.97471e-05)
(0.00239318 1.58595e-05 -8.43419e-05)
(0.00239367 1.47235e-05 -7.50373e-05)
(0.0024089 1.42664e-05 -6.52236e-05)
(0.00243787 1.5428e-05 -5.37859e-05)
(0.00241224 1.46345e-05 -4.00809e-05)
(0.00242633 1.48167e-05 -2.81278e-05)
(0.00235173 4.32597e-06 -8.2131e-05)
(0.00240705 5.02087e-06 -8.39699e-05)
(0.00245739 5.58666e-06 -8.31579e-05)
(0.00244535 4.74887e-06 -7.62025e-05)
(0.00246082 4.21531e-06 -6.79193e-05)
(0.00243729 3.61904e-06 -5.59751e-05)
(0.0024496 4.1017e-06 -4.30497e-05)
(0.00241408 4.44733e-06 -2.95811e-05)
(0.00232406 1.22171e-05 -8.04668e-05)
(0.00237632 1.36268e-05 -8.24663e-05)
(0.00244108 1.49206e-05 -8.23714e-05)
(0.00242906 1.32703e-05 -7.57856e-05)
(0.00245585 1.27995e-05 -6.81011e-05)
(0.00243279 1.13997e-05 -5.68422e-05)
(0.00245307 1.21882e-05 -4.49971e-05)
(0.002271 1.45561e-05 -7.77539e-05)
(0.00231609 1.58763e-05 -7.93644e-05)
(0.00237782 1.71189e-05 -7.93369e-05)
(0.00238181 1.60027e-05 -7.39816e-05)
(0.00240461 1.55251e-05 -6.6563e-05)
(0.00239189 1.43643e-05 -5.62872e-05)
)
;

boundaryField
{
    inlet
    {
        type            zeroGradient;
    }
    outlet
    {
        type            zeroGradient;
    }
    wall
    {
        type            zeroGradient;
    }
    procBoundary2to0
    {
        type            processor;
        value           nonuniform List<vector> 
44
(
(0.00239455 -1.39252e-05 -9.17775e-05)
(0.00244507 -1.4221e-05 -8.53312e-05)
(0.0024464 -1.3804e-05 -7.467e-05)
(0.00246075 -1.33923e-05 -6.27806e-05)
(0.00245888 -1.11816e-05 -4.76544e-05)
(0.00248517 -7.98633e-06 -3.19877e-05)
(0.00228879 -5.60791e-06 -9.80902e-05)
(0.00231727 -5.42092e-06 -9.87787e-05)
(0.00235805 -5.1477e-06 -9.70158e-05)
(0.00235805 -5.1477e-06 -9.70158e-05)
(0.00245082 -5.30336e-06 -9.42137e-05)
(0.00251519 -5.02847e-06 -8.8285e-05)
(0.00249552 -1.56205e-05 -7.48708e-05)
(0.00252382 -1.63302e-05 -6.35036e-05)
(0.00247905 -1.38654e-05 -4.62144e-05)
(0.00248054 -1.04081e-05 -2.9137e-05)
(0.00234565 -5.90564e-06 -0.00010069)
(0.00237872 -5.81107e-06 -0.000101773)
(0.00243431 -5.68601e-06 -0.000101519)
(0.00245082 -5.30336e-06 -9.42137e-05)
(0.00251519 -5.02847e-06 -8.8285e-05)
(0.00251519 -5.02847e-06 -8.8285e-05)
(0.00248428 -5.79039e-06 -6.63025e-05)
(0.00249297 -5.2581e-06 -5.22419e-05)
(0.00244178 -1.64782e-05 -3.81073e-05)
(0.00243859 -1.33969e-05 -2.48565e-05)
(0.00236062 -6.22467e-06 -9.43219e-05)
(0.00240265 -6.3446e-06 -9.62595e-05)
(0.00246176 -6.34167e-06 -9.56953e-05)
(0.00246896 -5.99108e-06 -8.82237e-05)
(0.00250095 -5.71698e-06 -7.93984e-05)
(0.00248428 -5.79039e-06 -6.63025e-05)
(0.00249297 -5.2581e-06 -5.22419e-05)
(0.00249297 -5.2581e-06 -5.22419e-05)
(0.00240756 -5.35631e-06 -2.93366e-05)
(0.00239518 -4.91684e-06 -1.94271e-05)
(0.00234691 -6.70638e-06 -8.15801e-05)
(0.00239841 -6.9148e-06 -8.32034e-05)
(0.00246379 -7.12368e-06 -8.25222e-05)
(0.00246359 -6.92655e-06 -7.58507e-05)
(0.00246395 -6.74102e-06 -6.59644e-05)
(0.00245906 -6.82392e-06 -5.45068e-05)
(0.00246157 -6.32799e-06 -4.08641e-05)
(0.00240756 -5.35631e-06 -2.93366e-05)
)
;
    }
    procBoundary2to3
    {
        type            processor;
        value           nonuniform List<vector> 
12
(
(0.00248289 2.19485e-06 -1.47686e-05)
(0.00248756 7.35382e-06 -1.5303e-05)
(0.00248118 1.23876e-05 -1.73445e-05)
(0.00241149 1.3869e-05 -1.89099e-05)
(0.00247746 8.43979e-07 -1.3328e-05)
(0.00248831 6.86027e-06 -1.44503e-05)
(0.00252026 1.25669e-05 -1.74223e-05)
(0.00245051 1.41963e-05 -1.94048e-05)
(0.00243481 -1.24575e-06 -1.246e-05)
(0.00244428 5.23949e-06 -1.32378e-05)
(0.0024559 1.00223e-05 -1.59149e-05)
(0.00241668 1.2631e-05 -1.82272e-05)
)
;
    }
    procBoundary2to6
    {
        type            processor;
        value           nonuniform List<vector> 
32
(
(0.00242363 4.53885e-06 -1.79449e-05)
(0.00241823 1.10661e-05 -3.21734e-05)
(0.00243573 1.03197e-05 -2.09099e-05)
(0.00239529 1.45173e-05 -4.4801e-05)
(0.0023833 1.37102e-05 -3.35703e-05)
(0.00238989 1.24406e-05 -2.40932e-05)
(0.00236986 4.51377e-06 -6.81807e-05)
(0.00240103 4.49451e-06 -6.77668e-05)
(0.00242276 4.53094e-06 -6.52229e-05)
(0.00242517 3.68894e-06 -5.99765e-05)
(0.00244618 3.15226e-06 -5.32283e-05)
(0.00241069 2.48673e-06 -4.3085e-05)
(0.00242016 3.06013e-06 -3.29029e-05)
(0.00242363 4.53885e-06 -1.79449e-05)
(0.00241823 1.10661e-05 -3.21734e-05)
(0.00238421 3.60026e-06 -2.40028e-05)
(0.00233415 1.30443e-05 -6.72192e-05)
(0.00237617 1.39585e-05 -6.75046e-05)
(0.00241166 1.431e-05 -6.55396e-05)
(0.00241888 1.3194e-05 -6.09057e-05)
(0.00243902 1.2833e-05 -5.45548e-05)
(0.00241764 1.14193e-05 -4.55012e-05)
(0.00241823 1.10661e-05 -3.21734e-05)
(0.00239529 1.45173e-05 -4.4801e-05)
(0.00242674 1.17009e-05 -3.53033e-05)
(0.00227773 1.49101e-05 -6.58641e-05)
(0.00231587 1.59693e-05 -6.63715e-05)
(0.0023432 1.58656e-05 -6.44921e-05)
(0.00235851 1.50571e-05 -6.05802e-05)
(0.00239526 1.48689e-05 -5.4674e-05)
(0.00239529 1.45173e-05 -4.4801e-05)
(0.0023931 1.43232e-05 -4.67911e-05)
)
;
    }
}


// ************************************************************************* //
