/*--------------------------------*- C++ -*----------------------------------*\
| =========                 |                                                 |
| \\      /  F ield         | OpenFOAM: The Open Source CFD Toolbox           |
|  \\    /   O peration     | Version:  4.x                                   |
|   \\  /    A nd           | Web:      www.OpenFOAM.org                      |
|    \\/     M anipulation  |                                                 |
\*---------------------------------------------------------------------------*/
FoamFile
{
    version     2.0;
    format      ascii;
    class       volScalarField;
    location    "14";
    object      p_rgh;
}
// * * * * * * * * * * * * * * * * * * * * * * * * * * * * * * * * * * * * * //

dimensions      [1 -1 -2 0 0 0 0];

internalField   nonuniform List<scalar> 
114
(
68.0205
81.7414
56.3835
65.2874
24.3363
74.9183
109.1
92.4337
99.1045
73.0357
90.4807
62.8367
79.4184
48.9182
76.2549
105.387
89.8343
97.3251
72.053
88.5858
57.6106
73.823
40.7423
65.2856
106.636
90.1219
98.2264
72.4617
88.6293
57.9013
76.5302
43.1394
66.0939
59.4233
59.0178
13.8013
93.3517
109.255
92.3399
99.6253
72.5059
91.283
63.1816
76.2047
44.6441
85.7839
106.973
90.5841
98.5291
71.8256
90.8094
55.9317
72.5774
35.9088
70.6629
107.182
90.2599
98.5822
72.5282
89.6168
56.191
76.2856
41.5637
68.0136
34.4797
103.941
108.774
92.4006
99.7134
72.7913
93.1468
65.9927
77.1393
54.7117
84.9215
108.851
91.6269
100.379
72.4816
92.2215
56.7878
72.3577
34.6596
70.1445
107.87
90.8276
99.0201
72.9222
90.1346
56.6281
77.1056
40.8804
72.8725
108.683
92.2897
99.7854
73.0916
92.8815
62.396
76.0655
48.7564
109.483
91.6914
100.638
73.1667
91.7441
56.807
74.6042
108.127
91.1181
99.0724
73.4354
90.1017
56.2758
)
;

boundaryField
{
    inlet
    {
        type            fixedFluxPressure;
        gradient        nonuniform List<scalar> 
12
(
-0.822158
-1.64153
-2.05556
-0.400855
-0.634061
-0.76976
-0.158425
-0.183185
-0.179195
0.00588766
0.00697011
0.0105229
)
;
        value           nonuniform List<scalar> 
12
(
109.089
105.365
106.608
109.25
106.964
107.171
108.772
108.848
107.868
108.683
109.483
108.127
)
;
    }
    outlet
    {
        type            fixedValue;
        value           nonuniform 0();
    }
    wall
    {
        type            fixedFluxPressure;
        gradient        nonuniform List<scalar> 
66
(
0.000465931
0.00113458
0.00306712
0.0202536
0.0294047
0.0254466
0.0125033
0.00518378
-0.0132568
0.0102209
0.0155985
-0.00510216
-0.0430228
-0.00785469
-0.0265298
-0.0367213
-0.00580459
-0.130457
-0.0562207
-0.00708881
0.00828379
-0.188915
-0.0176864
0.00809573
-0.00562691
-0.0792623
-0.0683703
0.0199833
-0.0129271
-0.0901744
-0.0641271
-0.0547153
-0.0191483
0.00487832
0.00342523
0.00179446
0.00169591
0.002885
0.00366863
-0.00803279
-0.00586589
-0.020451
0.00856151
-0.00719924
-0.00454057
-0.0348878
-0.0154418
-0.00322655
0.00358816
-0.0225237
-0.0281836
0.0281661
-0.0153043
0.0277037
-0.0313821
0.00309425
0.0753597
-0.0123703
-0.0211773
-0.00404685
-0.0325303
-0.0604253
-0.0220222
0.0622128
0.0451531
-0.0556681
)
;
        value           nonuniform List<scalar> 
66
(
109.1
105.387
106.636
92.434
89.8348
90.1223
99.1046
97.3252
98.2262
68.0207
73.036
72.0529
72.4611
81.7413
90.4803
88.5853
88.6292
56.3816
62.8359
57.6105
57.9015
65.2847
79.4181
73.8232
76.5302
24.3352
48.9173
40.7426
43.1392
74.917
76.254
65.2848
66.0936
106.636
107.182
107.87
108.127
90.122
90.26
90.8274
91.118
98.2261
98.5823
99.02
99.0724
72.4612
72.528
72.9222
73.4354
88.629
89.6164
90.135
90.1015
57.9017
56.1906
56.6282
56.2769
76.5301
76.2853
77.1056
43.1389
41.5628
40.8801
66.0947
68.0142
72.8717
)
;
    }
    procBoundary2to0
    {
        type            processor;
        value           nonuniform List<scalar> 
44
(
66.0731
85.3033
67.5695
61.5888
25.5819
102.342
112.251
92.5713
96.3929
96.3929
67.8601
81.9517
73.7117
41.4811
-15.4421
106.09
111.684
92.7019
98.6792
67.8601
81.9517
81.9517
64.8919
65.4707
14.6685
110.299
111.334
93.0877
101.01
69.2105
85.889
64.8919
65.4707
65.4707
21.795
98.1895
111.234
93.2711
101.369
70.7965
86.7943
62.8368
69.245
21.795
)
;
    }
    procBoundary2to3
    {
        type            processor;
        value           nonuniform List<scalar> 
12
(
26.0271
19.7687
31.5743
33.4466
-0.309521
11.7954
22.8705
25.3716
-9.94243
7.21994
24.5204
22.9449
)
;
    }
    procBoundary2to6
    {
        type            processor;
        value           nonuniform List<scalar> 
32
(
87.1577
33.6089
75.3342
78.3175
39.5656
74.8782
108.959
91.4204
99.2288
73.36
87.2613
58.2453
74.9174
87.1577
33.6089
39.8682
109.431
91.9009
100.535
74.3644
92.0987
57.3162
33.6089
78.3175
78.9282
108.321
91.1933
99.226
74.0727
89.9127
78.3175
55.4701
)
;
    }
}


// ************************************************************************* //
