/*--------------------------------*- C++ -*----------------------------------*\
| =========                 |                                                 |
| \\      /  F ield         | OpenFOAM: The Open Source CFD Toolbox           |
|  \\    /   O peration     | Version:  4.x                                   |
|   \\  /    A nd           | Web:      www.OpenFOAM.org                      |
|    \\/     M anipulation  |                                                 |
\*---------------------------------------------------------------------------*/
FoamFile
{
    version     2.0;
    format      ascii;
    class       volVectorField;
    location    "14";
    object      UsNext;
}
// * * * * * * * * * * * * * * * * * * * * * * * * * * * * * * * * * * * * * //

dimensions      [0 1 -1 0 0 0 0];

internalField   nonuniform List<vector> 
114
(
(-1.92134e-05 -9.20567e-07 -8.76988e-07)
(-2.03918e-05 -2.25536e-06 1.15473e-06)
(-1.75862e-05 -9.27416e-06 1.24057e-05)
(-2.40223e-05 -2.67362e-05 2.91564e-05)
(-7.96875e-05 -2.23578e-05 8.56068e-06)
(-6.36149e-05 -1.69437e-05 1.49266e-05)
(-2.39766e-06 -1.98336e-06 -6.36105e-08)
(-6.55572e-06 -2.08886e-06 -1.43949e-06)
(-1.13949e-05 -3.69815e-06 -1.75787e-06)
(-1.98614e-05 -3.98172e-07 -1.2943e-06)
(-2.32262e-05 -2.94667e-06 3.85612e-06)
(-2.515e-05 -2.79594e-06 5.22914e-06)
(-2.07764e-05 -9.21716e-06 2.69207e-06)
(-2.81898e-05 -1.26103e-05 6.83463e-06)
(-5.17915e-05 -1.23196e-05 1.02762e-05)
(-2.53477e-06 -2.62686e-07 -1.58238e-07)
(-8.08194e-06 -1.33905e-06 -2.20427e-06)
(-1.02303e-05 -2.70879e-06 -7.53554e-07)
(-1.53111e-05 -2.07093e-06 4.59461e-07)
(-2.45776e-05 -5.7155e-06 5.618e-06)
(-2.71918e-05 -2.366e-06 7.29114e-07)
(-3.39622e-05 -8.27596e-06 -1.31667e-06)
(-6.34087e-05 -1.19637e-05 -2.2614e-06)
(-6.18096e-05 -1.62942e-07 9.06478e-06)
(-2.27986e-06 6.93211e-07 -4.35839e-07)
(-5.0927e-06 2.35921e-07 -2.0809e-06)
(-3.27923e-06 -3.10248e-06 2.01109e-06)
(-1.05121e-05 -3.48042e-06 4.29198e-06)
(-2.83252e-05 -3.65944e-06 9.43075e-07)
(-2.16193e-05 3.13149e-06 -9.36359e-07)
(-3.0312e-05 -2.15424e-06 9.799e-07)
(-3.97675e-05 -4.22144e-06 1.67755e-06)
(-4.51508e-05 1.08476e-05 3.33874e-06)
(-2.03041e-06 -1.6723e-05 6.70594e-06)
(-3.57673e-05 -3.18517e-05 8.82967e-06)
(-8.07609e-05 -2.07433e-05 -2.59848e-06)
(-9.94986e-05 -1.33896e-05 -2.92155e-06)
(-2.09882e-06 -5.5195e-07 2.03033e-07)
(-5.58766e-06 -1.83287e-06 -8.67663e-07)
(-1.18156e-05 -1.77327e-06 -4.38511e-07)
(-2.36949e-05 -2.72267e-06 1.73607e-07)
(-3.09788e-05 -7.28769e-06 -1.65196e-07)
(-2.89185e-05 -5.84808e-06 -1.10194e-06)
(-3.53755e-05 -1.48232e-05 6.5913e-06)
(-5.9381e-05 -1.6511e-05 1.37328e-06)
(-8.72799e-05 -1.36219e-05 3.67764e-06)
(-3.96057e-06 -1.07112e-06 -3.06483e-07)
(-6.20312e-06 -2.13633e-06 -2.82945e-07)
(-1.19321e-05 -1.65778e-06 -1.33516e-06)
(-2.0612e-05 -4.12938e-06 1.34374e-06)
(-3.55183e-05 -8.56968e-06 -1.26987e-06)
(-4.14845e-05 -7.90866e-06 1.29632e-07)
(-4.30621e-05 -9.41813e-06 -1.09884e-06)
(-6.21443e-05 -1.00726e-05 3.03851e-06)
(-8.28544e-05 -8.80366e-06 7.94977e-06)
(-3.09405e-06 4.72382e-07 -3.7525e-07)
(-5.24481e-06 2.69301e-07 -3.56685e-07)
(-8.33075e-06 1.1867e-06 -5.13652e-07)
(-1.59809e-05 -1.26168e-06 6.68609e-07)
(-2.23446e-05 -4.06868e-06 -1.28335e-06)
(-2.50734e-05 -2.80231e-06 1.81539e-06)
(-2.72344e-05 -3.12744e-06 2.59961e-06)
(-3.23705e-05 -5.71121e-06 1.0299e-05)
(-3.3286e-05 6.9744e-06 9.6069e-06)
(-9.37069e-05 -2.61907e-05 -2.95869e-05)
(-0.000100978 3.23396e-06 -1.91247e-05)
(-7.38924e-07 -1.94893e-06 1.59169e-07)
(-3.42471e-06 -2.89512e-06 1.74346e-07)
(-1.05278e-05 -1.93736e-06 1.32368e-06)
(-2.09077e-05 -2.87586e-06 7.91999e-07)
(-2.64465e-05 -6.91841e-06 -3.92747e-06)
(-3.03612e-05 -9.60949e-06 -2.44821e-06)
(-3.94464e-05 -2.31227e-05 3.15894e-06)
(-6.60642e-05 -2.04158e-05 -4.41174e-06)
(-9.35736e-05 -1.35569e-05 -6.36398e-06)
(-2.81185e-06 -1.78602e-06 -6.16036e-07)
(-5.09841e-06 -3.98929e-06 -9.61615e-07)
(-1.32927e-05 -3.63431e-06 -3.82213e-07)
(-2.06408e-05 -3.85849e-06 -2.77944e-06)
(-2.99177e-05 -2.74748e-06 -5.45932e-06)
(-4.22634e-05 -9.13514e-06 -9.69917e-07)
(-4.94967e-05 -1.16607e-05 2.91661e-06)
(-6.17587e-05 -8.35142e-06 -1.85524e-06)
(-7.38558e-05 -6.31632e-06 -3.81118e-06)
(-2.75014e-06 2.43238e-07 -5.18745e-07)
(-5.47534e-06 -5.41199e-07 -3.50602e-07)
(-8.73175e-06 -9.57053e-07 -8.15691e-07)
(-1.65333e-05 -2.26369e-07 -4.65471e-06)
(-2.07798e-05 3.82812e-06 -3.22328e-06)
(-2.70535e-05 2.31974e-07 -7.44582e-07)
(-3.23483e-05 -5.34917e-07 1.67939e-06)
(-3.85176e-05 -1.65928e-06 5.77095e-06)
(-4.51908e-05 -7.61542e-06 7.6615e-06)
(-1.56606e-06 -1.70473e-06 -9.87289e-08)
(-5.68627e-06 -3.22626e-06 -2.3388e-07)
(-1.01144e-05 -1.88273e-06 -4.86539e-07)
(-1.58055e-05 -1.8721e-06 -2.97664e-06)
(-1.80554e-05 -6.61959e-07 -5.006e-06)
(-2.3128e-05 -7.32032e-06 -3.99854e-06)
(-2.88965e-05 -1.7554e-05 -4.30497e-06)
(-5.20073e-05 -1.15669e-05 -4.27916e-06)
(-1.88821e-06 -7.59656e-07 -8.61088e-07)
(-6.22111e-06 -2.71887e-06 -1.05673e-06)
(-1.15567e-05 -1.90777e-06 -1.03316e-06)
(-1.82123e-05 -2.75008e-06 -3.50659e-06)
(-2.79195e-05 -1.58745e-06 -3.08687e-06)
(-3.81975e-05 -5.05238e-06 -2.19008e-06)
(-4.53748e-05 -5.23919e-06 -3.43655e-08)
(-2.94354e-06 2.27817e-07 -6.17887e-07)
(-4.40077e-06 -4.03618e-07 -1.31546e-07)
(-1.14785e-05 -5.95336e-07 -1.41881e-06)
(-1.53806e-05 2.53009e-07 -1.09524e-06)
(-2.69006e-05 -2.02759e-06 -1.92775e-06)
(-2.75299e-05 5.48186e-06 1.36763e-07)
)
;

boundaryField
{
    inlet
    {
        type            calculated;
        value           nonuniform List<vector> 
12
(
(-2.39766e-06 -1.98336e-06 -6.36105e-08)
(-2.53477e-06 -2.62686e-07 -1.58238e-07)
(-2.27986e-06 6.93211e-07 -4.35839e-07)
(-2.09882e-06 -5.5195e-07 2.03033e-07)
(-3.96057e-06 -1.07112e-06 -3.06483e-07)
(-3.09405e-06 4.72382e-07 -3.7525e-07)
(-7.38924e-07 -1.94893e-06 1.59169e-07)
(-2.81185e-06 -1.78602e-06 -6.16036e-07)
(-2.75014e-06 2.43238e-07 -5.18745e-07)
(-1.56606e-06 -1.70473e-06 -9.87289e-08)
(-1.88821e-06 -7.59656e-07 -8.61088e-07)
(-2.94354e-06 2.27817e-07 -6.17887e-07)
)
;
    }
    outlet
    {
        type            calculated;
        value           nonuniform 0();
    }
    wall
    {
        type            calculated;
        value           nonuniform List<vector> 
66
(
(-2.39766e-06 -1.98336e-06 -6.36105e-08)
(-2.53477e-06 -2.62686e-07 -1.58238e-07)
(-2.27986e-06 6.93211e-07 -4.35839e-07)
(-6.55572e-06 -2.08886e-06 -1.43949e-06)
(-8.08194e-06 -1.33905e-06 -2.20427e-06)
(-5.0927e-06 2.35921e-07 -2.0809e-06)
(-1.13949e-05 -3.69815e-06 -1.75787e-06)
(-1.02303e-05 -2.70879e-06 -7.53554e-07)
(-3.27923e-06 -3.10248e-06 2.01109e-06)
(-1.92134e-05 -9.20567e-07 -8.76988e-07)
(-1.98614e-05 -3.98172e-07 -1.2943e-06)
(-1.53111e-05 -2.07093e-06 4.59461e-07)
(-1.05121e-05 -3.48042e-06 4.29198e-06)
(-2.03918e-05 -2.25536e-06 1.15473e-06)
(-2.32262e-05 -2.94667e-06 3.85612e-06)
(-2.45776e-05 -5.7155e-06 5.618e-06)
(-2.83252e-05 -3.65944e-06 9.43075e-07)
(-1.75862e-05 -9.27416e-06 1.24057e-05)
(-2.515e-05 -2.79594e-06 5.22914e-06)
(-2.71918e-05 -2.366e-06 7.29114e-07)
(-2.16193e-05 3.13149e-06 -9.36359e-07)
(-2.40223e-05 -2.67362e-05 2.91564e-05)
(-2.07764e-05 -9.21716e-06 2.69207e-06)
(-3.39622e-05 -8.27596e-06 -1.31667e-06)
(-3.0312e-05 -2.15424e-06 9.799e-07)
(-7.96875e-05 -2.23578e-05 8.56068e-06)
(-2.81898e-05 -1.26103e-05 6.83463e-06)
(-6.34087e-05 -1.19637e-05 -2.2614e-06)
(-3.97675e-05 -4.22144e-06 1.67755e-06)
(-6.36149e-05 -1.69437e-05 1.49266e-05)
(-5.17915e-05 -1.23196e-05 1.02762e-05)
(-6.18096e-05 -1.62942e-07 9.06478e-06)
(-4.51508e-05 1.08476e-05 3.33874e-06)
(-2.27986e-06 6.93211e-07 -4.35839e-07)
(-3.09405e-06 4.72382e-07 -3.7525e-07)
(-2.75014e-06 2.43238e-07 -5.18745e-07)
(-2.94354e-06 2.27817e-07 -6.17887e-07)
(-5.0927e-06 2.35921e-07 -2.0809e-06)
(-5.24481e-06 2.69301e-07 -3.56685e-07)
(-5.47534e-06 -5.41199e-07 -3.50602e-07)
(-4.40077e-06 -4.03618e-07 -1.31546e-07)
(-3.27923e-06 -3.10248e-06 2.01109e-06)
(-8.33075e-06 1.1867e-06 -5.13652e-07)
(-8.73175e-06 -9.57053e-07 -8.15691e-07)
(-1.14785e-05 -5.95336e-07 -1.41881e-06)
(-1.05121e-05 -3.48042e-06 4.29198e-06)
(-1.59809e-05 -1.26168e-06 6.68609e-07)
(-1.65333e-05 -2.26369e-07 -4.65471e-06)
(-1.53806e-05 2.53009e-07 -1.09524e-06)
(-2.83252e-05 -3.65944e-06 9.43075e-07)
(-2.23446e-05 -4.06868e-06 -1.28335e-06)
(-2.07798e-05 3.82812e-06 -3.22328e-06)
(-2.69006e-05 -2.02759e-06 -1.92775e-06)
(-2.16193e-05 3.13149e-06 -9.36359e-07)
(-2.50734e-05 -2.80231e-06 1.81539e-06)
(-2.70535e-05 2.31974e-07 -7.44582e-07)
(-2.75299e-05 5.48186e-06 1.36763e-07)
(-3.0312e-05 -2.15424e-06 9.799e-07)
(-2.72344e-05 -3.12744e-06 2.59961e-06)
(-3.23483e-05 -5.34917e-07 1.67939e-06)
(-3.97675e-05 -4.22144e-06 1.67755e-06)
(-3.23705e-05 -5.71121e-06 1.0299e-05)
(-3.85176e-05 -1.65928e-06 5.77095e-06)
(-4.51508e-05 1.08476e-05 3.33874e-06)
(-3.3286e-05 6.9744e-06 9.6069e-06)
(-4.51908e-05 -7.61542e-06 7.6615e-06)
)
;
    }
    procBoundary2to0
    {
        type            processor;
        value           nonuniform List<vector> 
44
(
(-2.15771e-05 -3.08581e-06 -1.67847e-06)
(-1.20245e-05 -5.03288e-06 3.24344e-06)
(-4.77113e-06 -1.35599e-05 1.45983e-05)
(9.9592e-06 -1.86928e-05 1.6946e-05)
(-5.66813e-05 -2.83949e-05 8.25183e-06)
(-0.000126132 -2.9073e-05 8.54155e-06)
(-1.67703e-06 -1.82985e-06 6.95254e-07)
(-4.18513e-06 -3.11076e-06 -2.55148e-06)
(-6.09602e-06 -4.13411e-06 -1.93294e-06)
(-6.09602e-06 -4.13411e-06 -1.93294e-06)
(-2.25625e-05 -4.09111e-06 2.94434e-07)
(-2.20426e-05 -9.57398e-06 -6.5326e-07)
(5.23572e-06 -1.70774e-05 3.42483e-06)
(-3.31881e-05 -3.28842e-05 1.16292e-05)
(-9.91828e-05 -2.70776e-05 -6.42011e-06)
(-0.000156758 -2.41385e-05 4.08704e-06)
(-2.36479e-06 -1.81866e-06 -7.91001e-08)
(-6.0144e-06 -2.81403e-06 -2.38735e-06)
(-1.15117e-05 -3.8337e-06 -2.041e-06)
(-2.25625e-05 -4.09111e-06 2.94434e-07)
(-2.20426e-05 -9.57398e-06 -6.5326e-07)
(-2.20426e-05 -9.57398e-06 -6.5326e-07)
(-1.04227e-05 -1.49886e-05 -4.63293e-06)
(-4.2391e-05 -3.87783e-05 -1.292e-05)
(-0.000103227 -8.61011e-07 -2.14844e-05)
(-0.000161838 -7.86982e-06 -3.20582e-06)
(-1.21274e-06 -1.24773e-06 -4.86514e-07)
(-6.05072e-06 -1.0703e-06 -6.59751e-07)
(-1.28241e-05 -1.85785e-06 -1.00789e-06)
(-2.29526e-05 -1.34931e-07 -3.19599e-06)
(-1.50507e-05 -7.67016e-06 -2.53852e-06)
(-1.04227e-05 -1.49886e-05 -4.63293e-06)
(-4.2391e-05 -3.87783e-05 -1.292e-05)
(-4.2391e-05 -3.87783e-05 -1.292e-05)
(-5.18898e-05 -3.37667e-05 -1.5695e-05)
(-7.28145e-05 -1.44757e-05 -1.59326e-05)
(-1.66295e-06 -1.04238e-06 -1.12978e-06)
(-3.95449e-06 -1.65003e-06 1.38247e-07)
(-9.48263e-06 -1.90633e-06 -5.82841e-07)
(-1.76164e-05 -4.99626e-06 2.18252e-07)
(-1.82813e-05 -7.80659e-06 2.84712e-06)
(-9.56067e-06 -1.62662e-05 -4.84201e-06)
(-3.11382e-05 -3.94744e-05 -4.79465e-06)
(-5.18898e-05 -3.37667e-05 -1.5695e-05)
)
;
    }
    procBoundary2to3
    {
        type            processor;
        value           nonuniform List<vector> 
12
(
(-9.37869e-05 1.48926e-05 -3.2303e-06)
(-8.49862e-05 1.16819e-05 -7.7324e-06)
(-5.33522e-05 7.69998e-06 -6.36915e-06)
(-2.368e-05 5.78841e-06 -2.65936e-06)
(-0.000105313 1.7668e-05 -1.21518e-05)
(-7.94974e-05 1.09792e-05 1.80193e-06)
(-7.8412e-05 1.00006e-05 -3.8595e-06)
(-3.81615e-05 6.36645e-06 -2.18788e-06)
(-9.02134e-05 1.49074e-05 4.43549e-06)
(-8.775e-05 1.2247e-05 -1.11168e-06)
(-7.01073e-05 4.20503e-06 8.76348e-07)
(-4.05e-05 -1.20369e-06 -4.92274e-06)
)
;
    }
    procBoundary2to6
    {
        type            processor;
        value           nonuniform List<vector> 
32
(
(-6.5883e-05 -2.50557e-05 2.73289e-07)
(-4.98257e-05 -4.91778e-06 -3.03135e-06)
(-6.54942e-05 -8.91038e-06 -4.70029e-06)
(-2.71518e-05 3.24694e-06 4.44048e-07)
(-3.62749e-05 -2.56497e-06 -2.11317e-07)
(-3.07627e-05 -9.06017e-07 5.69143e-06)
(-3.36704e-06 -2.4309e-06 -7.90401e-07)
(-4.9769e-06 -2.39308e-06 -2.36258e-06)
(-1.00541e-05 -2.00191e-06 -4.27283e-06)
(-1.7771e-05 -2.76563e-06 -3.23897e-06)
(-2.18641e-05 -5.3983e-06 -3.3838e-06)
(-1.84663e-05 -3.19541e-06 -6.72609e-06)
(-2.26667e-05 -2.26195e-06 -1.15734e-05)
(-6.5883e-05 -2.50557e-05 2.73289e-07)
(-4.98257e-05 -4.91778e-06 -3.03135e-06)
(-5.00332e-05 -5.06617e-06 -2.06814e-06)
(-2.70868e-06 -4.8046e-07 -9.22251e-07)
(-5.94278e-06 -2.29828e-06 -2.24239e-06)
(-1.16424e-05 -3.99644e-06 -3.55623e-06)
(-2.29977e-05 -4.32918e-06 -6.66642e-07)
(-2.66865e-05 -3.1111e-06 3.12996e-06)
(-3.24689e-05 -3.03092e-06 -3.27033e-06)
(-4.98257e-05 -4.91778e-06 -3.03135e-06)
(-2.71518e-05 3.24694e-06 4.44048e-07)
(-3.86327e-05 -5.68627e-06 -3.25466e-06)
(-4.85178e-07 1.58812e-07 -6.13342e-07)
(-3.52532e-06 -4.8152e-07 -3.84574e-07)
(-7.3131e-06 -3.53169e-06 -1.52351e-07)
(-1.49372e-05 -3.71275e-07 -6.3465e-07)
(-2.04261e-05 1.94398e-06 1.37861e-06)
(-2.71518e-05 3.24694e-06 4.44048e-07)
(-2.7439e-05 -5.26651e-07 -1.66677e-06)
)
;
    }
}


// ************************************************************************* //
