/*--------------------------------*- C++ -*----------------------------------*\
| =========                 |                                                 |
| \\      /  F ield         | OpenFOAM: The Open Source CFD Toolbox           |
|  \\    /   O peration     | Version:  4.x                                   |
|   \\  /    A nd           | Web:      www.OpenFOAM.org                      |
|    \\/     M anipulation  |                                                 |
\*---------------------------------------------------------------------------*/
FoamFile
{
    version     2.0;
    format      ascii;
    class       volVectorField;
    location    "14";
    object      UsPrev;
}
// * * * * * * * * * * * * * * * * * * * * * * * * * * * * * * * * * * * * * //

dimensions      [0 1 -1 0 0 0 0];

internalField   nonuniform List<vector> 
114
(
(-1.64088e-05 -6.35876e-07 -1.27599e-06)
(-1.80267e-05 -5.0859e-07 -1.49806e-06)
(-1.70814e-05 -1.98506e-06 1.13579e-05)
(-1.24093e-05 -1.29197e-05 2.48646e-05)
(-5.5143e-05 -2.16644e-05 9.94648e-06)
(-3.45983e-05 -1.98496e-05 1.13066e-05)
(-2.39381e-06 -1.89411e-06 -4.27768e-08)
(-6.52383e-06 -1.54497e-06 -1.54481e-06)
(-9.20879e-06 -4.22405e-06 -3.59325e-07)
(-1.66075e-05 1.09468e-07 -1.33624e-06)
(-1.89393e-05 -2.31858e-07 3.6345e-06)
(-2.06164e-05 4.34589e-06 4.79481e-06)
(-8.61457e-06 -2.87767e-06 -4.77161e-08)
(-6.70768e-06 -8.04212e-06 4.79296e-06)
(-2.87711e-05 -7.02825e-06 3.91177e-06)
(-2.83535e-06 -9.91129e-08 -5.58824e-07)
(-8.33458e-06 -1.38259e-06 -2.21012e-06)
(-1.01229e-05 -3.27771e-06 -1.32505e-06)
(-1.34623e-05 -1.15284e-06 -5.49088e-07)
(-1.88148e-05 -4.12886e-06 6.32357e-06)
(-2.08913e-05 2.5469e-06 1.14247e-06)
(-2.48986e-05 -5.18553e-06 -7.83255e-07)
(-4.30146e-05 -8.44237e-06 -4.33279e-06)
(-4.54408e-05 4.98589e-06 7.72667e-06)
(-2.85019e-06 1.58684e-06 -6.30272e-07)
(-5.69334e-06 1.02857e-06 -2.15328e-06)
(-2.44649e-06 -3.84439e-06 1.84997e-06)
(-7.69721e-06 -2.39311e-06 3.86974e-06)
(-2.52357e-05 -4.96675e-06 1.82634e-06)
(-1.84174e-05 1.91626e-06 -1.18455e-06)
(-2.15426e-05 7.3363e-07 2.17817e-06)
(-2.77059e-05 -5.9957e-06 -9.01567e-07)
(-2.88532e-05 3.76528e-06 6.04595e-06)
(7.11727e-08 -1.14574e-05 6.57901e-06)
(-1.13187e-05 -3.43522e-05 1.45017e-05)
(-5.54481e-05 -3.0572e-05 1.03828e-06)
(-9.00253e-05 -2.292e-05 -6.63209e-08)
(-2.08243e-06 -4.79354e-07 5.23847e-07)
(-5.85386e-06 -1.8992e-06 -6.34524e-07)
(-1.0312e-05 -1.06108e-06 -3.9099e-08)
(-2.04157e-05 -1.30224e-06 -2.46448e-07)
(-2.6817e-05 -4.04551e-06 -5.67463e-07)
(-2.32214e-05 -8.38971e-07 -3.01033e-06)
(-2.01641e-05 -1.11938e-05 7.15168e-06)
(-3.44673e-05 -1.19097e-05 1.93692e-06)
(-6.46071e-05 -1.61143e-05 9.80576e-07)
(-3.93879e-06 -8.34033e-07 -5.52881e-07)
(-6.60591e-06 -1.94864e-06 -2.36426e-07)
(-1.03377e-05 -1.43752e-06 -1.68796e-06)
(-1.84361e-05 -2.26871e-06 6.00291e-07)
(-2.95964e-05 -8.54942e-06 -2.46063e-06)
(-3.57975e-05 -6.1186e-06 -4.1655e-07)
(-3.08751e-05 -1.11791e-05 -6.84976e-07)
(-4.19714e-05 -6.44519e-06 9.70701e-07)
(-6.19374e-05 -4.34711e-06 5.9132e-06)
(-3.38584e-06 8.48158e-07 -3.40255e-07)
(-6.31837e-06 4.23721e-07 -1.7611e-07)
(-8.01603e-06 1.03542e-06 -5.34749e-07)
(-1.29376e-05 -2.0185e-06 8.56886e-07)
(-1.80602e-05 -5.53854e-06 8.11741e-07)
(-2.34358e-05 -1.79483e-06 2.02365e-06)
(-2.00705e-05 -3.74316e-06 9.26294e-07)
(-2.31115e-05 -5.79311e-06 1.02033e-05)
(-2.48156e-05 7.65534e-06 1.55473e-05)
(-6.44803e-05 -3.2255e-05 -2.73062e-05)
(-9.51354e-05 1.34089e-06 -1.63225e-05)
(-8.64905e-07 -1.73115e-06 2.23571e-07)
(-3.31298e-06 -2.64609e-06 -1.24597e-07)
(-8.9434e-06 -1.16986e-06 1.71377e-06)
(-1.80876e-05 -1.90211e-06 2.46874e-06)
(-2.11373e-05 -2.66889e-06 -3.63536e-06)
(-2.25219e-05 -1.288e-06 -4.87174e-06)
(-2.60705e-05 -1.60428e-05 3.04579e-06)
(-4.12984e-05 -1.51441e-05 -1.34579e-06)
(-6.74785e-05 -1.91901e-05 -5.13018e-06)
(-3.22895e-06 -1.85294e-06 -9.03412e-07)
(-4.67224e-06 -3.28033e-06 -1.70268e-06)
(-1.05543e-05 -2.81593e-06 -3.9573e-07)
(-1.75169e-05 -2.0103e-06 -1.85983e-06)
(-2.30082e-05 -2.15632e-06 -5.94986e-06)
(-3.40698e-05 -4.51514e-06 -1.41899e-06)
(-3.70661e-05 -1.05663e-05 1.03344e-06)
(-4.06969e-05 -1.84977e-06 -2.26563e-06)
(-5.33062e-05 -6.01375e-06 -2.89535e-06)
(-2.77977e-06 2.99835e-07 -4.13974e-07)
(-5.68845e-06 -3.41111e-07 -2.79614e-07)
(-8.25454e-06 -1.80306e-06 3.60985e-07)
(-1.36372e-05 -9.3961e-07 -2.84782e-06)
(-1.5437e-05 6.69629e-07 -2.05207e-06)
(-2.26322e-05 7.09427e-07 1.69225e-06)
(-2.91601e-05 -7.11126e-07 1.00835e-06)
(-3.37758e-05 -3.87642e-06 9.36162e-06)
(-3.48924e-05 -5.50976e-06 1.04099e-05)
(-1.19654e-06 -1.46788e-06 -2.56051e-08)
(-5.48319e-06 -3.08181e-06 2.30827e-07)
(-8.83147e-06 -1.51717e-06 3.86697e-07)
(-1.33172e-05 1.17099e-07 -1.69593e-06)
(-1.22198e-05 3.65264e-06 -5.42425e-06)
(-1.88541e-05 -1.52204e-06 -1.39353e-06)
(-1.74735e-05 -9.97158e-06 -5.69898e-06)
(-3.51436e-05 -5.65559e-06 1.77825e-07)
(-1.85854e-06 -8.56612e-07 -6.28964e-07)
(-5.78501e-06 -2.74165e-06 -1.30786e-06)
(-9.13409e-06 -2.00194e-06 -1.65233e-08)
(-1.63252e-05 -7.99417e-07 -2.10437e-06)
(-2.27325e-05 -7.6317e-07 -3.8457e-06)
(-2.94669e-05 -1.54248e-06 -1.55622e-06)
(-3.46504e-05 -4.92233e-06 -1.09966e-07)
(-2.87604e-06 2.51057e-07 -5.02057e-07)
(-5.07842e-06 -9.74982e-07 -6.06668e-07)
(-9.5003e-06 -1.05986e-06 -1.12847e-06)
(-1.43885e-05 -3.37465e-07 -1.21609e-06)
(-2.3305e-05 -4.02633e-06 -1.57059e-06)
(-2.44541e-05 5.5073e-06 5.06526e-07)
)
;

boundaryField
{
    inlet
    {
        type            calculated;
        value           uniform (0 0 0);
    }
    outlet
    {
        type            calculated;
        value           nonuniform 0();
    }
    wall
    {
        type            calculated;
        value           uniform (0 0 0);
    }
    procBoundary2to0
    {
        type            processor;
        value           uniform (0 0 0);
    }
    procBoundary2to3
    {
        type            processor;
        value           uniform (0 0 0);
    }
    procBoundary2to6
    {
        type            processor;
        value           uniform (0 0 0);
    }
}


// ************************************************************************* //
