/*--------------------------------*- C++ -*----------------------------------*\
  =========                 |
  \\      /  F ield         | OpenFOAM: The Open Source CFD Toolbox
   \\    /   O peration     | Website:  https://openfoam.org
    \\  /    A nd           | Version:  4.x
     \\/     M anipulation  |
\*---------------------------------------------------------------------------*/
FoamFile
{
    version     2.0;
    format      ascii;
    class       Cloud<passiveParticle>;
    location    0;
    object      positions;
}
// * * * * * * * * * * * * * * * * * * * * * * * * * * * * * * * * * * * * * //

236
(
( 0.250068 -0.0571686 -0.0378272 ) 63
( 0.253191 -0.019066 -0.0428883 ) 45
( 0.252594 -0.0641962 -0.0651117 ) 36
( 0.253629 -0.0738434 -0.0477522 ) 27
( 0.255809 -0.0383554 -0.0386798 ) 72
( 0.250533 -0.0262659 0.0033286 ) 86
( 0.256709 -0.0654558 0.00463598 ) 84
( 0.251442 -0.0232709 -0.0165381 ) 72
( 0.257174 -0.0759977 -0.0139198 ) 81
( 0.2526 -0.0902928 -0.00140979 ) 81
( 0.35342 -0.0660784 -0.0605549 ) 39
( 0.379212 -0.0900704 -0.0644216 ) 31
( 0.402186 -0.0526057 -0.06314 ) 41
( 0.312796 -0.044251 -0.0461445 ) 38
( 0.416384 -0.0899898 -0.0798133 ) 5
( 0.362033 -0.0749451 -0.0398204 ) 58
( 0.302821 -0.0282199 -0.0373145 ) 73
( 0.352869 -0.0311874 -0.0498819 ) 48
( 0.412372 -0.0901967 -0.0422763 ) 59
( 0.445923 -0.0468385 -0.035372 ) 70
( 0.472064 -0.045185 -0.0595083 ) 43
( 0.28818 -0.0267679 -0.0597604 ) 46
( 0.420448 -0.0900895 -0.060318 ) 33
( 0.447544 -0.0150094 -0.0453341 ) 52
( 0.335497 -0.057781 -0.0578236 ) 39
( 0.437667 -0.0312936 -0.0633237 ) 51
( 0.300458 -0.0423169 -0.0615534 ) 46
( 0.406646 -0.0246545 -0.0794179 ) 23
( 0.490043 -0.044817 -0.0457635 ) 44
( 0.336907 -0.076154 -0.0653255 ) 30
( 0.406342 -0.0148158 -0.0568091 ) 50
( 0.342986 -0.0546556 -0.0245082 ) 66
( 0.274062 -0.0539884 -0.0587191 ) 36
( 0.478732 -0.0300436 -0.028405 ) 80
( 0.35912 -0.0145042 -0.0795917 ) 21
( 0.431283 -0.0440248 -0.04947 ) 42
( 0.34163 -0.0338565 -0.0338561 ) 75
( 0.466887 -0.0214585 -0.0520754 ) 52
( 0.359443 -0.0509867 -0.0722316 ) 12
( 0.362228 -0.050275 -0.0525571 ) 40
( 0.417992 -0.0295283 -0.046425 ) 51
( 0.418405 -0.0725203 -0.0693047 ) 33
( 0.468616 -0.0739205 -0.0515409 ) 34
( 0.320929 -0.0476789 -0.0718442 ) 11
( 0.333321 -0.0393275 -0.0509154 ) 47
( 0.430105 -0.0585536 -0.0360685 ) 69
( 0.437493 -0.0728695 -0.0749228 ) 6
( 0.451563 -0.090162 -0.0491617 ) 34
( 0.287544 -0.09017 -0.0680925 ) 28
( 0.399959 -0.0732116 -0.076804 ) 5
( 0.468135 -0.0412946 -0.0405687 ) 79
( 0.474054 -0.0210243 -0.0859862 ) 26
( 0.268658 -0.0224576 -0.0728517 ) 18
( 0.408947 -0.0444882 -0.0800464 ) 14
( 0.401555 -0.0900775 -0.0664311 ) 32
( 0.453128 -0.0190495 -0.0662773 ) 52
( 0.327573 -0.0742819 -0.0418607 ) 56
( 0.410565 -0.0722851 -0.0509499 ) 32
( 0.378729 -0.0676784 -0.0324331 ) 67
( 0.324283 -0.0880688 -0.0751897 ) 2
( 0.339894 -0.0420898 -0.069456 ) 48
( 0.43641 -0.0459145 -0.0767669 ) 15
( 0.270023 -0.0254277 -0.0348914 ) 72
( 0.272707 -0.0863679 -0.0204212 ) 54
( 0.440627 -0.0583476 -0.0618005 ) 42
( 0.384515 -0.0609556 -0.0663512 ) 40
( 0.380682 -0.0417052 -0.0342437 ) 76
( 0.409042 -0.0145522 -0.0371392 ) 77
( 0.456024 -0.0797146 -0.0696566 ) 34
( 0.295282 -0.0697711 -0.027232 ) 64
( 0.489846 -0.0756267 -0.0426466 ) 62
( 0.302428 -0.0900995 -0.044406 ) 28
( 0.37919 -0.04293 -0.0598111 ) 40
( 0.366612 -0.0276923 -0.035907 ) 76
( 0.32806 -0.090189 -0.0297943 ) 56
( 0.458184 -0.0530466 -0.0835832 ) 16
( 0.479903 -0.0739846 -0.070117 ) 35
( 0.485329 -0.0614292 -0.0556895 ) 44
( 0.27186 -0.0170145 -0.0539949 ) 45
( 0.413689 -0.0531561 -0.0461108 ) 41
( 0.287554 -0.0667498 -0.065894 ) 37
( 0.381293 -0.0262065 -0.0492979 ) 49
( 0.298297 -0.0168948 -0.0737492 ) 19
( 0.356546 -0.0749359 -0.0780101 ) 3
( 0.347228 -0.0870734 -0.0352068 ) 57
( 0.454325 -0.0315832 -0.0843401 ) 25
( 0.483029 -0.0552204 -0.0827707 ) 17
( 0.374349 -0.0224561 -0.0676092 ) 49
( 0.307666 -0.0244722 -0.0561693 ) 47
( 0.271194 -0.0738564 -0.0570523 ) 27
( 0.425593 -0.0155655 -0.0617226 ) 51
( 0.315836 -0.0602851 -0.0574198 ) 38
( 0.439756 -0.0901025 -0.0650565 ) 33
( 0.356575 -0.0868765 -0.0547835 ) 30
( 0.43227 -0.0901839 -0.0443675 ) 33
( 0.276118 -0.0669295 -0.0230792 ) 63
( 0.318144 -0.0900161 -0.0564128 ) 29
( 0.372098 -0.0731036 -0.0567722 ) 31
( 0.467863 -0.0611029 -0.0365269 ) 70
( 0.456196 -0.0531466 -0.0510379 ) 43
( 0.270597 -0.0901703 -0.0398137 ) 54
( 0.393407 -0.0275172 -0.0649169 ) 50
( 0.3024 -0.0790717 -0.0613779 ) 28
( 0.322485 -0.0301505 -0.0362265 ) 74
( 0.26897 -0.0854078 -0.0732457 ) 0
( 0.38798 -0.0577104 -0.0468328 ) 40
( 0.391985 -0.0868511 -0.0277263 ) 59
( 0.490305 -0.0457872 -0.0668293 ) 44
( 0.417944 -0.033911 -0.0657351 ) 51
( 0.48177 -0.0495838 -0.0283501 ) 71
( 0.279869 -0.039245 -0.0467246 ) 46
( 0.490031 -0.0249963 -0.0438866 ) 53
( 0.436858 -0.0295428 -0.037037 ) 78
( 0.453989 -0.0421291 -0.0674475 ) 52
( 0.340963 -0.0223402 -0.0774286 ) 21
( 0.470346 -0.0888418 -0.0822562 ) 7
( 0.476094 -0.0900805 -0.0427047 ) 62
( 0.436529 -0.090128 -0.08467 ) 6
( 0.373828 -0.0900092 -0.0452669 ) 31
( 0.430511 -0.0716163 -0.051039 ) 33
( 0.269422 -0.0603972 -0.0405161 ) 63
( 0.451734 -0.0339553 -0.0494238 ) 52
( 0.288773 -0.0569033 -0.0441156 ) 37
( 0.30254 -0.0516051 -0.0307868 ) 64
( 0.39347 -0.0900982 -0.0482478 ) 32
( 0.278744 -0.0396258 -0.0716552 ) 19
( 0.395905 -0.0397272 -0.049474 ) 50
( 0.337234 -0.0903908 -0.051579 ) 30
( 0.421822 -0.0533862 -0.0650412 ) 42
( 0.324725 -0.0552056 -0.0323925 ) 65
( 0.346058 -0.0634705 -0.0420176 ) 66
( 0.471387 -0.0902158 -0.0624324 ) 34
( 0.269903 -0.0649505 -0.074861 ) 9
( 0.314778 -0.0705126 -0.0744585 ) 11
( 0.451177 -0.0771894 -0.0888124 ) 7
( 0.305759 -0.0705289 -0.043923 ) 38
( 0.290133 -0.0900808 -0.0289443 ) 55
( 0.396031 -0.0290504 -0.032876 ) 77
( 0.372115 -0.0631228 -0.0817382 ) 13
( 0.3889 -0.0890556 -0.0817772 ) 5
( 0.49006 -0.0319186 -0.0811519 ) 26
( 0.460039 -0.0902599 -0.0313531 ) 61
( 0.356719 -0.0314452 -0.0692939 ) 48
( 0.314225 -0.0290871 -0.0743816 ) 20
( 0.460084 -0.0245689 -0.0328139 ) 79
( 0.418542 -0.0740996 -0.0327336 ) 60
( 0.490284 -0.0899304 -0.0563627 ) 35
( 0.33981 -0.0193716 -0.0146511 ) 75
( 0.297591 -0.065117 0.0107434 ) 85
( 0.382127 -0.0281206 -0.0187594 ) 76
( 0.454571 -0.0159091 -0.0149515 ) 79
( 0.293109 -0.0901539 -0.00936503 ) 82
( 0.441525 -0.0578232 -0.0196858 ) 69
( 0.301074 -0.0291425 -0.0168699 ) 73
( 0.46124 -0.0479936 -0.023229 ) 70
( 0.289589 -0.0840872 0.0124187 ) 82
( 0.399692 -0.0396838 -0.0147459 ) 77
( 0.276802 -0.0520636 -0.00134433 ) 84
( 0.342454 -0.0900502 -0.016128 ) 57
( 0.447367 -0.0336291 -0.0204351 ) 79
( 0.368162 -0.0533818 -0.0193742 ) 67
( 0.316253 -0.0412814 -0.0209582 ) 74
( 0.42925 -0.0729957 -0.0160202 ) 60
( 0.272955 -0.0903852 -0.000993148 ) 81
( 0.287425 -0.051397 -0.0180057 ) 64
( 0.260603 -0.0431891 0.00585423 ) 84
( 0.355067 -0.030873 -0.0199184 ) 75
( 0.273373 -0.0710902 -0.00393814 ) 84
( 0.292376 -0.0677897 -0.00789705 ) 85
( 0.30928 -0.0902035 -0.0230755 ) 56
( 0.409953 -0.0237853 -0.0198844 ) 77
( 0.306919 -0.090334 0.00470236 ) 83
( 0.387009 -0.0721917 -0.0150877 ) 58
( 0.26754 -0.0205991 -0.00523903 ) 86
( 0.436524 -0.0156793 -0.0228065 ) 78
( 0.429494 -0.0425115 -0.0239276 ) 78
( 0.325743 -0.0901749 0.0107183 ) 83
( 0.367112 -0.0152066 -0.0205869 ) 76
( 0.267902 -0.0415475 -0.0232285 ) 72
( 0.388658 -0.0422308 -0.0773687 ) 22
( 0.449974 -0.070845 -0.0450637 ) 43
( 0.284414 -0.0762546 -0.042448 ) 55
( 0.421588 -0.059446 -0.0840102 ) 15
( 0.304849 -0.0515329 -0.00826051 ) 85
( 0.439436 -0.0188662 -0.0807351 ) 24
( 0.490027 -0.0900346 -0.0762562 ) 8
( 0.323206 -0.0903116 -0.00891424 ) 83
( 0.398879 -0.069603 -0.035053 ) 68
( 0.406761 -0.0722211 -0.0170037 ) 59
( 0.264192 -0.0349645 -0.0580581 ) 45
( 0.464405 -0.0619404 -0.0668572 ) 43
( 0.481931 -0.0282705 -0.0631373 ) 53
( 0.342452 -0.0605789 -0.0763497 ) 12
( 0.256022 -0.0900919 -0.0589371 ) 27
( 0.328669 -0.0234632 -0.061861 ) 47
( 0.447309 -0.0754059 -0.0260546 ) 61
( 0.357749 -0.0453368 -0.0340188 ) 66
( 0.471737 -0.0393055 -0.0784539 ) 25
( 0.490263 -0.0697227 -0.0238401 ) 71
( 0.413109 -0.0902444 -0.0224565 ) 59
( 0.256054 -0.0567207 -0.0182928 ) 63
( 0.334452 -0.0726482 -0.0232326 ) 57
( 0.353979 -0.0748109 -0.0216059 ) 57
( 0.254547 -0.0900421 -0.0275684 ) 54
( 0.286327 -0.0347052 -0.028679 ) 73
( 0.311186 -0.0738144 -0.00533329 ) 83
( 0.31503 -0.071593 -0.0265586 ) 56
( 0.293621 -0.0461797 0.00706562 ) 85
( 0.471652 -0.0761466 -0.0240559 ) 61
( 0.43489 -0.0904051 -0.0248463 ) 60
( 0.335106 -0.0386013 -0.0157888 ) 75
( 0.411351 -0.0507812 -0.026487 ) 68
( 0.365285 -0.0901973 -0.027408 ) 58
( 0.391276 -0.0549823 -0.0238887 ) 68
( 0.293429 -0.0517994 -0.0775916 ) 10
( 0.250146 -0.079997 -0.0769168 ) 0
( 0.343849 -0.0901403 -0.0785023 ) 3
( 0.440685 -0.0602208 -0.08996 ) 15
( 0.490038 -0.0733752 -0.0872616 ) 8
( 0.386948 -0.0225531 -0.0830933 ) 22
( 0.304647 -0.0894993 -0.0782813 ) 1
( 0.469379 -0.0693282 -0.0863786 ) 16
( 0.424639 -0.0317338 -0.0843706 ) 24
( 0.370014 -0.037712 -0.0827358 ) 22
( 0.395914 -0.0573359 -0.0880611 ) 14
( 0.329728 -0.0365159 -0.0857926 ) 20
( 0.263492 -0.047377 -0.0818482 ) 9
( 0.296716 -0.0717497 -0.0828654 ) 1
( 0.297639 -0.0336194 -0.0845222 ) 19
( 0.333821 -0.0750936 -0.086941 ) 3
( 0.286849 -0.0896167 -0.0879781 ) 1
( 0.368983 -0.0900566 -0.0816506 ) 4
( 0.322652 -0.0586089 -0.0884151 ) 11
( 0.350457 -0.0399088 -0.0862226 ) 21
( 0.276765 -0.0304669 -0.089238 ) 18
( 0.310655 -0.0163938 -0.0893765 ) 20
)
