/*--------------------------------*- C++ -*----------------------------------*\
  =========                 |
  \\      /  F ield         | OpenFOAM: The Open Source CFD Toolbox
   \\    /   O peration     | Website:  https://openfoam.org
    \\  /    A nd           | Version:  4.x
     \\/     M anipulation  |
\*---------------------------------------------------------------------------*/
FoamFile
{
    version     2.0;
    format      ascii;
    class       vectorField;
    location    0;
    object      v;
}
// * * * * * * * * * * * * * * * * * * * * * * * * * * * * * * * * * * * * * //

301
(
( 0.000114096 -2.56929e-05 -5.28998e-05 )  
( -1.03057e-05 0.000201418 -0.000495759 )  
( -2.54632e-05 0.000331569 -0.000451985 )  
( 0.000231015 5.06333e-05 -0.000441642 )  
( 0.000179997 5.58536e-05 -0.000461596 )  
( -0.000362075 0.000522519 -0.00047684 )  
( 6.17727e-05 -9.66372e-05 -0.000180614 )  
( -0.000102305 1.0598e-05 -0.000526154 )  
( 0.000140415 0.000420721 -0.000290003 )  
( 2.10809e-05 0.000237162 -0.000826555 )  
( 5.36475e-05 7.5258e-05 -0.00071437 )  
( 4.74838e-05 1.19502e-07 -9.27598e-05 )  
( -8.35615e-05 -0.000282445 -0.000441623 )  
( -0.000130087 0.000226265 -0.0012915 )  
( 6.99524e-06 2.3207e-05 -0.000122128 )  
( 1.11884e-05 8.70376e-05 -0.000886551 )  
( -0.00124576 -0.000209812 -7.26563e-05 )  
( -9.28793e-06 -0.00016687 -0.000955786 )  
( 5.5166e-05 0.000228305 -0.000397119 )  
( 0.000123588 -1.49263e-05 -0.00015258 )  
( 7.78339e-05 0.000147148 -0.000335605 )  
( 0.000142415 4.82482e-05 -0.00101991 )  
( 0.000208608 3.92844e-05 -0.000222325 )  
( -0.000125254 0.000118417 -0.000606044 )  
( -2.51897e-05 0.000755963 -0.000339945 )  
( -8.68983e-05 0.000255166 -0.000147842 )  
( 4.48142e-05 3.93978e-05 -0.000100189 )  
( 3.5623e-05 -3.5991e-05 -6.00837e-05 )  
( -2.91792e-05 -3.00406e-05 -0.000320217 )  
( 6.90171e-05 0.000253012 -0.000943639 )  
( 8.66124e-05 -4.49057e-06 -1.43675e-05 )  
( 2.14666e-05 0.000208703 -0.000428683 )  
( 1.31669e-07 4.34694e-05 -0.000108031 )  
( 0.000274192 0.000146896 -0.000944351 )  
( -0.000287795 -6.28915e-05 -0.000588991 )  
( -0.000204474 -0.000343429 -0.00104102 )  
( 3.73979e-05 0.000144944 -0.000894283 )  
( 0.000289644 0.000131273 -0.000315395 )  
( -2.94653e-05 -0.000326796 -0.000640506 )  
( -0.000129562 -3.06282e-05 -0.00140423 )  
( -0.00125231 -0.00020391 -0.000113993 )  
( 0.000154471 1.23184e-05 -0.000993479 )  
( 7.53918e-05 1.15834e-05 -3.05221e-05 )  
( -0.000108786 -0.00032636 -0.00117568 )  
( -0.000175933 -0.000338627 -0.000951772 )  
( 9.54502e-05 0.000241073 -0.00103176 )  
( 0.000197975 0.000129604 -2.35003e-05 )  
( 0.000653744 5.58099e-05 -0.000191308 )  
( 0.000582536 0.000212792 -0.000180786 )  
( 3.1224e-05 -0.000151158 -0.00129188 )  
( -0.000227573 -0.000210077 -0.00128408 )  
( 3.57882e-05 -0.000402133 -0.000772344 )  
( -6.56322e-05 -1.81057e-05 -0.000715391 )  
( 4.3376e-05 -0.000132907 -0.00111619 )  
( -6.86083e-05 -9.89368e-05 -0.00039894 )  
( -0.000153138 4.66767e-05 -0.000310797 )  
( 0.000525662 5.95452e-07 5.93221e-07 )  
( 5.11112e-05 1.10225e-05 -9.99214e-05 )  
( 0.000208409 0.000213299 -0.000556301 )  
( -0.000228034 0.000581155 -0.00079573 )  
( -2.25152e-05 5.50716e-05 -0.000376157 )  
( 1.72287e-05 4.29712e-05 8.92445e-05 )  
( 0.000103552 5.37018e-05 -9.62473e-06 )  
( 0.00159479 0.000317078 -0.000137343 )  
( -5.24164e-05 0.000631701 -0.000337222 )  
( 0.00034173 2.82746e-05 -0.00021617 )  
( -0.000237513 -0.000122546 -0.000617259 )  
( 0.00034656 0.00118538 -0.000454047 )  
( 7.01348e-05 0.000384988 -0.00108702 )  
( 9.44795e-05 -0.000381797 -0.000967807 )  
( -0.000246857 -0.000565204 -0.00111113 )  
( 0.00034796 -2.22242e-05 -0.0003263 )  
( 8.60033e-05 -0.00034385 -0.000756303 )  
( 0.000340304 0.000470544 -0.000584629 )  
( 0.000266892 0.000105801 -0.000180716 )  
( 0.000313027 0.00028166 2.40272e-05 )  
( -4.35935e-05 -0.000104471 -0.000864817 )  
( -6.82849e-05 -0.000338151 -0.00113192 )  
( 0.000244949 4.41572e-05 -0.000154988 )  
( 4.75244e-05 0.0002462 -0.00115578 )  
( -8.96476e-05 -4.80306e-05 -0.000188234 )  
( -0.000298593 -0.000113535 -0.000417732 )  
( 0.000289656 0.000314784 -0.000933879 )  
( 0.00014275 3.23053e-05 -5.63867e-05 )  
( 0.000471584 0.000113355 -0.000586907 )  
( 0.000191716 0.000246432 -0.000795863 )  
( -0.000208582 -9.86897e-05 -0.000385691 )  
( 0.000259771 0.000105137 -0.0002918 )  
( 0.000347032 2.75163e-05 -0.000324452 )  
( 0.00035134 0.00030471 0.000143666 )  
( 8.75903e-06 7.65472e-05 -0.00131646 )  
( 0.000192387 0.000202854 -0.000935389 )  
( 0.000133 7.72634e-05 -0.000127631 )  
( -3.72682e-05 5.89876e-05 -0.000269689 )  
( 0.000162371 0.000242196 -0.000948821 )  
( 6.14366e-05 -0.00034905 -0.000499732 )  
( 0.000880556 0.000127219 -0.000302939 )  
( -0.000155205 -0.000105293 -0.000312331 )  
( 0.000106285 0.000240828 -0.000743706 )  
( -7.70779e-05 -0.000205028 -0.00126595 )  
( 1.10391e-05 -1.07633e-05 -0.00123132 )  
( 5.75969e-05 -0.000270724 -0.000408014 )  
( 0.000220406 0.00029417 -3.06277e-05 )  
( 0.000198003 0.000209107 -0.00081704 )  
( 0.000375428 -0.000178054 -0.00025008 )  
( 0.000637707 0.000221032 -0.000818739 )  
( -0.00018304 7.70102e-05 -0.000365975 )  
( 0.000276493 0.000129676 -0.000197701 )  
( 1.7451e-05 1.33682e-05 1.95597e-06 )  
( -7.07188e-05 -0.000465782 -0.000658814 )  
( 2.25695e-05 -9.40338e-05 -0.000839119 )  
( -5.67416e-05 -0.000584051 -0.000840754 )  
( -2.9443e-05 0.000124854 -0.00103529 )  
( 0.000101931 0.000139862 5.26327e-05 )  
( 0.000261462 0.000248226 -0.000352507 )  
( -0.00057765 0.00250101 -0.00142086 )  
( 0.000222872 9.72479e-05 -0.000102011 )  
( 6.62467e-05 0.00023944 -0.000805011 )  
( 7.81836e-05 -1.39345e-05 -4.62154e-05 )  
( -0.000476515 -0.000333417 -3.65984e-05 )  
( 7.66881e-05 0.000139135 -0.000632501 )  
( 0.000101966 0.000199262 -0.000555044 )  
( 6.59704e-05 0.000105735 -0.00108134 )  
( 0.000120188 0.000109326 -0.000122819 )  
( -9.11808e-05 -0.000478634 -0.000856505 )  
( -0.000173706 5.85257e-05 -0.000272061 )  
( -1.93269e-05 -2.77294e-05 -7.6335e-05 )  
( 7.46718e-05 0.000115524 -0.000516907 )  
( 6.6835e-05 2.51198e-05 7.6842e-06 )  
( 0.000219917 0.000168993 -0.000684751 )  
( 0.000289296 0.000223836 4.42414e-05 )  
( 0.000622662 0.000352394 -0.000564418 )  
( 8.47151e-05 6.13407e-06 -0.000396399 )  
( 0.000241041 6.11855e-06 -0.000433157 )  
( 0.000219732 0.000107975 6.15127e-05 )  
( -0.00010854 0.000330718 -0.000287861 )  
( 0.000597775 0.000178317 -0.000432517 )  
( 4.7601e-05 -3.90133e-05 -6.6205e-05 )  
( 7.3797e-05 0.000109211 -0.000947552 )  
( -0.000103803 -3.95196e-05 -0.000271312 )  
( 0.000122701 3.60226e-05 6.43882e-06 )  
( 0.000148374 0.000123551 -0.000431461 )  
( 3.76189e-05 2.16296e-05 -0.0010085 )  
( -0.000234333 -0.000163471 -0.000330354 )  
( 3.90331e-05 2.09011e-05 -1.88885e-05 )  
( 0.000144027 8.43332e-05 9.88115e-05 )  
( 0.000263987 0.000209033 -0.000528572 )  
( 0.000108777 -7.15448e-05 -0.000582752 )  
( 9.16441e-05 3.44007e-05 -9.89577e-05 )  
( -0.000112389 -5.18646e-05 -0.000154273 )  
( -1.28999e-05 5.06569e-05 -0.000642852 )  
( 0.000225549 -5.06308e-05 -0.000217759 )  
( -9.85035e-05 -0.000430993 -0.000983536 )  
( 8.54179e-05 5.5617e-05 -0.00128248 )  
( -0.000216668 -4.06293e-05 -0.000715198 )  
( 0.000196368 0.000225414 -0.00107319 )  
( -8.79072e-05 -4.48663e-06 -0.000274771 )  
( 0.000124891 0.000229858 -0.000639438 )  
( 0.000130525 3.89804e-05 -0.000186246 )  
( 0.00016653 -0.000182246 -0.000659587 )  
( -4.8578e-06 2.76706e-05 -0.000570081 )  
( 1.45734e-05 1.95779e-05 1.44149e-05 )  
( 0.000355878 0.000435231 -0.00100956 )  
( -1.90986e-05 -0.000119397 -0.000800898 )  
( 1.84301e-05 2.64214e-05 -1.51572e-05 )  
( 3.59364e-05 8.89771e-06 1.11911e-05 )  
( 7.46605e-05 -0.000276458 -0.000617956 )  
( -3.00232e-05 -0.000339811 -0.000486845 )  
( 8.19151e-05 0.000112637 8.80123e-05 )  
( -8.76534e-05 -0.000371605 -0.000921347 )  
( 3.78235e-05 9.71882e-06 -4.73351e-05 )  
( 0.000169718 0.000193879 4.20098e-05 )  
( 1.82366e-05 -0.000277994 -0.000881192 )  
( 0.000445462 0.000320866 -0.000505174 )  
( -0.000156278 -9.67826e-05 -0.000159776 )  
( -7.08591e-05 -2.9686e-07 -0.000318643 )  
( -8.12715e-05 5.43511e-05 -0.000162011 )  
( 6.55953e-05 2.47258e-05 -1.76475e-05 )  
( 0.000250335 0.000227562 -0.000758637 )  
( 0.000789788 0.000283925 -0.00033257 )  
( 0.000579332 -0.000497867 -3.19021e-05 )  
( -4.66048e-05 -9.26228e-05 -0.000233446 )  
( -5.45628e-06 1.00938e-05 -0.000301778 )  
( 2.51821e-05 1.76933e-05 5.59152e-05 )  
( 0.000143164 0.000167497 -2.76263e-05 )  
( 3.45494e-05 7.14041e-05 -0.000598367 )  
( -0.000142495 7.42783e-05 -0.000175957 )  
( 8.05464e-05 5.75865e-05 -7.73299e-06 )  
( -0.00015836 -0.00028823 -0.00100346 )  
( 5.29244e-05 -0.000229603 -0.000659136 )  
( 0.000681727 0.000104686 -0.000215909 )  
( -8.56744e-05 -0.000368293 -0.00105446 )  
( 4.117e-05 2.43065e-05 -7.54615e-08 )  
( -3.99989e-05 6.74874e-05 -0.000422854 )  
( -2.20098e-06 -1.48461e-05 -0.000241001 )  
( 0.000420349 0.000105755 -0.000554727 )  
( 5.27936e-05 1.02255e-05 -2.9268e-05 )  
( 3.82959e-05 0.00019541 -0.000616031 )  
( 2.13987e-05 1.74355e-05 -3.11874e-05 )  
( 5.59226e-05 -5.9994e-05 -0.000685203 )  
( -0.000124605 -7.98855e-05 -0.000258682 )  
( 3.04196e-05 0.00019155 -0.000547924 )  
( 5.79883e-06 6.74124e-05 -0.00033482 )  
( 1.23742e-05 4.60496e-05 -0.000124922 )  
( -5.74263e-05 6.50717e-05 -0.000184521 )  
( -0.000115623 5.78725e-05 -0.000576776 )  
( 0.000123811 6.3091e-05 -0.000194485 )  
( 9.08068e-05 0.000150827 -0.000345325 )  
( -3.33214e-05 1.67158e-05 -0.000164795 )  
( -1.23899e-05 0.000172946 -0.000436913 )  
( -2.42891e-05 4.44516e-05 -0.000169294 )  
( 3.59958e-05 2.13252e-05 2.85398e-07 )  
( 1.62134e-05 8.30772e-05 -0.000336223 )  
( 0.000264836 9.98428e-05 -0.000595038 )  
( 2.33498e-05 0.000143184 -0.000503523 )  
( 5.81306e-05 -6.65689e-05 -0.000126236 )  
( 9.01308e-05 0.000117555 -0.000610751 )  
( 9.1919e-05 8.96311e-05 -0.000365168 )  
( 4.66416e-05 2.99388e-05 -0.000412678 )  
( 0.000159218 4.93246e-05 -0.000597948 )  
( -2.16857e-05 6.22876e-05 -0.000332023 )  
( 7.06439e-05 7.39015e-05 4.70617e-05 )  
( 5.23294e-05 1.82413e-05 2.48031e-05 )  
( 0.000125397 0.00014715 -0.000627484 )  
( 0.000370261 0.000998159 -0.000300936 )  
( 0.000118475 -6.51537e-06 -2.25964e-05 )  
( 2.72707e-05 0.000169569 -0.000461754 )  
( 0.000160806 8.85082e-05 -0.0011245 )  
( -6.71279e-05 2.91117e-05 -0.000102535 )  
( 4.88833e-05 0.000200133 -0.000623478 )  
( 0.000271233 9.47261e-05 -0.000153956 )  
( 4.30504e-05 0.000170675 -0.000621557 )  
( -0.000179892 -0.000559005 -0.00111888 )  
( 9.23847e-05 3.45715e-05 -0.000449653 )  
( 2.9869e-05 7.30154e-06 -4.27296e-05 )  
( 2.28583e-05 4.85174e-05 -0.000122101 )  
( 0.000168482 -8.36132e-05 -0.000405068 )  
( 1.47793e-05 0.000262408 -0.00107208 )  
( 0.000347032 0.000329458 -0.000742939 )  
( -0.000103821 0.000371694 -0.000383976 )  
( -1.42299e-05 3.8388e-05 -0.000390859 )  
( -4.84876e-05 0.000481385 -0.000162661 )  
( 9.00484e-06 0.000159303 -0.000576354 )  
( -2.04127e-05 0.000202637 -0.000634616 )  
( 5.03689e-05 0.000893658 -0.000113828 )  
( 3.70769e-05 -5.89635e-05 -0.000790675 )  
( 0.000150769 3.14692e-05 -1.11496e-05 )  
( 5.76043e-05 0.000453348 -0.00114452 )  
( -0.0002246 -0.000429811 -0.00112358 )  
( 0.00026913 0.000205487 -0.000758692 )  
( 8.10063e-05 3.09029e-05 -0.00061206 )  
( -0.000175233 -5.50348e-05 -0.000236203 )  
( -0.000130785 -0.000339603 -0.00112329 )  
( -1.32168e-05 4.08024e-05 -0.000315145 )  
( 0.000122542 0.000201521 -0.000565453 )  
( -0.000278337 0.000568162 -0.000432856 )  
( 3.96239e-05 0.000288187 -0.000505092 )  
( 1.30438e-05 2.02938e-05 -3.84278e-05 )  
( 0.00024048 7.45048e-07 -0.000603373 )  
( 0.000115392 -1.94968e-05 -0.000403698 )  
( -5.11678e-06 0.000359061 -0.000472192 )  
( 6.54164e-05 0.000111517 -0.000715082 )  
( 0.000112789 7.41674e-05 -0.000230314 )  
( -4.07639e-05 -0.000230747 -0.000347503 )  
( 3.18087e-05 4.7962e-05 -5.49057e-05 )  
( -0.000188368 0.000507464 -0.000374834 )  
( -2.80659e-05 0.000132889 -0.000490232 )  
( -2.82823e-05 -4.66206e-05 -0.000850275 )  
( 4.98757e-05 4.55046e-05 -6.84848e-05 )  
( -2.03599e-05 0.000177078 -0.000280771 )  
( 6.05585e-05 4.04023e-05 -0.000177778 )  
( -2.61803e-05 0.000237437 -0.000442568 )  
( 1.6472e-05 3.72192e-05 -0.000158106 )  
( 4.51893e-06 0.000147385 -0.00054019 )  
( 5.01337e-05 7.22832e-05 -0.000201916 )  
( -0.000149716 7.57157e-05 -0.000690203 )  
( 0.000624822 0.00129258 4.59615e-05 )  
( 0.000849521 0.000314631 2.59782e-05 )  
( 7.85216e-05 0.000427374 -0.00108131 )  
( 0.000215219 0.000487154 -0.000883732 )  
( -0.00133823 0.000562354 -0.000564102 )  
( 0.000180175 -9.4184e-05 -0.00132952 )  
( 0.000724877 -0.000447895 -0.000514984 )  
( -7.60395e-05 -0.000152685 -0.000479235 )  
( -0.000370019 -0.00086151 -0.000941547 )  
( -0.000502703 4.91737e-05 -0.000960971 )  
( 0.000133634 -0.000276864 -0.000754881 )  
( 0.000240029 0.000448693 -0.000426741 )  
( -0.000136099 5.54662e-05 -0.000360106 )  
( 3.94098e-05 -0.00105824 -0.00127182 )  
( -0.000555954 -0.00101106 -0.000930121 )  
( -6.39683e-05 0.000367688 -0.000708815 )  
( -0.000334584 9.23202e-05 -0.000216571 )  
( 0.000801914 9.36674e-05 2.68408e-05 )  
( -0.000210894 9.73733e-05 -0.000148856 )  
( 0.00045946 0.000232101 -0.000928462 )  
( 0.000360762 -0.00086877 -0.000541175 )  
( 0.000909905 0.000371076 -0.00051838 )  
( 1.87676e-05 0.000208575 -0.000631599 )  
( -0.000480073 -1.55074e-05 -0.000916759 )  
( -0.000324436 0.00019433 -0.00120722 )  
)
