/*--------------------------------*- C++ -*----------------------------------*\
| =========                 |                                                 |
| \\      /  F ield         | OpenFOAM: The Open Source CFD Toolbox           |
|  \\    /   O peration     | Version:  4.x                                   |
|   \\  /    A nd           | Web:      www.OpenFOAM.org                      |
|    \\/     M anipulation  |                                                 |
\*---------------------------------------------------------------------------*/
FoamFile
{
    version     2.0;
    format      ascii;
    class       volScalarField;
    location    "54.5";
    object      KslNext;
}
// * * * * * * * * * * * * * * * * * * * * * * * * * * * * * * * * * * * * * //

dimensions      [1 -3 -1 0 0 0 0];

internalField   nonuniform List<scalar> 
108
(
3399.25
8008.91
3422.67
7788.65
3394.36
7476.8
3336.64
7278.28
3260.41
3490.95
9908.02
3688.2
13033.4
3719.71
15573.1
3694.06
18191.9
3636.92
3528.07
11214.3
3814.22
18332.4
3829.06
29809.1
3784.2
80072.7
3807.28
3502.57
10863.4
3850.41
19347
3830.56
37221.9
3896.59
129582
3875.53
3382.4
7902.93
3384.3
7684.3
3391.03
7416.9
3339.98
7443.64
3324.6
3463.76
9030.62
3569.79
10096.4
3598.14
11078.9
3593.42
12725.9
3575.29
3477.59
10240.7
3717.53
14489.4
3779.71
20568.2
3766.32
34658.5
3748.98
3508.22
10444.2
3756.38
15656
3781.56
22295.7
3777.84
34967.6
3688.59
3338.91
7007.63
3196.56
6048.91
3135.86
5633.67
3071.03
5307.43
2961.75
3390
7757.74
3383.37
7175.75
3316.02
6731.76
3233.95
6404.99
3126.01
3441.14
8320.67
3487.78
8303.76
3450
7944.83
3360.96
7567.23
3269.06
3479.71
8491.38
3531.11
8775.41
3476.67
8251.86
3352.08
7581.06
3232.76
)
;

boundaryField
{
    inlet
    {
        type            zeroGradient;
    }
    outlet
    {
        type            zeroGradient;
    }
    wall
    {
        type            zeroGradient;
    }
    procBoundary4to0
    {
        type            processor;
        value           uniform 0;
    }
    procBoundary4to5
    {
        type            processor;
        value           uniform 0;
    }
    procBoundary4to6
    {
        type            processor;
        value           uniform 0;
    }
}


// ************************************************************************* //
