/*--------------------------------*- C++ -*----------------------------------*\
  =========                 |
  \\      /  F ield         | OpenFOAM: The Open Source CFD Toolbox
   \\    /   O peration     | Website:  https://openfoam.org
    \\  /    A nd           | Version:  4.x
     \\/     M anipulation  |
\*---------------------------------------------------------------------------*/
FoamFile
{
    version     2.0;
    format      ascii;
    class       vectorField;
    location    0;
    object      v;
}
// * * * * * * * * * * * * * * * * * * * * * * * * * * * * * * * * * * * * * //

407
(
( -1.71418e-08 -5.35553e-09 1.50475e-08 )  
( -2.22472e-08 -4.59154e-09 1.01069e-08 )  
( -1.29664e-08 -6.34663e-09 1.47643e-09 )  
( -2.11839e-08 -5.52699e-09 7.71321e-09 )  
( -1.39253e-08 -4.74513e-10 3.12005e-09 )  
( -2.21838e-08 -6.7285e-09 1.36902e-08 )  
( -2.03423e-08 -3.51911e-09 1.59018e-08 )  
( -2.31658e-08 -3.49738e-09 1.10893e-08 )  
( -1.19053e-08 1.09118e-09 -1.98709e-08 )  
( -1.99237e-08 2.29685e-09 -2.01621e-09 )  
( -1.48882e-08 1.03532e-09 -1.71531e-08 )  
( -1.54219e-08 2.64659e-09 -5.29841e-09 )  
( -1.76552e-08 9.44211e-10 -1.39053e-08 )  
( -1.93483e-08 2.96002e-09 -9.814e-09 )  
( -1.65257e-08 2.79675e-09 -9.0205e-09 )  
( -2.41116e-08 -1.32898e-09 1.65439e-08 )  
( -9.8386e-09 2.40803e-09 -1.45373e-08 )  
( -2.11259e-08 -3.96579e-09 1.50694e-08 )  
( -5.7759e-09 -1.15857e-09 -1.22586e-08 )  
( -2.0414e-08 2.34134e-09 1.91247e-09 )  
( -6.11252e-09 1.85789e-09 -1.37256e-08 )  
( -2.58117e-08 -5.18411e-10 3.76693e-09 )  
( -1.35181e-08 2.61397e-09 -7.72302e-09 )  
( -2.50606e-08 -1.39976e-09 2.09774e-08 )  
( -1.3801e-08 1.53566e-09 -1.13091e-08 )  
( -1.2746e-08 2.95395e-09 -1.47329e-08 )  
( -2.34544e-08 1.29122e-09 -1.92592e-09 )  
( -2.09664e-08 -5.48335e-09 8.70086e-09 )  
( -1.74682e-08 -5.40946e-09 1.14101e-09 )  
( 1.15502e-09 2.90037e-09 -9.23891e-09 )  
( -2.18449e-08 -4.26723e-09 8.43431e-09 )  
( -2.2819e-09 2.74141e-09 -1.86565e-08 )  
( -9.76773e-09 -2.22723e-10 -8.97307e-09 )  
( -1.84231e-08 -2.86441e-10 -3.37013e-09 )  
( -2.63308e-08 -2.79433e-09 1.95311e-08 )  
( -2.61358e-08 -1.59847e-09 6.02161e-09 )  
( -2.59805e-08 -3.22116e-09 1.6923e-08 )  
( -1.32016e-08 -8.74753e-10 -7.5933e-09 )  
( -3.03391e-08 -2.70577e-09 1.98138e-08 )  
( -2.15334e-08 9.77036e-10 -1.81437e-09 )  
( -1.21382e-08 -2.14458e-09 -4.3908e-09 )  
( -8.19814e-09 4.20204e-09 -1.67425e-08 )  
( -5.31525e-09 6.04484e-09 -1.78656e-08 )  
( -9.50096e-09 1.28619e-09 -1.55125e-08 )  
( -1.82899e-08 1.69687e-09 -4.49095e-11 )  
( -1.03993e-08 -5.17075e-10 -9.35877e-09 )  
( -2.24697e-08 -2.48271e-09 1.24916e-08 )  
( -3.11348e-08 -5.62126e-09 1.27253e-08 )  
( -2.21327e-08 -7.05474e-09 1.35879e-08 )  
( -1.68315e-08 -6.46937e-10 1.42539e-09 )  
( -2.00151e-09 2.81813e-09 -1.31922e-08 )  
( -2.83768e-08 -5.17739e-09 1.78178e-08 )  
( -1.88782e-08 -2.11354e-09 3.89852e-09 )  
( -2.3858e-08 -2.75694e-09 1.09434e-09 )  
( -7.74698e-09 2.96146e-09 -1.62915e-08 )  
( -1.09509e-08 -4.3341e-09 4.6743e-09 )  
( -3.11639e-08 -8.39128e-09 1.40755e-08 )  
( -1.4594e-08 -4.19806e-10 -6.22184e-09 )  
( -2.66189e-08 -4.09911e-09 1.96147e-08 )  
( -2.28299e-08 -3.942e-09 6.64746e-09 )  
( -1.17635e-08 9.59514e-10 -1.2651e-08 )  
( -2.46647e-08 -3.57191e-09 1.6071e-08 )  
( -1.54518e-08 1.49218e-09 -3.16066e-09 )  
( -2.28961e-08 -3.75346e-09 8.24779e-09 )  
( -2.11352e-09 -2.097e-09 -1.33951e-08 )  
( -4.55843e-09 2.94205e-09 -2.13755e-08 )  
( -2.4767e-08 5.1898e-10 3.61153e-09 )  
( -3.85321e-09 -1.03703e-10 -3.33052e-09 )  
( -2.75614e-10 -1.11485e-09 -3.42986e-09 )  
( -2.22963e-08 -5.98896e-09 1.32614e-08 )  
( -2.69974e-08 -4.96647e-10 1.78967e-08 )  
( -5.0585e-09 6.91498e-10 -1.29591e-08 )  
( -1.60207e-08 -1.08175e-08 4.28081e-09 )  
( -5.52942e-09 -1.82636e-09 -2.37628e-09 )  
( -3.00024e-09 -3.93836e-09 -2.79898e-08 )  
( -1.87367e-08 2.49774e-10 -4.31651e-09 )  
( -2.06052e-08 -6.92501e-09 7.57897e-09 )  
( -2.55161e-08 1.03401e-09 5.85345e-11 )  
( -6.05897e-09 4.09066e-09 -1.41282e-08 )  
( -2.20988e-08 -3.69819e-09 1.44052e-08 )  
( -2.37124e-08 -1.32671e-09 9.77938e-09 )  
( -1.2832e-08 1.60007e-09 -5.21909e-09 )  
( -1.8637e-09 2.76871e-09 -1.36872e-08 )  
( -1.96466e-08 -1.81433e-09 4.52849e-09 )  
( -2.08042e-08 -3.89546e-09 1.56642e-08 )  
( -1.38318e-08 -4.25051e-10 2.44292e-10 )  
( -1.09212e-08 1.30085e-09 -1.14565e-08 )  
( -1.2186e-08 2.42391e-09 -1.03905e-08 )  
( -2.20088e-08 -3.66034e-09 6.45177e-09 )  
( -9.06432e-09 -3.65978e-10 7.68424e-09 )  
( -3.65615e-09 -5.31021e-10 -1.64196e-08 )  
( -6.36331e-09 5.9094e-09 -2.51591e-08 )  
( -2.1179e-08 -1.6204e-09 1.16696e-08 )  
( -3.07279e-08 -3.44944e-09 1.81365e-08 )  
( -1.16813e-08 1.99694e-09 -9.02853e-09 )  
( -1.48224e-08 5.22918e-10 1.89676e-09 )  
( -9.78789e-09 -2.48468e-09 -8.73364e-09 )  
( -2.64289e-08 -1.54627e-09 5.62484e-09 )  
( -1.79892e-08 -4.04588e-09 -1.44401e-09 )  
( -1.13373e-08 -9.26362e-10 -8.01016e-09 )  
( -4.45698e-09 2.34306e-09 -3.14328e-08 )  
( 9.49144e-10 -1.1557e-09 -6.46465e-09 )  
( -1.04737e-08 -2.44911e-10 -9.83765e-09 )  
( -6.69733e-09 1.56936e-09 -1.26798e-08 )  
( -1.17813e-09 1.57633e-09 -1.13828e-08 )  
( -1.41652e-08 1.11948e-09 -1.94173e-09 )  
( -6.21241e-09 1.07281e-09 -7.1929e-09 )  
( -1.85435e-08 -6.38753e-09 7.04047e-09 )  
( -4.3842e-09 1.20273e-09 -2.57863e-08 )  
( -1.7967e-08 -1.92608e-10 -1.88943e-09 )  
( -1.73241e-08 2.52068e-09 -4.23624e-09 )  
( -1.73709e-08 -9.24513e-09 5.1105e-09 )  
( -2.01296e-08 -4.49596e-09 1.39315e-08 )  
( -2.23173e-08 -5.11052e-09 1.19962e-08 )  
( -1.57209e-08 -1.87524e-09 6.40808e-11 )  
( -1.95925e-08 -1.53766e-09 -1.38888e-09 )  
( -1.9459e-08 3.80231e-11 -2.15907e-09 )  
( -3.19553e-09 -6.43998e-10 -1.52805e-08 )  
( -2.30186e-08 -3.40486e-09 1.19611e-08 )  
( -2.25625e-08 -1.01865e-09 8.03755e-09 )  
( -2.45353e-08 -2.88285e-09 1.09445e-08 )  
( -2.22282e-08 -6.70454e-09 9.6167e-09 )  
( -2.51494e-08 -4.50114e-09 1.6315e-08 )  
( -1.61401e-08 -7.69017e-10 3.2525e-09 )  
( -1.10372e-08 -6.92681e-10 -7.45152e-09 )  
( -3.23818e-09 -1.94187e-09 -6.62277e-09 )  
( -2.82213e-08 -5.23839e-09 9.86508e-09 )  
( -2.19571e-09 -4.40539e-09 -2.87949e-08 )  
( -1.9979e-08 3.59342e-09 -9.77724e-09 )  
( -1.16208e-08 5.42028e-09 -2.06768e-08 )  
( -1.38825e-08 -4.35774e-09 -8.94777e-09 )  
( -5.06794e-09 -2.04617e-09 -5.50569e-09 )  
( -2.28819e-08 -5.23789e-09 1.33308e-08 )  
( -9.48212e-09 -9.64747e-10 1.41933e-10 )  
( -2.05933e-09 -9.04156e-10 -1.50965e-08 )  
( -9.5478e-09 -9.54095e-10 6.61774e-10 )  
( 2.4576e-07 1.09704e-07 -5.39293e-09 )  
( -8.77786e-09 -8.33154e-10 -1.00357e-08 )  
( -1.76087e-08 -2.417e-09 4.6381e-09 )  
( -1.91004e-08 -7.39734e-10 2.48886e-09 )  
( -2.82595e-08 -2.97109e-09 1.73432e-08 )  
( -1.27713e-08 7.81732e-10 -4.92074e-09 )  
( -1.77811e-08 -5.03782e-09 4.90611e-09 )  
( -2.3449e-08 -5.99493e-09 3.46373e-09 )  
( 2.68889e-09 6.30777e-10 -5.35306e-09 )  
( -2.06259e-09 -1.2276e-09 -8.56672e-09 )  
( -8.77466e-09 1.89678e-09 -2.02947e-08 )  
( -2.54932e-08 -3.65263e-09 1.97501e-08 )  
( -8.87007e-09 6.12994e-09 -1.38079e-08 )  
( -2.3351e-08 -4.51798e-09 1.61816e-08 )  
( -8.77029e-09 -5.72182e-09 -5.65404e-09 )  
( -6.17878e-09 2.73518e-09 -2.88622e-08 )  
( -5.19139e-09 -1.47379e-09 -8.3174e-09 )  
( -1.92988e-08 -5.41448e-09 7.01996e-09 )  
( -1.93929e-08 -6.26414e-09 4.75545e-09 )  
( -1.06753e-08 9.18643e-10 1.70349e-09 )  
( -1.73889e-08 -4.74575e-09 4.95178e-09 )  
( -2.76443e-08 -3.2324e-09 1.99318e-08 )  
( -1.62627e-09 -2.86073e-09 -1.14725e-08 )  
( -1.10464e-08 -2.69677e-09 -2.64988e-09 )  
( -1.70981e-08 -3.61234e-09 2.61708e-09 )  
( 1.1166e-09 -1.78043e-09 -3.21379e-09 )  
( -2.22267e-08 -7.46618e-09 1.86272e-08 )  
( -1.81988e-08 -2.30503e-09 1.72402e-08 )  
( -2.26779e-08 -2.63215e-09 3.61758e-09 )  
( -2.44852e-08 -1.5795e-09 4.86859e-09 )  
( -2.70679e-08 -1.99946e-09 9.96973e-09 )  
( -2.08566e-08 -9.19712e-11 2.1701e-09 )  
( 5.76678e-10 1.40985e-09 -7.44152e-09 )  
( -1.98893e-08 -6.87517e-09 1.1379e-08 )  
( -9.87483e-10 -6.09133e-10 -6.593e-09 )  
( -2.16872e-08 -6.32244e-09 1.10072e-08 )  
( -7.59632e-09 1.80995e-09 -8.96906e-09 )  
( -1.91178e-08 -4.95461e-09 9.85697e-09 )  
( -1.7066e-08 -1.67636e-09 -7.88276e-09 )  
( -2.40928e-08 -3.75371e-09 1.08424e-08 )  
( -1.46189e-08 6.78061e-10 5.33432e-09 )  
( -1.49417e-08 -4.70016e-09 6.25578e-09 )  
( 1.65794e-09 6.8709e-10 -6.45567e-09 )  
( -2.01976e-08 -6.09623e-09 6.99582e-09 )  
( -1.56006e-08 -9.95289e-10 1.03104e-09 )  
( -1.84746e-08 -5.5616e-09 -3.40112e-09 )  
( -1.69824e-08 1.2737e-09 6.06356e-10 )  
( -1.36473e-09 -1.73159e-09 -2.75545e-09 )  
( -5.0275e-09 3.0752e-10 -4.80424e-09 )  
( -1.24639e-08 -2.59052e-09 -3.02088e-09 )  
( -1.8541e-08 -4.19753e-09 -3.26995e-10 )  
( -2.30823e-08 -4.16048e-09 4.51147e-09 )  
( -8.72515e-09 -5.3171e-09 1.69869e-09 )  
( 1.6726e-11 -1.27122e-09 -7.35715e-09 )  
( -1.83907e-08 -6.74994e-09 7.14053e-09 )  
( -3.82829e-09 -1.97032e-09 -1.29199e-09 )  
( -6.31286e-09 -2.814e-09 -2.21382e-09 )  
( -1.18364e-09 2.18506e-10 -2.33746e-09 )  
( -5.34541e-09 -1.83467e-10 -8.39945e-09 )  
( -1.44861e-08 -4.47623e-09 3.1602e-10 )  
( -1.41083e-08 -2.35872e-09 -5.2008e-09 )  
( -1.26723e-08 1.07535e-09 -5.07464e-09 )  
( -1.56377e-08 -2.5495e-09 6.84515e-10 )  
( -1.8764e-08 -1.74486e-09 -5.89663e-09 )  
( -1.59481e-08 -5.41623e-09 7.85963e-09 )  
( -1.59556e-08 -4.97775e-09 4.66285e-09 )  
( -8.02819e-09 -2.94747e-09 -2.69019e-09 )  
( -1.57746e-08 -6.53891e-09 7.1139e-09 )  
( -2.32505e-09 -6.3722e-10 -1.65674e-09 )  
( -2.4224e-09 -6.54511e-10 6.48182e-10 )  
( -1.5569e-08 3.94364e-10 1.09693e-09 )  
( -1.10233e-08 -3.84215e-09 -1.03415e-09 )  
( -1.66698e-08 -2.32269e-09 5.82865e-09 )  
( -8.68827e-09 -2.06389e-09 -5.85474e-09 )  
( -1.84968e-08 -2.2142e-09 -1.00417e-09 )  
( -5.20658e-09 -3.7596e-09 5.47288e-10 )  
( -1.61798e-08 -1.62628e-09 6.91016e-10 )  
( -1.64744e-08 -3.7419e-09 1.10513e-08 )  
( -2.50429e-08 -5.57907e-09 4.16159e-09 )  
( -1.53949e-08 -2.60332e-09 5.75291e-09 )  
( -6.9395e-09 -1.61618e-09 -8.67202e-09 )  
( -1.85214e-08 -3.90348e-09 2.21757e-09 )  
( 7.07821e-10 -1.49713e-09 -6.23735e-09 )  
( -6.0978e-09 8.38036e-10 -1.50896e-09 )  
( -1.68154e-09 -5.68582e-10 -6.05259e-09 )  
( -1.70184e-08 -5.54559e-09 7.6045e-09 )  
( -2.215e-08 -9.76352e-09 -5.1414e-09 )  
( 1.07295e-09 -2.89633e-10 -4.99061e-10 )  
( -1.92025e-08 -5.53285e-09 -5.93939e-09 )  
( -3.94717e-09 2.84227e-10 -8.52122e-09 )  
( -2.16784e-08 -5.25119e-09 -1.28346e-08 )  
( -9.73293e-09 8.50928e-11 -6.45243e-09 )  
( -1.34281e-08 -4.71094e-09 -3.489e-09 )  
( -1.17748e-08 -1.56176e-09 -1.70603e-09 )  
( -8.67722e-10 6.45115e-10 -5.14227e-09 )  
( -6.22938e-09 2.4469e-09 -1.15077e-08 )  
( -1.43343e-08 -2.02347e-10 1.06629e-09 )  
( -1.82776e-08 -2.35456e-09 -6.14451e-09 )  
( -1.76649e-08 -4.56943e-09 1.05782e-08 )  
( -1.08331e-08 -1.24077e-09 3.19205e-09 )  
( -8.78857e-09 -4.32972e-09 8.07055e-09 )  
( -1.82098e-08 -5.56285e-09 9.09425e-09 )  
( -1.89348e-09 1.9081e-09 -8.67064e-09 )  
( -1.06277e-08 1.5566e-09 -1.31585e-08 )  
( -2.155e-08 -5.8818e-09 4.55058e-09 )  
( -5.07812e-09 -1.18598e-09 -4.40046e-09 )  
( -2.12085e-08 1.73723e-09 4.61857e-09 )  
( -1.50409e-08 -4.99604e-09 -4.13704e-09 )  
( -2.0613e-08 -2.90877e-09 7.62955e-09 )  
( -1.00969e-08 -3.28612e-09 1.93462e-09 )  
( -1.07937e-08 -3.96275e-10 1.47352e-09 )  
( 5.91601e-10 -1.14899e-09 -7.43399e-10 )  
( 1.06742e-09 -1.02333e-10 -3.5791e-09 )  
( -3.04958e-09 1.30541e-09 -9.64669e-09 )  
( -6.50665e-09 -1.64126e-09 -2.9714e-09 )  
( -9.83971e-09 -5.13943e-09 -1.28779e-09 )  
( -8.45247e-09 1.77877e-10 -2.24852e-09 )  
( -1.31877e-08 2.58995e-09 -1.10656e-09 )  
( -1.29089e-08 -1.28507e-09 -6.60114e-09 )  
( -4.59841e-09 -3.37105e-09 -2.95109e-09 )  
( -9.71815e-09 9.66767e-10 -7.33963e-09 )  
( -1.29485e-08 -4.03541e-09 -1.36105e-09 )  
( -1.05604e-08 -4.98062e-09 -3.61557e-09 )  
( -2.09865e-08 -1.02068e-09 -9.95488e-10 )  
( -1.75433e-08 -4.94871e-09 1.25217e-08 )  
( -1.97127e-08 -3.01761e-09 1.16175e-08 )  
( -1.75875e-08 -3.45315e-09 -1.63605e-09 )  
( -1.22203e-08 7.74253e-10 7.81635e-10 )  
( -1.65329e-08 -2.87326e-09 -1.28318e-09 )  
( -4.90219e-11 -1.67805e-09 -2.80064e-09 )  
( -2.19265e-08 -9.95876e-10 2.823e-09 )  
( -1.12738e-09 -2.41887e-09 -4.48259e-09 )  
( -1.8174e-08 -5.44454e-09 5.81564e-09 )  
( -8.50895e-09 3.64409e-10 -9.80269e-09 )  
( -1.95128e-08 -1.46356e-09 2.4928e-09 )  
( 1.32722e-09 -1.3737e-09 -5.33254e-09 )  
( -9.13961e-09 3.6905e-12 3.55954e-09 )  
( -1.0298e-08 -6.89947e-09 5.21936e-09 )  
( -1.76123e-08 -7.03874e-09 6.49599e-09 )  
( -3.07945e-08 -2.983e-09 2.20231e-09 )  
( -1.72037e-08 -1.56789e-09 -8.30847e-09 )  
( -6.33922e-09 2.27012e-09 -9.32455e-09 )  
( -3.80089e-09 -3.28592e-10 -7.44743e-09 )  
( -1.63552e-08 -5.1737e-09 -7.94694e-09 )  
( 3.16999e-09 1.23728e-09 -6.99173e-09 )  
( -7.22623e-09 -5.51569e-11 -8.21236e-09 )  
( -1.19327e-08 -4.45722e-09 5.75887e-10 )  
( -1.97051e-08 -6.99144e-09 -7.13296e-09 )  
( -1.47765e-08 -1.54677e-09 3.16708e-09 )  
( -1.43552e-08 -2.05892e-09 -5.05844e-09 )  
( -1.98591e-10 1.4412e-09 -1.1692e-08 )  
( -8.66415e-09 1.18126e-09 -3.91745e-09 )  
( -1.90539e-08 -6.46215e-09 1.49383e-09 )  
( -1.86297e-08 -4.55069e-09 1.15087e-08 )  
( -1.6349e-09 -1.42703e-09 -9.94653e-09 )  
( -1.89427e-08 -1.63726e-09 5.96506e-10 )  
( -5.36821e-09 -9.02693e-10 -2.31748e-09 )  
( 6.28325e-11 4.54483e-10 -4.47902e-09 )  
( -1.21066e-08 -5.47429e-09 1.5876e-09 )  
( -1.5943e-08 -5.78089e-09 -1.40568e-08 )  
( -6.09074e-09 -2.64664e-11 -2.61981e-09 )  
( -1.2326e-08 -2.2559e-09 -6.16443e-09 )  
( -2.34769e-08 -9.16242e-09 3.37937e-09 )  
( -8.27216e-09 -1.34789e-09 -2.05618e-09 )  
( -9.76669e-09 -9.32095e-10 -2.64858e-09 )  
( -1.11616e-08 -9.35285e-10 -7.63108e-09 )  
( -1.77668e-08 -3.0077e-10 1.05753e-08 )  
( 3.59931e-09 -1.34976e-09 -6.68344e-10 )  
( -9.32307e-09 -3.9683e-09 1.37176e-09 )  
( -1.67163e-08 -7.57904e-09 6.01296e-09 )  
( -7.69432e-09 -2.30612e-09 -3.60504e-09 )  
( -8.25999e-09 -4.84718e-09 2.68831e-09 )  
( -9.28261e-09 -1.79678e-09 -8.231e-10 )  
( -6.37734e-09 -3.23115e-09 -2.84055e-10 )  
( -1.33885e-08 -4.93463e-10 -4.73495e-09 )  
( -8.33067e-09 -6.05536e-09 4.64179e-09 )  
( 1.76727e-09 5.50044e-09 -5.86699e-09 )  
( -2.60159e-09 1.694e-10 -8.18396e-09 )  
( -1.94961e-08 -5.25259e-09 9.57188e-09 )  
( -2.12613e-08 -4.60472e-09 3.99191e-09 )  
( -6.09584e-09 -1.82103e-09 1.1266e-09 )  
( -4.50634e-09 -4.33138e-10 -2.93938e-09 )  
( -7.48084e-09 -3.38486e-09 -3.77187e-09 )  
( -1.54402e-08 -6.02052e-09 8.42813e-09 )  
( 2.85898e-09 -1.37586e-09 -3.96117e-09 )  
( -7.48238e-09 -2.51115e-09 -3.77125e-10 )  
( -7.63873e-09 1.24142e-10 -2.73853e-09 )  
( -1.67505e-08 -5.36923e-09 9.87883e-09 )  
( -1.25806e-08 1.41436e-09 7.81445e-10 )  
( -1.48166e-08 -8.06109e-10 1.96412e-09 )  
( -1.89353e-08 -6.97846e-09 1.0716e-08 )  
( 1.17674e-09 8.48203e-10 -1.88508e-09 )  
( -1.07042e-08 -3.77542e-09 -2.6527e-11 )  
( -7.284e-09 -6.37715e-09 6.10537e-09 )  
( -6.48955e-09 -5.84295e-09 5.08497e-09 )  
( -9.52611e-09 -5.5125e-09 1.60492e-09 )  
( -4.82831e-09 -2.96892e-09 -9.81127e-10 )  
( 1.96794e-09 -1.47211e-09 6.0987e-10 )  
( -6.74824e-09 -4.1074e-09 -2.71261e-09 )  
( -9.50461e-09 -1.40288e-09 -1.67306e-09 )  
( -1.4033e-08 -2.96055e-10 1.33513e-09 )  
( 4.99771e-09 -1.25117e-09 -4.09391e-09 )  
( 5.50621e-09 -2.86289e-09 -5.00907e-09 )  
( -1.42054e-08 -2.42949e-09 -1.4117e-09 )  
( -1.10163e-08 6.08506e-11 -6.47603e-09 )  
( -1.28974e-08 -1.68964e-09 -4.62966e-09 )  
( -9.20497e-09 -2.70157e-09 -3.37704e-09 )  
( -4.05301e-09 -2.24371e-09 -2.54208e-09 )  
( -7.69208e-09 -3.17463e-09 -2.10962e-10 )  
( -6.32191e-09 -8.9748e-10 2.0805e-09 )  
( -3.2931e-09 -6.16506e-09 2.74296e-09 )  
( -1.07123e-08 -5.07912e-09 2.40928e-09 )  
( -1.39382e-08 -2.87525e-09 -2.4727e-09 )  
( 5.76413e-09 -2.48651e-10 2.66238e-09 )  
( 1.78732e-09 4.04535e-09 -4.37625e-09 )  
( -1.20117e-08 -9.041e-09 4.27806e-09 )  
( 4.96616e-09 -3.60097e-09 -4.37426e-09 )  
( -9.35332e-09 -4.50077e-09 6.48918e-09 )  
( -6.29884e-09 -4.07009e-09 -8.20381e-10 )  
( -1.11953e-08 -7.82235e-09 3.39289e-09 )  
( -9.86732e-09 -1.86923e-09 -6.13578e-09 )  
( -8.30581e-09 -4.62308e-09 1.9781e-09 )  
( -4.56354e-09 -1.05594e-09 -1.60476e-09 )  
( -3.07595e-09 7.28222e-09 -2.59344e-10 )  
( -9.08032e-09 -6.33033e-10 8.9861e-10 )  
( -9.5326e-10 -1.61476e-09 -1.19266e-09 )  
( -5.5344e-09 2.2763e-11 -1.21383e-09 )  
( -1.17107e-08 -3.09664e-09 -3.48051e-10 )  
( -7.37836e-09 -4.80527e-09 2.88851e-09 )  
( 2.19657e-09 2.51823e-10 -1.34192e-09 )  
( -1.1306e-09 1.99559e-09 -2.90876e-09 )  
( -4.274e-09 -1.83958e-10 1.17661e-10 )  
( 1.16629e-08 -7.83893e-10 -3.72956e-09 )  
( -9.23823e-09 -1.25768e-08 2.95991e-09 )  
( 1.94853e-09 5.34132e-09 -3.15003e-09 )  
( -4.97818e-09 -2.26034e-09 3.92657e-10 )  
( -4.70797e-09 2.99177e-10 -2.61228e-09 )  
( -2.58692e-09 1.16946e-09 1.02285e-09 )  
( -2.4312e-09 -3.06491e-09 -1.89167e-09 )  
( -3.46692e-09 -6.041e-09 2.05713e-09 )  
( -1.14923e-08 -3.84342e-09 1.32478e-09 )  
( 6.40202e-09 -5.72304e-10 4.60286e-10 )  
( -2.12501e-09 -1.86472e-09 -2.86548e-10 )  
( -6.32179e-09 -2.62298e-09 2.40471e-09 )  
( -4.02836e-09 -8.36198e-09 1.31517e-09 )  
( -7.24759e-09 3.38538e-10 4.40207e-10 )  
( -5.77477e-09 -3.54422e-09 2.87861e-09 )  
( -3.20907e-09 -3.64984e-09 1.89156e-09 )  
( -8.08243e-09 -1.23385e-09 9.01449e-11 )  
( 7.85199e-10 -1.36468e-10 -1.10143e-09 )  
( -4.47944e-09 -2.01806e-09 1.19039e-09 )  
( 2.93393e-09 2.31909e-09 -2.59292e-09 )  
( -3.7766e-09 -2.7615e-09 4.20349e-09 )  
( 5.88875e-09 1.99711e-09 -2.00491e-09 )  
( -4.12687e-09 3.20481e-08 7.80673e-09 )  
( -3.26732e-09 -1.51285e-09 9.07588e-10 )  
( -8.20259e-09 -2.1632e-09 -1.63917e-09 )  
( 6.01733e-09 -2.29482e-09 -2.18779e-09 )  
( -7.47986e-09 -4.93834e-09 1.35394e-09 )  
( -2.56312e-09 1.05254e-08 1.48189e-09 )  
( -4.37384e-09 -2.79727e-09 -1.82444e-09 )  
( -4.25068e-09 -4.3714e-09 2.41037e-10 )  
( -1.2056e-09 6.58919e-09 -3.21257e-09 )  
( -8.34941e-09 -2.21893e-09 -1.0533e-09 )  
( -1.1969e-08 7.20339e-08 1.53307e-09 )  
( -7.81581e-09 -4.05581e-10 2.85869e-10 )  
( -1.76228e-09 -3.80308e-10 -7.15544e-10 )  
( -1.80379e-10 -4.64e-10 -4.62147e-10 )  
( -4.42906e-09 -2.90486e-09 2.8042e-09 )  
( -5.41902e-09 -2.30899e-09 5.91369e-10 )  
( -5.74788e-09 -1.42882e-09 -3.29448e-11 )  
)
