/*--------------------------------*- C++ -*----------------------------------*\
| =========                 |                                                 |
| \\      /  F ield         | OpenFOAM: The Open Source CFD Toolbox           |
|  \\    /   O peration     | Version:  4.x                                   |
|   \\  /    A nd           | Web:      www.OpenFOAM.org                      |
|    \\/     M anipulation  |                                                 |
\*---------------------------------------------------------------------------*/
FoamFile
{
    version     2.0;
    format      ascii;
    class       volScalarField;
    location    "50.5";
    object      alpha.iron;
}
// * * * * * * * * * * * * * * * * * * * * * * * * * * * * * * * * * * * * * //

dimensions      [0 0 0 0 0 0 0];

internalField   nonuniform List<scalar> 
87
(
1
1
1
1
1
1
1
1
0.995159
1
1
1
1
1
1
1
1
0.999317
1
1
1
1
1
1
1
1
0.999676
1
1
1
1
1
1
1
1
0.999793
1
1
1
1
1
1
1
1
0.999894
1
1
1
1
1
0.999999
0.999998
0.999998
0.999957
1
1
1
1
1
1
1
1
0.999905
1
1
1
1
1
1
0.999999
0.999999
0.999929
1
1
1
1
0.999999
0.999999
0.999998
0.999997
0.999958
1
1
1
1
1
1
)
;

boundaryField
{
    inlet
    {
        type            fixedValue;
        value           nonuniform 0();
    }
    outlet
    {
        type            fixedValue;
        value           uniform 1;
    }
    wall
    {
        type            zeroGradient;
    }
    procBoundary1to0
    {
        type            processor;
        value           nonuniform List<scalar> 
12
(
1
1
1
1
1
1
1
1
1
1
1
1
)
;
    }
    procBoundary1to3
    {
        type            processor;
        value           nonuniform List<scalar> 
27
(
1
1
1
1
1
1
1
1
0.999873
1
1
1
1
1
1
0.999999
0.999999
0.99993
1
1
1
1
0.999999
0.999999
0.999997
0.999996
0.999973
)
;
    }
    procBoundary1to5
    {
        type            processor;
        value           nonuniform List<scalar> 
32
(
1
1
1
1
1
0.999997
1
1
1
1
0.999999
0.999999
0.999981
1
1
1
0.999999
0.999998
0.999997
0.999994
0.999924
1
1
1
1
1
1
1
1
1
1
1
)
;
    }
    procBoundary1to7
    {
        type            processor;
        value           uniform 1;
    }
}


// ************************************************************************* //
