/*--------------------------------*- C++ -*----------------------------------*\
| =========                 |                                                 |
| \\      /  F ield         | OpenFOAM: The Open Source CFD Toolbox           |
|  \\    /   O peration     | Version:  4.x                                   |
|   \\  /    A nd           | Web:      www.OpenFOAM.org                      |
|    \\/     M anipulation  |                                                 |
\*---------------------------------------------------------------------------*/
FoamFile
{
    version     2.0;
    format      ascii;
    class       volVectorField;
    location    "50.5";
    object      DDtUrel;
}
// * * * * * * * * * * * * * * * * * * * * * * * * * * * * * * * * * * * * * //

dimensions      [0 1 -2 0 0 0 0];

internalField   nonuniform List<vector> 
87
(
(0.00026081 3.53758e-05 1.19073e-05)
(0.000185528 2.015e-05 -2.23727e-05)
(0.000202921 6.37119e-06 -3.01828e-05)
(5.63468e-05 -1.58152e-05 -8.67815e-05)
(8.09995e-05 -4.61926e-05 -9.8215e-05)
(-0.00034988 -0.000119737 -0.000270719)
(-0.00048274 -0.000201007 -0.000328242)
(-0.002311 -0.000484495 -0.000894846)
(-0.00440171 -0.000672585 -0.0015207)
(0.000228057 2.63251e-05 1.60667e-05)
(0.000153765 7.40166e-06 -1.06026e-05)
(0.000164529 2.89881e-06 -1.64288e-05)
(1.20214e-05 -3.31386e-05 -6.65733e-05)
(1.01828e-05 -3.78066e-05 -8.00422e-05)
(-0.000401763 -0.000132336 -0.000242522)
(-0.000620473 -0.000155166 -0.000336418)
(-0.00214217 -0.000509776 -0.000886977)
(-0.00390983 -0.000855092 -0.00144554)
(0.000171571 1.8448e-05 2.14722e-05)
(0.000103318 8.4309e-06 1.24101e-06)
(9.17902e-05 -4.14205e-06 -1.52019e-06)
(-4.43592e-05 -3.27566e-05 -5.52127e-05)
(-9.26276e-05 -5.05908e-05 -7.67074e-05)
(-0.00043792 -0.000113149 -0.000236691)
(-0.000685011 -0.000150547 -0.000346724)
(-0.00191519 -0.000389483 -0.000881169)
(-0.00333263 -0.000601857 -0.0014009)
(0.00017038 3.11248e-05 1.55614e-05)
(0.000107221 2.06543e-05 -7.95276e-06)
(9.50668e-05 8.67058e-06 -1.64837e-05)
(-2.97178e-05 -1.04102e-05 -5.50752e-05)
(-9.77165e-05 -3.7691e-05 -7.43326e-05)
(-0.000443086 -9.6283e-05 -0.000200673)
(-0.000796626 -0.000175832 -0.000281944)
(-0.00191599 -0.000335267 -0.000681569)
(-0.00320285 -0.000466297 -0.0011028)
(0.000142867 2.36929e-05 1.88577e-05)
(8.38724e-05 1.12442e-05 3.04173e-07)
(7.33628e-05 8.7504e-06 -7.36012e-06)
(-5.0134e-05 -2.03849e-05 -4.50428e-05)
(-0.000122853 -2.91891e-05 -6.75593e-05)
(-0.000449339 -9.91114e-05 -0.000189644)
(-0.000802471 -0.000139578 -0.000301211)
(-0.00179101 -0.000386347 -0.000723672)
(-0.0029488 -0.000622764 -0.00110883)
(0.000103344 1.23682e-05 2.06034e-05)
(5.36034e-05 3.83916e-06 5.91276e-06)
(1.85123e-05 -3.47493e-06 -3.25874e-06)
(-8.48708e-05 -2.14096e-05 -3.74375e-05)
(-0.000204194 -3.94445e-05 -7.24532e-05)
(-0.000473811 -7.69533e-05 -0.000191164)
(-0.000847337 -0.000127597 -0.000335099)
(-0.0016119 -0.000258721 -0.000771592)
(-0.0024672 -0.000370629 -0.00111867)
(0.000106679 3.04039e-05 9.20747e-06)
(4.04103e-05 1.98177e-05 -8.03602e-06)
(2.55562e-05 9.41709e-06 -1.10467e-05)
(-9.66809e-05 -1.6957e-05 -4.3808e-05)
(-0.000172693 -3.73375e-05 -4.21844e-05)
(-0.000478686 -9.38102e-05 -0.000137001)
(-0.000811223 -0.000150872 -0.00018114)
(-0.00161706 -0.000283143 -0.000478554)
(-0.00263418 -0.000388593 -0.000805798)
(9.09797e-05 2.1756e-05 1.48593e-05)
(3.44202e-05 7.98637e-06 8.09404e-07)
(1.7515e-05 4.95675e-06 -1.734e-06)
(-9.79871e-05 -2.37713e-05 -3.65282e-05)
(-0.000187538 -3.10915e-05 -4.80258e-05)
(-0.000470538 -9.73677e-05 -0.000140813)
(-0.00079671 -0.000127147 -0.000206781)
(-0.00153006 -0.000344187 -0.000513511)
(-0.00246003 -0.000547329 -0.000817599)
(5.45474e-05 1.07131e-05 1.39197e-05)
(1.18295e-05 3.01278e-06 3.4842e-06)
(-2.64336e-05 -1.51582e-06 -6.07187e-06)
(-0.000119959 -1.8857e-05 -3.09647e-05)
(-0.000243007 -3.14256e-05 -5.65385e-05)
(-0.000477049 -7.23693e-05 -0.000144148)
(-0.000829389 -0.000104073 -0.000237747)
(-0.00135425 -0.000262341 -0.000515091)
(-0.00203577 -0.000374015 -0.00076824)
(2.69193e-05 2.73821e-05 1.90007e-05)
(-2.53814e-05 1.70551e-05 9.45029e-06)
(-7.55371e-05 7.74625e-06 6.85046e-06)
(2.8358e-05 1.93675e-05 1.49401e-05)
(-1.25738e-05 1.02083e-05 8.48788e-06)
(1.38911e-05 8.68432e-06 1.09013e-05)
)
;

boundaryField
{
    inlet
    {
        type            calculated;
        value           nonuniform 0();
    }
    outlet
    {
        type            calculated;
        value           nonuniform List<vector> 9((-0.0163536 -0.00135483 -0.00505845) (-0.012843 -0.00401972 -0.0041934) (-0.0096926 -0.00163475 -0.00455791) (-0.00622021 -1.88825e-05 -0.002079) (-0.00595091 -0.00215969 -0.00220599) (-0.0024774 3.91274e-05 -0.00260773) (-0.00675609 -2.19648e-05 -0.00269906) (-0.00645341 -0.00235198 -0.0026327) (-0.00304984 -0.0014157 -0.00174714));
    }
    wall
    {
        type            calculated;
        value           nonuniform List<vector> 
57
(
(0.00086713 0.000105548 7.61205e-05)
(0.000816155 9.25365e-05 7.97964e-05)
(0.000421821 0.000116608 8.4601e-05)
(0.000222422 5.29671e-05 -0.000188266)
(0.000149223 -9.33071e-05 -0.000111775)
(-5.82183e-05 7.93201e-05 -6.97411e-05)
(0.00118195 3.7118e-05 4.37659e-05)
(0.0010779 9.80025e-05 9.58156e-05)
(0.00052071 7.43734e-05 0.000175004)
(-9.91231e-05 4.72102e-05 -0.000392125)
(-0.000248847 -0.000228177 -0.000224346)
(-0.000289199 -6.48971e-05 -0.000253552)
(0.00232107 4.1757e-05 0.000294773)
(0.00184501 0.00029164 0.000410088)
(0.0010244 2.16387e-05 0.000313044)
(-0.000870439 -0.000127893 -0.000944035)
(-0.000930281 -0.000563724 -0.000558141)
(-0.000593258 -0.000309097 -0.000607162)
(0.00639369 0.000236389 0.0012046)
(0.00393411 0.000997967 0.00104179)
(0.00301324 0.000203537 0.000948461)
(-0.00318847 -0.00117285 -0.00138049)
(-0.00259814 -0.00136346 -0.0013546)
(-0.0019496 -0.000875528 -0.00164815)
(-0.0163536 -0.00135483 -0.00505845)
(-0.012843 -0.00401972 -0.0041934)
(-0.0096926 -0.00163475 -0.00455791)
(0.00086713 0.000105548 7.61205e-05)
(0.000354361 6.89517e-05 8.68857e-05)
(0.000399762 9.72231e-05 -1.62194e-05)
(-0.000186481 0.000121578 6.97933e-05)
(0.000222422 5.29671e-05 -0.000188266)
(-2.18125e-05 5.83846e-05 -3.74068e-05)
(-0.000110717 6.13623e-05 -0.000135064)
(-0.000345056 5.21663e-05 3.96428e-07)
(0.00118195 3.7118e-05 4.37659e-05)
(0.000409235 3.6143e-05 7.83214e-05)
(0.000494889 8.21834e-05 1.86444e-05)
(-0.000547764 8.91004e-05 3.86237e-05)
(-9.91231e-05 4.72102e-05 -0.000392125)
(-0.000209994 8.31259e-05 -8.59608e-05)
(-0.000281885 -2.54073e-05 -0.00026695)
(0.00232107 4.1757e-05 0.000294773)
(0.000560877 6.25558e-05 0.000226673)
(0.000735504 0.000101494 0.000293918)
(-0.000870439 -0.000127893 -0.000944035)
(-0.000574245 4.43341e-05 -0.000360978)
(-0.000522747 -6.69955e-05 -0.000396512)
(0.00639369 0.000236389 0.0012046)
(0.000785876 -2.72169e-05 0.000641499)
(0.000743772 0.000133459 0.000698674)
(-0.00318847 -0.00117285 -0.00138049)
(-0.00146081 2.64433e-05 -0.000450781)
(-0.0010719 -4.97251e-05 -0.000672554)
(-0.0163536 -0.00135483 -0.00505845)
(-0.00622021 -1.88825e-05 -0.002079)
(-0.00675609 -2.19648e-05 -0.00269906)
)
;
    }
    procBoundary1to0
    {
        type            processor;
        value           nonuniform List<vector> 
12
(
(0.000265463 4.14946e-05 1.89821e-05)
(0.000223711 2.61874e-05 1.921e-05)
(0.000172437 1.51701e-05 2.2389e-05)
(0.000177457 3.36046e-05 2.34175e-05)
(0.000144414 2.10821e-05 2.25052e-05)
(0.000112806 1.1039e-05 2.19362e-05)
(0.000112424 3.07051e-05 1.36768e-05)
(9.17311e-05 1.68594e-05 1.49606e-05)
(6.7113e-05 9.01089e-06 1.70669e-05)
(4.96497e-05 2.33207e-05 2.12409e-05)
(4.50165e-05 1.68051e-05 1.59701e-05)
(3.53465e-05 8.07587e-06 1.29614e-05)
)
;
    }
    procBoundary1to3
    {
        type            processor;
        value           nonuniform List<vector> 
27
(
(0.000172928 -1.42925e-06 2.74175e-05)
(9.54428e-05 -6.40942e-06 1.30512e-05)
(8.43683e-05 -2.05225e-05 1.1337e-05)
(-7.31394e-05 -4.46452e-05 -3.09311e-05)
(-0.000134246 -5.06667e-05 -5.83324e-05)
(-0.000491641 -9.29164e-05 -0.000208396)
(-0.000754664 -7.15245e-05 -0.000342658)
(-0.00178239 -0.000269591 -0.000750243)
(-0.00304319 -0.000467402 -0.00115736)
(0.000108105 1.23667e-06 2.22061e-05)
(4.61113e-05 -3.27952e-06 9.60335e-06)
(2.11077e-05 -1.08784e-05 6.90653e-06)
(-9.94115e-05 -1.87793e-05 -3.0928e-05)
(-0.000198599 -2.73776e-05 -5.84005e-05)
(-0.000483316 -3.67761e-05 -0.000185829)
(-0.000807247 -5.21999e-05 -0.00031142)
(-0.00154054 -9.07546e-05 -0.000733125)
(-0.00245301 -0.000136393 -0.00107773)
(4.94061e-05 -4.87053e-07 1.62879e-05)
(4.62513e-06 -3.73822e-06 4.79994e-06)
(-3.60456e-05 -8.54821e-06 -2.17995e-06)
(-0.00012918 -1.44191e-05 -2.96389e-05)
(-0.000257406 -1.60146e-05 -5.37946e-05)
(-0.000482007 -2.48194e-05 -0.000145715)
(-0.000831537 -2.05142e-05 -0.000247079)
(-0.00130185 -6.91287e-05 -0.000543011)
(-0.00191478 -0.000107719 -0.000798023)
)
;
    }
    procBoundary1to5
    {
        type            processor;
        value           nonuniform List<vector> 
32
(
(-0.000150444 -2.05184e-05 -3.31009e-06)
(-0.000286215 -5.04439e-05 -1.19728e-05)
(-0.000479709 -9.59222e-05 -3.84266e-05)
(-0.000848044 -0.000162791 -7.43104e-05)
(-0.00136017 -0.000274725 -0.000145871)
(-0.00196999 -0.000383166 -0.000225039)
(-5.46529e-05 2.61217e-06 6.73204e-06)
(-0.000138729 -1.98563e-05 -7.37747e-06)
(-0.000265706 -4.21147e-05 -1.35746e-05)
(-0.000477258 -8.77015e-05 -5.2307e-05)
(-0.000828111 -0.000141985 -8.58238e-05)
(-0.00129225 -0.0002849 -0.000209585)
(-0.00190113 -0.000429518 -0.000316595)
(-1.66995e-05 1.93952e-06 5.18488e-06)
(-6.38116e-05 -6.34695e-06 1.22287e-06)
(-0.000140591 -1.75537e-05 -1.03228e-05)
(-0.000270548 -3.47996e-05 -2.27712e-05)
(-0.000468056 -6.17389e-05 -5.9324e-05)
(-0.000801494 -0.000104156 -0.000106617)
(-0.00117884 -0.00018042 -0.00020423)
(-0.00169068 -0.000248005 -0.000287026)
(4.65842e-05 1.68543e-05 2.40278e-05)
(-1.66272e-06 8.58794e-06 2.35307e-05)
(-0.000150444 -2.05184e-05 -3.31009e-06)
(-5.46529e-05 2.61217e-06 6.73204e-06)
(-1.64756e-05 4.34853e-06 2.25359e-05)
(2.58048e-05 1.48401e-05 1.2261e-05)
(-5.46529e-05 2.61217e-06 6.73204e-06)
(-1.66995e-05 1.93952e-06 5.18488e-06)
(-1.15591e-05 6.98339e-06 1.13792e-05)
(-1.66995e-05 1.93952e-06 5.18488e-06)
(8.89323e-06 5.36609e-06 7.58742e-06)
)
;
    }
    procBoundary1to7
    {
        type            processor;
        value           uniform (1.59195e-05 1.38595e-06 8.71325e-06);
    }
}


// ************************************************************************* //
