/*--------------------------------*- C++ -*----------------------------------*\
| =========                 |                                                 |
| \\      /  F ield         | OpenFOAM: The Open Source CFD Toolbox           |
|  \\    /   O peration     | Version:  4.x                                   |
|   \\  /    A nd           | Web:      www.OpenFOAM.org                      |
|    \\/     M anipulation  |                                                 |
\*---------------------------------------------------------------------------*/
FoamFile
{
    version     2.0;
    format      ascii;
    class       volScalarField;
    location    "50.5";
    object      Ksl;
}
// * * * * * * * * * * * * * * * * * * * * * * * * * * * * * * * * * * * * * //

dimensions      [1 -3 -1 0 0 0 0];

internalField   nonuniform List<scalar> 
87
(
3830.68
2565.58
3767.5
2403.8
3776.7
2117.94
4126.73
1686.12
5892.03
4463.49
2694.63
4406.42
2552.48
4520.65
2296.5
5075.81
1937.85
5880.69
5378.65
2965.23
5495.37
2867.64
5769.39
2645.78
6133.9
2201.42
6321.21
6051.8
3041.38
6122.83
2972.27
6495
2823
7860.67
2672.85
11944.3
11497
3399.57
12968.3
3287.83
15712.4
3049.41
16682.2
2798.24
10026.2
43122
3731.49
333118
3733.94
9.80186e+09
3857.35
48348.9
4115.25
7137.8
6363.25
3027
6683.47
2930.37
7348.71
2738.5
8640.79
2561.91
9038.32
12136.6
3350.45
12106.8
3195.28
12085.1
2981.4
11057.5
2699.83
7664.12
52061.1
3753.96
69472.6
3715.54
50237.4
3654.63
21498.2
3708.42
8032.58
8855.82
3362.54
12931.3
58367.5
3725.89
1e+10
)
;

boundaryField
{
    inlet
    {
        type            zeroGradient;
    }
    outlet
    {
        type            zeroGradient;
    }
    wall
    {
        type            zeroGradient;
    }
    procBoundary1to0
    {
        type            processor;
        value           nonuniform List<scalar> 
12
(
2617.37
2818.1
3038.67
3117.51
3487.09
3714.6
3120.44
3483.73
3761.32
3325.71
3732.68
4101.82
)
;
    }
    procBoundary1to3
    {
        type            processor;
        value           nonuniform List<scalar> 
27
(
4876.2
2747.11
4722.44
2575.99
4834.79
2373.17
5582.37
2082.65
6456.71
16133.7
3438.77
18860.6
3280.92
21296.7
3066.45
20444.3
2778.93
8454.04
27618.7
3633.31
33024.9
3568.93
28719.7
3549.9
20344.1
3704.38
7983.16
)
;
    }
    procBoundary1to5
    {
        type            processor;
        value           nonuniform List<scalar> 
32
(
3618.77
37421.9
4122.59
1e+10
5624.21
58671.3
328681
3711.25
190392
3776.42
56188
4126.72
11825.9
4170.7
1e+10
4213.77
1e+10
4300.76
1e+10
4825.11
15104
7168.15
3073.81
3618.77
328681
7366.17
31333
328681
4170.7
3549.06
4170.7
1e+10
)
;
    }
    procBoundary1to7
    {
        type            processor;
        value           uniform 65922.5;
    }
}


// ************************************************************************* //
