/*--------------------------------*- C++ -*----------------------------------*\
| =========                 |                                                 |
| \\      /  F ield         | OpenFOAM: The Open Source CFD Toolbox           |
|  \\    /   O peration     | Version:  4.x                                   |
|   \\  /    A nd           | Web:      www.OpenFOAM.org                      |
|    \\/     M anipulation  |                                                 |
\*---------------------------------------------------------------------------*/
FoamFile
{
    version     2.0;
    format      ascii;
    class       volScalarField;
    location    "50.5";
    object      p_rgh;
}
// * * * * * * * * * * * * * * * * * * * * * * * * * * * * * * * * * * * * * //

dimensions      [1 -1 -2 0 0 0 0];

internalField   nonuniform List<scalar> 
87
(
19.1545
74.8621
-0.628391
69.2387
-21.9803
65.3822
-46.6911
65.7921
-54.7496
18.581
74.8354
-1.13656
69.2125
-22.6491
65.3828
-46.9582
65.2421
-73.9557
19.3208
75.0802
0.165707
69.0083
-20.4138
64.0292
-42.0427
61.322
-66.6253
19.3916
75.1429
0.269413
69.0833
-19.8077
63.8595
-40.7421
60.065
-60.9933
18.9231
75.1084
-0.364431
69.0227
-20.8672
63.8133
-42.0171
60.277
-63.1076
19.5993
75.3318
0.69125
68.6136
-18.2589
62.3824
-35.8487
56.0102
-51.787
19.1443
74.8937
-0.361788
68.9696
-21.1516
64.3122
-43.1519
62.0556
-65.8355
18.5981
74.7863
-1.1372
68.7124
-21.7654
63.8123
-43.3017
61.3117
-65.5725
20.1244
74.8519
1.35282
68.4459
-17.7827
62.7851
-36.6602
58.1246
-54.1536
20.557
75.6018
2.16253
20.3425
75.2258
22.5522
)
;

boundaryField
{
    inlet
    {
        type            fixedFluxPressure;
        gradient        nonuniform 0();
        value           nonuniform 0();
    }
    outlet
    {
        type            fixedValue;
        value           uniform 0;
    }
    wall
    {
        type            fixedFluxPressure;
        gradient        nonuniform List<scalar> 
57
(
-0.000195472
-0.000101437
-4.99297e-05
-0.000531852
-0.000117722
-4.50445e-05
-0.000125888
-7.00278e-05
-4.72849e-05
-8.42178e-06
-4.3188e-06
-6.81814e-06
-1.07601e-06
-1.43209e-06
3.52987e-07
3.118e-06
5.64511e-06
2.5933e-06
1.35556e-05
2.66366e-05
1.34361e-05
3.97825e-05
1.41931e-05
1.41493e-05
0.000215996
9.56332e-05
1.36095e-05
-5.46709e-05
-6.06068e-05
-3.05713e-06
-5.5176e-06
-0.00544077
-1.92561e-05
-1.07022e-05
-6.36299e-06
-9.13154e-06
-2.19697e-05
-2.08921e-05
-1.73899e-05
2.89987e-06
7.14237e-06
1.77502e-06
-1.83311e-06
-2.2678e-06
7.65666e-07
4.02175e-06
6.00652e-07
5.84857e-07
1.2629e-05
6.46865e-06
-4.62514e-07
-9.87213e-06
6.96457e-06
6.25191e-07
8.15195e-05
6.40026e-05
5.31892e-06
)
;
        value           nonuniform List<scalar> 
57
(
19.1545
18.581
19.3208
74.8621
74.8354
75.0802
-0.628393
-1.13656
0.165706
69.2387
69.2125
69.0083
-21.9803
-22.6491
-20.4138
65.3822
65.3828
64.0292
-46.6911
-46.9582
-42.0427
65.7921
65.2421
61.322
-54.7496
-73.9557
-66.6253
19.1545
19.3916
19.1443
20.557
74.862
75.1429
74.8937
75.6018
-0.628391
0.269412
-0.361789
2.16253
69.2387
69.0833
68.9696
-21.9803
-19.8077
-21.1516
65.3822
63.8595
64.3122
-46.6911
-40.7421
-43.1519
65.7921
60.065
62.0556
-54.7496
-60.9933
-65.8355
)
;
    }
    procBoundary1to0
    {
        type            processor;
        value           nonuniform List<scalar> 
12
(
81.1269
81.0977
81.5404
81.6018
81.6623
82.1537
81.3534
81.4133
81.7883
82.1392
82.1973
82.0452
)
;
    }
    procBoundary1to3
    {
        type            processor;
        value           nonuniform List<scalar> 
27
(
18.2821
74.5557
-1.92071
68.7954
-22.8548
64.7732
-45.9229
64.2471
-71.8337
18.2332
74.8534
-1.64861
68.661
-22.3345
63.4685
-43.868
60.6202
-64.5746
19.2582
74.7461
-0.129921
68.2904
-19.6955
62.9169
-38.9036
58.8269
-55.7348
)
;
    }
    procBoundary1to5
    {
        type            processor;
        value           nonuniform List<scalar> 
32
(
69.2208
-16.0905
62.5185
-33.0138
55.7926
-46.7323
1.44625
68.5099
-17.0512
62.2656
-35.124
56.3819
-50.8652
75.1145
4.96354
68.4235
-12.4061
61.662
-29.2587
53.7393
-44.4154
19.582
74.8838
69.2208
1.44625
0.377434
19.7694
1.44625
75.1145
75.019
75.1145
21.1575
)
;
    }
    procBoundary1to7
    {
        type            processor;
        value           uniform 20.7768;
    }
}


// ************************************************************************* //
