/*--------------------------------*- C++ -*----------------------------------*\
| =========                 |                                                 |
| \\      /  F ield         | OpenFOAM: The Open Source CFD Toolbox           |
|  \\    /   O peration     | Version:  4.x                                   |
|   \\  /    A nd           | Web:      www.OpenFOAM.org                      |
|    \\/     M anipulation  |                                                 |
\*---------------------------------------------------------------------------*/
FoamFile
{
    version     2.0;
    format      ascii;
    class       volScalarField;
    location    "50.5";
    object      pSmooth;
}
// * * * * * * * * * * * * * * * * * * * * * * * * * * * * * * * * * * * * * //

dimensions      [1 -1 -2 0 0 0 0];

internalField   nonuniform List<scalar> 
87
(
19.1393
74.8211
0.1
69.1521
0.1
65.2497
0.1
65.709
0.1
18.5782
74.7841
0.1
69.119
0.1
65.2287
0.1
65.097
0.1
19.3258
75.04
0.1
68.9479
0.1
63.9271
0.1
61.1029
0.1
19.3836
75.1147
0.20843
69.0142
0.1
63.7375
0.1
59.9945
0.1
18.9216
75.0794
0.1
68.9605
0.1
63.6438
0.1
60.1279
0.1
19.6078
75.3323
0.657898
68.593
0.1
62.2273
0.1
55.8359
0.1
19.1318
74.878
0.1
68.9248
0.1
64.224
0.1
62.023
0.1
18.5916
74.7798
0.1
68.6805
0.1
63.7077
0.1
61.2338
0.1
20.1158
74.8576
1.3322
68.4463
0.1
62.7281
0.1
58.087
0.1
20.5398
75.5882
2.14177
20.3284
75.2264
22.5329
)
;

boundaryField
{
    inlet
    {
        type            zeroGradient;
    }
    outlet
    {
        type            fixedValue;
        value           uniform 0;
    }
    wall
    {
        type            zeroGradient;
    }
    procBoundary1to0
    {
        type            processor;
        value           nonuniform List<scalar> 
12
(
81.168
81.1409
81.5831
81.6371
81.6982
82.187
81.3724
81.4325
81.8008
82.1419
82.2013
82.045
)
;
    }
    procBoundary1to3
    {
        type            processor;
        value           nonuniform List<scalar> 
27
(
18.3163
74.6377
0.1
68.8773
0.1
64.8362
0.1
63.852
0.1
18.2558
74.8917
0.1
68.6993
0.1
63.5944
0.1
60.6471
0.1
19.2564
74.7633
0.1
68.3122
0.1
62.979
0.1
58.8697
0.1
)
;
    }
    procBoundary1to5
    {
        type            processor;
        value           nonuniform List<scalar> 
32
(
69.1908
0.1
62.4667
0.1
55.7793
0.1
1.49567
68.4926
0.1
62.2028
0.1
56.3344
0.1
75.1171
4.96035
68.4199
0.1
61.6442
0.1
53.7405
0.1
19.552
74.858
69.1908
1.49567
0.329493
19.7225
1.49567
75.1171
74.9894
75.1171
21.1245
)
;
    }
    procBoundary1to7
    {
        type            processor;
        value           uniform 20.7896;
    }
}


// ************************************************************************* //
