/*--------------------------------*- C++ -*----------------------------------*\
| =========                 |                                                 |
| \\      /  F ield         | OpenFOAM: The Open Source CFD Toolbox           |
|  \\    /   O peration     | Version:  4.x                                   |
|   \\  /    A nd           | Web:      www.OpenFOAM.org                      |
|    \\/     M anipulation  |                                                 |
\*---------------------------------------------------------------------------*/
FoamFile
{
    version     2.0;
    format      ascii;
    class       volScalarField;
    location    "50.5";
    object      Qsource;
}
// * * * * * * * * * * * * * * * * * * * * * * * * * * * * * * * * * * * * * //

dimensions      [1 -1 -3 0 0 0 0];

internalField   nonuniform List<scalar> 
87
(
5.90905e+09
9.30891e+09
5.83518e+09
8.91713e+09
5.99095e+09
7.44429e+09
6.73316e+09
9.61949e+09
5.0489e+09
5.25094e+09
5.51406e+09
6.57177e+09
6.88217e+09
5.1085e+09
7.88923e+09
8.29237e+09
8.12075e+09
4.56777e+09
4.56167e+09
8.09246e+09
6.83012e+09
9.98275e+09
6.87834e+09
6.90583e+09
6.31547e+09
7.5372e+09
4.81818e+09
7.97781e+09
7.55323e+09
6.68687e+09
8.55984e+09
6.87713e+09
8.83899e+09
9.48692e+09
9.95832e+09
5.63612e+09
9.0179e+09
6.72083e+09
7.56591e+09
9.42806e+09
9.20535e+09
7.72939e+09
9.41826e+09
1.05789e+10
4.72828e+09
7.91242e+09
8.48446e+09
7.18615e+09
6.80759e+09
5.80119e+09
9.32209e+09
9.46887e+09
1.32098e+10
4.48298e+09
7.63462e+09
7.95071e+09
8.7203e+09
1.05843e+10
6.5491e+09
1.06668e+10
7.97959e+09
8.4601e+09
3.55834e+09
6.48089e+09
8.86083e+09
6.50001e+09
8.10913e+09
8.19599e+09
9.09586e+09
7.64604e+09
9.46714e+09
3.71337e+09
9.44207e+09
7.86938e+09
5.46794e+09
1.11377e+10
8.86882e+09
1.07153e+10
7.50763e+09
9.703e+09
3.38754e+09
6.85515e+09
6.37472e+09
7.87516e+09
7.85921e+09
1.22014e+10
5.90091e+09
)
;

boundaryField
{
    inlet
    {
        type            calculated;
        value           nonuniform 0();
    }
    outlet
    {
        type            calculated;
        value           uniform 0;
    }
    wall
    {
        type            calculated;
        value           uniform 0;
    }
    procBoundary1to0
    {
        type            processor;
        value           nonuniform List<scalar> 
12
(
4.19935e+09
6.28075e+09
9.47675e+09
8.19886e+09
8.9682e+09
6.34492e+09
6.33664e+09
1.01403e+10
5.3922e+09
6.89874e+09
6.92803e+09
9.33318e+09
)
;
    }
    procBoundary1to3
    {
        type            processor;
        value           nonuniform List<scalar> 
27
(
9.15323e+09
4.90359e+09
7.41315e+09
4.33808e+09
5.68323e+09
4.96839e+09
6.22632e+09
6.56194e+09
3.41896e+09
8.56476e+09
8.1002e+09
1.02942e+10
1.06765e+10
8.55949e+09
8.02581e+09
6.8972e+09
8.65653e+09
7.7353e+09
8.27062e+09
1.10414e+10
9.30057e+09
1.04023e+10
6.65517e+09
7.88588e+09
9.22055e+09
8.50001e+09
7.03218e+09
)
;
    }
    procBoundary1to5
    {
        type            processor;
        value           nonuniform List<scalar> 
32
(
8.64824e+09
7.36406e+09
7.73129e+09
5.71962e+09
8.42219e+09
5.94075e+09
7.27252e+09
7.05651e+09
5.91672e+09
8.28035e+09
8.52422e+09
1.01495e+10
6.5613e+09
9.95853e+09
6.15163e+09
8.71963e+09
5.8919e+09
5.32156e+09
7.46944e+09
6.26114e+09
6.64722e+09
7.10614e+09
6.5984e+09
8.64824e+09
7.27252e+09
8.02052e+09
8.11387e+09
7.27252e+09
9.95853e+09
8.24313e+09
9.95853e+09
8.51624e+09
)
;
    }
    procBoundary1to7
    {
        type            processor;
        value           uniform 1.01554e+10;
    }
}


// ************************************************************************* //
