/*--------------------------------*- C++ -*----------------------------------*\
| =========                 |                                                 |
| \\      /  F ield         | OpenFOAM: The Open Source CFD Toolbox           |
|  \\    /   O peration     | Version:  4.x                                   |
|   \\  /    A nd           | Web:      www.OpenFOAM.org                      |
|    \\/     M anipulation  |                                                 |
\*---------------------------------------------------------------------------*/
FoamFile
{
    version     2.0;
    format      ascii;
    class       volScalarField;
    location    "50.5";
    object      QWallFluid;
}
// * * * * * * * * * * * * * * * * * * * * * * * * * * * * * * * * * * * * * //

dimensions      [1 -1 -3 0 0 0 0];

internalField   nonuniform List<scalar> 
87
(
1.61183e+09
2.25057e+09
1.63786e+09
2.36099e+09
1.62038e+09
2.56253e+09
1.48914e+09
3.03186e+09
1.06851e+09
7.17219e+08
1.08159e+09
7.26598e+08
1.13181e+09
7.079e+08
1.21377e+09
6.33818e+08
1.37595e+09
5.4127e+08
6.13322e+08
9.94957e+08
6.01806e+08
1.02012e+09
5.76618e+08
1.07875e+09
5.40636e+08
1.22552e+09
5.06992e+08
5.51137e+08
9.60889e+08
5.47627e+08
9.80145e+08
5.17188e+08
1.00281e+09
4.35854e+08
1.02814e+09
2.99257e+08
0
0
0
0
0
0
0
0
0
0
0
0
0
0
0
0
0
0
5.15483e+08
9.42448e+08
4.96136e+08
9.64816e+08
4.55242e+08
9.97218e+08
3.92088e+08
1.03546e+09
3.65568e+08
0
0
0
0
0
0
0
0
0
0
0
0
0
0
0
0
0
0
3.876e+08
8.41857e+08
2.83656e+08
0
0
0
)
;

boundaryField
{
    inlet
    {
        type            calculated;
        value           nonuniform 0();
    }
    outlet
    {
        type            calculated;
        value           uniform 0;
    }
    wall
    {
        type            calculated;
        value           uniform 0;
    }
    procBoundary1to0
    {
        type            processor;
        value           nonuniform List<scalar> 
12
(
2.18186e+09
1.03734e+09
9.70869e+08
9.39556e+08
0
0
9.19605e+08
0
0
8.60533e+08
0
0
)
;
    }
    procBoundary1to3
    {
        type            processor;
        value           nonuniform List<scalar> 
27
(
6.60169e+08
1.04624e+09
6.75528e+08
1.10021e+09
6.606e+08
1.16366e+09
5.76676e+08
1.25012e+09
4.9147e+08
0
0
0
0
0
0
0
0
0
0
0
0
0
0
0
0
0
0
)
;
    }
    procBoundary1to5
    {
        type            processor;
        value           nonuniform List<scalar> 
32
(
7.9037e+08
1.19735e+08
6.99358e+08
5122.04
5.29861e+08
7.89008e+07
0
0
0
0
0
0
0
0
0
0
0
0
0
0
0
4.54011e+08
8.96961e+08
7.9037e+08
0
4.41459e+08
0
0
0
0
0
0
)
;
    }
    procBoundary1to7
    {
        type            processor;
        value           uniform 0;
    }
}


// ************************************************************************* //
