/*--------------------------------*- C++ -*----------------------------------*\
| =========                 |                                                 |
| \\      /  F ield         | OpenFOAM: The Open Source CFD Toolbox           |
|  \\    /   O peration     | Version:  4.x                                   |
|   \\  /    A nd           | Web:      www.OpenFOAM.org                      |
|    \\/     M anipulation  |                                                 |
\*---------------------------------------------------------------------------*/
FoamFile
{
    version     2.0;
    format      ascii;
    class       volVectorField;
    location    "50.5";
    object      UsNext;
}
// * * * * * * * * * * * * * * * * * * * * * * * * * * * * * * * * * * * * * //

dimensions      [0 1 -1 0 0 0 0];

internalField   nonuniform List<vector> 
87
(
(9.48156e-09 7.05984e-09 2.52419e-08)
(-4.15975e-08 1.03826e-06 1.01494e-07)
(-1.18108e-08 1.18652e-09 1.63574e-08)
(-6.52956e-09 -5.86537e-10 1.70342e-09)
(-2.61123e-09 2.35986e-10 1.3852e-10)
(-3.00031e-10 -9.17789e-10 -7.11546e-10)
(2.41599e-09 -1.47015e-09 -1.57802e-09)
(1.7756e-07 2.81309e-09 -1.13361e-08)
(9.15692e-08 -6.67813e-09 -1.76945e-08)
(3.15512e-09 -4.97225e-09 1.11819e-08)
(1.58939e-09 -8.3615e-09 2.14221e-08)
(-1.25855e-08 -7.00533e-09 7.73628e-09)
(-2.72676e-09 -2.02815e-09 8.20794e-10)
(2.41187e-10 -3.22442e-09 1.5363e-10)
(7.08676e-10 -1.71743e-10 -1.18298e-09)
(1.0822e-09 -1.26087e-09 -2.50449e-09)
(-1.19292e-10 -4.09499e-09 -3.51639e-09)
(-2.65716e-09 -1.17837e-08 -7.86433e-09)
(3.56272e-09 -6.18661e-09 4.5207e-09)
(1.71653e-09 -9.34226e-09 7.35223e-09)
(1.87214e-09 -5.47815e-09 4.14138e-09)
(2.57055e-10 -1.39137e-09 1.13984e-09)
(5.62894e-10 -1.16057e-09 -2.94194e-11)
(1.31413e-09 -2.59626e-10 -4.71412e-10)
(2.02468e-09 -3.2322e-10 -1.04768e-09)
(1.64152e-09 -2.40117e-09 -3.07878e-09)
(3.09763e-09 -1.34002e-10 -1.03713e-09)
(-5.82726e-09 4.82515e-09 1.71803e-08)
(4.19367e-10 3.04754e-09 3.96909e-08)
(2.50761e-09 1.72065e-09 1.46703e-08)
(2.00031e-09 -1.14424e-09 1.01353e-09)
(3.48781e-10 1.65849e-10 5.53113e-10)
(2.59622e-10 -1.00288e-10 -4.44301e-10)
(1.03304e-09 -3.84772e-10 -1.18442e-09)
(8.8393e-10 -1.22448e-09 -2.88346e-09)
(2.11012e-11 -2.54044e-09 -5.68671e-09)
(-3.36746e-09 8.71147e-10 1.19549e-08)
(-1.44303e-09 -2.92452e-09 1.96133e-08)
(2.95572e-09 1.5087e-09 1.00723e-08)
(3.32604e-10 -1.72627e-09 1.47267e-09)
(2.99409e-10 -8.52932e-10 -1.9415e-11)
(5.58561e-10 -2.96296e-10 -9.52149e-10)
(1.20208e-09 -7.71839e-10 -1.95006e-09)
(1.38499e-09 -1.26085e-09 -2.56687e-09)
(3.65984e-09 -2.98259e-09 -5.3027e-09)
(1.29871e-09 -1.17991e-09 3.78333e-09)
(2.02688e-09 -1.51045e-09 6.6159e-09)
(2.12177e-09 -1.09174e-09 3.47626e-09)
(7.12947e-10 -1.5447e-09 1.46482e-09)
(1.03106e-09 -1.18317e-09 -2.67367e-10)
(1.3364e-09 -5.67748e-10 -7.67776e-10)
(2.15989e-09 -2.54283e-10 -1.72302e-09)
(2.6113e-09 -5.59581e-10 -1.09566e-09)
(1.00036e-09 -1.61487e-09 -2.42057e-09)
(-1.23571e-09 2.27011e-10 3.3268e-09)
(3.37581e-11 1.66804e-09 4.94348e-09)
(1.1672e-10 1.46055e-09 6.66175e-09)
(1.57902e-09 -2.81514e-10 1.20251e-09)
(9.30124e-10 -4.84589e-11 4.53791e-10)
(4.20438e-10 -9.83883e-11 -3.63651e-10)
(2.938e-10 2.46881e-11 -5.23826e-10)
(-4.76331e-10 -1.13374e-10 -8.17082e-10)
(1.40807e-10 -2.76203e-10 -2.18096e-09)
(-1.24654e-09 1.08767e-09 4.80018e-09)
(1.528e-09 6.63982e-10 6.38174e-09)
(2.10877e-09 6.19293e-10 7.53107e-09)
(1.11919e-09 -5.23337e-10 2.11189e-09)
(1.14201e-09 -1.83055e-10 2.9234e-10)
(7.53109e-10 2.40706e-10 -5.90997e-10)
(7.62985e-10 1.27735e-11 -1.13121e-09)
(6.24551e-10 -4.32928e-10 -1.57193e-09)
(6.36893e-11 -5.14106e-10 -8.36017e-10)
(1.03581e-09 8.037e-10 3.1228e-09)
(1.97772e-09 1.30421e-09 4.25079e-09)
(2.47618e-09 1.49972e-09 4.88685e-09)
(2.13392e-09 2.51122e-10 1.71557e-09)
(1.67683e-09 -1.40287e-10 8.91562e-11)
(1.5414e-09 -2.28717e-11 -6.31945e-10)
(1.39894e-09 -2.31129e-11 -1.13076e-09)
(1.1537e-09 3.51366e-11 -1.02302e-09)
(7.37816e-10 -7.49769e-10 -4.43318e-10)
(-1.68179e-10 2.90531e-10 2.04303e-09)
(6.85291e-10 8.80381e-10 6.6979e-10)
(7.89605e-10 6.18535e-10 1.59124e-09)
(-2.30003e-10 7.24479e-10 2.22039e-09)
(1.23992e-09 1.1502e-09 3.67658e-09)
(7.8688e-10 6.62007e-10 1.83025e-09)
)
;

boundaryField
{
    inlet
    {
        type            calculated;
        value           nonuniform 0();
    }
    outlet
    {
        type            calculated;
        value           nonuniform List<vector> 9((9.15692e-08 -6.67813e-09 -1.76945e-08) (-2.65716e-09 -1.17837e-08 -7.86433e-09) (3.09763e-09 -1.34002e-10 -1.03713e-09) (2.11012e-11 -2.54044e-09 -5.68671e-09) (3.65984e-09 -2.98259e-09 -5.3027e-09) (1.00036e-09 -1.61487e-09 -2.42057e-09) (1.40807e-10 -2.76203e-10 -2.18096e-09) (6.36893e-11 -5.14106e-10 -8.36017e-10) (7.37816e-10 -7.49769e-10 -4.43318e-10));
    }
    wall
    {
        type            calculated;
        value           nonuniform List<vector> 
57
(
(9.48156e-09 7.05984e-09 2.52419e-08)
(3.15512e-09 -4.97225e-09 1.11819e-08)
(3.56272e-09 -6.18661e-09 4.5207e-09)
(-4.15975e-08 1.03826e-06 1.01494e-07)
(1.58939e-09 -8.3615e-09 2.14221e-08)
(1.71653e-09 -9.34226e-09 7.35223e-09)
(-1.18108e-08 1.18652e-09 1.63574e-08)
(-1.25855e-08 -7.00533e-09 7.73628e-09)
(1.87214e-09 -5.47815e-09 4.14138e-09)
(-6.52956e-09 -5.86537e-10 1.70342e-09)
(-2.72676e-09 -2.02815e-09 8.20794e-10)
(2.57055e-10 -1.39137e-09 1.13984e-09)
(-2.61123e-09 2.35986e-10 1.3852e-10)
(2.41187e-10 -3.22442e-09 1.5363e-10)
(5.62894e-10 -1.16057e-09 -2.94194e-11)
(-3.00031e-10 -9.17789e-10 -7.11546e-10)
(7.08676e-10 -1.71743e-10 -1.18298e-09)
(1.31413e-09 -2.59626e-10 -4.71412e-10)
(2.41599e-09 -1.47015e-09 -1.57802e-09)
(1.0822e-09 -1.26087e-09 -2.50449e-09)
(2.02468e-09 -3.2322e-10 -1.04768e-09)
(1.7756e-07 2.81309e-09 -1.13361e-08)
(-1.19292e-10 -4.09499e-09 -3.51639e-09)
(1.64152e-09 -2.40117e-09 -3.07878e-09)
(9.15692e-08 -6.67813e-09 -1.76945e-08)
(-2.65716e-09 -1.17837e-08 -7.86433e-09)
(3.09763e-09 -1.34002e-10 -1.03713e-09)
(9.48156e-09 7.05984e-09 2.52419e-08)
(-5.82726e-09 4.82515e-09 1.71803e-08)
(-1.23571e-09 2.27011e-10 3.3268e-09)
(-1.68179e-10 2.90531e-10 2.04303e-09)
(-4.15975e-08 1.03826e-06 1.01494e-07)
(4.19367e-10 3.04754e-09 3.96909e-08)
(3.37581e-11 1.66804e-09 4.94348e-09)
(6.85291e-10 8.80381e-10 6.6979e-10)
(-1.18108e-08 1.18652e-09 1.63574e-08)
(2.50761e-09 1.72065e-09 1.46703e-08)
(1.1672e-10 1.46055e-09 6.66175e-09)
(7.89605e-10 6.18535e-10 1.59124e-09)
(-6.52956e-09 -5.86537e-10 1.70342e-09)
(2.00031e-09 -1.14424e-09 1.01353e-09)
(1.57902e-09 -2.81514e-10 1.20251e-09)
(-2.61123e-09 2.35986e-10 1.3852e-10)
(3.48781e-10 1.65849e-10 5.53113e-10)
(9.30124e-10 -4.84589e-11 4.53791e-10)
(-3.00031e-10 -9.17789e-10 -7.11546e-10)
(2.59622e-10 -1.00288e-10 -4.44301e-10)
(4.20438e-10 -9.83883e-11 -3.63651e-10)
(2.41599e-09 -1.47015e-09 -1.57802e-09)
(1.03304e-09 -3.84772e-10 -1.18442e-09)
(2.938e-10 2.46881e-11 -5.23826e-10)
(1.7756e-07 2.81309e-09 -1.13361e-08)
(8.8393e-10 -1.22448e-09 -2.88346e-09)
(-4.76331e-10 -1.13374e-10 -8.17082e-10)
(9.15692e-08 -6.67813e-09 -1.76945e-08)
(2.11012e-11 -2.54044e-09 -5.68671e-09)
(1.40807e-10 -2.76203e-10 -2.18096e-09)
)
;
    }
    procBoundary1to0
    {
        type            processor;
        value           nonuniform List<vector> 
12
(
(-3.27883e-10 1.12495e-10 3.69904e-10)
(2.65782e-09 -2.14018e-09 3.6969e-09)
(1.89739e-09 -1.80206e-09 2.071e-09)
(-1.79812e-09 -1.27335e-09 3.07765e-09)
(-8.36758e-10 5.5451e-10 4.4917e-09)
(9.23107e-10 -1.21874e-10 2.68053e-09)
(-1.75696e-09 -5.8542e-10 3.98877e-09)
(-2.28571e-09 2.0204e-09 4.49828e-09)
(-6.70439e-10 2.08011e-09 2.98086e-09)
(-4.00437e-10 -1.78047e-10 2.7081e-09)
(-7.13241e-10 6.63945e-10 1.782e-09)
(-6.47774e-11 1.09841e-09 1.97364e-09)
)
;
    }
    procBoundary1to3
    {
        type            processor;
        value           nonuniform List<vector> 
27
(
(2.08339e-09 -3.34861e-09 1.45694e-09)
(2.73209e-09 -5.02979e-09 1.86021e-09)
(3.52167e-09 -7.18241e-09 3.76858e-10)
(1.94747e-09 -2.1855e-09 4.61214e-11)
(1.25361e-09 -9.79218e-10 -5.20841e-10)
(1.87902e-09 -3.27269e-10 -6.59354e-10)
(1.32829e-09 -3.06336e-10 -2.51334e-10)
(-3.49809e-09 -1.23432e-11 3.14001e-10)
(-8.55171e-09 -5.38811e-10 7.1946e-10)
(2.07071e-09 -2.04787e-09 1.22061e-09)
(2.20517e-09 -9.46189e-10 1.25059e-09)
(1.97695e-09 -1.31825e-09 8.95894e-10)
(1.92835e-09 -7.17132e-10 2.12923e-10)
(1.9804e-09 -6.37649e-10 -5.08311e-10)
(1.89283e-09 -3.83669e-10 -9.34121e-10)
(1.59524e-09 -1.33271e-10 -1.252e-09)
(8.37627e-10 3.46988e-10 1.13553e-10)
(-6.08753e-10 -5.63194e-10 3.89769e-10)
(1.88499e-09 -1.62092e-10 1.11807e-09)
(2.09804e-09 8.52956e-11 1.46139e-09)
(2.01539e-09 1.06984e-09 2.00133e-09)
(2.22823e-09 -2.43025e-10 5.2178e-10)
(2.1245e-09 -3.94271e-10 -2.65516e-10)
(1.91706e-09 -2.59381e-11 -1.02907e-09)
(1.56907e-09 -5.07072e-11 -1.26724e-09)
(1.12935e-09 3.63487e-11 -8.1161e-10)
(8.27446e-10 -1.01426e-10 -3.14091e-10)
)
;
    }
    procBoundary1to5
    {
        type            processor;
        value           nonuniform List<vector> 
32
(
(1.34535e-09 -1.58527e-10 1.19109e-09)
(9.15946e-10 -1.41304e-10 2.59094e-10)
(8.41507e-10 -1.02096e-10 -2.13424e-10)
(3.59606e-10 4.07258e-12 -4.13494e-10)
(4.15024e-10 -9.09222e-11 -5.03084e-10)
(-4.78684e-10 3.01995e-11 -6.29022e-10)
(2.64495e-09 9.67266e-10 4.47688e-09)
(2.30693e-09 9.64625e-11 1.84649e-09)
(1.76977e-09 -1.06862e-10 3.57026e-10)
(1.20941e-09 6.70935e-11 -3.04618e-10)
(8.29064e-10 2.35746e-10 -8.35632e-10)
(4.85486e-10 1.59206e-10 -9.34323e-10)
(2.04691e-10 1.63328e-10 -7.10569e-10)
(1.83503e-09 6.7796e-10 2.71699e-09)
(2.49333e-09 1.05995e-09 2.4347e-09)
(2.70398e-09 6.04987e-10 1.18921e-09)
(2.07869e-09 2.98258e-10 3.17408e-10)
(1.5694e-09 2.00559e-10 -2.69811e-10)
(1.03462e-09 3.25183e-10 -6.52153e-10)
(7.22207e-10 1.82136e-10 -9.49925e-10)
(2.33887e-10 -4.43278e-11 -3.75563e-10)
(3.7874e-11 3.02405e-10 4.31724e-10)
(7.32461e-10 3.77863e-10 6.60296e-10)
(1.34535e-09 -1.58527e-10 1.19109e-09)
(2.64495e-09 9.67266e-10 4.47688e-09)
(9.70561e-10 6.07007e-11 9.31752e-10)
(1.09337e-09 6.12869e-10 8.58867e-10)
(2.64495e-09 9.67266e-10 4.47688e-09)
(1.83503e-09 6.7796e-10 2.71699e-09)
(2.34842e-09 8.95331e-10 8.95442e-10)
(1.83503e-09 6.7796e-10 2.71699e-09)
(1.15862e-09 6.13527e-10 1.30533e-09)
)
;
    }
    procBoundary1to7
    {
        type            processor;
        value           uniform (1.86693e-09 4.07358e-10 1.21225e-09);
    }
}


// ************************************************************************* //
