/*--------------------------------*- C++ -*----------------------------------*\
| =========                 |                                                 |
| \\      /  F ield         | OpenFOAM: The Open Source CFD Toolbox           |
|  \\    /   O peration     | Version:  4.x                                   |
|   \\  /    A nd           | Web:      www.OpenFOAM.org                      |
|    \\/     M anipulation  |                                                 |
\*---------------------------------------------------------------------------*/
FoamFile
{
    version     2.0;
    format      ascii;
    class       volScalarField;
    location    "29";
    object      nu;
}
// * * * * * * * * * * * * * * * * * * * * * * * * * * * * * * * * * * * * * //

dimensions      [0 2 -1 0 0 0 0];

internalField   nonuniform List<scalar> 
108
(
1.00001e-06
1.00002e-06
1.00002e-06
1.00002e-06
1.00002e-06
1.00002e-06
1.00002e-06
1.00003e-06
9.989e-07
1e-06
1.00001e-06
1.00001e-06
1.00001e-06
1.00001e-06
1.00001e-06
1.00002e-06
1.00003e-06
9.96145e-07
1.00001e-06
1.00001e-06
1.00002e-06
1.00003e-06
1.00004e-06
1.00005e-06
1.00006e-06
1.00008e-06
9.97842e-07
1e-06
1e-06
1.00001e-06
1.00001e-06
1.00001e-06
1.00001e-06
1.00002e-06
1.00002e-06
9.78742e-07
1.00001e-06
1.00002e-06
1.00004e-06
1.00007e-06
1.0001e-06
1.00013e-06
1.00018e-06
1.00018e-06
1.00081e-06
1.00001e-06
1.00001e-06
1.00002e-06
1.00004e-06
1.00007e-06
1.00009e-06
1.00014e-06
1.00015e-06
1.00075e-06
1e-06
1.00001e-06
1.00001e-06
1.00002e-06
1.00004e-06
1.00006e-06
1.00011e-06
1.00012e-06
1.00092e-06
1e-06
1e-06
1e-06
1.00001e-06
1.00001e-06
1.00001e-06
1.00002e-06
1.00003e-06
1.00148e-06
1.00003e-06
1.00008e-06
1.00012e-06
1.00015e-06
1.00019e-06
1.00022e-06
1.00026e-06
1.00026e-06
1.0004e-06
1.00001e-06
1.00002e-06
1.00005e-06
1.00008e-06
1.00013e-06
1.00017e-06
1.00022e-06
1.00023e-06
1.00063e-06
1.00001e-06
1.00002e-06
1.00004e-06
1.00006e-06
1.00011e-06
1.00014e-06
1.00019e-06
1.00019e-06
1.00055e-06
1e-06
1e-06
1.00001e-06
1.00001e-06
1.00001e-06
1.00002e-06
1.00004e-06
1.00005e-06
1.00097e-06
)
;

boundaryField
{
    inlet
    {
        type            calculated;
        value           nonuniform 0();
    }
    outlet
    {
        type            calculated;
        value           uniform 1e-06;
    }
    wall
    {
        type            calculated;
        value           nonuniform List<scalar> 
63
(
1.00001e-06
1e-06
1.00001e-06
1e-06
1.00002e-06
1.00001e-06
1.00001e-06
1e-06
1.00002e-06
1.00001e-06
1.00002e-06
1.00001e-06
1.00002e-06
1.00001e-06
1.00003e-06
1.00001e-06
1.00002e-06
1.00001e-06
1.00004e-06
1.00001e-06
1.00002e-06
1.00001e-06
1.00005e-06
1.00001e-06
1.00002e-06
1.00002e-06
1.00006e-06
1.00002e-06
1.00003e-06
1.00003e-06
1.00008e-06
1.00002e-06
9.989e-07
9.96145e-07
9.97842e-07
9.78742e-07
1e-06
1e-06
1e-06
1e-06
1e-06
1e-06
1.00001e-06
1e-06
1.00001e-06
1.00001e-06
1.00001e-06
1.00001e-06
1.00001e-06
1.00001e-06
1.00001e-06
1.00001e-06
1.00001e-06
1.00002e-06
1.00002e-06
1.00002e-06
1.00004e-06
1.00002e-06
1.00003e-06
1.00005e-06
9.78742e-07
1.00148e-06
1.00097e-06
)
;
    }
    procBoundary3to1
    {
        type            processor;
        value           nonuniform List<scalar> 
27
(
1e-06
1e-06
1.00001e-06
1.00001e-06
1.00001e-06
1.00001e-06
1.00003e-06
1.00004e-06
1.00005e-06
1.00001e-06
1.00002e-06
1.00004e-06
1.00006e-06
1.0001e-06
1.00013e-06
1.00019e-06
1.00018e-06
1.00042e-06
1.00004e-06
1.00006e-06
1.00009e-06
1.00012e-06
1.00015e-06
1.00018e-06
1.0002e-06
1.00022e-06
1.00044e-06
)
;
    }
    procBoundary3to2
    {
        type            processor;
        value           nonuniform List<scalar> 
12
(
1.00001e-06
1e-06
1e-06
1e-06
1e-06
1e-06
1e-06
1e-06
1.00001e-06
1e-06
1e-06
1e-06
)
;
    }
    procBoundary3to7
    {
        type            processor;
        value           nonuniform List<scalar> 
36
(
1.00001e-06
1.00003e-06
1.00005e-06
1.00007e-06
1.0001e-06
1.00014e-06
1.00017e-06
1.0002e-06
1.00009e-06
1.00001e-06
1.00002e-06
1.00003e-06
1.00005e-06
1.00007e-06
1.00011e-06
1.00013e-06
1.00017e-06
1.00023e-06
1.00001e-06
1.00001e-06
1.00002e-06
1.00003e-06
1.00004e-06
1.00007e-06
1.00009e-06
1.00012e-06
1.00047e-06
1e-06
1e-06
1e-06
1.00001e-06
1.00001e-06
1.00001e-06
1.00002e-06
1.00004e-06
1.0009e-06
)
;
    }
}


// ************************************************************************* //
