/*--------------------------------*- C++ -*----------------------------------*\
| =========                 |                                                 |
| \\      /  F ield         | OpenFOAM: The Open Source CFD Toolbox           |
|  \\    /   O peration     | Version:  4.x                                   |
|   \\  /    A nd           | Web:      www.OpenFOAM.org                      |
|    \\/     M anipulation  |                                                 |
\*---------------------------------------------------------------------------*/
FoamFile
{
    version     2.0;
    format      ascii;
    class       volVectorField;
    location    "3.5";
    object      ddtUrel;
}
// * * * * * * * * * * * * * * * * * * * * * * * * * * * * * * * * * * * * * //

dimensions      [0 1 -2 0 0 0 0];

internalField   nonuniform List<vector> 
132
(
(-6.72834e-05 3.97327e-05 -0.000379131)
(-7.4477e-06 6.75514e-05 -0.000305304)
(1.05926e-05 7.99949e-05 -0.000243951)
(3.75396e-05 9.89857e-05 -0.000212779)
(4.39138e-05 8.43488e-05 -0.000190659)
(9.43773e-06 6.73401e-05 -0.000181612)
(-4.75113e-05 4.59029e-05 -0.000216951)
(7.42069e-05 3.68183e-05 -0.000206773)
(6.45145e-05 1.89336e-05 -0.000170472)
(-4.27244e-05 1.51546e-05 -0.000327275)
(2.66745e-05 3.67617e-05 -0.000277447)
(9.28212e-05 5.10711e-05 -0.000228559)
(0.000166205 7.97416e-05 -0.000198978)
(0.000213915 7.27545e-05 -0.000178896)
(0.000237907 5.98934e-05 -0.000178008)
(0.00023665 3.34371e-05 -0.0001957)
(0.000277157 3.44149e-05 -0.000185529)
(0.000237891 2.88167e-05 -0.000149926)
(-1.62865e-05 8.63484e-07 -0.000292988)
(6.1574e-05 1.8175e-05 -0.000270027)
(0.000134928 2.39682e-05 -0.00022446)
(0.000239884 3.95331e-05 -0.000197535)
(0.000317994 3.38061e-05 -0.000169477)
(0.000365099 2.5864e-05 -0.000157523)
(0.000385341 6.50778e-06 -0.000156264)
(0.000373554 8.50656e-07 -0.000155253)
(0.000374244 8.47051e-06 -0.000135171)
(-1.8731e-05 -4.5941e-05 -0.000289037)
(7.19373e-05 -2.03422e-06 -0.00029139)
(0.000158343 -3.44909e-06 -0.000236231)
(-1.84071e-05 1.7797e-05 -0.000294019)
(2.36363e-06 3.10488e-05 -0.000267885)
(4.12093e-05 3.35554e-05 -0.000234519)
(8.89414e-05 3.79247e-05 -0.00022378)
(0.000135648 3.37163e-05 -0.000213428)
(0.000168013 2.51799e-05 -0.000209803)
(0.000183838 1.64996e-05 -0.000222392)
(0.000177485 9.33093e-06 -0.000199106)
(0.00017719 6.69185e-06 -0.000167798)
(7.05185e-06 6.12224e-07 -0.000272757)
(3.69635e-05 1.78818e-05 -0.00025963)
(0.000101508 2.38372e-05 -0.000237953)
(0.000169045 2.9208e-05 -0.00021629)
(0.000222732 2.61983e-05 -0.000206142)
(0.000258295 1.80819e-05 -0.000205985)
(0.000279408 1.07941e-05 -0.000204601)
(0.000274501 9.63561e-06 -0.000181212)
(0.000243178 7.46614e-06 -0.000151745)
(2.70636e-05 -1.46084e-05 -0.000259202)
(5.91424e-05 2.58591e-07 -0.000257923)
(0.000133936 8.00179e-06 -0.00023689)
(0.000210946 1.58065e-05 -0.00021282)
(0.000276366 1.54013e-05 -0.000195848)
(0.000318952 1.01748e-05 -0.000188871)
(0.000334388 -1.93967e-06 -0.000181389)
(0.000327436 -5.20949e-06 -0.000160292)
(0.000298568 1.60284e-06 -0.00013562)
(2.8028e-05 -2.37165e-05 -0.000264009)
(6.29909e-05 -9.33928e-06 -0.000265072)
(0.000136419 -5.83865e-06 -0.000241125)
(0.000221711 -2.51535e-06 -0.000212653)
(0.000292847 -6.6025e-06 -0.000191709)
(3.42619e-05 1.49335e-05 -0.000247535)
(4.79738e-05 1.38175e-05 -0.00024563)
(9.29372e-05 1.19332e-05 -0.000232908)
(0.000142143 1.37642e-05 -0.000236268)
(0.000193903 1.38529e-05 -0.000235513)
(0.000227564 1.01776e-05 -0.000224808)
(0.000227633 3.03965e-06 -0.000217724)
(0.000187943 -2.087e-06 -0.000196534)
(0.000167573 -2.16594e-06 -0.000165469)
(5.16656e-05 -2.4959e-06 -0.000242343)
(7.89824e-05 6.24692e-06 -0.000245807)
(0.000125709 6.3345e-06 -0.000243319)
(0.000186726 9.16965e-06 -0.000235492)
(0.000242571 8.68646e-06 -0.000232614)
(0.000278817 3.87933e-06 -0.000225729)
(0.000296511 -2.55176e-06 -0.000210969)
(0.000285887 -5.2206e-06 -0.00018911)
(0.000246638 -2.77357e-06 -0.0001659)
(6.44708e-05 -1.00296e-05 -0.000242197)
(9.2366e-05 -5.43848e-06 -0.000249371)
(0.000145002 -1.68201e-06 -0.000246119)
(0.000207538 2.21509e-06 -0.000235057)
(0.00026773 3.32619e-06 -0.000226739)
(0.000305972 -1.47424e-06 -0.00021804)
(0.00031814 -9.33529e-06 -0.000205581)
(0.000302179 -8.73936e-06 -0.000186677)
(0.000261642 -6.20298e-06 -0.000169179)
(6.52454e-05 -1.46484e-05 -0.000248129)
(9.47808e-05 -1.10094e-05 -0.000250679)
(0.00014671 -9.68741e-06 -0.000247141)
(0.000211237 -4.42831e-06 -0.000235408)
(0.000274111 -4.74816e-06 -0.000222618)
(0.000308477 -3.77734e-06 -0.00021078)
(0.000314905 -5.05926e-06 -0.000196236)
(7.42042e-05 7.47094e-06 -0.000240135)
(9.50348e-05 3.23131e-07 -0.000241364)
(0.000132298 4.3877e-07 -0.000238712)
(0.000179842 -1.37256e-07 -0.000248328)
(0.0002292 7.1523e-07 -0.000245216)
(0.000266394 -1.73339e-06 -0.000232882)
(0.000269936 -3.6936e-06 -0.000221708)
(0.000240253 -7.43312e-06 -0.000205312)
(0.000205011 -4.77298e-06 -0.000181248)
(8.34186e-05 -2.69752e-06 -0.000236887)
(0.000114365 -4.57586e-06 -0.000241027)
(0.000160363 -5.32889e-06 -0.000247819)
(0.000219565 -4.35717e-06 -0.000251708)
(0.000274309 -2.20347e-06 -0.000252023)
(0.000310882 -2.82761e-06 -0.000241248)
(0.000326994 -5.26242e-06 -0.000224118)
(0.000319132 -9.9746e-06 -0.000206036)
(0.000269152 -6.12388e-06 -0.000188587)
(9.45374e-05 -8.26987e-06 -0.000237725)
(0.000125814 -6.71171e-06 -0.00024892)
(0.00017392 -9.29961e-06 -0.000255203)
(0.00023309 -8.44513e-06 -0.000255759)
(0.000285 -6.81697e-06 -0.000252316)
(0.000322178 -5.1057e-06 -0.000244527)
(0.00033438 -5.19819e-06 -0.000230643)
(0.000317818 -5.60308e-06 -0.000215042)
(0.00026563 -4.49016e-06 -0.000198013)
(9.19609e-05 -9.25143e-06 -0.000245478)
(0.000126075 -1.00608e-05 -0.000252238)
(0.000173063 -1.27518e-05 -0.000256923)
(0.000227515 -1.23538e-05 -0.000256475)
(0.00027703 -8.77688e-06 -0.000250822)
(0.000308886 -1.40365e-06 -0.000240976)
(0.000324557 -6.63883e-07 -0.000228294)
(0.000311045 1.51604e-06 -0.000215061)
(0.000263386 4.73432e-06 -0.000199524)
)
;

boundaryField
{
    inlet
    {
        type            calculated;
        value           nonuniform List<vector> 
16
(
(-0.000824889 9.05211e-05 -0.00113121)
(-0.000490766 -2.12312e-05 -0.000588364)
(-0.000319252 8.09615e-05 -0.000377999)
(-0.000396206 -0.00031535 -0.000362495)
(-0.000186169 -9.45491e-06 -0.000201033)
(-6.08335e-05 -9.87372e-05 -0.000202575)
(-1.0896e-06 -0.000156283 -0.000144384)
(-4.05804e-05 -1.62185e-05 -0.000227223)
(-2.58872e-05 8.78119e-05 -0.000178473)
(1.5034e-05 -7.41863e-05 -0.000105992)
(3.76574e-05 -1.84929e-05 -0.000105775)
(3.19863e-05 1.22048e-05 -0.000133348)
(4.55447e-05 7.92034e-05 -0.000239666)
(6.07327e-06 8.62612e-07 -0.000143176)
(0.000112293 -1.92658e-05 -7.16306e-05)
(4.46476e-05 3.47236e-05 -0.000175027)
)
;
    }
    outlet
    {
        type            calculated;
        value           nonuniform 0();
    }
    wall
    {
        type            calculated;
        value           nonuniform List<vector> 
66
(
(-0.000683586 0.000247193 -0.00110023)
(-0.000657968 5.59627e-05 -0.000705621)
(-0.00056045 0.000398109 -0.000456069)
(-0.000730959 -0.000501766 -0.000237158)
(0.000481226 0.000551711 -0.000556024)
(0.000332892 0.000181413 -0.000121469)
(0.000677452 0.000289438 -0.000183983)
(0.000986502 0.000309602 -0.000508771)
(-0.00015428 0.000492398 -0.000324813)
(0.00021467 5.30467e-05 3.54024e-05)
(8.76772e-05 0.000160397 2.72577e-05)
(0.000607155 2.18141e-05 -0.000121579)
(0.000111883 0.00106682 -9.20816e-06)
(0.000433267 0.00077524 -1.78439e-05)
(0.000695009 0.000387172 -9.63587e-05)
(-0.0014545 0.000633293 -0.000111647)
(0.00058264 0.000549655 2.7728e-05)
(0.00112794 0.000191156 8.08052e-05)
(-0.00116651 0.000655106 0.000377708)
(0.000630548 0.000801446 7.17349e-05)
(0.0011711 0.000267028 0.000143978)
(-0.00457729 0.000487586 -0.000201529)
(0.000120279 0.000296973 -0.000296338)
(0.00168328 -1.52746e-05 0.00012925)
(-0.00160397 0.00038167 -0.000429838)
(0.0014378 0.000302066 -0.000305851)
(0.000262287 -0.000100562 -0.000116377)
(-0.00323946 0.000195726 -7.91067e-05)
(0.000305808 0.000491843 -4.11271e-05)
(0.001447 -5.91738e-06 -0.000279295)
(-0.000589209 6.18607e-05 -0.00110105)
(-0.000212298 -3.17064e-05 -0.000402246)
(-7.59572e-06 8.32718e-05 -0.00013705)
(0.000104242 2.34539e-05 -0.000204522)
(-7.2994e-07 0.000303188 -0.000462266)
(-0.000256151 5.95991e-05 -0.000276337)
(-0.000123705 2.75166e-05 -0.00023574)
(0.00013595 -5.0306e-05 -0.000210838)
(-0.000321698 0.000282164 -0.000237148)
(-0.000222633 -1.10165e-05 -9.17096e-05)
(8.1258e-05 -2.2094e-05 -9.60534e-05)
(0.000105929 7.76932e-07 -0.000210505)
(-0.000385626 0.000393651 -0.000183044)
(-0.000139217 -1.25539e-05 -0.000246096)
(0.000109283 4.26818e-06 -0.000232452)
(9.56091e-05 -2.30178e-05 -0.00025615)
(6.45347e-05 6.68466e-05 -5.41249e-05)
(-1.82798e-05 -1.46822e-05 -0.000203875)
(0.000208058 2.53325e-05 -0.000319365)
(4.70767e-05 2.19576e-05 -0.000264416)
(-0.00102447 0.000177429 2.96212e-06)
(0.000401691 -3.27583e-05 -0.000203545)
(0.000289475 7.61951e-05 -0.000259882)
(0.000309088 -2.83901e-05 -0.000155438)
(-0.00284493 0.000228657 -0.000364224)
(0.000772975 -3.24761e-05 -0.000424231)
(0.000234493 -5.08817e-06 -0.000246001)
(0.000383208 6.42877e-07 -0.000180972)
(0.000452996 4.42043e-05 -0.000261047)
(0.000526958 -9.1741e-05 -0.000196797)
(-8.81243e-05 -4.08933e-05 -0.000192947)
(-0.000272728 -1.75924e-05 -0.000176349)
(5.02518e-06 -1.80913e-05 -0.000236963)
(0.000765216 -1.78354e-05 -0.000223039)
(6.99038e-05 3.52887e-06 -6.79558e-05)
(-0.000134611 3.30399e-05 -9.10103e-05)
)
;
    }
    procBoundary0to1
    {
        type            processor;
        value           nonuniform List<vector> 
12
(
(0.000161512 8.78961e-06 -0.000140853)
(0.000237526 1.24137e-05 -0.000125858)
(0.000303315 1.04874e-05 -0.000111986)
(0.000135795 6.1342e-06 -0.000132602)
(0.000183804 7.74129e-06 -0.000126785)
(0.000220402 4.77781e-06 -0.000116918)
(8.68656e-05 -8.11145e-06 -0.000138335)
(0.000161169 1.28345e-06 -0.000143508)
(0.000172074 -5.17763e-06 -0.000146041)
(0.000125338 -1.04431e-05 -0.000170483)
(0.000177582 -7.18527e-06 -0.000178384)
(0.000167472 -6.30591e-06 -0.000186857)
)
;
    }
    procBoundary0to2
    {
        type            processor;
        value           nonuniform List<vector> 
44
(
(0.000280158 -2.14865e-06 -0.000198551)
(0.000345056 -1.47005e-05 -0.000171858)
(0.000398925 -1.3601e-05 -0.000150414)
(0.000407088 -8.83546e-06 -0.000147907)
(0.000444962 -1.347e-05 -0.000134807)
(0.00040577 8.19599e-06 -0.000119071)
(-3.72252e-05 -7.15267e-05 -0.000297602)
(4.78153e-05 -5.9992e-05 -0.000280073)
(0.000280158 -2.14865e-06 -0.000198551)
(0.000135272 -4.34146e-05 -0.000239652)
(0.000280158 -2.14865e-06 -0.000198551)
(0.000345056 -1.47005e-05 -0.000171858)
(0.000332604 -7.33847e-06 -0.000179378)
(0.000346914 -9.37107e-06 -0.000166401)
(0.000334051 -6.33404e-06 -0.000149906)
(0.000290841 8.43749e-06 -0.000133669)
(1.88937e-05 -4.02987e-05 -0.000271686)
(5.51438e-05 -3.69016e-05 -0.0002687)
(0.000133722 -2.39386e-05 -0.000243342)
(0.000207602 -2.26044e-05 -0.000209119)
(0.000332604 -7.33847e-06 -0.000179378)
(0.000269301 -2.60118e-05 -0.000189013)
(0.000332604 -7.33847e-06 -0.000179378)
(0.000346914 -9.37107e-06 -0.000166401)
(0.000291368 -3.82805e-06 -0.000179306)
(0.000251484 1.51177e-06 -0.000167006)
(5.55585e-05 -2.57699e-05 -0.000248476)
(8.60505e-05 -2.67404e-05 -0.000245808)
(0.00013901 -1.55365e-05 -0.000242008)
(0.000200751 -1.0557e-05 -0.000228365)
(0.000255953 -1.2171e-05 -0.000215508)
(0.000284835 -8.75075e-06 -0.000204183)
(0.000291368 -3.82805e-06 -0.000179306)
(0.000294188 -2.74183e-06 -0.00019438)
(0.000291368 -3.82805e-06 -0.000179306)
(0.000251484 1.51177e-06 -0.000167006)
(8.5355e-05 -1.56605e-05 -0.000241556)
(0.000114991 -1.43282e-05 -0.000244641)
(0.00016298 -1.4127e-05 -0.000246743)
(0.000213751 -1.10149e-05 -0.000245917)
(0.000261715 -7.5528e-06 -0.000239594)
(0.000290764 -1.79522e-06 -0.000234164)
(0.000302859 -5.77972e-07 -0.000224574)
(0.000286216 4.36406e-06 -0.000213451)
)
;
    }
    procBoundary0to4
    {
        type            processor;
        value           nonuniform List<vector> 
36
(
(9.3985e-05 -1.264e-06 -0.00024242)
(0.000106005 -3.10858e-06 -0.000242481)
(0.000154232 -4.78229e-06 -0.000241731)
(0.000207512 -3.92302e-06 -0.000262931)
(0.000259995 -5.04503e-06 -0.000262726)
(0.000306142 -5.0575e-06 -0.000248662)
(0.000290738 -7.78114e-06 -0.000244916)
(0.000288773 -9.01579e-06 -0.000241388)
(0.000235361 -7.68055e-06 -0.000219214)
(0.000103179 -5.56351e-06 -0.000245387)
(0.000131425 -4.93952e-06 -0.000244636)
(0.000179209 -5.90518e-06 -0.00025169)
(0.000239616 -3.60008e-06 -0.000266214)
(0.000298063 -4.2807e-06 -0.000273318)
(0.000337518 -3.21385e-06 -0.000260187)
(0.00034698 -4.34974e-06 -0.000243063)
(0.000330061 -5.40311e-06 -0.000233092)
(0.000274693 -2.15653e-06 -0.000218149)
(0.000107557 -7.2436e-06 -0.000246175)
(0.000141268 -8.08561e-06 -0.000257121)
(0.000193605 -1.1597e-05 -0.000265148)
(0.000252392 -1.05555e-05 -0.000271171)
(0.000304831 -9.24156e-06 -0.000274034)
(0.000338283 -4.02721e-06 -0.000268919)
(0.000350019 -3.63882e-07 -0.000254369)
(0.000326627 -1.38516e-06 -0.000240195)
(0.000269978 -1.11766e-06 -0.000221403)
(0.000108171 -7.96668e-06 -0.00025298)
(0.00014207 -9.94717e-06 -0.000265744)
(0.000193691 -1.52526e-05 -0.000271121)
(0.000247566 -1.37574e-05 -0.000272407)
(0.000293941 -7.66711e-06 -0.000270615)
(0.000328304 9.05717e-08 -0.000273061)
(0.000339594 4.6568e-06 -0.000262828)
(0.000319547 8.90473e-06 -0.00024442)
(0.000265064 5.59258e-06 -0.000225527)
)
;
    }
    procBoundary0to6
    {
        type            processor;
        value           uniform (0.000246534 1.43543e-05 -0.000202406);
    }
    procBoundary0to7
    {
        type            processor;
        value           uniform (0.000153327 2.11852e-06 -0.000188563);
    }
}


// ************************************************************************* //
