/*--------------------------------*- C++ -*----------------------------------*\
| =========                 |                                                 |
| \\      /  F ield         | OpenFOAM: The Open Source CFD Toolbox           |
|  \\    /   O peration     | Version:  4.x                                   |
|   \\  /    A nd           | Web:      www.OpenFOAM.org                      |
|    \\/     M anipulation  |                                                 |
\*---------------------------------------------------------------------------*/
FoamFile
{
    version     2.0;
    format      ascii;
    class       volVectorField;
    location    "3.5";
    object      GField;
}
// * * * * * * * * * * * * * * * * * * * * * * * * * * * * * * * * * * * * * //

dimensions      [1 -2 -1 0 0 0 0];

internalField   nonuniform List<vector> 
132
(
(108.534 -4.40964 -8.03297)
(59.2784 -3.07502 -3.82928)
(125.214 -6.36781 -0.879594)
(75.9674 -4.73418 3.08709)
(129.042 -8.37916 6.34794)
(75.7 -6.31599 6.33642)
(127.833 -10.3049 7.48925)
(72.0629 -7.49226 5.94254)
(128.617 -11.2596 6.43825)
(107.624 -7.94668 -9.47912)
(52.3778 -5.14955 -4.38167)
(117.732 -10.5711 -2.52373)
(57.0196 -6.80095 1.44905)
(116.272 -10.0829 3.52793)
(43.0333 -5.61125 2.65547)
(110.083 -7.85512 3.95475)
(26.7916 -4.37788 0.850932)
(105.073 -5.02905 1.64618)
(107.073 -7.23597 -9.61745)
(43.3542 -4.76396 -3.51443)
(108.814 -8.06414 -0.170334)
(31.8855 -4.9687 1.44189)
(100.88 -4.36876 3.61871)
(13.2418 -2.37214 0.678105)
(95.6504 -2.82654 1.07316)
(3.14673 -0.733635 0.353303)
(94.4812 -7.2023 -4.97474)
(104.298 -0.550655 -9.91262)
(38.6909 0.0302264 -3.77988)
(102.209 0.230376 -0.373888)
(103.596 -5.36171 -12.8704)
(44.3993 -2.94344 -5.48852)
(109.979 -7.08271 -0.285468)
(57.3583 -4.24905 3.76493)
(117.034 -7.92937 11.098)
(65.2486 -4.72117 8.12758)
(121.248 -6.75697 13.0012)
(65.5423 -4.15904 6.78346)
(123.319 -4.2367 11.0237)
(102.568 -8.62593 -13.6307)
(32.2851 -3.57687 -4.67146)
(101.818 -8.97228 -1.36868)
(27.5747 -3.04764 1.13443)
(100.983 -5.76413 5.71281)
(18.975 -1.3287 0.950307)
(100.776 -2.38131 4.0049)
(12.3631 -0.435867 -0.796265)
(101.12 -2.43024 -2.49344)
(99.1507 -7.1453 -14.0137)
(25.0015 -3.24237 -3.76495)
(94.9182 -5.71617 0.316188)
(14.7087 -2.38258 0.608042)
(93.6493 -1.98782 4.81914)
(9.00195 -1.4096 -0.201502)
(93.6616 -0.638933 0.374731)
(8.38301 -1.64029 -1.32856)
(94.5429 -6.03435 -8.54919)
(95.6891 -0.230159 -11.5106)
(23.2494 -0.111772 -2.45013)
(88.2441 -0.389805 2.98444)
(10.7059 0.178081 1.18615)
(82.7724 -0.728769 5.90961)
(99.8521 -4.67668 -8.30308)
(40.0927 -2.46334 -3.33462)
(103.61 -6.42651 0.991176)
(53.5782 -3.55981 3.95636)
(112.194 -7.29918 10.7187)
(67.0592 -3.84667 9.40184)
(120.449 -5.77354 14.8891)
(73.2222 -3.11735 10.1158)
(126.464 -3.85232 14.8282)
(99.0094 -8.40108 -8.76867)
(28.5597 -3.29206 -2.78493)
(96.9322 -9.03327 0.114508)
(24.1732 -2.65889 1.34512)
(96.7467 -5.04858 5.27563)
(16.4795 -1.0832 0.77544)
(96.6847 -0.891812 3.2962)
(7.83572 -0.327656 -0.406173)
(97.8081 0.231351 -1.62701)
(95.9389 -4.82607 -8.14587)
(21.4603 -1.6548 -2.09293)
(91.0154 -3.45434 1.03645)
(10.4629 -0.781075 0.529883)
(89.2166 0.00276815 3.57207)
(4.63241 -0.488111 -0.00617757)
(88.6254 1.16799 -0.315434)
(2.76957 -0.678276 -0.424302)
(88.0474 0.684712 -3.62936)
(96.4058 0.339265 -7.08462)
(22.0672 0.288272 -1.59743)
(92.9714 0.204609 1.71832)
(16.2467 0.305443 1.77513)
(93.0796 -0.120827 4.40585)
(16.827 0.380149 1.38309)
(93.3617 -0.745497 2.50571)
(100.016 -5.66248 -6.15627)
(42.1922 -3.1151 -3.08207)
(104.966 -7.55155 0.527774)
(57.2226 -3.95254 2.06918)
(113.943 -7.60829 8.47036)
(72.3474 -4.53897 5.81243)
(124.284 -6.11345 11.9218)
(84.014 -3.77083 5.70297)
(133.504 -2.64406 12.2161)
(99.1433 -8.23089 -7.08822)
(28.619 -3.37354 -2.83929)
(97.1769 -8.84031 -0.600748)
(23.99 -2.24508 -0.570156)
(96.5762 -4.97131 5.2143)
(18.3693 -0.682972 -1.1551)
(94.9014 -1.70903 4.55088)
(12.9626 0.152632 -2.77749)
(93.1592 1.60112 -0.0023129)
(96.4617 -5.46087 -5.93937)
(23.8463 -2.54748 -1.75965)
(92.1015 -4.82067 1.61573)
(12.6691 -1.29056 0.382984)
(91.0183 -1.54066 4.89309)
(7.52172 -0.698325 0.0598761)
(91.5159 -0.647945 1.0132)
(3.94553 -0.51222 -0.451321)
(92.5374 -0.245927 -3.75474)
(96.2521 -1.58229 -5.12487)
(22.5907 -0.416758 -1.76755)
(90.8401 -0.604504 1.57633)
(11.6877 0.00471264 -0.0802744)
(90.5838 0.18354 4.03693)
(10.1457 0.233879 -0.596177)
(91.5614 -0.161431 2.26601)
(11.0077 0.376932 -1.5014)
(92.102 -0.597236 -0.557361)
)
;

boundaryField
{
    inlet
    {
        type            calculated;
        value           uniform (67 0 0);
    }
    outlet
    {
        type            calculated;
        value           nonuniform 0();
    }
    wall
    {
        type            calculated;
        value           uniform (0 0 0);
    }
    procBoundary0to1
    {
        type            processor;
        value           nonuniform List<vector> 
12
(
(69.4698 -7.29662 5.36736)
(21.9802 -3.41335 -0.864146)
(10.0949 -3.80814 -0.834826)
(61.8721 -2.83701 3.89557)
(15.6199 -1.21666 -4.35235)
(2.92506 -0.938335 -1.3424)
(73.7814 -2.4603 8.80808)
(-0.469471 -0.246373 -0.316558)
(-4.78631 -2.53942 1.18746)
(87.2493 -3.10479 5.33393)
(9.06829 0.0625378 -3.08965)
(2.01764 -0.665603 -0.531338)
)
;
    }
    procBoundary0to2
    {
        type            processor;
        value           nonuniform List<vector> 
44
(
(21.2334 0.20113 0.490201)
(91.7493 -0.305145 2.74031)
(4.73102 0.343066 0.136529)
(87.0518 -0.0637125 1.95341)
(-4.98656 -0.838226 -0.409246)
(86.2482 -0.417255 -0.466365)
(104.306 5.07301 -8.90098)
(43.943 3.8093 -3.8048)
(21.2334 0.20113 0.490201)
(108.772 6.58492 -0.685548)
(21.2334 0.20113 0.490201)
(91.7493 -0.305145 2.74031)
(5.41722 0.348672 0.108182)
(79.0632 -1.13175 3.11629)
(3.90268 0.403256 -0.830962)
(76.518 -0.0826299 -5.48367)
(99.3813 5.23401 -13.1886)
(27.9912 2.69161 -4.01457)
(95.8942 4.33798 0.271852)
(18.3847 2.695 1.12697)
(5.41722 0.348672 0.108182)
(95.2492 0.928436 6.27654)
(5.41722 0.348672 0.108182)
(79.0632 -1.13175 3.11629)
(18.0861 0.801598 -0.00388756)
(93.7378 1.67734 6.04487)
(97.3242 4.53217 -9.63882)
(24.2783 1.68576 -2.86441)
(93.4367 3.23246 0.287897)
(15.4203 1.1398 0.576681)
(93.2837 0.33465 4.7345)
(10.2709 0.981376 -0.0585247)
(18.0861 0.801598 -0.00388756)
(93.4655 -0.7187 1.62185)
(18.0861 0.801598 -0.00388756)
(93.7378 1.67734 6.04487)
(95.9001 3.28527 -7.96154)
(20.645 1.2633 -2.2679)
(90.3634 2.85142 0.392733)
(9.57338 0.541307 -0.332773)
(90.4492 -0.305863 5.12369)
(7.46311 0.334606 -0.310459)
(91.8354 -1.14939 2.82132)
(6.89015 0.441004 -0.815009)
)
;
    }
    procBoundary0to4
    {
        type            processor;
        value           nonuniform List<vector> 
36
(
(98.0918 -5.68691 -3.08362)
(42.8167 -3.47082 -1.40419)
(101.047 -7.68504 1.16947)
(54.5463 -5.4644 1.9052)
(107.285 -7.01715 6.58366)
(65.6337 -7.1763 5.37213)
(114.459 -4.77193 9.1779)
(71.7786 -10.0866 6.03156)
(121.075 -5.01776 10.5163)
(95.5525 -8.06809 -2.78905)
(25.9794 -2.88816 -0.798999)
(89.4985 -7.96529 1.35769)
(12.2049 -1.01465 0.284985)
(82.5684 -3.10144 3.80487)
(3.92402 -0.0271634 0.0175974)
(74.2453 -0.426871 1.90201)
(1.77208 0.0526578 -0.159543)
(62.4578 0.0697156 -1.9194)
(94.0326 -2.92923 -0.932487)
(23.455 -1.33132 -0.00340589)
(87.9784 -2.12773 3.52268)
(8.69622 -0.52673 0.429459)
(85.7358 -0.902943 2.59861)
(3.08263 -0.273134 -0.096608)
(85.9146 -1.52136 0.394398)
(-0.482418 -0.10713 -0.109166)
(86.8291 -2.68118 -1.49402)
(95.3784 -1.67583 -0.484864)
(24.9839 -0.395143 0.680715)
(88.8718 -0.364374 4.47271)
(13.8444 -0.392354 1.13784)
(84.6506 0.368512 3.67431)
(7.62902 -0.034487 0.462741)
(80.7949 0.883059 0.976058)
(1.93574 0.0608155 -0.110985)
(77.3171 -1.73869 -2.1506)
)
;
    }
    procBoundary0to6
    {
        type            processor;
        value           uniform (93.2784 -5.22145 -5.89946);
    }
    procBoundary0to7
    {
        type            processor;
        value           uniform (22.357 0.754514 -5.86724);
    }
}


// ************************************************************************* //
