/*--------------------------------*- C++ -*----------------------------------*\
| =========                 |                                                 |
| \\      /  F ield         | OpenFOAM: The Open Source CFD Toolbox           |
|  \\    /   O peration     | Version:  4.x                                   |
|   \\  /    A nd           | Web:      www.OpenFOAM.org                      |
|    \\/     M anipulation  |                                                 |
\*---------------------------------------------------------------------------*/
FoamFile
{
    version     2.0;
    format      ascii;
    class       volScalarField;
    location    "3.5";
    object      Ksl;
}
// * * * * * * * * * * * * * * * * * * * * * * * * * * * * * * * * * * * * * //

dimensions      [1 -3 -1 0 0 0 0];

internalField   nonuniform List<scalar> 
132
(
3285.72
6041.47
2917.98
4820.38
2868.44
4886.65
2928.41
5105.79
2861.92
3309.59
6833.48
3100.06
6376.86
3173.16
8493.66
3356.86
13489.2
3493.03
3340.33
8227.34
3336.3
11217.5
3633.62
26919.7
3812.22
108480
3795.66
3429.7
9215.28
3534.84
3427.6
8006.36
3301.72
6376.31
3167.91
5672.85
3109.02
5648.77
3014.96
3451.08
11027
3600.88
13262.5
3703.15
19524.1
3724.83
29663.8
3662.2
3560.16
14122.3
3839.57
24439.6
3926.21
39879.1
3926.55
41661
3815.65
3706.72
15359
4127.15
33621.8
4406.53
3533.62
8838.7
3498.06
6794.05
3302.41
5533.09
3122.88
5068.28
2949.14
3572.37
12456.8
3762.9
15079.7
3856.71
22511.4
3905.77
46929.5
3808.7
3681.34
16575
4000.4
34532.8
4137.43
77697.5
4178.82
123367
4135.2
3673.26
16161.8
3913.42
22112.6
3932.51
21503.8
3932.2
3516.34
8373.63
3449.08
6359.28
3255.9
5158.23
3051.21
4490.86
2834.17
3560.67
12383.8
3748.34
15223.5
3846.73
20161.2
3975.17
28039.6
4026.09
3679.17
14890.5
3948.85
28432.9
4032.24
48088.1
4053.17
89752.6
3951.86
3672.79
15754.9
3993.73
30832.3
4037.18
35546.1
4014.59
32462.5
3941.09
)
;

boundaryField
{
    inlet
    {
        type            zeroGradient;
    }
    outlet
    {
        type            zeroGradient;
    }
    wall
    {
        type            zeroGradient;
    }
    procBoundary0to1
    {
        type            processor;
        value           nonuniform List<scalar> 
12
(
5237.27
16307.4
32824.7
5950.87
22492.8
105049
4989.38
640727
65330.7
4269.52
38404.1
161012
)
;
    }
    procBoundary0to2
    {
        type            processor;
        value           nonuniform List<scalar> 
44
(
16933.1
3952.53
74964.9
4153.26
72140.9
4128.9
3415.01
8103.04
16933.1
3341.73
16933.1
3952.53
65923.2
4601.59
87780.8
4662.87
3551.98
12671.9
3814.59
19585.5
65923.2
3861.85
65923.2
4601.59
19898.3
3836.22
3625.4
14631.5
3898.5
23475.2
3936.54
35132.5
19898.3
3928.09
19898.3
3836.22
3678.34
17141.1
4012.93
37619.4
4046.28
48365.8
4007.04
51731.6
)
;
    }
    procBoundary0to4
    {
        type            processor;
        value           nonuniform List<scalar> 
36
(
3563.25
8175.51
3548.08
6641.2
3457.96
5646.86
3306.31
5183.21
3106.72
3672.67
13610.3
4053.92
29728.1
4483.55
93556.5
5064.8
203354
5993.17
3760.65
15191.9
4127.32
41381.4
4283.88
116589
4303.95
813111
4229.6
3692.95
14271.6
4074.06
25965.9
4315.34
47366.9
4545.74
181595
4710.7
)
;
    }
    procBoundary0to6
    {
        type            processor;
        value           uniform 3902.48;
    }
    procBoundary0to7
    {
        type            processor;
        value           uniform 15385.2;
    }
}


// ************************************************************************* //
