/*--------------------------------*- C++ -*----------------------------------*\
| =========                 |                                                 |
| \\      /  F ield         | OpenFOAM: The Open Source CFD Toolbox           |
|  \\    /   O peration     | Version:  4.x                                   |
|   \\  /    A nd           | Web:      www.OpenFOAM.org                      |
|    \\/     M anipulation  |                                                 |
\*---------------------------------------------------------------------------*/
FoamFile
{
    version     2.0;
    format      ascii;
    class       volScalarField;
    location    "3.5";
    object      QPartFluid;
}
// * * * * * * * * * * * * * * * * * * * * * * * * * * * * * * * * * * * * * //

dimensions      [1 -1 -3 0 0 0 0];

internalField   nonuniform List<scalar> 
132
(
3.85456e+09
3.61139e+09
3.82537e+09
3.0276e+09
4.37173e+09
4.44551e+09
6.00363e+09
3.74277e+09
1.93653e+09
4.69555e+09
5.06906e+09
5.62137e+09
5.54126e+09
3.74176e+09
6.3223e+09
4.74656e+09
4.81925e+09
5.05114e+09
3.12148e+09
5.7933e+09
5.609e+09
4.5652e+09
5.16917e+09
4.02635e+09
3.5692e+09
3.70209e+09
7.85176e+09
2.98831e+09
4.41671e+09
3.40842e+09
4.30756e+09
7.03255e+09
8.72908e+09
7.78033e+09
7.87454e+09
7.57073e+09
8.05892e+09
6.84616e+09
7.27285e+09
4.99219e+09
9.37664e+09
7.94464e+09
8.25378e+09
9.44498e+09
8.16997e+09
8.23855e+09
8.23638e+09
8.3273e+09
5.25924e+09
9.18518e+09
8.07604e+09
7.07763e+09
7.69589e+09
6.80745e+09
9.58042e+09
6.04208e+09
6.02078e+09
7.86352e+09
6.73159e+09
7.43364e+09
4.85359e+09
1.06886e+10
5.58689e+09
6.93996e+09
8.20204e+09
7.22951e+09
7.68001e+09
5.98407e+09
8.39468e+09
7.42515e+09
5.6116e+09
6.22099e+09
8.13242e+09
8.27885e+09
6.27347e+09
9.25982e+09
6.57009e+09
9.43804e+09
9.84811e+09
7.68422e+09
6.62825e+09
6.93768e+09
7.84432e+09
8.8553e+09
9.57364e+09
7.74777e+09
8.84488e+09
6.325e+09
5.26782e+09
6.83704e+09
8.32297e+09
9.3306e+09
8.42508e+09
9.94587e+09
7.87116e+09
8.7272e+09
4.37106e+09
5.00122e+09
6.84675e+09
5.4015e+09
7.35274e+09
8.81851e+09
6.29564e+09
4.79724e+09
6.49689e+09
5.14611e+09
9.48084e+09
9.05852e+09
8.07341e+09
7.27085e+09
6.25909e+09
1.05775e+10
7.34806e+09
6.85565e+09
5.13885e+09
5.43224e+09
8.90455e+09
5.90604e+09
8.58451e+09
7.98251e+09
8.49608e+09
5.13754e+09
9.50137e+09
4.77515e+09
6.51343e+09
9.46143e+09
1.00762e+10
5.37925e+09
9.82463e+09
8.62785e+09
5.65134e+09
2.69067e+09
)
;

boundaryField
{
    inlet
    {
        type            calculated;
        value           uniform 0;
    }
    outlet
    {
        type            calculated;
        value           nonuniform 0();
    }
    wall
    {
        type            calculated;
        value           uniform 0;
    }
    procBoundary0to1
    {
        type            processor;
        value           nonuniform List<scalar> 
12
(
4.0233e+09
3.79316e+09
3.26357e+09
7.07754e+09
8.736e+09
8.11426e+09
7.63303e+09
8.80747e+09
7.74498e+09
7.28749e+09
8.08576e+09
5.88162e+09
)
;
    }
    procBoundary0to2
    {
        type            processor;
        value           nonuniform List<scalar> 
44
(
6.38358e+09
5.07895e+09
2.62815e+09
5.1478e+09
2.30386e+09
2.55728e+09
5.83623e+09
6.8642e+09
6.38358e+09
6.10068e+09
6.38358e+09
5.07895e+09
8.69657e+09
1.12544e+10
5.72093e+09
1.02412e+10
4.72665e+09
7.7768e+09
9.33568e+09
8.22105e+09
8.69657e+09
8.6818e+09
8.69657e+09
1.12544e+10
8.01977e+09
8.98803e+09
6.80129e+09
5.5838e+09
6.60139e+09
6.19128e+09
7.03229e+09
7.52972e+09
8.01977e+09
9.70794e+09
8.01977e+09
8.98803e+09
4.85886e+09
9.19608e+09
1.00787e+10
6.92176e+09
7.71695e+09
6.5287e+09
7.5849e+09
7.57108e+09
)
;
    }
    procBoundary0to4
    {
        type            processor;
        value           nonuniform List<scalar> 
36
(
4.93269e+09
7.12319e+09
8.47312e+09
6.15185e+09
7.32949e+09
6.35812e+09
9.25977e+09
7.32682e+09
1.01184e+10
6.97633e+09
7.11154e+09
9.17567e+09
9.65571e+09
9.92338e+09
8.28441e+09
7.87428e+09
5.43831e+09
1.08519e+10
6.64018e+09
1.00599e+10
7.88026e+09
9.06839e+09
8.31153e+09
6.02269e+09
7.12603e+09
9.96984e+09
6.53006e+09
3.419e+09
6.60665e+09
9.26071e+09
5.57572e+09
8.68588e+09
6.24069e+09
1.12793e+10
5.96115e+09
6.98399e+09
)
;
    }
    procBoundary0to6
    {
        type            processor;
        value           uniform 8.14722e+09;
    }
    procBoundary0to7
    {
        type            processor;
        value           uniform 1.06471e+10;
    }
}


// ************************************************************************* //
