/*--------------------------------*- C++ -*----------------------------------*\
  =========                 |
  \\      /  F ield         | OpenFOAM: The Open Source CFD Toolbox
   \\    /   O peration     | Website:  https://openfoam.org
    \\  /    A nd           | Version:  4.x
     \\/     M anipulation  |
\*---------------------------------------------------------------------------*/
FoamFile
{
    version     2.0;
    format      ascii;
    class       Cloud<passiveParticle>;
    location    0;
    object      positions;
}
// * * * * * * * * * * * * * * * * * * * * * * * * * * * * * * * * * * * * * //

313
(
( 0.211554 -0.00559669 -0.0726775 ) 4
( 0.187053 -0.00942843 -0.0457122 ) 34
( 0.223426 -0.0130654 -0.0586235 ) 36
( 0.203011 -0.0136495 -0.0353237 ) 64
( 0.235536 -0.00380647 -0.0713081 ) 36
( 0.220384 -0.00513501 -0.0324669 ) 64
( 0.176577 -0.00934198 -0.062439 ) 34
( 0.235973 -0.0090376 -0.0438939 ) 36
( 0.205695 -0.00151363 -0.050737 ) 35
( 0.167548 -0.0112848 -0.044726 ) 34
( 0.22625 -0.0111311 -0.0147185 ) 65
( 0.225204 0.030093 -0.0273402 ) 74
( 0.0457574 0.0271866 -0.0469744 ) 38
( 0.2151 0.0376332 -0.0425553 ) 73
( 0.185315 0.0222898 -0.0700852 ) 43
( 0.113512 0.0388551 -0.0534808 ) 41
( 0.0323749 0.0742176 -0.0323203 ) 85
( 0.20176 0.0641008 -0.0450483 ) 53
( 0.212346 0.018002 -0.04103 ) 73
( 0.074904 0.0448114 -0.0509452 ) 48
( 0.0697456 0.0214973 -0.0471347 ) 39
( 0.0322674 0.0515547 -0.0611038 ) 47
( 0.173416 0.0183979 -0.0546773 ) 43
( 0.125893 0.0707929 -0.0484755 ) 50
( 0.0266189 0.0590281 -0.0436108 ) 46
( 0.0238038 0.0902936 -0.0398972 ) 84
( 0.0432987 0.0901353 -0.0543219 ) 56
( 0.0625122 0.0501691 -0.0659061 ) 48
( 0.0782285 0.0721622 -0.0575109 ) 57
( 0.137981 0.0576358 -0.0571818 ) 50
( 0.180606 0.0552023 -0.0492541 ) 52
( 0.0592283 0.0312559 -0.0609013 ) 39
( 0.203184 0.0050568 -0.0291776 ) 64
( 0.100145 0.0434115 -0.0349121 ) 78
( 0.0790054 0.0455051 -0.0254537 ) 77
( 0.23917 0.0524757 -0.0724378 ) 23
( 0.156888 0.055798 -0.0682858 ) 51
( 0.215901 0.0777332 -0.0409701 ) 91
( 0.244054 0.0825843 -0.0396597 ) 92
( 0.168041 0.0665589 -0.0389288 ) 81
( 0.092534 0.0600448 -0.0672876 ) 49
( 0.145264 0.0711029 -0.0444571 ) 51
( 0.110902 0.0824325 -0.0427359 ) 87
( 0.154373 0.0565495 -0.0289532 ) 80
( 0.136326 0.0382243 -0.0531533 ) 41
( 0.21038 0.0742589 -0.0596956 ) 62
( 0.0254397 0.0819939 -0.0577856 ) 55
( 0.186182 0.03896 -0.0592827 ) 43
( 0.185105 0.0890159 -0.0709188 ) 61
( 0.168782 0.09012 -0.0375049 ) 90
( 0.223294 0.0641749 -0.0707476 ) 54
( 0.118308 0.0218133 -0.0623765 ) 41
( 0.113969 0.0888655 -0.0613094 ) 59
( 0.0724354 0.0629147 -0.0321036 ) 77
( 0.0925151 0.0772637 -0.0356251 ) 87
( 0.133711 0.0243631 -0.0392062 ) 70
( 0.196264 0.052671 -0.0696255 ) 53
( 0.144835 0.00354266 -0.0699998 ) 33
( 0.218373 0.0258978 -0.0583084 ) 44
( 0.0270858 0.0247921 -0.032678 ) 66
( 0.0995806 0.0176954 -0.0675302 ) 40
( 0.0900549 0.0248274 -0.0214974 ) 69
( 0.125494 0.0399831 -0.069748 ) 41
( 0.124062 0.0635352 -0.0278317 ) 79
( 0.00983224 0.0177749 -0.0395035 ) 66
( 0.106524 0.0460344 -0.0707862 ) 49
( 0.0581396 0.0798816 -0.0461351 ) 57
( 0.0999857 0.0251791 -0.0491526 ) 40
( 0.154416 0.0242553 -0.0524863 ) 42
( 0.225724 0.0635961 -0.0509125 ) 54
( 0.157011 0.00536802 -0.0468799 ) 33
( 0.181686 0.0316045 -0.0414129 ) 72
( 0.202615 0.0124735 -0.0703843 ) 35
( 0.0881595 0.0572349 -0.0427367 ) 78
( 0.0977457 0.0749215 -0.0553217 ) 58
( 0.124654 0.0517389 -0.0436852 ) 50
( 0.0899621 0.0619869 -0.0230667 ) 78
( 0.191182 0.0711732 -0.064231 ) 52
( 0.231405 0.0689557 -0.0325915 ) 83
( 0.0349005 0.0416922 -0.0389772 ) 67
( 0.144515 0.0731602 -0.0678244 ) 60
( 0.0618805 0.0465875 -0.0360538 ) 77
( 0.0762051 0.0886085 -0.0352374 ) 86
( 0.155489 0.0545388 -0.0485452 ) 51
( 0.00998398 0.0726754 -0.0468367 ) 55
( 0.192969 0.0220113 -0.0284501 ) 72
( 0.0379198 0.018155 -0.0645011 ) 38
( 0.135938 0.0455818 -0.0287231 ) 79
( 0.00989912 0.0813172 -0.0289934 ) 84
( 0.0108099 0.0545528 -0.0549505 ) 46
( 0.169298 0.0438949 -0.032064 ) 81
( 0.0567061 0.0722494 -0.0644576 ) 57
( 0.150971 0.0900407 -0.0594603 ) 60
( 0.0282621 0.0328981 -0.0554513 ) 38
( 0.114644 0.0289966 -0.0362508 ) 70
( 0.229953 0.0121175 -0.034085 ) 65
( 0.248686 0.060829 -0.0242541 ) 83
( 0.0279826 0.0556726 -0.0187449 ) 76
( 0.241947 0.0555992 -0.0424991 ) 83
( 0.095972 0.0900506 -0.0694512 ) 58
( 0.165052 0.0708719 -0.0580464 ) 51
( 0.188429 0.0902922 -0.0347459 ) 90
( 0.231971 0.0279868 -0.0742542 ) 14
( 0.239022 0.0160764 -0.060006 ) 45
( 0.196643 0.0449609 -0.0434871 ) 53
( 0.164407 0.0285348 -0.0691654 ) 42
( 0.0637194 0.061241 -0.0495713 ) 48
( 0.24748 0.0106309 -0.0429066 ) 36
( 0.184853 0.0743556 -0.0457392 ) 61
( 0.0835338 0.0270203 -0.0603215 ) 40
( 0.17113 0.0773793 -0.0226107 ) 90
( 0.167415 0.0393796 -0.0527758 ) 43
( 0.176668 0.0581627 -0.0685012 ) 52
( 0.114062 0.0902973 -0.0250217 ) 88
( 0.226999 0.090196 -0.0298609 ) 92
( 0.165836 0.0204132 -0.036638 ) 71
( 0.204963 0.0901406 -0.0701997 ) 62
( 0.188844 0.0064196 -0.0574845 ) 34
( 0.120838 0.0661754 -0.0671252 ) 50
( 0.0585975 0.0274768 -0.0318598 ) 68
( 0.047261 0.0567754 -0.0272637 ) 76
( 0.0843549 0.0320271 -0.039004 ) 69
( 0.00990907 0.0284629 -0.0677839 ) 37
( 0.222346 0.0110242 -0.0709223 ) 36
( 0.132791 0.0897584 -0.0675459 ) 59
( 0.0490237 0.0482002 -0.0510643 ) 47
( 0.163248 0.0825336 -0.074034 ) 29
( 0.185357 0.0613875 -0.0307954 ) 81
( 0.00969946 0.0356794 -0.0493275 ) 37
( 0.207128 0.0900417 -0.0282196 ) 91
( 0.211266 0.051091 -0.0566172 ) 53
( 0.0854059 0.0901656 -0.0526868 ) 58
( 0.233268 0.028178 -0.0453307 ) 45
( 0.202778 0.0329533 -0.0684689 ) 44
( 0.128702 0.0902647 -0.0480712 ) 59
( 0.0548785 0.0732228 -0.0190683 ) 85
( 0.0355281 0.0693656 -0.0693061 ) 47
( 0.231298 0.0450654 -0.055641 ) 54
( 0.0282544 0.0901531 -0.0195195 ) 85
( 0.228707 0.090121 -0.0497519 ) 63
( 0.149072 0.0901839 -0.0396941 ) 89
( 0.0104474 0.0351153 -0.0297391 ) 66
( 0.151411 0.0373541 -0.037931 ) 71
( 0.14344 0.027796 -0.0686239 ) 42
( 0.0433512 0.0673041 -0.0504233 ) 47
( 0.167703 0.00694508 -0.0699149 ) 34
( 0.17075 0.0900731 -0.0572126 ) 61
( 0.196757 0.0238302 -0.0518254 ) 44
( 0.137099 0.0900855 -0.0227429 ) 88
( 0.0527611 0.0273163 -0.00503044 ) 94
( 0.135464 0.0700974 8.29957e-05 ) 105
( 0.0832665 0.0549768 -0.00355986 ) 103
( 0.0894365 0.0423317 0.0105537 ) 96
( 0.217786 0.0166284 0.0112533 ) 100
( 0.114782 0.025015 0.00872559 ) 97
( 0.0430233 0.0347495 0.0105568 ) 94
( 0.110131 0.0412265 -0.00204512 ) 96
( 0.175565 0.0361749 -0.0120161 ) 99
( 0.168789 0.0486509 0.00179399 ) 107
( 0.191093 0.0822257 -0.0167446 ) 90
( 0.124982 0.0510646 0.00638054 ) 105
( 0.153834 0.0394179 0.0108623 ) 98
( 0.0490056 0.0902091 0.00758576 ) 109
( 0.125175 0.0234411 -0.00779587 ) 97
( 0.00985162 0.0488415 0.00689908 ) 101
( 0.0110334 0.0659921 -0.0165119 ) 75
( 0.103361 0.0901009 -0.00350027 ) 111
( 0.158925 0.0681892 -0.00998679 ) 106
( 0.193252 0.0595637 -0.0127496 ) 107
( 0.0293277 0.0881176 0.00606045 ) 109
( 0.0272531 0.0433884 -0.00308666 ) 101
( 0.0907226 0.0902234 0.0119061 ) 111
( 0.0756 0.0182173 0.00723608 ) 95
( 0.0628316 0.0800396 -0.00214476 ) 110
( 0.207027 0.0272379 -0.00114918 ) 100
( 0.133871 0.0427965 -0.00903504 ) 97
( 0.0581634 0.0697157 0.013887 ) 103
( 0.00990478 0.0682299 0.00299481 ) 101
( 0.124227 0.0776346 -0.0140452 ) 112
( 0.232215 0.0781342 -0.0151559 ) 92
( 0.162128 0.0798728 0.00558989 ) 113
( 0.163594 0.0259529 0.000290749 ) 98
( 0.145109 0.0901242 0.0064119 ) 113
( 0.0952445 0.0239277 0.005318 ) 96
( 0.0643266 0.0605347 -0.00572497 ) 103
( 0.020126 0.0274244 -0.0143912 ) 66
( 0.0466202 0.0898398 -0.0119394 ) 109
( 0.066296 0.0371176 0.0053609 ) 95
( 0.0927595 0.0732026 -0.00373682 ) 111
( 0.053188 0.051588 0.00797738 ) 102
( 0.105687 0.0730608 -0.0187519 ) 87
( 0.153617 0.0900498 -0.0115653 ) 113
( 0.0292189 0.0233355 0.00247293 ) 94
( 0.142437 0.0276182 0.000303162 ) 98
( 0.220985 0.03705 0.00870029 ) 100
( 0.153114 0.0467088 -0.0119388 ) 106
( 0.116914 0.0594635 -0.00963941 ) 105
( 0.0769797 0.0702059 0.00781373 ) 103
( 0.011088 0.0868579 -0.00996765 ) 108
( 0.0803572 0.0891322 -0.00479293 ) 110
( 0.191264 0.0389443 -0.000705153 ) 99
( 0.124996 0.0903328 0.000717069 ) 112
( 0.211612 0.0529866 -0.0156686 ) 82
( 0.108899 0.0286651 -0.0172525 ) 69
( 0.0823911 0.0340584 -0.00582019 ) 95
( 0.101086 0.0573514 0.00492257 ) 104
( 0.182638 0.0210132 -0.00069617 ) 99
( 0.0360816 0.06048 0.00214369 ) 102
( 0.17884 0.0712637 -0.00555804 ) 107
( 0.00975475 0.0442725 -0.012283 ) 101
( 0.107776 0.0577689 -0.0547151 ) 49
( 0.00985034 0.0901753 -0.0670866 ) 55
( 0.216615 0.0558618 -0.0346448 ) 82
( 0.139848 0.0605884 -0.0164165 ) 80
( 0.0517643 0.0144455 0.0101155 ) 94
( 0.00983651 0.0296276 0.00234288 ) 93
( 0.00990869 0.0901401 0.0095209 ) 108
( 0.0701915 0.0230234 -0.0165183 ) 68
( 0.220876 0.0444539 -0.072701 ) 22
( 0.0499434 0.0901445 -0.0313935 ) 85
( 0.158557 -0.010759 -0.0703389 ) 33
( 0.00982978 0.0561004 -0.0336282 ) 75
( 0.228028 0.0901117 -0.0696139 ) 63
( 0.0942066 0.0431394 -0.0554106 ) 49
( 0.224174 0.00563434 -0.0518752 ) 36
( 0.217572 0.0137607 -0.0187381 ) 64
( 0.230835 0.0582224 -0.0159825 ) 83
( 0.0671595 0.090061 -0.060672 ) 57
( 0.240803 0.0425551 -0.0230176 ) 74
( 0.105878 0.0625511 -0.0355477 ) 78
( 0.145641 -0.00926411 -0.0541518 ) 33
( 0.202542 0.0901119 -0.0486985 ) 62
( 0.139555 0.0278561 -0.0206242 ) 71
( 0.249324 -0.00446632 -0.0301591 ) 65
( 0.0928215 0.0900496 -0.020361 ) 87
( 0.116484 0.0456703 -0.0239085 ) 79
( 0.150073 0.0575887 0.00405066 ) 106
( 0.150629 0.0758972 -0.0260572 ) 89
( 0.159235 0.0304866 -0.0211052 ) 71
( 0.188294 0.0424341 -0.0257257 ) 72
( 0.114274 0.0737681 0.00388742 ) 112
( 0.0407254 0.0312921 -0.0200941 ) 67
( 0.0358745 0.0730624 -0.0129419 ) 109
( 0.173124 0.0166727 -0.0176435 ) 72
( 0.175218 0.0641254 0.0124445 ) 107
( 0.172953 0.0556136 -0.0163554 ) 81
( 0.0960737 0.0446744 -0.0154404 ) 78
( 0.0755171 0.0734863 -0.0158082 ) 86
( 0.205323 0.034579 -0.0193754 ) 73
( 0.203703 0.070362 -0.0264145 ) 82
( 0.0636749 0.0415574 -0.0137051 ) 95
( 0.0453209 0.0476462 -0.00975207 ) 102
( 0.0653459 0.0902182 -0.0188503 ) 86
( 0.0117252 0.0704846 -0.0666197 ) 46
( 0.109949 0.0787646 -0.0780778 ) 27
( 0.178155 0.0403746 -0.0774399 ) 12
( 0.0290395 0.0316768 -0.0760822 ) 7
( 0.237901 0.0776536 -0.0814851 ) 32
( 0.198885 0.0750807 -0.082135 ) 31
( 0.178315 -0.0141457 -0.081714 ) 3
( 0.0516001 0.0238131 -0.0777148 ) 7
( 0.112257 0.029027 -0.0799463 ) 10
( 0.0684868 0.0163304 -0.0702969 ) 39
( 0.0746303 0.0625928 -0.0755132 ) 17
( 0.138865 0.0535221 -0.0765764 ) 19
( 0.218212 0.0794267 -0.0833232 ) 31
( 0.0165759 0.0466604 -0.0722078 ) 15
( 0.153413 0.0405281 -0.0806132 ) 11
( 0.0809113 0.0442303 -0.0700948 ) 48
( 0.0503508 0.0601698 -0.0789285 ) 16
( 0.154581 0.0164592 -0.0816065 ) 11
( 0.045597 0.0419997 -0.0722798 ) 7
( 0.0457546 0.0859903 -0.0736869 ) 25
( 0.0851833 0.00826114 -0.0774033 ) 0
( 0.0787483 0.0820184 -0.075105 ) 26
( 0.129597 0.0192558 -0.0800391 ) 10
( 0.133517 -0.00671877 -0.0828085 ) 1
( 0.160783 0.0660113 -0.0849323 ) 20
( 0.186056 0.00361104 -0.0770483 ) 3
( 0.0267342 0.090059 -0.077447 ) 24
( 0.23432 0.012588 -0.0867633 ) 5
( 0.0881361 -0.0102076 -0.0842397 ) 0
( 0.2142 0.0249272 -0.0826916 ) 13
( 0.0184128 0.01614 -0.0825185 ) 6
( 0.209801 0.0570566 -0.0835769 ) 22
( 0.0104978 0.0799899 -0.0841579 ) 24
( 0.130407 0.07588 -0.0816763 ) 28
( 0.0925262 0.0315252 -0.0799373 ) 9
( 0.0656883 0.037485 -0.080977 ) 8
( 0.120091 0.0539811 -0.0830867 ) 19
( 0.0314928 0.0548331 -0.0825634 ) 16
( 0.179114 0.0731268 -0.0814085 ) 30
( 0.10186 0.061772 -0.0847631 ) 18
( 0.196414 0.0407414 -0.0856397 ) 13
( 0.10848 0.00601103 -0.0809775 ) 0
( 0.146632 0.0900885 -0.0818203 ) 29
( 0.0626115 0.0901276 -0.0832884 ) 26
( 0.233125 0.0420534 -0.0882959 ) 14
( 0.173205 0.0222346 -0.0859142 ) 12
( 0.0913692 0.0891987 -0.0888091 ) 27
( 0.00991216 0.0601005 -0.0851998 ) 15
( 0.0108306 0.0343208 -0.0868045 ) 6
( 0.0374585 0.0144109 -0.0881064 ) 7
( 0.19531 0.0203714 -0.0871996 ) 13
( 0.031482 0.0739838 -0.08825 ) 25
( 0.0851905 0.0513548 -0.0881949 ) 18
( 0.0768252 0.0226547 -0.0884041 ) 8
( 0.134865 0.0371121 -0.0871639 ) 10
( 0.115003 -0.0111433 -0.0887785 ) 1
( 0.229249 0.0615929 -0.0895787 ) 23
( 0.0632564 0.071174 -0.0894309 ) 17
( 0.183443 0.0554117 -0.0894223 ) 21
( 0.224671 -0.00775697 -0.0875407 ) 5
)
