/*--------------------------------*- C++ -*----------------------------------*\
| =========                 |                                                 |
| \\      /  F ield         | OpenFOAM: The Open Source CFD Toolbox           |
|  \\    /   O peration     | Version:  4.x                                   |
|   \\  /    A nd           | Web:      www.OpenFOAM.org                      |
|    \\/     M anipulation  |                                                 |
\*---------------------------------------------------------------------------*/
FoamFile
{
    version     2.0;
    format      ascii;
    class       volScalarField;
    location    "16.5";
    object      Cs;
}
// * * * * * * * * * * * * * * * * * * * * * * * * * * * * * * * * * * * * * //

dimensions      [1 -3 0 0 0 0 0];

internalField   nonuniform List<scalar> 
87
(
334.971
334.961
334.948
334.926
334.893
334.856
334.815
334.778
342.838
334.962
334.947
334.922
334.885
334.839
334.798
334.779
334.774
334.781
334.943
334.916
334.877
334.832
334.793
334.785
334.834
334.923
335.073
334.961
334.946
334.918
334.881
334.841
334.808
334.79
334.769
334.509
334.924
334.902
334.861
334.823
334.806
334.805
334.861
334.884
335.012
334.885
334.851
334.827
334.834
334.89
334.956
335.041
335.068
335.022
334.965
334.959
334.927
334.882
334.84
334.803
334.794
334.773
334.635
334.789
334.756
334.758
334.789
334.841
334.877
334.938
334.941
335.146
334.939
334.918
334.912
334.924
334.968
335.016
335.065
335.088
335.201
334.98
334.973
334.955
334.984
334.965
334.951
)
;

boundaryField
{
    inlet
    {
        type            calculated;
        value           nonuniform 0();
    }
    outlet
    {
        type            calculated;
        value           uniform 335;
    }
    wall
    {
        type            calculated;
        value           nonuniform List<scalar> 
57
(
334.971
334.962
334.943
334.961
334.947
334.916
334.948
334.922
334.877
334.926
334.885
334.832
334.893
334.839
334.793
334.856
334.798
334.785
334.815
334.779
334.834
334.778
334.774
334.923
342.838
334.781
335.073
334.971
334.961
334.965
334.98
334.961
334.946
334.959
334.973
334.948
334.918
334.927
334.955
334.926
334.881
334.882
334.893
334.841
334.84
334.856
334.808
334.803
334.815
334.79
334.794
334.778
334.769
334.773
342.838
334.509
334.635
)
;
    }
    procBoundary1to0
    {
        type            processor;
        value           nonuniform List<scalar> 
12
(
334.981
334.981
334.966
334.968
334.934
334.916
334.96
334.853
334.927
334.981
334.969
334.957
)
;
    }
    procBoundary1to3
    {
        type            processor;
        value           nonuniform List<scalar> 
27
(
334.941
334.912
334.875
334.833
334.797
334.783
334.805
334.847
337.367
334.867
334.831
334.808
334.805
334.83
334.869
334.934
334.988
335.106
334.887
334.873
334.878
334.892
334.926
334.965
335.009
335.053
335.153
)
;
    }
    procBoundary1to5
    {
        type            processor;
        value           nonuniform List<scalar> 
32
(
334.925
334.895
334.859
334.852
334.826
334.632
334.946
334.926
334.938
334.948
334.982
334.979
335.15
334.942
334.938
334.946
334.969
335
335.038
335.067
335.283
334.98
334.973
334.925
334.946
334.961
334.966
334.946
334.942
334.965
334.942
334.958
)
;
    }
    procBoundary1to7
    {
        type            processor;
        value           uniform 334.935;
    }
}


// ************************************************************************* //
