/*--------------------------------*- C++ -*----------------------------------*\
| =========                 |                                                 |
| \\      /  F ield         | OpenFOAM: The Open Source CFD Toolbox           |
|  \\    /   O peration     | Version:  4.x                                   |
|   \\  /    A nd           | Web:      www.OpenFOAM.org                      |
|    \\/     M anipulation  |                                                 |
\*---------------------------------------------------------------------------*/
FoamFile
{
    version     2.0;
    format      ascii;
    class       volScalarField;
    location    "16.5";
    object      magGField;
}
// * * * * * * * * * * * * * * * * * * * * * * * * * * * * * * * * * * * * * //

dimensions      [1 -2 -1 0 0 0 0];

internalField   nonuniform List<scalar> 
87
(
73.4057
136.017
97.4645
148.962
97.4321
157.541
83.1503
168.797
66.4248
70.5612
131.381
83.2309
135.685
76.4328
138.574
57.581
144.903
50.8104
51.1578
112.634
56.9092
114.405
38.4849
109.345
14.8224
98.3313
14.5829
40.702
109.27
59.6433
123.936
59.8968
139.232
51.0381
174.584
80.5811
21.4661
95.7863
29.4232
105.188
28.1626
111.61
32.8046
111.585
89.2717
13.1438
82.2981
7.09545
86.9345
3.29395
79.6532
1.15395
45.5749
57.2021
24.6397
93.6205
36.4474
106.965
41.8093
123.223
44.3372
159.911
48.5989
11.5403
81.1401
10.3217
91.4437
11.2515
96.7543
23.6856
98.9352
62.6535
23.6357
74.7893
9.16063
82.1929
3.97322
85.3586
2.76192
80.8988
7.99161
31.332
96.2999
40.7513
7.24416
80.9502
6.09538
)
;

boundaryField
{
    inlet
    {
        type            calculated;
        value           nonuniform 0();
    }
    outlet
    {
        type            calculated;
        value           nonuniform List<scalar> 9(134.46 105.134 30.2716 170.199 188.147 121.073 103.648 133.808 17.1293);
    }
    wall
    {
        type            calculated;
        value           uniform 0;
    }
    procBoundary1to0
    {
        type            processor;
        value           nonuniform List<scalar> 
12
(
84.3013
70.1963
75.1405
73.2843
60.6464
60.5906
72.4048
62.5889
60.9122
81.33
69.2875
69.9449
)
;
    }
    procBoundary1to3
    {
        type            processor;
        value           nonuniform List<scalar> 
27
(
55.0029
111.948
64.4494
120.047
58.9868
124.007
47.2416
140.52
62.6452
9.12696
80.8273
9.25092
89.8043
14.2399
96.9606
30.4388
101.39
86.5039
20.7363
72.7097
11.6803
80.8096
3.78714
84.9651
1.26238
82.3602
13.7404
)
;
    }
    procBoundary1to5
    {
        type            processor;
        value           nonuniform List<scalar> 
32
(
109.298
42.5197
125.089
41.2582
155.444
58.1707
7.26611
91.1794
14.391
96.2378
23.2357
91.7993
58.5634
80.0784
4.36146
87.9372
2.2632
91.6917
0.914119
89.6474
11.0686
25.8575
87.7242
109.298
7.26611
27.9609
11.9988
7.26611
80.0784
72.3394
80.0784
17.4986
)
;
    }
    procBoundary1to7
    {
        type            processor;
        value           uniform 6.7641;
    }
}


// ************************************************************************* //
