/*--------------------------------*- C++ -*----------------------------------*\
| =========                 |                                                 |
| \\      /  F ield         | OpenFOAM: The Open Source CFD Toolbox           |
|  \\    /   O peration     | Version:  4.x                                   |
|   \\  /    A nd           | Web:      www.OpenFOAM.org                      |
|    \\/     M anipulation  |                                                 |
\*---------------------------------------------------------------------------*/
FoamFile
{
    version     2.0;
    format      ascii;
    class       surfaceScalarField;
    location    "16.5";
    object      phi;
}
// * * * * * * * * * * * * * * * * * * * * * * * * * * * * * * * * * * * * * //

dimensions      [0 3 -1 0 0 0 0];

internalField   nonuniform List<scalar> 
192
(
1.41436e-05
4.71506e-07
-6.56795e-07
1.47763e-05
-1.07203e-07
-5.25519e-07
1.51928e-05
-2.59805e-07
-1.5667e-07
1.51837e-05
-2.23325e-07
2.32362e-07
1.54453e-05
-6.0361e-07
3.42055e-07
1.46685e-05
-2.95362e-07
1.07211e-06
1.50529e-05
-1.20843e-06
8.24108e-07
1.30282e-05
1.69932e-07
1.85475e-06
-3.44845e-06
-5.10786e-06
1.30783e-05
-7.31033e-07
-6.77913e-07
1.36379e-05
-4.39986e-07
-2.26828e-07
1.36374e-05
-3.64504e-07
1.05234e-07
1.31697e-05
-3.27413e-07
5.71717e-07
1.30549e-05
-7.18397e-07
2.29635e-07
1.19027e-05
-3.21284e-07
1.17815e-06
1.20055e-05
-1.1349e-06
-1.76351e-07
1.0502e-05
3.36985e-07
1.33642e-06
-2.65977e-06
-2.9753e-06
1.13267e-05
-4.93835e-07
1.11418e-05
2.14686e-08
1.08743e-05
-3.46619e-08
9.69833e-06
6.75287e-07
9.113e-06
-1.11243e-07
7.70708e-06
6.87967e-07
6.66091e-06
-2.01726e-07
6.68768e-06
-5.67716e-07
-1.82771e-06
1.10282e-05
1.1751e-07
-3.95246e-07
1.11907e-05
-1.53879e-07
-5.34091e-07
1.15174e-05
-2.45936e-07
-2.37454e-07
1.14652e-05
-6.81016e-08
3.5266e-07
1.2083e-05
-5.97544e-07
3.21854e-07
1.15824e-05
1.45318e-07
1.42735e-06
1.33824e-05
-1.72123e-06
7.45295e-07
1.27891e-05
-1.67919e-07
2.61606e-06
-8.15816e-06
-2.29013e-06
8.42883e-06
-4.77924e-07
-9.62038e-08
8.45659e-06
-4.75123e-07
6.66584e-08
8.55791e-06
-2.82981e-07
4.09552e-08
8.42536e-06
-8.80355e-08
7.24211e-07
8.4944e-06
-4.72946e-07
3.59932e-08
8.48679e-06
1.88597e-07
1.14248e-06
8.12476e-06
-1.22265e-06
-3.12902e-07
7.50084e-06
-1.33187e-07
1.92562e-06
-6.06997e-06
-2.94048e-06
6.49002e-06
-1.01873e-07
5.9473e-06
2.75953e-07
5.72972e-06
-8.13326e-08
5.67984e-06
5.15509e-07
4.91558e-06
-1.15554e-08
5.01474e-06
4.15194e-07
2.64773e-06
5.22826e-09
-1.0535e-07
8.27657e-07
-1.56698e-06
9.25522e-06
-1.30749e-07
-2.0327e-07
9.15758e-06
-9.74032e-08
-3.39049e-07
9.30516e-06
-1.86107e-07
-1.98931e-07
9.48943e-06
-1.14233e-07
1.01103e-05
-3.96447e-07
1.02468e-05
1.81956e-07
1.21152e-05
-1.18825e-06
1.16229e-05
9.73885e-07
-5.14677e-06
6.85429e-06
-9.59037e-08
7.30328e-08
6.58919e-06
-6.84165e-09
2.41196e-07
6.61712e-06
-1.50945e-07
6.70695e-06
-7.16336e-08
6.69945e-06
-2.21824e-07
7.39747e-06
2.93863e-08
7.15353e-06
-6.90734e-07
8.08546e-06
8.31297e-07
-3.10206e-06
5.21611e-06
3.54442e-08
5.50397e-06
5.39261e-06
5.51608e-06
5.37359e-06
5.62141e-06
4.98559e-06
5.38834e-06
9.79626e-06
-1.79519e-07
9.81373e-06
-2.10699e-07
6.65501e-06
-1.35605e-07
)
;

boundaryField
{
    inlet
    {
        type            calculated;
        value           nonuniform 0();
    }
    outlet
    {
        type            calculated;
        value           nonuniform List<scalar> 9(2.15845e-05 1.26886e-05 4.88966e-06 1.81295e-05 5.37782e-06 -8.43549e-06 1.59869e-05 5.53314e-06 9.90067e-07);
    }
    wall
    {
        type            calculated;
        value           uniform 0;
    }
    procBoundary1to0
    {
        type            processor;
        value           nonuniform List<scalar> 
12
(
-1.39583e-05
-1.11978e-05
-1.1239e-05
-1.14073e-05
-8.41511e-06
-7.18457e-06
-9.31644e-06
-7.05837e-06
-5.49178e-06
-9.63617e-06
-6.65563e-06
-6.52406e-06
)
;
    }
    procBoundary1to3
    {
        type            processor;
        value           nonuniform List<scalar> 
27
(
-3.24916e-07
-2.76516e-07
-6.23633e-08
1.73303e-07
-2.18269e-08
3.96669e-07
1.12998e-07
8.77935e-07
9.65967e-07
-1.75333e-07
-1.8688e-07
-1.87332e-08
1.21622e-07
1.91626e-07
3.6221e-07
9.37397e-07
1.22452e-06
1.99944e-06
4.24488e-08
-1.9396e-07
-4.10054e-08
5.12673e-08
-4.05372e-08
1.41015e-07
-4.73387e-08
5.38496e-07
2.68567e-08
)
;
    }
    procBoundary1to5
    {
        type            processor;
        value           nonuniform List<scalar> 
32
(
2.82626e-07
9.74801e-08
1.10882e-06
6.51627e-08
2.13452e-06
-1.50742e-06
-2.21306e-08
5.91776e-07
-1.31122e-07
5.97031e-07
-5.66479e-07
1.13627e-06
-2.43287e-06
1.75214e-07
-7.99162e-08
2.69144e-07
-5.03523e-08
5.57469e-08
-2.34953e-09
7.17711e-07
-2.97632e-07
-1.83844e-07
-1.45819e-07
9.98514e-06
-1.50122e-07
-2.20217e-07
2.97314e-08
6.69125e-06
-2.20922e-07
2.15181e-07
6.5191e-06
9.04486e-09
)
;
    }
    procBoundary1to7
    {
        type            processor;
        value           uniform -1.04246e-07;
    }
}


// ************************************************************************* //
