/*--------------------------------*- C++ -*----------------------------------*\
| =========                 |                                                 |
| \\      /  F ield         | OpenFOAM: The Open Source CFD Toolbox           |
|  \\    /   O peration     | Version:  4.x                                   |
|   \\  /    A nd           | Web:      www.OpenFOAM.org                      |
|    \\/     M anipulation  |                                                 |
\*---------------------------------------------------------------------------*/
FoamFile
{
    version     2.0;
    format      ascii;
    class       volScalarField;
    location    "16.5";
    object      thCond;
}
// * * * * * * * * * * * * * * * * * * * * * * * * * * * * * * * * * * * * * //

dimensions      [1 1 -3 -1 0 0 0];

internalField   nonuniform List<scalar> 
87
(
192.907
192.503
192.494
192.23
192.227
192.002
191.773
191.777
191.947
192.699
192.565
192.28
192.145
192.131
191.841
191.531
191.75
192.016
192.319
192.08
191.849
191.703
191.812
191.819
191.613
191.669
191.863
191.898
191.859
191.716
191.454
191.361
191.08
190.793
190.97
191.287
191.656
191.727
191.511
191.293
191.161
191.068
190.775
190.855
191.311
191.299
191.318
191.22
191.153
191.106
190.864
190.652
190.55
191.155
191.187
191.127
190.777
190.586
190.61
190.277
190.316
190.566
190.925
191.042
190.861
190.84
190.638
190.463
190.312
190.265
190.342
190.821
190.681
190.643
190.649
190.243
190.2
190.081
190.116
190.159
190.688
190.714
190.629
190.229
190.455
190.094
190.327
)
;

boundaryField
{
    inlet
    {
        type            zeroGradient;
    }
    outlet
    {
        type            zeroGradient;
    }
    wall
    {
        type            zeroGradient;
    }
    procBoundary1to0
    {
        type            processor;
        value           nonuniform List<scalar> 
12
(
193.266
192.731
192.263
192.078
191.737
191.652
191.478
191.002
191.076
190.988
190.703
190.491
)
;
    }
    procBoundary1to3
    {
        type            processor;
        value           nonuniform List<scalar> 
27
(
191.846
191.955
191.71
191.958
191.896
191.964
191.677
191.661
191.691
191.056
191.057
190.739
190.78
190.88
190.929
190.785
190.707
190.625
190.402
190.225
190.144
190.13
190.243
190.138
189.939
190.051
190.125
)
;
    }
    procBoundary1to5
    {
        type            processor;
        value           nonuniform List<scalar> 
32
(
190.192
190.002
189.996
189.916
189.886
189.903
190.201
190.216
190.089
189.93
189.738
189.706
189.839
190.051
190.139
189.927
189.943
189.93
189.716
189.85
189.715
190.336
190.385
190.192
190.201
190.068
190.132
190.201
190.051
190.053
190.051
189.961
)
;
    }
    procBoundary1to7
    {
        type            processor;
        value           uniform 189.931;
    }
}


// ************************************************************************* //
