/*--------------------------------*- C++ -*----------------------------------*\
| =========                 |                                                 |
| \\      /  F ield         | OpenFOAM: The Open Source CFD Toolbox           |
|  \\    /   O peration     | Version:  4.x                                   |
|   \\  /    A nd           | Web:      www.OpenFOAM.org                      |
|    \\/     M anipulation  |                                                 |
\*---------------------------------------------------------------------------*/
FoamFile
{
    version     2.0;
    format      ascii;
    class       volScalarField;
    location    "11.5";
    object      Deff;
}
// * * * * * * * * * * * * * * * * * * * * * * * * * * * * * * * * * * * * * //

dimensions      [0 2 -1 0 0 0 0];

internalField   nonuniform List<scalar> 
108
(
9.8823e-08
9.85932e-08
9.84285e-08
9.84108e-08
9.83497e-08
9.83149e-08
9.82032e-08
9.81411e-08
9.79593e-08
9.86071e-08
9.8502e-08
9.83403e-08
9.81929e-08
9.81562e-08
9.81579e-08
9.81438e-08
9.81046e-08
9.79156e-08
9.85667e-08
9.83667e-08
9.82768e-08
9.81056e-08
9.80912e-08
9.81008e-08
9.80467e-08
9.79232e-08
9.7994e-08
9.85891e-08
9.84195e-08
9.82308e-08
9.81611e-08
9.80324e-08
9.80216e-08
9.78628e-08
9.8001e-08
9.79997e-08
9.87924e-08
9.86364e-08
9.84159e-08
9.82635e-08
9.82388e-08
9.8263e-08
9.82337e-08
9.80139e-08
9.7878e-08
9.86698e-08
9.8484e-08
9.83625e-08
9.8227e-08
9.81877e-08
9.81465e-08
9.80755e-08
9.79411e-08
9.78545e-08
9.8628e-08
9.83897e-08
9.8195e-08
9.80786e-08
9.80249e-08
9.79958e-08
9.79694e-08
9.79224e-08
9.7903e-08
9.84315e-08
9.8303e-08
9.82055e-08
9.79839e-08
9.79001e-08
9.79254e-08
9.78043e-08
9.78818e-08
9.79215e-08
9.87928e-08
9.85711e-08
9.85515e-08
9.83259e-08
9.82544e-08
9.80701e-08
9.80853e-08
9.80002e-08
9.79699e-08
9.86651e-08
9.83678e-08
9.83872e-08
9.82985e-08
9.81952e-08
9.80596e-08
9.80563e-08
9.80142e-08
9.79113e-08
9.85815e-08
9.83181e-08
9.81987e-08
9.81068e-08
9.81042e-08
9.79946e-08
9.79981e-08
9.79337e-08
9.79454e-08
9.83798e-08
9.83033e-08
9.82303e-08
9.8006e-08
9.79412e-08
9.78338e-08
9.80061e-08
9.80222e-08
9.79768e-08
)
;

boundaryField
{
    inlet
    {
        type            calculated;
        value           uniform 0;
    }
    outlet
    {
        type            calculated;
        value           nonuniform 0();
    }
    wall
    {
        type            calculated;
        value           uniform 0;
    }
    procBoundary4to0
    {
        type            processor;
        value           uniform 0;
    }
    procBoundary4to5
    {
        type            processor;
        value           uniform 0;
    }
    procBoundary4to6
    {
        type            processor;
        value           uniform 0;
    }
}


// ************************************************************************* //
