/*--------------------------------*- C++ -*----------------------------------*\
| =========                 |                                                 |
| \\      /  F ield         | OpenFOAM: The Open Source CFD Toolbox           |
|  \\    /   O peration     | Version:  4.x                                   |
|   \\  /    A nd           | Web:      www.OpenFOAM.org                      |
|    \\/     M anipulation  |                                                 |
\*---------------------------------------------------------------------------*/
FoamFile
{
    version     2.0;
    format      ascii;
    class       volScalarField;
    location    "11.5";
    object      QWallFluid;
}
// * * * * * * * * * * * * * * * * * * * * * * * * * * * * * * * * * * * * * //

dimensions      [1 -1 -3 0 0 0 0];

internalField   nonuniform List<scalar> 
108
(
8.20971e+08
4.17607e+08
8.25797e+08
4.29789e+08
8.31938e+08
4.31747e+08
8.35024e+08
4.15653e+08
8.39685e+08
0
0
0
0
0
0
0
0
0
0
0
0
0
0
0
0
0
0
0
0
0
0
0
0
0
0
0
8.15952e+08
4.30534e+08
8.27852e+08
4.49803e+08
8.38562e+08
4.71786e+08
8.53553e+08
4.85312e+08
8.68357e+08
0
0
0
0
0
0
0
0
0
0
0
0
0
0
0
0
0
0
0
0
0
0
0
0
0
0
0
1.6422e+09
9.07392e+08
1.70059e+09
1.00235e+09
1.72263e+09
1.0415e+09
1.7494e+09
1.0857e+09
1.79619e+09
8.16628e+08
4.21042e+08
8.24144e+08
4.43541e+08
8.34749e+08
4.605e+08
8.46229e+08
4.88407e+08
8.67177e+08
8.08043e+08
4.05331e+08
8.05766e+08
4.05164e+08
8.13724e+08
4.13329e+08
8.27415e+08
4.33492e+08
8.49865e+08
7.98692e+08
3.94546e+08
7.96323e+08
3.78458e+08
7.97131e+08
3.81794e+08
8.13805e+08
4.11433e+08
8.33868e+08
)
;

boundaryField
{
    inlet
    {
        type            calculated;
        value           uniform 0;
    }
    outlet
    {
        type            calculated;
        value           nonuniform 0();
    }
    wall
    {
        type            calculated;
        value           uniform 0;
    }
    procBoundary4to0
    {
        type            processor;
        value           nonuniform List<scalar> 
36
(
8.22435e+08
4.2919e+08
8.37477e+08
4.59034e+08
8.47322e+08
4.75819e+08
8.64662e+08
5.0038e+08
8.86691e+08
0
0
0
0
0
0
0
0
0
0
0
0
0
0
0
0
0
0
0
0
0
0
0
0
0
0
0
)
;
    }
    procBoundary4to5
    {
        type            processor;
        value           nonuniform List<scalar> 
12
(
4.37527e+08
0
0
0
5.10111e+08
0
0
0
1.18723e+09
5.33128e+08
4.94834e+08
4.61938e+08
)
;
    }
    procBoundary4to6
    {
        type            processor;
        value           nonuniform List<scalar> 
27
(
0
0
0
0
0
0
0
0
0
0
0
0
0
0
0
0
0
0
8.07634e+08
4.12955e+08
8.05212e+08
4.00392e+08
8.0135e+08
3.86166e+08
7.99281e+08
3.73534e+08
8.10313e+08
)
;
    }
}


// ************************************************************************* //
