/*--------------------------------*- C++ -*----------------------------------*\
| =========                 |                                                 |
| \\      /  F ield         | OpenFOAM: The Open Source CFD Toolbox           |
|  \\    /   O peration     | Version:  4.x                                   |
|   \\  /    A nd           | Web:      www.OpenFOAM.org                      |
|    \\/     M anipulation  |                                                 |
\*---------------------------------------------------------------------------*/
FoamFile
{
    version     2.0;
    format      ascii;
    class       volScalarField;
    location    "11.5";
    object      SPartFluid;
}
// * * * * * * * * * * * * * * * * * * * * * * * * * * * * * * * * * * * * * //

dimensions      [1 -3 -1 0 0 0 0];

internalField   nonuniform List<scalar> 
108
(
5.19248e-65
7.36247e-65
7.51746e-65
5.57996e-65
5.96744e-65
5.65746e-65
7.59493e-65
6.74247e-65
8.91239e-65
7.74997e-65
6.35497e-65
7.28496e-65
8.52493e-65
8.21488e-65
7.51737e-65
6.35486e-65
5.42486e-65
9.06719e-65
6.97497e-65
8.75747e-65
6.43247e-65
8.52494e-65
6.97487e-65
5.96732e-65
6.12233e-65
9.68717e-65
5.65725e-65
4.33997e-65
5.73498e-65
7.595e-65
5.19249e-65
7.36241e-65
6.04486e-65
9.5322e-65
5.96719e-65
5.96717e-65
5.34748e-65
5.11498e-65
7.05249e-65
7.67248e-65
6.97499e-65
5.27e-65
4.41748e-65
7.05247e-65
8.2149e-65
5.65748e-65
6.50998e-65
5.96749e-65
6.58747e-65
5.96747e-65
5.96745e-65
6.66491e-65
7.90487e-65
8.13727e-65
4.41748e-65
6.27748e-65
7.8275e-65
7.20749e-65
7.36246e-65
7.28489e-65
6.66484e-65
6.66478e-65
6.81971e-65
6.66497e-65
7.20748e-65
5.96751e-65
8.52502e-65
8.75747e-65
6.43243e-65
9.60975e-65
7.90469e-65
6.81964e-65
4.95998e-65
6.66498e-65
4.4175e-65
6.7425e-65
5.73501e-65
8.06002e-65
6.58751e-65
6.8975e-65
7.20744e-65
5.34748e-65
8.75747e-65
5.81251e-65
5.50251e-65
6.20001e-65
7.20749e-65
6.35496e-65
5.65743e-65
7.59481e-65
5.03748e-65
7.43999e-65
7.44001e-65
7.13001e-65
5.5025e-65
6.66493e-65
6.43241e-65
7.51732e-65
6.27729e-65
7.74998e-65
7.05248e-65
5.8125e-65
7.82752e-65
7.13001e-65
9.22242e-65
4.49493e-65
4.88235e-65
6.35477e-65
)
;

boundaryField
{
    inlet
    {
        type            calculated;
        value           uniform 0;
    }
    outlet
    {
        type            calculated;
        value           nonuniform 0();
    }
    wall
    {
        type            calculated;
        value           uniform 0;
    }
    procBoundary4to0
    {
        type            processor;
        value           nonuniform List<scalar> 
36
(
4.57247e-65
4.88247e-65
5.73496e-65
5.34744e-65
6.12243e-65
7.7499e-65
4.80494e-65
4.10743e-65
4.95986e-65
5.50247e-65
8.13745e-65
7.28494e-65
6.74241e-65
5.81237e-65
5.65727e-65
8.3698e-65
6.58731e-65
5.50227e-65
4.57247e-65
4.95997e-65
7.28495e-65
5.73492e-65
7.28477e-65
8.05935e-65
6.74232e-65
5.11487e-65
8.05975e-65
5.26997e-65
5.88997e-65
7.82745e-65
9.22239e-65
4.4174e-65
9.22217e-65
7.12973e-65
5.42474e-65
2.32488e-65
)
;
    }
    procBoundary4to5
    {
        type            processor;
        value           nonuniform List<scalar> 
12
(
6.27727e-65
7.12974e-65
8.21459e-65
9.99688e-65
6.66478e-65
5.3473e-65
8.05961e-65
3.56479e-65
2.63493e-65
6.04477e-65
6.27722e-65
7.20714e-65
)
;
    }
    procBoundary4to6
    {
        type            processor;
        value           nonuniform List<scalar> 
27
(
1.0385e-64
7.59499e-65
4.96e-65
7.44e-65
9.37744e-65
6.12234e-65
7.36228e-65
6.50967e-65
8.52452e-65
7.98248e-65
7.67249e-65
7.90502e-65
7.28502e-65
5.42499e-65
7.05239e-65
6.27734e-65
5.88976e-65
7.90465e-65
4.72748e-65
5.26998e-65
5.96751e-65
6.89751e-65
6.51e-65
6.43243e-65
8.67982e-65
8.75723e-65
3.79735e-65
)
;
    }
}


// ************************************************************************* //
