/*--------------------------------*- C++ -*----------------------------------*\
| =========                 |                                                 |
| \\      /  F ield         | OpenFOAM: The Open Source CFD Toolbox           |
|  \\    /   O peration     | Version:  4.x                                   |
|   \\  /    A nd           | Web:      www.OpenFOAM.org                      |
|    \\/     M anipulation  |                                                 |
\*---------------------------------------------------------------------------*/
FoamFile
{
    version     2.0;
    format      ascii;
    class       volScalarField;
    location    "11.5";
    object      thCond;
}
// * * * * * * * * * * * * * * * * * * * * * * * * * * * * * * * * * * * * * //

dimensions      [1 1 -3 -1 0 0 0];

internalField   nonuniform List<scalar> 
108
(
191.833
191.387
191.067
191.033
190.914
190.847
190.63
190.509
190.156
191.414
191.21
190.896
190.61
190.539
190.542
190.515
190.438
190.072
191.335
190.947
190.773
190.44
190.412
190.431
190.326
190.086
190.224
191.379
191.05
190.683
190.548
190.298
190.277
189.969
190.237
190.235
191.773
191.471
191.043
190.747
190.699
190.746
190.689
190.262
189.998
191.536
191.175
190.939
190.676
190.6
190.52
190.382
190.121
189.953
191.454
190.992
190.614
190.388
190.284
190.227
190.176
190.085
190.047
191.073
190.824
190.634
190.204
190.041
190.091
189.855
190.006
190.083
191.774
191.344
191.306
190.868
190.729
190.371
190.401
190.236
190.177
191.526
190.949
190.987
190.815
190.614
190.351
190.345
190.263
190.063
191.364
190.853
190.621
190.443
190.438
190.225
190.232
190.106
190.129
190.973
190.824
190.682
190.247
190.121
189.913
190.247
190.278
190.19
)
;

boundaryField
{
    inlet
    {
        type            zeroGradient;
    }
    outlet
    {
        type            zeroGradient;
    }
    wall
    {
        type            zeroGradient;
    }
    procBoundary4to0
    {
        type            processor;
        value           nonuniform List<scalar> 
36
(
192.207
191.86
191.514
191.398
191.203
191.006
191.142
191.2
191.019
191.875
191.426
191.193
191.083
191.012
190.917
190.687
190.791
190.75
191.816
191.499
191.043
190.897
190.699
190.527
190.582
190.732
190.525
191.651
191.32
190.843
190.582
190.745
190.337
190.413
190.659
190.767
)
;
    }
    procBoundary4to5
    {
        type            processor;
        value           nonuniform List<scalar> 
12
(
190.342
190.118
189.956
189.801
190.221
190.156
189.926
190.137
190.697
190.266
190.091
190.024
)
;
    }
    procBoundary4to6
    {
        type            processor;
        value           nonuniform List<scalar> 
27
(
190.764
190.796
190.804
190.431
190.16
190.297
190.146
190.193
190.031
190.877
190.743
190.549
190.335
190.321
190.183
190.106
190.156
189.988
191.299
191.084
190.76
190.407
190.252
190.143
189.949
190.007
190.349
)
;
    }
}


// ************************************************************************* //
