/*--------------------------------*- C++ -*----------------------------------*\
| =========                 |                                                 |
| \\      /  F ield         | OpenFOAM: The Open Source CFD Toolbox           |
|  \\    /   O peration     | Version:  4.x                                   |
|   \\  /    A nd           | Web:      www.OpenFOAM.org                      |
|    \\/     M anipulation  |                                                 |
\*---------------------------------------------------------------------------*/
FoamFile
{
    version     2.0;
    format      ascii;
    class       volVectorField;
    location    "11.5";
    object      UsNext;
}
// * * * * * * * * * * * * * * * * * * * * * * * * * * * * * * * * * * * * * //

dimensions      [0 1 -1 0 0 0 0];

internalField   nonuniform List<vector> 
108
(
(6.55118e-08 6.04192e-09 4.73495e-08)
(9.7605e-08 1.91506e-08 6.97372e-08)
(5.31329e-08 -3.97017e-09 7.36498e-08)
(-2.5298e-07 3.36597e-08 -5.23864e-08)
(-4.11723e-07 1.71983e-07 -7.10823e-08)
(-6.4636e-07 2.26686e-07 -1.22092e-07)
(-1.24962e-06 1.68941e-07 -4.96155e-07)
(-1.50692e-06 6.9239e-08 -3.83604e-07)
(-1.75432e-06 5.79664e-07 -1.85868e-07)
(5.43699e-08 1.74451e-08 1.04443e-07)
(-3.31824e-09 -3.11575e-08 1.4334e-07)
(-1.84571e-07 1.26218e-07 1.33126e-07)
(-5.27168e-07 1.93963e-07 -4.90059e-08)
(-9.90952e-07 1.15448e-07 -1.39475e-07)
(-1.41933e-06 1.30787e-08 -6.90568e-07)
(-2.29657e-06 8.72579e-08 -5.50119e-07)
(-2.64605e-06 5.98338e-07 -9.03046e-07)
(-4.2103e-06 1.00809e-06 -6.00046e-07)
(5.20317e-08 5.68236e-08 1.4088e-07)
(-1.31396e-07 8.08653e-08 2.89503e-07)
(-4.3723e-07 2.00661e-07 2.45917e-07)
(-8.92856e-07 3.54409e-07 2.59215e-07)
(-1.38846e-06 1.98024e-07 -1.37403e-07)
(-2.21747e-06 -1.7118e-09 -4.97964e-07)
(-2.90623e-06 2.95896e-07 -6.65573e-07)
(-3.44262e-06 4.79823e-07 -9.37769e-07)
(-3.87054e-06 2.73997e-07 -1.12869e-06)
(1.64445e-08 8.46926e-08 2.0419e-07)
(-1.25375e-07 1.39249e-07 2.93834e-07)
(-5.00761e-07 2.85149e-07 3.74532e-07)
(-8.55216e-07 3.14986e-07 2.28124e-07)
(-1.78912e-06 1.94084e-07 -1.03287e-07)
(-3.0231e-06 4.883e-08 -3.71601e-07)
(-3.60757e-06 2.98155e-07 -7.2402e-07)
(-4.02457e-06 5.04977e-08 -7.17268e-07)
(-4.2911e-06 3.15342e-07 -9.42624e-07)
(5.8211e-08 -1.75055e-08 5.08627e-08)
(9.11178e-08 -4.09228e-08 6.6439e-08)
(5.1813e-08 -1.37403e-08 3.88154e-08)
(-1.15093e-07 -1.82633e-09 7.54593e-09)
(-3.34126e-07 2.32302e-08 -3.39356e-08)
(-4.45461e-07 4.51033e-09 1.22974e-09)
(-7.65386e-07 6.05406e-08 -1.90552e-07)
(-1.09648e-06 -7.63573e-08 -3.52345e-07)
(-1.18359e-06 1.36117e-07 -3.29701e-07)
(7.62806e-08 -1.55092e-08 8.71514e-08)
(3.64282e-08 -3.60955e-08 1.1591e-07)
(-3.95411e-08 1.04703e-08 9.80646e-08)
(-3.63657e-07 8.04655e-08 5.03516e-08)
(-6.91629e-07 1.26076e-08 -1.09199e-07)
(-9.51029e-07 -5.60663e-08 -1.66068e-07)
(-1.62535e-06 -8.26198e-08 -3.33231e-07)
(-1.81779e-06 -1.28114e-07 -5.75401e-07)
(-2.14537e-06 3.77343e-07 -6.3348e-07)
(7.54327e-08 1.90501e-08 9.17799e-08)
(-3.31007e-09 -1.64377e-08 2.11926e-07)
(-8.14452e-08 1.00327e-07 1.50743e-07)
(-3.85236e-07 1.54244e-07 8.10251e-08)
(-7.55866e-07 1.11826e-07 -2.22958e-08)
(-1.52743e-06 4.17039e-08 -2.18829e-07)
(-2.16264e-06 8.40021e-08 -3.58275e-07)
(-2.63169e-06 -2.72881e-08 -4.67244e-07)
(-2.91711e-06 -8.4327e-08 -9.12296e-07)
(8.329e-08 3.94096e-08 1.00105e-07)
(3.78012e-09 6.69383e-08 1.77913e-07)
(-3.16845e-07 1.92357e-07 2.79848e-07)
(-5.65599e-07 1.54193e-07 2.30617e-07)
(-8.74486e-07 1.5376e-07 1.38245e-07)
(-2.33541e-06 -1.36691e-07 -4.84068e-08)
(-2.66265e-06 -2.74286e-07 -2.43664e-07)
(-3.13218e-06 -9.77815e-08 -6.45753e-07)
(-3.4168e-06 -2.52571e-08 -9.90055e-07)
(8.59933e-08 -7.02501e-09 1.39038e-08)
(1.11933e-07 -2.66214e-08 3.84662e-08)
(1.00544e-07 -4.73383e-08 3.62454e-08)
(-6.84876e-08 -2.0281e-08 1.36864e-08)
(-1.6496e-07 -2.19715e-08 6.30133e-09)
(-3.04197e-07 -9.73037e-09 2.95445e-08)
(-4.33031e-07 6.20507e-08 -4.18145e-08)
(-6.51337e-07 2.41753e-08 -1.10167e-07)
(-6.7721e-07 1.08378e-07 -4.66727e-08)
(1.3346e-07 -1.4e-08 -1.5571e-08)
(9.62544e-08 -3.71413e-08 5.48906e-08)
(4.19172e-09 -9.05492e-09 7.51416e-08)
(-1.71184e-07 -4.64335e-08 4.56841e-08)
(-3.39413e-07 -1.17304e-08 -2.18785e-08)
(-5.95311e-07 8.43199e-08 -2.95026e-08)
(-7.50612e-07 -3.41576e-08 -4.98508e-08)
(-1.08563e-06 1.06706e-07 -2.40475e-07)
(-1.15362e-06 1.2218e-07 -2.55893e-07)
(1.0463e-07 1.71319e-08 3.22958e-08)
(5.99078e-08 -4.1469e-08 6.71298e-08)
(1.04612e-08 -4.63175e-09 7.73073e-08)
(-1.80531e-07 -2.40148e-08 6.18544e-08)
(-4.55652e-07 -1.6327e-08 -1.90473e-08)
(-9.61303e-07 9.19376e-08 -1.94952e-08)
(-1.25591e-06 -8.04569e-08 3.37815e-09)
(-1.47229e-06 -9.44778e-08 -2.46611e-07)
(-1.54853e-06 -6.18576e-08 -3.6204e-07)
(4.49181e-08 -8.19449e-09 5.08753e-08)
(4.40858e-08 -2.61325e-08 7.53132e-08)
(-1.54323e-07 -4.45811e-08 1.61475e-07)
(-3.05638e-07 4.30457e-08 1.19435e-07)
(-5.53902e-07 1.63857e-07 1.84663e-07)
(-1.01603e-06 1.23354e-07 1.34833e-07)
(-1.26529e-06 -1.90573e-07 -1.05292e-07)
(1.07555e-05 -8.06246e-06 -1.79289e-07)
(-1.97132e-06 -5.04103e-07 -2.93216e-07)
)
;

boundaryField
{
    inlet
    {
        type            calculated;
        value           nonuniform List<vector> 
12
(
(6.55118e-08 6.04192e-09 4.73495e-08)
(5.43699e-08 1.74451e-08 1.04443e-07)
(5.20317e-08 5.68236e-08 1.4088e-07)
(1.64445e-08 8.46926e-08 2.0419e-07)
(5.8211e-08 -1.75055e-08 5.08627e-08)
(7.62806e-08 -1.55092e-08 8.71514e-08)
(7.54327e-08 1.90501e-08 9.17799e-08)
(8.329e-08 3.94096e-08 1.00105e-07)
(8.59933e-08 -7.02501e-09 1.39038e-08)
(1.3346e-07 -1.4e-08 -1.5571e-08)
(1.0463e-07 1.71319e-08 3.22958e-08)
(4.49181e-08 -8.19449e-09 5.08753e-08)
)
;
    }
    outlet
    {
        type            calculated;
        value           nonuniform 0();
    }
    wall
    {
        type            calculated;
        value           nonuniform List<vector> 
63
(
(8.59933e-08 -7.02501e-09 1.39038e-08)
(1.3346e-07 -1.4e-08 -1.5571e-08)
(1.0463e-07 1.71319e-08 3.22958e-08)
(4.49181e-08 -8.19449e-09 5.08753e-08)
(1.11933e-07 -2.66214e-08 3.84662e-08)
(9.62544e-08 -3.71413e-08 5.48906e-08)
(5.99078e-08 -4.1469e-08 6.71298e-08)
(4.40858e-08 -2.61325e-08 7.53132e-08)
(1.00544e-07 -4.73383e-08 3.62454e-08)
(4.19172e-09 -9.05492e-09 7.51416e-08)
(1.04612e-08 -4.63175e-09 7.73073e-08)
(-1.54323e-07 -4.45811e-08 1.61475e-07)
(-6.84876e-08 -2.0281e-08 1.36864e-08)
(-1.71184e-07 -4.64335e-08 4.56841e-08)
(-1.80531e-07 -2.40148e-08 6.18544e-08)
(-3.05638e-07 4.30457e-08 1.19435e-07)
(-1.6496e-07 -2.19715e-08 6.30133e-09)
(-3.39413e-07 -1.17304e-08 -2.18785e-08)
(-4.55652e-07 -1.6327e-08 -1.90473e-08)
(-5.53902e-07 1.63857e-07 1.84663e-07)
(-3.04197e-07 -9.73037e-09 2.95445e-08)
(-5.95311e-07 8.43199e-08 -2.95026e-08)
(-9.61303e-07 9.19376e-08 -1.94952e-08)
(-1.01603e-06 1.23354e-07 1.34833e-07)
(-4.33031e-07 6.20507e-08 -4.18145e-08)
(-7.50612e-07 -3.41576e-08 -4.98508e-08)
(-1.25591e-06 -8.04569e-08 3.37815e-09)
(-1.26529e-06 -1.90573e-07 -1.05292e-07)
(-6.51337e-07 2.41753e-08 -1.10167e-07)
(-1.08563e-06 1.06706e-07 -2.40475e-07)
(-1.47229e-06 -9.44778e-08 -2.46611e-07)
(1.07555e-05 -8.06246e-06 -1.79289e-07)
(-6.7721e-07 1.08378e-07 -4.66727e-08)
(-1.15362e-06 1.2218e-07 -2.55893e-07)
(-1.54853e-06 -6.18576e-08 -3.6204e-07)
(-1.97132e-06 -5.04103e-07 -2.93216e-07)
(6.55118e-08 6.04192e-09 4.73495e-08)
(5.8211e-08 -1.75055e-08 5.08627e-08)
(8.59933e-08 -7.02501e-09 1.39038e-08)
(9.7605e-08 1.91506e-08 6.97372e-08)
(9.11178e-08 -4.09228e-08 6.6439e-08)
(1.11933e-07 -2.66214e-08 3.84662e-08)
(5.31329e-08 -3.97017e-09 7.36498e-08)
(5.1813e-08 -1.37403e-08 3.88154e-08)
(1.00544e-07 -4.73383e-08 3.62454e-08)
(-2.5298e-07 3.36597e-08 -5.23864e-08)
(-1.15093e-07 -1.82633e-09 7.54593e-09)
(-6.84876e-08 -2.0281e-08 1.36864e-08)
(-4.11723e-07 1.71983e-07 -7.10823e-08)
(-3.34126e-07 2.32302e-08 -3.39356e-08)
(-1.6496e-07 -2.19715e-08 6.30133e-09)
(-6.4636e-07 2.26686e-07 -1.22092e-07)
(-4.45461e-07 4.51033e-09 1.22974e-09)
(-3.04197e-07 -9.73037e-09 2.95445e-08)
(-1.24962e-06 1.68941e-07 -4.96155e-07)
(-7.65386e-07 6.05406e-08 -1.90552e-07)
(-4.33031e-07 6.20507e-08 -4.18145e-08)
(-1.50692e-06 6.9239e-08 -3.83604e-07)
(-1.09648e-06 -7.63573e-08 -3.52345e-07)
(-6.51337e-07 2.41753e-08 -1.10167e-07)
(-1.75432e-06 5.79664e-07 -1.85868e-07)
(-1.18359e-06 1.36117e-07 -3.29701e-07)
(-6.7721e-07 1.08378e-07 -4.66727e-08)
)
;
    }
    procBoundary4to0
    {
        type            processor;
        value           nonuniform List<vector> 
36
(
(1.10047e-07 1.83762e-08 6.12357e-08)
(1.33751e-07 9.79139e-08 1.14996e-07)
(-1.60169e-08 1.86424e-08 3.66001e-08)
(-5.56812e-07 1.414e-08 -1.7073e-07)
(-7.88972e-07 4.80459e-08 -1.77935e-07)
(-1.48467e-06 -7.44524e-08 -4.16446e-07)
(-1.67872e-06 9.04896e-08 -6.71839e-07)
(-2.57336e-06 6.05183e-07 -8.51801e-07)
(-2.84686e-06 4.86213e-07 -8.75113e-07)
(9.85712e-08 1.66243e-08 9.92511e-08)
(-2.64887e-08 1.04208e-07 2.03064e-07)
(-2.78422e-07 1.4273e-07 1.57642e-07)
(-1.33716e-06 1.24771e-07 -1.08396e-07)
(-1.83613e-06 1.45885e-07 -2.93814e-07)
(-2.25554e-06 2.13352e-07 -8.28136e-07)
(-3.05846e-06 5.61194e-07 -9.30381e-07)
(-3.69463e-06 9.71683e-07 -1.2641e-06)
(-4.1513e-06 8.85098e-07 -1.39858e-06)
(1.12228e-08 1.71248e-07 2.39153e-07)
(-1.60474e-07 2.09392e-07 3.2391e-07)
(-6.04711e-07 2.9985e-07 2.63885e-07)
(-1.31922e-06 3.92874e-07 1.15722e-07)
(-2.17835e-06 1.93256e-07 -2.37167e-07)
(-3.10054e-06 4.62522e-07 -9.44066e-07)
(-3.92062e-06 6.81262e-07 -1.04743e-06)
(-4.55684e-06 1.0517e-06 -1.46192e-06)
(-4.67934e-06 9.16625e-07 -1.56644e-06)
(4.62349e-08 1.67451e-07 2.52927e-07)
(-3.29391e-07 3.73676e-07 3.91904e-07)
(-7.24481e-07 3.4377e-07 4.20612e-07)
(-1.51924e-06 4.1896e-07 1.37012e-07)
(-2.50747e-06 3.18199e-07 -1.29771e-07)
(-3.57417e-06 5.31986e-07 -6.42278e-07)
(-4.34902e-06 8.16522e-07 -1.02905e-06)
(-4.60032e-06 9.73353e-07 -1.2154e-06)
(-5.17091e-06 1.00446e-06 -1.47897e-06)
)
;
    }
    procBoundary4to5
    {
        type            processor;
        value           nonuniform List<vector> 
12
(
(-1.6591e-06 1.56448e-07 -7.75984e-08)
(-2.99415e-06 3.89968e-07 -8.08215e-07)
(-3.98217e-06 9.50427e-08 -1.19504e-06)
(-4.41461e-06 3.64072e-08 -7.92363e-07)
(-1.47241e-06 2.20563e-07 -8.03323e-08)
(-2.34341e-06 5.21e-07 -2.91378e-07)
(-3.56141e-06 -3.38074e-07 -6.88576e-07)
(-4.00846e-06 -3.7602e-07 -8.00589e-07)
(-6.35739e-07 -4.38567e-08 3.00637e-08)
(-1.33687e-06 4.70204e-08 6.44115e-08)
(-1.4818e-06 -3.69953e-07 -2.68048e-08)
(-2.56244e-06 -5.5652e-07 -1.19767e-07)
)
;
    }
    procBoundary4to6
    {
        type            processor;
        value           nonuniform List<vector> 
27
(
(-1.15614e-07 1.18853e-07 2.30915e-07)
(-2.92315e-07 2.79044e-07 3.67727e-07)
(-6.30637e-07 2.47782e-07 4.65651e-07)
(-9.83925e-07 2.55692e-07 3.41281e-07)
(-1.94364e-06 3.78035e-07 1.05226e-07)
(-3.03329e-06 3.62418e-08 1.45002e-08)
(-3.47388e-06 -3.59078e-08 -2.36883e-07)
(-3.80175e-06 -3.4968e-08 -3.27661e-07)
(-4.1989e-06 9.00602e-08 -4.1897e-07)
(2.02331e-08 7.41e-09 1.09471e-07)
(-1.56346e-07 1.75073e-07 2.21357e-07)
(-3.58227e-07 1.92252e-07 3.0939e-07)
(-6.34098e-07 1.92328e-07 2.62607e-07)
(-1.06095e-06 2.08048e-07 1.72367e-07)
(-2.17954e-06 1.81557e-07 1.19295e-07)
(-2.65525e-06 -1.13407e-07 -1.68072e-07)
(-3.12929e-06 -2.23183e-07 -1.86761e-07)
(-3.44531e-06 -2.58139e-07 -3.84632e-07)
(5.93378e-08 -5.72656e-08 5.11581e-08)
(4.40512e-09 6.95831e-08 9.31142e-08)
(-1.53754e-07 3.80505e-08 1.76614e-07)
(-3.99952e-07 4.7571e-08 1.68854e-07)
(-7.59696e-07 1.05519e-07 1.42751e-07)
(-1.23835e-06 5.96825e-08 1.43993e-07)
(-1.02091e-06 7.23658e-07 -5.57649e-08)
(-2.09783e-06 -2.35818e-07 -4.20026e-08)
(-2.52498e-06 -6.32643e-07 -4.35692e-07)
)
;
    }
}


// ************************************************************************* //
