/*--------------------------------*- C++ -*----------------------------------*\
| =========                 |                                                 |
| \\      /  F ield         | OpenFOAM: The Open Source CFD Toolbox           |
|  \\    /   O peration     | Version:  4.x                                   |
|   \\  /    A nd           | Web:      www.OpenFOAM.org                      |
|    \\/     M anipulation  |                                                 |
\*---------------------------------------------------------------------------*/
FoamFile
{
    version     2.0;
    format      ascii;
    class       volVectorField;
    location    "11.5";
    object      UsPrev;
}
// * * * * * * * * * * * * * * * * * * * * * * * * * * * * * * * * * * * * * //

dimensions      [0 1 -1 0 0 0 0];

internalField   nonuniform List<vector> 
108
(
(5.44698e-08 3.20097e-09 5.8182e-08)
(7.52683e-08 1.19404e-08 9.10883e-08)
(2.25341e-08 -6.48951e-09 1.05978e-07)
(-2.95301e-07 4.01072e-08 -1.64347e-08)
(-4.53704e-07 1.92273e-07 -3.39324e-08)
(-6.98622e-07 2.19882e-07 -8.45106e-08)
(-1.29692e-06 1.71305e-07 -4.81626e-07)
(-1.55645e-06 7.65943e-08 -3.91809e-07)
(-1.93534e-06 6.90799e-07 -1.51793e-07)
(3.36213e-08 1.0323e-08 1.31888e-07)
(-4.44452e-08 -5.52868e-08 1.91504e-07)
(-2.46331e-07 1.27551e-07 2.06475e-07)
(-5.93068e-07 1.97753e-07 4.88791e-08)
(-1.07033e-06 1.26978e-07 -4.17615e-08)
(-1.50967e-06 9.28878e-09 -6.19031e-07)
(-2.37529e-06 8.60974e-08 -5.21451e-07)
(-2.73578e-06 6.2445e-07 -9.30445e-07)
(-4.60181e-06 1.21959e-06 -5.5574e-07)
(3.08513e-08 5.86236e-08 1.81882e-07)
(-1.95695e-07 7.66981e-08 3.805e-07)
(-5.23847e-07 2.08609e-07 3.66848e-07)
(-9.87158e-07 3.60498e-07 4.10128e-07)
(-1.48977e-06 2.03839e-07 4.07845e-09)
(-2.32085e-06 -1.66959e-09 -3.9816e-07)
(-3.01579e-06 3.12039e-07 -6.19045e-07)
(-3.56838e-06 5.07614e-07 -9.63323e-07)
(-3.98709e-06 2.94238e-07 -1.23224e-06)
(-6.24952e-09 9.25436e-08 2.57548e-07)
(-1.79888e-07 1.47885e-07 3.82306e-07)
(-5.9944e-07 3.05283e-07 5.08439e-07)
(-9.53234e-07 3.24621e-07 3.54495e-07)
(-1.90459e-06 1.96552e-07 3.21133e-08)
(-3.14489e-06 6.58049e-08 -2.36752e-07)
(-3.71485e-06 3.12825e-07 -6.78747e-07)
(-4.13182e-06 6.53404e-08 -7.53451e-07)
(-4.428e-06 3.34142e-07 -1.05739e-06)
(4.2675e-08 -2.66015e-08 6.34318e-08)
(7.03622e-08 -5.86882e-08 8.80761e-08)
(3.06223e-08 -2.33962e-08 6.4961e-08)
(-1.3841e-07 -4.99913e-09 3.57385e-08)
(-3.56604e-07 2.27448e-08 -4.28359e-09)
(-4.64169e-07 -3.15689e-11 2.60068e-08)
(-7.79968e-07 5.96078e-08 -1.8461e-07)
(-1.11258e-06 -6.83383e-08 -3.59951e-07)
(-1.19968e-06 1.4928e-07 -3.51777e-07)
(5.59553e-08 -2.65344e-08 1.11576e-07)
(-2.3683e-10 -5.99686e-08 1.54932e-07)
(-7.87074e-08 -6.82292e-09 1.40573e-07)
(-4.07422e-07 7.05879e-08 1.22644e-07)
(-7.26418e-07 3.86588e-09 -4.65707e-08)
(-9.85677e-07 -5.9727e-08 -1.26311e-07)
(-1.65557e-06 -7.51613e-08 -3.19054e-07)
(-1.83617e-06 -1.09372e-07 -5.83034e-07)
(-2.17689e-06 4.17144e-07 -6.8591e-07)
(6.40554e-08 1.57267e-08 1.15772e-07)
(-4.20597e-08 -3.47239e-08 2.70497e-07)
(-1.15958e-07 9.93918e-08 2.05995e-07)
(-4.15151e-07 1.65571e-07 1.52655e-07)
(-7.87677e-07 1.22482e-07 6.45021e-08)
(-1.57438e-06 3.43593e-08 -1.66644e-07)
(-2.21003e-06 8.98417e-08 -3.33796e-07)
(-2.67633e-06 -1.03546e-08 -4.83556e-07)
(-2.9631e-06 -6.1252e-08 -9.88101e-07)
(6.91189e-08 3.80808e-08 1.28369e-07)
(-2.94593e-08 6.60559e-08 2.31098e-07)
(-3.71752e-07 2.09501e-07 3.63848e-07)
(-6.24084e-07 1.66027e-07 3.11799e-07)
(-9.2946e-07 1.54337e-07 2.28529e-07)
(-2.37944e-06 -1.21706e-07 1.93618e-08)
(-2.69285e-06 -2.58282e-07 -2.0324e-07)
(-3.16577e-06 -9.06689e-08 -6.67184e-07)
(-3.46722e-06 -2.2206e-08 -1.07351e-06)
(8.07451e-08 -9.3454e-09 1.7026e-08)
(9.91353e-08 -3.66571e-08 5.14627e-08)
(8.73657e-08 -5.58194e-08 5.02952e-08)
(-7.6075e-08 -2.57906e-08 3.00136e-08)
(-1.75094e-07 -2.58649e-08 1.8201e-08)
(-3.10513e-07 -1.3235e-08 3.81556e-08)
(-4.39917e-07 6.06921e-08 -3.71983e-08)
(-6.57228e-07 2.76027e-08 -1.12556e-07)
(-6.86951e-07 1.17049e-07 -5.47876e-08)
(1.28616e-07 -2.15831e-08 -7.98016e-09)
(8.22194e-08 -5.20713e-08 7.30634e-08)
(-2.06183e-08 -1.61269e-08 9.85818e-08)
(-1.98157e-07 -5.85037e-08 6.59163e-08)
(-3.57073e-07 -2.03041e-08 4.51196e-09)
(-6.01389e-07 9.70716e-08 -1.95825e-08)
(-7.49165e-07 -2.45439e-08 -4.48386e-08)
(-1.08586e-06 1.10498e-07 -2.48728e-07)
(-1.15239e-06 1.38828e-07 -2.83964e-07)
(9.83154e-08 1.39155e-08 4.23219e-08)
(4.24473e-08 -5.92618e-08 8.88547e-08)
(-8.33484e-09 -7.09578e-09 1.0109e-07)
(-1.97625e-07 -2.81261e-08 8.67922e-08)
(-4.79094e-07 -2.25788e-08 2.10141e-08)
(-9.84622e-07 9.77007e-08 3.17405e-09)
(-1.25763e-06 -7.44963e-08 1.46701e-08)
(-1.47365e-06 -8.68323e-08 -2.53585e-07)
(-1.55919e-06 -3.40959e-08 -3.92123e-07)
(3.44728e-08 -1.27383e-08 6.47508e-08)
(2.77678e-08 -3.68972e-08 9.40073e-08)
(-1.83786e-07 -4.69146e-08 1.9739e-07)
(-3.33888e-07 5.17815e-08 1.58116e-07)
(-5.85601e-07 1.80677e-07 2.2276e-07)
(-1.04316e-06 1.33745e-07 1.55894e-07)
(-1.26773e-06 -1.836e-07 -9.53107e-08)
(1.15135e-05 -8.50794e-06 -1.84336e-07)
(-1.95868e-06 -5.10443e-07 -3.21742e-07)
)
;

boundaryField
{
    inlet
    {
        type            calculated;
        value           uniform (0 0 0);
    }
    outlet
    {
        type            calculated;
        value           nonuniform 0();
    }
    wall
    {
        type            calculated;
        value           uniform (0 0 0);
    }
    procBoundary4to0
    {
        type            processor;
        value           uniform (0 0 0);
    }
    procBoundary4to5
    {
        type            processor;
        value           uniform (0 0 0);
    }
    procBoundary4to6
    {
        type            processor;
        value           uniform (0 0 0);
    }
}


// ************************************************************************* //
