/*--------------------------------*- C++ -*----------------------------------*\
| =========                 |                                                 |
| \\      /  F ield         | OpenFOAM: The Open Source CFD Toolbox           |
|  \\    /   O peration     | Version:  4.x                                   |
|   \\  /    A nd           | Web:      www.OpenFOAM.org                      |
|    \\/     M anipulation  |                                                 |
\*---------------------------------------------------------------------------*/
FoamFile
{
    version     2.0;
    format      ascii;
    class       volScalarField;
    location    "44.5";
    object      Ksl;
}
// * * * * * * * * * * * * * * * * * * * * * * * * * * * * * * * * * * * * * //

dimensions      [1 -3 -1 0 0 0 0];

internalField   nonuniform List<scalar> 
87
(
3826.21
2555.21
3757.78
2397.86
3766.88
2112.46
4116.36
1683.26
5674.83
4468.02
2694.44
4412.97
2554.21
4533.92
2300.61
5106.84
1945.46
5993.53
5383.26
2960.24
5499.46
2858.82
5770.48
2634.75
6122.33
2194.04
6370.8
6047.28
3036.06
6106.13
2961.46
6454.04
2797.17
7747.72
2606.97
11314.2
11469.6
3399.03
12931.2
3289.44
15655.3
3054.33
16603.9
2806.88
10118.9
43094.4
3725.73
331933
3718.49
9.81963e+09
3834.17
53654.2
4104.61
7509.51
6325.49
3015.18
6608.44
2911.63
7191.36
2709.19
8289.71
2515.03
8627.61
12321.3
3348.83
12266.5
3193.91
12145.4
2983.62
10960.6
2707.22
7594.58
38715.5
3722.52
48630.7
3683.04
41868.3
3631.8
20857.8
3699.07
8036.96
8757.14
3351.58
12563.7
61070.6
3730.46
1e+10
)
;

boundaryField
{
    inlet
    {
        type            zeroGradient;
    }
    outlet
    {
        type            zeroGradient;
    }
    wall
    {
        type            zeroGradient;
    }
    procBoundary1to0
    {
        type            processor;
        value           nonuniform List<scalar> 
12
(
2614.96
2817.98
3036.31
3115.51
3485.77
3714.12
3113.23
3483.41
3736.12
3319.57
3732.31
4089.7
)
;
    }
    procBoundary1to3
    {
        type            processor;
        value           nonuniform List<scalar> 
27
(
4881.53
2747.85
4727.9
2578.25
4842.7
2378.34
5599.71
2090.34
6468.85
16517.8
3442.27
19776
3292.17
23014.7
3094.06
22223.8
2824.36
8876.51
30221.9
3641.81
38816.4
3594.87
35011.7
3591.02
23166.3
3753.18
8429
)
;
    }
    procBoundary1to5
    {
        type            processor;
        value           nonuniform List<scalar> 
32
(
3603.87
34093.4
4117.22
1e+10
5684.73
75569.7
2.13858e+06
3733.1
677671
3806.97
65225
4170.34
12188.5
4159.35
1e+10
4200.23
1e+10
4286.13
1e+10
4816.22
15018.9
7180.76
3069.63
3603.87
2.13858e+06
7389.42
32461.5
2.13858e+06
4159.35
3553.57
4159.35
1.63464e+06
)
;
    }
    procBoundary1to7
    {
        type            processor;
        value           uniform 156439;
    }
}


// ************************************************************************* //
