/*--------------------------------*- C++ -*----------------------------------*\
| =========                 |                                                 |
| \\      /  F ield         | OpenFOAM: The Open Source CFD Toolbox           |
|  \\    /   O peration     | Version:  4.x                                   |
|   \\  /    A nd           | Web:      www.OpenFOAM.org                      |
|    \\/     M anipulation  |                                                 |
\*---------------------------------------------------------------------------*/
FoamFile
{
    version     2.0;
    format      ascii;
    class       volScalarField;
    location    "44.5";
    object      QPartFluid;
}
// * * * * * * * * * * * * * * * * * * * * * * * * * * * * * * * * * * * * * //

dimensions      [1 -1 -3 0 0 0 0];

internalField   nonuniform List<scalar> 
87
(
4.29723e+09
7.05903e+09
4.1981e+09
6.55858e+09
4.37226e+09
4.88413e+09
5.24695e+09
6.59309e+09
4.00123e+09
4.53263e+09
4.43165e+09
5.84244e+09
5.74951e+09
4.39741e+09
6.6698e+09
7.64715e+09
6.73144e+09
4.01147e+09
3.94661e+09
7.09616e+09
6.22487e+09
8.96008e+09
6.29651e+09
5.82441e+09
5.76513e+09
6.30412e+09
4.29339e+09
7.4275e+09
6.59386e+09
6.14221e+09
7.58556e+09
6.36758e+09
7.8526e+09
9.0732e+09
8.9751e+09
5.37591e+09
9.02029e+09
6.72321e+09
7.56992e+09
9.43058e+09
9.21003e+09
7.72922e+09
9.41956e+09
1.05734e+10
4.71807e+09
7.91841e+09
8.48669e+09
7.18654e+09
6.80987e+09
5.79605e+09
9.31108e+09
9.44e+09
1.31761e+10
4.44635e+09
7.12438e+09
7.01339e+09
8.23375e+09
9.63173e+09
6.10415e+09
9.68575e+09
7.62369e+09
7.4581e+09
3.20067e+09
6.48492e+09
8.86536e+09
6.50143e+09
8.11227e+09
8.19839e+09
9.09663e+09
7.64806e+09
9.46198e+09
3.71119e+09
9.49175e+09
7.88243e+09
5.49421e+09
1.11478e+10
8.87868e+09
1.0704e+10
7.4892e+09
9.67861e+09
3.37546e+09
6.47173e+09
5.5337e+09
7.60343e+09
7.85746e+09
1.21984e+10
5.89519e+09
)
;

boundaryField
{
    inlet
    {
        type            calculated;
        value           nonuniform 0();
    }
    outlet
    {
        type            calculated;
        value           uniform 0;
    }
    wall
    {
        type            calculated;
        value           uniform 0;
    }
    procBoundary1to0
    {
        type            processor;
        value           nonuniform List<scalar> 
12
(
2.01748e+09
5.24279e+09
8.50499e+09
7.25953e+09
8.97179e+09
6.34617e+09
5.41851e+09
1.01477e+10
5.39686e+09
6.03951e+09
6.93027e+09
9.3327e+09
)
;
    }
    procBoundary1to3
    {
        type            processor;
        value           nonuniform List<scalar> 
27
(
8.49013e+09
3.85602e+09
6.73411e+09
3.23684e+09
5.01752e+09
3.79955e+09
5.63765e+09
5.29888e+09
2.91369e+09
8.55488e+09
8.09467e+09
1.0273e+10
1.06592e+10
8.52354e+09
7.99959e+09
6.86078e+09
8.60533e+09
7.67882e+09
8.24518e+09
1.10269e+10
9.25816e+09
1.03762e+10
6.61851e+09
7.8467e+09
9.15982e+09
8.45088e+09
6.97957e+09
)
;
    }
    procBoundary1to5
    {
        type            processor;
        value           nonuniform List<scalar> 
32
(
7.85729e+09
7.25184e+09
7.02722e+09
5.7111e+09
7.87316e+09
5.83808e+09
7.25795e+09
7.04791e+09
5.89023e+09
8.26203e+09
8.49633e+09
1.01297e+10
6.5443e+09
9.95566e+09
6.14673e+09
8.71602e+09
5.88639e+09
5.31968e+09
7.46369e+09
6.25275e+09
6.64602e+09
6.64708e+09
5.69829e+09
7.85729e+09
7.25795e+09
7.56881e+09
8.1082e+09
7.25795e+09
9.95566e+09
8.23823e+09
9.95566e+09
8.51246e+09
)
;
    }
    procBoundary1to7
    {
        type            processor;
        value           uniform 1.00662e+10;
    }
}


// ************************************************************************* //
