/*--------------------------------*- C++ -*----------------------------------*\
| =========                 |                                                 |
| \\      /  F ield         | OpenFOAM: The Open Source CFD Toolbox           |
|  \\    /   O peration     | Version:  4.x                                   |
|   \\  /    A nd           | Web:      www.OpenFOAM.org                      |
|    \\/     M anipulation  |                                                 |
\*---------------------------------------------------------------------------*/
FoamFile
{
    version     2.0;
    format      ascii;
    class       volScalarField;
    location    "44.5";
    object      Qsource;
}
// * * * * * * * * * * * * * * * * * * * * * * * * * * * * * * * * * * * * * //

dimensions      [1 -1 -3 0 0 0 0];

internalField   nonuniform List<scalar> 
87
(
5.9094e+09
9.31183e+09
5.83781e+09
8.92235e+09
5.99451e+09
7.44934e+09
6.73743e+09
9.62554e+09
5.1023e+09
5.24886e+09
5.51243e+09
6.56756e+09
6.87964e+09
5.10283e+09
7.88015e+09
8.27685e+09
8.10043e+09
4.54344e+09
4.55917e+09
8.09175e+09
6.82577e+09
9.98161e+09
6.87226e+09
6.90502e+09
6.30551e+09
7.53024e+09
4.796e+09
7.97868e+09
7.55539e+09
6.69064e+09
8.56784e+09
6.88695e+09
8.86193e+09
9.51375e+09
1.00232e+10
5.688e+09
9.02029e+09
6.72321e+09
7.56992e+09
9.43058e+09
9.21003e+09
7.72922e+09
9.41956e+09
1.05734e+10
4.71807e+09
7.91841e+09
8.48669e+09
7.18654e+09
6.80987e+09
5.79605e+09
9.31108e+09
9.44e+09
1.31761e+10
4.44635e+09
7.64205e+09
7.9582e+09
8.73402e+09
1.06007e+10
6.56688e+09
1.06905e+10
8.02859e+09
8.50804e+09
3.57952e+09
6.48492e+09
8.86536e+09
6.50143e+09
8.11227e+09
8.19839e+09
9.09663e+09
7.64806e+09
9.46198e+09
3.71119e+09
9.49175e+09
7.88243e+09
5.49421e+09
1.11478e+10
8.87868e+09
1.0704e+10
7.4892e+09
9.67861e+09
3.37546e+09
6.86254e+09
6.37701e+09
7.89341e+09
7.85746e+09
1.21984e+10
5.89519e+09
)
;

boundaryField
{
    inlet
    {
        type            calculated;
        value           nonuniform 0();
    }
    outlet
    {
        type            calculated;
        value           uniform 0;
    }
    wall
    {
        type            calculated;
        value           uniform 0;
    }
    procBoundary1to0
    {
        type            processor;
        value           nonuniform List<scalar> 
12
(
4.20007e+09
6.27976e+09
9.47608e+09
8.19923e+09
8.97179e+09
6.34617e+09
6.33945e+09
1.01477e+10
5.39686e+09
6.90082e+09
6.93027e+09
9.3327e+09
)
;
    }
    procBoundary1to3
    {
        type            processor;
        value           nonuniform List<scalar> 
27
(
9.14934e+09
4.90125e+09
7.40837e+09
4.33502e+09
5.67633e+09
4.95926e+09
6.21174e+09
6.54249e+09
3.40325e+09
8.55488e+09
8.09467e+09
1.0273e+10
1.06592e+10
8.52354e+09
7.99959e+09
6.86078e+09
8.60533e+09
7.67882e+09
8.24518e+09
1.10269e+10
9.25816e+09
1.03762e+10
6.61851e+09
7.8467e+09
9.15982e+09
8.45088e+09
6.97957e+09
)
;
    }
    procBoundary1to5
    {
        type            processor;
        value           nonuniform List<scalar> 
32
(
8.6493e+09
7.38066e+09
7.7262e+09
5.71111e+09
8.39758e+09
5.9024e+09
7.25795e+09
7.04791e+09
5.89023e+09
8.26203e+09
8.49633e+09
1.01297e+10
6.5443e+09
9.95566e+09
6.14673e+09
8.71602e+09
5.88639e+09
5.31968e+09
7.46369e+09
6.25275e+09
6.64602e+09
7.10001e+09
6.59518e+09
8.6493e+09
7.25795e+09
8.00854e+09
8.1082e+09
7.25795e+09
9.95566e+09
8.23823e+09
9.95566e+09
8.51246e+09
)
;
    }
    procBoundary1to7
    {
        type            processor;
        value           uniform 1.00662e+10;
    }
}


// ************************************************************************* //
