/*--------------------------------*- C++ -*----------------------------------*\
| =========                 |                                                 |
| \\      /  F ield         | OpenFOAM: The Open Source CFD Toolbox           |
|  \\    /   O peration     | Version:  4.x                                   |
|   \\  /    A nd           | Web:      www.OpenFOAM.org                      |
|    \\/     M anipulation  |                                                 |
\*---------------------------------------------------------------------------*/
FoamFile
{
    version     2.0;
    format      ascii;
    class       volVectorField;
    location    "44.5";
    object      U;
}
// * * * * * * * * * * * * * * * * * * * * * * * * * * * * * * * * * * * * * //

dimensions      [0 1 -1 0 0 0 0];

internalField   nonuniform List<vector> 
87
(
(0.0281022 0.000626479 -0.000885944)
(0.0431585 0.000416089 -0.000922861)
(0.0289791 0.000769023 -0.00146143)
(0.0461547 0.000540571 -0.000766032)
(0.0287042 0.000872474 -0.00262278)
(0.0514324 0.000670897 7.88911e-05)
(0.0256792 0.000423947 -0.00544015)
(0.0637059 0.00119665 0.00286498)
(0.0133666 -0.00337256 -0.0114998)
(0.0243651 -0.000640887 -0.000918987)
(0.0409168 -0.000654934 -0.000929544)
(0.0249846 -0.000947091 -0.00129336)
(0.0437452 -0.000322049 -0.000586894)
(0.0241338 -0.00170381 -0.00204733)
(0.0480382 0.000571289 0.000744279)
(0.020688 -0.00371413 -0.00406274)
(0.0559573 0.00330314 0.00371722)
(0.0105529 -0.00948226 -0.00959301)
(0.0202535 0.000183734 -0.000749138)
(0.0374151 0.000290012 -0.000804248)
(0.019988 0.000502312 -0.00103297)
(0.0390131 0.000601239 -9.27139e-05)
(0.0188842 0.000231655 -0.00205474)
(0.0417023 0.000685832 0.00114434)
(0.0170263 -0.000994569 -0.00451673)
(0.0488281 0.00127491 0.00458289)
(0.0103356 -0.00418396 -0.0114859)
(0.0179482 0.00039368 -0.000168619)
(0.0360278 0.000227878 -0.000165382)
(0.0179124 0.000618172 -0.000321969)
(0.0374028 0.000395711 0.000143475)
(0.0168667 0.000934183 -0.000689179)
(0.0390736 0.000698029 0.00104345)
(0.0137388 0.00097846 -0.00239919)
(0.0409198 0.000607504 0.00384185)
(0.00643178 0.000341231 -0.00623569)
(0.00962423 -0.000308505 -0.000103411)
(0.0326265 -0.00044857 -3.43113e-05)
(0.00855544 -0.000334944 -5.33113e-05)
(0.0342301 0.000446899 0.000621614)
(0.00705736 -0.000709647 -0.000326871)
(0.0363031 0.00181107 0.00208076)
(0.0062449 -0.00173156 -0.0013277)
(0.0382691 0.00518211 0.00509754)
(0.00556116 -0.00587494 -0.00605414)
(0.00254111 0.000126092 -0.000146623)
(0.0298916 0.000314823 0.000234051)
(0.000329587 3.05154e-05 -3.07016e-05)
(0.0299285 0.000418927 0.000721326)
(1.49073e-08 -1.40779e-09 -3.23418e-09)
(0.0287633 0.000186549 0.00174942)
(0.00188553 0.00013108 -0.000731436)
(0.0260973 -0.000131008 0.00420861)
(0.00890248 5.31821e-05 -0.0102864)
(0.0168606 0.000418715 -0.00142779)
(0.0359347 0.000321168 -0.00134716)
(0.0162569 0.00069708 -0.00205291)
(0.03765 0.00069516 -0.00127784)
(0.0145493 0.000575037 -0.00337082)
(0.0397587 0.00108963 6.00775e-06)
(0.0114515 0.000141631 -0.0056158)
(0.0415053 0.00143909 0.00338028)
(0.00636786 -0.000690867 -0.0095907)
(0.00873621 -0.000627334 -0.000968671)
(0.032816 -0.000216699 -0.000643324)
(0.00874845 -0.000949102 -0.00119923)
(0.0346248 0.000238224 0.000119021)
(0.00852227 -0.00177631 -0.00215858)
(0.0366016 0.00129128 0.00115605)
(0.00815334 -0.00351618 -0.00401471)
(0.0387865 0.00412955 0.0039729)
(0.00628253 -0.00817751 -0.00826911)
(0.00273712 -0.000139883 -0.000575807)
(0.0294775 -4.15492e-05 0.000115998)
(0.0021155 -0.000168761 -0.000682657)
(0.0299539 0.000466647 5.16112e-05)
(0.00232159 -0.000397769 -0.0010691)
(0.0299541 0.000938516 0.000668343)
(0.004144 -0.00162984 -0.00246299)
(0.0281963 0.00291448 0.00264711)
(0.00879166 -0.00720565 -0.00518765)
(0.0120595 9.27467e-05 -0.000473622)
(0.0316334 0.000491971 -0.000186498)
(0.00840445 0.000384318 -0.000469742)
(0.00172823 -0.000250774 -0.000174093)
(0.0291275 0.000600925 -0.000371504)
(1.20536e-08 -3.23371e-10 7.84331e-10)
)
;

boundaryField
{
    inlet
    {
        type            fixedValue;
        value           nonuniform 0();
    }
    outlet
    {
        type            zeroGradient;
    }
    wall
    {
        type            fixedValue;
        value           uniform (0 0 0);
    }
    procBoundary1to0
    {
        type            processor;
        value           nonuniform List<vector> 
12
(
(0.0406862 7.83935e-05 -0.00117704)
(0.0386677 -0.000986274 -0.00122783)
(0.0361363 -0.000184939 -0.00114678)
(0.0348094 -6.89326e-05 -0.000520862)
(0.0317186 -0.000896619 -0.000550367)
(0.0296058 8.8984e-05 -0.000342541)
(0.0344757 -0.000108937 -0.00126898)
(0.0314286 -0.000725169 -0.00103491)
(0.0289656 -0.000335862 -1.57127e-06)
(0.0321551 -0.000144191 -0.000605008)
(0.0289237 1.28798e-05 -0.00070164)
(0.0262054 0.000348835 -0.000111232)
)
;
    }
    procBoundary1to3
    {
        type            processor;
        value           nonuniform List<vector> 
27
(
(0.0225241 -0.000299351 -0.000277432)
(0.039911 -0.000298 -0.000507342)
(0.0232097 -0.000377851 -0.000317184)
(0.0424162 -0.000661387 4.90121e-05)
(0.0223686 -0.00161366 -0.000519577)
(0.0453593 -0.00132004 0.0013926)
(0.0183719 -0.00449519 -0.00179835)
(0.0498572 0.000152298 0.00342985)
(0.00890554 -0.011523 -0.00543974)
(0.00664785 8.59837e-05 -0.000467221)
(0.0323354 0.000175985 -0.000367836)
(0.00555798 0.000131583 -0.000601903)
(0.0337979 3.17018e-05 0.000589695)
(0.00464954 0.000109309 -0.00097112)
(0.0352676 -0.000318817 0.00241143)
(0.00430396 1.81154e-05 -0.00216112)
(0.037097 -0.00106668 0.00650172)
(0.00537617 -0.000662072 -0.0101214)
(0.00350004 -0.000319951 -0.000703683)
(0.030234 -0.00015519 -7.70461e-05)
(0.00267066 -0.00038786 -0.000746359)
(0.0305094 -0.000427547 0.000302386)
(0.00272079 -0.00074196 -0.00122534)
(0.0300837 -0.000595324 0.00128669)
(0.0035926 -0.00147922 -0.00238742)
(0.0275104 0.00101606 0.00395109)
(0.00754198 -0.00396274 -0.00837365)
)
;
    }
    procBoundary1to5
    {
        type            processor;
        value           nonuniform List<vector> 
32
(
(0.0295952 0.00109779 0.000166984)
(0.00304937 0.000233247 -0.000328764)
(0.0254544 0.000541106 0.00092273)
(1.18898e-08 1.42363e-09 -2.45969e-09)
(0.0177198 -0.000426711 0.00211065)
(0.00122067 0.000396593 -0.000100993)
(4.8338e-05 -9.94786e-06 -7.68689e-06)
(0.0287925 0.00115538 0.000310133)
(0.000145748 -4.03498e-05 -3.87857e-05)
(0.0278642 0.00124582 0.00165154)
(0.0014004 -0.000412841 -0.000636063)
(0.0241843 0.00282439 0.00428507)
(0.0062832 -0.000894666 -0.00507999)
(0.0259329 0.000658958 0.000105864)
(1.4216e-08 8.45262e-11 6.64795e-10)
(0.0255509 0.000273285 0.00037666)
(1.3891e-08 -7.52535e-10 -2.05571e-09)
(0.0246146 -0.000367347 0.000813174)
(1.28333e-08 -3.82269e-10 -3.26777e-09)
(0.021105 -0.00144485 0.00130423)
(0.00656072 0.000177739 -0.000462189)
(0.0146647 -0.000322157 0.000209731)
(0.0343992 -0.000350258 0.00072689)
(0.0295952 0.00109779 0.000166984)
(4.8338e-05 -9.94786e-06 -7.68689e-06)
(0.0142166 -0.000454947 0.00079703)
(0.00325672 -0.000403521 5.7792e-05)
(4.8338e-05 -9.94786e-06 -7.68689e-06)
(0.0259329 0.000658958 0.000105864)
(0.03012 -1.04455e-05 0.000267205)
(0.0259329 0.000658958 0.000105864)
(6.33294e-05 -9.88717e-06 7.80622e-06)
)
;
    }
    procBoundary1to7
    {
        type            processor;
        value           uniform (0.000662028 7.97682e-05 -0.000133733);
    }
}


// ************************************************************************* //
