/*--------------------------------*- C++ -*----------------------------------*\
| =========                 |                                                 |
| \\      /  F ield         | OpenFOAM: The Open Source CFD Toolbox           |
|  \\    /   O peration     | Version:  4.x                                   |
|   \\  /    A nd           | Web:      www.OpenFOAM.org                      |
|    \\/     M anipulation  |                                                 |
\*---------------------------------------------------------------------------*/
FoamFile
{
    version     2.0;
    format      ascii;
    class       volVectorField;
    location    "59";
    object      GField;
}
// * * * * * * * * * * * * * * * * * * * * * * * * * * * * * * * * * * * * * //

dimensions      [1 -2 -1 0 0 0 0];

internalField   nonuniform List<vector> 
114
(
(55.3633 -0.638285 -2.67008)
(111.768 -1.08138 -5.02798)
(64.037 -0.74191 -2.39774)
(117.328 -1.1726 -3.71121)
(69.76 -0.41864 -1.38458)
(122.82 -0.876437 -2.37757)
(99.2272 0.167151 -4.31646)
(41.7324 0.0435345 -2.43589)
(103.609 0.448751 -5.09187)
(49.5834 0.255493 -2.18921)
(107.009 0.0368018 -4.30089)
(54.4504 -0.414665 -1.76043)
(109.867 -0.612124 -3.58537)
(56.3115 -1.10543 -0.888475)
(112.301 -0.80058 -2.37061)
(99.8646 3.44918 -4.19069)
(44.5308 1.74446 -2.24453)
(106.007 3.6749 -4.30356)
(55.68 2.08639 -1.78751)
(111.833 3.60778 -3.14557)
(63.5636 1.77337 -1.08963)
(116.744 2.98638 -2.0309)
(68.7132 1.24727 -0.269266)
(121.387 2.42616 -1.11021)
(100.283 1.53234 -3.528)
(48.951 0.711921 -2.04128)
(109.339 1.3619 -3.59673)
(64.1852 0.625913 -1.74193)
(118.76 1.07764 -2.76134)
(76.6902 0.101733 -1.12505)
(127.257 0.408504 -1.81413)
(85.5459 -0.949451 -0.195114)
(133.232 -0.505838 -0.961926)
(27.3131 0.0272242 -1.96934)
(96.055 -0.204109 -3.97448)
(23.8424 0.190947 -1.44242)
(98.3991 0.165411 -2.24029)
(97.5618 1.19511 -8.08638)
(33.9809 0.258667 -3.87231)
(96.5105 1.25145 -8.55486)
(28.8869 0.65363 -3.15525)
(95.0058 1.59109 -6.48324)
(22.4389 0.267373 -2.42637)
(93.7242 0.718058 -3.97762)
(14.6127 -0.119888 -1.61102)
(93.7041 0.438527 -0.714216)
(97.6204 4.12628 -8.05928)
(37.0174 2.04811 -4.24517)
(98.031 4.8515 -8.75691)
(36.5682 1.99242 -3.69176)
(98.929 4.77503 -7.07888)
(35.8733 1.65413 -3.19391)
(100.215 4.3153 -5.76733)
(34.0489 1.09484 -2.96692)
(102.545 3.33229 -4.13838)
(98.3426 2.15754 -7.35578)
(43.7318 1.01331 -4.32494)
(103.023 2.07694 -7.71829)
(51.6881 0.772153 -4.35729)
(107.918 1.55328 -6.49812)
(58.1078 0.240475 -4.45804)
(112.386 0.793312 -5.39236)
(62.2854 -0.606352 -3.96278)
(116.512 -0.120782 -4.48528)
(14.2022 -1.04598 -1.56021)
(92.6123 -0.163443 -2.04191)
(95.4811 1.18461 -6.71665)
(30.8105 0.148601 -3.17135)
(92.1429 0.39056 -6.01747)
(20.261 -0.0342439 -1.76724)
(89.299 -0.458293 -3.67155)
(9.88879 -0.284642 -0.801781)
(87.0639 -1.79708 -1.54493)
(0.947181 -0.0525594 -0.100249)
(85.8658 -1.62953 0.185421)
(96.3575 4.12475 -6.00749)
(33.1031 1.7534 -2.92211)
(93.9162 4.60987 -5.34158)
(25.585 1.55851 -1.94315)
(92.0267 3.93378 -3.45035)
(18.0502 0.97658 -1.10062)
(90.8887 2.30785 -1.67974)
(9.38093 0.543771 -0.477485)
(90.919 -0.403579 -0.348926)
(97.2417 2.31356 -5.74492)
(39.9101 1.20657 -3.30094)
(98.9977 2.83523 -5.52934)
(43.2967 1.12865 -3.1352)
(101.258 2.38691 -4.10244)
(46.1009 0.500294 -2.54908)
(101.98 1.77602 -2.46963)
(46.1968 0.242989 -2.26483)
(103.45 0.546 -1.48867)
(94.7604 1.8181 -5.63618)
(28.9418 0.968703 -2.28915)
(90.4142 2.49214 -4.49321)
(18.8544 0.654757 -1.56749)
(88.3762 1.98635 -2.41331)
(11.1031 0.451882 -0.823665)
(87.479 1.53116 -0.0835299)
(4.42137 0.237394 -0.464428)
(94.6862 5.0788 -4.72644)
(34.376 2.50221 -2.30271)
(93.1491 5.54292 -4.16169)
(30.5195 2.01856 -2.0528)
(93.0132 4.93076 -3.23907)
(28.1644 1.89699 -1.57213)
(94.0273 4.1722 -1.87161)
(96.3675 2.45442 -4.36264)
(40.9858 1.11647 -2.68392)
(98.3607 2.19293 -4.43755)
(44.3915 0.748319 -3.14113)
(100.655 1.49598 -4.11883)
(47.5599 0.327142 -2.50602)
)
;

boundaryField
{
    inlet
    {
        type            calculated;
        value           uniform (67 0 0);
    }
    outlet
    {
        type            calculated;
        value           nonuniform 0();
    }
    wall
    {
        type            calculated;
        value           uniform (0 0 0);
    }
    procBoundary2to0
    {
        type            processor;
        value           nonuniform List<vector> 
44
(
(54.2922 -1.17768 -2.99159)
(111.189 -1.35796 -5.43007)
(61.6102 -0.358222 -2.78062)
(115.668 -0.935634 -4.78756)
(65.8356 -0.00743912 -1.89724)
(117.68 -0.708464 -3.60276)
(100.784 -1.59095 -5.37782)
(44.8938 -0.550919 -2.5979)
(106.691 -1.20099 -5.30851)
(106.691 -1.20099 -5.30851)
(32.3355 -0.0122339 -3.09731)
(96.0341 -0.136437 -6.35016)
(24.6255 -0.0100379 -1.5806)
(94.8331 -0.201144 -3.23334)
(16.7655 0.415333 -0.673389)
(95.0254 0.306319 -1.31473)
(96.6351 -0.590234 -8.92407)
(34.9334 -0.257462 -4.15228)
(97.0629 -0.61068 -8.73381)
(32.3355 -0.0122339 -3.09731)
(96.0341 -0.136437 -6.35016)
(96.0341 -0.136437 -6.35016)
(16.2024 -0.909842 -1.42467)
(91.3653 -1.6078 -2.51274)
(10.7264 -0.307042 -1.60665)
(90.7135 -1.10996 0.0930905)
(94.8311 -1.1411 -6.50286)
(30.2927 -0.595755 -3.44136)
(92.1889 -1.48203 -6.50968)
(21.7049 -0.6269 -1.8933)
(90.8282 -1.60783 -3.78341)
(16.2024 -0.909842 -1.42467)
(91.3653 -1.6078 -2.51274)
(91.3653 -1.6078 -2.51274)
(11.1972 0.625215 -1.32355)
(89.3737 -0.0996592 -1.32414)
(94.9889 -0.428589 -4.39213)
(30.6616 0.128674 -2.51795)
(91.0534 0.580275 -4.42056)
(20.822 0.445221 -1.6934)
(89.872 0.9385 -3.55761)
(14.8962 0.494237 -1.39832)
(89.4847 -0.151998 -2.74198)
(11.1972 0.625215 -1.32355)
)
;
    }
    procBoundary2to3
    {
        type            processor;
        value           nonuniform List<vector> 
12
(
(72.4907 -1.26805 -0.75068)
(54.2511 -1.4904 -0.498279)
(71.6847 1.99506 0.3844)
(90.8522 -2.14967 0.269319)
(21.5674 0.131127 -1.64878)
(7.20246 -0.112948 -1.01534)
(32.0413 1.47321 -3.10866)
(64.0932 -1.79416 -4.29866)
(12.0522 -1.13111 -2.26366)
(3.09691e-05 -2.7084e-06 -3.19862e-06)
(2.50247 0.242804 -0.132038)
(43.1698 -0.336713 -2.02219)
)
;
    }
    procBoundary2to6
    {
        type            processor;
        value           nonuniform List<vector> 
32
(
(87.4961 1.87104 -0.756018)
(27.4908 2.08323 -1.68042)
(96.4029 2.97291 -1.06478)
(103.402 0.705775 -2.84316)
(50.2545 -0.637341 -3.08095)
(106.257 -0.403175 -3.06283)
(92.1221 0.770577 -1.83795)
(26.0552 0.494899 -0.586323)
(86.9534 0.689836 -1.28782)
(11.232 0.130238 -0.381027)
(83.1208 0.00616086 -0.744927)
(1.33225 0.0131489 -0.0537692)
(81.3928 -0.748575 -0.420009)
(87.4961 1.87104 -0.756018)
(27.4908 2.08323 -1.68042)
(3.08694e-05 -6.02742e-07 -1.62743e-06)
(94.328 5.35923 -1.75338)
(30.4477 1.96277 -0.986471)
(90.8345 5.00258 -1.72891)
(20.6187 1.4218 -1.02341)
(88.2299 2.85017 -1.55314)
(11.8111 0.864065 -0.768439)
(27.4908 2.08323 -1.68042)
(103.402 0.705775 -2.84316)
(86.8279 0.264589 -1.5502)
(96.2664 2.79943 -1.85016)
(39.5894 1.25019 -1.23974)
(96.6328 2.86583 -1.95613)
(40.3145 0.853997 -1.86658)
(95.8676 1.87557 -1.9615)
(103.402 0.705775 -2.84316)
(37.8283 0.466162 -1.91077)
)
;
    }
}


// ************************************************************************* //
