/*--------------------------------*- C++ -*----------------------------------*\
| =========                 |                                                 |
| \\      /  F ield         | OpenFOAM: The Open Source CFD Toolbox           |
|  \\    /   O peration     | Version:  4.x                                   |
|   \\  /    A nd           | Web:      www.OpenFOAM.org                      |
|    \\/     M anipulation  |                                                 |
\*---------------------------------------------------------------------------*/
FoamFile
{
    version     2.0;
    format      ascii;
    class       volScalarField;
    location    "59";
    object      p;
}
// * * * * * * * * * * * * * * * * * * * * * * * * * * * * * * * * * * * * * //

dimensions      [1 -1 -2 0 0 0 0];

internalField   nonuniform List<scalar> 
114
(
5708.07
5728.74
5689.71
5721.73
5671.03
5714.99
5742.9
5725.91
5736.18
5708.3
5729.22
5690.14
5722.26
5671.76
5715.45
5742.46
5725.66
5735.76
5708.03
5728.81
5689.89
5721.83
5671.24
5715.01
5742.19
5725.56
5735.55
5707.99
5728.66
5690
5721.76
5671.63
5715.11
3811.98
3844.38
3793.07
3837.45
3865.85
3848.53
3859.08
3830.64
3852.02
3812.37
3844.95
3793.68
3837.98
3865.35
3848.16
3858.5
3830.24
3851.36
3811.96
3844.24
3793.23
3837.36
3864.92
3847.98
3858.15
3830.19
3851.12
3812.05
3844.11
3793.54
3837.33
1915.77
1959.54
1988.81
1971.12
1981.91
1953.42
1974.59
1935.41
1967.13
1917.12
1959.66
1988.35
1970.91
1981.51
1953.04
1974.25
1934.88
1967.05
1916.4
1959.9
1987.88
1970.64
1981
1952.87
1973.83
1934.94
1966.69
1916.49
1959.8
111.468
93.6475
104.33
75.6121
96.8877
57.4178
89.4212
39.1417
110.803
93.1462
103.61
75.1181
96.1538
56.7544
88.7171
110.306
92.9371
103.242
75.0479
95.904
56.7928
)
;

boundaryField
{
    inlet
    {
        type            calculated;
        value           nonuniform List<scalar> 
12
(
5742.9
5742.46
5742.19
3865.85
3865.35
3864.92
1988.81
1988.35
1987.88
111.468
110.803
110.306
)
;
    }
    outlet
    {
        type            calculated;
        value           nonuniform 0();
    }
    wall
    {
        type            calculated;
        value           nonuniform List<scalar> 
66
(
6681.86
6681.42
6681.14
6664.87
6664.62
6664.52
6675.14
6674.72
6674.51
6647.03
6647.25
6646.98
6646.95
6667.7
6668.17
6667.76
6667.61
6628.67
6629.1
6628.85
6628.96
6660.69
6661.22
6660.78
6660.72
6609.99
6610.72
6610.19
6610.59
6653.95
6654.41
6653.97
6654.06
5742.19
3864.92
1987.88
110.306
5725.56
3847.98
1970.64
92.9371
5735.55
3858.15
1981
103.242
5707.99
3830.19
1952.87
75.0479
5728.66
3851.12
1973.83
95.904
5690
3812.05
1934.94
56.7928
5721.76
3844.11
1966.69
5671.63
3793.54
1916.49
5715.11
3837.33
1959.8
)
;
    }
    procBoundary2to0
    {
        type            processor;
        value           nonuniform List<scalar> 
44
(
5708.16
5728.91
5689.91
5721.98
5671.65
5715.27
5742.68
5725.78
5735.9
5735.9
3830.48
3851.65
3812.31
3844.84
3793.77
3837.98
3865.72
3848.26
3858.8
3830.48
3851.65
3851.65
1934.49
1966.65
1916.16
1959.68
1988.68
1970.94
1981.61
1952.99
1974.12
1934.49
1966.65
1966.65
38.619
81.9617
111.26
93.5407
104.137
75.4382
96.5537
57.1677
89.0203
38.619
)
;
    }
    procBoundary2to3
    {
        type            processor;
        value           nonuniform List<scalar> 
12
(
5651.94
5653.2
5652.24
5653.19
3773.96
3775.25
3774.25
3774.78
1897.09
1899.32
1897.81
1897.99
)
;
    }
    procBoundary2to6
    {
        type            processor;
        value           nonuniform List<scalar> 
32
(
82.1047
38.0043
81.5726
88.6077
38.3284
81.606
-1765.79
-1784.04
-1773.08
-1801.54
-1780.8
-1819.54
-1788.73
82.1047
38.0043
-1837.3
-1766.45
-1784.31
-1773.56
-1802.09
-1781
-1820.34
38.0043
88.6077
-1788.47
-1767.02
-1784.55
-1774.08
-1802.17
-1781.35
88.6077
-1820.36
)
;
    }
}


// ************************************************************************* //
