/*--------------------------------*- C++ -*----------------------------------*\
| =========                 |                                                 |
| \\      /  F ield         | OpenFOAM: The Open Source CFD Toolbox           |
|  \\    /   O peration     | Version:  4.x                                   |
|   \\  /    A nd           | Web:      www.OpenFOAM.org                      |
|    \\/     M anipulation  |                                                 |
\*---------------------------------------------------------------------------*/
FoamFile
{
    version     2.0;
    format      ascii;
    class       volScalarField;
    location    "59";
    object      p_rgh;
}
// * * * * * * * * * * * * * * * * * * * * * * * * * * * * * * * * * * * * * //

dimensions      [1 -1 -2 0 0 0 0];

internalField   nonuniform List<scalar> 
114
(
74.3302
94.9987
55.9654
87.9865
37.2888
81.2471
109.161
92.1722
102.441
74.555
95.4741
56.3967
88.5183
38.0208
81.706
108.722
91.9178
102.018
74.285
95.0643
56.1502
88.085
37.4926
81.2672
108.443
91.819
101.809
74.2491
94.9127
56.2569
88.0188
37.8888
81.3646
56.1466
88.5466
37.2409
81.6218
110.018
92.6977
103.256
74.8091
96.1866
56.5368
89.1246
37.8532
82.1511
109.521
92.3315
102.667
74.4089
95.5333
56.1289
88.4136
37.405
81.5271
109.094
92.1524
102.325
74.3588
95.2897
56.2261
88.2799
37.7076
81.5013
37.8543
81.621
110.894
93.2067
104
75.5086
96.6772
57.4934
89.2132
39.2103
81.7441
110.434
92.999
103.6
75.1252
96.3359
56.9678
89.14
38.4867
81.9858
109.963
92.7212
103.084
74.9564
95.9155
57.0208
88.7786
38.5754
81.8814
111.468
93.6475
104.33
75.6121
96.8877
57.4178
89.4212
39.1417
110.803
93.1462
103.61
75.1181
96.1538
56.7544
88.7171
110.306
92.9371
103.242
75.0479
95.904
56.7928
)
;

boundaryField
{
    inlet
    {
        type            fixedFluxPressure;
        gradient        nonuniform List<scalar> 
12
(
-0.000442841
-0.00039463
-0.00037042
-0.000256664
-0.000229867
-0.000218303
-0.000110976
-9.70212e-05
-9.16034e-05
-1.55018e-07
-9.3515e-08
-2.79164e-08
)
;
        value           nonuniform List<scalar> 
12
(
109.161
108.721
108.443
110.018
109.521
109.094
110.894
110.434
109.963
111.468
110.803
110.306
)
;
    }
    outlet
    {
        type            fixedValue;
        value           nonuniform 0();
    }
    wall
    {
        type            fixedFluxPressure;
        gradient        nonuniform List<scalar> 
66
(
1.188e-06
8.60331e-07
4.00449e-07
4.49637e-06
3.97822e-06
2.19728e-06
2.48964e-06
1.87938e-06
3.13705e-07
4.77696e-06
5.94686e-06
3.85746e-06
1.3126e-06
2.46723e-06
3.12012e-06
2.24879e-06
1.61162e-06
4.69719e-06
5.3204e-06
3.15318e-06
1.97709e-06
1.8587e-06
1.77725e-06
1.60341e-06
8.68044e-07
2.54301e-06
2.73028e-06
3.0959e-06
1.66794e-06
1.22672e-06
9.54565e-07
1.13452e-06
1.61558e-07
-1.23283e-07
-7.79184e-08
-8.55622e-08
-4.68909e-08
-2.64186e-07
-3.17382e-07
-6.27099e-07
-9.05308e-07
-9.83308e-08
-1.85355e-07
-2.48683e-07
-4.18389e-07
4.07108e-06
-4.36964e-07
-4.85355e-07
-6.68493e-07
9.33179e-08
-1.54956e-07
-2.63165e-07
-3.75313e-07
-5.67578e-07
-6.00876e-07
-1.1973e-06
-9.0909e-07
-5.71823e-07
-6.24093e-07
-6.62123e-07
-4.92049e-07
-1.11366e-06
-1.53061e-06
-1.36266e-06
-6.72121e-07
-9.65795e-07
)
;
        value           nonuniform List<scalar> 
66
(
109.161
108.722
108.443
92.1722
91.9178
91.819
102.441
102.018
101.809
74.3302
74.555
74.285
74.2491
94.9987
95.4741
95.0643
94.9127
55.9654
56.3967
56.1502
56.2569
87.9865
88.5183
88.085
88.0188
37.2888
38.0208
37.4926
37.8888
81.2471
81.706
81.2672
81.3646
108.443
109.094
109.963
110.306
91.819
92.1524
92.7212
92.9371
101.809
102.325
103.084
103.242
74.2491
74.3588
74.9564
75.0479
94.9127
95.2897
95.9155
95.904
56.2569
56.2261
57.0208
56.7928
88.0188
88.2799
88.7786
37.8888
37.7076
38.5754
81.3646
81.5013
81.8814
)
;
    }
    procBoundary2to0
    {
        type            processor;
        value           nonuniform List<scalar> 
44
(
74.4184
95.1686
56.1718
88.2391
37.9044
81.5277
108.935
92.0346
102.154
102.154
74.6548
95.8194
56.4788
89.0161
37.9404
82.1476
109.894
92.4357
102.975
74.6548
95.8194
95.8194
56.5746
88.7319
38.2493
81.7676
110.766
93.0286
103.693
75.0716
96.206
56.5746
88.7319
88.7319
38.619
81.9617
111.26
93.5407
104.137
75.4382
96.5537
57.1677
89.0203
38.619
)
;
    }
    procBoundary2to3
    {
        type            processor;
        value           nonuniform List<scalar> 
12
(
18.1924
19.4529
18.4963
19.4423
18.1262
19.4187
18.4258
18.953
19.1727
21.4007
19.8941
20.076
)
;
    }
    procBoundary2to6
    {
        type            processor;
        value           nonuniform List<scalar> 
32
(
82.1047
38.0043
81.5726
88.6077
38.3284
81.606
112.126
93.8748
104.833
76.373
97.1161
58.3725
89.1807
82.1047
38.0043
40.6159
111.468
93.6027
104.349
75.8198
96.9186
57.5729
38.0043
88.6077
89.4485
110.897
93.3682
103.836
75.743
96.5647
88.6077
57.55
)
;
    }
}


// ************************************************************************* //
