/*--------------------------------*- C++ -*----------------------------------*\
| =========                 |                                                 |
| \\      /  F ield         | OpenFOAM: The Open Source CFD Toolbox           |
|  \\    /   O peration     | Version:  4.x                                   |
|   \\  /    A nd           | Web:      www.OpenFOAM.org                      |
|    \\/     M anipulation  |                                                 |
\*---------------------------------------------------------------------------*/
FoamFile
{
    version     2.0;
    format      ascii;
    class       surfaceScalarField;
    location    "59";
    object      phi;
}
// * * * * * * * * * * * * * * * * * * * * * * * * * * * * * * * * * * * * * //

dimensions      [0 3 -1 0 0 0 0];

internalField   nonuniform List<scalar> 
259
(
1.01527e-05
-2.28881e-08
1.0745e-05
-6.22953e-08
1.10076e-05
-6.88732e-08
-2.58645e-07
1.14447e-05
-1.06168e-07
-4.55439e-07
1.16783e-05
-9.09299e-08
-1.67253e-07
-9.97332e-08
-2.73691e-07
8.59914e-06
2.14452e-07
-7.34813e-07
8.83664e-06
1.06078e-07
-3.73752e-07
9.35582e-06
2.44488e-07
-8.08484e-07
9.51053e-06
1.38892e-07
-3.16492e-07
9.87105e-06
2.16137e-07
-6.38955e-07
9.96927e-06
8.07223e-08
-2.47811e-07
1.01703e-05
1.40964e-07
-4.48211e-07
1.02188e-05
8.16806e-09
-1.47586e-07
9.66332e-08
-1.83032e-07
8.80835e-06
2.95081e-07
-7.25715e-07
9.15335e-06
1.45484e-07
-3.84409e-07
9.87315e-06
2.98326e-07
-7.73633e-07
1.01759e-05
1.60596e-07
-3.24408e-07
1.07201e-05
2.77478e-07
-6.05607e-07
1.09434e-05
1.1094e-07
-2.53489e-07
1.13452e-05
2.01002e-07
-4.61867e-07
1.15275e-05
1.73154e-08
-1.91408e-07
1.13534e-07
-3.10904e-07
9.10308e-06
-6.44732e-07
9.62564e-06
-3.77081e-07
1.05942e-05
-6.70231e-07
1.11159e-05
-3.61148e-07
1.19419e-05
-5.48452e-07
1.23833e-05
-3.30463e-07
1.30111e-05
-4.26841e-07
1.32744e-05
-2.45969e-07
-3.22574e-07
7.4753e-06
1.70457e-08
7.3506e-06
2.98498e-08
7.39416e-06
3.61568e-09
-1.77961e-07
3.522e-08
-2.53452e-07
8.02555e-06
3.1539e-07
-8.76822e-07
7.93194e-06
1.36861e-07
-4.17177e-07
7.66249e-06
3.61758e-07
-8.63159e-07
7.51861e-06
1.56945e-07
-2.91799e-07
7.18945e-06
3.77395e-07
-6.01461e-07
7.03621e-06
1.14117e-07
-1.9165e-07
6.64621e-06
2.98568e-07
-3.26931e-07
6.54608e-06
5.81939e-08
-1.0203e-07
2.23764e-07
-3.09251e-08
8.21396e-06
3.7228e-07
-8.33302e-07
8.20977e-06
1.81332e-07
-4.24685e-07
8.22282e-06
4.10388e-07
-8.35312e-07
8.22575e-06
1.63667e-07
-3.34062e-07
8.24671e-06
3.74769e-07
-6.23945e-07
8.2501e-06
1.12062e-07
-2.54826e-07
8.2258e-06
3.02463e-07
-4.41458e-07
8.26861e-06
2.86744e-08
-2.04697e-07
1.90066e-07
-2.66047e-07
8.66692e-06
-7.76107e-07
8.92298e-06
-4.51805e-07
9.44796e-06
-7.84831e-07
9.69449e-06
-4.44007e-07
1.01489e-05
-6.28067e-07
1.03459e-05
-4.15476e-07
1.06875e-05
-4.65879e-07
1.08395e-05
-3.69391e-07
-3.54031e-07
6.45589e-06
-6.59727e-08
-1.06238e-07
7.70577e-06
3.14633e-07
-7.31511e-07
7.47266e-06
1.12751e-07
-3.23419e-07
6.87066e-06
2.96322e-07
-6.22366e-07
6.64604e-06
9.05324e-08
-1.97201e-07
6.07616e-06
2.06018e-07
-3.60323e-07
5.86745e-06
4.14628e-08
-9.57816e-08
5.40484e-06
3.0309e-08
-9.65894e-08
5.23983e-06
2.97611e-08
-3.27516e-08
-1.20534e-07
7.89866e-06
3.81459e-07
-6.35525e-07
7.72056e-06
1.75407e-07
-3.09235e-07
7.30289e-06
4.41118e-07
-5.62446e-07
7.13654e-06
1.59145e-07
-2.36321e-07
6.73987e-06
3.74481e-07
-3.95732e-07
6.59699e-06
8.73159e-08
-1.57802e-07
6.15359e-06
2.42034e-07
-2.09788e-07
6.05929e-06
4.63792e-08
8.54274e-09
8.36707e-06
-5.98448e-07
8.44499e-06
-3.54323e-07
8.69133e-06
-5.90056e-07
8.77793e-06
-3.7146e-07
9.01095e-06
-4.86609e-07
8.98171e-06
-2.98919e-07
9.07219e-06
9.06521e-06
7.5479e-06
4.08759e-07
7.25376e-06
2.05803e-07
6.67943e-06
4.76209e-07
6.5043e-06
1.58599e-07
6.09383e-06
4.10055e-07
5.96668e-06
1.39501e-07
5.64272e-06
3.382e-07
7.87432e-06
4.46262e-07
7.75159e-06
2.14308e-07
7.55651e-06
4.58183e-07
7.49755e-06
1.63791e-07
7.41565e-06
3.80584e-07
7.40487e-06
1.31551e-07
8.3793e-06
8.47185e-06
8.71898e-06
8.80824e-06
9.06275e-06
)
;

boundaryField
{
    inlet
    {
        type            calculated;
        value           nonuniform List<scalar> 
12
(
-8.16327e-06
-8.16327e-06
-8.16327e-06
-8.16327e-06
-8.16327e-06
-8.16327e-06
-8.16327e-06
-8.16327e-06
-8.16327e-06
-8.16327e-06
-8.16327e-06
-8.16327e-06
)
;
    }
    outlet
    {
        type            calculated;
        value           nonuniform 0();
    }
    wall
    {
        type            calculated;
        value           nonuniform List<scalar> 
66
(
0
0
0
0
0
0
0
0
0
0
0
0
0
0
0
0
0
0
0
0
0
0
0
0
0
0
0
0
0
0
0
0
0
0
0
0
0
0
0
0
0
0
0
0
0
0
0
-1.54074e-33
0
0
0
0
0
0
0
0
0
0
0
0
0
0
0
0
0
3.08149e-33
)
;
    }
    procBoundary2to0
    {
        type            processor;
        value           nonuniform List<scalar> 
44
(
1.074e-07
1.44216e-07
6.49308e-08
1.24521e-07
2.46444e-08
9.35089e-08
8.44831e-08
3.0178e-08
-9.8956e-06
4.48146e-08
-3.41647e-07
-6.74222e-07
-1.13745e-09
2.35221e-08
-3.6471e-08
-2.84421e-08
-3.5668e-08
1.78914e-10
-3.76323e-08
-3.77631e-08
-7.5488e-06
-8.57214e-08
-2.01052e-07
-3.84112e-07
7.94562e-08
7.52357e-08
-2.45094e-09
2.66012e-08
6.4887e-08
3.94921e-08
1.22722e-07
7.13747e-08
-6.47647e-06
2.01962e-07
-1.70859e-07
-1.99564e-07
-8.20123e-08
-6.47776e-08
-1.81631e-07
-6.48396e-08
-1.72767e-07
-5.55975e-08
-8.12432e-08
-5.02594e-08
)
;
    }
    procBoundary2to3
    {
        type            processor;
        value           nonuniform List<scalar> 
12
(
1.19582e-05
1.02055e-05
1.18215e-05
1.37105e-05
7.36715e-06
6.20543e-06
8.25745e-06
1.10611e-05
6.433e-06
5.25732e-06
5.74747e-06
8.98891e-06
)
;
    }
    procBoundary2to6
    {
        type            processor;
        value           nonuniform List<scalar> 
32
(
-3.4122e-08
-1.27014e-07
-8.33009e-08
-3.14325e-07
-3.16031e-07
-2.6919e-07
-4.42897e-07
-1.70302e-07
-3.42614e-07
-1.15833e-07
-1.87135e-07
-5.2543e-08
-2.95828e-08
5.54992e-06
1.38186e-07
-2.78731e-08
-3.8408e-07
-1.95013e-07
-3.49339e-07
-1.82558e-07
-2.84358e-07
-1.39073e-07
7.44771e-06
2.88793e-07
-2.03221e-07
-3.68221e-07
-2.32567e-07
-3.78997e-07
-2.96933e-07
-3.60537e-07
9.15742e-06
-2.62038e-07
)
;
    }
}


// ************************************************************************* //
