/*--------------------------------*- C++ -*----------------------------------*\
  =========                 |
  \\      /  F ield         | OpenFOAM: The Open Source CFD Toolbox
   \\    /   O peration     | Website:  https://openfoam.org
    \\  /    A nd           | Version:  4.x
     \\/     M anipulation  |
\*---------------------------------------------------------------------------*/
FoamFile
{
    version     2.0;
    format      ascii;
    class       vectorField;
    location    0;
    object      v;
}
// * * * * * * * * * * * * * * * * * * * * * * * * * * * * * * * * * * * * * //

325
(
( 1.38093e-08 2.44152e-09 1.24152e-08 )  
( 1.11092e-08 -5.96687e-09 -8.72398e-09 )  
( -2.1802e-07 -3.26453e-08 1.21654e-08 )  
( -1.53378e-09 3.65973e-10 -1.16754e-08 )  
( -3.70569e-08 -8.29588e-09 -2.20994e-08 )  
( 1.39496e-08 1.20511e-10 4.48091e-10 )  
( 9.11616e-09 4.9563e-09 9.50318e-09 )  
( 7.36256e-09 5.09849e-09 9.41989e-09 )  
( -2.22285e-07 -1.61584e-08 1.14019e-08 )  
( 1.00944e-08 4.55227e-09 1.39428e-08 )  
( -2.22589e-07 -4.54087e-09 3.50565e-08 )  
( -1.72686e-07 -1.55304e-08 -5.75401e-09 )  
( -1.51192e-07 -1.4003e-08 -1.80965e-08 )  
( -2.06497e-07 -2.95979e-08 1.60213e-08 )  
( -2.50537e-07 1.32085e-08 2.74273e-08 )  
( -3.5989e-08 -5.60928e-09 -1.44471e-08 )  
( -1.13318e-08 -3.13606e-09 -5.15207e-09 )  
( 1.75869e-08 1.10246e-10 7.55123e-09 )  
( 4.54139e-09 2.04174e-09 -2.7329e-09 )  
( -1.34423e-07 -2.07755e-08 -3.93872e-08 )  
( -1.46681e-08 -2.98958e-09 -9.1948e-09 )  
( -1.45809e-07 -1.77667e-08 -2.39939e-08 )  
( -2.30185e-07 -2.93093e-08 1.2775e-08 )  
( -4.5868e-08 -5.54206e-09 -3.20691e-08 )  
( 1.33911e-08 -2.16193e-09 5.76037e-09 )  
( -2.00782e-07 -2.97196e-08 8.53216e-10 )  
( 1.71333e-08 7.04674e-09 1.46043e-08 )  
( -1.88771e-07 -2.74629e-08 1.42812e-08 )  
( -1.52118e-08 1.00541e-08 -9.8973e-09 )  
( -1.33854e-07 -1.10361e-08 -5.75828e-09 )  
( -4.03033e-08 -8.22525e-09 -2.37886e-08 )  
( 1.18509e-08 6.19693e-09 -4.73567e-09 )  
( -8.78914e-08 1.41176e-09 -1.68287e-08 )  
( 1.93558e-08 4.38175e-09 9.82647e-09 )  
( 1.70998e-08 1.24784e-10 5.11725e-09 )  
( 9.78964e-09 3.74932e-09 7.67866e-09 )  
( 2.16606e-08 2.05573e-09 7.19185e-09 )  
( -7.78377e-08 -2.87346e-08 -3.67075e-08 )  
( -5.93221e-08 -2.44757e-08 -2.22406e-08 )  
( -1.39935e-07 -2.34085e-08 -9.20542e-09 )  
( 1.42018e-08 3.9605e-09 1.18736e-08 )  
( 1.42233e-08 5.63607e-09 7.15783e-09 )  
( 1.59009e-08 4.86775e-09 1.45731e-08 )  
( -6.23367e-09 6.11936e-09 -9.62704e-09 )  
( -2.1936e-08 6.29622e-09 -5.07737e-09 )  
( -1.41291e-07 -2.90291e-08 -1.21016e-08 )  
( -8.49612e-08 -3.32214e-08 -4.0955e-08 )  
( 1.07532e-09 -6.77253e-09 -1.25291e-08 )  
( -3.54881e-08 -6.43919e-09 -1.86039e-08 )  
( -7.97165e-09 4.09712e-09 -5.45954e-09 )  
( 2.26853e-08 -7.75479e-10 6.39361e-09 )  
( -2.4566e-08 1.30559e-08 -1.66712e-08 )  
( -1.25063e-07 -1.99987e-08 -2.42117e-08 )  
( -1.89632e-07 -1.63597e-08 -3.06354e-08 )  
( -7.30065e-08 -2.3208e-08 1.43704e-08 )  
( -3.83638e-10 -1.19342e-09 -1.45605e-08 )  
( -1.09492e-07 -1.29022e-08 -4.05179e-08 )  
( 5.73302e-09 2.33365e-09 8.60727e-09 )  
( -1.92307e-07 -2.21235e-08 -2.50343e-08 )  
( 5.18313e-09 2.77053e-09 9.16415e-09 )  
( 1.48306e-09 2.23345e-09 2.15022e-09 )  
( -3.83713e-09 -8.0257e-10 -5.28334e-09 )  
( 1.23346e-08 5.22101e-09 9.44918e-09 )  
( -1.72398e-07 -3.37804e-08 1.96833e-09 )  
( 1.90919e-08 6.67308e-09 1.3326e-08 )  
( -1.67661e-07 -2.52543e-09 4.01324e-09 )  
( -1.94934e-07 -1.9663e-08 -1.77405e-10 )  
( -8.99267e-08 -3.27348e-08 -3.60912e-08 )  
( -1.82938e-07 -1.6032e-08 4.48773e-09 )  
( 1.10859e-08 1.10341e-09 1.91016e-09 )  
( 1.67063e-08 2.44617e-09 1.14508e-08 )  
( -8.63002e-09 3.81252e-09 -1.36567e-08 )  
( -7.17886e-08 -1.76846e-08 -1.83641e-08 )  
( -2.3222e-08 1.9826e-09 -1.16667e-08 )  
( 1.15954e-08 4.82256e-09 1.4478e-09 )  
( -1.33071e-07 -2.04693e-08 -2.34651e-08 )  
( -1.29705e-07 2.48153e-10 -1.60579e-08 )  
( -2.23363e-07 -1.87217e-08 3.87997e-08 )  
( 1.54461e-08 6.29519e-09 -8.66236e-10 )  
( -1.91519e-07 -1.31487e-08 2.25739e-09 )  
( -1.68125e-09 5.55506e-09 -9.62506e-09 )  
( -2.12661e-07 -2.48962e-08 8.89927e-09 )  
( -1.35787e-07 -2.15958e-08 -2.81656e-08 )  
( -2.1673e-07 -2.56468e-08 2.05393e-08 )  
( -1.63718e-07 -2.19697e-08 -1.2042e-08 )  
( 1.46833e-08 4.94231e-09 5.87787e-09 )  
( -1.62854e-07 -5.97936e-09 -9.67492e-11 )  
( 5.56639e-09 1.05736e-09 8.80644e-09 )  
( -1.29699e-08 5.91403e-09 -1.05032e-08 )  
( -8.83016e-08 8.65955e-09 -8.9553e-10 )  
( 8.61703e-09 1.98653e-09 9.24077e-09 )  
( 1.35792e-08 -3.03006e-09 5.15732e-09 )  
( -5.34944e-08 -1.28343e-08 -5.55532e-08 )  
( 5.87472e-09 4.71739e-09 9.18921e-09 )  
( 7.49001e-09 3.23966e-09 8.96606e-09 )  
( -1.08048e-08 -1.50961e-08 -1.70569e-08 )  
( 8.91603e-09 3.07976e-09 1.2634e-08 )  
( 1.69044e-08 7.8817e-09 1.33671e-08 )  
( -2.02913e-07 -4.06357e-08 4.88736e-08 )  
( -3.79726e-08 -6.81831e-09 -1.43112e-08 )  
( -3.51133e-08 -9.74581e-09 -1.10369e-09 )  
( -2.69963e-08 8.53567e-10 -2.90271e-09 )  
( -1.45333e-07 -1.9617e-08 -1.43136e-08 )  
( 1.03605e-08 2.78552e-09 8.00979e-09 )  
( -4.97512e-09 2.20168e-09 -1.5004e-09 )  
( 1.2678e-08 4.02995e-12 6.95918e-09 )  
( -8.61703e-08 -8.90861e-09 4.33084e-09 )  
( -2.21287e-08 7.30252e-10 7.43981e-09 )  
( -1.94316e-07 -1.32487e-08 -1.61403e-09 )  
( 1.23983e-08 1.14688e-09 5.05299e-09 )  
( -2.8534e-08 -3.99082e-09 -6.10826e-09 )  
( 7.80671e-09 -7.02268e-10 2.56397e-09 )  
( -7.80387e-08 -9.51064e-09 -5.52583e-09 )  
( -1.51756e-07 -3.21549e-08 1.90522e-08 )  
( -1.6619e-07 -2.64341e-08 1.2137e-08 )  
( 3.14274e-09 5.15046e-09 1.24066e-09 )  
( 6.05326e-09 -1.057e-09 5.7314e-09 )  
( -7.7363e-08 -1.67373e-08 5.62603e-09 )  
( 5.42179e-09 5.86242e-10 2.26357e-09 )  
( -1.39654e-07 -5.62507e-08 2.43826e-08 )  
( 1.2354e-08 7.8755e-10 4.33011e-09 )  
( -7.35985e-08 -5.48094e-09 -2.25354e-09 )  
( -1.57959e-07 -3.2252e-08 6.6343e-09 )  
( -1.69956e-08 -2.4304e-09 4.31144e-09 )  
( -6.35912e-09 2.61552e-09 -2.79843e-09 )  
( -1.65871e-07 -2.1282e-08 1.14139e-08 )  
( -1.62893e-07 -2.00892e-08 -7.76811e-09 )  
( -1.35699e-07 -3.18908e-08 -2.28584e-08 )  
( 4.82494e-09 3.08529e-09 2.46497e-09 )  
( 8.89777e-09 3.38882e-09 4.45124e-09 )  
( 1.15281e-08 6.68964e-11 2.48172e-09 )  
( -1.61636e-07 -2.75989e-08 -1.32562e-08 )  
( -6.30278e-08 -1.05231e-08 -1.20564e-08 )  
( 1.03463e-08 4.46766e-10 2.86054e-09 )  
( -6.02494e-08 -1.57413e-08 1.01668e-08 )  
( -1.43046e-07 -2.62512e-08 -6.82693e-09 )  
( 8.546e-09 -2.74446e-09 -6.71305e-09 )  
( -7.51598e-08 3.19958e-09 -2.15062e-09 )  
( -2.12804e-07 -1.40857e-09 8.30892e-10 )  
( -2.71261e-08 -1.36773e-09 -6.39056e-09 )  
( 9.44384e-09 4.77442e-09 3.62326e-09 )  
( -1.54507e-07 -2.83751e-08 -8.63222e-09 )  
( -6.21685e-09 2.10016e-09 6.41135e-10 )  
( 1.88136e-09 2.12218e-09 -7.52085e-10 )  
( -1.36384e-08 2.33436e-09 -1.05423e-09 )  
( -2.00183e-08 -1.3996e-09 4.14927e-09 )  
( -1.34015e-07 -2.52687e-08 -1.00813e-08 )  
( 5.69281e-09 2.70049e-09 2.79557e-09 )  
( 8.54289e-09 3.55389e-10 1.91151e-09 )  
( 1.03614e-08 4.30707e-09 5.98119e-09 )  
( -4.8904e-09 -6.98795e-09 1.2855e-10 )  
( -4.67888e-08 -1.24801e-08 -4.73573e-09 )  
( -1.64135e-07 -2.77607e-09 -2.98638e-09 )  
( -1.41373e-07 -2.90309e-08 -3.66755e-09 )  
( -2.07166e-08 6.15568e-09 2.54658e-09 )  
( 1.81625e-08 6.21595e-09 5.22735e-09 )  
( 4.86681e-09 5.42169e-09 -7.48812e-10 )  
( 4.36257e-09 1.59734e-09 5.62547e-09 )  
( -1.85458e-08 3.87881e-09 -8.35545e-09 )  
( -1.5554e-07 -2.29261e-08 -1.35297e-08 )  
( -1.93996e-08 -4.24033e-09 7.21001e-10 )  
( 1.53846e-08 1.1487e-09 7.55954e-09 )  
( 7.88861e-09 1.99567e-09 5.40622e-09 )  
( -1.02466e-07 1.09294e-09 -8.05155e-09 )  
( 1.4223e-08 3.70767e-10 4.08621e-09 )  
( -1.39682e-07 -2.58816e-08 -1.08924e-08 )  
( 8.59057e-09 2.30964e-09 8.04228e-09 )  
( -1.93197e-07 -2.69935e-08 -1.93591e-09 )  
( -1.07048e-07 -7.1423e-09 -1.21772e-08 )  
( -6.6648e-08 -1.56663e-09 -1.8291e-08 )  
( -1.66672e-07 -2.22742e-08 6.83934e-09 )  
( -7.15301e-09 3.59927e-09 -1.49431e-09 )  
( -4.84594e-08 -1.51086e-08 -1.60922e-08 )  
( -1.24172e-08 7.00078e-11 -8.45282e-09 )  
( -3.49e-08 -6.57729e-09 1.10441e-08 )  
( 8.22544e-09 6.91336e-10 4.98855e-09 )  
( -1.98732e-07 -2.04638e-08 3.77795e-09 )  
( 5.14782e-09 -4.03977e-10 3.2785e-09 )  
( -3.78961e-08 2.65988e-09 3.96725e-09 )  
( -1.65325e-07 -2.30587e-08 1.00181e-08 )  
( -4.92009e-08 -2.36004e-08 -1.67159e-08 )  
( -1.32814e-07 -1.23506e-08 -1.07159e-08 )  
( -4.97255e-08 5.89137e-09 -1.54751e-08 )  
( -1.12922e-07 -2.41073e-08 -5.19726e-09 )  
( -1.26469e-09 1.3559e-09 1.66906e-09 )  
( 7.66155e-09 3.68166e-09 4.49408e-09 )  
( 7.51354e-09 5.14196e-09 3.90752e-09 )  
( -1.14927e-07 -1.99622e-08 -1.59259e-08 )  
( 1.43104e-08 1.04426e-09 7.0677e-09 )  
( 1.15181e-08 4.53861e-10 4.01893e-09 )  
( 4.87073e-09 7.55016e-10 4.90073e-09 )  
( 6.03128e-09 3.48074e-09 5.4613e-09 )  
( -8.91561e-09 1.40577e-09 -4.58132e-09 )  
( -2.05669e-07 -2.01337e-08 1.13027e-09 )  
( -1.77867e-07 -1.89876e-08 -8.28092e-10 )  
( -1.67307e-08 -4.03132e-10 -1.20386e-08 )  
( -6.00465e-09 -3.43919e-09 7.11507e-10 )  
( -6.64311e-08 -1.00074e-08 8.21271e-09 )  
( -2.02828e-07 -2.9378e-08 1.24206e-08 )  
( 1.05823e-08 1.30085e-09 8.33687e-09 )  
( 1.27774e-08 2.16021e-09 5.99217e-09 )  
( -1.95811e-08 1.43314e-09 -1.02875e-09 )  
( -1.7521e-07 -1.32769e-08 2.76717e-09 )  
( 5.27297e-09 2.85938e-09 6.00626e-09 )  
( -1.33778e-07 -3.02484e-08 -3.5143e-09 )  
( -1.05952e-07 8.12215e-10 -8.46321e-09 )  
( 1.13264e-08 -1.93364e-09 4.06835e-09 )  
( 7.67098e-09 9.48139e-11 2.30015e-09 )  
( -1.20021e-07 -1.4824e-08 -1.45762e-08 )  
( -1.24449e-07 -6.41663e-09 1.93292e-09 )  
( 7.40515e-09 1.53019e-10 2.10247e-09 )  
( -7.38996e-08 -3.64376e-09 -4.2602e-09 )  
( -1.6652e-07 -3.09539e-08 -2.02027e-08 )  
( -1.64935e-07 1.14068e-08 1.16519e-08 )  
( 8.41831e-09 2.8294e-09 7.72005e-09 )  
( -2.13099e-07 -5.64715e-08 -1.88908e-08 )  
( 4.95738e-09 1.01765e-09 5.15577e-09 )  
( 7.53702e-09 3.36669e-09 4.14856e-09 )  
( -1.44945e-07 -2.55903e-08 -7.43053e-09 )  
( -9.598e-09 -8.69032e-09 -3.65983e-09 )  
( 3.2129e-09 -1.90985e-09 2.15844e-09 )  
( -9.26442e-09 -2.99263e-09 -1.5249e-09 )  
( -9.08175e-08 -2.56033e-08 -3.39467e-09 )  
( -1.31546e-07 2.739e-08 7.30018e-09 )  
( 3.13873e-09 2.02164e-10 1.77556e-09 )  
( -1.37417e-07 -6.14911e-09 2.029e-08 )  
( 5.57916e-09 -2.03936e-09 2.72592e-09 )  
( -6.73134e-08 -2.34267e-08 -2.38982e-08 )  
( 1.52797e-08 2.97515e-09 7.64876e-09 )  
( -1.03857e-07 -2.30958e-08 2.94739e-08 )  
( -3.89067e-08 -9.0291e-09 -1.0708e-08 )  
( 9.1724e-09 8.16986e-09 1.66323e-09 )  
( -4.59151e-09 3.64638e-09 -1.45074e-09 )  
( -1.4545e-08 -5.24438e-09 3.7217e-09 )  
( -1.47895e-07 -5.63796e-08 -3.64419e-08 )  
( -1.62771e-07 -1.79776e-08 -1.85501e-08 )  
( -1.44783e-07 -2.4616e-08 6.24887e-09 )  
( 7.61905e-09 -2.03099e-09 1.75386e-09 )  
( -6.44326e-08 4.81836e-09 4.11109e-09 )  
( -1.31671e-07 -1.75651e-08 3.3976e-09 )  
( -2.52461e-08 -2.40905e-09 -3.8341e-09 )  
( 6.50734e-09 -2.84768e-10 -3.88062e-10 )  
( -1.77865e-07 -2.56044e-08 -1.33287e-08 )  
( -5.09001e-08 -3.8979e-09 9.4281e-09 )  
( 6.40188e-09 3.49402e-09 2.90075e-09 )  
( 6.50831e-09 -2.63734e-09 3.21526e-09 )  
( -3.4901e-09 -5.36158e-10 -2.69589e-09 )  
( -1.17787e-07 -3.59068e-08 -1.02642e-08 )  
( 3.6286e-09 -1.7149e-10 3.32542e-09 )  
( -4.3671e-08 -1.32018e-08 1.13866e-08 )  
( 9.22664e-09 5.72881e-10 3.10881e-09 )  
( 4.46887e-09 1.66632e-09 9.84975e-10 )  
( 5.65596e-09 1.07104e-09 -9.39867e-10 )  
( -6.94023e-08 -6.618e-09 1.762e-10 )  
( -1.73903e-07 -2.85612e-08 -7.19777e-09 )  
( -3.57535e-08 3.00193e-09 1.16034e-08 )  
( -2.55212e-08 -5.32564e-09 -8.79847e-10 )  
( -6.1897e-08 -5.58404e-09 -1.66283e-09 )  
( 1.46156e-08 -1.28464e-09 3.80689e-09 )  
( -3.90248e-09 1.71029e-10 2.43001e-09 )  
( -2.13082e-08 -6.86304e-09 5.79056e-09 )  
( -2.2826e-07 -4.98018e-08 -3.37073e-09 )  
( -3.2341e-08 -3.19693e-09 2.28878e-09 )  
( -2.03832e-09 -4.04713e-09 1.4417e-09 )  
( -7.95952e-08 -9.05415e-10 -3.0183e-09 )  
( 8.32255e-09 -1.21393e-09 1.64907e-09 )  
( -1.14965e-07 -1.48289e-08 -6.45763e-09 )  
( -1.65531e-08 -4.09112e-09 1.09446e-09 )  
( 6.8472e-09 7.51674e-10 1.37231e-09 )  
( 7.40779e-09 -1.68288e-09 2.09985e-09 )  
( -1.60775e-07 -2.78664e-08 1.07002e-08 )  
( -5.7967e-08 1.20793e-08 -2.09427e-09 )  
( 2.94454e-09 -1.2876e-09 1.08841e-09 )  
( 8.25173e-09 1.19365e-09 1.50531e-10 )  
( -5.50634e-08 -7.72635e-09 -4.75564e-09 )  
( -2.08149e-08 -2.97808e-10 3.37102e-09 )  
( -1.06259e-07 7.19346e-09 1.43374e-08 )  
( -8.84667e-08 -1.29079e-09 5.74265e-09 )  
( -4.45829e-10 -3.26208e-09 3.74103e-10 )  
( -6.61469e-10 -1.36092e-11 8.08597e-10 )  
( -1.78201e-08 -6.0669e-09 -2.27716e-09 )  
( 5.08587e-09 3.43679e-09 9.45094e-10 )  
( -9.03319e-08 -5.35563e-09 1.21203e-08 )  
( -1.58218e-08 1.11091e-09 6.57444e-09 )  
( -1.0963e-07 7.81796e-09 1.65249e-08 )  
( 5.50892e-09 2.80412e-09 2.52009e-09 )  
( -1.57099e-08 -3.13111e-09 -4.09079e-09 )  
( 4.85089e-09 1.60665e-09 1.87637e-09 )  
( 5.00797e-09 1.38042e-09 1.4554e-09 )  
( -1.72992e-07 -1.67712e-08 -1.23015e-08 )  
( -2.91306e-08 7.4574e-10 3.5069e-09 )  
( 6.39186e-09 -9.47333e-11 4.01578e-10 )  
( -3.00027e-08 -4.91738e-09 4.24872e-09 )  
( -8.54499e-08 -1.78731e-09 2.88068e-09 )  
( -7.39669e-08 -1.61998e-08 2.19973e-10 )  
( -1.2145e-07 -3.60574e-08 2.95638e-08 )  
( -2.34049e-08 -3.86106e-09 8.25053e-09 )  
( -7.84062e-08 -2.71098e-08 1.48303e-08 )  
( -2.7869e-08 1.82609e-08 6.72737e-10 )  
( 6.21934e-09 3.58655e-10 2.5948e-09 )  
( -1.80615e-08 -2.95267e-09 8.90752e-09 )  
( -6.80119e-09 5.25354e-11 1.06942e-09 )  
( 7.52366e-11 -1.92502e-09 1.7406e-09 )  
( -1.03828e-08 1.25832e-09 1.31879e-09 )  
( -7.84388e-09 -9.61632e-11 6.72529e-10 )  
( -6.01682e-08 -2.5673e-08 8.04294e-09 )  
( -5.29076e-08 -1.38788e-08 -1.06208e-10 )  
( 4.23766e-09 -5.01412e-10 1.97495e-09 )  
( -6.79227e-08 -1.70179e-09 7.24393e-10 )  
( 5.87764e-09 1.27487e-09 7.22738e-10 )  
( 3.20969e-09 8.35173e-10 1.10738e-09 )  
( -3.30679e-09 -3.07806e-09 3.85863e-09 )  
( -1.0619e-08 -3.62901e-09 2.19806e-09 )  
( 5.24179e-11 -9.79847e-10 -8.56614e-10 )  
( 4.22442e-09 1.34402e-09 1.62145e-09 )  
( -6.194e-07 2.81667e-07 1.0146e-08 )  
( -6.42726e-10 -1.40156e-09 2.06576e-09 )  
( -3.46075e-08 8.61892e-09 -2.66985e-09 )  
( -9.62255e-08 -1.00814e-08 1.59916e-09 )  
( 5.60205e-09 -2.09274e-10 1.66376e-09 )  
( 3.16093e-09 -1.39721e-10 1.68523e-09 )  
( -8.31745e-08 -2.14018e-08 1.78797e-09 )  
( -1.21888e-07 -1.56108e-08 1.4591e-08 )  
( -9.28743e-08 -1.63625e-08 1.21589e-09 )  
( -6.33282e-08 -9.32697e-09 4.60449e-09 )  
)
