/*--------------------------------*- C++ -*----------------------------------*\
| =========                 |                                                 |
| \\      /  F ield         | OpenFOAM: The Open Source CFD Toolbox           |
|  \\    /   O peration     | Version:  4.x                                   |
|   \\  /    A nd           | Web:      www.OpenFOAM.org                      |
|    \\/     M anipulation  |                                                 |
\*---------------------------------------------------------------------------*/
FoamFile
{
    version     2.0;
    format      ascii;
    class       volScalarField;
    location    "31.5";
    object      p;
}
// * * * * * * * * * * * * * * * * * * * * * * * * * * * * * * * * * * * * * //

dimensions      [1 -1 -2 0 0 0 0];

internalField   nonuniform List<scalar> 
132
(
5742.89
5726.74
5737.46
5706.25
5727.53
5689.57
5721.32
5671.32
5714.78
5742.98
5726.36
5736.29
5707.73
5728.3
5689.7
5721.53
5671.3
5714.87
5743.06
5726.28
5736.19
5708.25
5728.86
5689.91
5721.87
5671.57
5715.14
5743.08
5726.18
5736.25
3865.55
3848.81
3858.77
3830.08
3850.73
3812.02
3843.95
3793.72
3837.27
3865.81
3848.75
3858.86
3830.46
3851.26
3812.1
3844.24
3793.59
3837.41
3866.06
3848.78
3859.09
3830.74
3851.79
3812.31
3844.67
3793.7
3837.82
3866.1
3848.64
3859.14
3830.79
3851.91
1988.02
1970.82
1980.91
1952.72
1973.37
1934.37
1966.2
1915.8
1959.3
1988.47
1970.99
1981.36
1952.91
1973.87
1934.46
1966.6
1915.79
1959.48
1988.83
1971.16
1981.79
1953.16
1974.27
1934.6
1966.78
1915.97
1959.64
1989.07
1971.31
1982.04
1953.32
1974.52
1934.85
1966.92
110.561
93.3259
103.486
75.4513
96.1431
57.2338
88.834
38.9793
81.9359
111.128
93.5917
103.969
75.5849
96.5138
57.3747
89.185
38.9263
82.1438
111.555
93.9627
104.488
76.0791
97.0043
58.0164
89.3973
40.1016
81.9557
111.736
94.0706
104.616
76.1423
96.9735
58.2228
89.3031
40.2209
81.9566
)
;

boundaryField
{
    inlet
    {
        type            calculated;
        value           nonuniform List<scalar> 
16
(
5742.89
5742.98
5743.06
5743.08
3865.55
3865.81
3866.06
3866.1
1988.02
1988.47
1988.83
1989.07
110.561
111.128
111.555
111.736
)
;
    }
    outlet
    {
        type            calculated;
        value           nonuniform 0();
    }
    wall
    {
        type            calculated;
        value           nonuniform List<scalar> 
66
(
6681.84
6681.93
6682.02
6682.04
6665.7
6665.32
6665.24
6665.14
6676.42
6675.25
6675.15
6675.21
6645.21
6646.68
6647.2
6666.49
6667.25
6667.82
6628.53
6628.65
6628.86
6660.28
6660.49
6660.83
6610.27
6610.26
6610.53
6653.73
6653.82
6654.1
5742.89
3865.55
1988.02
110.561
5726.74
3848.81
1970.82
93.3259
5737.46
3858.77
1980.91
103.486
5706.25
3830.08
1952.72
75.4513
5727.53
3850.73
1973.37
96.1431
5689.57
3812.02
1934.37
57.2338
5721.32
3843.95
1966.2
88.834
5671.32
3793.72
1915.8
38.9793
5714.78
3837.27
1959.3
81.9359
)
;
    }
    procBoundary0to1
    {
        type            processor;
        value           nonuniform List<scalar> 
12
(
5652.84
5652.59
5652.82
3775.17
3774.81
3775.21
1897.16
1896.91
1897.63
20.6788
20.6648
22.5345
)
;
    }
    procBoundary0to2
    {
        type            processor;
        value           nonuniform List<scalar> 
44
(
5708.37
5729
5689.98
5721.92
5671.35
5715.14
5743.02
5726.08
5708.37
5736.22
5708.37
5729
3812.26
3844.59
3793.42
3837.65
3866
3848.69
3859.12
3830.79
3812.26
3851.91
3812.26
3844.59
1916.34
1959.66
1988.8
1971.11
1981.79
1953.3
1974.38
1935.06
1916.34
1966.95
1916.34
1959.66
111.631
93.8442
104.413
75.8313
96.8911
57.6827
89.3803
39.5207
)
;
    }
    procBoundary0to4
    {
        type            processor;
        value           nonuniform List<scalar> 
36
(
-1767.16
-1784.55
-1774.3
-1802.43
-1781.75
-1820.66
-1789.12
-1839.18
-1796.27
-1766.51
-1784.25
-1773.69
-1802.2
-1781.28
-1820.58
-1788.76
-1839.06
-1795.95
-1766.05
-1783.94
-1773.31
-1801.87
-1781
-1820.11
-1788.57
-1838.36
-1796.01
-1765.87
-1783.66
-1773.08
-1801.5
-1780.73
-1819.59
-1788.47
-1837.77
-1796.06
)
;
    }
    procBoundary0to6
    {
        type            processor;
        value           uniform 82.0546;
    }
    procBoundary0to7
    {
        type            processor;
        value           uniform 22.809;
    }
}


// ************************************************************************* //
