/*--------------------------------*- C++ -*----------------------------------*\
| =========                 |                                                 |
| \\      /  F ield         | OpenFOAM: The Open Source CFD Toolbox           |
|  \\    /   O peration     | Version:  4.x                                   |
|   \\  /    A nd           | Web:      www.OpenFOAM.org                      |
|    \\/     M anipulation  |                                                 |
\*---------------------------------------------------------------------------*/
FoamFile
{
    version     2.0;
    format      ascii;
    class       volScalarField;
    location    "31.5";
    object      Sm;
}
// * * * * * * * * * * * * * * * * * * * * * * * * * * * * * * * * * * * * * //

dimensions      [1 -3 -1 0 0 0 0];

internalField   nonuniform List<scalar> 
132
(
5.50257e-65
4.41756e-65
3.10004e-65
2.86754e-65
3.79755e-65
4.03005e-65
4.72756e-65
3.48754e-65
1.70502e-65
4.88257e-65
4.72756e-65
4.57256e-65
5.11506e-65
3.17754e-65
5.81257e-65
4.41755e-65
4.96006e-65
3.95254e-65
2.71254e-65
5.34757e-65
4.72756e-65
4.72756e-65
4.26255e-65
4.34005e-65
3.25504e-65
4.49505e-65
6.89757e-65
2.86754e-65
4.41756e-65
3.25504e-65
4.18506e-65
6.66509e-65
8.0601e-65
7.05259e-65
6.82008e-65
7.13009e-65
5.73507e-65
6.43257e-65
6.20007e-65
5.42507e-65
7.9826e-65
6.27758e-65
7.20759e-65
7.28509e-65
7.13008e-65
7.05258e-65
7.75008e-65
6.97507e-65
5.89008e-65
8.13761e-65
6.82009e-65
6.27758e-65
7.36259e-65
5.89007e-65
8.29259e-65
6.04506e-65
4.96005e-65
8.06011e-65
6.12258e-65
6.12258e-65
4.72756e-65
8.9901e-65
5.96758e-65
6.82009e-65
7.28509e-65
6.74258e-65
6.58758e-65
5.19256e-65
7.05258e-65
6.89757e-65
4.72755e-65
6.43259e-65
7.05259e-65
6.43258e-65
5.96757e-65
7.36259e-65
5.73506e-65
7.36258e-65
8.83509e-65
8.29258e-65
7.6726e-65
6.27758e-65
6.58758e-65
8.2151e-65
7.82759e-65
7.36258e-65
7.44008e-65
6.20006e-65
4.57254e-65
7.2851e-65
7.5951e-65
7.6726e-65
8.1376e-65
8.21509e-65
7.13008e-65
7.13007e-65
4.57256e-65
4.88256e-65
5.73507e-65
5.34757e-65
6.12257e-65
7.44009e-65
4.80505e-65
4.10754e-65
4.96005e-65
5.50257e-65
8.13761e-65
7.28509e-65
6.74258e-65
5.81257e-65
5.96757e-65
8.37009e-65
6.58757e-65
5.50255e-65
4.57256e-65
4.96006e-65
7.28509e-65
5.73507e-65
7.28508e-65
8.06008e-65
6.74257e-65
5.11505e-65
8.06007e-65
5.27007e-65
5.89008e-65
7.9826e-65
9.06761e-65
4.49505e-65
9.1451e-65
7.13007e-65
5.42505e-65
2.32502e-65
)
;

boundaryField
{
    inlet
    {
        type            calculated;
        value           uniform 0;
    }
    outlet
    {
        type            calculated;
        value           nonuniform 0();
    }
    wall
    {
        type            calculated;
        value           uniform 0;
    }
    procBoundary0to1
    {
        type            processor;
        value           nonuniform List<scalar> 
12
(
3.72004e-65
3.64254e-65
3.48754e-65
6.66507e-65
7.20757e-65
7.13007e-65
7.05257e-65
5.58005e-65
8.91258e-65
6.58757e-65
7.05257e-65
5.73505e-65
)
;
    }
    procBoundary0to2
    {
        type            processor;
        value           nonuniform List<scalar> 
44
(
6.51008e-65
4.88256e-65
2.55753e-65
4.88256e-65
3.02253e-65
4.10754e-65
5.73508e-65
6.51009e-65
6.51008e-65
5.11507e-65
6.51008e-65
4.88256e-65
8.44759e-65
9.7651e-65
5.73506e-65
9.22259e-65
5.42507e-65
6.82009e-65
7.6726e-65
7.8276e-65
8.44759e-65
6.97508e-65
8.44759e-65
9.7651e-65
7.59507e-65
8.13758e-65
7.2851e-65
4.96006e-65
5.50257e-65
6.12257e-65
5.58006e-65
7.13008e-65
7.59507e-65
8.37009e-65
7.59507e-65
8.13758e-65
4.80506e-65
8.1376e-65
8.3701e-65
6.51008e-65
6.82008e-65
5.89006e-65
6.27756e-65
7.75007e-65
)
;
    }
    procBoundary0to4
    {
        type            processor;
        value           nonuniform List<scalar> 
36
(
5.19257e-65
7.3626e-65
7.5176e-65
5.58007e-65
5.96757e-65
5.65757e-65
7.59509e-65
6.74257e-65
8.91259e-65
7.7501e-65
6.35508e-65
7.36259e-65
8.60261e-65
8.2151e-65
7.51758e-65
6.35507e-65
5.42505e-65
9.06759e-65
6.97509e-65
8.75761e-65
6.66508e-65
8.4476e-65
6.66508e-65
5.96756e-65
6.12256e-65
9.68759e-65
5.65755e-65
4.34006e-65
5.73507e-65
7.59509e-65
5.19256e-65
7.36258e-65
6.35507e-65
9.22259e-65
5.96756e-65
5.96755e-65
)
;
    }
    procBoundary0to6
    {
        type            processor;
        value           uniform 6.74256e-65;
    }
    procBoundary0to7
    {
        type            processor;
        value           uniform 9.92008e-65;
    }
}


// ************************************************************************* //
