/*--------------------------------*- C++ -*----------------------------------*\
| =========                 |                                                 |
| \\      /  F ield         | OpenFOAM: The Open Source CFD Toolbox           |
|  \\    /   O peration     | Version:  4.x                                   |
|   \\  /    A nd           | Web:      www.OpenFOAM.org                      |
|    \\/     M anipulation  |                                                 |
\*---------------------------------------------------------------------------*/
FoamFile
{
    version     2.0;
    format      ascii;
    class       volVectorField;
    location    "31.5";
    object      U;
}
// * * * * * * * * * * * * * * * * * * * * * * * * * * * * * * * * * * * * * //

dimensions      [0 1 -1 0 0 0 0];

internalField   nonuniform List<vector> 
132
(
(0.0299711 -0.000472646 -0.00124434)
(0.0146773 -0.000313593 -0.000878814)
(0.0330033 -0.000568046 -0.00143342)
(0.0195855 -0.000242639 -0.000853314)
(0.0360038 -0.000408932 -0.00121606)
(0.0234233 -0.000135577 -0.000740519)
(0.0385513 -0.000279492 -0.00106114)
(0.0260943 -7.78797e-05 -0.000814981)
(0.0406362 -0.000108467 -0.000983309)
(0.0300669 -0.000885303 -0.00141689)
(0.0139093 -0.000631718 -0.000844807)
(0.0324272 -0.00111116 -0.00150964)
(0.0177352 -0.000549218 -0.000882637)
(0.0347552 -0.000894811 -0.00136482)
(0.0207902 -0.000354723 -0.000742603)
(0.0368167 -0.000765147 -0.00116994)
(0.0229877 -0.000517092 -0.00067937)
(0.0384436 -0.000691473 -0.000964475)
(0.0301527 -0.000643666 -0.00157832)
(0.0134509 -0.000394809 -0.000825155)
(0.0321198 -0.000769653 -0.00162951)
(0.0166155 -0.000432263 -0.000863763)
(0.0338652 -0.000561027 -0.00150988)
(0.0189644 -0.000210178 -0.000796718)
(0.0353685 -0.00044457 -0.0013284)
(0.0204232 -0.000146762 -0.000523018)
(0.0364233 -0.000365922 -0.00102164)
(0.0301493 -0.000419739 -0.00161185)
(0.0134784 -0.000123459 -0.000789413)
(0.0321699 -0.000253996 -0.00159361)
(0.0298442 -0.000632851 -0.00212811)
(0.0129934 -0.000285839 -0.00124094)
(0.0315861 -0.000648427 -0.002186)
(0.0151645 -0.000280483 -0.00106108)
(0.0328858 -0.000563836 -0.00160403)
(0.0168406 -0.000153944 -0.000795889)
(0.0340455 -0.000405809 -0.00121646)
(0.0178914 1.02213e-05 -0.000671354)
(0.035034 -0.000148355 -0.000790347)
(0.0299173 -0.00117046 -0.00242105)
(0.0116383 -0.000536635 -0.00120075)
(0.030672 -0.00127276 -0.00241019)
(0.0121325 -0.000475031 -0.00101397)
(0.0311221 -0.00113534 -0.00186386)
(0.0120325 -0.000305695 -0.000697355)
(0.0315758 -0.000982292 -0.00142973)
(0.0115956 -0.000152529 -0.000499054)
(0.032024 -0.000747245 -0.000835622)
(0.0298494 -0.000804111 -0.00261365)
(0.0106862 -0.000284182 -0.00114186)
(0.030174 -0.000809099 -0.00264917)
(0.010003 -0.000248888 -0.000932134)
(0.0301872 -0.000663444 -0.00196774)
(0.00861497 -8.89623e-05 -0.000542294)
(0.0301534 -0.000382093 -0.0011856)
(0.00663583 5.99064e-05 -0.000225395)
(0.0301618 -0.000260968 -0.000531468)
(0.029741 -0.000223352 -0.00283393)
(0.0108285 -0.000112422 -0.00133961)
(0.0300083 -0.000213667 -0.00291606)
(0.0101226 -4.32563e-05 -0.00104557)
(0.0301304 -1.5155e-05 -0.00223852)
(0.0298307 -0.000780052 -0.00182081)
(0.0126224 -0.000367651 -0.00112205)
(0.0310658 -0.000849163 -0.00191387)
(0.0141223 -0.000361683 -0.00113455)
(0.0321216 -0.000780131 -0.00157617)
(0.0153463 -0.000259766 -0.00111352)
(0.033179 -0.000627061 -0.00128527)
(0.0161002 -0.000152761 -0.00127243)
(0.0340839 -0.000305108 -0.00119401)
(0.029826 -0.00137167 -0.00206752)
(0.0109375 -0.000616149 -0.00111706)
(0.030038 -0.00160126 -0.00206585)
(0.0102673 -0.000548178 -0.000894996)
(0.030117 -0.0013164 -0.00150344)
(0.00921628 -0.00029079 -0.000790281)
(0.0303096 -0.000840822 -0.00122349)
(0.00789418 -0.000180064 -0.000736218)
(0.0307365 -0.000495369 -0.00100655)
(0.0297156 -0.00107256 -0.00213102)
(0.00964075 -0.00048336 -0.00111966)
(0.0292437 -0.00123832 -0.00222564)
(0.0067382 -0.000306091 -0.000769854)
(0.0289 -0.000871528 -0.00155644)
(0.00405311 -0.000139972 -0.000511978)
(0.0288295 -0.000388539 -0.000854799)
(0.00241268 -0.000103631 -0.000420605)
(0.0288645 -0.000196665 -5.97273e-05)
(0.0296444 -0.000142 -0.00220679)
(0.00905004 -5.50652e-05 -0.00117454)
(0.0288953 -7.4743e-05 -0.00228471)
(0.00551335 -5.05447e-05 -0.000657436)
(0.0284526 -5.16447e-05 -0.00141246)
(0.00266219 -7.80119e-05 -0.000393776)
(0.0283277 -0.00016395 -0.000850662)
(0.0297901 -0.000903127 -0.00131715)
(0.0126945 -0.000441903 -0.000869894)
(0.0309298 -0.000895559 -0.00140438)
(0.013894 -0.000338762 -0.000865849)
(0.0317048 -0.00065553 -0.00112926)
(0.0145068 -0.00027658 -0.00083573)
(0.0321835 -0.000587365 -0.000927518)
(0.0145816 -0.000105521 -0.000896799)
(0.0325466 -0.000319959 -0.000702512)
(0.0296905 -0.00149412 -0.00149477)
(0.0105295 -0.000747356 -0.000808716)
(0.0295924 -0.00168675 -0.00152726)
(0.00899374 -0.00062666 -0.000632728)
(0.0293475 -0.00137247 -0.00102994)
(0.00751383 -0.000550175 -0.000470339)
(0.029267 -0.000946013 -0.000719905)
(0.00564381 -0.000522777 -0.00043468)
(0.0290632 -0.00023607 -0.000669978)
(0.0294548 -0.000959042 -0.00151955)
(0.00945946 -0.000499955 -0.000787586)
(0.0286359 -0.00109851 -0.00134753)
(0.00586457 -0.000330321 -0.0004529)
(0.027784 -0.000695755 -0.000828638)
(0.00257505 -0.00017942 -0.000232263)
(0.0271037 -0.000188226 -0.000664344)
(0.000362493 -3.68692e-05 -4.49772e-05)
(0.0266103 0.00021402 -0.000237806)
(0.0294875 -0.000220927 -0.00135408)
(0.00928597 -1.92025e-06 -0.000791319)
(0.0284609 4.08601e-05 -0.00128353)
(0.00541518 9.64441e-05 -0.000493217)
(0.0276021 0.000211086 -0.000926474)
(0.00255727 7.77046e-05 -0.000291005)
(0.0273065 0.000100684 -0.00068104)
(0.000774573 3.77685e-05 -0.000110405)
(0.026952 -6.46402e-05 -0.000220188)
)
;

boundaryField
{
    inlet
    {
        type            fixedValue;
        value           uniform (0.01 0 0);
    }
    outlet
    {
        type            zeroGradient;
    }
    wall
    {
        type            fixedValue;
        value           uniform (0 0 0);
    }
    procBoundary0to1
    {
        type            processor;
        value           nonuniform List<vector> 
12
(
(0.0281038 0.000312923 -0.00071697)
(0.0243586 -0.000195178 -0.000618885)
(0.0207616 -4.68041e-05 -0.000626166)
(0.0183944 0.000283368 -0.0003965)
(0.0111201 -0.000103588 -0.000287907)
(0.00412251 8.68305e-05 -0.000216939)
(0.0162679 0.000140317 -0.00148315)
(0.00701261 -0.000264335 -0.000877376)
(0.00130029 -0.000114738 -0.000309362)
(0.0136084 -6.27594e-05 -0.000567587)
(0.00343708 -0.00047844 -0.000281651)
(2.19121e-09 -1.5379e-09 5.74475e-09)
)
;
    }
    procBoundary0to2
    {
        type            processor;
        value           nonuniform List<vector> 
44
(
(0.0167719 -0.000135418 -0.000815196)
(0.0339901 -0.000184649 -0.00152144)
(0.019231 -0.000140219 -0.000717472)
(0.035583 -0.000174847 -0.00113435)
(0.0208074 3.35894e-05 -0.00040274)
(0.037042 -2.0426e-07 -0.000765963)
(0.0299266 0.000149637 -0.00134726)
(0.0128692 9.46256e-05 -0.000795018)
(0.0167719 -0.000135418 -0.000815196)
(0.0315484 0.000293831 -0.00157483)
(0.0167719 -0.000135418 -0.000815196)
(0.0339901 -0.000184649 -0.00152144)
(0.0086415 -2.63167e-05 -0.00071275)
(0.0301934 6.46325e-05 -0.00139533)
(0.00727033 5.25976e-05 -0.000562633)
(0.0305639 0.000297052 -0.000684662)
(0.0298134 0.000368929 -0.00234164)
(0.0107322 8.94618e-05 -0.00111459)
(0.0299988 0.000390693 -0.00247001)
(0.00955789 0.000222301 -0.000886501)
(0.0086415 -2.63167e-05 -0.00071275)
(0.0298798 0.000490994 -0.00185342)
(0.0086415 -2.63167e-05 -0.00071275)
(0.0301934 6.46325e-05 -0.00139533)
(0.00124449 -3.96563e-05 -0.000260108)
(0.0282603 -0.000221481 -0.000297401)
(0.0297395 0.000611956 -0.00212939)
(0.0101449 0.000206632 -0.00106881)
(0.0292793 0.000569821 -0.00199679)
(0.00782044 0.000167353 -0.000725402)
(0.0290113 0.000396909 -0.00138181)
(0.00566865 4.50139e-05 -0.00053037)
(0.00124449 -3.96563e-05 -0.000260108)
(0.0291336 -0.000121187 -0.000871285)
(0.00124449 -3.96563e-05 -0.000260108)
(0.0282603 -0.000221481 -0.000297401)
(0.0295977 0.000625565 -0.00178736)
(0.00940902 0.000378977 -0.00075913)
(0.0288116 0.000859511 -0.00153268)
(0.00637696 0.000331603 -0.00055797)
(0.0282438 0.000675329 -0.00105234)
(0.00405414 0.000310309 -0.000340015)
(0.0279636 0.00042559 -0.00058431)
(0.00222006 0.000255926 -0.00027966)
)
;
    }
    procBoundary0to4
    {
        type            processor;
        value           nonuniform List<vector> 
36
(
(0.0298904 -0.000986368 -0.000618949)
(0.0128755 -0.000477599 -0.000407566)
(0.0309099 -0.00108268 -0.000650229)
(0.0138067 -0.000451421 -0.000469722)
(0.0315622 -0.000841607 -0.000397663)
(0.0143916 -0.000274612 -0.000377299)
(0.0322609 -0.000608362 -0.000380101)
(0.0145461 -0.00025446 -0.000420648)
(0.0331853 -0.000544771 -5.27775e-05)
(0.0296961 -0.00158566 -0.000500916)
(0.0104975 -0.000724204 -0.000262543)
(0.0293721 -0.00164687 -0.00044396)
(0.00822264 -0.000528779 -0.00026047)
(0.029174 -0.00120652 -0.000261053)
(0.00644441 -0.000358488 -0.000163868)
(0.0292035 -0.000870378 -0.000150786)
(0.00475639 -0.000335669 -0.000143656)
(0.0296209 -0.000456101 0.000174103)
(0.0296867 -0.000942918 -0.000522277)
(0.00946447 -0.000537456 -0.000249053)
(0.0286975 -0.00103475 -0.000362154)
(0.0060419 -0.000390057 -9.81017e-05)
(0.0282564 -0.000861117 -7.13348e-05)
(0.00350436 -0.00029329 1.8455e-05)
(0.0281586 -0.00046481 -8.5723e-05)
(0.00123086 -0.000125385 3.68119e-05)
(0.0283268 0.000143439 -0.000261952)
(0.0296358 -0.000422919 -0.000577387)
(0.00946606 -4.71654e-05 -0.000175088)
(0.0284224 -0.000276641 -0.000343569)
(0.00578583 -0.000120179 -0.000113845)
(0.0276981 -0.000265744 -0.000170686)
(0.00260952 -6.40069e-05 4.77269e-05)
(0.0273792 -4.61075e-05 -9.20728e-05)
(0.000325416 -1.26212e-05 2.05884e-05)
(0.0272274 4.74768e-05 1.42855e-05)
)
;
    }
    procBoundary0to6
    {
        type            processor;
        value           uniform (0.027605 0.000296268 -4.53815e-05);
    }
    procBoundary0to7
    {
        type            processor;
        value           uniform (1.22462e-09 -7.31143e-10 5.26306e-09);
    }
}


// ************************************************************************* //
