/*--------------------------------*- C++ -*----------------------------------*\
| =========                 |                                                 |
| \\      /  F ield         | OpenFOAM: The Open Source CFD Toolbox           |
|  \\    /   O peration     | Version:  4.x                                   |
|   \\  /    A nd           | Web:      www.OpenFOAM.org                      |
|    \\/     M anipulation  |                                                 |
\*---------------------------------------------------------------------------*/
FoamFile
{
    version     2.0;
    format      ascii;
    class       volScalarField;
    location    "9.5";
    object      pSmooth;
}
// * * * * * * * * * * * * * * * * * * * * * * * * * * * * * * * * * * * * * //

dimensions      [1 -1 -2 0 0 0 0];

internalField   nonuniform List<scalar> 
87
(
29.4974
78.2593
11.1314
71.0712
0.1
63.6269
0.1
58.3996
0.1
29.4884
77.1552
8.8541
66.8508
0.1
57.6954
0.1
51.4692
0.1
28.1308
75.3131
5.87043
64.7901
0.1
56.8004
0.1
51.5735
0.1
27.3024
75.6849
8.59868
68.7337
0.1
62.2539
0.1
58.2415
0.1
25.9178
73.1176
5.38842
64.0511
0.1
56.4599
0.1
51.0805
0.1
25.0005
72.2645
4.32114
63.7784
0.1
57.4291
0.1
52.5931
0.1
26.2488
73.717
7.8063
66.5553
0.1
60.1655
0.1
56.048
0.1
25.3933
72.2628
6.16579
63.8982
0.1
56.3225
0.1
50.3341
0.1
25.5964
72.2602
6.74852
64.1737
0.1
57.2656
0.1
51.5854
0.1
24.5787
72.1233
5.55571
24.6242
72.0246
24.6037
)
;

boundaryField
{
    inlet
    {
        type            zeroGradient;
    }
    outlet
    {
        type            fixedValue;
        value           uniform 0;
    }
    wall
    {
        type            zeroGradient;
    }
    procBoundary1to0
    {
        type            processor;
        value           nonuniform List<scalar> 
12
(
83.9601
84.9639
85.1271
82.2424
82.0892
81.606
80.8857
80.7942
80.6248
79.7112
80.0786
79.9663
)
;
    }
    procBoundary1to3
    {
        type            processor;
        value           nonuniform List<scalar> 
27
(
27.8185
74.1128
5.72771
63.6245
0.1
55.7579
0.1
50.955
0.1
25.4121
72.1596
5.05665
63.1678
0.1
55.8298
0.1
50.1739
0.1
26.0539
72.0372
7.24197
63.5322
0.1
56.137
0.1
49.9434
0.1
)
;
    }
    procBoundary1to5
    {
        type            processor;
        value           nonuniform List<scalar> 
32
(
65.1062
0.1
59.6123
0.1
57.6223
0.1
5.44365
64.2434
0.1
57.2256
0.1
51.9427
0.1
72.0781
5.77273
64.6506
0.1
58.4998
0.1
54.0794
0.1
24.9435
71.6604
65.1062
5.44365
6.66435
25.8412
5.44365
72.0781
72.409
72.0781
26.5243
)
;
    }
    procBoundary1to7
    {
        type            processor;
        value           uniform 25.5569;
    }
}


// ************************************************************************* //
