/*--------------------------------*- C++ -*----------------------------------*\
| =========                 |                                                 |
| \\      /  F ield         | OpenFOAM: The Open Source CFD Toolbox           |
|  \\    /   O peration     | Version:  4.x                                   |
|   \\  /    A nd           | Web:      www.OpenFOAM.org                      |
|    \\/     M anipulation  |                                                 |
\*---------------------------------------------------------------------------*/
FoamFile
{
    version     2.0;
    format      ascii;
    class       volScalarField;
    location    "9.5";
    object      QPartFluid;
}
// * * * * * * * * * * * * * * * * * * * * * * * * * * * * * * * * * * * * * //

dimensions      [1 -1 -3 0 0 0 0];

internalField   nonuniform List<scalar> 
87
(
4.34121e+09
6.99566e+09
4.14189e+09
6.33912e+09
3.49382e+09
5.33806e+09
4.91453e+09
6.02209e+09
4.30512e+09
4.39649e+09
4.21263e+09
5.29304e+09
5.35978e+09
4.24058e+09
5.93723e+09
6.66563e+09
5.57751e+09
3.87562e+09
3.68312e+09
6.5088e+09
5.23593e+09
8.47729e+09
5.44969e+09
5.16362e+09
4.66102e+09
5.25031e+09
3.73584e+09
7.31864e+09
6.62351e+09
6.37507e+09
7.70811e+09
6.58089e+09
8.01866e+09
9.31487e+09
9.51814e+09
6.62571e+09
9.36108e+09
6.53614e+09
7.55358e+09
9.13916e+09
8.50931e+09
7.44028e+09
9.00752e+09
9.95364e+09
5.27105e+09
8.95539e+09
8.24466e+09
6.92187e+09
6.55787e+09
5.65528e+09
8.81379e+09
8.6679e+09
1.23062e+10
3.75409e+09
7.29316e+09
7.12544e+09
8.6089e+09
9.85849e+09
6.68493e+09
1.02977e+10
8.47851e+09
8.41283e+09
3.79626e+09
8.95642e+09
8.8472e+09
6.43507e+09
8.0157e+09
8.31559e+09
9.12947e+09
7.85848e+09
9.27849e+09
4.28448e+09
8.23623e+09
7.79785e+09
5.45284e+09
1.10906e+10
8.75966e+09
1.05193e+10
7.1924e+09
9.25887e+09
2.99433e+09
6.82243e+09
5.80965e+09
8.58375e+09
8.12853e+09
1.25125e+10
6.12021e+09
)
;

boundaryField
{
    inlet
    {
        type            calculated;
        value           nonuniform 0();
    }
    outlet
    {
        type            calculated;
        value           uniform 0;
    }
    wall
    {
        type            calculated;
        value           uniform 0;
    }
    procBoundary1to0
    {
        type            processor;
        value           nonuniform List<scalar> 
12
(
2.05842e+09
5.53486e+09
8.61357e+09
7.29146e+09
8.58252e+09
6.18524e+09
5.36488e+09
7.58918e+09
5.32383e+09
6.06256e+09
6.91914e+09
9.42093e+09
)
;
    }
    procBoundary1to3
    {
        type            processor;
        value           nonuniform List<scalar> 
27
(
7.57161e+09
3.55701e+09
5.94356e+09
2.99259e+09
4.29721e+09
3.58398e+09
5.19223e+09
4.46864e+09
3.83108e+09
8.24354e+09
7.83846e+09
9.88792e+09
1.02747e+10
8.44785e+09
7.72769e+09
6.83699e+09
8.14946e+09
8.17657e+09
8.33079e+09
1.08201e+10
9.50045e+09
1.034e+10
6.72191e+09
7.81993e+09
9.22558e+09
7.97196e+09
6.98005e+09
)
;
    }
    procBoundary1to5
    {
        type            processor;
        value           nonuniform List<scalar> 
32
(
8.59104e+09
8.5063e+09
8.29533e+09
7.1354e+09
9.94434e+09
7.7118e+09
7.82678e+09
7.41283e+09
6.57286e+09
8.81142e+09
9.47896e+09
1.10525e+10
7.51262e+09
1.02167e+10
6.45069e+09
8.91047e+09
6.28704e+09
5.46365e+09
7.3548e+09
6.61965e+09
6.68303e+09
6.61521e+09
5.78617e+09
8.59104e+09
7.82678e+09
7.89292e+09
8.12505e+09
7.82678e+09
1.02167e+10
8.21473e+09
1.02167e+10
8.51468e+09
)
;
    }
    procBoundary1to7
    {
        type            processor;
        value           uniform 1.05578e+10;
    }
}


// ************************************************************************* //
