/*--------------------------------*- C++ -*----------------------------------*\
| =========                 |                                                 |
| \\      /  F ield         | OpenFOAM: The Open Source CFD Toolbox           |
|  \\    /   O peration     | Version:  4.x                                   |
|   \\  /    A nd           | Web:      www.OpenFOAM.org                      |
|    \\/     M anipulation  |                                                 |
\*---------------------------------------------------------------------------*/
FoamFile
{
    version     2.0;
    format      ascii;
    class       volVectorField;
    location    "48";
    object      ddtUrel;
}
// * * * * * * * * * * * * * * * * * * * * * * * * * * * * * * * * * * * * * //

dimensions      [0 1 -2 0 0 0 0];

internalField   nonuniform List<vector> 
132
(
(-3.77328e-11 1.82561e-10 1.61952e-10)
(1.56204e-11 1.82213e-10 1.7232e-10)
(1.56337e-10 1.09867e-10 1.36046e-10)
(-1.93288e-10 -2.18269e-10 -1.6534e-10)
(-1.14155e-09 -3.90211e-10 -2.19266e-10)
(-2.44543e-09 -5.61177e-10 -1.86966e-10)
(-5.05962e-09 -8.59278e-10 -1.29008e-10)
(-1.07786e-08 -1.37171e-09 -3.06059e-11)
(-2.52052e-08 -2.19362e-09 2.07567e-10)
(2.04256e-12 2.05076e-10 1.18209e-10)
(5.70273e-11 2.07187e-10 1.08889e-10)
(1.35943e-10 1.14475e-10 3.81025e-11)
(-1.71882e-10 -2.16232e-10 -1.23749e-10)
(-8.82137e-10 -3.93514e-10 -1.88399e-10)
(-1.99583e-09 -5.7261e-10 -1.79266e-10)
(-4.02337e-09 -8.84507e-10 -1.47688e-10)
(-7.99547e-09 -1.43122e-09 -9.66471e-11)
(-1.63419e-08 -2.31428e-09 7.72151e-12)
(2.47756e-11 1.9445e-10 6.81945e-11)
(5.41759e-11 1.71547e-10 4.5236e-11)
(3.60549e-11 7.99914e-11 -9.94871e-12)
(-1.84953e-10 -1.47881e-10 -9.25051e-11)
(-6.59547e-10 -3.50726e-10 -1.45851e-10)
(-1.41695e-09 -5.67916e-10 -1.62448e-10)
(-2.7297e-09 -9.37893e-10 -1.67416e-10)
(-4.93102e-09 -1.56711e-09 -1.70878e-10)
(-8.76516e-09 -2.58825e-09 -1.80734e-10)
(2.89209e-11 1.49226e-10 2.61443e-11)
(2.72391e-11 1.1793e-10 2.66421e-12)
(-2.38652e-11 3.90264e-11 -3.60658e-11)
(1.36386e-11 1.42697e-10 1.82076e-10)
(6.47521e-11 1.2774e-10 1.90278e-10)
(1.20199e-10 3.29831e-11 1.15347e-10)
(-1.15815e-10 -1.82878e-10 -1.91034e-10)
(-8.26288e-10 -3.54568e-10 -2.45525e-10)
(-1.89618e-09 -5.59124e-10 -2.12692e-10)
(-3.82098e-09 -8.98754e-10 -1.71789e-10)
(-7.64392e-09 -1.46387e-09 -1.14611e-10)
(-1.54148e-08 -2.36687e-09 -1.94598e-11)
(3.47031e-11 1.63704e-10 1.32637e-10)
(8.77405e-11 1.52632e-10 1.25549e-10)
(1.28054e-10 5.31779e-11 4.84694e-11)
(-1.04364e-10 -1.72846e-10 -1.34068e-10)
(-6.76369e-10 -3.66138e-10 -2.08163e-10)
(-1.5692e-09 -5.78137e-10 -2.03986e-10)
(-3.08066e-09 -9.35233e-10 -1.8392e-10)
(-5.80108e-09 -1.54589e-09 -1.63215e-10)
(-1.07101e-08 -2.53475e-09 -1.41046e-10)
(4.64409e-11 1.52544e-10 7.41034e-11)
(7.46589e-11 1.34127e-10 5.33647e-11)
(6.28489e-11 3.83683e-11 -7.30651e-12)
(-1.10564e-10 -1.42593e-10 -9.85212e-11)
(-4.95472e-10 -3.40729e-10 -1.58762e-10)
(-1.10972e-09 -5.85002e-10 -1.80285e-10)
(-2.09184e-09 -1.00064e-09 -1.93844e-10)
(-3.64996e-09 -1.70614e-09 -2.19118e-10)
(-6.05771e-09 -2.85275e-09 -2.78383e-10)
(4.10219e-11 1.21517e-10 2.91825e-11)
(4.92653e-11 9.67834e-11 5.72694e-12)
(2.35168e-11 1.62125e-11 -3.71417e-11)
(-9.56754e-11 -1.22068e-10 -8.96195e-11)
(-3.27524e-10 -3.07978e-10 -1.33192e-10)
(4.1508e-11 8.7801e-11 1.4961e-10)
(6.57974e-11 6.19449e-11 1.34342e-10)
(6.05005e-11 -1.59683e-11 5.74103e-11)
(-1.38275e-10 -1.56898e-10 -1.18803e-10)
(-5.74633e-10 -3.34085e-10 -1.98905e-10)
(-1.28818e-09 -5.81615e-10 -2.07193e-10)
(-2.46401e-09 -9.83151e-10 -2.02673e-10)
(-4.50709e-09 -1.64082e-09 -2.04167e-10)
(-7.9236e-09 -2.68943e-09 -2.29189e-10)
(5.05514e-11 1.03023e-10 1.16113e-10)
(7.34091e-11 7.8831e-11 9.77104e-11)
(6.54729e-11 -3.0058e-12 2.50786e-11)
(-1.06632e-10 -1.53814e-10 -1.03416e-10)
(-4.76052e-10 -3.44451e-10 -1.85069e-10)
(-1.07532e-09 -6.06805e-10 -2.05109e-10)
(-2.01745e-09 -1.03767e-09 -2.1399e-10)
(-3.52631e-09 -1.75531e-09 -2.378e-10)
(-5.82022e-09 -2.92463e-09 -3.01446e-10)
(4.90136e-11 1.00465e-10 6.54744e-11)
(6.19339e-11 7.62386e-11 4.41447e-11)
(4.39249e-11 -3.57701e-12 -1.24141e-11)
(-8.80159e-11 -1.48645e-10 -9.26334e-11)
(-3.48446e-10 -3.49149e-10 -1.55748e-10)
(-7.67405e-10 -6.42569e-10 -1.89431e-10)
(-1.37794e-09 -1.1371e-09 -2.20833e-10)
(-2.25096e-09 -1.96361e-09 -2.79367e-10)
(-3.37589e-09 -3.3416e-09 -4.01711e-10)
(4.13189e-11 8.46771e-11 2.43682e-11)
(4.67767e-11 6.15912e-11 3.22261e-12)
(2.77954e-11 -1.20878e-11 -3.7931e-11)
(-6.0323e-11 -1.45071e-10 -8.96515e-11)
(-2.18588e-10 -3.52069e-10 -1.37733e-10)
(-4.62844e-10 -6.82366e-10 -1.77915e-10)
(-7.82431e-10 -1.25329e-09 -2.30292e-10)
(3.47973e-11 4.39448e-11 1.02981e-10)
(4.32249e-11 1.78182e-11 7.9886e-11)
(1.79185e-11 -4.64739e-11 1.87293e-11)
(-1.2469e-10 -1.63929e-10 -8.07426e-11)
(-3.79037e-10 -3.4368e-10 -1.5122e-10)
(-7.84553e-10 -6.27792e-10 -1.88695e-10)
(-1.40644e-09 -1.09562e-09 -2.20923e-10)
(-2.32513e-09 -1.86409e-09 -2.74374e-10)
(-3.58639e-09 -3.09659e-09 -3.82606e-10)
(4.06592e-11 5.33183e-11 8.29625e-11)
(4.83848e-11 2.73329e-11 6.13059e-11)
(2.34918e-11 -4.1545e-11 2.06772e-12)
(-9.49769e-11 -1.64691e-10 -8.29447e-11)
(-3.13907e-10 -3.57975e-10 -1.49937e-10)
(-6.55251e-10 -6.63532e-10 -1.90318e-10)
(-1.14626e-09 -1.17301e-09 -2.3022e-10)
(-1.822e-09 -2.02454e-09 -3.0088e-10)
(-2.64625e-09 -3.41177e-09 -4.37354e-10)
(3.74442e-11 5.76668e-11 4.88882e-11)
(4.31694e-11 3.09359e-11 2.72608e-11)
(2.16301e-11 -3.95669e-11 -1.93135e-11)
(-7.12105e-11 -1.6947e-10 -8.34206e-11)
(-2.27358e-10 -3.79707e-10 -1.40589e-10)
(-4.6578e-10 -7.24514e-10 -1.8592e-10)
(-7.6378e-10 -1.31425e-09 -2.40976e-10)
(-1.10328e-09 -2.31575e-09 -3.42505e-10)
(-1.37734e-09 -3.98966e-09 -5.31612e-10)
(3.32456e-11 5.04743e-11 1.79234e-11)
(3.55121e-11 2.78547e-11 -1.88222e-14)
(2.18244e-11 -4.1435e-11 -3.47588e-11)
(-3.76525e-11 -1.74442e-10 -8.32375e-11)
(-1.2817e-10 -4.03621e-10 -1.33007e-10)
(-2.55816e-10 -7.96598e-10 -1.83962e-10)
(-3.66576e-10 -1.48951e-09 -2.583e-10)
(-4.01145e-10 -2.68341e-09 -3.95521e-10)
(-1.96125e-10 -4.74979e-09 -6.54024e-10)
)
;

boundaryField
{
    inlet
    {
        type            calculated;
        value           nonuniform List<vector> 
16
(
(-4.9862e-10 2.3694e-10 2.01355e-10)
(-2.8496e-10 4.13657e-10 1.37715e-10)
(-2.34337e-10 4.93482e-10 1.04457e-10)
(4.53016e-12 3.69714e-10 5.93724e-11)
(-1.31754e-10 1.60813e-10 4.71764e-10)
(-2.55553e-12 3.23755e-10 2.72437e-10)
(3.18963e-11 2.76802e-10 1.39899e-10)
(3.55921e-11 2.5195e-10 8.4799e-11)
(5.65479e-11 7.02595e-11 3.44819e-10)
(4.79292e-11 1.75549e-10 2.67814e-10)
(3.46926e-11 1.64298e-10 1.20648e-10)
(6.3174e-11 1.59262e-10 4.71534e-11)
(1.63226e-11 4.19106e-11 2.14521e-10)
(4.88547e-11 7.88286e-11 1.8476e-10)
(-8.22951e-11 1.26999e-10 1.10894e-10)
(-1.12636e-11 8.59678e-11 2.96859e-11)
)
;
    }
    outlet
    {
        type            calculated;
        value           nonuniform 0();
    }
    wall
    {
        type            calculated;
        value           nonuniform List<vector> 
66
(
(-5.39627e-10 2.37241e-10 2.02265e-10)
(-3.30703e-10 4.14281e-10 1.3781e-10)
(-2.01274e-10 4.91656e-10 9.76814e-11)
(-3.18012e-11 3.70389e-10 5.93723e-11)
(-5.87564e-10 4.91248e-10 4.71526e-10)
(-1.97714e-11 8.44059e-10 2.71582e-10)
(1.15606e-10 5.50165e-10 5.86401e-11)
(1.71439e-11 3.00465e-10 -1.82573e-11)
(1.72392e-09 1.13498e-09 1.35527e-09)
(1.41348e-09 1.14296e-09 1.46838e-10)
(1.92502e-10 6.29333e-10 1.81082e-11)
(-2.05861e-10 2.09639e-10 -3.60883e-11)
(1.33652e-09 -8.46266e-10 -1.00185e-09)
(8.53235e-10 -1.07438e-09 -3.75783e-10)
(1.2254e-10 -2.74588e-10 -1.02437e-10)
(-1.98127e-09 -5.38336e-10 -5.22139e-10)
(-5.22314e-10 -6.75751e-10 -3.98245e-10)
(-6.5687e-10 -5.13449e-10 -1.5161e-10)
(-1.59747e-09 -1.70687e-10 -2.12889e-10)
(-1.15276e-09 -2.69513e-10 -2.0386e-10)
(-7.29401e-10 -1.74713e-10 -1.08329e-10)
(-3.13542e-09 -2.70763e-11 -3.90649e-11)
(-2.52437e-09 2.57663e-11 -6.40307e-11)
(-2.2338e-09 -1.48213e-11 -5.276e-11)
(-7.35422e-10 2.32288e-11 -2.86148e-11)
(-3.01546e-09 1.93581e-10 1.43581e-11)
(-2.53382e-09 1.22716e-10 5.65223e-12)
(-1.62291e-09 4.47405e-11 -7.45777e-12)
(-1.11361e-08 3.71685e-10 3.15757e-10)
(-6.09607e-09 1.70457e-10 1.83483e-10)
(-4.99552e-10 2.36724e-10 2.01175e-10)
(-1.69082e-10 1.61376e-10 4.74577e-10)
(5.24472e-11 7.02279e-11 3.44986e-10)
(7.65681e-12 4.17657e-11 2.14707e-10)
(-5.4255e-10 4.90371e-10 4.69344e-10)
(1.50694e-10 3.295e-10 8.78894e-10)
(2.10274e-10 8.76425e-11 4.44884e-10)
(1.3506e-10 2.77452e-11 1.97425e-10)
(-9.98413e-11 1.13456e-09 1.43923e-09)
(1.13141e-09 2.34098e-10 1.15274e-09)
(6.07588e-10 6.26907e-11 4.00163e-10)
(3.67777e-10 3.61985e-11 1.32076e-10)
(1.41142e-09 -8.4739e-10 -1.00463e-09)
(1.64427e-09 -3.84397e-10 -1.45948e-09)
(4.47832e-10 -7.29297e-13 -3.8389e-10)
(9.50814e-11 -9.39902e-12 -1.17537e-10)
(-2.03654e-09 -5.40926e-10 -5.205e-10)
(2.28876e-11 -2.47665e-10 -8.68641e-10)
(1.86395e-10 -6.01717e-11 -4.87113e-10)
(6.58505e-11 -2.84844e-11 -2.26958e-10)
(-1.35516e-09 -1.71145e-10 -2.20929e-10)
(-3.04795e-10 -9.40973e-11 -3.76429e-10)
(-1.44507e-10 -3.3871e-11 -3.027e-10)
(-4.52011e-11 -2.95659e-11 -2.22504e-10)
(-2.39564e-09 -3.09321e-11 -6.54556e-11)
(-1.66712e-10 -3.69319e-11 -2.36174e-10)
(-4.85645e-11 -1.35073e-11 -1.98225e-10)
(-3.10881e-10 -9.80968e-12 -1.78431e-10)
(-1.08052e-09 1.44291e-11 -1.70445e-11)
(-5.39058e-10 3.23123e-11 -7.86114e-11)
(-1.62357e-10 1.95836e-11 -9.34665e-11)
(-6.69038e-11 2.78867e-11 -1.22247e-10)
(-1.02982e-09 4.58564e-11 -2.82663e-11)
(3.28265e-09 5.96814e-12 -7.91705e-11)
(1.57099e-09 2.80161e-11 -1.226e-10)
(4.18979e-10 4.62553e-11 -1.50712e-10)
)
;
    }
    procBoundary0to1
    {
        type            processor;
        value           nonuniform List<vector> 
12
(
(-6.47868e-08 -3.46138e-09 9.1877e-10)
(-3.21664e-08 -3.67336e-09 2.05589e-10)
(-1.4119e-08 -4.20571e-09 -2.2789e-10)
(-3.07172e-08 -3.72662e-09 1.81467e-10)
(-1.82613e-08 -4.06013e-09 -1.2891e-10)
(-8.96712e-09 -4.71209e-09 -4.09435e-10)
(-1.30164e-08 -4.31036e-09 -2.87985e-10)
(-8.64499e-09 -4.77105e-09 -4.35954e-10)
(-4.40713e-09 -5.65407e-09 -6.38761e-10)
(-4.9571e-09 -5.06969e-09 -5.77573e-10)
(-3.2831e-09 -5.68952e-09 -6.8617e-10)
(-1.26029e-09 -6.85486e-09 -8.78281e-10)
)
;
    }
    procBoundary0to2
    {
        type            processor;
        value           nonuniform List<vector> 
44
(
(-1.66779e-10 -1.15046e-10 -8.3057e-11)
(-4.65764e-10 -3.10938e-10 -1.22613e-10)
(-8.98676e-10 -5.91644e-10 -1.55016e-10)
(-1.63526e-09 -1.04387e-09 -1.88528e-10)
(-2.69214e-09 -1.79642e-09 -2.41526e-10)
(-4.21111e-09 -3.01791e-09 -3.33944e-10)
(2.40106e-11 8.39882e-11 -8.34397e-12)
(5.79069e-12 6.14421e-11 -2.35633e-11)
(-1.66779e-10 -1.15046e-10 -8.3057e-11)
(-3.78781e-11 -8.40362e-12 -5.09939e-11)
(-1.66779e-10 -1.15046e-10 -8.3057e-11)
(-4.65764e-10 -3.10938e-10 -1.22613e-10)
(-6.88388e-10 -6.09508e-10 -1.67453e-10)
(-1.22802e-09 -1.11491e-09 -2.10373e-10)
(-1.96082e-09 -1.96992e-09 -2.7983e-10)
(-2.8915e-09 -3.36836e-09 -4.07359e-10)
(2.66088e-11 7.56252e-11 -5.34222e-12)
(2.72507e-11 5.29283e-11 -2.19115e-11)
(7.22564e-12 -1.75568e-11 -5.17205e-11)
(-5.72991e-11 -1.45445e-10 -8.67004e-11)
(-6.88388e-10 -6.09508e-10 -1.67453e-10)
(-1.79202e-10 -3.50888e-10 -1.21822e-10)
(-6.88388e-10 -6.09508e-10 -1.67453e-10)
(-1.22802e-09 -1.11491e-09 -2.10373e-10)
(-1.15186e-09 -2.29028e-09 -3.34327e-10)
(-1.45739e-09 -4.02546e-09 -5.21072e-10)
(2.99492e-11 5.6527e-11 -4.56552e-12)
(3.49157e-11 3.17929e-11 -2.18487e-11)
(2.46179e-11 -3.77124e-11 -5.22436e-11)
(-2.02033e-11 -1.69161e-10 -8.9272e-11)
(-9.71962e-11 -3.94838e-10 -1.29771e-10)
(-2.03034e-10 -7.85236e-10 -1.7617e-10)
(-1.15186e-09 -2.29028e-09 -3.34327e-10)
(-2.98401e-10 -1.4657e-09 -2.53012e-10)
(-1.15186e-09 -2.29028e-09 -3.34327e-10)
(-1.45739e-09 -4.02546e-09 -5.21072e-10)
(2.88323e-11 3.52315e-11 -4.2622e-12)
(3.31953e-11 1.0633e-11 -2.04296e-11)
(2.9821e-11 -5.97823e-11 -4.9433e-11)
(5.22011e-12 -2.00949e-10 -8.64395e-11)
(-2.82046e-11 -4.56344e-10 -1.32212e-10)
(-5.88813e-11 -9.11739e-10 -1.90373e-10)
(-1.81185e-11 -1.72603e-09 -2.8928e-10)
(1.75757e-10 -3.16149e-09 -4.66932e-10)
)
;
    }
    procBoundary0to4
    {
        type            processor;
        value           nonuniform List<vector> 
36
(
(2.0966e-11 9.29266e-12 5.97205e-11)
(1.9463e-11 -1.56322e-11 4.00908e-11)
(-8.04328e-12 -7.67987e-11 -3.08233e-12)
(-8.98622e-11 -1.90042e-10 -6.26031e-11)
(-2.29838e-10 -3.80492e-10 -1.18986e-10)
(-4.23528e-10 -7.00992e-10 -1.66943e-10)
(-6.83068e-10 -1.23758e-09 -2.25888e-10)
(-9.91385e-10 -2.12612e-09 -3.18134e-10)
(-1.25578e-09 -3.57093e-09 -4.8111e-10)
(2.63066e-11 1.67238e-11 4.91989e-11)
(2.52488e-11 -8.45568e-12 3.143e-11)
(3.25696e-12 -7.35751e-11 -1.057e-11)
(-6.9896e-11 -1.9403e-10 -6.79121e-11)
(-1.85289e-10 -4.00403e-10 -1.23454e-10)
(-3.47713e-10 -7.47424e-10 -1.74275e-10)
(-5.37421e-10 -1.3352e-09 -2.39348e-10)
(-7.20289e-10 -2.32571e-09 -3.47499e-10)
(-7.81853e-10 -3.97395e-09 -5.40841e-10)
(2.66773e-11 2.15218e-11 2.9133e-11)
(2.77221e-11 -4.14502e-12 1.29048e-11)
(1.1118e-11 -7.33303e-11 -2.34177e-11)
(-4.55272e-11 -2.03715e-10 -7.25244e-11)
(-1.24967e-10 -4.35122e-10 -1.24836e-10)
(-2.27645e-10 -8.30085e-10 -1.7887e-10)
(-3.02273e-10 -1.5185e-09 -2.58565e-10)
(-2.93666e-10 -2.70522e-09 -3.98752e-10)
(-4.97218e-11 -4.74201e-09 -6.52652e-10)
(2.62838e-11 2.13858e-11 9.45286e-12)
(2.95322e-11 -3.06849e-12 -4.22899e-12)
(2.34385e-11 -7.41194e-11 -3.32666e-11)
(-8.7955e-12 -2.15922e-10 -7.42484e-11)
(-4.36583e-11 -4.74202e-10 -1.25444e-10)
(-7.6047e-11 -9.33519e-10 -1.87907e-10)
(-2.49198e-11 -1.75586e-09 -2.87564e-10)
(1.77973e-10 -3.20321e-09 -4.68774e-10)
(7.45782e-10 -5.76921e-09 -8.06122e-10)
)
;
    }
    procBoundary0to6
    {
        type            processor;
        value           uniform (7.45607e-10 -5.68481e-09 -7.92884e-10);
    }
    procBoundary0to7
    {
        type            processor;
        value           uniform (5.40416e-10 -8.41993e-09 -1.1319e-09);
    }
}


// ************************************************************************* //
