/*--------------------------------*- C++ -*----------------------------------*\
| =========                 |                                                 |
| \\      /  F ield         | OpenFOAM: The Open Source CFD Toolbox           |
|  \\    /   O peration     | Version:  4.x                                   |
|   \\  /    A nd           | Web:      www.OpenFOAM.org                      |
|    \\/     M anipulation  |                                                 |
\*---------------------------------------------------------------------------*/
FoamFile
{
    version     2.0;
    format      ascii;
    class       volScalarField;
    location    "48";
    object      Ksl;
}
// * * * * * * * * * * * * * * * * * * * * * * * * * * * * * * * * * * * * * //

dimensions      [1 -3 -1 0 0 0 0];

internalField   nonuniform List<scalar> 
132
(
3317.35
6831.82
3087.41
5255.06
2904.77
4528.57
2789.71
4085.62
2616.34
3336.28
7299.18
3195.25
5887.36
3048.23
5161.71
2929.1
4694.14
2818.01
3347.2
7666.21
3258.96
6394.14
3186.86
5734.39
3076.53
5391.36
3037.92
3365.29
7554.84
3227.6
3368.16
7934.07
3297.43
7033.51
3260.64
6500.07
3217.13
6157.08
3116.83
3399.42
9081.95
3468.43
9107.13
3535.02
9613.79
3535.09
10377.9
3487.09
3436.23
10109.6
3559.12
11491.5
3675.21
14377.8
3745.63
21283.8
3714.83
3485.28
9718.59
3572.47
10725.5
3664.43
3401.01
8101.74
3378.45
7399.84
3324.41
6877.69
3249.59
6506.38
3117.96
3456.87
9441.24
3552.13
10096.3
3609.07
10997.3
3598.24
12022.7
3483.44
3500.5
10713.8
3689.2
14792.7
3819.84
21301.8
3833.79
28725.5
3753.52
3530.73
11069.3
3729.67
15506.2
3797.81
20572
3762.77
3384.99
8177.17
3391.21
7683.48
3368.55
7547.97
3355.91
7708.72
3323.59
3456.46
10203.9
3626.33
12739.7
3701.86
16729.8
3759.22
26573.5
3733.48
3511.45
11697.6
3779.24
21873.7
3928.5
78378.4
4030.82
1e+10
4096.5
3502.73
11101.8
3748.72
17188.3
3791.2
25986.2
3782.02
37960.6
3736.07
)
;

boundaryField
{
    inlet
    {
        type            zeroGradient;
    }
    outlet
    {
        type            zeroGradient;
    }
    wall
    {
        type            zeroGradient;
    }
    procBoundary0to1
    {
        type            processor;
        value           nonuniform List<scalar> 
12
(
3828.44
4464.16
5382.47
6049.43
11494.8
43599.7
6348.62
12168.3
46352.1
8816.22
59492.8
1e+10
)
;
    }
    procBoundary0to2
    {
        type            processor;
        value           nonuniform List<scalar> 
44
(
6251.44
3143.49
5502.76
3028.77
5060.3
2874.93
3394.85
8095.76
6251.44
3327.92
6251.44
3143.49
12804.3
3679.28
14656.9
3556.39
3435.23
9972.03
3587.18
12005.4
12804.3
3690.47
12804.3
3679.28
23331.1
3655.15
3496.92
10821.1
3719.12
16270.7
3844.21
31092.6
23331.1
3913.94
23331.1
3655.15
3505.15
11535.9
3753.1
17732
3824.99
29889.4
3830.61
75636
)
;
    }
    procBoundary0to4
    {
        type            processor;
        value           nonuniform List<scalar> 
36
(
3385.1
7939.06
3390.81
7584.99
3372.94
7288.17
3310.06
7133.39
3186.95
3477.39
9878.91
3654.93
12630.8
3706.39
15348.6
3684.51
19250.4
3611.65
3513.99
11150.8
3767.62
17134
3824.14
27343.8
3797.21
73991
3742.74
3491.16
11162.1
3782.68
18396.5
3868.32
41748.4
3895.3
445808
3858.82
)
;
    }
    procBoundary0to6
    {
        type            processor;
        value           uniform 3791.63;
    }
    procBoundary0to7
    {
        type            processor;
        value           uniform 80305.5;
    }
}


// ************************************************************************* //
