/*--------------------------------*- C++ -*----------------------------------*\
| =========                 |                                                 |
| \\      /  F ield         | OpenFOAM: The Open Source CFD Toolbox           |
|  \\    /   O peration     | Version:  4.x                                   |
|   \\  /    A nd           | Web:      www.OpenFOAM.org                      |
|    \\/     M anipulation  |                                                 |
\*---------------------------------------------------------------------------*/
FoamFile
{
    version     2.0;
    format      ascii;
    class       volScalarField;
    location    "48";
    object      Qsource;
}
// * * * * * * * * * * * * * * * * * * * * * * * * * * * * * * * * * * * * * //

dimensions      [1 -1 -3 0 0 0 0];

internalField   nonuniform List<scalar> 
132
(
6.89429e+09
5.22145e+09
5.54984e+09
4.17936e+09
6.29342e+09
5.8799e+09
7.95426e+09
5.46078e+09
4.1997e+09
5.50737e+09
5.56346e+09
6.43318e+09
6.15451e+09
4.79816e+09
7.34645e+09
6.31156e+09
6.4737e+09
6.2802e+09
3.11678e+09
6.31999e+09
6.64306e+09
5.5875e+09
6.49365e+09
5.468e+09
4.93876e+09
5.78054e+09
9.47608e+09
3.8377e+09
4.98319e+09
4.4078e+09
5.11599e+09
7.40218e+09
9.50974e+09
8.04991e+09
8.64297e+09
8.11712e+09
8.03994e+09
7.31304e+09
8.19903e+09
4.98229e+09
9.45785e+09
8.0167e+09
8.49925e+09
9.60412e+09
8.614e+09
9.20102e+09
9.19262e+09
8.96908e+09
5.30172e+09
9.44791e+09
8.40851e+09
7.53144e+09
9.07319e+09
6.73748e+09
1.05149e+10
6.89045e+09
6.34509e+09
7.9637e+09
7.03718e+09
7.79614e+09
5.51135e+09
1.13176e+10
6.42073e+09
7.38901e+09
8.99064e+09
7.42523e+09
8.36527e+09
6.1616e+09
8.95358e+09
7.57607e+09
6.33769e+09
6.24754e+09
8.28149e+09
7.98911e+09
6.92345e+09
9.28022e+09
6.72088e+09
9.45398e+09
1.01856e+10
1.0143e+10
6.70871e+09
7.20657e+09
8.09268e+09
9.30379e+09
9.83466e+09
8.07902e+09
9.20528e+09
6.43751e+09
5.39397e+09
6.90547e+09
8.67104e+09
9.57544e+09
9.00237e+09
9.97646e+09
8.04168e+09
8.77906e+09
5.18822e+09
5.40089e+09
7.61482e+09
5.62367e+09
7.93976e+09
8.2181e+09
6.76369e+09
4.76724e+09
6.89932e+09
5.13674e+09
9.59548e+09
9.09266e+09
8.08601e+09
7.19934e+09
6.62557e+09
1.04294e+10
7.18149e+09
6.92851e+09
5.18863e+09
5.58413e+09
9.05242e+09
6.1022e+09
8.69498e+09
8.40109e+09
8.24304e+09
4.94462e+09
9.33344e+09
4.82811e+09
6.73379e+09
9.83508e+09
1.02344e+10
5.51548e+09
9.83258e+09
8.57026e+09
5.56943e+09
2.62115e+09
)
;

boundaryField
{
    inlet
    {
        type            calculated;
        value           uniform 0;
    }
    outlet
    {
        type            calculated;
        value           nonuniform 0();
    }
    wall
    {
        type            calculated;
        value           uniform 0;
    }
    procBoundary0to1
    {
        type            processor;
        value           nonuniform List<scalar> 
12
(
5.90939e+09
5.25027e+09
4.56038e+09
7.9784e+09
9.01865e+09
7.91316e+09
7.63766e+09
6.48297e+09
9.46028e+09
6.85801e+09
7.85788e+09
5.89932e+09
)
;
    }
    procBoundary0to2
    {
        type            processor;
        value           nonuniform List<scalar> 
44
(
7.66794e+09
6.52609e+09
3.65055e+09
6.9403e+09
4.27663e+09
5.60395e+09
6.66396e+09
7.35593e+09
7.66794e+09
7.01076e+09
7.66794e+09
6.52609e+09
9.84868e+09
1.23031e+10
6.61336e+09
1.1228e+10
4.73242e+09
7.93565e+09
9.59172e+09
9.17108e+09
9.84868e+09
8.87988e+09
9.84868e+09
1.23031e+10
8.07433e+09
9.29993e+09
6.86069e+09
5.73437e+09
6.74477e+09
6.85307e+09
6.75232e+09
7.65976e+09
8.07433e+09
9.81193e+09
8.07433e+09
9.29993e+09
4.89842e+09
9.48605e+09
1.03012e+10
7.15714e+09
8.24036e+09
6.27806e+09
7.5878e+09
7.50824e+09
)
;
    }
    procBoundary0to4
    {
        type            processor;
        value           nonuniform List<scalar> 
36
(
5.75117e+09
7.52671e+09
9.26287e+09
6.42043e+09
8.00645e+09
6.44835e+09
9.8037e+09
7.33324e+09
1.05232e+10
7.01804e+09
7.29828e+09
9.3893e+09
1.0043e+10
1.01171e+10
8.59468e+09
8.14433e+09
5.77739e+09
1.11102e+10
6.6886e+09
1.02796e+10
8.3174e+09
9.37571e+09
8.12832e+09
6.31172e+09
7.31257e+09
1.03003e+10
6.74441e+09
3.45815e+09
6.73322e+09
9.39989e+09
5.7096e+09
8.8065e+09
6.67904e+09
1.1034e+10
5.99665e+09
7.07011e+09
)
;
    }
    procBoundary0to6
    {
        type            processor;
        value           uniform 8.11418e+09;
    }
    procBoundary0to7
    {
        type            processor;
        value           uniform 1.01277e+10;
    }
}


// ************************************************************************* //
