/*--------------------------------*- C++ -*----------------------------------*\
| =========                 |                                                 |
| \\      /  F ield         | OpenFOAM: The Open Source CFD Toolbox           |
|  \\    /   O peration     | Version:  4.x                                   |
|   \\  /    A nd           | Web:      www.OpenFOAM.org                      |
|    \\/     M anipulation  |                                                 |
\*---------------------------------------------------------------------------*/
FoamFile
{
    version     2.0;
    format      ascii;
    class       volVectorField;
    location    "48";
    object      U;
}
// * * * * * * * * * * * * * * * * * * * * * * * * * * * * * * * * * * * * * //

dimensions      [0 1 -1 0 0 0 0];

internalField   nonuniform List<vector> 
132
(
(0.0300156 -0.000378425 -0.0013123)
(0.014646 -0.000233966 -0.000921537)
(0.0330383 -0.000429507 -0.00155641)
(0.0195548 -0.00013298 -0.000908039)
(0.036029 -0.000245569 -0.00137115)
(0.02339 1.19191e-05 -0.000808972)
(0.0385765 -9.49619e-05 -0.00123186)
(0.0260672 0.00013463 -0.00090871)
(0.0406776 0.000101661 -0.00115961)
(0.0301005 -0.000986426 -0.00149209)
(0.0139154 -0.000717587 -0.000894037)
(0.0324833 -0.00126354 -0.00165096)
(0.0177554 -0.000678871 -0.000954213)
(0.03484 -0.00108743 -0.0015558)
(0.0208159 -0.000551052 -0.000850599)
(0.0369545 -0.00100925 -0.00139836)
(0.0230197 -0.000818126 -0.000852321)
(0.0386784 -0.00100101 -0.00121431)
(0.0302017 -0.000587542 -0.00165719)
(0.0133832 -0.000352844 -0.000870286)
(0.0321188 -0.000665683 -0.0017738)
(0.0164871 -0.000374303 -0.000923711)
(0.0337817 -0.000430109 -0.00167854)
(0.0187354 -0.000131035 -0.000865754)
(0.0351837 -0.000294471 -0.00148478)
(0.0200712 -1.63118e-05 -0.00060349)
(0.0361288 -0.000181754 -0.00111687)
(0.0301587 -0.000478239 -0.00163629)
(0.0135531 -0.000168465 -0.000804072)
(0.0322483 -0.000364666 -0.00164705)
(0.0299261 -0.000548999 -0.00206637)
(0.0128544 -0.000220207 -0.00118161)
(0.0316121 -0.000538307 -0.00204688)
(0.0149572 -0.000210116 -0.000974878)
(0.0328416 -0.000454435 -0.00141358)
(0.0165538 -8.04387e-05 -0.000676873)
(0.033917 -0.000303103 -0.000989574)
(0.0175164 9.71224e-05 -0.000504541)
(0.0348043 -4.99247e-05 -0.000537461)
(0.029983 -0.00127901 -0.00234635)
(0.0114601 -0.000607074 -0.00113375)
(0.0306721 -0.001436 -0.00224192)
(0.0117605 -0.000565377 -0.000915123)
(0.0310364 -0.00131667 -0.00163629)
(0.0113905 -0.000422376 -0.00056892)
(0.0313853 -0.00116453 -0.0011642)
(0.0105874 -0.000309265 -0.000333292)
(0.0317144 -0.000897089 -0.000554062)
(0.0299282 -0.000705884 -0.00255901)
(0.0103717 -0.000218035 -0.00108587)
(0.030101 -0.000633563 -0.00248375)
(0.00937686 -0.000176071 -0.000853436)
(0.0299393 -0.000429249 -0.00174098)
(0.0076123 -1.77249e-05 -0.00047705)
(0.0297328 -8.39127e-05 -0.000969657)
(0.00513528 0.00012098 -0.000194544)
(0.0296081 0.000103951 -0.0003757)
(0.0297614 -0.000190308 -0.00274219)
(0.0107545 -8.52729e-05 -0.00127385)
(0.030023 -0.000196786 -0.00269224)
(0.0100267 -9.11174e-06 -0.000953339)
(0.0301856 -4.37572e-05 -0.00198498)
(0.0298385 -0.000675393 -0.00180919)
(0.0126664 -0.000291574 -0.00110251)
(0.0311194 -0.000689664 -0.0019206)
(0.0142417 -0.000267601 -0.0010979)
(0.0322448 -0.000593903 -0.00158695)
(0.015565 -0.000132111 -0.00105243)
(0.0334024 -0.000417836 -0.00129441)
(0.0164619 3.92997e-05 -0.0011933)
(0.034435 -7.69631e-05 -0.00125882)
(0.0298145 -0.00146996 -0.00204291)
(0.0110823 -0.000701794 -0.00109789)
(0.0301288 -0.00171097 -0.00207851)
(0.0106221 -0.000668148 -0.000880532)
(0.0303528 -0.00144397 -0.00154957)
(0.00987493 -0.000468545 -0.000788187)
(0.0307466 -0.00103024 -0.00127902)
(0.00905379 -0.00044649 -0.000761985)
(0.0314375 -0.000762269 -0.00101151)
(0.0296948 -0.00100287 -0.00211667)
(0.00981113 -0.000453713 -0.00110817)
(0.0292642 -0.00108828 -0.00224058)
(0.00731126 -0.000292165 -0.00077817)
(0.02892 -0.000728223 -0.00150431)
(0.00510245 -0.000137437 -0.000560037)
(0.0288126 -0.000376699 -0.000568352)
(0.00372262 -0.000102509 -0.000543753)
(0.0288418 -0.000339455 2.2734e-05)
(0.0296101 -0.000345359 -0.00207393)
(0.00954004 -0.000180777 -0.00110758)
(0.0291336 -0.000448636 -0.0021417)
(0.00699084 -0.000194348 -0.000633586)
(0.0290273 -0.000499187 -0.00130098)
(0.00528889 -0.000288513 -0.000486793)
(0.0292843 -0.000525527 -0.000867797)
(0.0299221 -0.000810049 -0.00131402)
(0.0125307 -0.000364172 -0.000847186)
(0.0310101 -0.000790263 -0.00138924)
(0.0136694 -0.000264292 -0.000824454)
(0.0317054 -0.000571396 -0.00109599)
(0.0141306 -0.000207928 -0.00076834)
(0.032047 -0.000503536 -0.000862077)
(0.0137416 -1.32278e-05 -0.000788277)
(0.0321311 -0.000104907 -0.000586828)
(0.0298218 -0.001599 -0.00151677)
(0.0102885 -0.000789837 -0.000797498)
(0.0296535 -0.00184231 -0.00155699)
(0.00842198 -0.000631118 -0.00059806)
(0.029293 -0.00144294 -0.00106052)
(0.00642068 -0.000485613 -0.000415496)
(0.0291125 -0.000718465 -0.000753915)
(0.00400995 -0.000367542 -0.000337936)
(0.0289284 1.49421e-05 -0.000708004)
(0.0296405 -0.000756534 -0.00151469)
(0.00900509 -0.000337938 -0.000735736)
(0.0287051 -0.000754832 -0.00132571)
(0.0049222 -0.00012904 -0.000352697)
(0.0277672 -0.000257334 -0.000766355)
(0.001376 -1.70992e-05 -0.000102816)
(0.0270094 0.000228461 -0.000546701)
(1.06716e-08 5.09987e-10 3.5966e-10)
(0.0261786 0.000329983 -0.000116986)
(0.0297083 -0.000145975 -0.00143307)
(0.00952709 3.37183e-05 -0.000822291)
(0.0290596 0.000168374 -0.00150063)
(0.00629468 0.000131517 -0.000553341)
(0.0286585 0.000286672 -0.00120905)
(0.00413951 0.000136917 -0.000428763)
(0.0287241 -5.80314e-05 -0.000870816)
(0.00276888 0.000156133 -0.000365038)
(0.028354 -6.49517e-05 -0.000248871)
)
;

boundaryField
{
    inlet
    {
        type            fixedValue;
        value           uniform (0.01 0 0);
    }
    outlet
    {
        type            zeroGradient;
    }
    wall
    {
        type            fixedValue;
        value           uniform (0 0 0);
    }
    procBoundary0to1
    {
        type            processor;
        value           nonuniform List<vector> 
12
(
(0.0281015 0.000647697 -0.000866428)
(0.0243972 -0.000645814 -0.000908751)
(0.0202669 0.000181946 -0.000708594)
(0.0179488 0.000403242 -0.000184164)
(0.00960718 -0.000294516 -0.000105984)
(0.00251193 0.000124694 -0.000157998)
(0.0168063 0.000441959 -0.00141525)
(0.00884961 -0.000670081 -0.000960177)
(0.00228458 -0.000124238 -0.000491358)
(0.0119867 0.000118839 -0.00043652)
(0.00177547 -0.000260794 -0.000171456)
(1.06615e-08 1.86945e-10 1.21116e-09)
)
;
    }
    procBoundary0to2
    {
        type            processor;
        value           nonuniform List<vector> 
44
(
(0.016931 -0.000199576 -0.000841915)
(0.0341799 -0.000330764 -0.00158363)
(0.0195123 -0.000228899 -0.00076018)
(0.0359665 -0.000350739 -0.00118027)
(0.0213346 -0.000112263 -0.00045575)
(0.0377592 -0.000228929 -0.000763555)
(0.0300049 5.66624e-05 -0.00132802)
(0.0127184 1.75055e-05 -0.00075825)
(0.016931 -0.000199576 -0.000841915)
(0.0315335 0.000149449 -0.00158085)
(0.016931 -0.000199576 -0.000841915)
(0.0341799 -0.000330764 -0.00158363)
(0.00859187 8.3021e-06 -0.000609519)
(0.0303911 -5.33507e-05 -0.00124534)
(0.00745547 7.21087e-05 -0.000436872)
(0.0310517 6.50508e-05 -0.000692809)
(0.0299284 0.000368577 -0.00244097)
(0.0104883 8.14175e-05 -0.00117019)
(0.0300183 0.000395473 -0.00259468)
(0.00898382 0.000205698 -0.000955219)
(0.00859187 8.3021e-06 -0.000609519)
(0.0297447 0.000506688 -0.00196541)
(0.00859187 8.3021e-06 -0.000609519)
(0.0303911 -5.33507e-05 -0.00124534)
(0.00459368 -0.000327861 -0.000527359)
(0.0296597 -0.000100457 -0.000649155)
(0.0297459 0.000390334 -0.00208023)
(0.00970978 5.73737e-05 -0.00098963)
(0.0289974 0.000168822 -0.00188456)
(0.006626 -5.16513e-06 -0.000570174)
(0.0283757 -8.35978e-05 -0.00117103)
(0.0034786 -9.83278e-05 -0.000277157)
(0.00459368 -0.000327861 -0.000527359)
(0.0280333 -0.000516366 -0.000520041)
(0.00459368 -0.000327861 -0.000527359)
(0.0296597 -0.000100457 -0.000649155)
(0.0297356 0.000591253 -0.00175656)
(0.0092023 0.00032013 -0.000718812)
(0.0289421 0.000840749 -0.00143089)
(0.00606128 0.00022315 -0.000495281)
(0.0284114 0.000683515 -0.000781426)
(0.00358172 0.000157024 -0.000256317)
(0.0282603 0.00051787 -4.05734e-05)
(0.00139931 8.20969e-05 -0.000139429)
)
;
    }
    procBoundary0to4
    {
        type            processor;
        value           nonuniform List<vector> 
36
(
(0.0299026 -0.000908569 -0.000565963)
(0.0128957 -0.000420698 -0.000368095)
(0.0309633 -0.00097266 -0.000549496)
(0.0138866 -0.000394539 -0.000418648)
(0.0316691 -0.00072953 -0.000272995)
(0.0145498 -0.000224642 -0.000303644)
(0.0324328 -0.000518352 -0.000220931)
(0.0148377 -0.000221314 -0.000296191)
(0.0334531 -0.000512965 0.00020395)
(0.02969 -0.00167784 -0.000473916)
(0.0105919 -0.000796208 -0.000251163)
(0.0294347 -0.00175155 -0.000356613)
(0.00851702 -0.000605347 -0.000248809)
(0.0293115 -0.00130573 -0.000127385)
(0.00699429 -0.00043408 -0.000147234)
(0.0294095 -0.000986033 1.22531e-05)
(0.0055213 -0.000414624 -0.000130237)
(0.029912 -0.000610633 0.000283023)
(0.029683 -0.000932407 -0.000416982)
(0.00952728 -0.000516517 -0.00019348)
(0.0287531 -0.00106058 -0.000172325)
(0.00629464 -0.000359111 -5.6075e-05)
(0.0284006 -0.000926279 8.30558e-05)
(0.00390904 -0.000261636 5.43186e-05)
(0.0283802 -0.000535246 -0.000148523)
(0.00143375 -0.0001062 6.22718e-05)
(0.0284849 0.000130569 -0.000180928)
(0.0297224 -0.00060693 -0.000677573)
(0.00949681 -0.000162736 -0.000260965)
(0.0286428 -0.00056916 -0.000480432)
(0.00583378 -0.000230324 -0.00024055)
(0.0280533 -0.000482181 -0.000342503)
(0.00256121 -0.000138811 -7.35025e-05)
(0.0277795 8.16194e-05 -0.000237852)
(0.000236008 -2.03295e-05 -5.43981e-06)
(0.0274626 2.89515e-05 6.94772e-05)
)
;
    }
    procBoundary0to6
    {
        type            processor;
        value           uniform (0.0282672 0.000582066 -0.000137191);
    }
    procBoundary0to7
    {
        type            processor;
        value           uniform (0.00129598 0.000149084 -0.000239825);
    }
}


// ************************************************************************* //
