/*--------------------------------*- C++ -*----------------------------------*\
| =========                 |                                                 |
| \\      /  F ield         | OpenFOAM: The Open Source CFD Toolbox           |
|  \\    /   O peration     | Version:  4.x                                   |
|   \\  /    A nd           | Web:      www.OpenFOAM.org                      |
|    \\/     M anipulation  |                                                 |
\*---------------------------------------------------------------------------*/
FoamFile
{
    version     2.0;
    format      ascii;
    class       volVectorField;
    location    "48";
    object      UsPrev;
}
// * * * * * * * * * * * * * * * * * * * * * * * * * * * * * * * * * * * * * //

dimensions      [0 1 -1 0 0 0 0];

internalField   nonuniform List<vector> 
132
(
(4.28623e-10 -2.14431e-10 -1.7646e-10)
(5.07519e-10 -4.68625e-10 -4.3384e-10)
(-3.87483e-09 6.16371e-12 -1.19832e-09)
(-1.53948e-09 9.3053e-10 1.10309e-09)
(1.22178e-09 7.11671e-10 6.88141e-10)
(9.82172e-10 3.07612e-10 4.82391e-10)
(2.67469e-10 4.08644e-10 8.17342e-10)
(-2.08169e-10 4.73777e-10 5.64213e-11)
(-8.72838e-11 1.45837e-10 4.35721e-10)
(1.71475e-10 -3.76389e-10 -9.02651e-11)
(3.62347e-11 -8.61117e-10 -1.93395e-10)
(-1.69958e-09 -1.05214e-09 -1.76791e-11)
(-8.93638e-10 1.14548e-09 5.18574e-10)
(7.74911e-11 8.11746e-10 6.28827e-10)
(8.56052e-10 4.61364e-10 5.87642e-10)
(1.43518e-09 1.7487e-10 8.25822e-10)
(2.10077e-09 3.71935e-11 1.62622e-09)
(3.00193e-09 -2.19634e-09 3.89439e-09)
(7.02139e-11 -4.80276e-10 -1.70629e-11)
(-5.99147e-11 -5.63231e-10 2.1289e-11)
(-4.39246e-10 -6.11592e-10 1.2458e-10)
(-6.00724e-11 3.80358e-10 2.63982e-10)
(1.42271e-10 6.99137e-10 4.85799e-10)
(9.44161e-10 2.75113e-10 5.11095e-10)
(1.39236e-09 6.22829e-11 8.29036e-10)
(1.98106e-09 -8.39156e-10 1.60809e-09)
(2.16653e-09 -1.88007e-09 2.33581e-09)
(-6.27831e-11 -3.82471e-10 -2.93288e-11)
(4.58849e-11 -3.32048e-10 8.11112e-11)
(8.62175e-11 -2.92684e-10 1.07416e-10)
(1.64419e-10 -1.37724e-10 -4.63412e-10)
(-1.30686e-10 -2.98651e-10 -8.57511e-10)
(-1.18616e-09 -1.79752e-10 -1.12141e-09)
(-1.5519e-09 4.30756e-10 1.54331e-09)
(-1.30115e-11 3.09315e-10 9.9079e-10)
(3.37284e-10 1.75747e-10 6.20884e-10)
(1.86197e-10 4.59274e-11 7.81995e-10)
(3.12188e-10 2.28596e-10 -4.1906e-10)
(-1.57642e-09 -1.3097e-09 3.21568e-09)
(1.41206e-11 -3.06059e-10 -2.67545e-10)
(-2.70278e-10 -5.83931e-10 -4.76005e-10)
(-1.21703e-09 -4.92106e-10 -3.62398e-10)
(-1.03542e-09 3.97612e-10 6.85722e-10)
(-9.20962e-14 6.09538e-10 8.33047e-10)
(4.59414e-10 3.03483e-10 7.25174e-10)
(3.82106e-10 2.64433e-10 8.68389e-10)
(3.2387e-10 9.8526e-11 1.54843e-09)
(-5.97485e-10 4.87462e-10 4.71328e-09)
(1.85284e-13 -2.54118e-10 -1.42012e-10)
(-1.82917e-10 -4.70079e-10 -1.19962e-10)
(-4.10606e-10 -2.42599e-10 2.97382e-11)
(-3.11856e-10 1.69478e-10 2.69293e-10)
(1.15255e-10 3.56118e-10 4.95606e-10)
(5.84315e-10 2.6004e-10 5.66221e-10)
(8.55835e-10 9.02928e-11 9.05871e-10)
(7.43786e-10 -1.26633e-10 1.69995e-09)
(1.12872e-09 -2.22949e-10 2.96214e-09)
(-2.42171e-11 -2.50094e-10 -6.55609e-11)
(-6.25074e-11 -2.98412e-10 9.41688e-12)
(-2.14874e-10 -1.59143e-10 1.73456e-10)
(3.19029e-11 1.92273e-11 2.65777e-10)
(1.60697e-10 5.89128e-11 4.59139e-10)
(-5.18896e-11 -5.70128e-11 -3.33863e-10)
(-2.05191e-10 -6.08999e-11 -4.19404e-10)
(-5.86482e-10 -3.35043e-11 -3.66852e-10)
(-3.86344e-10 3.14881e-11 4.78173e-10)
(-2.07795e-10 9.8339e-11 6.2221e-10)
(3.86865e-13 1.37177e-10 6.70306e-10)
(-1.57514e-10 2.86727e-11 8.54276e-10)
(-1.2069e-11 8.29406e-11 6.01595e-10)
(-1.60652e-09 -6.36943e-10 4.19729e-09)
(-4.81803e-11 -1.91392e-10 -2.41321e-10)
(-2.57308e-10 -2.27147e-10 -2.89277e-10)
(-5.53411e-10 -1.5368e-10 -1.26002e-10)
(-4.07286e-10 8.10087e-11 4.17377e-10)
(-2.66163e-10 1.947e-10 6.87074e-10)
(3.72779e-11 1.29994e-10 7.45028e-10)
(4.41318e-11 8.10891e-11 9.4141e-10)
(-2.08936e-10 1.33223e-11 1.44762e-09)
(-2.17404e-09 1.90137e-09 4.76659e-09)
(-2.66609e-11 -1.53933e-10 -1.00588e-10)
(-1.31318e-10 -1.96944e-10 -8.6811e-11)
(-2.75424e-10 -1.42547e-10 3.4371e-11)
(-1.7539e-10 6.49252e-11 3.00874e-10)
(6.68305e-11 2.04001e-10 5.20685e-10)
(3.91036e-10 2.15316e-10 6.85743e-10)
(1.62009e-10 1.55645e-10 8.41579e-10)
(-6.4285e-11 5.9932e-10 1.66652e-09)
(-5.61961e-10 2.00072e-09 3.25506e-09)
(-3.49662e-11 -1.77418e-10 1.57347e-14)
(-2.54017e-11 -2.72512e-10 1.02522e-10)
(-1.21742e-10 -1.92179e-10 2.335e-10)
(4.16814e-11 -1.02249e-10 3.5045e-10)
(2.08993e-10 -5.77752e-11 5.46326e-10)
(4.8406e-10 5.73832e-11 6.03859e-10)
(7.83443e-10 3.26972e-10 8.28483e-10)
(-3.95124e-11 -1.89169e-11 -2.061e-10)
(-1.34417e-10 1.41236e-11 -1.66437e-10)
(-2.99619e-10 -2.29167e-11 -9.81206e-11)
(-1.09988e-10 4.46503e-11 2.1183e-10)
(-1.19138e-10 6.17618e-11 3.76691e-10)
(-1.12156e-10 8.51106e-11 5.26372e-10)
(-1.26064e-10 1.41469e-10 6.57764e-10)
(-8.18364e-11 6.76614e-12 1.26672e-09)
(-2.877e-10 -2.13034e-10 2.95181e-09)
(-5.21469e-11 -8.43574e-11 -1.66635e-10)
(-1.50478e-10 -4.26864e-11 -1.29765e-10)
(-2.57378e-10 -1.78228e-11 3.23951e-11)
(-1.37442e-10 5.74127e-11 3.05316e-10)
(-5.70257e-11 1.78891e-10 4.50232e-10)
(6.11648e-11 1.65435e-10 6.09575e-10)
(5.54979e-11 2.44329e-10 7.98814e-10)
(-1.40209e-10 1.97208e-10 1.24727e-09)
(-5.83196e-10 5.81003e-10 2.04769e-09)
(2.51899e-11 -6.30997e-11 -6.46427e-11)
(7.67856e-12 -4.93472e-11 4.63921e-12)
(-2.72702e-12 5.44582e-12 8.90753e-11)
(2.02263e-10 1.42798e-10 2.81376e-10)
(3.46432e-10 2.51736e-10 4.60869e-10)
(6.41154e-10 2.24469e-10 6.63241e-10)
(6.45237e-10 4.10045e-10 8.30319e-10)
(4.15421e-10 6.07085e-10 1.43023e-09)
(1.32039e-10 1.02079e-09 2.22048e-09)
(8.80482e-12 -8.13264e-11 4.37196e-11)
(1.29001e-10 -2.01374e-10 1.13131e-10)
(2.29907e-10 -1.20411e-10 1.1301e-10)
(7.16959e-10 -1.86783e-12 3.60404e-10)
(9.3934e-10 1.84559e-10 6.21426e-10)
(1.0963e-09 1.20303e-10 6.646e-10)
(1.26006e-09 4.68382e-10 7.97038e-10)
(1.162e-09 5.21071e-10 1.07665e-09)
(1.63716e-09 2.64817e-10 1.2136e-09)
)
;

boundaryField
{
    inlet
    {
        type            calculated;
        value           uniform (0 0 0);
    }
    outlet
    {
        type            calculated;
        value           nonuniform 0();
    }
    wall
    {
        type            calculated;
        value           uniform (0 0 0);
    }
    procBoundary0to1
    {
        type            processor;
        value           uniform (0 0 0);
    }
    procBoundary0to2
    {
        type            processor;
        value           uniform (0 0 0);
    }
    procBoundary0to4
    {
        type            processor;
        value           uniform (0 0 0);
    }
    procBoundary0to6
    {
        type            processor;
        value           uniform (0 0 0);
    }
    procBoundary0to7
    {
        type            processor;
        value           uniform (0 0 0);
    }
}


// ************************************************************************* //
