/*--------------------------------*- C++ -*----------------------------------*\
  =========                 |
  \\      /  F ield         | OpenFOAM: The Open Source CFD Toolbox
   \\    /   O peration     | Website:  https://openfoam.org
    \\  /    A nd           | Version:  4.x
     \\/     M anipulation  |
\*---------------------------------------------------------------------------*/
FoamFile
{
    version     2.0;
    format      ascii;
    class       Cloud<passiveParticle>;
    location    0;
    object      positions;
}
// * * * * * * * * * * * * * * * * * * * * * * * * * * * * * * * * * * * * * //

348
(
( 0.256026 -0.0172349 0.0199757 ) 39
( 0.253198 -0.0031562 0.0336809 ) 48
( 0.256939 0.0116535 0.0209112 ) 48
( 0.421213 -0.0532293 -0.0093897 ) 10
( 0.328398 -0.0516082 0.0356061 ) 32
( 0.439671 -0.0867343 -0.00617005 ) 3
( 0.479814 -0.0721251 0.0133755 ) 5
( 0.429408 -0.0905592 0.0309665 ) 27
( 0.346618 -0.0575937 0.0231326 ) 33
( 0.469062 -0.0594016 0.0236783 ) 37
( 0.438573 -0.0210233 0.0177801 ) 45
( 0.477622 -0.0231395 -0.00028971 ) 20
( 0.344216 -0.0902026 0.00358243 ) 0
( 0.431791 -0.04092 0.0119134 ) 18
( 0.456646 -0.0434039 0.000603629 ) 11
( 0.287681 -0.0166811 -0.00537395 ) 13
( 0.373435 -0.073784 0.00180676 ) 1
( 0.40278 -0.0578123 -0.00413013 ) 9
( 0.280649 -0.0346775 -0.00972727 ) 13
( 0.344982 -0.0182721 0.00427092 ) 15
( 0.39301 -0.0731017 0.00361984 ) 2
( 0.283102 -0.029681 0.0090898 ) 13
( 0.321795 -0.0257002 -0.00887492 ) 14
( 0.333674 -0.0747307 -0.00341082 ) 0
( 0.363966 -0.0843421 0.0306422 ) 25
( 0.362902 -0.0224749 -0.00297729 ) 16
( 0.489649 -0.0448067 0.0248188 ) 38
( 0.435982 -0.090263 0.0126727 ) 3
( 0.481811 -0.0718511 -0.0061812 ) 5
( 0.370527 -0.054403 0.005506 ) 8
( 0.432816 -0.0550184 0.0260998 ) 36
( 0.448812 -0.0717966 0.00271381 ) 4
( 0.312574 -0.0762267 0.0169606 ) 23
( 0.391671 -0.090713 0.0243215 ) 26
( 0.348582 -0.071759 0.00936903 ) 0
( 0.41888 -0.0312244 0.0283526 ) 45
( 0.398033 -0.088042 -0.0087911 ) 2
( 0.421794 -0.0773476 0.0178918 ) 27
( 0.310779 -0.0570051 0.022683 ) 32
( 0.425163 -0.0298491 -0.00902926 ) 18
( 0.452387 -0.0666532 0.0313996 ) 37
( 0.465886 -0.031676 -0.0133277 ) 19
( 0.401566 -0.0262168 0.0156794 ) 44
( 0.340121 -0.0562883 -0.0049796 ) 7
( 0.325315 -0.0242296 0.0106044 ) 14
( 0.360474 -0.0862719 -0.00687202 ) 0
( 0.321985 -0.0622508 0.0067588 ) 6
( 0.384212 -0.0385516 0.0238903 ) 43
( 0.383574 -0.0577564 0.0193535 ) 34
( 0.277982 -0.0599745 0.0190052 ) 31
( 0.32235 -0.0593553 -0.0130001 ) 6
( 0.403728 -0.0435009 0.0245069 ) 35
( 0.346957 -0.0902487 0.0230692 ) 24
( 0.454985 -0.0175927 0.0285352 ) 46
( 0.391122 -0.0281422 -0.00109286 ) 17
( 0.260505 -0.0718646 0.022639 ) 21
( 0.454562 -0.0905163 0.00630454 ) 4
( 0.384735 -0.0905187 0.00596087 ) 1
( 0.359363 -0.041665 -0.00406978 ) 15
( 0.490473 -0.0171316 0.0130708 ) 20
( 0.4655 -0.061813 0.00451955 ) 11
( 0.489119 -0.0557048 0.00817062 ) 12
( 0.47467 -0.0904764 0.0200092 ) 29
( 0.490356 -0.0361533 0.00702517 ) 20
( 0.420436 -0.0901729 -0.00420871 ) 3
( 0.453462 -0.0341081 0.0176243 ) 46
( 0.421093 -0.0245065 0.00973528 ) 18
( 0.417026 -0.0534594 0.0141059 ) 10
( 0.356148 -0.0319205 0.0130846 ) 15
( 0.330667 -0.0475323 0.0165256 ) 32
( 0.376427 -0.021159 0.0283859 ) 43
( 0.272162 -0.0274614 0.0251932 ) 39
( 0.449646 -0.055623 0.0147384 ) 37
( 0.357009 -0.0205163 0.0288219 ) 42
( 0.265253 -0.0459996 0.0248889 ) 30
( 0.381853 -0.0450109 -0.00795338 ) 8
( 0.446941 -0.0263415 0.000498848 ) 19
( 0.403545 -0.0668177 0.018712 ) 35
( 0.302537 -0.0290726 0.00275735 ) 13
( 0.313128 -0.0385791 0.0162852 ) 41
( 0.458179 -0.0850198 -0.0125416 ) 4
( 0.36629 -0.0471537 0.0242476 ) 34
( 0.364582 -0.066503 0.0198816 ) 34
( 0.321689 -0.0438085 -0.000818716 ) 6
( 0.473165 -0.0488892 -0.00762804 ) 12
( 0.471771 -0.029403 0.02484 ) 46
( 0.479585 -0.0884599 0.0394561 ) 29
( 0.31094 -0.0419992 0.0354824 ) 41
( 0.358243 -0.0640515 -0.00605449 ) 7
( 0.458935 -0.065126 -0.0136898 ) 11
( 0.365529 -0.0900527 0.0118503 ) 1
( 0.332614 -0.0747182 0.0206856 ) 23
( 0.453785 -0.0472806 0.0321721 ) 37
( 0.290969 -0.0718386 0.0280829 ) 22
( 0.341156 -0.0384648 0.00283975 ) 15
( 0.472905 -0.0900613 -0.000563939 ) 5
( 0.490893 -0.0542754 -0.0114791 ) 12
( 0.316059 -0.022443 0.0280387 ) 41
( 0.410494 -0.0901395 0.027927 ) 26
( 0.411112 -0.0393424 0.00141631 ) 17
( 0.433001 -0.0603351 0.00494509 ) 10
( 0.489586 -0.0631251 0.0313681 ) 38
( 0.393544 -0.0454611 0.00792706 ) 9
( 0.380784 -0.0749692 0.0276297 ) 25
( 0.473129 -0.0443006 0.0118726 ) 12
( 0.339378 -0.0295054 0.0232515 ) 42
( 0.461265 -0.0761921 0.0172432 ) 28
( 0.374609 -0.034655 0.00734243 ) 16
( 0.268906 -0.0900527 0.0190369 ) 21
( 0.489926 -0.0900072 -0.0120049 ) 5
( 0.438385 -0.0440352 -0.00613213 ) 10
( 0.316233 -0.0901268 0.0302882 ) 23
( 0.378841 -0.0901199 -0.0130604 ) 1
( 0.293051 -0.0442683 0.0270532 ) 31
( 0.406302 -0.0869633 0.00909442 ) 2
( 0.417273 -0.0710235 -0.000302103 ) 10
( 0.373376 -0.0405909 0.0416367 ) 43
( 0.452905 -0.0904558 0.0274558 ) 28
( 0.472679 -0.0452587 0.036306 ) 38
( 0.273716 0.00489442 0.0288237 ) 48
( 0.491035 -0.0816999 0.0257236 ) 29
( 0.437739 -0.036377 0.0299588 ) 45
( 0.490439 -0.0901343 0.0078927 ) 5
( 0.34166 -0.0440603 0.0523819 ) 62
( 0.322618 -0.0609952 0.0518931 ) 61
( 0.282104 -0.0108958 0.0551418 ) 78
( 0.267104 -0.0899338 0.0394336 ) 21
( 0.382883 -0.0241432 0.0468077 ) 72
( 0.398185 -0.0905 0.0520521 ) 55
( 0.423256 -0.035165 0.0571834 ) 74
( 0.347853 -0.0707556 0.0552233 ) 62
( 0.340488 -0.0903448 0.0570211 ) 53
( 0.489776 -0.0339971 -0.0125419 ) 20
( 0.296344 0.00146475 0.0483737 ) 78
( 0.289424 -0.0247805 0.0432485 ) 69
( 0.32764 -0.0094891 0.0489023 ) 79
( 0.485102 -0.0234246 0.0484569 ) 76
( 0.271704 -0.0729626 0.0575813 ) 50
( 0.38715 -0.0554003 0.0522441 ) 63
( 0.439336 -0.0685487 0.0540118 ) 65
( 0.265355 -0.0536622 0.0519486 ) 59
( 0.461571 -0.0904516 0.0454267 ) 57
( 0.454245 -0.0170759 0.057663 ) 75
( 0.490384 -0.0902825 0.0771898 ) 89
( 0.312394 -0.0419192 0.0679035 ) 70
( 0.298967 -0.0581719 0.059086 ) 60
( 0.362228 -0.034257 0.056762 ) 72
( 0.374716 -0.0902927 0.0582584 ) 54
( 0.42063 -0.0739071 0.0571569 ) 56
( 0.370875 -0.0561734 0.0634542 ) 63
( 0.456239 -0.0596591 0.0490479 ) 66
( 0.285042 -0.0901798 0.0581359 ) 51
( 0.489745 -0.0551644 0.0589802 ) 67
( 0.326386 -0.0777254 0.0614512 ) 52
( 0.3485 0.0104876 0.0618003 ) 80
( 0.438568 -0.0481332 0.0575646 ) 65
( 0.471336 -0.0734045 0.0600545 ) 57
( 0.431429 -0.0901166 0.0611602 ) 56
( 0.335383 -0.0241976 0.0598249 ) 71
( 0.462295 -0.0356302 0.0684118 ) 75
( 0.283871 -0.0297806 0.0616186 ) 69
( 0.401122 -0.0432118 0.0581024 ) 64
( 0.368354 -0.0153457 0.0572684 ) 72
( 0.323874 0.00746726 0.0590732 ) 79
( 0.283755 0.00665787 0.0638882 ) 78
( 0.386672 -0.0748062 0.052871 ) 54
( 0.434652 -0.0199482 0.0630965 ) 74
( 0.310432 -0.02587 0.0467437 ) 70
( 0.335447 -0.0570191 0.0662103 ) 62
( 0.380627 -0.0388713 0.0600848 ) 72
( 0.255589 -0.0205548 0.0425355 ) 39
( 0.254506 -0.041727 0.0408419 ) 39
( 0.265603 -0.0221063 0.0594426 ) 68
( 0.40272 -0.0237515 0.0549709 ) 73
( 0.454983 -0.0398445 0.05049 ) 75
( 0.417466 -0.0902896 0.0467442 ) 56
( 0.310238 -0.00949271 0.0575559 ) 79
( 0.367194 -0.0727381 0.0532253 ) 54
( 0.425406 -0.0572388 0.0466157 ) 65
( 0.336523 -0.0703825 0.0393941 ) 33
( 0.359004 -0.0520134 0.0487007 ) 62
( 0.472285 -0.068784 0.0408429 ) 38
( 0.255308 -0.075655 0.0469551 ) 50
( 0.373994 -0.0600276 0.0384007 ) 34
( 0.296702 -0.0418595 0.0489368 ) 69
( 0.355516 -0.0877686 0.0704423 ) 53
( 0.420874 -0.0529486 0.0654723 ) 65
( 0.260553 0.0139199 0.0399397 ) 48
( 0.297676 -0.025689 0.0215277 ) 40
( 0.299415 -0.0901336 0.0441219 ) 51
( 0.465888 -0.0248423 0.0434504 ) 75
( 0.353784 -0.00778052 0.0729065 ) 111
( 0.406536 -0.0618765 0.0505374 ) 64
( 0.412228 -0.0438331 0.0419794 ) 35
( 0.434335 -0.0723244 0.035283 ) 27
( 0.272074 -0.0695931 0.0381892 ) 30
( 0.317522 -0.0705782 0.0351722 ) 32
( 0.473416 -0.0158464 0.0617218 ) 76
( 0.307923 -0.07412 0.0518785 ) 52
( 0.490152 -0.0739946 0.0479629 ) 58
( 0.380396 -0.0901837 0.0399309 ) 25
( 0.490564 -0.0261536 0.0302222 ) 47
( 0.337941 0.0071091 0.045431 ) 80
( 0.490638 -0.0418354 0.0443643 ) 76
( 0.348967 -0.0255263 0.0459269 ) 71
( 0.322463 -0.0412495 0.0514484 ) 70
( 0.288777 -0.073675 0.0476599 ) 51
( 0.261878 -0.0901576 0.0585706 ) 50
( 0.271961 -0.0335532 0.0439794 ) 68
( 0.412054 -0.0894123 0.0659452 ) 55
( 0.402888 -0.0603536 0.0695584 ) 64
( 0.350107 -0.0416733 0.0344695 ) 42
( 0.398105 -0.0775657 0.0371011 ) 26
( 0.393014 -0.0401171 0.0409747 ) 44
( 0.334393 -0.0900765 0.0381712 ) 24
( 0.484295 -0.0901831 0.058531 ) 58
( 0.28043 -0.0551359 0.0640989 ) 60
( 0.28498 -0.0903529 0.0307514 ) 22
( 0.300415 -0.0114182 0.0345134 ) 49
( 0.414378 -0.0164415 0.0690237 ) 73
( 0.357854 -0.0901815 0.0482796 ) 53
( 0.392393 -0.0896352 0.0710593 ) 55
( 0.442267 -0.0878784 0.0446874 ) 56
( 0.490815 -0.035084 0.0637958 ) 76
( 0.355295 -0.0469874 0.0723133 ) 93
( 0.415258 -0.0685818 0.0343502 ) 35
( 0.452289 -0.0818067 0.0599528 ) 57
( 0.407107 0.00550645 0.0731063 ) 113
( 0.30218 0.0073858 0.0290403 ) 49
( 0.316037 -0.0231917 0.0731855 ) 101
( 0.282033 -0.0527247 0.0412372 ) 31
( 0.395647 -0.0582898 0.0346654 ) 35
( 0.251254 -0.0602034 0.0356489 ) 30
( 0.304502 -0.0901485 0.0636494 ) 51
( 0.294702 -0.0463472 0.0741227 ) 91
( 0.386597 -0.0194247 0.0653859 ) 72
( 0.402126 -0.0236095 0.0353513 ) 44
( 0.474424 -0.0392305 0.0543465 ) 76
( 0.441186 -0.0252823 0.0454312 ) 74
( 0.355889 -0.0677249 0.037514 ) 33
( 0.304118 0.0125397 0.0622216 ) 78
( 0.301373 -0.059746 0.0397099 ) 31
( 0.272836 -0.0124624 0.0378906 ) 48
( 0.2656 -0.00169156 0.0646441 ) 77
( 0.335717 0.00856209 0.0762389 ) 111
( 0.444596 -0.0610208 0.0713474 ) 66
( 0.288773 -0.0130026 0.0903644 ) 109
( 0.490043 -0.0730007 0.067715 ) 58
( 0.463049 -0.0567355 0.0669266 ) 66
( 0.38009 -0.0729451 0.0714903 ) 85
( 0.329022 -0.00862098 0.0697974 ) 79
( 0.443548 -0.0353728 0.0713112 ) 74
( 0.341335 -0.074543 0.0730591 ) 84
( 0.419301 -0.0201217 0.0449208 ) 74
( 0.46702 -0.0905413 0.0689698 ) 57
( 0.347906 -0.00762099 0.0541502 ) 80
( 0.427168 -0.0691798 0.0750967 ) 96
( 0.318375 -0.0906654 0.0497623 ) 52
( 0.408773 -0.0349895 0.0732641 ) 104
( 0.385449 -0.0546187 0.0760911 ) 94
( 0.370787 -0.0280175 0.0735019 ) 103
( 0.251455 -0.014167 0.0712494 ) 77
( 0.335345 -0.0387415 0.0731039 ) 102
( 0.294374 -0.0272511 0.0782003 ) 100
( 0.478097 -0.0466001 0.0725118 ) 98
( 0.389828 -0.0351003 0.0766202 ) 104
( 0.373479 -0.00840897 0.0751074 ) 112
( 0.288865 -0.0730397 0.0672741 ) 51
( 0.425557 -0.090224 0.0802318 ) 87
( 0.330303 -0.0271465 0.0405939 ) 41
( 0.267182 -0.0398502 0.0682226 ) 68
( 0.426519 -0.0298768 0.0780288 ) 105
( 0.31199 -0.000433203 0.0747449 ) 110
( 0.477409 -0.0272909 0.0770314 ) 107
( 0.312653 -0.0670205 0.0695151 ) 61
( 0.358877 -0.0897735 0.0902603 ) 84
( 0.351126 -0.0272605 0.0727396 ) 102
( 0.398543 -0.0692365 0.0892295 ) 95
( 0.382959 0.00872042 0.0784579 ) 112
( 0.362203 -0.0642046 0.0796472 ) 94
( 0.277005 -0.0149608 0.0738434 ) 99
( 0.398789 -0.0179349 0.0807707 ) 104
( 0.295189 -0.00947674 0.0698322 ) 78
( 0.363931 0.00901174 0.0737351 ) 112
( 0.264103 -0.0622631 0.0721081 ) 90
( 0.327944 -0.0732347 0.0900783 ) 83
( 0.322006 -0.0893478 0.0798528 ) 83
( 0.431932 -0.0501709 0.0816138 ) 96
( 0.406462 -0.0905346 0.085045 ) 86
( 0.270857 -0.0903449 0.0760034 ) 81
( 0.373618 -0.0904684 0.0773346 ) 85
( 0.281394 -0.0625948 0.0823187 ) 91
( 0.375237 -0.0455411 0.0902686 ) 94
( 0.344802 -0.00707684 0.0903436 ) 111
( 0.45929 -0.0735681 0.075879 ) 88
( 0.41571 0.000582171 0.0900581 ) 113
( 0.454805 -0.0473521 0.0821053 ) 97
( 0.28748 0.00565959 0.0843271 ) 109
( 0.386161 -0.00674627 0.0904543 ) 112
( 0.474128 -0.0822891 0.0847602 ) 89
( 0.290475 -0.0900831 0.0774188 ) 82
( 0.380175 -0.0258369 0.090608 ) 103
( 0.413991 -0.0571647 0.0854495 ) 95
( 0.332674 -0.0215676 0.0840822 ) 101
( 0.352335 -0.0385991 0.0901242 ) 102
( 0.251062 -0.0204206 0.0901432 ) 99
( 0.378847 -0.0665771 0.090296 ) 94
( 0.447552 -0.0194234 0.0823675 ) 106
( 0.438053 -0.0788252 0.0904227 ) 87
( 0.270256 0.0127831 0.0903977 ) 108
( 0.255997 0.00170924 0.0824494 ) 108
( 0.490432 -0.0396339 0.0859124 ) 107
( 0.472791 -0.063064 0.0900755 ) 98
( 0.339034 -0.0901105 0.0901789 ) 84
( 0.307852 -0.0353694 0.0902238 ) 101
( 0.340054 -0.0542355 0.0900324 ) 93
( 0.268672 -0.0295225 0.0903516 ) 99
( 0.490376 -0.0588659 0.0815435 ) 98
( 0.395765 -0.0472266 0.0906546 ) 95
( 0.36373 -0.0011965 0.0904613 ) 112
( 0.414422 -0.038572 0.090995 ) 104
( 0.300262 -0.073209 0.0830672 ) 82
( 0.268992 -0.00994221 0.090667 ) 108
( 0.320072 -0.0554169 0.0830979 ) 92
( 0.279385 -0.0803926 0.0904484 ) 82
( 0.398697 0.0103376 0.0903058 ) 113
( 0.444687 -0.0903 0.0758634 ) 88
( 0.325292 -0.00271132 0.0900755 ) 110
( 0.305215 -0.0903117 0.0905312 ) 82
( 0.347901 -0.0723966 0.0907847 ) 84
( 0.451114 -0.0643146 0.0906006 ) 97
( 0.471552 -0.0411525 0.0904109 ) 106
( 0.4418 -0.0358807 0.0908439 ) 105
( 0.267752 -0.0486609 0.085969 ) 90
( 0.309204 -0.0154206 0.0901435 ) 101
( 0.416121 -0.0190258 0.0906489 ) 104
( 0.386164 -0.0850446 0.0906922 ) 85
( 0.49035 -0.0204992 0.0902974 ) 107
( 0.465327 -0.0224065 0.0909421 ) 106
( 0.285219 -0.0401097 0.0901982 ) 100
( 0.306059 0.00884269 0.0905752 ) 110
( 0.417379 -0.0755375 0.0906631 ) 87
( 0.490825 -0.0761881 0.090818 ) 89
( 0.327209 -0.0391431 0.0907357 ) 101
( 0.457686 -0.0903197 0.0904646 ) 88
( 0.297593 -0.0555335 0.0907634 ) 91
( 0.264503 -0.0674658 0.0908121 ) 90
( 0.361012 -0.0207791 0.0901495 ) 102
)
