/*--------------------------------*- C++ -*----------------------------------*\
| =========                 |                                                 |
| \\      /  F ield         | OpenFOAM: The Open Source CFD Toolbox           |
|  \\    /   O peration     | Version:  4.x                                   |
|   \\  /    A nd           | Web:      www.OpenFOAM.org                      |
|    \\/     M anipulation  |                                                 |
\*---------------------------------------------------------------------------*/
FoamFile
{
    version     2.0;
    format      ascii;
    class       volScalarField;
    location    "39.5";
    object      particleRelTemp;
}
// * * * * * * * * * * * * * * * * * * * * * * * * * * * * * * * * * * * * * //

dimensions      [0 0 0 0 0 0 0];

internalField   nonuniform List<scalar> 
114
(
-1.28888e-10
-1.16817e-10
-9.35703e-11
-7.78605e-11
-5.54067e-11
-5.00992e-11
-1.55924e-10
-1.48893e-10
-1.40735e-10
-1.29198e-10
-1.14925e-10
-9.81027e-11
-8.41838e-11
-6.77375e-11
-5.67219e-11
-1.57967e-10
-1.52048e-10
-1.43334e-10
-1.34518e-10
-1.21349e-10
-1.1005e-10
-9.61373e-11
-7.84547e-11
-7.29958e-11
-1.57857e-10
-1.54303e-10
-1.48124e-10
-1.40397e-10
-1.29704e-10
-1.23893e-10
-1.08495e-10
-9.9094e-11
-9.26564e-11
-8.50199e-11
-6.1913e-11
-4.13182e-11
-2.24257e-11
-1.56311e-10
-1.48132e-10
-1.36343e-10
-1.2282e-10
-1.08841e-10
-8.70933e-11
-6.99562e-11
-4.78068e-11
-3.15179e-11
-1.56632e-10
-1.49423e-10
-1.40162e-10
-1.28097e-10
-1.15023e-10
-1.01548e-10
-8.4942e-11
-6.68154e-11
-5.34184e-11
-1.56898e-10
-1.51491e-10
-1.43947e-10
-1.34678e-10
-1.24996e-10
-1.13725e-10
-1.01527e-10
-8.4374e-11
-7.67369e-11
-1.6494e-11
3.97656e-12
-1.53952e-10
-1.45798e-10
-1.32215e-10
-1.16627e-10
-9.80327e-11
-7.4195e-11
-5.27369e-11
-2.86655e-11
-1.11264e-11
-1.56171e-10
-1.47438e-10
-1.34201e-10
-1.22486e-10
-1.03786e-10
-8.72755e-11
-6.99414e-11
-4.89181e-11
-2.38693e-11
-1.56317e-10
-1.49268e-10
-1.40307e-10
-1.26983e-10
-1.16335e-10
-1.01558e-10
-8.56017e-11
-7.02014e-11
-5.05404e-11
-1.53436e-10
-1.41363e-10
-1.28323e-10
-1.1383e-10
-9.43441e-11
-6.90741e-11
-4.37466e-11
-8.1697e-12
-1.55594e-10
-1.45162e-10
-1.35245e-10
-1.18643e-10
-1.01428e-10
-8.13663e-11
-6.78902e-11
-1.56679e-10
-1.48586e-10
-1.3766e-10
-1.26306e-10
-1.12181e-10
-9.41421e-11
)
;

boundaryField
{
    inlet
    {
        type            calculated;
        value           nonuniform List<scalar> 
12
(
-1.55924e-10
-1.57967e-10
-1.57857e-10
-1.56311e-10
-1.56632e-10
-1.56898e-10
-1.53952e-10
-1.56171e-10
-1.56317e-10
-1.53436e-10
-1.55594e-10
-1.56679e-10
)
;
    }
    outlet
    {
        type            calculated;
        value           nonuniform 0();
    }
    wall
    {
        type            calculated;
        value           nonuniform List<scalar> 
66
(
-1.55924e-10
-1.57967e-10
-1.57857e-10
-1.48893e-10
-1.52048e-10
-1.54303e-10
-1.40735e-10
-1.43334e-10
-1.48124e-10
-1.28888e-10
-1.29198e-10
-1.34518e-10
-1.40397e-10
-1.16817e-10
-1.14925e-10
-1.21349e-10
-1.29704e-10
-9.35703e-11
-9.81027e-11
-1.1005e-10
-1.23893e-10
-7.78605e-11
-8.41838e-11
-9.61373e-11
-1.08495e-10
-5.54067e-11
-6.77375e-11
-7.84547e-11
-9.9094e-11
-5.00992e-11
-5.67219e-11
-7.29958e-11
-9.26564e-11
-1.57857e-10
-1.56898e-10
-1.56317e-10
-1.56679e-10
-1.54303e-10
-1.51491e-10
-1.49268e-10
-1.48586e-10
-1.48124e-10
-1.43947e-10
-1.40307e-10
-1.3766e-10
-1.40397e-10
-1.34678e-10
-1.26983e-10
-1.26306e-10
-1.29704e-10
-1.24996e-10
-1.16335e-10
-1.12181e-10
-1.23893e-10
-1.13725e-10
-1.01558e-10
-9.41421e-11
-1.08495e-10
-1.01527e-10
-8.56017e-11
-9.9094e-11
-8.4374e-11
-7.02014e-11
-9.26564e-11
-7.67369e-11
-5.05404e-11
)
;
    }
    procBoundary2to0
    {
        type            processor;
        value           nonuniform List<scalar> 
44
(
-1.27259e-10
-1.15286e-10
-1.00063e-10
-8.08846e-11
-6.29841e-11
-4.92244e-11
-1.57613e-10
-1.47824e-10
-1.43697e-10
-1.43697e-10
-1.16316e-10
-1.03206e-10
-9.19931e-11
-6.68517e-11
-4.53797e-11
-2.28919e-11
-1.54284e-10
-1.44692e-10
-1.32271e-10
-1.16316e-10
-1.03206e-10
-1.03206e-10
-7.44583e-11
-3.86293e-11
-1.91868e-11
-6.18604e-12
-1.53505e-10
-1.4165e-10
-1.28117e-10
-1.1403e-10
-9.32025e-11
-7.44583e-11
-3.86293e-11
-3.86293e-11
-1.02143e-11
1.53024e-11
-1.53322e-10
-1.43611e-10
-1.2877e-10
-1.08727e-10
-9.04453e-11
-6.36067e-11
-2.93304e-11
-1.02143e-11
)
;
    }
    procBoundary2to3
    {
        type            processor;
        value           nonuniform List<scalar> 
12
(
-2.49452e-11
-3.63406e-11
-5.72595e-11
-8.22091e-11
2.71859e-12
-1.03532e-11
-3.78751e-11
-5.51835e-11
3.69576e-11
1.92994e-11
1.10862e-12
-2.44989e-11
)
;
    }
    procBoundary2to6
    {
        type            processor;
        value           nonuniform List<scalar> 
32
(
8.39699e-12
-4.4691e-11
-9.83517e-12
-8.15219e-11
-5.89338e-11
-3.95524e-11
-1.52888e-10
-1.42871e-10
-1.28109e-10
-1.09455e-10
-8.89844e-11
-6.80359e-11
-4.95354e-11
8.39699e-12
-4.4691e-11
-2.46348e-11
-1.53509e-10
-1.46666e-10
-1.3444e-10
-1.17798e-10
-1.02476e-10
-8.33756e-11
-4.4691e-11
-8.15219e-11
-6.02541e-11
-1.56045e-10
-1.48332e-10
-1.39636e-10
-1.24074e-10
-1.12304e-10
-8.15219e-11
-9.39075e-11
)
;
    }
}


// ************************************************************************* //
