/*--------------------------------*- C++ -*----------------------------------*\
| =========                 |                                                 |
| \\      /  F ield         | OpenFOAM: The Open Source CFD Toolbox           |
|  \\    /   O peration     | Version:  4.x                                   |
|   \\  /    A nd           | Web:      www.OpenFOAM.org                      |
|    \\/     M anipulation  |                                                 |
\*---------------------------------------------------------------------------*/
FoamFile
{
    version     2.0;
    format      ascii;
    class       volScalarField;
    location    "30.5";
    object      p;
}
// * * * * * * * * * * * * * * * * * * * * * * * * * * * * * * * * * * * * * //

dimensions      [1 -1 -2 0 0 0 0];

internalField   nonuniform List<scalar> 
87
(
82.0922
38.9952
81.8988
88.8348
38.9732
81.7649
-1765.63
-1783.84
-1773
-1801.46
-1780.71
-1819.63
-1788.43
-1837.67
-1795.97
-1766.09
-1783.93
-1773.28
-1801.76
-1780.82
-1820.07
-1788.35
-1838.45
-1795.76
-1766.79
-1784.3
-1773.93
-1801.94
-1781.3
-1820.23
-1788.81
-1838.53
-1795.93
-3643.66
-3661.67
-3651.04
-3679.45
-3658.63
-3697.48
-3666.16
-3715.67
-3673.47
-3644.19
-3661.87
-3651.49
-3679.64
-3659.04
-3697.79
-3666.52
-3716.15
-3673.81
-3644.76
-3662.18
-3651.95
-3679.78
-3659.39
-3697.94
-3666.79
-3716.19
-3673.96
-5522.07
-5539.78
-5529.34
-5557.45
-5536.89
-5575.49
-5544.37
-5593.82
-5551.58
-5522.45
-5539.95
-5529.67
-5557.59
-5537.16
-5575.81
-5544.62
-5594.03
-5551.81
-5522.91
-5540.13
-5530.04
-5557.74
-5537.41
-5575.81
-5544.82
-5593.95
-5551.87
)
;

boundaryField
{
    inlet
    {
        type            calculated;
        value           nonuniform List<scalar> 9(-1765.63 -1766.09 -1766.79 -3643.66 -3644.19 -3644.76 -5522.07 -5522.45 -5522.91);
    }
    outlet
    {
        type            calculated;
        value           nonuniform 0();
    }
    wall
    {
        type            calculated;
        value           nonuniform List<scalar> 
57
(
-6461.03
-6461.41
-6461.86
-6478.74
-6478.9
-6479.09
-6468.3
-6468.63
-6469
-6496.41
-6496.55
-6496.7
-6475.85
-6476.12
-6476.37
-6514.45
-6514.77
-6514.77
-6483.33
-6483.58
-6483.78
-6532.78
-6532.99
-6532.91
-6490.54
-6490.77
-6490.83
-1766.79
-3644.76
-5522.91
-1784.3
-3662.18
-5540.13
-1773.93
-3651.95
-5530.04
-1801.94
-3679.78
-5557.74
-1781.3
-3659.39
-5537.41
-1820.23
-3697.94
-5575.81
88.8348
-1788.81
-3666.79
-5544.82
38.9732
-1838.53
-3716.19
-5593.95
81.7649
-1795.93
-3673.96
-5551.87
)
;
    }
    procBoundary6to0
    {
        type            processor;
        value           uniform 82.0655;
    }
    procBoundary6to2
    {
        type            processor;
        value           nonuniform List<scalar> 
32
(
1959.86
1916.44
1959.93
1966.62
1916.42
1959.62
111.759
93.9888
104.512
76.0016
96.9659
57.8733
89.4363
39.7201
39.7201
39.7201
111.352
93.7137
104.149
75.7473
96.6497
57.5101
89.1559
89.1559
89.1559
110.709
93.3645
103.596
75.5196
96.1919
57.3295
57.3295
)
;
    }
    procBoundary6to4
    {
        type            processor;
        value           nonuniform List<scalar> 
27
(
-1765.72
-1783.49
-1772.95
-1801.31
-1780.62
-1819.36
-1788.38
-1837.5
-1795.98
-3643.61
-3661.53
-3650.94
-3679.32
-3658.67
-3697.67
-3666.36
-3716.2
-3673.77
-5521.89
-5539.78
-5529.29
-5557.48
-5536.99
-5575.84
-5544.67
-5594.12
-5551.87
)
;
    }
    procBoundary6to7
    {
        type            processor;
        value           nonuniform List<scalar> 
12
(
21.7848
20.4011
20.4574
-1855.56
-1856.82
-1857.02
-3733.8
-3734.69
-3734.55
-5611.82
-5612.43
-5612.26
)
;
    }
}


// ************************************************************************* //
