/*--------------------------------*- C++ -*----------------------------------*\
| =========                 |                                                 |
| \\      /  F ield         | OpenFOAM: The Open Source CFD Toolbox           |
|  \\    /   O peration     | Version:  4.x                                   |
|   \\  /    A nd           | Web:      www.OpenFOAM.org                      |
|    \\/     M anipulation  |                                                 |
\*---------------------------------------------------------------------------*/
FoamFile
{
    version     2.0;
    format      ascii;
    class       volScalarField;
    location    "30.5";
    object      QWallFluid;
}
// * * * * * * * * * * * * * * * * * * * * * * * * * * * * * * * * * * * * * //

dimensions      [1 -1 -3 0 0 0 0];

internalField   nonuniform List<scalar> 
87
(
0
0
0
8.66441e+08
4.77568e+08
8.80542e+08
0
0
0
0
0
0
0
0
0
0
0
0
0
0
0
0
0
0
8.26238e+08
4.12016e+08
8.3159e+08
4.23761e+08
8.30485e+08
4.15527e+08
8.34623e+08
4.106e+08
8.38378e+08
0
0
0
0
0
0
0
0
0
0
0
0
0
0
0
0
0
0
8.23165e+08
4.32663e+08
8.39748e+08
4.63265e+08
8.48213e+08
4.81062e+08
8.6032e+08
4.91887e+08
8.72576e+08
8.1435e+08
4.10452e+08
8.15267e+08
4.05094e+08
8.14191e+08
3.94368e+08
8.11752e+08
3.69729e+08
8.17256e+08
8.1964e+08
4.32428e+08
8.32693e+08
4.5839e+08
8.41746e+08
4.72534e+08
8.52396e+08
4.75127e+08
8.60484e+08
1.65382e+09
9.13424e+08
1.70885e+09
1.02971e+09
1.76656e+09
1.1122e+09
1.80965e+09
1.16601e+09
1.83181e+09
)
;

boundaryField
{
    inlet
    {
        type            calculated;
        value           uniform 0;
    }
    outlet
    {
        type            calculated;
        value           nonuniform 0();
    }
    wall
    {
        type            calculated;
        value           uniform 0;
    }
    procBoundary6to0
    {
        type            processor;
        value           uniform 0;
    }
    procBoundary6to2
    {
        type            processor;
        value           nonuniform List<scalar> 
32
(
0
0
0
8.78213e+08
4.88568e+08
8.96904e+08
0
0
0
0
0
0
0
0
0
0
0
0
0
0
0
0
0
0
0
8.26631e+08
4.19024e+08
8.38774e+08
4.42533e+08
8.51846e+08
4.62201e+08
4.62201e+08
)
;
    }
    procBoundary6to4
    {
        type            processor;
        value           nonuniform List<scalar> 
27
(
0
0
0
0
0
0
0
0
0
0
0
0
0
0
0
0
0
0
8.06139e+08
3.94493e+08
8.08514e+08
3.87079e+08
8.1255e+08
3.92339e+08
8.27656e+08
4.10085e+08
8.42568e+08
)
;
    }
    procBoundary6to7
    {
        type            processor;
        value           nonuniform List<scalar> 
12
(
0
0
4.75862e+08
0
0
3.83155e+08
0
0
4.98141e+08
3.32694e+08
4.67137e+08
1.1708e+09
)
;
    }
}


// ************************************************************************* //
