/*--------------------------------*- C++ -*----------------------------------*\
| =========                 |                                                 |
| \\      /  F ield         | OpenFOAM: The Open Source CFD Toolbox           |
|  \\    /   O peration     | Version:  4.x                                   |
|   \\  /    A nd           | Web:      www.OpenFOAM.org                      |
|    \\/     M anipulation  |                                                 |
\*---------------------------------------------------------------------------*/
FoamFile
{
    version     2.0;
    format      ascii;
    class       volScalarField;
    location    "30.5";
    object      SPartFluid;
}
// * * * * * * * * * * * * * * * * * * * * * * * * * * * * * * * * * * * * * //

dimensions      [1 -3 -1 0 0 0 0];

internalField   nonuniform List<scalar> 
87
(
6.74255e-65
6.04505e-65
7.13006e-65
5.11505e-65
5.81256e-65
4.96005e-65
1.03851e-64
7.5951e-65
4.96006e-65
7.44008e-65
9.37759e-65
6.12256e-65
7.36256e-65
6.51005e-65
8.52506e-65
5.81258e-65
7.9051e-65
6.43258e-65
8.8351e-65
7.05258e-65
7.82758e-65
7.05256e-65
8.60257e-65
7.59506e-65
4.96007e-65
7.20759e-65
5.42507e-65
6.12257e-65
7.59509e-65
8.75759e-65
6.51007e-65
6.66506e-65
7.51757e-65
7.6726e-65
7.6726e-65
7.75009e-65
7.67259e-65
5.34756e-65
7.05257e-65
6.27756e-65
5.89005e-65
7.90506e-65
5.65757e-65
7.28509e-65
6.82008e-65
6.89758e-65
5.96757e-65
5.58006e-65
7.75008e-65
5.73505e-65
7.75007e-65
5.19257e-65
6.74259e-65
5.58007e-65
7.59509e-65
7.28509e-65
5.96757e-65
6.66507e-65
5.96756e-65
5.65756e-65
5.03757e-65
5.27007e-65
6.12258e-65
6.89758e-65
6.51007e-65
6.43257e-65
8.68009e-65
8.75758e-65
3.79754e-65
6.04508e-65
5.50257e-65
6.82009e-65
5.65757e-65
8.6026e-65
6.35507e-65
6.20007e-65
5.58006e-65
7.82758e-65
4.41756e-65
6.27758e-65
6.12258e-65
6.43258e-65
4.96006e-65
8.21509e-65
4.80506e-65
5.19256e-65
6.04507e-65
)
;

boundaryField
{
    inlet
    {
        type            calculated;
        value           uniform 0;
    }
    outlet
    {
        type            calculated;
        value           nonuniform 0();
    }
    wall
    {
        type            calculated;
        value           uniform 0;
    }
    procBoundary6to0
    {
        type            processor;
        value           uniform 2.32501e-65;
    }
    procBoundary6to2
    {
        type            processor;
        value           nonuniform List<scalar> 
32
(
4.88254e-65
7.44007e-65
8.37007e-65
8.29259e-65
4.96005e-65
6.66506e-65
4.80506e-65
8.1376e-65
8.3701e-65
6.51007e-65
6.82007e-65
5.89005e-65
6.27755e-65
7.75006e-65
7.75006e-65
7.75006e-65
6.89759e-65
6.89759e-65
8.3701e-65
5.81257e-65
7.20758e-65
6.89757e-65
8.37008e-65
8.37008e-65
8.37008e-65
5.27007e-65
6.51008e-65
6.27758e-65
7.13008e-65
5.50256e-65
6.35507e-65
6.35507e-65
)
;
    }
    procBoundary6to4
    {
        type            processor;
        value           nonuniform List<scalar> 
27
(
4.34006e-65
5.73507e-65
7.59509e-65
5.19256e-65
7.36257e-65
6.35506e-65
9.22257e-65
5.96754e-65
5.96754e-65
6.66509e-65
7.20759e-65
5.96757e-65
8.5251e-65
8.44759e-65
6.74257e-65
9.61008e-65
7.90506e-65
6.82005e-65
7.4401e-65
7.05259e-65
5.81257e-65
7.67259e-65
6.97508e-65
9.22259e-65
4.49504e-65
4.88254e-65
6.35506e-65
)
;
    }
    procBoundary6to7
    {
        type            processor;
        value           nonuniform List<scalar> 
12
(
7.67255e-65
4.80503e-65
6.51006e-65
3.95252e-65
5.50254e-65
6.74256e-65
8.06006e-65
7.05256e-65
5.58005e-65
6.89756e-65
5.96756e-65
6.04506e-65
)
;
    }
}


// ************************************************************************* //
