/*--------------------------------*- C++ -*----------------------------------*\
| =========                 |                                                 |
| \\      /  F ield         | OpenFOAM: The Open Source CFD Toolbox           |
|  \\    /   O peration     | Version:  4.x                                   |
|   \\  /    A nd           | Web:      www.OpenFOAM.org                      |
|    \\/     M anipulation  |                                                 |
\*---------------------------------------------------------------------------*/
FoamFile
{
    version     2.0;
    format      ascii;
    class       volScalarField;
    location    "17.5";
    object      KslNext;
}
// * * * * * * * * * * * * * * * * * * * * * * * * * * * * * * * * * * * * * //

dimensions      [1 -3 -1 0 0 0 0];

internalField   nonuniform List<scalar> 
114
(
6142.06
3245.01
5447.92
3135.9
4900.13
2963.25
3503.42
7527.37
3410.7
6419.46
3321.44
5708.79
3184.98
5134.75
3013.78
3449.54
7226.49
3328.6
6014.85
3236.49
5356.09
3101.58
4777.88
2949.85
3378.83
6639.16
3193.12
5435.52
3046.15
4768.44
2874.87
4182.63
2713.85
10853.8
3828.75
12958.8
3809.25
3557.03
8796.11
3683.56
9480.01
3745.62
10222.5
3749.24
11932.9
3677.01
3522.38
8443.66
3633.05
8578.65
3633.99
8545.73
3613.13
9206.56
3606.66
3431.65
7247.25
3390.79
6395.03
3256.45
5773.68
3148.71
5362.84
3018.95
60906.7
4002.24
3602.76
9473.56
3804.34
11816.6
3896.51
15047
3939.34
23884.4
3918.03
3545.06
9114.54
3748.17
11033.2
3832.85
13589.2
3890.55
22055.6
3917.63
3456.18
7745.17
3478.39
7324
3397.32
6873.81
3385.31
6799.64
3309.61
3608.44
9759.94
3820.06
11970.1
3842.39
14473.7
3808.21
19698.7
3564.39
9117.2
3766.66
10622.9
3807.48
12290.4
3776.9
3439.69
7602.17
3475.26
7365.82
3426.94
7142.76
)
;

boundaryField
{
    inlet
    {
        type            zeroGradient;
    }
    outlet
    {
        type            zeroGradient;
    }
    wall
    {
        type            zeroGradient;
    }
    procBoundary2to0
    {
        type            processor;
        value           uniform 0;
    }
    procBoundary2to3
    {
        type            processor;
        value           uniform 0;
    }
    procBoundary2to6
    {
        type            processor;
        value           uniform 0;
    }
}


// ************************************************************************* //
