/*--------------------------------*- C++ -*----------------------------------*\
| =========                 |                                                 |
| \\      /  F ield         | OpenFOAM: The Open Source CFD Toolbox           |
|  \\    /   O peration     | Version:  4.x                                   |
|   \\  /    A nd           | Web:      www.OpenFOAM.org                      |
|    \\/     M anipulation  |                                                 |
\*---------------------------------------------------------------------------*/
FoamFile
{
    version     2.0;
    format      ascii;
    class       volScalarField;
    location    "17.5";
    object      p;
}
// * * * * * * * * * * * * * * * * * * * * * * * * * * * * * * * * * * * * * //

dimensions      [1 -1 -2 0 0 0 0];

internalField   nonuniform List<scalar> 
114
(
5708.71
5727.89
5691.05
5720.31
5672.78
5712.79
5742.38
5725.65
5735.18
5708.65
5727.82
5691.01
5720.35
5672.86
5712.89
5742.28
5725.72
5735.12
5708.62
5727.7
5691
5720.21
5672.95
5712.78
5741.95
5725.58
5734.88
5708.52
5727.51
5691.02
5720.07
5673.09
5712.66
3813.34
3843.07
3795.09
3835.61
3865.2
3848.2
3857.93
3830.97
3850.47
3813.26
3843.01
3794.95
3835.63
3865.16
3848.24
3857.85
3830.92
3850.35
3813.28
3842.91
3795.24
3835.59
3864.67
3848
3857.44
3830.77
3849.97
3813.18
3842.51
3795.15
3835.18
1918.2
1958.23
1988.3
1970.9
1980.97
1953.76
1973.37
1936.21
1965.77
1918.22
1958.25
1988.17
1971.01
1980.9
1953.7
1973.31
1936.13
1965.85
1918.19
1958.27
1987.65
1970.68
1980.34
1953.46
1972.78
1936.04
1965.25
1918.04
1957.89
110.856
93.3453
103.206
75.837
95.4467
58.095
87.801
40.1267
110.756
93.379
103.186
75.9611
95.4351
58.2946
87.7274
110.118
93.0388
102.666
75.7151
94.9705
58.0378
)
;

boundaryField
{
    inlet
    {
        type            calculated;
        value           nonuniform List<scalar> 
12
(
5742.38
5742.28
5741.95
3865.2
3865.16
3864.67
1988.3
1988.17
1987.65
110.856
110.756
110.118
)
;
    }
    outlet
    {
        type            calculated;
        value           nonuniform 0();
    }
    wall
    {
        type            calculated;
        value           nonuniform List<scalar> 
66
(
6681.34
6681.23
6680.9
6664.61
6664.67
6664.53
6674.13
6674.06
6673.82
6647.66
6647.6
6647.53
6647.45
6666.84
6666.77
6666.53
6666.42
6630
6629.98
6629.78
6629.96
6659.26
6659.34
6658.98
6659.04
6611.71
6611.84
6611.71
6612.06
6651.69
6651.82
6651.54
6651.61
5741.95
3864.67
1987.65
110.118
5725.58
3848
1970.68
93.0388
5734.88
3857.44
1980.34
102.666
5708.52
3830.77
1953.46
75.7151
5727.51
3849.97
1972.78
94.9705
5691.02
3813.18
1936.04
58.0378
5720.07
3842.51
1965.25
5673.09
3795.15
1918.04
5712.66
3835.18
1957.89
)
;
    }
    procBoundary2to0
    {
        type            processor;
        value           nonuniform List<scalar> 
44
(
5708.67
5728.04
5691.14
5720.44
5672.97
5712.96
5742.13
5725.59
5735.2
5735.2
3831.11
3850.71
3813.36
3843.1
3795.06
3835.83
3865.19
3848.08
3858.01
3831.11
3850.71
3850.71
1936.15
1965.9
1918.11
1958.27
1988.44
1971.02
1981.16
1953.85
1973.61
1936.15
1965.9
1965.9
40.8242
80.5428
110.974
93.5939
103.54
76.2074
95.7419
58.6711
87.9445
40.8242
)
;
    }
    procBoundary2to3
    {
        type            processor;
        value           nonuniform List<scalar> 
12
(
5654.47
5654.64
5654.7
5654.75
3776.96
3776.73
3777.09
3776.86
1900.44
1900.47
1900.17
1899.94
)
;
    }
    procBoundary2to6
    {
        type            processor;
        value           nonuniform List<scalar> 
32
(
80.2729
40.3285
80.2208
87.297
40.1063
79.8776
-1766.06
-1784.07
-1773.78
-1801.19
-1781.65
-1818.84
-1789.63
80.2729
40.3285
-1836.39
-1766.5
-1784.06
-1774.08
-1801.28
-1781.86
-1818.88
40.3285
87.297
-1789.53
-1767.15
-1784.38
-1774.59
-1801.46
-1782.23
87.297
-1819.1
)
;
    }
}


// ************************************************************************* //
