/*--------------------------------*- C++ -*----------------------------------*\
| =========                 |                                                 |
| \\      /  F ield         | OpenFOAM: The Open Source CFD Toolbox           |
|  \\    /   O peration     | Version:  4.x                                   |
|   \\  /    A nd           | Web:      www.OpenFOAM.org                      |
|    \\/     M anipulation  |                                                 |
\*---------------------------------------------------------------------------*/
FoamFile
{
    version     2.0;
    format      ascii;
    class       volScalarField;
    location    "17.5";
    object      particleRelTemp;
}
// * * * * * * * * * * * * * * * * * * * * * * * * * * * * * * * * * * * * * //

dimensions      [0 0 0 0 0 0 0];

internalField   nonuniform List<scalar> 
114
(
-3.12858e-08
3.46506e-09
7.18847e-08
9.41277e-08
1.30651e-07
1.32224e-07
-1.32531e-07
-1.0378e-07
-6.63307e-08
-1.75609e-08
3.48255e-08
8.03969e-08
1.05091e-07
1.25147e-07
1.23244e-07
-1.40041e-07
-1.12827e-07
-7.01298e-08
-2.83008e-08
2.37232e-08
6.09965e-08
8.6684e-08
1.10882e-07
9.77619e-08
-1.38569e-07
-1.21725e-07
-9.01413e-08
-4.99038e-08
-4.70952e-09
2.07038e-08
5.42218e-08
6.00681e-08
4.74442e-08
8.02919e-08
1.18513e-07
1.52454e-07
1.61728e-07
-1.34875e-07
-1.03586e-07
-5.73227e-08
-5.76345e-09
4.57979e-08
1.01694e-07
1.26451e-07
1.50248e-07
1.538e-07
-1.35154e-07
-1.05513e-07
-6.53607e-08
-1.4946e-08
3.12925e-08
7.18834e-08
1.03143e-07
1.23311e-07
1.23109e-07
-1.35481e-07
-1.10737e-07
-7.70475e-08
-3.64688e-08
3.28088e-09
4.31778e-08
6.57887e-08
8.45042e-08
7.32485e-08
1.68979e-07
1.79166e-07
-1.28995e-07
-1.00128e-07
-5.47726e-08
-3.66282e-09
5.41682e-08
1.04633e-07
1.33053e-07
1.58855e-07
1.61647e-07
-1.35506e-07
-1.04519e-07
-5.53305e-08
-1.33053e-08
4.09589e-08
8.24587e-08
1.1071e-07
1.22231e-07
1.20848e-07
-1.34806e-07
-1.08897e-07
-7.37686e-08
-2.53994e-08
4.68901e-09
4.90054e-08
7.66156e-08
9.34759e-08
8.98624e-08
-1.2968e-07
-9.65649e-08
-5.70781e-08
-1.6607e-08
3.48882e-08
7.59748e-08
1.19935e-07
1.31427e-07
-1.3587e-07
-1.03048e-07
-7.23185e-08
-2.48628e-08
2.24773e-08
6.83157e-08
7.96193e-08
-1.38681e-07
-1.11145e-07
-7.53615e-08
-4.28157e-08
-2.56255e-09
3.17237e-08
)
;

boundaryField
{
    inlet
    {
        type            calculated;
        value           nonuniform List<scalar> 
12
(
-1.32531e-07
-1.40041e-07
-1.38569e-07
-1.34875e-07
-1.35154e-07
-1.35481e-07
-1.28995e-07
-1.35506e-07
-1.34806e-07
-1.2968e-07
-1.3587e-07
-1.38681e-07
)
;
    }
    outlet
    {
        type            calculated;
        value           nonuniform 0();
    }
    wall
    {
        type            calculated;
        value           nonuniform List<scalar> 
66
(
-1.32531e-07
-1.40041e-07
-1.38569e-07
-1.0378e-07
-1.12827e-07
-1.21725e-07
-6.63307e-08
-7.01298e-08
-9.01413e-08
-3.12858e-08
-1.75609e-08
-2.83008e-08
-4.99038e-08
3.46506e-09
3.48255e-08
2.37232e-08
-4.70952e-09
7.18847e-08
8.03969e-08
6.09965e-08
2.07038e-08
9.41277e-08
1.05091e-07
8.6684e-08
5.42218e-08
1.30651e-07
1.25147e-07
1.10882e-07
6.00681e-08
1.32224e-07
1.23244e-07
9.77619e-08
4.74442e-08
-1.38569e-07
-1.35481e-07
-1.34806e-07
-1.38681e-07
-1.21725e-07
-1.10737e-07
-1.08897e-07
-1.11145e-07
-9.01413e-08
-7.70475e-08
-7.37686e-08
-7.53615e-08
-4.99038e-08
-3.64688e-08
-2.53994e-08
-4.28157e-08
-4.70952e-09
3.28088e-09
4.68901e-09
-2.56255e-09
2.07038e-08
4.31778e-08
4.90054e-08
3.17237e-08
5.42218e-08
6.57887e-08
7.66156e-08
6.00681e-08
8.45042e-08
9.34759e-08
4.74442e-08
7.32485e-08
8.98624e-08
)
;
    }
    procBoundary2to0
    {
        type            processor;
        value           nonuniform List<scalar> 
44
(
-4.01886e-08
-6.37675e-09
3.10166e-08
6.69047e-08
1.04398e-07
1.15513e-07
-1.4022e-07
-1.03751e-07
-8.57003e-08
-8.57003e-08
2.15128e-10
4.37605e-08
4.43334e-08
9.46334e-08
1.29366e-07
1.53042e-07
-1.28556e-07
-9.39285e-08
-5.27074e-08
2.15128e-10
4.37605e-08
4.37605e-08
8.49952e-08
1.42286e-07
1.49532e-07
1.62311e-07
-1.28366e-07
-8.97261e-08
-4.84626e-08
-3.65726e-09
4.91252e-08
8.49952e-08
1.42286e-07
1.42286e-07
1.46952e-07
1.76863e-07
-1.30715e-07
-1.01976e-07
-6.55954e-08
-1.18375e-08
2.76008e-08
7.90881e-08
1.28308e-07
1.46952e-07
)
;
    }
    procBoundary2to3
    {
        type            processor;
        value           nonuniform List<scalar> 
12
(
1.35436e-07
1.16671e-07
7.0483e-08
2.77978e-08
1.59562e-07
1.43749e-07
1.01059e-07
6.27996e-08
1.78382e-07
1.61094e-07
1.12723e-07
7.60016e-08
)
;
    }
    procBoundary2to6
    {
        type            processor;
        value           nonuniform List<scalar> 
32
(
1.43522e-07
8.51146e-08
1.02473e-07
4.85393e-08
7.34657e-08
5.76115e-08
-1.3083e-07
-1.06347e-07
-7.05356e-08
-2.98888e-08
1.57394e-08
4.30101e-08
6.99863e-08
1.43522e-07
8.51146e-08
8.2022e-08
-1.32164e-07
-1.13665e-07
-8.33719e-08
-4.46924e-08
-8.16933e-09
2.34293e-08
8.51146e-08
4.85393e-08
4.66043e-08
-1.38462e-07
-1.16986e-07
-9.28971e-08
-5.08931e-08
-2.98257e-08
4.85393e-08
3.09533e-09
)
;
    }
}


// ************************************************************************* //
