/*--------------------------------*- C++ -*----------------------------------*\
| =========                 |                                                 |
| \\      /  F ield         | OpenFOAM: The Open Source CFD Toolbox           |
|  \\    /   O peration     | Version:  4.x                                   |
|   \\  /    A nd           | Web:      www.OpenFOAM.org                      |
|    \\/     M anipulation  |                                                 |
\*---------------------------------------------------------------------------*/
FoamFile
{
    version     2.0;
    format      ascii;
    class       volScalarField;
    location    "17.5";
    object      QPartFluid;
}
// * * * * * * * * * * * * * * * * * * * * * * * * * * * * * * * * * * * * * //

dimensions      [1 -1 -3 0 0 0 0];

internalField   nonuniform List<scalar> 
114
(
7.17611e+09
5.58083e+09
3.0889e+09
5.9927e+09
2.83803e+09
3.04383e+09
5.7892e+09
6.95889e+09
6.11633e+09
4.44132e+09
7.37639e+09
5.09129e+09
7.10274e+09
6.95164e+09
4.54611e+09
3.85376e+09
6.18442e+09
5.07993e+09
5.4206e+09
5.7936e+09
5.28549e+09
6.80927e+09
5.51923e+09
6.55419e+09
3.96135e+09
4.00324e+09
5.11855e+09
4.51717e+09
3.92453e+09
4.04953e+09
3.04576e+09
5.32207e+09
3.95555e+09
9.96914e+09
1.22745e+10
6.67387e+09
1.12091e+10
4.71338e+09
7.99103e+09
9.61262e+09
9.32322e+09
8.95074e+09
7.26623e+09
1.13327e+10
8.96722e+09
6.4874e+09
5.83009e+09
1.00649e+10
1.06362e+10
9.25382e+09
9.45798e+09
8.97123e+09
9.21201e+09
9.04274e+09
7.73661e+09
5.04225e+09
5.40329e+09
8.31312e+09
6.02787e+09
7.56212e+09
6.55153e+09
6.70156e+09
7.12655e+09
4.79834e+09
7.91678e+09
9.21227e+09
6.84605e+09
5.78567e+09
6.77506e+09
6.92477e+09
6.82846e+09
7.95345e+09
9.9589e+09
7.36867e+09
5.7781e+09
4.96844e+09
7.001e+09
9.07987e+09
1.05942e+10
9.21133e+09
7.16688e+09
9.49965e+09
8.55607e+09
1.02128e+10
4.98109e+09
7.62638e+09
6.9467e+09
7.52189e+09
4.77213e+09
6.85326e+09
9.65672e+09
5.38109e+09
7.68909e+09
4.88429e+09
9.57233e+09
1.03561e+10
7.44367e+09
8.34263e+09
6.49653e+09
7.67591e+09
7.97294e+09
5.85611e+09
7.96238e+09
1.05083e+10
6.67379e+09
9.10963e+09
7.75989e+09
1.02971e+10
4.23969e+09
6.32951e+09
7.47571e+09
7.25541e+09
6.70961e+09
6.47114e+09
)
;

boundaryField
{
    inlet
    {
        type            calculated;
        value           uniform 0;
    }
    outlet
    {
        type            calculated;
        value           nonuniform 0();
    }
    wall
    {
        type            calculated;
        value           uniform 0;
    }
    procBoundary2to0
    {
        type            processor;
        value           nonuniform List<scalar> 
44
(
5.09137e+09
5.55831e+09
4.92135e+09
4.00903e+09
5.22839e+09
8.53078e+09
2.95439e+09
4.54427e+09
3.50016e+09
3.50016e+09
5.56034e+09
1.1354e+10
7.73691e+09
1.05508e+10
7.01473e+09
6.33438e+09
7.93064e+09
7.08375e+09
7.77754e+09
5.56034e+09
1.1354e+10
1.1354e+10
8.10341e+09
8.70557e+09
6.3491e+09
5.36775e+09
6.88062e+09
8.71696e+09
9.55523e+09
9.07407e+09
9.98823e+09
8.10341e+09
8.70557e+09
8.70557e+09
5.70645e+09
2.62928e+09
4.82286e+09
6.79236e+09
9.68757e+09
1.05794e+10
5.54034e+09
1.00734e+10
8.60075e+09
5.70645e+09
)
;
    }
    procBoundary2to3
    {
        type            processor;
        value           nonuniform List<scalar> 
12
(
8.60326e+09
6.5085e+09
6.71329e+09
4.34925e+09
8.55297e+09
7.83822e+09
1.28279e+10
8.4469e+09
8.11532e+09
9.68052e+09
6.03631e+09
8.75153e+09
)
;
    }
    procBoundary2to6
    {
        type            processor;
        value           nonuniform List<scalar> 
32
(
8.18373e+09
6.74181e+09
8.87761e+09
5.64342e+09
6.17591e+09
5.56084e+09
9.94593e+09
8.99963e+09
6.10295e+09
8.15613e+09
1.11821e+10
6.25327e+09
8.76929e+09
8.18373e+09
6.74181e+09
6.70854e+09
6.27857e+09
9.26932e+09
8.15435e+09
1.0302e+10
8.83859e+09
8.86199e+09
6.74181e+09
5.64342e+09
8.73018e+09
4.65132e+09
7.60737e+09
5.92653e+09
6.13608e+09
8.63366e+09
5.64342e+09
9.4062e+09
)
;
    }
}


// ************************************************************************* //
