/*--------------------------------*- C++ -*----------------------------------*\
| =========                 |                                                 |
| \\      /  F ield         | OpenFOAM: The Open Source CFD Toolbox           |
|  \\    /   O peration     | Version:  4.x                                   |
|   \\  /    A nd           | Web:      www.OpenFOAM.org                      |
|    \\/     M anipulation  |                                                 |
\*---------------------------------------------------------------------------*/
FoamFile
{
    version     2.0;
    format      ascii;
    class       volScalarField;
    location    "17.5";
    object      Sm;
}
// * * * * * * * * * * * * * * * * * * * * * * * * * * * * * * * * * * * * * //

dimensions      [1 -3 -1 0 0 0 0];

internalField   nonuniform List<scalar> 
114
(
6.50948e-65
4.88201e-65
2.55704e-65
4.88165e-65
2.24702e-65
2.63444e-65
5.73499e-65
6.50985e-65
5.11475e-65
3.79713e-65
6.19919e-65
4.4167e-65
5.88886e-65
6.1212e-65
3.95174e-65
4.03002e-65
5.6574e-65
4.57226e-65
4.95956e-65
4.49446e-65
4.57178e-65
5.34657e-65
4.41663e-65
5.26903e-65
4.41753e-65
4.26247e-65
4.64987e-65
4.57222e-65
3.33225e-65
3.79707e-65
2.71217e-65
4.80433e-65
3.09962e-65
8.44595e-65
9.76294e-65
5.73363e-65
9.22021e-65
5.42498e-65
6.81982e-65
7.67197e-65
7.82663e-65
6.97392e-65
6.27623e-65
8.98801e-65
7.59316e-65
5.19128e-65
6.04501e-65
8.6023e-65
8.29205e-65
7.59425e-65
7.43896e-65
7.28374e-65
7.05107e-65
7.43839e-65
5.96622e-65
5.89002e-65
5.19241e-65
6.97468e-65
5.81203e-65
6.89674e-65
5.88914e-65
5.88905e-65
6.50885e-65
4.26182e-65
7.59306e-65
8.13539e-65
7.28497e-65
4.95986e-65
5.50211e-65
6.04432e-65
5.5791e-65
7.12856e-65
8.36815e-65
6.58587e-65
4.88125e-65
5.34749e-65
6.04486e-65
7.12954e-65
9.06659e-65
7.28392e-65
6.43132e-65
7.51595e-65
7.43839e-65
8.36818e-65
5.3475e-65
7.51736e-65
6.04475e-65
6.97439e-65
4.64954e-65
6.50906e-65
8.29114e-65
4.95907e-65
6.66382e-65
4.80497e-65
8.13726e-65
8.36948e-65
6.58686e-65
6.81905e-65
5.88895e-65
6.27617e-65
7.74827e-65
6.89751e-65
6.89733e-65
8.36959e-65
5.812e-65
7.20657e-65
6.89631e-65
8.36847e-65
5.27001e-65
6.50989e-65
6.27723e-65
7.12948e-65
5.50194e-65
6.35415e-65
)
;

boundaryField
{
    inlet
    {
        type            calculated;
        value           uniform 0;
    }
    outlet
    {
        type            calculated;
        value           nonuniform 0();
    }
    wall
    {
        type            calculated;
        value           uniform 0;
    }
    procBoundary2to0
    {
        type            processor;
        value           nonuniform List<scalar> 
44
(
4.72714e-65
4.26208e-65
4.33945e-65
3.25447e-65
4.49418e-65
6.89618e-65
2.86751e-65
4.4174e-65
3.25489e-65
3.25489e-65
4.72695e-65
8.98867e-65
6.58652e-65
8.29093e-65
6.04371e-65
4.95884e-65
8.05996e-65
6.12233e-65
6.1221e-65
4.72695e-65
8.98867e-65
8.98867e-65
7.1287e-65
7.12836e-65
6.1985e-65
4.57136e-65
7.28497e-65
7.59473e-65
7.67195e-65
8.13661e-65
8.21373e-65
7.1287e-65
7.12836e-65
7.12836e-65
5.42375e-65
2.32436e-65
5.26999e-65
5.88984e-65
7.82705e-65
9.2216e-65
4.49441e-65
9.14338e-65
7.12847e-65
5.42375e-65
)
;
    }
    procBoundary2to3
    {
        type            processor;
        value           nonuniform List<scalar> 
12
(
6.97351e-65
5.19146e-65
5.50158e-65
4.64946e-65
7.51566e-65
6.66345e-65
1.0383e-64
7.74873e-65
7.6705e-65
9.06526e-65
5.11398e-65
8.52356e-65
)
;
    }
    procBoundary2to6
    {
        type            processor;
        value           nonuniform List<scalar> 
32
(
6.74097e-65
6.04389e-65
7.12861e-65
5.11431e-65
5.81157e-65
4.95926e-65
1.0385e-64
7.59485e-65
4.95978e-65
7.43938e-65
9.37637e-65
6.12161e-65
7.3613e-65
6.74097e-65
6.04389e-65
6.50882e-65
5.81249e-65
7.90488e-65
6.43223e-65
8.83435e-65
7.05178e-65
7.82649e-65
6.04389e-65
5.11431e-65
7.05148e-65
4.96002e-65
7.20741e-65
5.42486e-65
6.12212e-65
7.59443e-65
5.11431e-65
8.75655e-65
)
;
    }
}


// ************************************************************************* //
