/*--------------------------------*- C++ -*----------------------------------*\
| =========                 |                                                 |
| \\      /  F ield         | OpenFOAM: The Open Source CFD Toolbox           |
|  \\    /   O peration     | Version:  4.x                                   |
|   \\  /    A nd           | Web:      www.OpenFOAM.org                      |
|    \\/     M anipulation  |                                                 |
\*---------------------------------------------------------------------------*/
FoamFile
{
    version     2.0;
    format      ascii;
    class       volVectorField;
    location    "17.5";
    object      U;
}
// * * * * * * * * * * * * * * * * * * * * * * * * * * * * * * * * * * * * * //

dimensions      [0 1 -1 0 0 0 0];

internalField   nonuniform List<vector> 
114
(
(0.0173437 -0.000104722 -0.00072655)
(0.0333508 -1.61329e-05 -0.00138433)
(0.0198835 -8.40571e-05 -0.000716905)
(0.035009 -0.0001595 -0.00130295)
(0.0221492 -8.62887e-05 -0.00067657)
(0.0367133 -9.99063e-05 -0.000975042)
(0.0291269 7.46476e-05 -0.00111525)
(0.0137324 4.02442e-05 -0.000658116)
(0.0309148 0.000260361 -0.00124134)
(0.0165865 0.000156995 -0.000563253)
(0.0326834 0.000279364 -0.00105352)
(0.0189997 7.94876e-05 -0.000555826)
(0.0345466 7.56474e-05 -0.0012088)
(0.0212837 -0.000215007 -0.000462669)
(0.0361726 -0.000202612 -0.000880695)
(0.0292235 0.000706947 -0.00119873)
(0.0141657 0.00029593 -0.000676784)
(0.0313664 0.000562001 -0.00120797)
(0.0175431 0.000281088 -0.000512632)
(0.0332422 0.000529657 -0.000833601)
(0.0200999 0.000174349 -0.000389554)
(0.0352269 0.000485215 -0.000991351)
(0.0228094 -3.88495e-05 -0.000456522)
(0.0370882 0.000287049 -0.000852576)
(0.0293492 0.00053453 -0.000975437)
(0.0150914 0.000289159 -0.000567478)
(0.0321344 0.0004397 -0.000911723)
(0.0190057 0.000234107 -0.00040862)
(0.0344123 0.000336471 -0.000676693)
(0.0220625 8.47456e-05 -0.000390157)
(0.0368577 0.000244154 -0.000872934)
(0.0255114 -1.49307e-05 -0.000457934)
(0.039496 0.000177462 -0.000831536)
(0.0101987 -3.62029e-05 -0.00104835)
(0.0293495 -0.000113136 -0.00218459)
(0.00845723 7.25735e-06 -0.000817836)
(0.0290525 0.00016213 -0.00110779)
(0.0289435 0.000300931 -0.00241628)
(0.0119367 5.13706e-05 -0.00129411)
(0.0293576 0.000355674 -0.00265083)
(0.0114701 0.000207548 -0.00116299)
(0.029533 0.000482414 -0.00226677)
(0.010742 7.55725e-05 -0.00111623)
(0.0298752 0.00013137 -0.00214521)
(0.00921338 -9.18041e-05 -0.000927652)
(0.0299146 -0.000127071 -0.00119518)
(0.0290078 0.000840843 -0.00237862)
(0.0123668 0.00038067 -0.00135831)
(0.0296766 0.000835989 -0.00265743)
(0.0125999 0.000329089 -0.00120886)
(0.0301654 0.00077468 -0.00220096)
(0.0128068 0.000205167 -0.00113654)
(0.0306695 0.000773087 -0.00234297)
(0.0119278 9.15624e-06 -0.00105346)
(0.0305785 0.000625682 -0.0013083)
(0.0291607 0.000748819 -0.00215407)
(0.0140309 0.000407569 -0.00131963)
(0.0309832 0.000724162 -0.00227183)
(0.0164203 0.000343398 -0.0012912)
(0.0326159 0.000655512 -0.00200864)
(0.0184629 0.000303073 -0.00151583)
(0.0341652 0.000719664 -0.00223987)
(0.0199947 0.000358768 -0.0016156)
(0.0355306 0.000726783 -0.0020067)
(0.00177009 -2.34028e-05 -0.000175375)
(0.0270756 -1.13348e-05 -5.77454e-06)
(0.028899 0.000554262 -0.00197167)
(0.0111305 0.000193909 -0.00104322)
(0.0284554 0.000498489 -0.00188667)
(0.00918857 0.000168187 -0.000698095)
(0.0281789 0.000403531 -0.00139495)
(0.00726009 3.63502e-05 -0.000481335)
(0.0280408 -4.20412e-05 -0.000950339)
(0.0045383 -1.39788e-05 -0.000304862)
(0.0276443 2.27944e-05 0.000181037)
(0.0289622 0.000990516 -0.00194621)
(0.0114748 0.000397767 -0.00108067)
(0.0288346 0.00100003 -0.00198017)
(0.00982174 0.000350852 -0.000860843)
(0.0285496 0.000868741 -0.00156858)
(0.00797435 0.000186786 -0.000668168)
(0.0283063 0.000772182 -0.00110269)
(0.00491888 0.000113714 -0.000336538)
(0.0278768 0.000521881 -4.54413e-05)
(0.0291954 0.000785207 -0.00179011)
(0.0132401 0.000461225 -0.00111698)
(0.0302609 0.000937957 -0.00192464)
(0.0144201 0.000439391 -0.00112702)
(0.031157 0.000899673 -0.00168233)
(0.0154737 0.000318783 -0.00108282)
(0.0318711 0.00101216 -0.0013571)
(0.0156456 0.00043324 -0.00102116)
(0.0323542 0.000635878 -0.00088003)
(0.0288754 0.000452769 -0.00185657)
(0.0108971 0.000286367 -0.000902965)
(0.028496 0.000620557 -0.00180659)
(0.00902035 0.000238118 -0.00078837)
(0.0283835 0.000448557 -0.00143461)
(0.00743478 0.000223833 -0.000551126)
(0.0285001 0.000298465 -0.000571007)
(0.00539729 0.000200253 -0.000401)
(0.0288819 0.00105085 -0.00153471)
(0.0115145 0.00045049 -0.000839442)
(0.0287064 0.000889405 -0.00146689)
(0.0101014 0.00022214 -0.00078992)
(0.0285757 0.00067861 -0.00118688)
(0.00873882 0.000109553 -0.000633494)
(0.0287307 0.000801099 -0.000702827)
(0.0292497 0.000929755 -0.00145089)
(0.0134585 0.000505666 -0.000975248)
(0.030285 0.000885926 -0.00166903)
(0.0142628 0.000418281 -0.00117909)
(0.0310248 0.000751464 -0.00165329)
(0.0147597 0.000395389 -0.00102272)
)
;

boundaryField
{
    inlet
    {
        type            fixedValue;
        value           uniform (0.01 0 0);
    }
    outlet
    {
        type            zeroGradient;
    }
    wall
    {
        type            fixedValue;
        value           uniform (0 0 0);
    }
    procBoundary2to0
    {
        type            processor;
        value           nonuniform List<vector> 
44
(
(0.0168972 -0.000492681 -0.000630954)
(0.0331008 -0.000595804 -0.00108059)
(0.0189802 -0.000369344 -0.000529534)
(0.0344996 -0.000561665 -0.00107785)
(0.0209061 -0.000363701 -0.000353959)
(0.0357664 -0.000592281 -0.000963412)
(0.0293692 -0.000414064 -0.00145866)
(0.014156 -0.00013282 -0.000717735)
(0.0314562 -0.000149932 -0.00137892)
(0.0314562 -0.000149932 -0.00137892)
(0.0114094 -5.25241e-05 -0.00126951)
(0.0293944 -7.34298e-06 -0.00256674)
(0.0104058 -0.000252484 -0.000926924)
(0.0297574 -0.000703209 -0.00199147)
(0.00864123 -0.000265617 -0.000642026)
(0.0294762 -0.000795174 -0.00099721)
(0.0288661 -0.000232916 -0.00282992)
(0.0117974 -0.000128754 -0.00147983)
(0.0292205 -0.00016776 -0.00294568)
(0.0114094 -5.25241e-05 -0.00126951)
(0.0293944 -7.34298e-06 -0.00256674)
(0.0293944 -7.34298e-06 -0.00256674)
(0.00439435 -7.71463e-05 -0.000455231)
(0.0271759 -1.36838e-05 -0.000875301)
(0.00220346 -0.000104586 -0.000126989)
(0.0273124 -0.000521192 0.000446905)
(0.0287271 -0.000127153 -0.00206697)
(0.0102284 -4.26374e-05 -0.0011985)
(0.027992 -3.36926e-05 -0.00220105)
(0.00728004 -2.98544e-05 -0.000714885)
(0.0274754 1.64422e-05 -0.00145571)
(0.00439435 -7.71463e-05 -0.000455231)
(0.0271759 -1.36838e-05 -0.000875301)
(0.0271759 -1.36838e-05 -0.000875301)
(0.00455603 1.36653e-05 -0.000353845)
(0.0272546 7.79234e-05 -0.000238414)
(0.0288408 -0.000283638 -0.00139741)
(0.0107261 -5.79534e-05 -0.000907411)
(0.0281965 -4.94451e-05 -0.00146963)
(0.0080941 4.91539e-05 -0.000678397)
(0.0277362 -1.02325e-05 -0.001091)
(0.00615616 3.37417e-05 -0.000538626)
(0.0276463 -0.000246711 -0.000590247)
(0.00455603 1.36653e-05 -0.000353845)
)
;
    }
    procBoundary2to3
    {
        type            processor;
        value           nonuniform List<vector> 
12
(
(0.0236849 -0.000141932 -0.000328026)
(0.0225523 -0.000328007 2.90094e-05)
(0.0242851 2.23623e-05 -0.000262982)
(0.0284459 7.40048e-05 -0.000319241)
(0.00638412 7.81006e-05 -0.000423579)
(0.0072133 -9.93411e-05 -0.000500152)
(0.00990261 2.8685e-05 -0.000490045)
(0.021075 0.000514855 -0.00144702)
(-4.29786e-07 3.88771e-08 -5.72225e-08)
(0.0019396 3.12524e-05 -4.29394e-05)
(0.00265952 0.000121602 -4.90004e-05)
(0.0152655 0.000379544 -0.000703425)
)
;
    }
    procBoundary2to6
    {
        type            processor;
        value           nonuniform List<vector> 
32
(
(0.0286214 0.000389856 0.000411057)
(0.00732924 9.70075e-05 -0.000553172)
(0.0289129 0.000534337 -0.000160632)
(0.0317144 0.000786147 -0.00112761)
(0.0153036 0.000420233 -0.00115427)
(0.0325666 0.000718983 -0.000816403)
(0.0287938 0.000410188 -0.000937938)
(0.00957769 0.000270956 -0.000453924)
(0.0273396 0.000510229 -0.00102674)
(0.00554436 0.000129393 -0.000387191)
(0.0267251 0.000344916 -0.000758936)
(0.0019759 4.49557e-05 -0.000170772)
(0.0262046 2.06734e-05 -0.000300006)
(0.0286214 0.000389856 0.000411057)
(0.00732924 9.70075e-05 -0.000553172)
(-2.26437e-07 -4.50526e-08 -3.53825e-08)
(0.0289112 0.0014246 -0.000730732)
(0.0109116 0.000490012 -0.000478054)
(0.0282904 0.00127099 -0.000915474)
(0.00870377 0.000337832 -0.000527104)
(0.0279076 0.000877808 -0.000751762)
(0.00674387 0.000207877 -0.000449308)
(0.00732924 9.70075e-05 -0.000553172)
(0.0317144 0.000786147 -0.00112761)
(0.0275158 0.000646589 -0.000576424)
(0.0293545 0.000910789 -0.000778199)
(0.0131136 0.000462918 -0.000583163)
(0.0298609 0.00084603 -0.00102943)
(0.0131736 0.000328831 -0.000832689)
(0.0300706 0.000595628 -0.00105737)
(0.0317144 0.000786147 -0.00112761)
(0.0124746 0.000282218 -0.00084786)
)
;
    }
}


// ************************************************************************* //
