/*--------------------------------*- C++ -*----------------------------------*\
| =========                 |                                                 |
| \\      /  F ield         | OpenFOAM: The Open Source CFD Toolbox           |
|  \\    /   O peration     | Version:  4.x                                   |
|   \\  /    A nd           | Web:      www.OpenFOAM.org                      |
|    \\/     M anipulation  |                                                 |
\*---------------------------------------------------------------------------*/
FoamFile
{
    version     2.0;
    format      ascii;
    class       volVectorField;
    location    "17.5";
    object      Urel;
}
// * * * * * * * * * * * * * * * * * * * * * * * * * * * * * * * * * * * * * //

dimensions      [0 1 -1 0 0 0 0];

internalField   nonuniform List<vector> 
114
(
(-0.0221132 8.70677e-05 0.00109677)
(-0.0234998 7.7644e-05 0.00106105)
(-0.0226485 7.95135e-05 0.000933596)
(-0.024006 0.000140685 0.000867189)
(-0.0231834 0.000128304 0.000649534)
(-0.0244195 0.000133039 0.000466583)
(-0.0235295 -7.12571e-05 0.0012647)
(-0.0219051 -7.03782e-05 0.00118396)
(-0.0230796 -9.12527e-05 0.00118308)
(-0.0221515 -8.41826e-05 0.00106931)
(-0.0235559 -0.000100286 0.00104268)
(-0.0227941 -9.15081e-05 0.000942477)
(-0.0241443 -1.57321e-05 0.000870228)
(-0.0233275 8.30757e-06 0.000649358)
(-0.0245657 2.12e-05 0.000466659)
(-0.0236194 -0.000255724 0.00123197)
(-0.0220459 -0.000220318 0.0011532)
(-0.02327 -0.000224811 0.00114843)
(-0.0224224 -0.000200463 0.00103634)
(-0.0238576 -0.000219282 0.00102953)
(-0.0232612 -0.000199578 0.000965392)
(-0.024627 -0.000178574 0.000877332)
(-0.0239715 -0.000126706 0.000676415)
(-0.025214 -0.000134567 0.00049942)
(-0.0237259 -0.000315451 0.00119089)
(-0.0222292 -0.000281039 0.00112052)
(-0.0235048 -0.000272521 0.00110485)
(-0.0227362 -0.000247307 0.00101128)
(-0.0242279 -0.000246524 0.00100231)
(-0.023727 -0.000214421 0.000953391)
(-0.0251838 -0.000230832 0.000878612)
(-0.0247068 -0.000189424 0.000702103)
(-0.0260221 -0.000203107 0.0005409)
(-0.0210343 8.19105e-05 0.000951687)
(-0.0223755 0.000125668 0.000887749)
(-0.0209161 0.000108522 0.000619211)
(-0.0223185 0.000103785 0.000412897)
(-0.0232925 -0.000110973 0.00138737)
(-0.0214896 -9.5277e-05 0.00127144)
(-0.0224967 -0.000116954 0.00130344)
(-0.0212047 -0.000104549 0.00114096)
(-0.0225044 -0.000110126 0.00112134)
(-0.021281 -8.52902e-05 0.000975581)
(-0.0226108 -4.2463e-05 0.000887945)
(-0.0212138 -2.30575e-05 0.000637519)
(-0.0226011 -1.61824e-05 0.000430413)
(-0.0234087 -0.000296935 0.00134979)
(-0.0216741 -0.000255406 0.00124607)
(-0.022748 -0.000269215 0.00127769)
(-0.0215819 -0.000230388 0.00112851)
(-0.0229393 -0.000242874 0.00112516)
(-0.0218856 -0.000208389 0.0010204)
(-0.0232068 -0.000216649 0.000925298)
(-0.0220172 -0.000161754 0.000694514)
(-0.0233541 -0.000186855 0.000494958)
(-0.0235384 -0.000360517 0.00131169)
(-0.0219272 -0.000319986 0.00122145)
(-0.02307 -0.000322241 0.0012419)
(-0.0220999 -0.0002816 0.00112469)
(-0.0234882 -0.000288992 0.0011256)
(-0.022682 -0.000256128 0.001057)
(-0.0240224 -0.00028748 0.000965653)
(-0.0231752 -0.0002474 0.000776952)
(-0.024472 -0.00027049 0.000598972)
(-0.0189936 9.81393e-05 0.000426796)
(-0.0205823 0.000102635 0.000227292)
(-0.0230287 -0.000154495 0.00128543)
(-0.0210671 -0.000128393 0.00117617)
(-0.0218948 -0.000144093 0.00118798)
(-0.0203022 -0.000113924 0.0010219)
(-0.0214772 -0.000111252 0.000969348)
(-0.0199147 -8.22292e-05 0.000800845)
(-0.0212065 -6.65356e-05 0.000666744)
(-0.0194704 -5.08139e-05 0.000455976)
(-0.0209222 -4.58611e-05 0.00022889)
(-0.0231682 -0.000345355 0.00126145)
(-0.0212903 -0.000292709 0.00116488)
(-0.0221932 -0.000308961 0.00118694)
(-0.0207315 -0.000253907 0.00104421)
(-0.0219532 -0.000260316 0.00100543)
(-0.0205184 -0.000214765 0.000863073)
(-0.0218082 -0.0002387 0.000723023)
(-0.0202256 -0.000188668 0.000525735)
(-0.0216693 -0.00021062 0.000313225)
(-0.0233267 -0.000403449 0.00123593)
(-0.021585 -0.000360224 0.00115682)
(-0.0225762 -0.000368425 0.00118499)
(-0.0213577 -0.000317768 0.00107172)
(-0.0226028 -0.000326318 0.00104692)
(-0.0214831 -0.000285251 0.000929492)
(-0.0227145 -0.000335678 0.000797329)
(-0.0215592 -0.000286435 0.000631458)
(-0.0228364 -0.000304179 0.000440389)
(-0.0228412 -0.000163916 0.00107511)
(-0.0207926 -0.000144728 0.00098107)
(-0.0215241 -0.000155694 0.000999712)
(-0.0197766 -0.000115188 0.000860737)
(-0.0208691 -0.000103551 0.000808524)
(-0.019156 -8.24014e-05 0.000632795)
(-0.0204313 -7.75613e-05 0.000470614)
(-0.0186258 -7.42143e-05 0.000309128)
(-0.0229946 -0.000378752 0.00104758)
(-0.0210438 -0.000318179 0.000971526)
(-0.0218379 -0.00032028 0.000990635)
(-0.02024 -0.0002523 0.000878774)
(-0.0213498 -0.00024702 0.000821765)
(-0.0197911 -0.000209147 0.0006817)
(-0.0210457 -0.000248242 0.000531007)
(-0.0231781 -0.000444174 0.00103548)
(-0.0213732 -0.000388976 0.000979778)
(-0.022252 -0.000385328 0.00101275)
(-0.0208764 -0.000324191 0.000927191)
(-0.022001 -0.000317164 0.00088972)
(-0.0206892 -0.000289913 0.00075503)
)
;

boundaryField
{
    inlet
    {
        type            calculated;
        value           nonuniform List<vector> 
12
(
(-0.00999982 -8.33197e-08 -7.19974e-08)
(-0.0100002 1.07939e-07 -3.61274e-08)
(-0.00999969 7.20523e-08 1.06945e-07)
(-0.01 -2.49859e-08 3.07373e-08)
(-0.0100002 5.96487e-08 1.47312e-07)
(-0.0100001 2.59086e-08 1.46456e-07)
(-0.01 -1.13804e-07 4.47046e-08)
(-0.01 3.3202e-08 1.21651e-07)
(-0.01 -1.62797e-09 1.4011e-07)
(-0.0100001 -9.88193e-08 5.99445e-08)
(-0.01 -6.04844e-08 6.8628e-08)
(-0.01 -5.17636e-09 1.3288e-07)
)
;
    }
    outlet
    {
        type            calculated;
        value           nonuniform 0();
    }
    wall
    {
        type            calculated;
        value           nonuniform List<vector> 
66
(
(1.76722e-07 -8.33197e-08 -7.19974e-08)
(-1.88893e-07 1.07939e-07 -3.61274e-08)
(3.10782e-07 7.20523e-08 1.06945e-07)
(-5.11281e-07 1.58935e-07 -1.60089e-07)
(-4.76901e-07 7.85613e-08 6.6155e-08)
(-2.31369e-07 1.28583e-07 1.02106e-07)
(-7.34217e-07 1.42366e-07 -1.20368e-07)
(-1.4119e-06 9.77159e-07 9.62714e-07)
(-5.13081e-07 5.64734e-08 2.81838e-07)
(-9.45433e-07 -4.15521e-08 -2.73838e-07)
(-8.71995e-07 6.68724e-08 -1.19958e-07)
(-1.89453e-06 1.97219e-06 2.31353e-07)
(-4.71467e-07 1.81206e-07 1.7556e-07)
(-1.36887e-06 -1.48646e-07 -2.68777e-07)
(-1.06155e-06 -4.39293e-08 -1.71879e-08)
(-1.34603e-06 2.66576e-07 2.72829e-08)
(-1.45673e-06 5.94367e-07 4.40669e-07)
(-2.1549e-06 -1.14355e-07 1.12736e-08)
(-2.028e-06 6.07776e-08 5.28725e-07)
(-2.05505e-06 1.4165e-06 4.05753e-07)
(-2.72408e-06 9.66106e-07 8.19483e-07)
(-2.30131e-06 6.19587e-08 -3.17818e-08)
(-2.74971e-06 2.25908e-07 1.63191e-06)
(1.13707e-05 2.21577e-06 1.87166e-05)
(-2.71804e-06 3.74732e-06 2.31914e-06)
(-2.55028e-06 2.45071e-07 1.53375e-07)
(-2.69499e-06 -1.81607e-07 1.46987e-06)
(-3.6939e-06 1.05576e-06 1.70987e-06)
(-3.24173e-06 5.60529e-06 2.99415e-06)
(-3.06443e-06 1.16015e-06 4.8038e-07)
(-3.4244e-06 1.24644e-06 1.0574e-06)
(-3.84261e-06 1.21508e-06 1.78695e-06)
(-2.29147e-06 1.5846e-06 2.30528e-06)
(3.10782e-07 7.20523e-08 1.06945e-07)
(-5.35275e-08 2.59086e-08 1.46456e-07)
(1.02532e-09 -1.62797e-09 1.4011e-07)
(-4.109e-08 -5.17636e-09 1.3288e-07)
(-2.31369e-07 1.28583e-07 1.02106e-07)
(-2.22439e-07 6.41573e-08 1.39767e-07)
(-7.83641e-08 3.12924e-08 7.48469e-08)
(-1.59491e-07 4.54075e-08 8.70285e-08)
(-5.13081e-07 5.64734e-08 2.81838e-07)
(-5.3429e-07 3.33907e-08 3.07506e-08)
(-3.22025e-07 1.89411e-08 9.12396e-08)
(-3.80092e-07 -7.64908e-08 6.34704e-08)
(-4.71467e-07 1.81206e-07 1.7556e-07)
(-8.83297e-07 -1.71721e-08 1.97638e-07)
(-7.71584e-07 -3.41726e-08 1.01539e-07)
(-4.54544e-07 -1.00696e-08 1.85288e-09)
(-1.45673e-06 5.94367e-07 4.40669e-07)
(-1.2932e-06 1.59662e-07 7.10261e-07)
(-1.10804e-06 4.89006e-08 4.08004e-07)
(-8.65371e-07 2.19202e-09 1.39831e-07)
(-2.72408e-06 9.66106e-07 8.19483e-07)
(-1.8281e-06 5.286e-07 5.73825e-07)
(-1.42569e-06 2.40952e-08 4.46586e-07)
(-1.18193e-06 8.51951e-09 2.57442e-07)
(-2.71804e-06 3.74732e-06 2.31914e-06)
(-1.95126e-06 1.13679e-06 1.07977e-06)
(-1.81534e-06 2.22943e-07 5.43625e-07)
(-3.24173e-06 5.60529e-06 2.99415e-06)
(-1.00981e-06 7.36925e-07 1.66201e-06)
(-2.2239e-06 6.93012e-07 1.49671e-06)
(-2.29147e-06 1.5846e-06 2.30528e-06)
(3.98099e-06 -8.90119e-08 9.65188e-06)
(-1.21696e-06 -4.76593e-06 1.00014e-05)
)
;
    }
    procBoundary2to0
    {
        type            processor;
        value           nonuniform List<vector> 
44
(
(-0.0222188 0.000277705 0.00109932)
(-0.0236437 0.000285998 0.00104601)
(-0.0227969 0.000255104 0.000912515)
(-0.0242253 0.00029132 0.000850223)
(-0.0234202 0.000263873 0.000631646)
(-0.0247054 0.000285386 0.000475251)
(-0.0235329 0.000143255 0.00131811)
(-0.0219028 0.000114006 0.0012171)
(-0.0230688 9.70725e-05 0.00121602)
(-0.0230688 9.70725e-05 0.00121602)
(-0.021071 7.74522e-05 0.00115663)
(-0.0223456 7.73933e-05 0.00112871)
(-0.0212214 0.000254753 0.000931102)
(-0.0226292 0.000311459 0.000874569)
(-0.0212081 0.000265987 0.000605527)
(-0.0226581 0.000295191 0.000411264)
(-0.0232559 0.000120533 0.00143791)
(-0.0214247 0.000101757 0.00130524)
(-0.0224116 8.72792e-05 0.00133526)
(-0.021071 7.74522e-05 0.00115663)
(-0.0223456 7.73933e-05 0.00112871)
(-0.0223456 7.73933e-05 0.00112871)
(-0.0195367 8.53331e-05 0.000768327)
(-0.0208929 0.000100469 0.000637525)
(-0.0193254 0.000257294 0.000432175)
(-0.0209544 0.000273063 0.000228272)
(-0.0229647 0.000105629 0.00130208)
(-0.0209468 8.98378e-05 0.00119374)
(-0.0217538 7.78429e-05 0.00120375)
(-0.0200599 7.46553e-05 0.00101612)
(-0.0212399 7.92904e-05 0.000948975)
(-0.0195367 8.53331e-05 0.000768327)
(-0.0208929 0.000100469 0.000637525)
(-0.0208929 0.000100469 0.000637525)
(-0.0183908 8.20752e-05 0.000293954)
(-0.0198565 6.25717e-05 0.000139595)
(-0.0227941 0.000119295 0.00105045)
(-0.0207125 9.53895e-05 0.000972501)
(-0.0214136 8.45484e-05 0.000973308)
(-0.0195998 8.04904e-05 0.000828719)
(-0.0206875 9.32851e-05 0.000747637)
(-0.018926 8.92625e-05 0.000591443)
(-0.0202217 0.000108175 0.000432072)
(-0.0183908 8.20752e-05 0.000293954)
)
;
    }
    procBoundary2to3
    {
        type            processor;
        value           nonuniform List<vector> 
12
(
(-0.023418 9.29101e-05 0.000194401)
(-0.0235748 -1.97751e-06 0.000183206)
(-0.0243668 -0.000137765 0.00023783)
(-0.025404 -0.000210319 0.000301708)
(-0.0207038 6.83575e-05 0.000164012)
(-0.0210374 -3.59439e-05 0.000183432)
(-0.0219966 -0.000167677 0.000250329)
(-0.0235332 -0.000263185 0.000375337)
(-0.0186439 6.74019e-05 6.20917e-05)
(-0.0190846 -5.80942e-05 7.6869e-05)
(-0.0199933 -0.000185256 0.000148747)
(-0.0216485 -0.000282948 0.000271448)
)
;
    }
    procBoundary2to6
    {
        type            processor;
        value           nonuniform List<vector> 
32
(
(-0.0201274 -9.26358e-05 0.000100443)
(-0.0194247 -0.000196907 0.000392086)
(-0.0208653 -0.000218824 0.000206802)
(-0.0218973 -0.000335032 0.000617951)
(-0.0206319 -0.000295176 0.000499565)
(-0.0219339 -0.000313829 0.000332469)
(-0.0227432 -0.000170389 0.000728397)
(-0.0205949 -0.000148466 0.000680814)
(-0.0212512 -0.00015158 0.000698729)
(-0.0193288 -0.000103188 0.000597671)
(-0.0204055 -8.60034e-05 0.000530731)
(-0.0184493 -6.24854e-05 0.000396873)
(-0.0198245 -6.32649e-05 0.000268824)
(-0.0201274 -9.26358e-05 0.000100443)
(-0.0194247 -0.000196907 0.000392086)
(-0.0178755 -6.425e-05 0.000154213)
(-0.0229174 -0.000419237 0.000715465)
(-0.0208964 -0.000340649 0.000684495)
(-0.0216328 -0.00034988 0.000705903)
(-0.0199149 -0.000265681 0.000629154)
(-0.0209916 -0.000264661 0.000571345)
(-0.0193109 -0.000215398 0.000463198)
(-0.0194247 -0.000196907 0.000392086)
(-0.0218973 -0.000335032 0.000617951)
(-0.0205618 -0.000240803 0.000337407)
(-0.023116 -0.000463993 0.000718886)
(-0.0212508 -0.000401477 0.000697551)
(-0.022066 -0.000392364 0.000724927)
(-0.0205758 -0.00032026 0.000670842)
(-0.0216377 -0.000302454 0.000627174)
(-0.0218973 -0.000335032 0.000617951)
(-0.0201841 -0.000279821 0.000531256)
)
;
    }
}


// ************************************************************************* //
