/*--------------------------------*- C++ -*----------------------------------*\
  =========                 |
  \\      /  F ield         | OpenFOAM: The Open Source CFD Toolbox
   \\    /   O peration     | Website:  https://openfoam.org
    \\  /    A nd           | Version:  4.x
     \\/     M anipulation  |
\*---------------------------------------------------------------------------*/
FoamFile
{
    version     2.0;
    format      ascii;
    class       Cloud<passiveParticle>;
    location    0;
    object      positions;
}
// * * * * * * * * * * * * * * * * * * * * * * * * * * * * * * * * * * * * * //

354
(
( 0.0732929 -0.0588268 -0.0633244 ) 41
( 0.0861722 -0.0205688 -0.0290916 ) 83
( 0.0503235 -0.0383992 -0.0671323 ) 49
( 0.177382 -0.0799139 -0.0518205 ) 36
( 0.0524718 -0.0752119 -0.0489203 ) 31
( 0.193171 -0.0267728 -0.0537225 ) 54
( 0.145498 -0.0832372 -0.0260706 ) 67
( 0.055383 -0.0674032 -0.0309965 ) 72
( 0.0535901 -0.0265353 -0.0263404 ) 81
( 0.00980278 -0.0395135 -0.0345281 ) 80
( 0.217901 -0.0898377 -0.0609898 ) 37
( 0.203377 -0.0500977 -0.0423863 ) 78
( 0.212214 -0.0255618 -0.0484035 ) 55
( 0.0790858 -0.021078 -0.0557606 ) 50
( 0.176591 -0.0714662 -0.0698383 ) 36
( 0.18653 -0.0423464 -0.0351011 ) 86
( 0.194418 -0.0148343 -0.069615 ) 54
( 0.109314 -0.0279731 -0.058245 ) 51
( 0.226259 -0.0496444 -0.0706118 ) 47
( 0.242095 -0.0204956 -0.0591537 ) 56
( 0.242328 -0.0704501 -0.0256125 ) 79
( 0.0743876 -0.0366969 -0.0288992 ) 82
( 0.1376 -0.0447401 -0.0393865 ) 75
( 0.204634 -0.0531163 -0.063732 ) 46
( 0.095852 -0.0517488 -0.0334586 ) 74
( 0.0620364 -0.0407992 -0.0437037 ) 50
( 0.215708 -0.0645817 -0.0517973 ) 46
( 0.0273237 -0.0143237 -0.0498393 ) 48
( 0.0793044 -0.0730211 -0.0508179 ) 32
( 0.204975 -0.0731004 -0.0374858 ) 69
( 0.119625 -0.0384684 -0.0448846 ) 52
( 0.233006 -0.0560344 -0.047416 ) 47
( 0.0266369 -0.0169415 -0.0301813 ) 80
( 0.13887 -0.0575374 -0.024463 ) 75
( 0.0279072 -0.0766028 -0.0367195 ) 63
( 0.141328 -0.0201885 -0.0702715 ) 53
( 0.0385018 -0.0747629 -0.0629292 ) 31
( 0.108052 -0.0802823 -0.0393553 ) 65
( 0.0731508 -0.0766525 -0.0323953 ) 64
( 0.110947 -0.0786667 -0.0197804 ) 65
( 0.135571 -0.045667 -0.0683684 ) 43
( 0.149567 -0.0492118 -0.0545941 ) 44
( 0.240349 -0.0356219 -0.0718407 ) 26
( 0.171341 -0.0274983 -0.0687172 ) 54
( 0.127284 -0.0901786 -0.0207507 ) 66
( 0.233814 -0.0753173 -0.0528021 ) 38
( 0.0366014 -0.0625999 -0.0474345 ) 40
( 0.172373 -0.0571677 -0.0515005 ) 45
( 0.107486 -0.0761519 -0.0662841 ) 33
( 0.0938612 -0.0217308 -0.0689896 ) 51
( 0.138416 -0.0878476 -0.0550209 ) 34
( 0.18816 -0.0628487 -0.0405062 ) 77
( 0.1334 -0.0181812 -0.0413302 ) 84
( 0.0836844 -0.0382965 -0.0646894 ) 51
( 0.112762 -0.0200525 -0.0403853 ) 84
( 0.0986472 -0.0584892 -0.0672211 ) 42
( 0.15067 -0.011068 -0.0348584 ) 94
( 0.0402077 -0.0265683 -0.0410768 ) 81
( 0.0666926 -0.0217913 -0.0404431 ) 82
( 0.0341388 -0.0348081 -0.0242935 ) 81
( 0.148881 -0.0793805 -0.0695764 ) 35
( 0.0114906 -0.0272458 -0.0627476 ) 48
( 0.0977645 -0.0660716 -0.0487382 ) 42
( 0.128952 -0.0733256 -0.0308445 ) 66
( 0.00965428 -0.00689257 -0.0306538 ) 89
( 0.239909 -0.0432288 -0.0282052 ) 79
( 0.150125 -0.0625035 -0.0398059 ) 76
( 0.166911 -0.070922 -0.0333696 ) 77
( 0.20045 -0.08608 -0.0517471 ) 37
( 0.160924 -0.0281166 -0.0351342 ) 85
( 0.189415 -0.0353251 -0.0713335 ) 54
( 0.121435 -0.00645081 -0.0519814 ) 61
( 0.187629 -0.0824383 -0.0351711 ) 68
( 0.0275306 -0.0474419 -0.0382116 ) 71
( 0.0538752 -0.058048 -0.0590543 ) 40
( 0.0304839 -0.0900505 -0.0511724 ) 31
( 0.082456 -0.0437111 -0.0456392 ) 41
( 0.157674 -0.0252487 -0.0544942 ) 53
( 0.139049 -0.0319511 -0.0544332 ) 53
( 0.0841972 -0.0901765 -0.0421093 ) 65
( 0.0328905 -0.030777 -0.0595028 ) 49
( 0.049946 -0.0088936 -0.0361485 ) 90
( 0.0910999 -0.0365002 -0.0182395 ) 83
( 0.0186082 -0.00910287 -0.0668529 ) 57
( 0.0704371 -0.0585785 -0.0403782 ) 73
( 0.0534915 -0.0228715 -0.0551973 ) 49
( 0.175064 -0.0327071 -0.0482053 ) 54
( 0.00991262 -0.0641533 -0.0350974 ) 71
( 0.00990166 -0.08021 -0.0232351 ) 62
( 0.20055 -0.0502874 -0.0227483 ) 78
( 0.1238 -0.0552538 -0.0556232 ) 43
( 0.187211 -0.0901116 -0.0659098 ) 36
( 0.237307 -0.0901023 -0.0656808 ) 38
( 0.115027 -0.0617184 -0.0390502 ) 75
( 0.0655103 -0.0145739 -0.0687657 ) 50
( 0.00990416 -0.0628813 -0.0617896 ) 39
( 0.0978527 -0.032912 -0.0391488 ) 83
( 0.225114 -0.0730013 -0.03514 ) 70
( 0.177448 -0.0566165 -0.0249965 ) 77
( 0.224525 -0.0262177 -0.0329667 ) 88
( 0.208254 -0.0308504 -0.0670674 ) 55
( 0.0436 -0.0794367 -0.0203006 ) 63
( 0.216823 -0.0900772 -0.0411422 ) 69
( 0.243308 -0.0902254 -0.0437195 ) 38
( 0.0262361 -0.0614511 -0.0240977 ) 71
( 0.0969784 -0.0142337 -0.050811 ) 60
( 0.209679 -0.0732712 -0.0685507 ) 37
( 0.126595 -0.0684002 -0.0707216 ) 43
( 0.196655 -0.0903006 -0.019455 ) 69
( 0.169743 -0.0902717 -0.031128 ) 68
( 0.154465 -0.0877182 -0.0434238 ) 35
( 0.180079 -0.0233697 -0.0294706 ) 86
( 0.192918 -0.0687947 -0.058804 ) 45
( 0.0797246 -0.0548054 -0.022443 ) 73
( 0.234132 -0.0679193 -0.0712166 ) 47
( 0.121778 -0.0747697 -0.0525185 ) 34
( 0.188417 -0.046095 -0.0546497 ) 45
( 0.235629 -0.0359553 -0.0462559 ) 56
( 0.163386 -0.0481156 -0.0363398 ) 76
( 0.0584447 -0.0900855 -0.0631437 ) 32
( 0.216457 -0.0900087 -0.0213613 ) 69
( 0.121546 -0.0901225 -0.0651889 ) 34
( 0.150254 -0.0400049 -0.0233596 ) 85
( 0.0435218 -0.0442173 -0.0494091 ) 40
( 0.00990041 -0.0219006 -0.0436827 ) 48
( 0.161549 -0.0575053 -0.068118 ) 44
( 0.121774 -0.0168361 -0.068985 ) 52
( 0.12464 -0.0296588 -0.0278717 ) 84
( 0.103234 -0.0472087 -0.051676 ) 42
( 0.203617 -0.0329976 -0.0322394 ) 87
( 0.0446838 -0.0900405 -0.0371168 ) 63
( 0.114615 -0.043823 -0.0690313 ) 43
( 0.010025 -0.0448424 -0.0535397 ) 39
( 0.0965557 -0.0902432 -0.0267838 ) 65
( 0.027954 -0.0500728 -0.0603007 ) 40
( 0.0782655 -0.0900492 -0.0610813 ) 32
( 0.0624115 -0.0055878 -0.0512935 ) 59
( 0.0645233 -0.0902045 -0.0442232 ) 32
( 0.119693 -0.0595178 -0.019952 ) 75
( 0.00971387 -0.0236643 -0.0203596 ) 80
( 0.118049 -0.00259171 -0.0328383 ) 93
( 0.0111376 -0.0824389 -0.058484 ) 30
( 0.220304 -0.0496588 -0.032094 ) 78
( 0.00986285 -0.00303335 -0.0500938 ) 57
( 0.131004 -0.0422077 0.00674337 ) 118
( 0.110831 -0.0514225 -0.00407825 ) 108
( 0.126493 -0.0173068 0.00200046 ) 118
( 0.170666 -0.0738351 0.0015396 ) 102
( 0.0585681 -0.0722924 0.000503352 ) 98
( 0.0398602 -0.00712492 -0.0191571 ) 90
( 0.226176 -0.0427508 -0.00190709 ) 122
( 0.134121 -0.0624225 0.00508744 ) 109
( 0.0217157 -0.0120757 0.005026 ) 123
( 0.208389 -0.0191138 -0.0169244 ) 87
( 0.125018 0.00569407 0.00180031 ) 127
( 0.190896 -0.0340447 -0.0167217 ) 86
( 0.0608414 -0.0107853 -0.0063862 ) 125
( 0.0199385 -0.0337145 0.00795211 ) 114
( 0.160093 -0.004043 -0.0129093 ) 128
( 0.0828348 -0.00875668 0.00346259 ) 125
( 0.122507 -0.0127725 -0.0166673 ) 93
( 0.0561923 -0.0564938 0.0138379 ) 107
( 0.11076 -0.035765 0.00805261 ) 117
( 0.163396 -0.0375592 0.0137178 ) 119
( 0.239725 -0.0567064 0.000888516 ) 113
( 0.0910763 -0.0432704 0.000401484 ) 108
( 0.206536 -0.0618541 0.0115041 ) 112
( 0.206041 -0.0496857 -0.00380604 ) 112
( 0.143348 -0.00871239 -0.00351584 ) 128
( 0.150952 -0.07393 0.00329727 ) 101
( 0.162123 -0.0901805 0.00872911 ) 101
( 0.186529 -0.0488558 0.0119101 ) 111
( 0.228436 -0.0763614 0.00989603 ) 104
( 0.0354077 -0.0823337 -0.00152991 ) 97
( 0.235198 -0.0353272 0.0137188 ) 122
( 0.177084 -0.0174401 -0.0101163 ) 120
( 0.0382314 -0.0335958 0.000360794 ) 115
( 0.219512 -0.0644219 -0.00283053 ) 112
( 0.0563635 -0.020876 0.00994552 ) 116
( 0.221871 -0.0902059 -0.00238416 ) 103
( 0.0261589 -0.0647079 -0.00193297 ) 105
( 0.214788 -0.0378745 -0.0169682 ) 87
( 0.0961823 -0.0239836 0.00128952 ) 117
( 0.169221 -0.0182421 0.00813918 ) 120
( 0.101201 -0.0713972 0.00561586 ) 108
( 0.150395 -0.0516175 0.00829688 ) 110
( 0.05631 -0.030653 -0.00717966 ) 116
( 0.238823 -0.0749593 -0.00672829 ) 104
( 0.158535 -0.0399079 -0.00524728 ) 119
( 0.078976 -0.090215 -0.0177801 ) 64
( 0.213507 -0.0130408 0.00132517 ) 130
( 0.0715153 -0.0901437 0.000500004 ) 98
( 0.193787 -0.0129675 -0.000552104 ) 129
( 0.118322 -0.0309243 -0.00935738 ) 118
( 0.206356 -0.0784909 -0.00705477 ) 103
( 0.179529 -0.0809955 -0.0151442 ) 68
( 0.0951268 -0.090092 0.0123977 ) 99
( 0.0741223 -0.0715307 -0.0133788 ) 98
( 0.149261 -0.090254 -0.00779046 ) 101
( 0.118305 -0.090209 -0.00304235 ) 100
( 0.169481 -0.0540672 0.00338797 ) 111
( 0.0150949 -0.0902342 -0.00693113 ) 96
( 0.00983187 -0.0843228 0.0111191 ) 96
( 0.191239 -0.0682723 0.000649035 ) 111
( 0.184198 -0.0318185 0.00183458 ) 120
( 0.247571 -0.0414181 -0.0090461 ) 122
( 0.139361 -0.0238306 -0.0158682 ) 85
( 0.00988305 -0.0510379 0.00242648 ) 105
( 0.110066 -0.00689561 -0.00229338 ) 126
( 0.134778 -0.0900496 0.00825523 ) 100
( 0.0656651 -0.00338604 0.0118971 ) 125
( 0.0529594 -0.0901674 -0.00640067 ) 97
( 0.0710585 -0.0490248 0.00300677 ) 107
( 0.042321 -0.0707043 0.0130193 ) 106
( 0.0181388 -0.00451489 -0.0129099 ) 123
( 0.230757 -0.0562209 -0.016629 ) 79
( 0.0745915 -0.028839 0.00459762 ) 116
( 0.185778 -0.0511371 -0.00780444 ) 111
( 0.203828 -0.0302003 -0.00111756 ) 121
( 0.160438 -0.0758158 -0.0153134 ) 67
( 0.133754 -0.0426338 -0.0127241 ) 118
( 0.0414523 -0.0134458 -0.000484697 ) 124
( 0.181778 -0.0902907 0.00202597 ) 102
( 0.182214 0.0089834 -0.0387482 ) 95
( 0.0878664 0.0117693 -0.0413043 ) 92
( 0.135661 0.0142266 -0.0561578 ) 61
( 0.0586729 0.00900461 -0.0244298 ) 91
( 0.00978995 0.011751 -0.0205204 ) 89
( 0.0782406 0.00488495 -0.0572109 ) 59
( 0.124192 0.0038026 -0.0687471 ) 61
( 0.148243 0.0133887 -0.03108 ) 94
( 0.0433299 0.0103508 -0.0368272 ) 90
( 0.113668 0.0111018 -0.0463 ) 61
( 0.054993 0.0121196 -0.0563045 ) 58
( 0.105575 -0.000596648 -0.0623933 ) 60
( 0.177234 0.0018603 -0.00489723 ) 129
( 0.0109947 0.0100984 -0.000695195 ) 123
( 0.0870149 0.0111191 -0.00727371 ) 126
( 0.0435735 0.0110133 -0.0117237 ) 124
( 0.209695 0.00578039 -0.00265809 ) 130
( 0.0630812 0.00875193 -0.00500486 ) 125
( 0.100262 0.00415759 0.0121176 ) 126
( 0.146183 0.00883063 0.00514107 ) 128
( 0.107814 0.0126895 -0.00533133 ) 126
( 0.153332 0.0142662 -0.0120852 ) 128
( 0.166186 0.00118856 0.0115639 ) 128
( 0.0330864 0.00398479 0.00353262 ) 124
( 0.139986 -0.0676839 -0.0559934 ) 44
( 0.0666391 -0.0090428 -0.025361 ) 91
( 0.00997895 -0.0901603 -0.0403197 ) 62
( 0.0479277 -0.0486705 -0.0281598 ) 72
( 0.079031 -0.00608888 -0.0406129 ) 91
( 0.08227 -0.0656337 0.00350305 ) 107
( 0.0098765 0.00867175 -0.066204 ) 57
( 0.235327 0.00625305 -0.0137082 ) 131
( 0.153962 -0.0372708 -0.0698868 ) 53
( 0.163304 -0.0902086 -0.0611595 ) 35
( 0.0436109 -0.00573385 -0.0574049 ) 58
( 0.125182 -0.0902164 -0.0405286 ) 66
( 0.024426 0.0053738 -0.0342542 ) 89
( 0.0931743 -0.0710109 -0.0300137 ) 74
( 0.0736848 -0.0236136 -0.0141443 ) 116
( 0.105738 0.0116303 -0.0265051 ) 92
( 0.0275068 0.00521241 -0.0537721 ) 57
( 0.0492323 -0.0617643 -0.0131654 ) 106
( 0.249191 -0.047425 -0.0551398 ) 47
( 0.0973779 -0.00481672 -0.033337 ) 92
( 0.0997269 -0.0901043 -0.0544735 ) 33
( 0.15039 -0.0251292 0.0049067 ) 119
( 0.173866 -0.00468685 -0.0269571 ) 95
( 0.218668 -0.0436823 -0.0532439 ) 46
( 0.192554 0.00532144 0.0072312 ) 129
( 0.231676 -0.0204269 0.00178667 ) 122
( 0.135742 0.00155685 -0.0408107 ) 93
( 0.0973982 -0.0636055 -0.0121535 ) 108
( 0.0603445 -0.0897979 -0.0247805 ) 64
( 0.213116 -0.0655594 -0.0212869 ) 78
( 0.191921 -0.00846714 -0.0199305 ) 95
( 0.151844 -0.0589217 -0.00984167 ) 110
( 0.0785979 0.00673009 -0.0245861 ) 91
( 0.0271015 -0.0902284 -0.0226146 ) 62
( 0.193097 -0.0685221 -0.0221413 ) 77
( 0.126744 0.0130591 -0.0244555 ) 93
( 0.10948 -0.0428132 -0.0222816 ) 83
( 0.103487 -0.020906 -0.0177737 ) 83
( 0.159184 -0.0233717 -0.0160115 ) 85
( 0.159469 -0.0718971 -0.0544999 ) 35
( 0.00983155 -0.0632454 -0.0131001 ) 105
( 0.0629149 -0.0475455 -0.015073 ) 73
( 0.0270494 -0.0220879 -0.0110306 ) 114
( 0.170764 -0.0386473 -0.0206097 ) 86
( 0.139389 -0.00183402 -0.0215415 ) 94
( 0.23654 -0.0901192 -0.0193372 ) 70
( 0.118514 -0.0704443 -0.00357777 ) 109
( 0.0897645 -0.00689066 -0.0150526 ) 92
( 0.232848 -0.0298248 -0.0154692 ) 88
( 0.0343397 -0.0492154 -0.0109007 ) 106
( 0.0106589 -0.0426957 -0.0151886 ) 80
( 0.136556 -0.075038 -0.0102306 ) 100
( 0.193498 0.00993346 -0.0128241 ) 129
( 0.0988793 -0.0892079 -0.00707856 ) 99
( 0.037574 -0.0518939 0.00857636 ) 106
( 0.144176 -0.061487 -0.0768912 ) 14
( 0.173384 -0.0449995 -0.0780547 ) 15
( 0.085945 -0.073639 -0.0694745 ) 33
( 0.00991504 -0.0445302 -0.0734207 ) 9
( 0.0408277 -0.058556 -0.0740737 ) 10
( 0.0559979 -0.0726424 -0.072375 ) 2
( 0.0674219 -0.0441229 -0.0754496 ) 11
( 0.0422367 -0.090173 -0.0747618 ) 1
( 0.205354 -0.0901697 -0.0779856 ) 7
( 0.244672 -0.0533427 -0.0797294 ) 17
( 0.224815 -0.0236653 -0.0754415 ) 26
( 0.0775383 -0.0263729 -0.0794288 ) 20
( 0.223921 -0.0831553 -0.078805 ) 8
( 0.0215797 -0.0742302 -0.0732893 ) 0
( 0.085494 -0.050936 -0.0800089 ) 12
( 0.109226 -0.0280018 -0.0798973 ) 21
( 0.209965 -0.0449045 -0.0810964 ) 16
( 0.192483 -0.0612401 -0.0772263 ) 15
( 0.172183 -0.0899023 -0.0789574 ) 6
( 0.128754 -0.0315724 -0.0806359 ) 22
( 0.0433377 -0.0193014 -0.0719557 ) 19
( 0.134371 -0.0878852 -0.0802288 ) 4
( 0.0334734 -0.040404 -0.0775045 ) 19
( 0.112544 -0.059282 -0.0814404 ) 13
( 0.0701564 -0.0897737 -0.0792861 ) 2
( 0.0221066 -0.0241928 -0.0793184 ) 18
( 0.0960049 -0.0901311 -0.0744139 ) 3
( 0.188969 -0.079979 -0.0829994 ) 6
( 0.161384 -0.0711128 -0.0826895 ) 14
( 0.206518 -0.020974 -0.0842777 ) 25
( 0.159398 -0.0247908 -0.0844508 ) 23
( 0.0722714 -0.0660912 -0.0818786 ) 11
( 0.0229257 -0.0565744 -0.0824843 ) 9
( 0.0579226 -0.0279726 -0.0823384 ) 20
( 0.0343778 0.000879736 -0.0737342 ) 28
( 0.0545683 -0.00841454 -0.0842833 ) 28
( 0.218793 -0.0632231 -0.0831266 ) 16
( 0.113524 -0.0855009 -0.0828367 ) 4
( 0.144425 -0.0437853 -0.0861249 ) 14
( 0.242051 -0.0208265 -0.0850913 ) 26
( 0.00995826 -0.0900457 -0.0768382 ) 0
( 0.0949554 -0.0674404 -0.086117 ) 12
( 0.228444 -0.0391962 -0.0874461 ) 26
( 0.0616422 0.00985019 -0.0877985 ) 29
( 0.0371758 -0.0743087 -0.0857309 ) 1
( 0.153456 -0.0900593 -0.085734 ) 5
( 0.0507062 -0.0461644 -0.0860759 ) 10
( 0.00989688 -0.00186646 -0.0831789 ) 27
( 0.191461 -0.0449318 -0.0886633 ) 15
( 0.0351006 -0.012285 -0.0886954 ) 28
( 0.00990416 -0.0702182 -0.0888849 ) 9
( 0.0928714 -0.0347564 -0.0890366 ) 21
)
