/*--------------------------------*- C++ -*----------------------------------*\
  =========                 |
  \\      /  F ield         | OpenFOAM: The Open Source CFD Toolbox
   \\    /   O peration     | Website:  https://openfoam.org
    \\  /    A nd           | Version:  4.x
     \\/     M anipulation  |
\*---------------------------------------------------------------------------*/
FoamFile
{
    version     2.0;
    format      ascii;
    class       vectorField;
    location    0;
    object      v;
}
// * * * * * * * * * * * * * * * * * * * * * * * * * * * * * * * * * * * * * //

348
(
( -5.21409e-08 3.31344e-09 -1.92709e-09 )  
( -5.27202e-08 2.6312e-09 -1.85861e-09 )  
( -5.09866e-08 2.42293e-09 -3.00052e-09 )  
( -3.11508e-08 8.6238e-09 -1.02503e-08 )  
( -3.60421e-08 7.5615e-09 -1.6221e-09 )  
( -2.17789e-08 5.9704e-09 -3.10175e-09 )  
( -2.07043e-08 9.00029e-09 -1.86433e-08 )  
( -6.03212e-09 -1.25413e-09 -1.43514e-09 )  
( -3.74151e-08 4.74604e-09 5.01804e-09 )  
( -1.75245e-08 8.96747e-10 -3.67795e-09 )  
( -2.34298e-08 4.55288e-10 2.18278e-09 )  
( -1.01649e-08 3.48144e-09 -3.40396e-09 )  
( -1.81524e-08 4.72818e-09 1.74331e-09 )  
( -2.968e-08 -1.55185e-09 3.39411e-10 )  
( -2.44954e-08 9.88085e-10 -1.76306e-09 )  
( -6.27499e-08 1.12221e-08 -6.48088e-09 )  
( -4.00386e-08 1.24201e-08 6.59672e-09 )  
( -3.77318e-08 9.74572e-09 -3.24862e-09 )  
( -5.79712e-08 9.46334e-09 -3.99731e-09 )  
( -5.23445e-08 9.94863e-09 -1.40053e-10 )  
( -3.51273e-08 7.6644e-09 2.64839e-09 )  
( -5.78779e-08 9.70819e-09 -3.57018e-09 )  
( -5.47706e-08 1.12914e-08 -4.51919e-10 )  
( -3.40716e-08 9.611e-09 4.12589e-09 )  
( -1.46206e-08 -1.96695e-09 1.598e-11 )  
( -4.84317e-08 6.93064e-09 2.56765e-09 )  
( -1.98138e-08 6.1214e-09 -7.29256e-09 )  
( -1.00834e-08 -1.1039e-09 -1.9283e-09 )  
( -1.25616e-07 3.12198e-07 -3.30623e-08 )  
( -4.11952e-08 1.06897e-08 5.47308e-09 )  
( -2.49993e-08 -1.07355e-09 -3.6444e-09 )  
( -2.64882e-08 2.98497e-09 1.23095e-10 )  
( -2.93971e-08 5.6433e-09 4.33845e-09 )  
( -7.59389e-09 9.55227e-10 -1.4434e-10 )  
( -3.34845e-08 7.83997e-09 2.63057e-09 )  
( -2.77722e-08 1.74366e-10 1.56857e-09 )  
( -3.0299e-08 8.29658e-09 2.7734e-09 )  
( -1.63473e-08 -1.23509e-09 -2.34142e-09 )  
( -3.75056e-08 8.72831e-09 1.64721e-09 )  
( -2.93249e-08 -3.6863e-09 1.2652e-08 )  
( -1.26091e-08 -9.13382e-10 -2.86622e-09 )  
( -1.23059e-08 3.38019e-09 -2.38024e-09 )  
( -3.8585e-08 2.86393e-09 6.88112e-10 )  
( -4.42386e-08 1.26676e-08 2.53669e-09 )  
( -5.35612e-08 1.16523e-08 -1.36553e-09 )  
( -2.6166e-08 5.04761e-09 7.34123e-10 )  
( -4.37098e-08 1.03976e-08 9.2726e-10 )  
( -3.90773e-08 2.19913e-09 2.23853e-09 )  
( -3.17889e-08 1.92611e-09 -9.79192e-10 )  
( -7.1276e-08 -3.3174e-08 7.3848e-09 )  
( -4.23494e-08 9.94832e-09 5.1635e-09 )  
( -3.39143e-08 1.0716e-09 2.54505e-10 )  
( -1.17735e-08 1.6251e-09 1.32458e-09 )  
( -2.07017e-08 -5.3472e-09 2.12415e-09 )  
( -4.1194e-08 9.20183e-09 1.8729e-09 )  
( -2.0547e-08 8.4221e-09 -1.45669e-09 )  
( -1.60635e-08 2.0291e-09 -3.72e-09 )  
( -1.71066e-08 -7.34018e-13 3.46668e-09 )  
( -4.88265e-08 9.37347e-09 5.13563e-09 )  
( -6.2133e-09 3.01767e-09 -3.4262e-09 )  
( -2.56096e-08 6.43728e-09 -9.70493e-10 )  
( -2.59256e-08 7.57549e-09 -6.36661e-09 )  
( -8.149e-09 1.64493e-09 -7.25209e-09 )  
( -1.20986e-08 5.17614e-09 -7.03611e-09 )  
( -1.81002e-08 5.18117e-09 -2.00417e-09 )  
( -2.4593e-08 -4.03799e-09 -8.58203e-11 )  
( -2.79224e-08 6.77156e-11 4.21702e-09 )  
( -3.29441e-08 1.95194e-09 -8.47817e-10 )  
( -4.87408e-08 7.36513e-09 -5.29833e-10 )  
( -4.78919e-08 1.09073e-08 -8.52932e-10 )  
( -4.32027e-08 2.80524e-09 3.24436e-09 )  
( -4.91555e-08 6.6687e-09 -2.53213e-09 )  
( -2.47508e-08 7.26594e-10 -2.01053e-09 )  
( -4.59273e-08 3.79035e-09 1.18286e-09 )  
( -3.92332e-08 3.5363e-09 -5.37875e-09 )  
( -4.0987e-08 1.1415e-08 6.19128e-10 )  
( -2.18193e-08 1.02959e-11 4.85552e-09 )  
( -2.91051e-08 1.13852e-09 9.06561e-10 )  
( -5.61365e-08 1.12538e-08 -5.19223e-10 )  
( -4.82162e-08 1.08391e-08 3.5358e-09 )  
( -1.86688e-08 5.76657e-09 -2.60321e-09 )  
( -3.42554e-08 -1.36893e-09 1.67641e-09 )  
( -2.93995e-08 -9.14457e-10 -8.49713e-10 )  
( -5.20462e-08 1.13186e-08 5.38193e-10 )  
( -1.59486e-08 8.50035e-09 -3.8086e-09 )  
( -8.01114e-09 1.50471e-09 4.41443e-10 )  
( -1.18601e-08 9.56043e-09 -1.96188e-08 )  
( -3.72224e-08 6.52465e-09 4.58574e-09 )  
( -3.99757e-08 1.32574e-08 2.61105e-09 )  
( -2.30876e-08 7.1917e-09 -1.90336e-09 )  
( -1.72915e-08 1.90687e-09 -8.88994e-10 )  
( -2.26104e-08 -8.517e-10 5.17292e-09 )  
( -1.76448e-08 -1.02815e-09 -2.42704e-09 )  
( -3.01803e-08 3.34635e-09 4.27941e-09 )  
( -5.04828e-08 1.21361e-08 -7.8577e-10 )  
( -1.43271e-08 5.44046e-09 1.29346e-09 )  
( -8.47925e-09 1.1143e-08 -5.01495e-09 )  
( -5.14964e-08 7.9835e-09 2.65902e-10 )  
( -6.5633e-09 1.95045e-11 6.42005e-10 )  
( -3.49849e-08 8.57311e-10 5.70616e-09 )  
( -3.02138e-08 4.00072e-09 -1.96712e-09 )  
( -1.41712e-08 4.86114e-09 -2.20543e-08 )  
( -3.95415e-08 7.61974e-09 1.0815e-09 )  
( -1.95617e-08 -1.21175e-09 -3.42587e-09 )  
( -2.16103e-08 6.75227e-09 -6.77592e-09 )  
( -4.91857e-08 8.99597e-09 -5.45085e-10 )  
( -1.82506e-08 1.68588e-09 -4.69453e-09 )  
( -4.46539e-08 6.22566e-09 9.03141e-10 )  
( -1.01515e-08 -5.54543e-10 7.23566e-09 )  
( -9.52585e-07 1.56252e-08 2.67863e-08 )  
( -2.54794e-08 -2.57532e-10 -1.85162e-09 )  
( -1.04317e-08 1.85771e-09 2.1287e-09 )  
( -2.44809e-08 5.28149e-09 3.32904e-09 )  
( -3.86754e-08 6.43762e-09 2.34075e-09 )  
( -2.12922e-08 3.00848e-09 1.25158e-09 )  
( -2.9405e-08 5.31621e-09 -1.12484e-09 )  
( -3.23761e-08 7.14571e-10 1.65561e-09 )  
( -8.92842e-09 -2.37685e-09 -4.26583e-09 )  
( -1.79958e-08 -1.53928e-09 -4.87501e-09 )  
( -4.8272e-08 4.86889e-09 -5.6379e-09 )  
( -9.18716e-09 9.20256e-09 -1.37791e-08 )  
( -2.49139e-08 -2.71204e-09 1.16695e-09 )  
( -8.21694e-09 1.76497e-09 1.42809e-10 )  
( -3.02477e-08 4.15687e-09 -3.87678e-09 )  
( -1.87153e-08 1.04525e-09 -2.0083e-10 )  
( -4.44013e-08 3.55736e-09 -6.97179e-09 )  
( -8.02428e-09 -3.25328e-09 6.43094e-09 )  
( -3.55546e-08 1.01984e-09 1.87701e-09 )  
( -8.05615e-09 -7.46347e-11 -9.56929e-10 )  
( -2.26247e-08 -2.32723e-09 3.82218e-09 )  
( -1.77898e-08 -7.82281e-09 -6.10985e-10 )  
( -9.37333e-09 2.06409e-09 2.64139e-09 )  
( -8.42143e-09 2.96172e-08 -1.23838e-08 )  
( -4.54258e-08 6.13837e-09 -2.95078e-09 )  
( -4.07114e-08 1.18218e-09 9.51865e-10 )  
( -4.57239e-08 3.52931e-09 -7.63491e-10 )  
( -1.17007e-08 6.55894e-10 -3.93846e-09 )  
( -1.53584e-08 2.1704e-09 1.38262e-09 )  
( -2.75737e-08 -1.78702e-09 -2.01533e-10 )  
( -1.3934e-08 1.08731e-09 -5.66115e-09 )  
( -2.23069e-08 3.99127e-09 -2.31694e-10 )  
( -8.47965e-09 1.07822e-09 -3.70828e-09 )  
( -1.67748e-08 -2.03919e-09 3.7165e-10 )  
( 6.76156e-09 2.0252e-08 -2.67664e-08 )  
( -2.10566e-08 -3.71992e-09 4.57205e-09 )  
( -1.98729e-08 6.96229e-10 -5.6269e-11 )  
( -3.52403e-08 -1.03829e-10 2.72544e-09 )  
( -8.96082e-09 -7.20232e-10 -8.89674e-10 )  
( -1.13132e-08 -2.7548e-09 -3.4237e-09 )  
( -2.34023e-08 -3.84649e-09 5.44704e-10 )  
( -1.62328e-08 3.2675e-09 -7.27837e-09 )  
( -9.75625e-09 -8.978e-10 1.21234e-09 )  
( -8.76298e-09 1.44396e-08 -1.03619e-08 )  
( -1.32274e-08 1.41573e-09 1.272e-10 )  
( -3.74944e-08 1.47829e-09 -3.86234e-09 )  
( -1.76663e-08 2.88752e-10 -1.28354e-09 )  
( -1.20554e-08 2.7261e-09 -9.4349e-09 )  
( -8.38488e-09 -2.37201e-09 -7.3974e-10 )  
( -4.3457e-08 -5.14686e-10 -1.43293e-09 )  
( -1.40306e-08 2.40282e-09 -3.61286e-09 )  
( -4.2701e-08 1.45834e-09 -3.87967e-10 )  
( -2.80881e-08 -2.38001e-09 1.82132e-10 )  
( -3.41481e-08 -4.62294e-10 2.82799e-09 )  
( -4.41182e-08 -4.09302e-10 -1.83142e-09 )  
( -3.57707e-08 8.42129e-11 -4.05143e-09 )  
( -1.68214e-08 -3.0142e-09 7.43938e-10 )  
( -1.83855e-08 -2.86512e-09 1.51072e-09 )  
( -3.70217e-08 5.97777e-09 2.84496e-09 )  
( -1.77155e-08 -1.19223e-10 -4.28536e-09 )  
( -3.10707e-08 -2.20426e-09 8.39144e-10 )  
( -4.39371e-08 1.32329e-09 -3.0529e-09 )  
( -3.39885e-08 -1.30449e-09 -4.05938e-09 )  
( -4.13506e-08 3.99242e-09 -3.04463e-09 )  
( -2.77907e-08 -1.71341e-09 1.05877e-09 )  
( -1.51239e-08 -1.03202e-09 -2.70918e-09 )  
( -5.32251e-09 -3.68732e-09 -9.08045e-10 )  
( -4.34122e-08 6.29529e-09 -3.25128e-09 )  
( -1.79265e-08 -4.9934e-09 -1.80968e-09 )  
( -1.93641e-08 8.42416e-10 -1.51913e-09 )  
( -2.18735e-08 -2.41065e-10 1.15273e-09 )  
( -3.06849e-08 -7.52912e-10 -1.88998e-09 )  
( -3.23305e-09 4.4246e-09 -9.21999e-09 )  
( -1.47301e-08 1.7631e-09 1.67324e-09 )  
( -2.66221e-08 -7.67602e-10 -2.25895e-09 )  
( -3.10303e-08 5.13536e-09 5.40874e-09 )  
( -2.53368e-08 -2.33073e-08 2.71839e-08 )  
( -1.57518e-08 -2.73576e-09 2.09531e-09 )  
( -4.57673e-08 1.5914e-09 -5.1025e-09 )  
( -5.49333e-08 8.57284e-09 -2.43427e-09 )  
( -8.58441e-09 -7.06137e-10 7.86465e-10 )  
( -1.75373e-08 -3.16239e-09 -2.93404e-09 )  
( -3.15838e-08 2.01228e-09 -2.77035e-09 )  
( -1.7202e-08 -3.25028e-09 4.272e-10 )  
( -2.9142e-08 -1.59893e-09 -4.30855e-10 )  
( -1.41572e-08 -8.14899e-10 -4.15748e-09 )  
( -1.80804e-08 5.54427e-09 9.23272e-10 )  
( -2.37612e-08 5.8269e-09 -3.16262e-10 )  
( -1.47126e-08 8.84437e-10 -1.95565e-09 )  
( -1.63516e-08 6.02086e-10 9.10115e-10 )  
( 3.7718e-09 6.04579e-09 -2.40604e-08 )  
( -9.15213e-09 -4.64261e-10 -1.55914e-09 )  
( -5.90132e-09 1.08448e-09 -2.87664e-09 )  
( -4.60703e-08 3.04456e-09 -1.68507e-09 )  
( -8.38501e-09 2.8171e-09 -6.39962e-09 )  
( -4.32586e-08 2.10881e-09 -5.74845e-10 )  
( -3.03156e-08 1.72228e-09 2.69368e-09 )  
( -1.69639e-08 -4.21858e-10 1.70182e-09 )  
( -8.34216e-09 2.05517e-09 2.30699e-09 )  
( -3.72803e-08 -1.89308e-09 -5.35044e-09 )  
( -8.10703e-09 1.99495e-10 -1.65722e-09 )  
( -1.50025e-08 -4.3128e-09 1.91652e-09 )  
( -4.02733e-08 3.98543e-09 -1.51738e-09 )  
( -1.68025e-08 -9.36527e-11 -7.08675e-10 )  
( -3.12515e-08 4.74286e-10 7.26097e-10 )  
( -1.08952e-08 1.42361e-09 1.10021e-09 )  
( 1.92093e-08 -4.1731e-09 -3.54209e-08 )  
( -1.87356e-08 1.7968e-09 4.40552e-10 )  
( -1.1102e-08 -1.32786e-09 4.85888e-09 )  
( -5.05269e-08 5.46278e-09 -1.81492e-09 )  
( -2.44392e-08 -2.56894e-09 -4.32985e-10 )  
( -1.16201e-08 -6.79816e-10 2.40464e-10 )  
( -6.61738e-09 -4.57958e-10 1.88036e-10 )  
( -9.73274e-09 -1.53194e-09 -3.13784e-09 )  
( -5.92655e-09 7.32988e-09 -7.11035e-09 )  
( -1.4006e-07 -4.54557e-08 7.30144e-09 )  
( -1.83012e-08 -1.79375e-09 -2.25042e-09 )  
( -1.78383e-08 -1.91923e-09 -6.8434e-09 )  
( -2.83232e-08 -4.34113e-09 2.37556e-09 )  
( -5.3253e-08 6.42646e-09 -3.42862e-09 )  
( -3.18891e-08 -2.07256e-09 2.90979e-09 )  
( -2.57437e-08 3.97505e-09 4.31785e-09 )  
( -2.54387e-08 -3.80862e-10 7.99416e-10 )  
( -2.59112e-08 -1.80975e-09 8.17232e-10 )  
( -7.8678e-09 -1.35673e-09 -7.05128e-10 )  
( -1.98963e-08 -6.24002e-10 -4.69079e-10 )  
( -2.84159e-08 -2.45639e-09 1.14094e-09 )  
( -3.11085e-08 -1.15902e-10 1.94097e-09 )  
( -1.22686e-08 2.4158e-09 -5.92451e-09 )  
( -2.02305e-08 -2.58904e-09 1.99955e-09 )  
( -2.39563e-08 -3.5827e-09 -1.40854e-09 )  
( -3.9144e-08 4.96919e-09 -4.06727e-09 )  
( -2.66285e-08 2.73097e-09 2.17371e-09 )  
( -4.68464e-08 6.15942e-09 -4.40346e-09 )  
( -3.72892e-08 9.25283e-10 -8.70166e-09 )  
( -3.47748e-08 -6.59792e-11 -5.84423e-09 )  
( -1.5721e-08 4.98273e-10 -5.89418e-09 )  
( -1.29999e-08 -2.23962e-10 -1.11716e-10 )  
( 7.46832e-09 1.34019e-08 -2.51463e-08 )  
( -1.45107e-08 4.95901e-09 -8.42007e-09 )  
( -1.4286e-08 -1.35516e-09 3.78985e-10 )  
( -4.00226e-08 5.0888e-10 -1.21258e-09 )  
( -1.61191e-08 -1.9834e-09 -1.07217e-10 )  
( -1.36767e-08 -2.12728e-10 1.72141e-09 )  
( -2.50652e-08 -1.38334e-09 4.12109e-09 )  
( -1.26705e-08 4.19979e-09 -1.08996e-08 )  
( -4.38108e-08 2.72476e-09 -2.76254e-09 )  
( -1.19503e-08 -1.28311e-09 -2.28637e-09 )  
( -7.88308e-09 6.7875e-10 7.58962e-10 )  
( -2.25916e-08 -3.41438e-09 -5.32578e-10 )  
( -1.65699e-08 -1.6763e-09 -5.55151e-10 )  
( -2.95371e-08 -1.41153e-09 4.66212e-09 )  
( -2.11311e-08 -5.11249e-09 -4.62043e-10 )  
( -3.42757e-08 -1.36139e-09 -3.95628e-09 )  
( -2.71899e-08 6.0581e-11 -6.06803e-09 )  
( -8.97383e-09 1.07719e-08 -5.80398e-09 )  
( -2.40866e-08 -4.15499e-09 -8.42776e-10 )  
( -2.8565e-08 6.14054e-11 -5.53204e-10 )  
( -1.41086e-08 -3.08766e-11 7.91723e-10 )  
( -1.01271e-08 -1.24024e-09 9.64482e-10 )  
( -4.61553e-08 4.0862e-09 3.80766e-10 )  
( -2.04492e-08 5.86662e-09 1.03028e-09 )  
( -1.97757e-08 -2.7847e-09 -1.13503e-09 )  
( -4.11688e-08 3.0804e-09 -4.07709e-09 )  
( -1.13864e-08 2.42883e-09 -3.18748e-09 )  
( -1.47955e-08 2.39873e-09 -1.9516e-09 )  
( -3.71362e-09 -2.31187e-09 2.21121e-09 )  
( -3.46194e-08 2.38005e-09 -1.40014e-09 )  
( -8.39322e-09 -2.2216e-09 7.79648e-10 )  
( -2.91768e-08 -9.32622e-10 1.9933e-09 )  
( -9.06052e-09 7.80812e-09 5.60525e-09 )  
( -3.93321e-08 1.58023e-09 -7.27601e-09 )  
( -2.49484e-08 -3.65155e-09 -7.75092e-10 )  
( -4.22025e-08 1.89602e-09 -7.19062e-09 )  
( -3.10295e-08 -4.61968e-10 -3.3458e-09 )  
( -1.46181e-08 1.33361e-09 2.12929e-09 )  
( -1.476e-09 1.12655e-10 1.50291e-09 )  
( -1.38854e-09 1.93587e-10 5.71192e-10 )  
( -1.27606e-08 -2.47673e-09 1.37896e-09 )  
( -5.65357e-09 -2.15252e-09 2.13481e-09 )  
( -5.87412e-09 -5.49534e-10 2.15478e-09 )  
( -7.26827e-09 -1.3367e-09 4.63475e-10 )  
( -1.19671e-08 1.39977e-12 4.57417e-10 )  
( -1.48957e-08 -7.71849e-09 2.14688e-09 )  
( -1.5414e-08 4.02983e-09 3.94524e-09 )  
( -2.11611e-08 4.44154e-09 -1.28918e-08 )  
( -1.93779e-08 -1.30093e-09 -1.63125e-09 )  
( -1.0996e-08 2.11298e-09 -2.01744e-09 )  
( -1.98002e-08 -2.31341e-09 -9.50165e-10 )  
( -1.79067e-08 -9.56081e-10 1.01832e-09 )  
( -6.59044e-10 3.20284e-08 -3.25621e-08 )  
( -7.98169e-09 -4.48703e-10 1.51351e-10 )  
( -1.25187e-08 -2.10278e-09 -3.68046e-10 )  
( -1.22474e-08 -1.91767e-09 1.5395e-09 )  
( -2.55355e-08 4.80534e-09 -7.96613e-11 )  
( -1.88397e-08 2.94367e-09 2.80649e-09 )  
( -1.10517e-08 -1.77947e-10 2.07219e-10 )  
( -8.05343e-09 -6.65925e-10 1.58918e-09 )  
( -1.78745e-08 -1.70577e-09 -1.1476e-10 )  
( -8.07352e-09 2.49415e-10 9.20164e-10 )  
( -1.83954e-08 -5.44319e-09 -3.93797e-09 )  
( -2.52468e-08 -3.99666e-09 8.51331e-10 )  
( -3.00725e-09 5.54247e-09 -3.71665e-09 )  
( 2.09341e-09 8.41814e-08 3.04958e-09 )  
( -3.84269e-09 2.35784e-10 7.81189e-10 )  
( -2.08177e-08 7.36123e-09 -1.04314e-09 )  
( -1.90893e-08 8.75697e-10 6.13048e-11 )  
( -1.21815e-08 -8.09933e-10 1.25898e-09 )  
( 4.0555e-09 1.78591e-08 -4.77446e-09 )  
( -1.06808e-08 -6.10363e-10 -2.53655e-09 )  
( -1.6677e-08 8.40085e-11 -1.33897e-09 )  
( -1.17035e-08 -1.17028e-09 2.14942e-10 )  
( -1.15011e-08 -4.22958e-11 -9.18848e-10 )  
( -1.89871e-08 -4.03154e-10 -2.01767e-10 )  
( -2.91551e-08 5.67232e-09 3.12206e-09 )  
( -5.2804e-09 1.22132e-10 3.50502e-10 )  
( -2.33235e-08 -5.59906e-10 2.56241e-10 )  
( -1.50777e-08 1.16315e-09 -1.86455e-09 )  
( 1.49182e-08 9.95072e-08 1.06183e-09 )  
( -4.4367e-09 6.77586e-10 -8.65228e-10 )  
( -7.30652e-09 3.19175e-09 -2.02515e-10 )  
( -8.94098e-09 1.93142e-09 -2.65262e-09 )  
( -4.80699e-09 2.75011e-09 -2.58183e-09 )  
( -8.65923e-09 -1.85697e-09 1.62312e-09 )  
( -1.29212e-08 -1.32627e-10 2.70316e-09 )  
( -2.88128e-08 3.55371e-09 6.47674e-10 )  
( -1.34063e-08 -1.04274e-09 1.42692e-09 )  
( -4.25339e-09 1.72493e-09 -1.5299e-09 )  
( -3.71147e-09 -4.2621e-10 -2.19455e-10 )  
( -8.4342e-09 5.65018e-10 6.15169e-10 )  
( -1.083e-08 -9.39714e-11 2.66579e-09 )  
( -1.97751e-08 2.8209e-09 5.01565e-10 )  
( -6.80235e-09 -6.36231e-10 3.87794e-10 )  
( 4.23619e-09 2.3598e-08 -1.78821e-08 )  
( -1.79292e-08 1.85498e-09 1.16893e-09 )  
( -4.45107e-09 6.20983e-09 -5.19425e-09 )  
( -9.63286e-09 3.06422e-10 -2.02857e-09 )  
( -6.66853e-09 -6.13951e-10 1.43354e-09 )  
( -7.98648e-09 -6.27236e-10 2.21068e-09 )  
)
