/*--------------------------------*- C++ -*----------------------------------*\
| =========                 |                                                 |
| \\      /  F ield         | OpenFOAM: The Open Source CFD Toolbox           |
|  \\    /   O peration     | Version:  4.x                                   |
|   \\  /    A nd           | Web:      www.OpenFOAM.org                      |
|    \\/     M anipulation  |                                                 |
\*---------------------------------------------------------------------------*/
FoamFile
{
    version     2.0;
    format      ascii;
    class       volScalarField;
    location    "15";
    object      Ksl;
}
// * * * * * * * * * * * * * * * * * * * * * * * * * * * * * * * * * * * * * //

dimensions      [1 -3 -1 0 0 0 0];

internalField   nonuniform List<scalar> 
87
(
3775
12622.9
3827.61
3464.76
6994.91
3315.46
3707.38
10900.7
4074.55
18811.2
4349.84
185370
4621.32
132282
4484.61
3583.63
9402.96
3783.16
11242.2
3836.75
11751.7
3984.55
16310.8
4068.95
3438.22
7950.26
3483.59
8409.18
3510.86
8911.86
3574.89
8063.9
3512.78
3601.6
9707.09
3797.2
12498
3829.98
12012.4
3812.9
15301.2
3781.58
3503.71
9057.51
3670.04
10971.5
3706.29
11143.5
3746.91
13854.2
3755.38
3413.63
7610.96
3394.36
7705.48
3389.47
9487.72
3412.46
7457.15
3298.08
3483.36
8142.24
3544.39
9362.37
3515.16
11184.5
3536.67
9184.89
3435.39
3424.75
7554.98
3426.93
7392.05
3391.95
7413.7
3408.89
7197.28
3353.88
3363.34
7031.06
3281.59
6232.29
3180.18
5547
3199.55
6010.03
3207.74
)
;

boundaryField
{
    inlet
    {
        type            zeroGradient;
    }
    outlet
    {
        type            zeroGradient;
    }
    wall
    {
        type            zeroGradient;
    }
    procBoundary6to0
    {
        type            processor;
        value           uniform 3822.51;
    }
    procBoundary6to2
    {
        type            processor;
        value           nonuniform List<scalar> 
32
(
4048.95
14273.6
4143.82
3620.1
6614.41
3445.48
3617.66
9417.75
3836.51
10609.9
3816.98
10791.1
3886.65
13583.3
13583.3
13583.3
3558.79
9050.24
3783.72
10162.2
3775.15
10038.9
3934.17
3934.17
3934.17
3430.86
7706.41
3479.08
7593.74
3396.82
7302.76
7302.76
)
;
    }
    procBoundary6to4
    {
        type            processor;
        value           nonuniform List<scalar> 
27
(
3589.75
9780.75
3904.75
12695.4
4027.66
14877.7
4143.17
20982.1
4169.16
3572.3
9881.26
3827.13
13603.9
3948.57
14288
3979.62
18410.8
3964.44
3526.72
8475.71
3597.25
9950.51
3602.59
12233.5
3562.33
9467.51
3457.28
)
;
    }
    procBoundary6to7
    {
        type            processor;
        value           nonuniform List<scalar> 
12
(
14561.1
13398.1
6450.73
214373
21864.9
7491.61
22510.7
17104.8
6425.26
8288.36
6550.94
5791.61
)
;
    }
}


// ************************************************************************* //
