/*--------------------------------*- C++ -*----------------------------------*\
| =========                 |                                                 |
| \\      /  F ield         | OpenFOAM: The Open Source CFD Toolbox           |
|  \\    /   O peration     | Version:  4.x                                   |
|   \\  /    A nd           | Web:      www.OpenFOAM.org                      |
|    \\/     M anipulation  |                                                 |
\*---------------------------------------------------------------------------*/
FoamFile
{
    version     2.0;
    format      ascii;
    class       volScalarField;
    location    "15";
    object      rho;
}
// * * * * * * * * * * * * * * * * * * * * * * * * * * * * * * * * * * * * * //

dimensions      [1 -3 0 0 0 0 0];

internalField   nonuniform List<scalar> 
87
(
6699.05
6699.61
6699.18
6700.17
6700.03
6699.79
6699.73
6699.73
6699.73
6699.75
6699.76
6699.69
6699.38
6699.18
6699.09
6699.7
6699.69
6699.7
6699.69
6699.78
6699.85
6699.75
6699.54
6699.32
6699.69
6699.69
6699.68
6699.73
6699.84
6699.98
6699.98
6699.91
6699.75
6699.79
6699.79
6699.81
6699.82
6699.85
6699.84
6699.73
6699.57
6699.4
6699.77
6699.78
6699.79
6699.82
6699.87
6699.89
6699.83
6699.69
6699.5
6699.77
6699.77
6699.78
6699.82
6699.89
6699.95
6699.97
6699.92
6699.81
6699.82
6699.82
6699.84
6699.86
6699.9
6699.91
6699.87
6699.8
6699.66
6699.81
6699.81
6699.83
6699.86
6699.9
6699.92
6699.93
6699.87
6699.74
6699.8
6699.81
6699.82
6699.86
6699.9
6699.95
6699.96
6699.93
6699.84
)
;

boundaryField
{
    inlet
    {
        type            calculated;
        value           uniform 6700;
    }
    outlet
    {
        type            calculated;
        value           nonuniform 0();
    }
    wall
    {
        type            calculated;
        value           nonuniform List<scalar> 
57
(
6699.82
6699.81
6699.8
6699.82
6699.81
6699.81
6699.84
6699.83
6699.82
6699.86
6699.86
6699.86
6699.9
6699.9
6699.9
6699.91
6699.92
6699.95
6699.87
6699.93
6699.96
6699.8
6699.87
6699.93
6699.66
6699.74
6699.84
6699.69
6699.77
6699.8
6699.69
6699.77
6699.81
6699.68
6699.78
6699.82
6699.73
6699.82
6699.86
6699.84
6699.89
6699.9
6699.98
6699.95
6699.95
6700.17
6699.98
6699.97
6699.96
6700.03
6699.91
6699.92
6699.93
6699.79
6699.75
6699.81
6699.84
)
;
    }
    procBoundary6to0
    {
        type            processor;
        value           uniform 6698.86;
    }
    procBoundary6to2
    {
        type            processor;
        value           nonuniform List<scalar> 
32
(
6698.46
6699.37
6698.57
6700.46
6700.05
6699.45
6699.65
6699.63
6699.61
6699.63
6699.73
6699.84
6699.76
6699.47
6699.47
6699.47
6699.6
6699.57
6699.52
6699.53
6699.66
6699.99
6699.91
6699.91
6699.91
6699.58
6699.55
6699.52
6699.55
6699.73
6700.09
6700.09
)
;
    }
    procBoundary6to4
    {
        type            processor;
        value           nonuniform List<scalar> 
27
(
6699.77
6699.77
6699.78
6699.8
6699.8
6699.75
6699.57
6699.31
6699.11
6699.82
6699.82
6699.83
6699.85
6699.85
6699.81
6699.7
6699.52
6699.3
6699.84
6699.84
6699.86
6699.88
6699.9
6699.9
6699.85
6699.77
6699.62
)
;
    }
    procBoundary6to7
    {
        type            processor;
        value           nonuniform List<scalar> 
12
(
6698.78
6698.85
6699.5
6699.22
6699.2
6699.53
6699.29
6699.36
6699.66
6699.47
6699.6
6699.72
)
;
    }
}


// ************************************************************************* //
