/*--------------------------------*- C++ -*----------------------------------*\
| =========                 |                                                 |
| \\      /  F ield         | OpenFOAM: The Open Source CFD Toolbox           |
|  \\    /   O peration     | Version:  4.x                                   |
|   \\  /    A nd           | Web:      www.OpenFOAM.org                      |
|    \\/     M anipulation  |                                                 |
\*---------------------------------------------------------------------------*/
FoamFile
{
    version     2.0;
    format      ascii;
    class       volScalarField;
    location    "15";
    object      SPartFluid;
}
// * * * * * * * * * * * * * * * * * * * * * * * * * * * * * * * * * * * * * //

dimensions      [1 -3 -1 0 0 0 0];

internalField   nonuniform List<scalar> 
87
(
6.74078e-65
6.04465e-65
7.12923e-65
5.11489e-65
5.81229e-65
4.95976e-65
1.03845e-64
7.59446e-65
4.95961e-65
7.43938e-65
9.37672e-65
6.12205e-65
7.36187e-65
6.50931e-65
8.52359e-65
5.81223e-65
7.90446e-65
6.43198e-65
8.83428e-65
7.05197e-65
7.82715e-65
7.05229e-65
8.60218e-65
7.59457e-65
4.95984e-65
7.20705e-65
5.42467e-65
6.12208e-65
7.59451e-65
8.75712e-65
6.50996e-65
6.66501e-65
7.51737e-65
7.67223e-65
7.67203e-65
7.74949e-65
7.67198e-65
5.34717e-65
7.05215e-65
6.27729e-65
5.88976e-65
7.90424e-65
5.65729e-65
7.28458e-65
6.81958e-65
6.89706e-65
5.96715e-65
5.57979e-65
7.74991e-65
5.73499e-65
7.74973e-65
5.19235e-65
6.74216e-65
5.57971e-65
7.5946e-65
7.28461e-65
5.96731e-65
6.66501e-65
5.96755e-65
5.65752e-65
5.03736e-65
5.26975e-65
6.12219e-65
6.89715e-65
6.50966e-65
6.43223e-65
8.6798e-65
8.75735e-65
3.79745e-65
6.04484e-65
5.50224e-65
6.81967e-65
5.65726e-65
8.6021e-65
6.35473e-65
6.19994e-65
5.65755e-65
7.82749e-65
4.41741e-65
6.27723e-65
6.12223e-65
6.43225e-65
4.95981e-65
8.21476e-65
4.80499e-65
5.11513e-65
6.04509e-65
)
;

boundaryField
{
    inlet
    {
        type            calculated;
        value           uniform 0;
    }
    outlet
    {
        type            calculated;
        value           nonuniform 0();
    }
    wall
    {
        type            calculated;
        value           uniform 0;
    }
    procBoundary6to0
    {
        type            processor;
        value           uniform 2.32368e-65;
    }
    procBoundary6to2
    {
        type            processor;
        value           nonuniform List<scalar> 
32
(
4.8807e-65
7.43884e-65
8.36873e-65
8.29129e-65
4.95959e-65
8.91189e-65
4.80472e-65
8.13673e-65
8.36905e-65
6.58669e-65
6.81909e-65
5.88931e-65
6.27646e-65
7.74837e-65
7.74837e-65
7.74837e-65
6.89718e-65
6.89692e-65
8.36908e-65
5.8118e-65
7.20651e-65
6.89653e-65
8.36917e-65
8.36917e-65
8.36917e-65
5.26978e-65
6.50953e-65
6.27689e-65
7.12933e-65
5.5019e-65
6.3546e-65
6.3546e-65
)
;
    }
    procBoundary6to4
    {
        type            processor;
        value           nonuniform List<scalar> 
27
(
4.3398e-65
5.73457e-65
7.59436e-65
5.19208e-65
7.36173e-65
6.35422e-65
9.22078e-65
5.96624e-65
5.96528e-65
6.66476e-65
7.20706e-65
5.96706e-65
8.52441e-65
8.44688e-65
6.74197e-65
9.60905e-65
7.90394e-65
6.81874e-65
7.43978e-65
7.05217e-65
5.8122e-65
7.67206e-65
6.9746e-65
9.22194e-65
4.49476e-65
4.88217e-65
6.35433e-65
)
;
    }
    procBoundary6to7
    {
        type            processor;
        value           nonuniform List<scalar> 
12
(
7.67009e-65
5.50177e-65
5.26959e-65
3.95173e-65
5.81197e-65
5.81221e-65
8.05914e-65
7.05213e-65
5.34743e-65
6.89704e-65
5.96739e-65
6.27751e-65
)
;
    }
}


// ************************************************************************* //
