/*--------------------------------*- C++ -*----------------------------------*\
| =========                 |                                                 |
| \\      /  F ield         | OpenFOAM: The Open Source CFD Toolbox           |
|  \\    /   O peration     | Version:  4.x                                   |
|   \\  /    A nd           | Web:      www.OpenFOAM.org                      |
|    \\/     M anipulation  |                                                 |
\*---------------------------------------------------------------------------*/
FoamFile
{
    version     2.0;
    format      ascii;
    class       volVectorField;
    location    "37.5";
    object      ddtUrel;
}
// * * * * * * * * * * * * * * * * * * * * * * * * * * * * * * * * * * * * * //

dimensions      [0 1 -2 0 0 0 0];

internalField   nonuniform List<vector> 
132
(
(-2.31407e-09 3.34015e-10 4.64102e-10)
(-2.61888e-09 3.1411e-10 8.15757e-10)
(-2.42139e-09 2.51664e-10 1.12124e-09)
(-1.80269e-09 1.53716e-10 1.39097e-09)
(-9.18669e-10 9.679e-11 1.59375e-09)
(5.13026e-11 7.55162e-11 1.77975e-09)
(9.12777e-10 -2.76379e-11 1.85249e-09)
(1.60012e-09 -6.70346e-11 1.75421e-09)
(2.04969e-09 -1.95365e-12 1.67889e-09)
(-1.34891e-09 3.26247e-10 3.95591e-10)
(-1.55554e-09 3.17623e-10 7.36792e-10)
(-1.49016e-09 2.80428e-10 1.03608e-09)
(-1.12509e-09 2.18561e-10 1.32253e-09)
(-4.81221e-10 1.8996e-10 1.53513e-09)
(2.8362e-10 2.07639e-10 1.70533e-09)
(9.98226e-10 2.36123e-10 1.8062e-09)
(1.66838e-09 3.65726e-10 1.74921e-09)
(2.0873e-09 5.32253e-10 1.60467e-09)
(-9.24449e-10 2.93513e-10 3.47636e-10)
(-1.10685e-09 2.75866e-10 6.41223e-10)
(-1.05759e-09 2.57124e-10 9.46354e-10)
(-8.00436e-10 2.60306e-10 1.19395e-09)
(-2.69343e-10 2.92417e-10 1.38098e-09)
(3.76666e-10 4.23878e-10 1.50563e-09)
(1.05162e-09 5.96568e-10 1.54599e-09)
(1.70149e-09 9.60078e-10 1.41481e-09)
(2.39936e-09 1.2999e-09 1.28825e-09)
(-1.00528e-09 2.57983e-10 3.22087e-10)
(-1.18095e-09 2.45251e-10 5.70041e-10)
(-1.08396e-09 2.53452e-10 8.39389e-10)
(-8.73966e-10 2.83361e-10 1.04636e-09)
(-3.00968e-10 3.63487e-10 1.20736e-09)
(3.33543e-10 5.74002e-10 1.28767e-09)
(1.12017e-09 8.97145e-10 1.25289e-09)
(1.8924e-09 1.40309e-09 1.03867e-09)
(2.50153e-09 1.95544e-09 8.3403e-10)
(-1.53898e-09 2.30876e-10 8.36053e-10)
(-1.18267e-09 1.57347e-10 1.05119e-09)
(-5.93659e-10 1.05945e-10 1.21693e-09)
(8.54e-11 8.0117e-11 1.37709e-09)
(7.12949e-10 3.76108e-11 1.44525e-09)
(1.18968e-09 7.78169e-12 1.39007e-09)
(1.47871e-09 1.55464e-11 1.41048e-09)
(-9.02345e-10 3.29455e-10 2.84744e-10)
(-1.03964e-09 3.11139e-10 5.43038e-10)
(-1.01887e-09 2.89129e-10 8.00961e-10)
(-7.92959e-10 2.4328e-10 1.02282e-09)
(-3.35099e-10 2.13047e-10 1.20386e-09)
(2.44981e-10 2.29296e-10 1.37256e-09)
(7.73509e-10 2.24048e-10 1.43035e-09)
(1.23784e-09 2.56801e-10 1.39005e-09)
(1.52766e-09 3.00669e-10 1.307e-09)
(-6.26776e-10 2.97824e-10 2.64959e-10)
(-7.63044e-10 2.90699e-10 5.00298e-10)
(-7.44963e-10 2.83579e-10 7.51083e-10)
(-5.76568e-10 2.85823e-10 9.60089e-10)
(-1.71017e-10 3.01694e-10 1.11505e-09)
(3.61906e-10 3.84978e-10 1.26372e-09)
(8.85206e-10 4.32641e-10 1.30126e-09)
(1.39535e-09 5.8006e-10 1.18857e-09)
(1.98799e-09 8.02627e-10 1.1147e-09)
(-6.67699e-10 2.4468e-10 2.57748e-10)
(-8.62048e-10 2.51105e-10 4.57542e-10)
(-8.01816e-10 2.65136e-10 6.85191e-10)
(-6.46247e-10 2.82671e-10 8.65943e-10)
(-2.22933e-10 3.21968e-10 1.00171e-09)
(2.64227e-10 4.32253e-10 1.11908e-09)
(8.9662e-10 5.57947e-10 1.12117e-09)
(1.43997e-09 7.63314e-10 9.88641e-10)
(1.87285e-09 1.02562e-09 8.8659e-10)
(-4.96608e-10 1.09746e-10 9.04578e-10)
(-3.60644e-11 8.69377e-11 1.01384e-09)
(4.40568e-10 5.58743e-11 1.07526e-09)
(7.87868e-10 5.56638e-11 1.02938e-09)
(9.67314e-10 4.67653e-11 9.8205e-10)
(-6.91978e-10 2.88482e-10 1.93351e-10)
(-7.69132e-10 2.7894e-10 3.91699e-10)
(-7.82091e-10 2.60489e-10 5.79283e-10)
(-6.07521e-10 2.34612e-10 7.64337e-10)
(-3.01808e-10 2.13031e-10 9.09316e-10)
(1.07259e-10 2.11722e-10 1.04152e-09)
(5.49684e-10 1.97475e-10 1.09605e-09)
(8.51795e-10 1.93989e-10 1.0357e-09)
(1.0682e-09 1.97601e-10 9.7722e-10)
(-4.71838e-10 2.67574e-10 1.9483e-10)
(-5.64548e-10 2.71223e-10 3.73082e-10)
(-5.85191e-10 2.70032e-10 5.59697e-10)
(-4.65261e-10 2.80111e-10 7.38526e-10)
(-1.95274e-10 2.82487e-10 8.76855e-10)
(2.42822e-10 3.07153e-10 1.00079e-09)
(7.01023e-10 3.15547e-10 1.0183e-09)
(1.04041e-09 3.68706e-10 9.35954e-10)
(1.26964e-09 4.37823e-10 8.62178e-10)
(-4.92905e-10 2.32148e-10 1.9845e-10)
(-6.37427e-10 2.37815e-10 3.57429e-10)
(-6.47888e-10 2.522e-10 5.27776e-10)
(-5.8616e-10 2.72177e-10 6.96071e-10)
(-3.69109e-10 3.12709e-10 8.26209e-10)
(1.791e-10 3.24374e-10 9.40547e-10)
(7.07035e-10 3.73711e-10 9.30145e-10)
(1.09383e-09 4.6832e-10 8.31778e-10)
(1.28864e-09 5.71474e-10 7.57084e-10)
(8.33924e-11 5.79138e-11 8.29791e-10)
(1.96329e-10 8.17853e-11 8.11615e-10)
(5.99747e-10 1.15447e-10 6.62706e-10)
(-5.39543e-10 2.56498e-10 1.58574e-10)
(-5.58929e-10 2.38383e-10 3.04697e-10)
(-6.48735e-10 2.21796e-10 4.54984e-10)
(-5.36927e-10 2.04152e-10 5.98165e-10)
(-3.88947e-10 1.98996e-10 7.33008e-10)
(-1.5541e-10 1.86775e-10 8.27989e-10)
(2.15732e-10 1.67878e-10 8.51408e-10)
(3.55157e-10 1.74478e-10 8.13674e-10)
(7.14446e-10 1.80179e-10 7.24662e-10)
(-3.60804e-10 2.51427e-10 1.66479e-10)
(-4.33649e-10 2.4484e-10 3.00657e-10)
(-5.08124e-10 2.49875e-10 4.46905e-10)
(-4.84896e-10 2.62448e-10 5.8986e-10)
(-4.30624e-10 2.90892e-10 7.23996e-10)
(-6.05547e-11 2.70408e-10 8.09075e-10)
(3.74555e-10 2.61359e-10 8.11373e-10)
(6.22839e-10 2.87356e-10 7.63254e-10)
(8.95583e-10 3.23238e-10 6.99077e-10)
(-3.92994e-10 2.27536e-10 1.69269e-10)
(-5.03085e-10 2.26309e-10 2.96863e-10)
(-5.89049e-10 2.46516e-10 4.38829e-10)
(-7.03292e-10 2.96827e-10 5.89008e-10)
(-1.21185e-09 4.6883e-10 7.44877e-10)
(-1.96212e-10 3.22996e-10 7.90641e-10)
(4.17535e-10 3.13259e-10 7.63837e-10)
(7.718e-10 3.65365e-10 7.03718e-10)
(1.01401e-09 4.58075e-10 6.21039e-10)
)
;

boundaryField
{
    inlet
    {
        type            calculated;
        value           nonuniform 0();
    }
    outlet
    {
        type            calculated;
        value           nonuniform List<vector> 
16
(
(1.47912e-09 -5.23539e-10 2.60384e-09)
(1.95894e-09 -5.54088e-10 2.8307e-09)
(3.13196e-09 4.55621e-10 2.23327e-09)
(2.03309e-09 6.42539e-10 5.26406e-10)
(1.6411e-09 -5.42887e-10 2.43134e-09)
(1.02293e-09 -6.14565e-10 1.40988e-09)
(5.72116e-09 2.06161e-09 1.15495e-09)
(2.60888e-09 1.11742e-09 4.06318e-10)
(6.68067e-10 -4.01758e-10 7.34445e-10)
(1.03276e-09 -2.70985e-10 9.28876e-10)
(1.33372e-09 2.79036e-10 3.72873e-10)
(1.17529e-09 2.78933e-10 2.05846e-10)
(-1.43172e-10 3.50867e-10 -6.44594e-10)
(-1.61745e-11 -1.54299e-10 7.12132e-11)
(3.80492e-10 9.44755e-11 1.40982e-10)
(1.25907e-09 7.98381e-10 -3.12863e-10)
)
;
    }
    wall
    {
        type            calculated;
        value           nonuniform List<vector> 
66
(
(2.10086e-10 1.9973e-10 -9.40586e-11)
(7.72651e-10 2.10722e-10 3.12465e-12)
(-1.022e-10 1.46048e-10 1.12756e-11)
(2.12087e-09 2.48646e-10 5.45827e-12)
(1.11622e-09 2.01921e-10 3.96431e-11)
(3.28304e-11 6.12561e-11 4.93981e-11)
(-1.46479e-10 2.44957e-10 8.54724e-11)
(3.40767e-10 2.51695e-10 1.03765e-10)
(-5.50163e-10 1.21106e-10 1.18513e-10)
(5.86471e-10 1.52246e-10 1.16281e-10)
(4.38308e-10 2.1967e-10 1.39745e-10)
(-3.08601e-10 7.93212e-11 2.34589e-10)
(-5.54911e-10 2.11704e-10 3.78027e-10)
(-8.23424e-11 2.1669e-10 3.38406e-10)
(-1.12421e-08 2.52136e-09 9.23341e-10)
(-3.05626e-09 2.25693e-10 6.30712e-10)
(-1.39433e-09 2.25038e-10 5.27043e-10)
(-1.03775e-09 3.733e-11 5.24507e-10)
(-1.39876e-09 5.62914e-11 2.59568e-10)
(-5.72539e-10 1.49253e-10 4.06261e-10)
(9.44656e-11 1.56884e-10 4.40974e-10)
(2.34767e-10 1.09731e-10 2.53733e-10)
(-7.49248e-09 -5.08561e-11 9.53448e-10)
(-5.26109e-09 -4.79749e-11 8.33812e-10)
(-1.62042e-09 8.2476e-11 3.17988e-10)
(-2.0989e-11 1.27691e-10 1.91115e-10)
(1.11e-10 9.82737e-10 -1.08483e-09)
(3.04316e-10 4.46657e-10 -2.90637e-10)
(6.60415e-10 2.85017e-10 3.26624e-10)
(5.33221e-10 1.06246e-09 -1.29272e-10)
(-3.50978e-09 6.70955e-10 2.49848e-10)
(-1.15343e-09 1.17993e-10 1.49323e-10)
(-8.20025e-10 1.00234e-10 1.55909e-11)
(-6.91e-10 1.53119e-10 1.77506e-11)
(-3.53333e-09 2.34304e-10 3.21373e-10)
(-3.64103e-09 1.85026e-10 2.30175e-10)
(-2.0245e-09 1.03815e-10 1.4884e-10)
(-1.23405e-09 6.89795e-11 5.87201e-11)
(-1.88909e-09 2.4099e-10 7.904e-10)
(-2.01665e-09 2.43561e-10 7.54273e-10)
(-1.2178e-09 1.61313e-10 2.40894e-10)
(-9.98996e-10 1.28297e-10 1.26971e-10)
(-3.8705e-09 2.53893e-10 8.41493e-10)
(-2.12471e-09 2.4569e-10 7.06884e-10)
(-1.64755e-09 7.88134e-11 4.93971e-10)
(-8.74642e-10 8.18161e-11 2.41216e-10)
(-1.40978e-09 1.67471e-10 1.11941e-09)
(-1.46819e-10 2.91455e-11 6.55803e-10)
(-1.34991e-10 1.79637e-11 4.46892e-10)
(-2.62354e-08 3.01546e-09 1.51879e-09)
(-1.91351e-09 3.16554e-10 1.15385e-09)
(-1.87089e-09 4.43848e-10 1.09536e-09)
(1.10166e-10 -5.44096e-11 1.06789e-09)
(-8.19267e-10 4.02346e-11 5.15985e-10)
(-3.46788e-11 1.60626e-10 1.47189e-09)
(8.53987e-10 1.55887e-10 1.25093e-09)
(1.18783e-09 9.96217e-11 9.09236e-10)
(3.66035e-10 1.01557e-10 2.31102e-10)
(2.36735e-09 -1.16366e-10 8.18e-10)
(2.5967e-09 2.77056e-11 6.39463e-10)
(2.47817e-09 1.85112e-10 3.7408e-10)
(8.59021e-10 1.715e-10 2.10545e-10)
(2.19067e-09 6.02576e-10 4.81336e-10)
(2.86855e-09 1.15857e-09 4.24277e-10)
(1.18105e-09 1.25555e-10 2.5181e-10)
(1.64085e-09 6.57451e-10 1.02536e-11)
)
;
    }
    procBoundary7to0
    {
        type            processor;
        value           uniform (-1.70359e-09 3.20017e-10 1.61539e-10);
    }
    procBoundary7to1
    {
        type            processor;
        value           uniform (-3.76219e-09 2.81736e-10 4.76685e-10);
    }
    procBoundary7to3
    {
        type            processor;
        value           nonuniform List<vector> 
36
(
(-3.82371e-09 3.71577e-10 6.56235e-10)
(-4.4087e-09 3.50267e-10 1.0924e-09)
(-3.96175e-09 2.97299e-10 1.47538e-09)
(-2.88853e-09 1.40576e-10 1.76334e-09)
(-1.50771e-09 6.05847e-11 1.98324e-09)
(-8.49684e-11 -3.3493e-11 2.15222e-09)
(1.17768e-09 -1.7496e-10 2.26935e-09)
(2.0889e-09 -2.73563e-10 2.054e-09)
(2.78752e-09 -2.83342e-10 1.53023e-09)
(-2.13804e-09 3.04331e-10 5.39865e-10)
(-2.48412e-09 2.80583e-10 9.43985e-10)
(-2.30938e-09 2.20851e-10 1.30847e-09)
(-1.71469e-09 1.61427e-10 1.64608e-09)
(-7.50149e-10 1.46809e-10 1.87533e-09)
(3.55741e-10 1.56366e-10 2.04454e-09)
(1.42055e-09 2.42782e-10 2.16126e-09)
(2.38001e-09 5.21754e-10 2.01737e-09)
(3.0249e-09 9.06492e-10 1.61025e-09)
(-1.43938e-09 1.98508e-10 4.49395e-10)
(-1.71304e-09 1.93635e-10 7.92067e-10)
(-1.63443e-09 1.31291e-10 1.13927e-09)
(-1.16893e-09 1.85786e-10 1.43376e-09)
(-3.95698e-10 2.78939e-10 1.62934e-09)
(5.28937e-10 5.02586e-10 1.72683e-09)
(1.4737e-09 9.11616e-10 1.73507e-09)
(2.4519e-09 1.73853e-09 1.49109e-09)
(3.40305e-09 2.58173e-09 1.12973e-09)
(-1.37751e-09 1.87204e-10 3.82915e-10)
(-1.71585e-09 1.95601e-10 6.91157e-10)
(-1.59869e-09 2.33953e-10 9.95728e-10)
(-1.16142e-09 2.70286e-10 1.21113e-09)
(-3.28971e-10 4.22199e-10 1.39078e-09)
(6.01941e-10 8.2817e-10 1.40501e-09)
(1.73976e-09 1.59168e-09 1.23099e-09)
(2.97424e-09 2.95612e-09 8.03168e-10)
(3.99996e-09 4.55517e-09 2.00504e-10)
)
;
    }
    procBoundary7to5
    {
        type            processor;
        value           nonuniform List<vector> 
44
(
(-4.27183e-09 2.57333e-10 8.33638e-10)
(-3.81554e-09 2.04018e-10 1.11387e-09)
(-2.76631e-09 1.05212e-10 1.35383e-09)
(-1.49207e-09 2.4608e-11 1.52196e-09)
(-2.09251e-10 -6.05387e-11 1.68929e-09)
(9.09804e-10 -1.47895e-10 1.82378e-09)
(1.86581e-09 -1.9556e-10 1.78806e-09)
(2.57772e-09 -2.7134e-11 1.80367e-09)
(-1.46347e-09 3.08032e-10 3.14043e-10)
(-1.63273e-09 2.76394e-10 5.89146e-10)
(-2.25563e-09 1.42807e-10 8.0012e-10)
(-1.70395e-09 7.02013e-11 1.00557e-09)
(-9.45382e-10 8.60939e-12 1.15853e-09)
(-1.24347e-10 -4.564e-11 1.2961e-09)
(6.34532e-10 -9.62541e-11 1.3814e-09)
(1.25666e-09 -1.07843e-10 1.34948e-09)
(1.63761e-09 -8.81151e-11 1.36091e-09)
(-1.46347e-09 3.08032e-10 3.14043e-10)
(-1.63273e-09 2.76394e-10 5.89146e-10)
(-1.63273e-09 2.76394e-10 5.89146e-10)
(-1.13839e-09 1.79454e-10 6.013e-10)
(-8.87318e-10 1.29962e-10 7.76475e-10)
(-7.26297e-10 -9.57111e-12 8.63278e-10)
(-1.87173e-10 -3.42971e-11 9.59718e-10)
(3.47281e-10 -5.02091e-11 1.00676e-09)
(7.64162e-10 -3.64536e-11 9.61927e-10)
(9.84748e-10 -6.03e-12 9.26514e-10)
(-1.07731e-09 2.51702e-10 2.07815e-10)
(-1.15556e-09 2.21664e-10 4.05884e-10)
(-1.13839e-09 1.79454e-10 6.013e-10)
(-8.87318e-10 1.29962e-10 7.76475e-10)
(-8.87318e-10 1.29962e-10 7.76475e-10)
(-5.15494e-10 9.50052e-11 7.18195e-10)
(-2.38688e-10 7.80435e-11 7.97976e-10)
(7.65824e-12 -2.44176e-11 7.70708e-10)
(1.88701e-10 -9.64541e-12 7.42528e-10)
(5.52887e-10 3.71984e-11 6.1028e-10)
(-8.07448e-10 2.09059e-10 1.68961e-10)
(-8.40994e-10 1.782e-10 3.1307e-10)
(-9.1503e-10 1.40522e-10 4.68498e-10)
(-7.46515e-10 1.14483e-10 6.04428e-10)
(-5.15494e-10 9.50052e-11 7.18195e-10)
(-2.38688e-10 7.80435e-11 7.97976e-10)
(-2.38688e-10 7.80435e-11 7.97976e-10)
)
;
    }
    procBoundary7to6
    {
        type            processor;
        value           nonuniform List<vector> 
12
(
(-1.00317e-09 3.02494e-10 1.40275e-10)
(-6.94402e-10 2.49499e-10 1.24957e-10)
(-7.12414e-10 2.04785e-10 1.17937e-10)
(-6.60275e-10 3.08216e-10 8.1292e-11)
(-4.5753e-10 2.67263e-10 8.63946e-11)
(-4.9131e-10 2.20026e-10 9.28668e-11)
(-5.00333e-10 2.99334e-10 5.05195e-11)
(-3.27486e-10 2.70046e-10 6.35662e-11)
(-3.35674e-10 2.22973e-10 7.17084e-11)
(-3.67923e-10 2.99193e-10 4.69492e-11)
(-2.46599e-10 2.69515e-10 6.10072e-11)
(-2.59457e-10 2.21548e-10 6.54069e-11)
)
;
    }
}


// ************************************************************************* //
