/*--------------------------------*- C++ -*----------------------------------*\
| =========                 |                                                 |
| \\      /  F ield         | OpenFOAM: The Open Source CFD Toolbox           |
|  \\    /   O peration     | Version:  4.x                                   |
|   \\  /    A nd           | Web:      www.OpenFOAM.org                      |
|    \\/     M anipulation  |                                                 |
\*---------------------------------------------------------------------------*/
FoamFile
{
    version     2.0;
    format      ascii;
    class       volScalarField;
    location    "37.5";
    object      KslPrev;
}
// * * * * * * * * * * * * * * * * * * * * * * * * * * * * * * * * * * * * * //

dimensions      [1 -3 -1 0 0 0 0];

internalField   nonuniform List<scalar> 
132
(
1e+10
3816.45
1e+10
3782.89
1e+10
3802.47
1e+10
4187.17
21764.6
1.35954e+09
3855.38
1e+10
3883.52
66876.9
3941.4
16405.8
4131.87
6680.27
16298.2
3466.47
16854.6
3312.13
15606.2
3129.64
12509.2
2790.75
9855.72
6810.08
3081.7
7068.92
2983.74
7765.94
2896.57
9188.27
2692.52
11512.4
1e+10
3756.16
1e+10
3755.26
1e+10
4059.09
14442.1
1e+10
3885.64
1e+10
3790.35
1e+10
3701.86
1e+10
3646.1
29651.1
676545
3792.04
1e+10
3861.6
1e+10
4152.21
1e+10
5018.07
20220.4
8946.66
3323.64
11056.5
3336.33
15346.2
3382.78
21181.1
3482.1
27686
33603.8
3430.56
17380.5
3519.54
6476.84
3.05247e+06
3743.06
1e+10
3740.68
1e+10
3858.3
59666.5
4132.77
8452.21
15691.2
3461.74
17337.1
3275.02
16871.1
2983.34
14055.5
2529.73
9276.49
6444.14
3069.69
6687.22
3018.87
7349.87
2920.01
8989.36
2653.66
14073.3
8515.01
2405.09
8815.54
9245.62
3276.74
10548.6
3219.34
11665.7
3098.11
12259
2861.03
13677.4
6678.05
3080.33
7066.48
3057.51
8044.01
2930.5
9757.59
2762.98
15174.8
5095.06
2867.28
5252.66
2888.04
5693.5
2888.92
6164.13
3130.71
5987.32
)
;

boundaryField
{
    inlet
    {
        type            zeroGradient;
    }
    outlet
    {
        type            zeroGradient;
    }
    wall
    {
        type            zeroGradient;
    }
    procBoundary7to0
    {
        type            processor;
        value           uniform 0;
    }
    procBoundary7to1
    {
        type            processor;
        value           uniform 0;
    }
    procBoundary7to3
    {
        type            processor;
        value           uniform 0;
    }
    procBoundary7to5
    {
        type            processor;
        value           uniform 0;
    }
    procBoundary7to6
    {
        type            processor;
        value           uniform 0;
    }
}


// ************************************************************************* //
