/*--------------------------------*- C++ -*----------------------------------*\
| =========                 |                                                 |
| \\      /  F ield         | OpenFOAM: The Open Source CFD Toolbox           |
|  \\    /   O peration     | Version:  4.x                                   |
|   \\  /    A nd           | Web:      www.OpenFOAM.org                      |
|    \\/     M anipulation  |                                                 |
\*---------------------------------------------------------------------------*/
FoamFile
{
    version     2.0;
    format      ascii;
    class       volScalarField;
    location    "37.5";
    object      p;
}
// * * * * * * * * * * * * * * * * * * * * * * * * * * * * * * * * * * * * * //

dimensions      [1 -1 -2 0 0 0 0];

internalField   nonuniform List<scalar> 
132
(
21.3137
74.745
2.84945
68.1997
-15.5599
62.4079
-33.9266
57.0317
-49.8834
21.0013
74.7402
2.50756
67.9492
-15.5144
61.115
-33.1056
54.6705
-48.7529
19.3675
74.6503
-0.0842332
68.1476
-19.9819
62.5452
-40.8416
59.2702
-62.2338
19.7735
74.7143
0.496868
68.4117
-19.2434
62.856
-40.0058
59.1335
-61.1725
-1874.17
-1809.76
-1892.46
-1815.45
-1910.52
-1821.38
-1927.14
-1855.69
-1803.23
-1873.81
-1809.56
-1892.01
-1815.36
-1910.27
-1821.12
-1928.08
-1857.11
-1803.25
-1875.45
-1809.71
-1893.33
-1815.58
-1910.56
-1821.64
-1925.03
-1857.24
-1802.93
-1875.83
-1809.17
-1894.43
-1815.08
-1912.93
-1820.55
-1929.99
-3773.1
-3694.02
-3792
-3699.14
-3809.53
-3734.67
-3681.11
-3753.06
-3687.75
-3771.29
-3694.54
-3788.8
-3701.37
-3804.37
-3735.21
-3681.07
-3754.17
-3687.72
-3773.95
-3693.6
-3794.62
-3697.61
-3817.32
-3735.13
-3681.04
-3753.84
-3687.36
-3772.78
-3693.15
-3792.58
-3697.74
-3813.34
-5672.82
-5575.01
-5696.02
-5612.76
-5558.9
-5631.46
-5565.46
-5650.68
-5571.53
-5669.96
-5576.65
-5689.93
-5612.98
-5558.94
-5631.59
-5565.28
-5650.74
-5571.01
-5670.19
-5575.52
-5690.35
-5612.8
-5558.9
-5631.37
-5565.14
-5650.03
-5571.07
-5668.44
-5576.51
-5685.12
)
;

boundaryField
{
    inlet
    {
        type            calculated;
        value           nonuniform 0();
    }
    outlet
    {
        type            calculated;
        value           nonuniform List<scalar> 
16
(
0
0
0
0
-1877.91
-1877.91
-1877.91
-1877.91
-3755.83
-3755.83
-3755.83
-3755.83
-5633.74
-5633.74
-5633.74
-5633.74
)
;
    }
    wall
    {
        type            calculated;
        value           nonuniform List<scalar> 
66
(
-6551.72
-6551.94
-6551.76
-6497.85
-6497.9
-6497.86
-6570.41
-6570.54
-6570.32
-6504.41
-6504.24
-6504.1
-6589.63
-6589.7
-6588.99
-6510.48
-6509.97
-6510.03
-6611.77
-6608.91
-6609.15
-6607.4
-6513.96
-6515.6
-6514.47
-6515.47
-6634.5
-6628.4
-6628.35
-6623.56
19.7735
-1857.24
-3735.13
-5612.8
74.7143
-1802.93
-3681.04
-5558.9
0.496867
-1875.83
-3753.84
-5631.37
68.4117
-1809.17
-3687.36
-5565.14
-19.2434
-1894.43
-3772.78
-5650.03
62.856
-1815.08
-3693.15
-5571.07
-40.0058
-1912.93
-3792.58
-5668.44
59.1335
-1820.55
-3697.74
-5576.51
-61.1725
-1929.99
-3813.34
-5685.12
)
;
    }
    procBoundary7to0
    {
        type            processor;
        value           uniform 81.7028;
    }
    procBoundary7to1
    {
        type            processor;
        value           uniform 22.1922;
    }
    procBoundary7to3
    {
        type            processor;
        value           nonuniform List<scalar> 
36
(
1896.96
1952.5
1877.82
1946.05
1858.74
1940.74
1840.21
1936.43
1823.76
1898.47
1952.46
1880.09
1946.38
1862.05
1941.04
1844.02
1935.82
1827.69
1897.34
1952.63
1878.08
1946
1858.71
1940.32
1838.94
1936.24
1821.28
1897.42
1952.61
1878.3
1946.59
1858.3
1941.38
1836.68
1938.14
1811.36
)
;
    }
    procBoundary7to5
    {
        type            processor;
        value           nonuniform List<scalar> 
44
(
74.9352
4.5979
68.3381
-12.7997
61.8139
-29.5376
53.7317
-44.5579
-1856.21
-1803.3
-1875.45
-1809.68
-1894.22
-1815.5
-1913.1
-1820.18
-1930.86
-1856.21
-1803.3
-1803.3
-3754.05
-3687.9
-3772.19
-3694.54
-3790.06
-3701.29
-3805.76
-3735.18
-3681.07
-3754.05
-3687.9
-3687.9
-5652
-5571.14
-5673.75
-5574.84
-5698.15
-5613.27
-5559.04
-5632.26
-5565.43
-5652
-5571.14
-5571.14
)
;
    }
    procBoundary7to6
    {
        type            processor;
        value           nonuniform List<scalar> 
12
(
81.9285
81.571
81.5198
-1796.28
-1796.09
-1796.21
-3673.78
-3674.05
-3674.2
-5552.02
-5552.14
-5552.18
)
;
    }
}


// ************************************************************************* //
