/*--------------------------------*- C++ -*----------------------------------*\
| =========                 |                                                 |
| \\      /  F ield         | OpenFOAM: The Open Source CFD Toolbox           |
|  \\    /   O peration     | Version:  4.x                                   |
|   \\  /    A nd           | Web:      www.OpenFOAM.org                      |
|    \\/     M anipulation  |                                                 |
\*---------------------------------------------------------------------------*/
FoamFile
{
    version     2.0;
    format      ascii;
    class       volScalarField;
    location    "37.5";
    object      QPartFluid;
}
// * * * * * * * * * * * * * * * * * * * * * * * * * * * * * * * * * * * * * //

dimensions      [1 -1 -3 0 0 0 0];

internalField   nonuniform List<scalar> 
132
(
9.97155e+09
9.08285e+09
6.39793e+09
7.93844e+09
1.1066e+10
1.24817e+10
7.98728e+09
6.54177e+09
6.2055e+09
7.43271e+09
1.13603e+10
7.38717e+09
8.12442e+09
8.40461e+09
6.94769e+09
7.96589e+09
7.71913e+09
6.91081e+09
5.23962e+09
9.40439e+09
6.88029e+09
8.95964e+09
8.30538e+09
1.05221e+10
8.66978e+09
9.18326e+09
6.92714e+09
7.05775e+09
7.51796e+09
8.94516e+09
5.97775e+09
7.91088e+09
8.02777e+09
8.0569e+09
7.03604e+09
3.61567e+09
6.54963e+09
8.66049e+09
7.00283e+09
8.2269e+09
8.82902e+09
9.92865e+09
6.14973e+09
3.84015e+09
1.01083e+10
7.30952e+09
8.87497e+09
8.63638e+09
8.30745e+09
5.68566e+09
9.07523e+09
4.60385e+09
6.00058e+09
1.01506e+10
7.53918e+09
7.31674e+09
8.20607e+09
1.05335e+10
9.50683e+09
8.36537e+09
6.22035e+09
6.77191e+09
8.68225e+09
6.15599e+09
8.08313e+09
7.15389e+09
6.7514e+09
6.2247e+09
8.73306e+09
4.06384e+09
5.08241e+09
7.29011e+09
8.3091e+09
7.68472e+09
4.72143e+09
8.53566e+09
9.14413e+09
7.07093e+09
6.50753e+09
9.12589e+09
8.81184e+09
7.78622e+09
1.07123e+10
6.89174e+09
8.19522e+09
9.49039e+09
8.61231e+09
8.99563e+09
9.24968e+09
9.87843e+09
8.81297e+09
9.26088e+09
6.7619e+09
6.03502e+09
7.33932e+09
7.19882e+09
8.11985e+09
6.44946e+09
6.78241e+09
8.05475e+09
8.10954e+09
4.93432e+09
5.90944e+09
8.16479e+09
4.90442e+09
7.27446e+09
7.00156e+09
7.4847e+09
8.6687e+09
5.15067e+09
4.95334e+09
6.97861e+09
7.91426e+09
4.4421e+09
6.33176e+09
6.78705e+09
6.32558e+09
7.77786e+09
7.28144e+09
7.13435e+09
7.50916e+09
7.66212e+09
5.91759e+09
6.09664e+09
8.28815e+09
5.89859e+09
7.15261e+09
7.28194e+09
6.96362e+09
6.42398e+09
6.98652e+09
3.54034e+09
)
;

boundaryField
{
    inlet
    {
        type            calculated;
        value           nonuniform 0();
    }
    outlet
    {
        type            calculated;
        value           uniform 0;
    }
    wall
    {
        type            calculated;
        value           uniform 0;
    }
    procBoundary7to0
    {
        type            processor;
        value           uniform 2.59215e+09;
    }
    procBoundary7to1
    {
        type            processor;
        value           uniform 5.87906e+09;
    }
    procBoundary7to3
    {
        type            processor;
        value           nonuniform List<scalar> 
36
(
8.1464e+09
1.09478e+10
9.10832e+09
1.0288e+10
6.52839e+09
7.75523e+09
9.01903e+09
8.37145e+09
6.87688e+09
9.54456e+09
6.16808e+09
8.12795e+09
5.00834e+09
4.36965e+09
9.43597e+09
7.61173e+09
1.0662e+10
5.13045e+09
6.05026e+09
1.03471e+10
9.22454e+09
7.29758e+09
7.43893e+09
1.00248e+10
8.15823e+09
9.37235e+09
5.1149e+09
8.82086e+09
4.90616e+09
5.8444e+09
7.03797e+09
6.51297e+09
8.70632e+09
6.49932e+09
9.68529e+09
7.66962e+09
)
;
    }
    procBoundary7to5
    {
        type            processor;
        value           nonuniform List<scalar> 
44
(
9.94245e+09
6.13449e+09
8.70292e+09
5.87153e+09
5.29968e+09
7.42327e+09
6.23183e+09
6.67935e+09
1.02664e+10
5.07727e+09
7.29237e+09
9.13198e+09
6.16879e+09
8.4395e+09
7.28257e+09
8.12683e+09
4.5099e+09
1.02664e+10
5.07727e+09
5.07727e+09
9.60657e+09
9.98448e+09
1.13695e+10
9.28015e+09
9.10453e+09
1.102e+10
8.32044e+09
5.313e+09
1.17359e+10
9.60657e+09
9.98448e+09
9.98448e+09
1.04174e+10
8.56419e+09
7.04032e+09
8.23876e+09
6.47514e+09
7.19316e+09
6.482e+09
7.33218e+09
6.74513e+09
1.04174e+10
8.56419e+09
8.56419e+09
)
;
    }
    procBoundary7to6
    {
        type            processor;
        value           nonuniform List<scalar> 
12
(
8.07416e+09
8.92473e+09
5.6106e+09
9.95243e+09
9.39763e+09
8.80203e+09
9.56326e+09
9.9722e+09
6.88578e+09
4.53548e+09
8.47374e+09
7.19301e+09
)
;
    }
}


// ************************************************************************* //
