/*--------------------------------*- C++ -*----------------------------------*\
| =========                 |                                                 |
| \\      /  F ield         | OpenFOAM: The Open Source CFD Toolbox           |
|  \\    /   O peration     | Version:  4.x                                   |
|   \\  /    A nd           | Web:      www.OpenFOAM.org                      |
|    \\/     M anipulation  |                                                 |
\*---------------------------------------------------------------------------*/
FoamFile
{
    version     2.0;
    format      ascii;
    class       volVectorField;
    location    "37.5";
    object      Urel;
}
// * * * * * * * * * * * * * * * * * * * * * * * * * * * * * * * * * * * * * //

dimensions      [0 1 -1 0 0 0 0];

internalField   nonuniform List<vector> 
132
(
(-0.0175599 1.74996e-05 0.000202827)
(-0.019501 -1.29025e-05 0.000153936)
(-0.0174822 -1.74494e-06 0.000108202)
(-0.0194247 -3.6032e-05 3.56372e-05)
(-0.0173309 -1.8943e-06 -9.72604e-06)
(-0.0191154 -2.27009e-05 -0.000150535)
(-0.0168298 2.42448e-05 -0.000133991)
(-0.0180949 9.8485e-05 -0.000356023)
(-0.0159902 -7.30584e-05 1.15192e-05)
(-0.0178634 -2.63507e-05 0.000235854)
(-0.0197924 -1.99481e-05 0.000195934)
(-0.0177872 -6.76886e-06 0.00016176)
(-0.0197129 -1.01114e-05 0.000103813)
(-0.0177381 -5.47633e-05 9.19783e-05)
(-0.0194749 -6.74258e-05 -3.10705e-05)
(-0.0174539 -0.000280845 4.98449e-05)
(-0.0185622 -0.000180689 -0.000138989)
(-0.0164815 -0.00111265 0.000141522)
(-0.0191416 -9.14381e-05 0.000342357)
(-0.02091 -3.73766e-05 0.000295431)
(-0.0190763 -3.22245e-05 0.000316256)
(-0.0209063 3.64769e-05 0.000272449)
(-0.0189709 -6.9154e-05 0.000329692)
(-0.0207621 2.12276e-05 0.000245469)
(-0.0185361 -0.000341383 0.000430841)
(-0.0199185 -0.000192678 0.000194516)
(-0.016858 -0.00132471 0.000825394)
(-0.0207415 -4.87411e-05 0.000458173)
(-0.022186 5.64638e-06 0.000428478)
(-0.0206692 5.75135e-05 0.000468184)
(-0.0221556 0.000101574 0.000418929)
(-0.0203953 6.42021e-05 0.000524042)
(-0.0219016 4.81422e-05 0.000411437)
(-0.019634 -0.000159084 0.000685758)
(-0.0208876 -0.000315113 0.000429617)
(-0.0172978 -0.000850074 0.00127866)
(-0.017341 4.35382e-05 3.08358e-05)
(-0.0192987 5.09135e-05 -4.49828e-05)
(-0.0172098 6.89972e-05 -0.000105714)
(-0.0190312 9.19177e-05 -0.00026142)
(-0.0167684 0.000123451 -0.000346926)
(-0.0181317 0.000108099 -0.000554665)
(-0.0160006 0.000295747 -0.000918479)
(-0.0176191 4.76904e-06 0.000147129)
(-0.0195183 2.51259e-05 0.000128247)
(-0.0175201 3.9945e-05 0.000102532)
(-0.0194315 6.21336e-05 7.30883e-05)
(-0.0173619 5.86838e-05 1.46811e-05)
(-0.0191491 6.156e-05 -7.29819e-05)
(-0.0168949 1.9784e-05 -0.000156065)
(-0.0182741 -7.22637e-06 -0.000349784)
(-0.0158824 -0.000222734 -0.000464891)
(-0.0185786 -3.98504e-05 0.000219407)
(-0.0203964 2.24407e-05 0.000210896)
(-0.0184256 3.8682e-05 0.000203897)
(-0.0202203 9.7419e-05 0.000180933)
(-0.0181679 6.67791e-05 0.000161401)
(-0.0197861 0.000104361 8.88689e-05)
(-0.0175283 1.33175e-06 6.55118e-05)
(-0.0186019 2.36614e-05 -0.000110837)
(-0.016188 -0.000430135 -9.21532e-05)
(-0.0201705 -5.22323e-05 0.000320392)
(-0.0215849 2.93333e-05 0.000304453)
(-0.0198984 5.42909e-05 0.000339917)
(-0.0213452 0.000130024 0.000303775)
(-0.019412 8.39247e-05 0.00033457)
(-0.0208185 0.000127473 0.000248064)
(-0.0185035 1.0621e-05 0.000293435)
(-0.0195271 4.4062e-05 6.63869e-05)
(-0.0164576 -0.000322654 0.000174554)
(-0.0180482 0.000173157 -0.000207569)
(-0.019857 0.000209412 -0.000314229)
(-0.0177774 0.000305631 -0.000627509)
(-0.0190741 0.000332691 -0.000741806)
(-0.0167319 0.00055245 -0.00200217)
(-0.0182477 2.77e-05 6.61349e-05)
(-0.0200883 5.37662e-05 8.07398e-05)
(-0.018112 8.94342e-05 5.10473e-05)
(-0.0199648 0.00014048 2.13887e-05)
(-0.0179201 0.000166178 -5.33082e-05)
(-0.0196518 0.000238958 -0.000158673)
(-0.0175018 0.000226369 -0.000326551)
(-0.0187699 0.00031339 -0.000504662)
(-0.0164788 -9.20446e-05 -0.00121754)
(-0.0194203 -4.04991e-05 0.000122427)
(-0.0210282 2.2672e-05 0.000144092)
(-0.019246 6.01794e-05 0.000140403)
(-0.0209231 0.000141056 0.000144195)
(-0.0189768 0.000143813 7.53344e-05)
(-0.0206538 0.000285372 4.23452e-05)
(-0.0183787 0.000184326 -0.000122692)
(-0.0198214 0.000416498 -0.000180451)
(-0.0166297 -0.000143937 -0.00081279)
(-0.0208436 -3.80892e-05 0.000187178)
(-0.0221306 3.10224e-05 0.000190984)
(-0.0206347 9.88765e-05 0.000223663)
(-0.0219149 0.000176342 0.000209182)
(-0.0201666 0.00022938 0.000211209)
(-0.0214052 0.000297465 0.00015091)
(-0.0191857 0.000335712 0.000109107)
(-0.0202126 0.000327799 -9.97206e-05)
(-0.0169038 0.000301633 -0.000404307)
(-0.0191723 0.000543555 -0.000658843)
(-0.020704 0.000440531 -0.000742742)
(-0.0172467 0.00100307 -0.00191303)
(-0.019663 7.43896e-05 4.12311e-07)
(-0.0211253 0.000107975 3.81115e-05)
(-0.0194461 0.000165223 1.83371e-05)
(-0.0209975 0.000216075 2.42957e-05)
(-0.019149 0.000293295 -8.01478e-05)
(-0.0207099 0.000346999 -7.79633e-05)
(-0.0185724 0.000456752 -0.000341592)
(-0.0198668 0.000428134 -0.000351415)
(-0.0167432 0.000643201 -0.00114021)
(-0.0206435 -1.4254e-05 7.72989e-05)
(-0.0219442 3.93896e-05 0.000113555)
(-0.0204238 0.00010361 0.00014852)
(-0.0217428 0.000185282 0.000173188)
(-0.0199762 0.000257841 0.000158998)
(-0.0212904 0.000351716 0.000140622)
(-0.0190925 0.000422602 6.03641e-05)
(-0.0201779 0.000479775 -0.000120727)
(-0.0169589 0.000568287 -0.000373088)
(-0.0217086 -1.17504e-05 0.000134712)
(-0.0228522 4.88153e-05 0.000164868)
(-0.0214923 0.000118121 0.000208101)
(-0.022568 0.00018998 0.0002277)
(-0.0209424 0.000276038 0.000249233)
(-0.0218874 0.000329925 0.000208326)
(-0.0198425 0.000461622 0.000215798)
(-0.0203492 0.000436704 -4.44751e-05)
(-0.017816 0.00082607 -7.19354e-05)
)
;

boundaryField
{
    inlet
    {
        type            calculated;
        value           nonuniform 0();
    }
    outlet
    {
        type            calculated;
        value           nonuniform List<vector> 
16
(
(-0.00462205 -0.00141933 0.000970746)
(-0.0109595 -0.0100802 -0.000624914)
(-0.00544444 -0.00706639 0.00417909)
(-0.00532797 0.000261751 0.0065005)
(-0.00630898 0.00120981 -0.00231527)
(-0.00316815 0.000454071 -0.000142936)
(-0.00507846 -0.0010008 -0.000308615)
(-0.00339431 -0.00148069 -0.000268915)
(-0.00973313 0.00136413 -0.011596)
(-0.00883993 -0.0050713 -0.00490317)
(-0.0062475 -0.00478815 -0.00642722)
(-0.00558996 0.00188833 -0.00292892)
(-0.00766291 0.00514341 -0.00635202)
(-0.00522385 0.00271828 -0.00344322)
(-0.00556843 0.00201832 0.00158218)
(-0.0150268 0.00448403 0.00177927)
)
;
    }
    wall
    {
        type            calculated;
        value           nonuniform List<vector> 
66
(
(2.14168e-09 -5.78909e-10 8.07613e-10)
(-2.48549e-10 -1.56689e-09 3.89015e-10)
(-3.08568e-10 -5.67915e-10 1.74229e-10)
(2.33332e-09 -8.521e-10 1.13379e-09)
(1.65054e-10 -1.18643e-09 4.36708e-10)
(-4.59356e-10 -6.58047e-10 3.18202e-10)
(2.03978e-09 -6.83954e-10 7.07012e-10)
(4.25177e-10 -1.26996e-09 3.60437e-10)
(-5.24236e-10 -5.63902e-10 2.24429e-11)
(2.14197e-09 -3.68839e-10 4.36198e-10)
(5.82402e-10 -7.48901e-10 2.06006e-10)
(-3.93083e-10 -3.31058e-10 1.09712e-10)
(2.60138e-09 -8.75393e-11 -3.62903e-10)
(6.52905e-10 -4.32139e-10 -3.00389e-10)
(-8.70004e-10 -2.09463e-08 -1.65368e-10)
(3.7339e-09 4.08327e-10 -1.2938e-09)
(1.21451e-09 -8.54834e-11 -7.50208e-10)
(-3.49921e-10 -2.94771e-10 -4.76353e-10)
(9.42632e-10 7.1071e-10 -1.67738e-09)
(2.54723e-09 3.5002e-10 -1.20916e-09)
(1.2251e-09 3.28208e-12 -6.02359e-10)
(-3.23681e-10 -1.96106e-10 -4.10091e-10)
(2.02348e-10 4.36144e-10 -2.60215e-09)
(1.83398e-09 1.01912e-09 -2.23805e-09)
(1.21542e-09 1.17663e-09 -1.05669e-09)
(-2.88169e-10 2.61662e-10 -6.26441e-10)
(1.17174e-09 1.27418e-10 -2.02805e-09)
(1.16121e-09 1.38815e-09 -2.33209e-09)
(8.27606e-10 2.32538e-09 -8.9398e-10)
(2.44686e-10 6.79195e-10 -1.1563e-09)
(-4.27211e-10 -2.94401e-09 2.33848e-10)
(-1.4271e-09 -1.48535e-09 3.55802e-10)
(-1.03553e-09 -6.21801e-10 6.77429e-10)
(-3.08568e-10 -5.67915e-10 1.74229e-10)
(-1.45338e-10 -1.52599e-09 6.15485e-10)
(-1.96526e-09 -1.6602e-09 4.92659e-10)
(-1.4819e-09 -8.20572e-10 5.93884e-10)
(-4.59356e-10 -6.58047e-10 3.18202e-10)
(-3.16171e-10 -1.58471e-09 9.05684e-10)
(-2.66199e-09 -2.18591e-09 2.21235e-10)
(-1.87091e-09 -6.38359e-10 5.82881e-10)
(-5.24236e-10 -5.63902e-10 2.24429e-11)
(-1.05578e-09 -1.37718e-09 1.50059e-10)
(-1.89448e-09 -7.87304e-10 8.11512e-11)
(-2.0935e-09 -5.93384e-10 2.45722e-10)
(-3.93083e-10 -3.31058e-10 1.09712e-10)
(-9.30647e-10 -1.09706e-09 -9.28449e-10)
(-2.16992e-09 -6.59247e-10 -1.80883e-10)
(-1.16726e-09 -4.76813e-10 -1.58512e-10)
(-8.70004e-10 -2.09463e-08 -1.65368e-10)
(-1.36334e-09 -7.64743e-10 -1.92266e-09)
(-2.39722e-09 -1.18873e-09 -1.63334e-09)
(-1.72535e-09 -6.68886e-10 -9.8659e-10)
(-3.49921e-10 -2.94771e-10 -4.76353e-10)
(-1.71585e-09 -4.71289e-10 -2.68275e-09)
(-2.35821e-09 -9.2824e-10 -1.447e-09)
(-1.82833e-09 -6.29502e-10 -1.09556e-09)
(-3.23681e-10 -1.96106e-10 -4.10091e-10)
(-1.21246e-09 9.61947e-10 -2.63031e-09)
(-1.76468e-09 8.53197e-10 -1.57699e-09)
(-2.88539e-10 5.34821e-10 -1.20733e-09)
(-2.88169e-10 2.61662e-10 -6.26441e-10)
(1.9069e-10 2.96408e-10 -9.96936e-10)
(4.15647e-10 9.62708e-10 -4.54468e-10)
(-2.51446e-10 8.08621e-10 -9.39632e-10)
(2.44686e-10 6.79195e-10 -1.1563e-09)
)
;
    }
    procBoundary7to0
    {
        type            processor;
        value           uniform (-0.0195634 3.35961e-05 0.000254479);
    }
    procBoundary7to1
    {
        type            processor;
        value           uniform (-0.0179408 4.85084e-05 0.000213046);
    }
    procBoundary7to3
    {
        type            processor;
        value           nonuniform List<vector> 
36
(
(-0.0186042 2.79099e-05 0.000322471)
(-0.0205373 7.90853e-06 0.00023637)
(-0.018509 3.50462e-06 0.000192863)
(-0.0204721 -1.80767e-06 7.69823e-05)
(-0.0183367 1.66095e-05 8.68662e-05)
(-0.0201257 2.61931e-05 -7.88941e-05)
(-0.0177809 6.54423e-05 0.000108704)
(-0.0190267 3.3947e-05 -8.53955e-05)
(-0.0166721 0.000233941 0.000932933)
(-0.0187834 -2.227e-05 0.000322011)
(-0.0207213 -1.1486e-05 0.000239215)
(-0.0187049 -1.40191e-05 0.000195465)
(-0.020662 -2.31894e-05 7.97891e-05)
(-0.0185806 -5.23681e-05 9.46003e-05)
(-0.0203872 -0.000115694 -7.07017e-05)
(-0.0180601 -0.000225444 0.000132188)
(-0.0192875 -0.000329464 1.73288e-05)
(-0.0167929 -0.000888843 0.000741693)
(-0.0198872 -8.01598e-05 0.000394363)
(-0.0217672 -3.90826e-05 0.000334048)
(-0.0198582 -1.7872e-05 0.000301825)
(-0.0218514 1.05441e-05 0.000218807)
(-0.0198574 -8.19666e-05 0.000272147)
(-0.0217888 -0.000115512 0.000161975)
(-0.0195753 -0.000523517 0.000496181)
(-0.0209041 -0.000597276 0.000404176)
(-0.0179499 -0.00222751 0.00154552)
(-0.0216868 -6.50324e-05 0.000507418)
(-0.023185 -1.43053e-05 0.000448411)
(-0.0217693 4.92911e-05 0.000461709)
(-0.0233385 0.000102412 0.000378874)
(-0.0216708 2.09537e-05 0.000496906)
(-0.0233333 -1.58529e-06 0.000384011)
(-0.0211421 -0.000392966 0.00077597)
(-0.0227432 -0.000600108 0.000742907)
(-0.0186866 -0.00183176 0.00202811)
)
;
    }
    procBoundary7to5
    {
        type            processor;
        value           nonuniform List<vector> 
44
(
(-0.0197844 -1.20306e-05 0.000158458)
(-0.017818 3.39901e-07 0.000111029)
(-0.0196499 -3.76416e-05 3.30912e-05)
(-0.017608 1.91356e-05 -1.23077e-05)
(-0.0192576 3.61362e-05 -0.000158889)
(-0.0170649 0.000167179 -0.000141731)
(-0.0182397 0.000267005 -0.000326249)
(-0.0162907 0.000549497 -3.44034e-05)
(-0.0174301 4.32133e-05 0.00010248)
(-0.0193522 4.04063e-05 7.09297e-05)
(-0.0177287 4.11289e-05 1.73393e-07)
(-0.0197068 2.09622e-05 -7.96913e-05)
(-0.0175785 6.38247e-05 -0.000153688)
(-0.0194637 8.98446e-05 -0.000313063)
(-0.017209 0.000234044 -0.000453963)
(-0.0185787 0.000218719 -0.000603384)
(-0.0163001 0.000826212 -0.0011464)
(-0.0174301 4.32133e-05 0.00010248)
(-0.0193522 4.04063e-05 7.09297e-05)
(-0.0193522 4.04063e-05 7.09297e-05)
(-0.0181039 0.000105242 -4.16372e-05)
(-0.0200216 0.000115891 -7.6646e-05)
(-0.0183798 0.000133142 -0.000249673)
(-0.0202015 0.000127705 -0.000372713)
(-0.0181264 0.000316393 -0.00067987)
(-0.0193725 0.000361058 -0.000874882)
(-0.0170056 0.000969813 -0.00216089)
(-0.0182153 8.38279e-05 2.95824e-06)
(-0.0200483 6.91552e-05 4.26092e-06)
(-0.0181039 0.000105242 -4.16372e-05)
(-0.0200216 0.000115891 -7.6646e-05)
(-0.0200216 0.000115891 -7.6646e-05)
(-0.0195481 0.000329502 -0.00023374)
(-0.0212244 0.000332874 -0.000273979)
(-0.0198758 0.000489157 -0.00090761)
(-0.0214195 0.000433843 -0.000874418)
(-0.0177334 0.00105691 -0.00238459)
(-0.0197523 0.000159409 -6.67891e-05)
(-0.0212219 0.00016894 -5.74385e-05)
(-0.0196715 0.000219684 -8.26286e-05)
(-0.0212576 0.000234898 -8.64204e-05)
(-0.0195481 0.000329502 -0.00023374)
(-0.0212244 0.000332874 -0.000273979)
(-0.0212244 0.000332874 -0.000273979)
)
;
    }
    procBoundary7to6
    {
        type            processor;
        value           nonuniform List<vector> 
12
(
(-0.019852 -4.56791e-05 0.000275012)
(-0.0208884 -0.000142906 0.000361978)
(-0.0221021 -0.000129376 0.000452543)
(-0.0196031 5.78992e-07 0.000177305)
(-0.0204979 -8.84139e-05 0.000238364)
(-0.0216703 -0.000125439 0.000304712)
(-0.020207 -1.0051e-07 6.41156e-05)
(-0.0211035 -0.00011286 9.42251e-05)
(-0.0221768 -0.000119684 0.000149088)
(-0.0212085 3.8572e-05 -3.87579e-05)
(-0.0220076 -7.82338e-05 2.91548e-05)
(-0.022891 -8.8574e-05 8.68279e-05)
)
;
    }
}


// ************************************************************************* //
