/*--------------------------------*- C++ -*----------------------------------*\
| =========                 |                                                 |
| \\      /  F ield         | OpenFOAM: The Open Source CFD Toolbox           |
|  \\    /   O peration     | Version:  4.x                                   |
|   \\  /    A nd           | Web:      www.OpenFOAM.org                      |
|    \\/     M anipulation  |                                                 |
\*---------------------------------------------------------------------------*/
FoamFile
{
    version     2.0;
    format      ascii;
    class       volScalarField;
    location    "13";
    object      nu;
}
// * * * * * * * * * * * * * * * * * * * * * * * * * * * * * * * * * * * * * //

dimensions      [0 2 -1 0 0 0 0];

internalField   nonuniform List<scalar> 
132
(
1.00029e-06
1.00025e-06
1.00018e-06
1.00008e-06
9.99974e-07
9.9986e-07
9.99791e-07
9.99752e-07
9.99281e-07
1.00023e-06
1.00021e-06
1.00014e-06
1.00005e-06
9.9995e-07
9.99854e-07
9.99765e-07
9.99693e-07
9.99193e-07
1.00026e-06
1.00025e-06
1.00019e-06
1.00012e-06
1.00002e-06
9.99968e-07
9.99853e-07
9.99847e-07
9.99383e-07
1.0002e-06
1.00029e-06
1.00037e-06
1.00046e-06
1.00051e-06
1.00056e-06
1.00049e-06
1.00048e-06
9.99819e-07
9.99993e-07
9.9988e-07
9.99762e-07
9.99689e-07
9.99694e-07
9.99705e-07
9.9951e-07
1.00012e-06
1.00006e-06
9.9996e-07
9.99869e-07
9.99774e-07
9.99708e-07
9.99648e-07
9.99621e-07
9.99202e-07
1.00015e-06
1.00012e-06
1.00004e-06
9.99971e-07
9.99873e-07
9.99834e-07
9.99746e-07
9.99767e-07
9.99512e-07
1.00016e-06
1.00021e-06
1.00026e-06
1.00031e-06
1.00033e-06
1.00036e-06
1.00032e-06
1.00029e-06
9.99937e-07
9.99841e-07
9.99762e-07
9.99668e-07
9.99704e-07
9.9933e-07
1.00014e-06
1.00011e-06
1.00007e-06
1.00001e-06
9.99938e-07
9.99877e-07
9.99787e-07
9.9974e-07
9.99468e-07
1.00013e-06
1.00011e-06
1.00006e-06
1.00002e-06
9.99977e-07
9.9996e-07
9.99918e-07
9.99929e-07
9.99536e-07
1.00011e-06
1.00014e-06
1.00017e-06
1.00021e-06
1.00022e-06
1.00024e-06
1.00021e-06
1.0002e-06
9.9881e-07
1.00015e-06
1.00011e-06
9.99039e-07
1.00015e-06
1.00017e-06
1.0002e-06
1.00021e-06
1.00018e-06
1.00012e-06
1.00003e-06
9.99957e-07
9.99576e-07
1.00012e-06
1.00015e-06
1.00017e-06
1.0002e-06
1.00022e-06
1.00022e-06
1.0002e-06
1.00018e-06
9.9997e-07
1.0001e-06
1.00013e-06
1.00016e-06
1.00019e-06
1.00022e-06
1.00023e-06
1.00024e-06
1.00024e-06
1.00049e-06
)
;

boundaryField
{
    inlet
    {
        type            calculated;
        value           nonuniform 0();
    }
    outlet
    {
        type            calculated;
        value           uniform 1e-06;
    }
    wall
    {
        type            calculated;
        value           nonuniform List<scalar> 
66
(
1.00015e-06
1.00012e-06
1.0001e-06
1.00017e-06
1.00015e-06
1.00013e-06
1.0002e-06
1.00017e-06
1.00016e-06
1.00021e-06
1.0002e-06
1.00019e-06
1.00018e-06
1.00022e-06
1.00022e-06
1.00012e-06
1.00022e-06
1.00023e-06
1.00015e-06
1.00003e-06
1.0002e-06
1.00024e-06
1.00011e-06
9.99957e-07
1.00018e-06
1.00024e-06
9.99039e-07
9.99576e-07
9.9997e-07
1.00049e-06
1.0002e-06
1.00016e-06
1.00011e-06
1.0001e-06
1.00029e-06
1.00021e-06
1.00014e-06
1.00013e-06
1.00037e-06
1.00026e-06
1.00017e-06
1.00016e-06
1.00046e-06
1.00031e-06
1.00021e-06
1.00019e-06
1.00051e-06
1.00033e-06
1.00022e-06
1.00022e-06
1.00056e-06
1.00036e-06
1.00024e-06
1.00023e-06
1.00049e-06
1.00032e-06
1.00021e-06
1.00024e-06
1.00048e-06
1.00029e-06
1.0002e-06
1.00024e-06
9.99819e-07
9.99937e-07
9.9881e-07
1.00049e-06
)
;
    }
    procBoundary7to0
    {
        type            processor;
        value           uniform 1.00028e-06;
    }
    procBoundary7to1
    {
        type            processor;
        value           uniform 1.00025e-06;
    }
    procBoundary7to3
    {
        type            processor;
        value           nonuniform List<scalar> 
36
(
1.00045e-06
1.00039e-06
1.00026e-06
1.00013e-06
1.00001e-06
9.99892e-07
9.99877e-07
1.00028e-06
9.98499e-07
1.00043e-06
1.00041e-06
1.0003e-06
1.00018e-06
1.00003e-06
9.999e-07
9.99797e-07
9.99744e-07
9.99081e-07
1.00046e-06
1.00047e-06
1.00037e-06
1.00026e-06
1.0001e-06
1.00002e-06
9.99879e-07
9.99884e-07
9.98426e-07
1.00037e-06
1.00049e-06
1.00059e-06
1.0007e-06
1.00076e-06
1.00081e-06
1.00078e-06
1.00074e-06
9.99709e-07
)
;
    }
    procBoundary7to5
    {
        type            processor;
        value           nonuniform List<scalar> 
44
(
1.00021e-06
1.00011e-06
9.99999e-07
9.99877e-07
9.9976e-07
9.99655e-07
9.99595e-07
9.99083e-07
1.00017e-06
1.00009e-06
9.99977e-07
9.99866e-07
9.99753e-07
9.99689e-07
9.99618e-07
9.99629e-07
9.99155e-07
1.00017e-06
1.00009e-06
1.00009e-06
1.00004e-06
9.9995e-07
9.99942e-07
9.99901e-07
9.99815e-07
9.9981e-07
9.99427e-07
1.00016e-06
1.00013e-06
1.00004e-06
9.9995e-07
9.9995e-07
1.0002e-06
1.00019e-06
1.00019e-06
1.00017e-06
9.9962e-07
1.00014e-06
1.00017e-06
1.00018e-06
1.00019e-06
1.0002e-06
1.00019e-06
1.00019e-06
)
;
    }
    procBoundary7to6
    {
        type            processor;
        value           nonuniform List<scalar> 
12
(
1.00024e-06
1.00024e-06
1.00014e-06
1.00017e-06
1.00016e-06
1.00012e-06
1.00014e-06
1.00013e-06
1.00009e-06
1.00011e-06
1.00009e-06
1.00008e-06
)
;
    }
}


// ************************************************************************* //
