/*--------------------------------*- C++ -*----------------------------------*\
| =========                 |                                                 |
| \\      /  F ield         | OpenFOAM: The Open Source CFD Toolbox           |
|  \\    /   O peration     | Version:  4.x                                   |
|   \\  /    A nd           | Web:      www.OpenFOAM.org                      |
|    \\/     M anipulation  |                                                 |
\*---------------------------------------------------------------------------*/
FoamFile
{
    version     2.0;
    format      ascii;
    class       volScalarField;
    location    "13";
    object      pSmooth;
}
// * * * * * * * * * * * * * * * * * * * * * * * * * * * * * * * * * * * * * //

dimensions      [1 -1 -2 0 0 0 0];

internalField   nonuniform List<scalar> 
132
(
123.484
116.657
85.7654
76.9122
45.6016
59.9792
18.4812
52.0412
0.349186
122.997
115.697
84.6381
77.2866
44.9928
61.1254
17.9859
55.1506
0.315257
121.591
114.182
83.4921
76.7643
45.3894
60.3276
17.8308
54.2473
0.335659
121.585
114.223
83.5292
77.2523
45.7023
62.2951
17.6775
58.8705
0.473354
85.3064
76.4267
47.4154
59.3552
18.5946
50.1842
0.335024
121.421
114.027
84.4009
76.5217
46.703
59.7458
18.1938
51.8718
0.366971
121.981
114.183
84.0728
76.2197
46.8171
59.5957
18.1477
51.6522
0.462803
121.85
113.445
84.1205
76.4282
46.9612
59.7554
18.1303
52.8204
0.414806
47.2437
60.6189
18.6756
48.9213
0.327481
121.383
113.96
83.6366
77.4619
46.7447
61.2724
18.4268
54.6208
0.365623
121.416
113.858
83.5448
77.1741
46.7986
59.8368
18.4074
52.1042
0.397605
121.763
113.934
83.5953
77.2361
46.5593
60.7084
18.524
56.4042
0.558535
18.5313
50.2179
0.342633
121.585
113.445
83.7415
76.7866
46.9477
60.2163
18.5823
52.4912
0.431421
121.833
113.871
83.7045
76.8896
47.0322
58.8158
18.5507
51.2414
0.417552
121.956
113.51
83.7844
77.0023
47.1182
59.5963
18.6891
52.9032
0.394707
)
;

boundaryField
{
    inlet
    {
        type            zeroGradient;
    }
    outlet
    {
        type            fixedValue;
        value           uniform 0;
    }
    wall
    {
        type            zeroGradient;
    }
    procBoundary7to0
    {
        type            processor;
        value           uniform 149.913;
    }
    procBoundary7to1
    {
        type            processor;
        value           uniform 124.656;
    }
    procBoundary7to3
    {
        type            processor;
        value           nonuniform List<scalar> 
36
(
125.123
118.179
88.8879
74.9855
45.4196
59.4588
18.0418
52.109
0.1
123.481
117.106
85.5932
74.8607
44.7507
59.2294
17.6792
52.3794
0.23673
122.552
114.729
84.5456
75.6729
45.0865
59.7929
17.1681
53.6921
0.693262
121.805
114.14
83.9461
76.182
45.8075
62.6524
16.8864
58.0053
0.238881
)
;
    }
    procBoundary7to5
    {
        type            processor;
        value           nonuniform List<scalar> 
44
(
117.568
86.4345
78.9512
45.8899
61.1495
18.826
54.4776
0.363124
122.809
115.571
85.6547
77.5431
47.352
59.439
18.9654
52.4001
0.344698
122.809
115.571
115.571
84.1825
76.7672
47.082
61.3101
19.004
55.3676
0.3484
121.761
114.125
84.1825
76.7672
76.7672
46.7487
58.4984
18.7185
53.9792
0.303354
121.481
114.065
83.9297
76.586
46.7487
58.4984
58.4984
)
;
    }
    procBoundary7to6
    {
        type            processor;
        value           nonuniform List<scalar> 
12
(
149.858
148.386
147.757
144.848
148.994
147.032
149.205
148.642
148.384
147.069
148.391
148.173
)
;
    }
}


// ************************************************************************* //
