/*--------------------------------*- C++ -*----------------------------------*\
| =========                 |                                                 |
| \\      /  F ield         | OpenFOAM: The Open Source CFD Toolbox           |
|  \\    /   O peration     | Version:  4.x                                   |
|   \\  /    A nd           | Web:      www.OpenFOAM.org                      |
|    \\/     M anipulation  |                                                 |
\*---------------------------------------------------------------------------*/
FoamFile
{
    version     2.0;
    format      ascii;
    class       volScalarField;
    location    "13";
    object      QPartFluidCoeff;
}
// * * * * * * * * * * * * * * * * * * * * * * * * * * * * * * * * * * * * * //

dimensions      [1 -1 -3 -1 0 0 0];

internalField   nonuniform List<scalar> 
132
(
-3.24133e+07
-2.90145e+07
-2.07052e+07
-2.57796e+07
-3.74303e+07
-4.12897e+07
-2.84653e+07
-2.19461e+07
-2.20235e+07
-2.48919e+07
-3.76339e+07
-2.54683e+07
-2.69932e+07
-3.1047e+07
-2.4092e+07
-2.80311e+07
-2.69657e+07
-2.38222e+07
-1.99609e+07
-3.06093e+07
-2.3683e+07
-3.00832e+07
-2.9152e+07
-3.57889e+07
-3.09268e+07
-3.15294e+07
-2.63515e+07
-1.83477e+07
-2.6767e+07
-3.08465e+07
-2.01608e+07
-2.74778e+07
-2.81438e+07
-2.89468e+07
-2.5682e+07
-1.37354e+07
-1.95495e+07
-2.74106e+07
-2.16546e+07
-2.58782e+07
-2.85483e+07
-3.21295e+07
-2.07126e+07
-1.20199e+07
-3.11109e+07
-2.2401e+07
-2.87324e+07
-2.89252e+07
-2.74114e+07
-1.91305e+07
-3.00808e+07
-1.62026e+07
-2.02971e+07
-3.42459e+07
-2.49523e+07
-2.31722e+07
-2.80827e+07
-3.57834e+07
-3.33708e+07
-2.88325e+07
-2.21543e+07
-1.93319e+07
-3.0879e+07
-2.12772e+07
-2.72482e+07
-2.57269e+07
-2.30992e+07
-2.31583e+07
-3.0549e+07
-1.57236e+07
-1.63253e+07
-2.17563e+07
-2.1725e+07
-2.2537e+07
-1.35067e+07
-2.84038e+07
-2.91642e+07
-2.36232e+07
-2.12285e+07
-2.97349e+07
-2.83284e+07
-2.45115e+07
-3.47441e+07
-2.16603e+07
-2.68187e+07
-3.11317e+07
-2.8588e+07
-2.9737e+07
-3.28911e+07
-3.28645e+07
-3.0764e+07
-3.0617e+07
-2.45713e+07
-2.00702e+07
-2.41576e+07
-2.45006e+07
-2.73846e+07
-2.29824e+07
-2.34965e+07
-2.93191e+07
-2.93427e+07
-1.96487e+07
-1.90064e+07
-2.37683e+07
-1.60769e+07
-2.48289e+07
-2.28892e+07
-2.51273e+07
-2.7879e+07
-1.68005e+07
-1.54798e+07
-2.13239e+07
-2.34362e+07
-1.43819e+07
-2.19075e+07
-2.25458e+07
-2.17359e+07
-2.56113e+07
-2.55475e+07
-2.38737e+07
-2.58277e+07
-2.49674e+07
-2.13696e+07
-2.1402e+07
-2.69133e+07
-1.99901e+07
-2.38455e+07
-2.55865e+07
-2.38783e+07
-2.30416e+07
-2.48653e+07
-1.39781e+07
)
;

boundaryField
{
    inlet
    {
        type            calculated;
        value           nonuniform 0();
    }
    outlet
    {
        type            calculated;
        value           uniform 0;
    }
    wall
    {
        type            calculated;
        value           uniform 0;
    }
    procBoundary7to0
    {
        type            processor;
        value           uniform 185.843;
    }
    procBoundary7to1
    {
        type            processor;
        value           uniform 441.68;
    }
    procBoundary7to3
    {
        type            processor;
        value           nonuniform List<scalar> 
36
(
498.225
740.529
595.835
694.896
447.697
576.969
673.388
615.487
539.734
693.106
458.61
631.859
385.049
360.996
740.288
618.539
863.129
423.847
507.092
783.371
706.962
552.797
587.831
781.657
644.17
745.621
383.692
464.573
349.338
450.137
531.987
512.405
662.903
522.391
748.706
611.551
)
;
    }
    procBoundary7to5
    {
        type            processor;
        value           nonuniform List<scalar> 
44
(
739.871
453.127
657.073
484.355
413.347
569.971
517.762
521.455
714.453
371.657
569.602
675.102
471.748
616.094
546.039
600.301
339.844
714.453
371.657
371.657
712.351
704.332
863.686
690.017
675.011
815.592
603.411
286.418
856.458
712.351
704.332
704.332
777.861
598.663
530.519
588.114
492.488
546.16
471.934
580.284
492.712
777.861
598.663
598.663
)
;
    }
    procBoundary7to6
    {
        type            processor;
        value           nonuniform List<scalar> 
12
(
584.67
656.704
418.619
599.39
671.802
662.601
673.449
719.41
516.179
342.024
639.563
536.201
)
;
    }
}


// ************************************************************************* //
