/*--------------------------------*- C++ -*----------------------------------*\
| =========                 |                                                 |
| \\      /  F ield         | OpenFOAM: The Open Source CFD Toolbox           |
|  \\    /   O peration     | Version:  4.x                                   |
|   \\  /    A nd           | Web:      www.OpenFOAM.org                      |
|    \\/     M anipulation  |                                                 |
\*---------------------------------------------------------------------------*/
FoamFile
{
    version     2.0;
    format      ascii;
    class       volScalarField;
    location    "13";
    object      QPartFluid;
}
// * * * * * * * * * * * * * * * * * * * * * * * * * * * * * * * * * * * * * //

dimensions      [1 -1 -3 0 0 0 0];

internalField   nonuniform List<scalar> 
132
(
9.72398e+09
8.70433e+09
6.21155e+09
7.73387e+09
1.12291e+10
1.23869e+10
8.53959e+09
6.58382e+09
6.60704e+09
7.46756e+09
1.12901e+10
7.64049e+09
8.09794e+09
9.31409e+09
7.2276e+09
8.40933e+09
8.0897e+09
7.14665e+09
5.98828e+09
9.18277e+09
7.10489e+09
9.02496e+09
8.74558e+09
1.07367e+10
9.27802e+09
9.45881e+09
7.90545e+09
5.5043e+09
8.0301e+09
9.25395e+09
6.04824e+09
8.24333e+09
8.44313e+09
8.68403e+09
7.70457e+09
4.12062e+09
5.86484e+09
8.22317e+09
6.49637e+09
7.76346e+09
8.56447e+09
9.63883e+09
6.21376e+09
3.60597e+09
9.33325e+09
6.72029e+09
8.61972e+09
8.67754e+09
8.22342e+09
5.73913e+09
9.02423e+09
4.86076e+09
6.08914e+09
1.02738e+10
7.48568e+09
6.95166e+09
8.42481e+09
1.0735e+10
1.00112e+10
8.64974e+09
6.64629e+09
5.79957e+09
9.2637e+09
6.38316e+09
8.17445e+09
7.71805e+09
6.92976e+09
6.94748e+09
9.16468e+09
4.71707e+09
4.8976e+09
6.52688e+09
6.51748e+09
6.76107e+09
4.052e+09
8.52113e+09
8.74923e+09
7.08694e+09
6.36853e+09
8.92045e+09
8.49851e+09
7.35344e+09
1.04232e+10
6.49809e+09
8.0456e+09
9.3395e+09
8.5764e+09
8.92109e+09
9.86732e+09
9.85934e+09
9.22918e+09
9.18507e+09
7.37137e+09
6.02106e+09
7.24728e+09
7.35019e+09
8.21536e+09
6.89471e+09
7.04896e+09
8.79573e+09
8.80279e+09
5.8946e+09
5.7019e+09
7.13049e+09
4.82305e+09
7.44867e+09
6.86677e+09
7.53819e+09
8.3637e+09
5.04014e+09
4.64392e+09
6.39716e+09
7.03086e+09
4.31456e+09
6.57225e+09
6.76374e+09
6.52077e+09
7.68338e+09
7.66423e+09
7.1621e+09
7.7483e+09
7.49019e+09
6.41088e+09
6.42061e+09
8.074e+09
5.99703e+09
7.15363e+09
7.67593e+09
7.16347e+09
6.91246e+09
7.45958e+09
4.19342e+09
)
;

boundaryField
{
    inlet
    {
        type            calculated;
        value           nonuniform 0();
    }
    outlet
    {
        type            calculated;
        value           uniform 0;
    }
    wall
    {
        type            calculated;
        value           uniform 0;
    }
    procBoundary7to0
    {
        type            processor;
        value           uniform 2.45871e+09;
    }
    procBoundary7to1
    {
        type            processor;
        value           uniform 5.84342e+09;
    }
    procBoundary7to3
    {
        type            processor;
        value           nonuniform List<scalar> 
36
(
6.59151e+09
9.79719e+09
7.88289e+09
9.19347e+09
5.92303e+09
7.63331e+09
8.90892e+09
8.14289e+09
7.14065e+09
9.16977e+09
6.0674e+09
8.35947e+09
5.09419e+09
4.77598e+09
9.794e+09
8.18326e+09
1.14192e+10
5.60748e+09
6.70881e+09
1.0364e+10
9.35308e+09
7.31349e+09
7.77699e+09
1.03413e+10
8.52235e+09
9.86454e+09
5.07623e+09
6.1463e+09
4.62174e+09
5.9553e+09
7.03818e+09
6.77911e+09
8.77019e+09
6.91122e+09
9.90536e+09
8.0908e+09
)
;
    }
    procBoundary7to5
    {
        type            processor;
        value           nonuniform List<scalar> 
44
(
9.78849e+09
5.99486e+09
8.69307e+09
6.40801e+09
5.46857e+09
7.54071e+09
6.84998e+09
6.89884e+09
9.4522e+09
4.91701e+09
7.53583e+09
8.93159e+09
6.24121e+09
8.15091e+09
7.22408e+09
7.94196e+09
4.49613e+09
9.4522e+09
4.91701e+09
4.91701e+09
9.42439e+09
9.31829e+09
1.14265e+10
9.12891e+09
8.93038e+09
1.07903e+10
7.98312e+09
3.78931e+09
1.13309e+10
9.42439e+09
9.31829e+09
9.31829e+09
1.02911e+10
7.9203e+09
7.01876e+09
7.78074e+09
6.51561e+09
7.2257e+09
6.24368e+09
7.67715e+09
6.51857e+09
1.02911e+10
7.9203e+09
7.9203e+09
)
;
    }
    procBoundary7to6
    {
        type            processor;
        value           nonuniform List<scalar> 
12
(
7.73518e+09
8.68818e+09
5.53832e+09
7.92993e+09
8.88794e+09
8.7662e+09
8.90973e+09
9.5178e+09
6.82905e+09
4.52497e+09
8.46142e+09
7.09394e+09
)
;
    }
}


// ************************************************************************* //
