/*--------------------------------*- C++ -*----------------------------------*\
| =========                 |                                                 |
| \\      /  F ield         | OpenFOAM: The Open Source CFD Toolbox           |
|  \\    /   O peration     | Version:  4.x                                   |
|   \\  /    A nd           | Web:      www.OpenFOAM.org                      |
|    \\/     M anipulation  |                                                 |
\*---------------------------------------------------------------------------*/
FoamFile
{
    version     2.0;
    format      ascii;
    class       volScalarField;
    location    "13";
    object      Qsource;
}
// * * * * * * * * * * * * * * * * * * * * * * * * * * * * * * * * * * * * * //

dimensions      [1 -1 -3 0 0 0 0];

internalField   nonuniform List<scalar> 
132
(
9.72398e+09
8.70433e+09
6.21155e+09
7.73387e+09
1.12291e+10
1.23869e+10
8.53959e+09
6.58382e+09
6.60704e+09
7.46756e+09
1.12901e+10
7.64049e+09
8.09794e+09
9.31409e+09
7.2276e+09
8.40933e+09
8.0897e+09
7.14665e+09
5.98828e+09
9.18277e+09
7.10489e+09
9.02496e+09
8.74558e+09
1.07367e+10
9.27802e+09
9.45881e+09
7.90545e+09
6.07178e+09
8.91363e+09
9.83265e+09
6.97689e+09
8.83177e+09
9.46403e+09
9.22651e+09
8.92203e+09
4.66639e+09
5.86484e+09
8.22317e+09
6.49637e+09
7.76346e+09
8.56447e+09
9.63883e+09
6.21376e+09
3.60597e+09
9.33325e+09
6.72029e+09
8.61972e+09
8.67754e+09
8.22342e+09
5.73913e+09
9.02423e+09
4.86076e+09
6.08914e+09
1.02738e+10
7.48568e+09
6.95166e+09
8.42481e+09
1.0735e+10
1.00112e+10
8.64974e+09
6.64629e+09
6.29031e+09
1.00622e+10
6.83195e+09
8.981e+09
8.13471e+09
7.745e+09
7.34073e+09
9.95068e+09
5.07464e+09
4.8976e+09
6.52688e+09
6.51748e+09
6.76107e+09
4.052e+09
8.52113e+09
8.74923e+09
7.08694e+09
6.36853e+09
8.92045e+09
8.49851e+09
7.35344e+09
1.04232e+10
6.49809e+09
8.0456e+09
9.3395e+09
8.5764e+09
8.92109e+09
9.86732e+09
9.85934e+09
9.22918e+09
9.18507e+09
7.37137e+09
6.61573e+09
8.11636e+09
7.94862e+09
9.11702e+09
7.4949e+09
8.03154e+09
9.36444e+09
9.9695e+09
6.43298e+09
6.16223e+09
7.86247e+09
5.22457e+09
7.88286e+09
7.64045e+09
7.91139e+09
9.12646e+09
5.33591e+09
5.37267e+09
6.57144e+09
7.66672e+09
4.54953e+09
7.15165e+09
7.59713e+09
7.08887e+09
8.51137e+09
8.1902e+09
7.98118e+09
8.21112e+09
8.26082e+09
6.81691e+09
7.68695e+09
9.82381e+09
7.28319e+09
8.944e+09
8.95979e+09
9.02409e+09
8.18902e+09
9.42857e+09
5.63046e+09
)
;

boundaryField
{
    inlet
    {
        type            calculated;
        value           nonuniform 0();
    }
    outlet
    {
        type            calculated;
        value           uniform 0;
    }
    wall
    {
        type            calculated;
        value           uniform 0;
    }
    procBoundary7to0
    {
        type            processor;
        value           uniform 2.45871e+09;
    }
    procBoundary7to1
    {
        type            processor;
        value           uniform 5.84342e+09;
    }
    procBoundary7to3
    {
        type            processor;
        value           nonuniform List<scalar> 
36
(
6.59151e+09
9.79719e+09
7.88289e+09
9.19347e+09
5.92303e+09
7.63331e+09
8.90892e+09
8.14289e+09
7.14065e+09
9.16977e+09
6.0674e+09
8.35947e+09
5.09419e+09
4.77598e+09
9.794e+09
8.18326e+09
1.14192e+10
5.60748e+09
6.70881e+09
1.0364e+10
9.35308e+09
7.31349e+09
7.77699e+09
1.03413e+10
8.52235e+09
9.86454e+09
5.07623e+09
6.73276e+09
5.48988e+09
6.55246e+09
7.94283e+09
7.3617e+09
9.72927e+09
7.44656e+09
1.09477e+10
8.50512e+09
)
;
    }
    procBoundary7to5
    {
        type            processor;
        value           nonuniform List<scalar> 
44
(
9.78849e+09
5.99486e+09
8.69307e+09
6.40801e+09
5.46857e+09
7.54071e+09
6.84998e+09
6.89884e+09
9.4522e+09
4.91701e+09
7.53583e+09
8.93159e+09
6.24121e+09
8.15091e+09
7.22408e+09
7.94196e+09
4.49613e+09
9.4522e+09
4.91701e+09
4.91701e+09
9.42439e+09
9.31829e+09
1.14265e+10
9.12891e+09
8.93038e+09
1.07903e+10
7.98312e+09
3.78931e+09
1.13309e+10
9.42439e+09
9.31829e+09
9.31829e+09
1.08016e+10
8.69344e+09
7.5025e+09
8.65226e+09
6.89959e+09
7.75451e+09
7.048e+09
8.20199e+09
7.32348e+09
1.08016e+10
8.69344e+09
8.69344e+09
)
;
    }
    procBoundary7to6
    {
        type            processor;
        value           nonuniform List<scalar> 
12
(
7.73518e+09
8.68818e+09
6.39273e+09
7.92993e+09
8.88794e+09
9.57861e+09
8.90973e+09
9.5178e+09
7.67843e+09
5.31745e+09
9.28707e+09
8.8312e+09
)
;
    }
}


// ************************************************************************* //
