/*--------------------------------*- C++ -*----------------------------------*\
| =========                 |                                                 |
| \\      /  F ield         | OpenFOAM: The Open Source CFD Toolbox           |
|  \\    /   O peration     | Version:  4.x                                   |
|   \\  /    A nd           | Web:      www.OpenFOAM.org                      |
|    \\/     M anipulation  |                                                 |
\*---------------------------------------------------------------------------*/
FoamFile
{
    version     2.0;
    format      ascii;
    class       volVectorField;
    location    "13";
    object      UsPrev;
}
// * * * * * * * * * * * * * * * * * * * * * * * * * * * * * * * * * * * * * //

dimensions      [0 1 -1 0 0 0 0];

internalField   nonuniform List<vector> 
132
(
(0.000407264 3.16626e-05 9.19714e-05)
(0.000401668 1.73596e-05 9.79431e-05)
(0.000396507 1.61633e-05 0.000107579)
(0.000377864 -2.66575e-05 5.84367e-05)
(0.000399575 -3.47148e-06 2.12397e-05)
(0.000309617 2.65665e-06 8.48077e-06)
(0.000304196 -4.39569e-06 -8.49297e-05)
(0.000208394 1.06107e-05 -8.52495e-05)
(4.44029e-05 -1.84259e-05 -5.58513e-06)
(0.000405192 5.52706e-05 5.4773e-05)
(0.000413908 3.61575e-05 4.20627e-05)
(0.000389162 -2.07394e-06 5.7051e-05)
(0.000347767 -1.30087e-05 2.45331e-05)
(0.000377628 -3.34801e-05 -2.65905e-05)
(0.00033517 -7.38651e-05 -2.67341e-05)
(0.000312378 -8.54881e-05 -7.52504e-05)
(0.000206077 -2.50403e-05 -5.54738e-05)
(7.13811e-05 4.6061e-06 -7.68934e-06)
(0.000356993 6.76289e-05 3.05767e-05)
(0.000341523 4.22274e-05 -1.89371e-05)
(0.000356587 9.62732e-06 1.12228e-05)
(0.000332242 -3.36929e-05 -5.54399e-06)
(0.000322532 -4.85922e-05 -1.94165e-05)
(0.000266849 -3.46601e-05 2.92639e-06)
(0.000229482 -3.16947e-05 -1.13166e-05)
(0.000128565 4.03555e-05 -3.70016e-05)
(2.39052e-05 3.92004e-05 -1.57824e-05)
(0.000275103 -4.24274e-05 -2.67853e-06)
(0.00027709 2.06143e-06 3.44828e-05)
(0.000278645 3.85254e-05 -1.00666e-05)
(0.000271803 -3.08232e-05 -2.26304e-05)
(0.000209133 -2.01283e-05 -2.1075e-05)
(0.000191489 -4.60481e-05 3.04147e-05)
(0.000110672 7.61234e-06 1.28714e-05)
(3.51422e-05 3.37995e-05 -1.36513e-05)
(-9.42174e-06 1.50213e-05 1.41653e-05)
(0.00041016 -4.99451e-06 0.000125187)
(0.000424678 -3.75046e-05 6.66726e-05)
(0.000482253 -3.93016e-05 -8.13899e-06)
(0.000447415 -4.94551e-05 -8.06423e-07)
(0.000366061 -4.72474e-05 -6.0034e-05)
(0.000204638 6.58408e-06 -5.14746e-05)
(3.5995e-05 -1.17169e-05 8.27126e-06)
(0.000429366 8.88387e-05 9.22718e-05)
(0.000410742 7.31637e-05 9.3206e-05)
(0.000393828 -7.84351e-06 6.72806e-05)
(0.000370131 -3.58153e-05 4.07237e-05)
(0.000381795 -4.90697e-05 -2.06005e-05)
(0.000348294 -7.26271e-05 -4.27151e-05)
(0.000284719 -8.12741e-05 -7.07213e-05)
(0.000202223 -3.20525e-05 -4.86332e-05)
(5.96085e-05 7.46664e-06 -5.48344e-06)
(0.000363944 8.06344e-05 6.34984e-05)
(0.000340832 -2.27288e-05 3.05373e-05)
(0.000336969 3.45636e-05 1.56261e-05)
(0.000341421 -4.60274e-05 1.57184e-06)
(0.00035045 -6.62356e-05 -1.94581e-05)
(0.000301758 -5.73942e-05 -2.6885e-06)
(0.000219154 -7.60109e-05 -9.62166e-06)
(8.42161e-05 4.55974e-07 -2.10747e-05)
(4.98097e-06 3.2059e-05 8.14851e-08)
(0.000296847 -1.90817e-05 1.05564e-05)
(0.000278454 -2.43503e-05 4.26402e-05)
(0.000326145 9.95946e-05 -1.7057e-05)
(0.000309057 -4.61697e-05 -3.47856e-05)
(0.000216299 -1.94331e-05 -1.85494e-05)
(0.000211998 -5.92417e-06 4.24492e-05)
(0.000168705 -1.743e-05 1.99874e-05)
(1.33022e-05 2.85612e-06 -5.17269e-07)
(4.06855e-06 2.32523e-05 4.30586e-06)
(0.000392393 -4.53889e-05 3.15174e-05)
(0.000379331 -1.21707e-05 4.6803e-05)
(0.000284205 -4.76099e-05 5.83501e-06)
(0.000156801 -6.98393e-06 2.80876e-05)
(4.75122e-05 1.31204e-05 2.37262e-05)
(0.000293833 7.57124e-05 7.14513e-05)
(0.000365597 8.68901e-05 8.42884e-05)
(0.000282326 1.78523e-05 6.63705e-05)
(0.000309747 -2.01243e-05 3.91398e-05)
(0.000327732 -2.07599e-05 1.68901e-05)
(0.000303525 -2.22376e-05 -1.10581e-05)
(0.000217024 -8.32968e-05 -4.71468e-05)
(0.000120419 -4.82266e-05 -3.20218e-05)
(2.93482e-05 2.63042e-05 -2.84301e-06)
(0.000233737 5.9365e-05 6.77201e-06)
(0.000294989 -4.86367e-05 8.65079e-05)
(0.000292301 3.25838e-05 1.22497e-05)
(0.000223274 -6.61955e-06 7.30318e-06)
(0.000243381 -1.2496e-05 1.4535e-05)
(0.000255214 -1.79925e-05 -4.06885e-06)
(0.000142525 -8.25545e-05 -1.21472e-06)
(1.99031e-05 -2.62827e-05 2.31453e-05)
(-4.46043e-06 1.98274e-05 9.29539e-06)
(0.000149785 4.83358e-05 -1.43789e-05)
(0.000173101 3.49478e-05 1.41841e-05)
(0.000342889 -1.22353e-05 -3.82496e-05)
(0.000197125 -1.85284e-05 1.32718e-05)
(8.93481e-05 -2.09951e-05 2.87897e-05)
(0.000134294 -6.91218e-05 1.58684e-05)
(8.92043e-05 -3.10411e-05 2.25051e-05)
(-4.96429e-05 -2.41591e-06 -8.66062e-06)
(-2.39112e-05 1.2286e-05 -1.19957e-05)
(0.000219173 2.46766e-05 7.02348e-05)
(0.000162206 -3.2761e-06 3.9039e-05)
(1.76048e-05 2.86047e-06 2.97991e-05)
(0.000110016 0.000104501 1.52967e-06)
(0.000192595 8.2381e-05 4.05283e-05)
(0.000165445 3.39882e-05 3.562e-05)
(0.000199228 1.63852e-06 1.44157e-05)
(0.000195666 3.06755e-05 7.89448e-07)
(0.000241263 -2.63966e-05 -2.7934e-05)
(0.000172268 -5.82713e-05 4.99493e-05)
(0.000102425 -1.9173e-05 8.73456e-06)
(-9.58031e-06 -2.90077e-06 1.31097e-06)
(5.48618e-05 4.55917e-05 1.86268e-05)
(7.93871e-05 3.40981e-05 2.09681e-05)
(0.000132923 3.27732e-05 7.70579e-06)
(0.000111188 -2.24146e-05 1.79565e-05)
(0.000104132 7.07821e-06 5.60331e-06)
(9.20078e-05 -1.42966e-05 -2.28758e-05)
(5.26383e-05 -4.54821e-05 1.07436e-05)
(4.84111e-07 -6.35105e-07 1.21117e-05)
(-1.55378e-05 1.38668e-05 8.32934e-06)
(8.78133e-05 -3.84419e-06 4.64159e-07)
(6.13548e-05 -7.13961e-06 -2.78257e-05)
(0.000161706 -1.37608e-05 -5.23707e-05)
(9.1478e-05 -1.72151e-05 3.3203e-05)
(7.62216e-05 -2.32194e-05 1.51903e-05)
(4.2218e-05 -2.4812e-05 -7.84186e-06)
(1.38502e-05 -2.53352e-05 4.94916e-07)
(-1.19005e-05 1.38832e-05 1.31709e-06)
(-2.72019e-05 1.77768e-05 6.38431e-06)
)
;

boundaryField
{
    inlet
    {
        type            calculated;
        value           nonuniform 0();
    }
    outlet
    {
        type            calculated;
        value           uniform (0 0 0);
    }
    wall
    {
        type            calculated;
        value           uniform (0 0 0);
    }
    procBoundary7to0
    {
        type            processor;
        value           uniform (0 0 0);
    }
    procBoundary7to1
    {
        type            processor;
        value           uniform (0 0 0);
    }
    procBoundary7to3
    {
        type            processor;
        value           uniform (0 0 0);
    }
    procBoundary7to5
    {
        type            processor;
        value           uniform (0 0 0);
    }
    procBoundary7to6
    {
        type            processor;
        value           uniform (0 0 0);
    }
}


// ************************************************************************* //
