/*--------------------------------*- C++ -*----------------------------------*\
  =========                 |
  \\      /  F ield         | OpenFOAM: The Open Source CFD Toolbox
   \\    /   O peration     | Website:  https://openfoam.org
    \\  /    A nd           | Version:  4.x
     \\/     M anipulation  |
\*---------------------------------------------------------------------------*/
FoamFile
{
    version     2.0;
    format      ascii;
    class       Cloud<passiveParticle>;
    location    0;
    object      positions;
}
// * * * * * * * * * * * * * * * * * * * * * * * * * * * * * * * * * * * * * //

407
(
( 0.258234 -0.00232067 0.0071654 ) 0
( 0.254416 0.036313 0.00410463 ) 9
( 0.260061 0.0751804 -0.0115028 ) 27
( 0.259398 0.0469628 0.0238911 ) 52
( 0.262299 0.0894683 0.0154049 ) 61
( 0.250805 0.0131548 -0.00387259 ) 0
( 0.30932 -0.00716556 0.0175793 ) 36
( 0.335566 -0.00729127 0.0174828 ) 37
( 0.467303 -0.00659054 -0.00274909 ) 7
( 0.386378 -0.014088 0.0128383 ) 4
( 0.439587 -0.00882629 -0.00443208 ) 6
( 0.398304 -0.00655504 0.0265477 ) 39
( 0.420209 -0.0111197 -0.00555173 ) 6
( 0.400538 -0.0119294 -0.00720259 ) 5
( 0.409152 -0.00887153 0.0103935 ) 5
( 0.322336 -0.00645008 0.00309954 ) 2
( 0.471688 -0.01209 0.0157448 ) 41
( 0.294132 0.00295918 0.0100857 ) 1
( 0.490171 -0.0125468 -0.0113097 ) 8
( 0.366701 -0.0128607 0.013536 ) 4
( 0.485924 -0.000563745 0.0040124 ) 8
( 0.35908 -0.003446 -0.0070548 ) 3
( 0.419349 -0.011109 0.0273477 ) 40
( 0.307019 -0.0127582 -0.00739439 ) 2
( 0.429102 -0.00399383 0.0116671 ) 6
( 0.452847 -0.0100042 0.010225 ) 7
( 0.379849 -0.0126078 -0.00566073 ) 4
( 0.311915 0.0461072 0.0294734 ) 54
( 0.281404 0.0837428 0.0157072 ) 62
( 0.486894 0.02763 0.02144 ) 51
( 0.344075 0.0700648 -0.00227906 ) 21
( 0.459027 0.0599114 -0.00737124 ) 25
( 0.420821 0.0522429 0.021166 ) 58
( 0.380319 0.0560092 -0.00641839 ) 22
( 0.300417 0.0547207 -0.0119462 ) 19
( 0.352527 0.0132248 0.00118542 ) 3
( 0.30164 0.0187106 0.000369688 ) 10
( 0.39288 0.0669899 0.00379243 ) 23
( 0.284602 0.0216884 -0.0128971 ) 10
( 0.368292 0.0207294 0.0159979 ) 47
( 0.398537 0.0834866 0.0130672 ) 32
( 0.437382 0.0260642 0.00860281 ) 15
( 0.468762 0.0167075 0.0149696 ) 50
( 0.421737 0.0219798 -0.00305733 ) 15
( 0.376641 0.00382377 0.0107677 ) 4
( 0.415277 0.0573206 0.00318613 ) 23
( 0.296737 0.0519088 0.0182003 ) 53
( 0.345395 0.0251004 -0.0132808 ) 12
( 0.330177 0.0278374 0.0186878 ) 45
( 0.299352 0.0886727 0.0230152 ) 62
( 0.442362 0.0693961 -0.0040803 ) 24
( 0.326587 0.0329194 0.000287099 ) 11
( 0.360132 0.0718282 0.009315 ) 30
( 0.364731 0.0549433 0.0291948 ) 56
( 0.431315 0.0392517 -0.00525897 ) 15
( 0.31392 0.0906439 -0.0107966 ) 29
( 0.336824 0.0470817 -0.00896023 ) 21
( 0.399285 0.0499992 -0.00558517 ) 23
( 0.315802 0.0491327 -0.00118346 ) 20
( 0.34891 0.0222151 0.0184849 ) 46
( 0.428137 0.0576448 -0.0119615 ) 24
( 0.287872 0.0477331 0.00127193 ) 19
( 0.387686 0.0447407 0.00946406 ) 22
( 0.314323 0.0599397 0.0155977 ) 54
( 0.490839 0.0630031 -0.00976478 ) 26
( 0.4492 0.0447079 0.000733097 ) 25
( 0.349093 0.0726525 0.0253628 ) 64
( 0.447672 0.0904994 0.018156 ) 68
( 0.471551 0.0906144 0.0117049 ) 34
( 0.312731 0.0183063 0.0164604 ) 45
( 0.274364 0.0389858 -0.0100213 ) 9
( 0.452625 0.0597687 0.013119 ) 25
( 0.332444 0.0899624 -0.00444247 ) 29
( 0.411677 0.0902204 9.04338e-05 ) 32
( 0.483978 0.0451232 -0.00914931 ) 26
( 0.390425 0.0332759 -0.0112049 ) 14
( 0.329945 0.0421222 0.0360845 ) 45
( 0.375741 0.00468078 -0.0138028 ) 4
( 0.460376 0.00112657 0.0246379 ) 41
( 0.308136 0.0724546 -0.0130966 ) 29
( 0.287297 0.0670597 -0.0031264 ) 19
( 0.399071 0.0128925 0.0254545 ) 39
( 0.490455 0.0184106 0.00464066 ) 17
( 0.299344 0.0723203 0.0116784 ) 28
( 0.274975 0.00812161 0.00955749 ) 0
( 0.358843 0.0901357 0.0017675 ) 30
( 0.438428 0.041476 0.0208033 ) 49
( 0.412147 0.010579 0.010036 ) 5
( 0.339109 0.0556848 0.0252614 ) 55
( 0.319119 0.0903904 0.0102444 ) 29
( 0.468041 0.0470784 0.0145219 ) 59
( 0.473301 0.0128406 -0.00370863 ) 8
( 0.278768 0.0476815 0.0243547 ) 53
( 0.31894 0.0171163 -0.00912148 ) 11
( 0.402785 0.0256817 0.00196426 ) 14
( 0.357822 0.0901799 0.0215379 ) 64
( 0.406918 0.0692431 -0.00967277 ) 23
( 0.364733 0.021164 -0.0121672 ) 13
( 0.380827 0.0775864 0.0369151 ) 65
( 0.413013 0.0263891 0.0234736 ) 48
( 0.465182 0.0398283 -0.00894996 ) 16
( 0.485398 0.0783225 0.000793459 ) 35
( 0.426633 0.0122808 0.0228908 ) 40
( 0.434315 0.0554084 0.00726795 ) 24
( 0.490023 0.00824832 0.0214582 ) 42
( 0.369755 0.0349363 0.00213613 ) 13
( 0.433906 0.0765364 0.0152293 ) 67
( 0.326081 0.074966 0.0202368 ) 63
( 0.477222 0.032577 0.00449787 ) 17
( 0.381076 0.0189838 -0.00137129 ) 13
( 0.394944 0.00324736 0.00420901 ) 5
( 0.269809 0.0713516 0.00539129 ) 18
( 0.287149 0.0174121 0.0216825 ) 44
( 0.269293 0.0317209 0.0163376 ) 43
( 0.37744 0.0789513 0.00344187 ) 31
( 0.370031 0.0531402 0.0100375 ) 22
( 0.374316 0.0383826 0.022758 ) 47
( 0.475916 0.060265 0.00232229 ) 26
( 0.321866 0.0732737 0.000886319 ) 29
( 0.361305 0.052166 -0.00990477 ) 22
( 0.333141 0.0146673 0.00443172 ) 11
( 0.26914 0.0493457 0.00669534 ) 18
( 0.306655 0.0363371 0.0108934 ) 11
( 0.291893 0.083575 -0.0133541 ) 28
( 0.403278 0.043521 0.0215063 ) 57
( 0.438107 0.0894431 0.000731754 ) 33
( 0.346251 0.035131 0.00380288 ) 12
( 0.486095 0.0261466 -0.0129618 ) 17
( 0.409879 0.00562312 -0.00911288 ) 5
( 0.440287 0.0105798 -0.0032566 ) 6
( 0.405238 0.0641176 0.0186063 ) 57
( 0.425303 0.0902837 -0.0141912 ) 33
( 0.267738 0.0226688 -0.00134683 ) 9
( 0.393888 0.0842005 -0.00647803 ) 32
( 0.490175 0.00702777 -0.0137177 ) 8
( 0.373332 0.0904877 -0.0118363 ) 31
( 0.489904 0.0679215 0.0172487 ) 60
( 0.416755 0.038167 0.00797029 ) 15
( 0.353134 0.0106073 0.0336689 ) 37
( 0.27693 0.0902759 -0.00230461 ) 27
( 0.298748 0.0352952 -0.0096761 ) 10
( 0.388264 0.0259057 0.0155192 ) 47
( 0.26736 0.0736917 0.0265819 ) 61
( 0.35084 0.0540519 0.00746052 ) 21
( 0.471386 0.0901139 -0.00789326 ) 34
( 0.467676 0.0719848 0.0153184 ) 68
( 0.455844 0.0318011 0.0143323 ) 50
( 0.283531 0.00262533 -0.00711855 ) 1
( 0.444539 0.00860508 0.0160466 ) 41
( 0.285494 0.028673 0.00568903 ) 10
( 0.418777 0.0892105 0.0187359 ) 67
( 0.454747 0.0238924 -0.00363885 ) 16
( 0.42385 0.0748502 -0.0017783 ) 33
( 0.34312 0.0273955 0.036875 ) 46
( 0.254105 0.0609851 0.011644 ) 18
( 0.300264 0.0902673 0.00339096 ) 28
( 0.340736 0.0859497 0.0129211 ) 30
( 0.302042 0.00509367 -0.0137565 ) 1
( 0.49047 0.049335 0.00907898 ) 26
( 0.394203 0.0908499 0.0306144 ) 66
( 0.364628 0.0717323 -0.00997277 ) 31
( 0.490576 0.0902268 0.015164 ) 69
( 0.257657 -0.00485054 -0.0122697 ) 0
( 0.275472 -0.0115583 0.0105488 ) 0
( 0.307828 0.0725371 0.0311157 ) 63
( 0.353342 0.00102094 0.0166716 ) 37
( 0.339637 -0.00143379 -0.00478732 ) 3
( 0.338317 0.0902309 0.0320115 ) 64
( 0.456077 0.0816245 0.00298111 ) 34
( 0.317486 0.0273455 0.0333156 ) 45
( 0.490198 0.048296 0.0288098 ) 60
( 0.328145 0.00925614 0.0246716 ) 36
( 0.45852 0.0477122 0.0321714 ) 59
( 0.2834 0.0385209 0.0410596 ) 44
( 0.436592 0.0666667 0.0444415 ) 90
( 0.331761 0.0575754 0.00705616 ) 20
( 0.363251 -0.00486641 0.0411423 ) 38
( 0.254274 0.0363145 0.0525351 ) 75
( 0.472455 -0.00323035 0.0457915 ) 74
( 0.318202 0.0509949 0.0496252 ) 86
( 0.301917 0.090466 0.0424209 ) 62
( 0.382489 0.0618834 0.0479578 ) 88
( 0.354959 0.0843434 0.053662 ) 96
( 0.490342 0.0327039 0.0595718 ) 83
( 0.433869 -0.00719421 0.0483322 ) 72
( 0.43016 0.0897021 0.0516714 ) 99
( 0.364261 0.0559808 0.052551 ) 88
( 0.352222 0.0411468 0.0223054 ) 46
( 0.284886 0.0898954 0.0541618 ) 94
( 0.475752 0.0231569 0.0497856 ) 83
( 0.26769 0.0494511 0.0459958 ) 84
( 0.393103 0.014011 0.0624768 ) 71
( 0.468587 0.0901701 0.0487676 ) 100
( 0.417413 -0.000687705 0.0572506 ) 72
( 0.443309 0.0273878 0.0509667 ) 81
( 0.364037 0.0342516 0.0540239 ) 79
( 0.413984 0.0522864 0.0544562 ) 89
( 0.455146 0.0609648 0.0467738 ) 91
( 0.285751 0.0516512 0.0564342 ) 85
( 0.405741 0.0864685 0.0555677 ) 98
( 0.270218 0.0249926 0.0533063 ) 75
( 0.254915 0.0604127 0.0563138 ) 84
( 0.405235 0.0356511 0.0601831 ) 80
( 0.344405 0.0332088 0.05579 ) 78
( 0.490524 0.0903312 0.0544447 ) 101
( 0.398021 -0.00473707 0.0586377 ) 71
( 0.419917 0.0707286 0.0690441 ) 90
( 0.382035 0.0400812 0.0598773 ) 79
( 0.286276 0.067678 0.0259123 ) 53
( 0.426473 0.0361899 0.0558156 ) 81
( 0.375895 0.0808108 0.0556481 ) 97
( 0.376799 0.00343537 0.0596449 ) 70
( 0.377335 0.0887357 0.0208517 ) 65
( 0.312619 0.0302046 0.060462 ) 77
( 0.333943 0.0765038 0.0610163 ) 96
( 0.268772 0.0728672 0.0633787 ) 93
( 0.474102 0.0646289 0.0479885 ) 92
( 0.345551 0.0612927 0.0650929 ) 87
( 0.461342 0.00238826 0.0606472 ) 73
( 0.450225 0.0905207 0.0563315 ) 100
( 0.443363 0.00830588 0.0552456 ) 72
( 0.311573 0.06973 0.0522506 ) 86
( 0.389751 0.0556763 0.0304553 ) 57
( 0.490251 -0.00518432 0.0539754 ) 74
( 0.400806 0.0664891 0.053271 ) 89
( 0.474611 0.0441753 0.0619858 ) 92
( 0.418708 0.0729979 0.0490271 ) 99
( 0.455067 0.0717523 0.0304458 ) 68
( 0.436535 0.0549334 0.0609258 ) 90
( 0.379379 0.0252425 0.0464858 ) 79
( 0.490402 0.0663107 0.0370785 ) 60
( 0.46918 0.0309986 0.0300535 ) 50
( 0.308669 0.0875783 0.0605917 ) 95
( 0.438112 0.0746294 0.0621148 ) 99
( 0.303236 0.0200534 0.0441247 ) 76
( 0.260065 0.0901052 0.0351632 ) 61
( 0.291707 0.0216661 0.0738496 ) 106
( 0.265408 0.0324835 0.0357413 ) 43
( 0.457875 0.0230842 0.062718 ) 82
( 0.449439 0.0301401 0.0326489 ) 50
( 0.337501 0.0548367 0.0487451 ) 87
( 0.42688 0.0169743 0.0494604 ) 81
( 0.292572 0.0734115 0.0438967 ) 94
( 0.395472 0.0473222 0.0476427 ) 89
( 0.341868 -0.0103311 0.0356791 ) 37
( 0.363522 0.0141709 0.0497951 ) 70
( 0.366895 0.090626 0.039102 ) 65
( 0.490505 0.0131842 0.0623161 ) 74
( 0.490587 0.0108882 0.0426451 ) 42
( 0.458404 0.0153348 0.0447752 ) 82
( 0.407746 0.0188089 0.0502799 ) 80
( 0.401116 0.0536882 0.0716618 ) 119
( 0.391631 0.0106192 0.0433594 ) 71
( 0.383095 -0.00621429 0.038974 ) 38
( 0.42527 0.0469898 0.0393363 ) 58
( 0.47064 0.0844502 0.0302522 ) 68
( 0.438417 -0.00526224 0.0292706 ) 40
( 0.379392 0.0582582 0.0668655 ) 88
( 0.433572 0.0893939 0.0321179 ) 67
( 0.376518 0.0684733 0.0202539 ) 56
( 0.284533 0.0154861 0.0410254 ) 44
( 0.301783 0.0401273 0.0479933 ) 76
( 0.376152 0.0443377 0.041533 ) 56
( 0.34594 0.0901362 0.0703556 ) 96
( 0.362436 0.0706064 0.0658348 ) 88
( 0.490104 0.0898678 0.0348341 ) 69
( 0.362211 0.0713042 0.0401868 ) 56
( 0.490562 0.051364 0.0527069 ) 92
( 0.273467 0.0684241 0.0447349 ) 84
( 0.437982 0.0604597 0.0261021 ) 58
( 0.326695 0.0900886 0.0485047 ) 95
( 0.490278 0.0320029 0.0399939 ) 51
( 0.264947 0.0901375 0.054399 ) 93
( 0.270159 0.0421667 0.0643313 ) 75
( 0.322986 0.0610509 0.0660722 ) 86
( 0.341125 0.074186 0.0431243 ) 96
( 0.414581 0.0900328 0.0381721 ) 66
( 0.459972 0.0378687 0.0501858 ) 82
( 0.452901 -0.00395808 0.0427932 ) 41
( 0.408857 0.0565608 0.0362306 ) 57
( 0.484194 -0.00780288 0.0308842 ) 42
( 0.440965 0.0128311 0.0362335 ) 40
( 0.360038 0.0459349 0.068926 ) 87
( 0.399745 0.0732961 0.0351484 ) 66
( 0.288318 0.0703136 0.0628677 ) 85
( 0.395908 0.0729426 0.0707169 ) 98
( 0.473773 0.0121548 0.0332947 ) 42
( 0.415339 0.00498414 0.0382559 ) 39
( 0.31794 0.0899497 0.0306087 ) 63
( 0.32792 0.0248854 0.0496103 ) 77
( 0.473914 0.0595452 0.0287844 ) 60
( 0.362956 0.0278646 0.0352591 ) 47
( 0.476437 0.0809428 0.0637517 ) 101
( 0.475739 0.0235319 0.0693731 ) 83
( 0.282705 0.0900877 0.0344547 ) 62
( 0.421408 0.0708706 0.0295707 ) 58
( 0.452937 0.0901962 0.0369326 ) 68
( 0.409421 0.0357719 0.0403252 ) 48
( 0.325079 0.0642609 0.0366967 ) 54
( 0.424216 0.0900692 0.0705614 ) 99
( 0.458491 0.0735551 0.0614361 ) 100
( 0.429773 0.0288477 0.0336568 ) 49
( 0.296091 0.0552676 0.0374641 ) 53
( 0.425368 0.0121534 0.0702135 ) 72
( 0.292065 0.0892929 0.0725979 ) 124
( 0.304286 0.054667 0.0630828 ) 85
( 0.404956 0.0901731 0.0749024 ) 128
( 0.355823 0.0267389 0.0703144 ) 78
( 0.365886 0.0901197 0.071041 ) 97
( 0.375504 0.0224826 0.0657117 ) 79
( 0.390969 0.0338579 0.0333603 ) 48
( 0.268318 0.016895 0.071221 ) 75
( 0.489903 0.0542037 0.072244 ) 122
( 0.475819 0.0451664 0.0419769 ) 60
( 0.297915 0.03224 0.0292 ) 44
( 0.352636 0.0444811 0.0416246 ) 55
( 0.25238 0.088748 0.0726107 ) 123
( 0.446364 0.0385763 0.0673591 ) 82
( 0.418975 0.0450177 0.0716284 ) 120
( 0.327237 0.041708 0.0666087 ) 77
( 0.445404 -0.00452372 0.0699553 ) 73
( 0.416956 0.0605278 0.0857724 ) 120
( 0.458086 0.0542947 0.0650782 ) 91
( 0.289361 0.0271999 0.0558802 ) 76
( 0.374326 0.0108184 0.0334158 ) 38
( 0.339669 0.0737713 0.0797439 ) 126
( 0.317625 0.00536936 0.040796 ) 36
( 0.490733 0.0297923 0.0793276 ) 113
( 0.305185 0.0725823 0.0729659 ) 124
( 0.30686 0.031864 0.0821313 ) 107
( 0.250848 0.0264694 0.0720105 ) 105
( 0.278008 0.0575458 0.0742459 ) 115
( 0.391864 0.0301124 0.0735584 ) 110
( 0.490565 -0.0142535 0.0714877 ) 104
( 0.434632 0.0529522 0.0804103 ) 120
( 0.385807 0.0907735 0.0695618 ) 97
( 0.325107 0.0904197 0.0711038 ) 95
( 0.444528 0.0147219 0.0737116 ) 112
( 0.463306 -0.00902789 0.076843 ) 103
( 0.377602 0.0751871 0.0767953 ) 127
( 0.443369 0.0458926 0.0447461 ) 90
( 0.44937 0.0699718 0.0782538 ) 121
( 0.44349 0.0884927 0.0746251 ) 129
( 0.490721 0.0705847 0.0561028 ) 92
( 0.385434 0.0468243 0.0817262 ) 118
( 0.272271 0.0900753 0.072774 ) 123
( 0.272853 0.0332645 0.081813 ) 105
( 0.342549 0.0468589 0.0777869 ) 117
( 0.35882 0.0768847 0.0842058 ) 126
( 0.490084 0.0104914 0.0896789 ) 104
( 0.467354 0.0381541 0.0791974 ) 112
( 0.314171 0.0500963 0.0798137 ) 116
( 0.465262 0.0102384 0.0781239 ) 103
( 0.318474 0.018099 0.0742471 ) 107
( 0.37058 0.0340364 0.0808665 ) 109
( 0.258477 0.0617998 0.0757526 ) 114
( 0.400001 0.0716206 0.0898325 ) 128
( 0.287954 0.0725744 0.0826182 ) 124
( 0.462491 0.0905177 0.072003 ) 130
( 0.490756 0.075498 0.0751255 ) 131
( 0.41717 0.080333 0.0873983 ) 129
( 0.431098 0.0301228 0.0766599 ) 111
( 0.392907 0.0900839 0.090363 ) 128
( 0.366455 0.0590848 0.081443 ) 118
( 0.338907 0.0276931 0.0801845 ) 108
( 0.429818 -0.0108481 0.0796542 ) 102
( 0.472921 0.0642297 0.0738418 ) 122
( 0.305336 0.0900632 0.0872072 ) 124
( 0.450936 0.0329239 0.0900737 ) 112
( 0.292599 0.042491 0.0732133 ) 106
( 0.490283 0.0461837 0.090248 ) 122
( 0.403225 0.0470041 0.0903084 ) 119
( 0.453627 0.0517087 0.0842598 ) 121
( 0.263109 0.0898978 0.0902532 ) 123
( 0.410726 0.0281672 0.0774928 ) 110
( 0.264579 0.0498239 0.0902475 ) 114
( 0.320714 0.0715889 0.0849286 ) 125
( 0.477699 -0.0050907 0.0900995 ) 104
( 0.384625 0.0242716 0.0905905 ) 109
( 0.330603 0.0555826 0.0905503 ) 116
( 0.26972 0.0707779 0.0901041 ) 114
( 0.346058 0.0903103 0.0902456 ) 126
( 0.324414 0.0367905 0.0901928 ) 107
( 0.256309 0.0270804 0.0905681 ) 105
( 0.434019 0.0702272 0.0903584 ) 120
( 0.465536 0.0725251 0.0901925 ) 130
( 0.356466 0.0173284 0.0901505 ) 108
( 0.434581 0.00548929 0.0884798 ) 102
( 0.289729 0.0286224 0.0910932 ) 106
( 0.475183 0.0236875 0.0902126 ) 113
( 0.490005 0.0900002 0.0900745 ) 131
( 0.282995 0.0900801 0.0902336 ) 124
( 0.382374 0.0637773 0.0911587 ) 118
( 0.451875 0.0131276 0.0912589 ) 103
( 0.303584 0.062972 0.0902771 ) 115
( 0.486335 0.0658858 0.0906876 ) 122
( 0.422253 0.0419699 0.090593 ) 111
( 0.284144 0.0474669 0.0902465 ) 115
( 0.471849 0.0531032 0.0907635 ) 121
( 0.349567 0.0604851 0.090504 ) 117
( 0.372914 0.0900003 0.0900753 ) 127
( 0.324781 0.0901533 0.0905436 ) 125
( 0.456474 0.0902623 0.090471 ) 130
( 0.421899 0.0197891 0.0906928 ) 111
( 0.326666 0.0172091 0.0911852 ) 107
( 0.353966 0.0370739 0.0905033 ) 108
( 0.433357 0.0905406 0.0906395 ) 129
)
