/*--------------------------------*- C++ -*----------------------------------*\
| =========                 |                                                 |
| \\      /  F ield         | OpenFOAM: The Open Source CFD Toolbox           |
|  \\    /   O peration     | Version:  4.x                                   |
|   \\  /    A nd           | Web:      www.OpenFOAM.org                      |
|    \\/     M anipulation  |                                                 |
\*---------------------------------------------------------------------------*/
FoamFile
{
    version     2.0;
    format      ascii;
    class       volVectorField;
    location    "44.5";
    object      GField;
}
// * * * * * * * * * * * * * * * * * * * * * * * * * * * * * * * * * * * * * //

dimensions      [1 -2 -1 0 0 0 0];

internalField   nonuniform List<vector> 
114
(
(91.1142 3.37973 0.513912)
(9.33632 0.714381 -1.00689)
(77.9243 1.65669 2.82452)
(2.96692e-05 5.95887e-06 -8.43111e-06)
(54.0619 -1.29782 6.44076)
(3.74564 1.2249 -0.308304)
(0.148896 -0.0306131 -0.023711)
(88.7019 3.55944 0.955253)
(0.447208 -0.123608 -0.119504)
(85.134 3.80675 5.04563)
(4.25398 -1.2532 -1.93279)
(73.4093 8.57817 13.0064)
(19.1465 -2.71365 -15.4799)
(79.474 2.01947 0.324423)
(4.41164e-05 2.52381e-07 1.8987e-06)
(78.0492 0.834752 1.15051)
(4.27793e-05 -2.51025e-06 -6.62082e-06)
(75.2072 -1.12234 2.48433)
(3.9798e-05 1.90901e-07 -1.07616e-05)
(64.3342 -4.40257 3.97553)
(19.917 0.54138 -1.40293)
(45.3281 -0.995767 0.648306)
(106.484 -1.08423 2.2501)
(43.6069 -1.39548 2.44469)
(110.328 0.277475 3.52136)
(39.315 -2.96813 5.09301)
(115.451 2.68684 2.03357)
(31.2457 -6.74631 9.85189)
(126.662 7.12962 -2.85901)
(21.2663 -19.8886 23.279)
(10.0062 -1.23977 0.177582)
(92.3375 -0.0320016 0.819183)
(4.06174 -0.766179 0.196544)
(93.138 1.84278 0.248749)
(2.30072 -0.687782 0.3003)
(92.7508 5.35805 -0.442475)
(9.05639 -4.71904 2.73168)
(88.3019 11.5322 -3.20262)
(27.929 -28.7805 19.2251)
(0.193725 -0.0302243 0.0238999)
(87.8362 0.899009 0.138555)
(4.27479e-05 -6.77812e-06 1.01929e-05)
(88.2109 0.783232 0.970846)
(2.42586 -0.821174 0.754241)
(90.1641 0.237719 2.2665)
(8.72777 -3.96187 3.73445)
(85.7733 6.21208 -2.04845)
(19.9344 -10.0545 9.67001)
(4.03122e-05 -4.37462e-06 2.23643e-06)
(84.082 -0.71919 -0.429406)
(41.8127 0.257592 -0.988471)
(101.026 0.238922 0.110543)
(39.06 0.926957 -0.769817)
(102.699 1.06997 0.159462)
(35.3883 1.34368 0.373207)
(104.146 1.88814 -0.128948)
(27.0087 1.29688 3.56006)
(103.659 2.20578 -5.95677)
(13.7432 0.561728 13.7923)
(21.4143 -0.902608 -0.243317)
(94.4066 -0.197796 0.813903)
(17.6919 -1.11927 0.16356)
(96.5623 1.47557 -0.315724)
(14.0653 -1.66504 0.95304)
(98.4392 5.52041 -2.47921)
(12.739 -3.01805 3.168)
(100.886 12.4026 -9.02534)
(15.7567 -11.5117 18.2625)
(4.05699 -0.180985 0.17591)
(88.6873 0.851902 -0.221057)
(4.03553e-05 -1.47268e-07 5.22614e-06)
(86.7758 2.05005 -0.234693)
(3.80204e-05 -2.58256e-06 4.66873e-06)
(82.4467 2.08789 -0.925676)
(7.77489 -1.27385 3.01107)
(75.1606 2.11357 -5.2343)
(26.9312 -9.80002 30.111)
(6.15075 -0.238352 0.560216)
(89.1198 0.823133 -0.0057432)
(3.59802 -0.143435 0.615651)
(90.6335 0.414983 -0.29182)
(66.3098 -0.517003 2.24048)
(117.192 -0.548739 2.85235)
(69.0757 -0.364611 3.26321)
(125.161 -0.13389 2.15858)
(69.1318 -1.55315 6.65988)
(140.575 0.585562 0.236317)
(63.3369 -5.56839 15.1864)
(175.435 3.26211 -7.25082)
(33.9971 -22.941 39.7229)
(52.3829 -2.30086 1.1513)
(108.685 -1.53007 1.85291)
(53.2842 -2.91402 1.2967)
(114.435 -0.254146 0.408343)
(51.222 -4.33268 2.52477)
(122.375 2.24622 -2.29908)
(43.2866 -7.86427 6.08136)
(134.388 9.53837 -9.74099)
(19.9878 -18.2051 13.8736)
(44.3485 -1.69147 1.2577)
(103.138 -0.995675 1.72547)
(43.5046 -2.39769 2.13954)
(107.27 -0.554573 0.77414)
(42.7951 -3.36183 5.20404)
(115.081 0.81218 -2.73211)
(39.3274 -5.20188 11.8573)
(134.179 4.58504 -12.0012)
(24.4549 -7.65288 30.8465)
(42.3426 -1.81469 0.782089)
(102.206 -1.30242 0.604532)
(40.4768 -2.68747 0.768289)
(104.98 -1.54357 -1.20877)
(36.9489 -4.37766 1.66059)
(110.295 -0.900871 -2.40467)
)
;

boundaryField
{
    inlet
    {
        type            calculated;
        value           nonuniform 0();
    }
    outlet
    {
        type            calculated;
        value           nonuniform List<vector> 
12
(
(8.21953 2.68795 -0.676551)
(42.0971 -5.96648 -34.0354)
(43.9585 1.19487 -3.0964)
(46.7004 -43.675 51.1204)
(61.6666 -63.5468 42.4488)
(44.0797 -22.2328 21.3827)
(30.2605 1.23684 30.3685)
(34.741 -25.3815 40.2657)
(60.0721 -21.8597 67.1649)
(74.5876 -50.3312 87.1496)
(44.041 -40.1129 30.569)
(54.2478 -16.9762 68.4262)
)
;
    }
    wall
    {
        type            calculated;
        value           uniform (0 0 0);
    }
    procBoundary5to1
    {
        type            processor;
        value           nonuniform List<vector> 
32
(
(117.236 2.1646 -3.97909)
(45.338 1.79195 -10.5042)
(122.719 3.36347 0.0180573)
(35.3863 0.438201 -17.3553)
(129.193 4.48098 10.5167)
(20.024 -2.17061 -30.1659)
(27.4342 -2.97626 -3.76077)
(107.976 0.742864 0.371054)
(26.4454 -5.51197 -6.69821)
(113.09 3.99003 3.57142)
(25.1584 -10.8488 -12.3893)
(119.956 12.7735 12.286)
(19.6959 -25.6341 -25.9216)
(91.867 -0.129525 0.36145)
(6.598 -0.526393 -2.12919)
(92.3495 1.43856 0.159091)
(7.14974 -1.22513 -3.29216)
(91.9274 2.87995 2.05059)
(12.7317 -5.00765 -7.56917)
(86.739 8.9661 8.14282)
(27.46 -22.5064 -16.2035)
(37.6771 0.289774 -1.47965)
(98.6048 1.5335 -0.581345)
(25.8999 1.18434 -1.44768)
(25.8999 1.18434 -1.44768)
(25.8999 1.18434 -1.44768)
(5.35885 -0.777542 -0.539766)
(89.3908 1.84422 -1.14013)
(89.3908 1.84422 -1.14013)
(89.3908 1.84422 -1.14013)
(3.76678e-05 -9.28782e-07 2.54216e-06)
(3.76678e-05 -9.28782e-07 2.54216e-06)
)
;
    }
    procBoundary5to4
    {
        type            processor;
        value           nonuniform List<vector> 
12
(
(102.82 -1.6248 0.589846)
(91.6074 -1.76367 0.908769)
(87.5318 0.498117 -0.521602)
(84.1209 0.0755711 0.189986)
(100.05 -0.458963 0.418996)
(93.0054 -1.41694 1.18021)
(88.6601 0.168037 0.857775)
(88.1611 -0.186825 0.387231)
(111.298 -0.990782 3.06116)
(104.73 -1.93826 2.46217)
(100.327 -0.759202 2.66496)
(99.8064 -1.19122 1.58735)
)
;
    }
    procBoundary5to7
    {
        type            processor;
        value           nonuniform List<vector> 
44
(
(87.9697 1.01172 -0.19179)
(1.79199 0.403514 -0.57807)
(87.9917 1.52443 0.0081758)
(0.0180713 0.00559403 -0.00795472)
(85.2809 2.24365 2.33516)
(3.55161e-05 1.07505e-05 -2.05326e-05)
(72.791 -3.82559 10.4884)
(9.89487 4.0962 -4.92304)
(2.02105 0.243524 -0.408202)
(87.9697 1.01172 -0.19179)
(4.29486e-05 -6.03104e-06 1.35743e-06)
(84.0228 -1.17905 1.36655)
(3.84545e-05 -6.78833e-06 4.91736e-07)
(82.7393 -0.651568 2.73268)
(3.43597e-05 -6.00037e-06 -1.11323e-06)
(74.0121 5.71564 3.30786)
(18.3209 -4.28435 4.71709)
(4.00161e-05 -2.2132e-07 -6.10075e-07)
(4.29486e-05 -6.03104e-06 1.35743e-06)
(82.2485 -0.331912 0.0865204)
(4.29486e-05 -6.03104e-06 1.35743e-06)
(84.0228 -1.17905 1.36655)
(6.20458 -0.359589 1.81435)
(91.6952 0.384293 0.0279979)
(12.3139 -0.803307 6.52663)
(86.7108 -0.387167 -7.20561)
(26.9578 -2.29474 32.7657)
(1.09165 0.00729926 0.12767)
(86.5585 0.329288 -0.0477365)
(4.1292e-05 -4.5888e-08 5.12832e-06)
(6.20458 -0.359589 1.81435)
(85.882 -0.556633 0.643983)
(6.20458 -0.359589 1.81435)
(91.6952 0.384293 0.0279979)
(33.7509 -9.25071 5.06005)
(124.048 3.81715 -5.70473)
(21.9759 -18.3406 17.2687)
(36.826 -0.860867 0.633312)
(97.7978 -0.619172 0.0905689)
(33.6234 -1.51095 0.554449)
(98.1598 -0.990895 -0.760011)
(30.6941 -2.55347 1.81357)
(33.7509 -9.25071 5.06005)
(99.6023 -1.33018 -4.09086)
)
;
    }
}


// ************************************************************************* //
