/*--------------------------------*- C++ -*----------------------------------*\
| =========                 |                                                 |
| \\      /  F ield         | OpenFOAM: The Open Source CFD Toolbox           |
|  \\    /   O peration     | Version:  4.x                                   |
|   \\  /    A nd           | Web:      www.OpenFOAM.org                      |
|    \\/     M anipulation  |                                                 |
\*---------------------------------------------------------------------------*/
FoamFile
{
    version     2.0;
    format      ascii;
    class       surfaceScalarField;
    location    "44.5";
    object      phi;
}
// * * * * * * * * * * * * * * * * * * * * * * * * * * * * * * * * * * * * * //

dimensions      [0 3 -1 0 0 0 0];

internalField   nonuniform List<scalar> 
259
(
6.19863e-06
4.11295e-07
2.39326e-07
5.23149e-06
3.62446e-08
2.45455e-07
4.79086e-06
3.23585e-07
2.86645e-07
3.2462e-06
-7.25549e-08
5.86277e-07
3.61954e-06
4.29399e-07
2.07024e-07
-8.82542e-08
1.37314e-06
5.34809e-06
-2.32441e-09
1.10836e-08
5.50652e-06
2.60107e-07
7.13243e-08
5.13245e-06
-8.18214e-09
1.18959e-08
5.53593e-06
1.59301e-07
2.72066e-07
4.63591e-06
-7.60209e-08
5.03771e-08
5.73888e-06
2.49227e-07
5.78387e-07
-1.33658e-07
2.27297e-07
4.87235e-06
2.77376e-08
4.71866e-06
1.77515e-12
4.79082e-06
1.25737e-07
4.54039e-06
4.54102e-08
4.62292e-06
2.80584e-07
3.87407e-06
2.22618e-07
5.22448e-06
1.10676e-07
4.96397e-07
9.18589e-06
-1.32186e-07
-2.08296e-08
9.21215e-06
-6.62376e-08
1.39411e-07
9.30255e-06
-1.27764e-07
9.81357e-08
9.19837e-06
1.25625e-07
2.17887e-07
9.33877e-06
-2.16522e-07
3.21572e-07
9.0349e-06
4.76843e-07
1.13671e-07
9.51208e-06
-6.80237e-07
7.89333e-07
9.13216e-06
1.10596e-06
-5.19004e-07
-2.88709e-06
2.18369e-06
6.17299e-06
-7.5624e-08
-4.251e-09
5.93996e-06
5.15003e-08
9.65427e-08
5.84803e-06
-4.57566e-08
2.101e-08
5.89336e-06
1.55594e-07
-3.97491e-09
5.70503e-06
-8.99667e-08
7.36699e-08
6.29527e-06
3.31325e-07
-1.72659e-07
5.83109e-06
-5.14136e-07
3.4846e-07
7.18792e-06
1.05031e-06
-7.22801e-07
-2.29838e-06
2.21873e-06
5.30868e-06
-1.65981e-09
1.16595e-08
5.38251e-06
1.06068e-08
-5.19855e-09
5.33675e-06
6.80688e-13
5.59802e-06
4.35675e-08
5.55791e-06
4.39633e-08
6.11419e-06
8.0329e-08
5.66063e-06
3.9663e-07
6.54304e-06
-4.28122e-07
2.34964e-06
5.09127e-06
3.33866e-08
-2.5835e-08
8.64029e-06
-3.79671e-08
7.44906e-08
8.6015e-06
2.45188e-09
1.75743e-07
8.56231e-06
-1.09026e-08
1.48237e-07
8.4921e-06
1.50775e-07
1.37315e-07
8.41402e-06
-1.82206e-08
4.17878e-07
8.08337e-06
4.38654e-07
5.66222e-09
7.85971e-06
-1.00678e-07
1.11367e-06
7.26115e-06
8.64695e-07
-7.85134e-07
-6.46385e-07
3.17764e-06
6.9943e-06
-6.45535e-08
5.39324e-08
6.8965e-06
3.86752e-08
1.58116e-07
6.88666e-06
-6.66971e-08
8.66448e-08
6.81917e-06
2.0884e-07
5.45149e-09
6.76758e-06
-9.93178e-08
2.06357e-07
6.86591e-06
4.51167e-07
-2.83498e-07
6.8217e-06
-2.56906e-07
5.48892e-07
7.21533e-06
8.61419e-07
-1.11315e-06
-1.26718e-06
1.90696e-06
5.58968e-06
-2.45199e-08
8.49378e-08
5.43454e-06
9.93034e-08
8.93088e-08
5.24914e-06
-8.17575e-09
1.26883e-07
5.32361e-06
1.46021e-07
3.19123e-08
4.9802e-06
3.08711e-07
5.58352e-06
-2.1749e-07
4.96025e-06
8.83356e-07
6.31705e-06
-1.02352e-06
3.61927e-06
5.74379e-06
7.93242e-08
5.71357e-06
3.55111e-08
5.66946e-06
8.16191e-08
-8.91201e-08
1.11168e-05
-1.66771e-07
1.14157e-05
-1.23146e-07
1.1758e-05
-1.94004e-07
1.19183e-05
-2.30451e-08
1.26848e-05
-3.48577e-07
1.25227e-05
1.6772e-07
1.44326e-05
-7.9624e-07
1.28888e-05
7.58637e-07
-2.44075e-06
9.75059e-06
-2.36731e-07
9.93516e-06
-1.49601e-07
1.01428e-05
-3.14997e-07
1.0173e-05
-4.77634e-08
1.04869e-05
-4.56136e-07
1.01897e-05
1.81376e-07
1.07163e-05
-7.73938e-07
9.5251e-06
8.36701e-07
-1.52978e-06
8.92411e-06
-2.0738e-07
8.9999e-06
-1.36086e-07
9.11256e-06
-3.00772e-07
9.22113e-06
-1.24424e-07
9.53155e-06
-4.57845e-07
9.50104e-06
-5.59821e-09
1.04657e-05
9.7819e-06
8.74529e-06
8.75859e-06
8.78865e-06
8.72515e-06
8.88427e-06
)
;

boundaryField
{
    inlet
    {
        type            calculated;
        value           nonuniform 0();
    }
    outlet
    {
        type            calculated;
        value           nonuniform List<scalar> 
12
(
5.17182e-07
3.09529e-06
3.26541e-06
1.12087e-05
4.60778e-06
3.24177e-06
6.91358e-06
8.1479e-06
4.49188e-06
1.85072e-05
1.05211e-05
1.34112e-05
)
;
    }
    wall
    {
        type            calculated;
        value           nonuniform List<scalar> 
66
(
0
-1.92593e-34
0
0
0
0
0
0
0
0
0
0
0
0
0
0
0
0
0
0
0
0
0
0
0
0
-2.46519e-32
-2.46519e-32
0
-1.2326e-32
-1.97215e-31
0
0
0
0
0
0
0
0
0
0
0
0
0
0
0
0
0
0
0
0
0
0
0
0
0
0
0
0
0
0
0
0
0
0
0
)
;
    }
    procBoundary5to1
    {
        type            processor;
        value           nonuniform List<scalar> 
32
(
2.05494e-07
6.85443e-07
-1.696e-07
1.03094e-06
-1.00977e-06
1.81748e-06
2.2561e-07
-7.85684e-08
4.06602e-07
-5.11261e-07
8.53106e-07
-1.50118e-06
2.46169e-06
-4.02868e-08
1.26867e-07
-7.75162e-08
1.96245e-07
-2.69461e-07
4.50209e-07
-7.21336e-07
1.05009e-06
4.82436e-08
-9.94327e-08
-7.05475e-06
-6.91592e-08
-6.07741e-08
2.06643e-08
-5.5133e-06
-2.28739e-07
1.87517e-08
-4.81074e-06
-1.57944e-09
)
;
    }
    procBoundary5to4
    {
        type            processor;
        value           nonuniform List<scalar> 
12
(
-9.08112e-06
-6.24597e-06
-5.39272e-06
-5.15031e-06
-8.69764e-06
-7.0259e-06
-5.70299e-06
-5.80014e-06
-1.08756e-05
-9.62669e-06
-8.86852e-06
-8.71451e-06
)
;
    }
    procBoundary5to7
    {
        type            processor;
        value           nonuniform List<scalar> 
44
(
1.79682e-07
2.45024e-08
1.39718e-07
6.00406e-10
6.56411e-08
3.26824e-12
-4.90518e-07
2.7892e-07
2.39944e-08
3.6769e-08
-6.45794e-13
-2.34998e-08
-4.84134e-08
-2.46951e-08
-2.34592e-07
7.06698e-07
-8.50365e-07
-7.01238e-13
5.15327e-06
-6.23279e-08
-3.68659e-08
-6.3845e-08
-2.0651e-08
1.45667e-07
-1.20364e-07
1.00013e-07
-7.11636e-07
-1.41086e-08
6.81817e-08
-8.82167e-09
5.97693e-06
-8.48408e-09
-2.05537e-07
1.41275e-07
-8.5521e-07
4.96954e-07
-1.53982e-06
-1.58838e-07
-1.13875e-07
-2.49211e-07
-1.50047e-07
-4.11429e-07
8.86929e-06
-1.31889e-07
)
;
    }
}


// ************************************************************************* //
