/*--------------------------------*- C++ -*----------------------------------*\
| =========                 |                                                 |
| \\      /  F ield         | OpenFOAM: The Open Source CFD Toolbox           |
|  \\    /   O peration     | Version:  4.x                                   |
|   \\  /    A nd           | Web:      www.OpenFOAM.org                      |
|    \\/     M anipulation  |                                                 |
\*---------------------------------------------------------------------------*/
FoamFile
{
    version     2.0;
    format      ascii;
    class       volScalarField;
    location    "44.5";
    object      Qsource;
}
// * * * * * * * * * * * * * * * * * * * * * * * * * * * * * * * * * * * * * //

dimensions      [1 -1 -3 0 0 0 0];

internalField   nonuniform List<scalar> 
114
(
8.6493e+09
7.38066e+09
7.7262e+09
5.71111e+09
8.39758e+09
5.9024e+09
7.25795e+09
7.04791e+09
5.89023e+09
8.26203e+09
8.49633e+09
1.01297e+10
6.5443e+09
9.95566e+09
6.14673e+09
8.71602e+09
5.88639e+09
5.31968e+09
7.46369e+09
6.25275e+09
6.64602e+09
7.10001e+09
6.59518e+09
8.00854e+09
7.30267e+09
6.98761e+09
9.32735e+09
7.59431e+09
7.82628e+09
5.27028e+09
8.1082e+09
8.23823e+09
9.22369e+09
8.99501e+09
8.82848e+09
1.01553e+10
5.3897e+09
1.06684e+10
6.35782e+09
8.51246e+09
5.51571e+09
7.28529e+09
9.12585e+09
6.20796e+09
8.45367e+09
7.34497e+09
8.15076e+09
4.5247e+09
1.02701e+10
5.06939e+09
7.67793e+09
1.04007e+10
7.7446e+09
9.44286e+09
7.95221e+09
8.91365e+09
6.99047e+09
9.61817e+09
5.37107e+09
6.19661e+09
1.0904e+10
7.01211e+09
9.12269e+09
8.31421e+09
9.19744e+09
1.07663e+10
8.72703e+09
4.79556e+09
7.41595e+09
7.7883e+09
7.82341e+09
7.39506e+09
1.13697e+10
9.28213e+09
9.08238e+09
1.10227e+10
8.30249e+09
5.30201e+09
1.17351e+10
9.54969e+09
9.97964e+09
3.71776e+09
8.809e+09
5.79854e+09
9.76804e+09
7.33684e+09
8.10157e+09
8.39466e+09
1.06214e+10
6.11461e+09
7.47597e+09
9.13467e+09
5.55367e+09
7.88589e+09
8.68865e+09
8.6987e+09
5.92218e+09
1.0118e+10
5.68013e+09
6.53501e+09
8.20841e+09
9.17426e+09
8.77866e+09
6.72163e+09
1.04467e+10
7.47469e+09
9.3358e+09
6.89337e+09
7.62523e+09
7.35336e+09
7.75131e+09
7.63303e+09
1.08089e+10
9.48074e+09
)
;

boundaryField
{
    inlet
    {
        type            calculated;
        value           nonuniform 0();
    }
    outlet
    {
        type            calculated;
        value           uniform 0;
    }
    wall
    {
        type            calculated;
        value           uniform 0;
    }
    procBoundary5to1
    {
        type            processor;
        value           nonuniform List<scalar> 
32
(
1.06007e+10
6.56688e+09
1.06905e+10
8.02859e+09
8.50804e+09
3.57952e+09
6.50143e+09
8.11227e+09
8.19839e+09
9.09663e+09
7.64806e+09
9.46198e+09
3.71119e+09
7.88243e+09
5.49421e+09
1.11478e+10
8.87868e+09
1.0704e+10
7.4892e+09
9.67861e+09
3.37546e+09
6.86254e+09
6.37701e+09
7.89341e+09
7.89341e+09
7.89341e+09
7.85746e+09
1.21984e+10
1.21984e+10
1.21984e+10
5.89519e+09
5.89519e+09
)
;
    }
    procBoundary5to4
    {
        type            processor;
        value           nonuniform List<scalar> 
12
(
1.05217e+10
1.11088e+10
6.74008e+09
7.05601e+09
1.04316e+10
1.05028e+10
8.63676e+09
8.13707e+09
1.00666e+10
9.46771e+09
7.90988e+09
7.94203e+09
)
;
    }
    procBoundary5to7
    {
        type            processor;
        value           nonuniform List<scalar> 
44
(
9.15522e+09
6.45598e+09
7.98285e+09
1.11053e+10
1.2531e+10
8.00101e+09
6.52922e+09
6.13249e+09
1.00662e+10
9.15522e+09
6.55029e+09
8.64544e+09
6.99801e+09
8.21982e+09
8.82884e+09
9.90356e+09
6.10737e+09
3.84889e+09
6.55029e+09
1.01031e+10
6.55029e+09
8.64544e+09
5.02438e+09
7.29325e+09
8.27503e+09
7.67869e+09
4.67252e+09
8.57126e+09
9.15866e+09
7.08998e+09
5.02438e+09
6.53443e+09
5.02438e+09
7.29325e+09
6.26202e+09
9.13429e+09
5.23072e+09
7.71964e+09
7.86719e+09
7.93677e+09
9.53528e+09
5.5879e+09
6.26202e+09
5.82369e+09
)
;
    }
}


// ************************************************************************* //
