/*--------------------------------*- C++ -*----------------------------------*\
| =========                 |                                                 |
| \\      /  F ield         | OpenFOAM: The Open Source CFD Toolbox           |
|  \\    /   O peration     | Version:  4.x                                   |
|   \\  /    A nd           | Web:      www.OpenFOAM.org                      |
|    \\/     M anipulation  |                                                 |
\*---------------------------------------------------------------------------*/
FoamFile
{
    version     2.0;
    format      ascii;
    class       volScalarField;
    location    "44.5";
    object      QWallFluidCoeff;
}
// * * * * * * * * * * * * * * * * * * * * * * * * * * * * * * * * * * * * * //

dimensions      [1 -1 -3 -1 0 0 0];

internalField   nonuniform List<scalar> 
114
(
-2.64004e+06
-429387
-2.32993e+06
-17.8402
-1.74806e+06
-214402
0
0
0
0
0
0
0
0
0
0
0
0
0
0
0
-1.50977e+06
-2.98965e+06
-1.46576e+06
-3.07626e+06
-1.35896e+06
-3.1898e+06
-1.18361e+06
-3.43916e+06
-1.29083e+06
0
0
0
0
0
0
0
0
0
0
0
0
0
0
0
0
0
0
0
0
-1.4153e+06
-2.86581e+06
-1.34044e+06
-2.90381e+06
-1.23895e+06
-2.93677e+06
-1.00528e+06
-2.92978e+06
-767972
0
0
0
0
0
0
0
0
0
0
0
0
0
0
0
0
0
0
0
0
0
0
-4.09448e+06
-6.45583e+06
-4.23233e+06
-6.80386e+06
-4.24777e+06
-7.46549e+06
-4.04602e+06
-8.92023e+06
-3.6309e+06
-1.69616e+06
-3.0389e+06
-1.72027e+06
-3.16627e+06
-1.67078e+06
-3.34174e+06
-1.48494e+06
-3.61547e+06
-1.09611e+06
-1.48454e+06
-2.91405e+06
-1.46376e+06
-3.00672e+06
-1.4535e+06
-3.18132e+06
-1.40389e+06
-3.60935e+06
-1.36843e+06
-1.43053e+06
-2.89276e+06
-1.3813e+06
-2.95559e+06
-1.28987e+06
-3.07493e+06
)
;

boundaryField
{
    inlet
    {
        type            calculated;
        value           nonuniform 0();
    }
    outlet
    {
        type            calculated;
        value           uniform 0;
    }
    wall
    {
        type            calculated;
        value           uniform 0;
    }
    procBoundary5to1
    {
        type            processor;
        value           uniform 0;
    }
    procBoundary5to4
    {
        type            processor;
        value           uniform 0;
    }
    procBoundary5to7
    {
        type            processor;
        value           uniform 0;
    }
}


// ************************************************************************* //
