/*--------------------------------*- C++ -*----------------------------------*\
| =========                 |                                                 |
| \\      /  F ield         | OpenFOAM: The Open Source CFD Toolbox           |
|  \\    /   O peration     | Version:  4.x                                   |
|   \\  /    A nd           | Web:      www.OpenFOAM.org                      |
|    \\/     M anipulation  |                                                 |
\*---------------------------------------------------------------------------*/
FoamFile
{
    version     2.0;
    format      ascii;
    class       volVectorField;
    location    "44.5";
    object      Us;
}
// * * * * * * * * * * * * * * * * * * * * * * * * * * * * * * * * * * * * * //

dimensions      [0 1 -1 0 0 0 0];

internalField   nonuniform List<vector> 
114
(
(2.58943e-09 -3.59376e-10 1.1005e-09)
(2.30536e-09 -2.99079e-10 -7.54214e-11)
(2.43092e-09 -1.51912e-10 -7.61657e-10)
(1.83447e-09 -5.33846e-11 -9.68777e-10)
(1.66845e-09 -1.09629e-09 -9.88499e-10)
(-5.23016e-09 -7.43338e-10 -5.7808e-10)
(4.75817e-09 5.60642e-10 4.42545e-09)
(4.37877e-09 -4.64285e-10 1.65128e-09)
(4.06389e-09 -8.39457e-10 -2.21164e-10)
(3.43958e-09 -3.83027e-10 -1.09615e-09)
(2.76691e-09 -8.56944e-11 -2.00939e-09)
(1.51402e-09 -1.41037e-09 -2.07854e-09)
(2.28281e-10 -8.62953e-10 -1.63573e-09)
(3.97732e-09 4.39107e-11 2.30637e-09)
(4.96951e-09 5.21146e-10 1.98539e-09)
(5.22684e-09 3.16128e-11 6.3719e-10)
(4.73533e-09 -4.13303e-10 -4.34072e-10)
(4.06293e-09 -5.17457e-10 -1.0787e-09)
(3.09911e-09 -3.5566e-10 -1.73247e-09)
(2.19213e-09 -6.68354e-10 -2.50022e-09)
(7.05676e-10 -5.20096e-10 -1.30153e-09)
(4.0007e-10 2.24673e-10 4.12332e-10)
(1.24633e-09 3.74216e-10 5.28955e-10)
(1.68974e-09 2.5168e-11 8.39265e-10)
(1.52591e-09 -1.29712e-10 3.468e-10)
(1.58713e-09 -4.80386e-11 2.81332e-10)
(1.1377e-09 -1.4073e-10 -4.87004e-10)
(1.13163e-09 -2.88249e-11 -8.97737e-10)
(5.55189e-10 -3.96571e-10 -2.09484e-09)
(-9.47641e-10 -7.18275e-11 -3.13571e-09)
(1.56967e-09 1.46999e-10 8.23813e-10)
(2.73498e-09 2.00651e-10 6.18591e-10)
(3.38485e-09 1.029e-10 1.8875e-09)
(3.00309e-09 8.14058e-11 4.73268e-10)
(2.94494e-09 -5.60726e-11 -1.04909e-10)
(2.44662e-09 -5.54958e-11 -7.74395e-10)
(2.19939e-09 -7.45006e-11 -1.37961e-09)
(1.03378e-09 -4.81419e-10 -2.08302e-09)
(3.08257e-10 -1.46922e-10 -2.34185e-09)
(2.51743e-09 5.47968e-11 1.20694e-09)
(3.71919e-09 -8.12602e-11 9.82704e-10)
(4.0689e-09 1.67176e-10 1.24227e-09)
(4.24068e-09 2.79441e-10 3.17045e-10)
(3.7616e-09 -8.17637e-11 -5.72947e-10)
(2.88968e-09 -1.71817e-10 -8.97089e-10)
(2.3084e-09 1.53834e-10 -1.5132e-09)
(1.09997e-09 5.1607e-10 -1.73708e-09)
(-1.6439e-10 2.33808e-10 -1.19436e-09)
(3.38534e-09 -1.47401e-10 5.88537e-10)
(3.97229e-09 -3.62415e-10 3.80892e-10)
(7.60282e-10 -2.74641e-11 1.99485e-10)
(8.73141e-10 9.1004e-11 3.47564e-10)
(1.07922e-09 -8.09728e-11 5.34388e-10)
(1.36839e-09 2.46072e-10 -2.49423e-10)
(1.46128e-09 -2.12662e-11 -3.95364e-11)
(7.55045e-10 -1.18401e-10 -3.97189e-10)
(-1.3399e-11 4.93488e-11 -6.52744e-10)
(-7.19485e-10 4.86276e-10 -1.78906e-09)
(1.57845e-09 -8.56059e-11 -5.91857e-09)
(1.40994e-09 -1.3375e-10 4.51405e-10)
(1.61246e-09 -1.30489e-10 5.39665e-10)
(1.89139e-09 8.90883e-11 1.22508e-09)
(3.10349e-09 1.31853e-10 3.447e-10)
(2.30745e-09 5.8518e-11 -1.98621e-10)
(1.55972e-09 -4.02526e-11 -7.40638e-10)
(2.85321e-10 3.41383e-10 -1.22708e-09)
(-1.80948e-10 1.09928e-09 -1.80173e-09)
(-4.65781e-10 1.55714e-09 -3.13336e-09)
(2.25082e-09 5.4875e-10 8.29319e-10)
(2.42618e-09 8.8978e-11 3.44333e-10)
(2.88801e-09 5.5683e-10 6.99737e-10)
(3.16211e-09 2.2134e-11 8.46502e-11)
(2.44619e-09 -4.56575e-11 -3.86762e-10)
(1.52614e-09 1.09172e-10 -5.9186e-10)
(4.80535e-10 5.38879e-10 -1.13874e-09)
(-1.20464e-10 9.26081e-10 -1.51214e-09)
(-3.4847e-10 1.11155e-09 -1.74088e-09)
(2.83302e-09 2.05273e-10 4.82698e-10)
(3.34388e-09 1.00663e-10 2.35942e-10)
(3.58463e-09 -1.85445e-11 -1.24292e-11)
(2.86675e-09 2.48531e-10 -3.02172e-10)
(3.61463e-10 4.62911e-11 -1.43731e-11)
(4.18548e-10 -1.48023e-11 2.09469e-10)
(4.24978e-10 3.13454e-10 -8.17414e-11)
(1.0006e-09 6.6685e-11 -2.17885e-10)
(1.03609e-09 -7.03334e-11 -1.54617e-11)
(2.00724e-10 -3.30516e-11 -2.53958e-10)
(-7.13706e-10 2.31046e-10 -2.85567e-10)
(-1.05431e-09 1.70406e-09 -2.09563e-09)
(1.3241e-09 4.58609e-09 -5.43029e-09)
(7.72795e-10 -2.58658e-11 -4.5377e-12)
(7.80995e-10 5.959e-11 2.63015e-10)
(2.47414e-09 -5.11482e-10 1.45376e-10)
(2.67155e-09 3.11937e-10 -1.87332e-10)
(1.39191e-09 1.80543e-11 -1.75116e-10)
(8.16079e-10 2.33226e-11 -2.4117e-10)
(7.93148e-11 5.28566e-10 -8.57753e-10)
(-6.21437e-10 2.76993e-09 -1.18572e-09)
(1.04098e-09 6.34695e-09 -1.71423e-09)
(9.90501e-10 3.0734e-10 1.31869e-11)
(1.15876e-09 1.71371e-10 5.34579e-11)
(1.27899e-09 4.77673e-10 1.1752e-11)
(1.73588e-09 -1.08843e-10 -5.33272e-11)
(1.2688e-09 1.75532e-10 -1.97674e-10)
(9.14913e-10 1.30981e-10 -1.99325e-10)
(1.57601e-10 4.57086e-10 -5.01161e-10)
(-4.63132e-10 8.48815e-10 -7.87434e-10)
(-9.73571e-11 1.37873e-09 -1.11241e-09)
(2.02482e-09 3.16265e-10 2.50294e-11)
(1.93222e-09 2.00614e-10 1.19325e-11)
(2.01217e-09 -8.40966e-10 -9.53604e-11)
(1.66901e-09 -7.00748e-11 -1.62053e-10)
(1.56727e-09 1.41675e-10 -1.71601e-10)
(9.0742e-10 -6.25365e-12 -1.27772e-10)
)
;

boundaryField
{
    inlet
    {
        type            zeroGradient;
    }
    outlet
    {
        type            zeroGradient;
    }
    wall
    {
        type            zeroGradient;
    }
    procBoundary5to1
    {
        type            processor;
        value           nonuniform List<vector> 
32
(
(2.764e-09 -5.51365e-10 1.09076e-09)
(2.3248e-09 -4.47675e-10 9.32863e-11)
(2.09888e-09 -4.49565e-10 -9.78378e-10)
(2.05178e-09 -1.07129e-10 -1.27007e-09)
(2.442e-10 -9.88354e-10 -5.42995e-10)
(6.78988e-12 -9.48565e-10 -3.77241e-09)
(4.41316e-09 -4.4559e-11 7.35683e-09)
(3.30714e-09 -1.16786e-09 1.95581e-09)
(3.42031e-09 -1.07225e-09 -1.77258e-10)
(3.17007e-09 -3.15094e-10 -1.53891e-09)
(3.13989e-09 -4.22528e-10 -2.84744e-09)
(2.03471e-09 -1.77392e-09 -3.39689e-09)
(3.91466e-10 -1.41329e-09 -2.55618e-09)
(4.11668e-09 5.01385e-10 3.65017e-09)
(4.97746e-09 4.472e-10 4.4341e-09)
(4.98865e-09 -4.9688e-10 1.14381e-09)
(4.94499e-09 -1.07124e-09 -7.82496e-10)
(4.80847e-09 -1.11598e-09 -1.94758e-09)
(4.22438e-09 -3.83547e-10 -3.29171e-09)
(2.8363e-09 -5.80179e-10 -3.49133e-09)
(1.76303e-09 -1.45371e-09 -2.69249e-09)
(4.76436e-10 1.76682e-10 2.17877e-09)
(1.28629e-09 1.00938e-09 5.51408e-10)
(1.7128e-09 4.87778e-10 1.49774e-09)
(1.7128e-09 4.87778e-10 1.49774e-09)
(1.7128e-09 4.87778e-10 1.49774e-09)
(9.7875e-10 4.66495e-10 2.15101e-09)
(2.7653e-09 7.26431e-10 3.3776e-09)
(2.7653e-09 7.26431e-10 3.3776e-09)
(2.7653e-09 7.26431e-10 3.3776e-09)
(2.4655e-09 8.72577e-11 1.7241e-09)
(2.4655e-09 8.72577e-11 1.7241e-09)
)
;
    }
    procBoundary5to4
    {
        type            processor;
        value           nonuniform List<vector> 
12
(
(-1.04307e-11 -4.86147e-11 9.45981e-10)
(6.63508e-10 1.30687e-10 1.26593e-09)
(2.37206e-09 -7.04912e-11 8.12549e-10)
(3.27387e-09 -1.23772e-10 4.79079e-10)
(5.28589e-10 -4.93967e-11 3.47662e-10)
(1.0206e-09 -1.50613e-10 5.81169e-10)
(1.37513e-09 2.10174e-10 6.6605e-10)
(2.38368e-09 -1.96861e-10 6.68565e-10)
(2.61944e-10 -2.60177e-11 7.58818e-11)
(5.25567e-10 -9.58797e-11 1.95423e-10)
(7.602e-10 6.10186e-11 2.5647e-10)
(1.61861e-09 -6.90946e-11 2.03449e-10)
)
;
    }
    procBoundary5to7
    {
        type            processor;
        value           nonuniform List<vector> 
44
(
(4.532e-09 -4.7702e-10 6.21458e-10)
(5.18336e-09 2.32597e-11 7.70043e-10)
(5.34086e-09 -2.16705e-10 -5.23484e-10)
(5.16429e-09 -4.57913e-10 -1.01154e-09)
(5.75043e-09 -9.07249e-10 -2.08883e-09)
(2.7167e-09 -8.21171e-11 -2.18102e-09)
(1.84548e-09 5.41779e-10 -2.2761e-09)
(8.4846e-10 7.41482e-11 -1.00353e-09)
(4.06034e-09 -2.9965e-10 9.66192e-10)
(4.532e-09 -4.7702e-10 6.21458e-10)
(4.51265e-09 -4.41402e-10 1.47245e-10)
(4.35309e-09 -1.69016e-10 -2.73737e-10)
(3.68442e-09 -2.46252e-10 -6.17485e-10)
(3.42125e-09 5.80486e-11 -1.10687e-09)
(2.26875e-09 5.92059e-10 -1.49804e-09)
(1.40559e-09 1.1953e-09 -1.594e-09)
(-5.36758e-11 5.87205e-10 -7.49834e-10)
(3.34664e-09 -5.40159e-10 1.82409e-10)
(4.51265e-09 -4.41402e-10 1.47245e-10)
(3.69613e-09 -5.36426e-10 1.4643e-10)
(4.51265e-09 -4.41402e-10 1.47245e-10)
(4.35309e-09 -1.69016e-10 -2.73737e-10)
(2.64479e-09 1.50525e-10 -2.22221e-10)
(1.80374e-09 1.38863e-10 -5.97574e-10)
(6.52205e-10 4.79227e-10 -1.26599e-09)
(2.31582e-10 7.40531e-10 -9.67677e-10)
(-2.17397e-11 6.17837e-10 -7.50463e-10)
(2.93607e-09 -9.58448e-11 3.72063e-10)
(3.39923e-09 -2.26422e-11 3.16953e-11)
(3.43456e-09 -2.43181e-10 -4.98806e-11)
(2.64479e-09 1.50525e-10 -2.22221e-10)
(3.07439e-09 4.52483e-13 -1.60164e-10)
(2.64479e-09 1.50525e-10 -2.22221e-10)
(1.80374e-09 1.38863e-10 -5.97574e-10)
(3.08762e-10 9.49652e-11 -4.60169e-10)
(-3.7582e-10 1.01262e-09 -6.00288e-10)
(8.62161e-11 1.469e-09 -5.89782e-10)
(1.68343e-09 9.29985e-11 1.40295e-10)
(2.04856e-09 2.40224e-10 9.69541e-12)
(2.03654e-09 -3.20058e-11 -1.55507e-10)
(1.81728e-09 1.6005e-10 -1.09527e-10)
(1.74776e-09 2.78006e-10 -8.6969e-11)
(3.08762e-10 9.49652e-11 -4.60169e-10)
(1.91607e-09 2.82717e-10 -5.72233e-10)
)
;
    }
}


// ************************************************************************* //
