/*--------------------------------*- C++ -*----------------------------------*\
  =========                 |
  \\      /  F ield         | OpenFOAM: The Open Source CFD Toolbox
   \\    /   O peration     | Website:  https://openfoam.org
    \\  /    A nd           | Version:  4.x
     \\/     M anipulation  |
\*---------------------------------------------------------------------------*/
FoamFile
{
    version     2.0;
    format      ascii;
    class       vectorField;
    location    0;
    object      v;
}
// * * * * * * * * * * * * * * * * * * * * * * * * * * * * * * * * * * * * * //

302
(
( 6.29063e-07 1.17553e-07 1.13601e-07 )  
( 3.05379e-06 8.1961e-07 -8.98501e-07 )  
( 2.671e-06 6.71295e-07 -8.2438e-07 )  
( 1.80221e-06 9.18987e-07 -3.12265e-07 )  
( 2.31122e-06 8.74991e-07 -5.08842e-07 )  
( 4.0034e-06 7.23394e-07 -1.3185e-06 )  
( 3.26477e-06 9.86475e-07 -8.02166e-07 )  
( 1.92223e-06 5.57628e-07 -5.71081e-07 )  
( 5.56411e-07 1.16172e-07 -5.43317e-07 )  
( -1.38552e-07 1.5386e-07 -1.65795e-06 )  
( 7.48786e-08 5.02617e-08 -3.32237e-07 )  
( 2.27535e-06 9.62868e-08 -6.29353e-08 )  
( -3.24591e-07 3.11674e-07 -1.76343e-06 )  
( -3.0518e-08 -7.92467e-08 -3.6361e-08 )  
( 1.08587e-06 -1.50267e-07 -6.3355e-07 )  
( -1.67548e-06 -6.42187e-07 -2.05697e-07 )  
( 1.88212e-06 2.93698e-07 -3.62852e-07 )  
( 1.54092e-06 -1.37961e-07 -3.07483e-07 )  
( 2.22375e-08 2.21419e-08 -5.8977e-07 )  
( 2.05886e-06 8.27649e-08 -2.4045e-07 )  
( 1.69021e-06 4.15347e-07 -8.4606e-07 )  
( 2.20826e-06 6.2409e-08 -1.53937e-07 )  
( 8.3708e-07 -2.32828e-07 -1.6653e-07 )  
( 3.48616e-06 6.01121e-07 -9.67953e-07 )  
( 2.25818e-06 -8.00482e-08 -6.63048e-07 )  
( -3.30936e-07 2.78445e-07 -5.61081e-07 )  
( 2.06932e-08 -1.50491e-07 -2.07877e-07 )  
( 2.23514e-06 2.005e-09 -3.53511e-07 )  
( 1.35882e-07 2.56135e-07 -9.78085e-07 )  
( 1.15763e-08 -6.5697e-08 -3.8059e-07 )  
( 1.60023e-06 2.55924e-07 -5.90973e-07 )  
( -5.72931e-08 8.25971e-08 -3.1257e-07 )  
( 6.06251e-08 3.08123e-07 -8.98062e-07 )  
( 1.44291e-06 3.7274e-07 -1.36841e-07 )  
( 1.12665e-06 2.80729e-07 6.61575e-08 )  
( 1.88196e-06 -5.9267e-08 9.15916e-08 )  
( -6.47612e-08 1.43177e-07 -5.71973e-07 )  
( 1.85663e-06 5.86248e-07 -1.17797e-07 )  
( 1.47993e-06 1.69134e-07 8.41878e-08 )  
( -1.80024e-06 -6.40689e-07 -2.06417e-07 )  
( 6.76847e-07 5.06775e-07 -5.71447e-07 )  
( -7.14566e-08 2.0623e-09 1.74208e-07 )  
( 1.99686e-06 4.29385e-07 1.23399e-07 )  
( 2.59008e-06 3.55814e-07 -6.23095e-08 )  
( 8.1605e-07 4.50822e-07 -1.14403e-06 )  
( -2.49249e-07 2.72812e-08 -1.64503e-07 )  
( -8.45139e-07 4.90299e-07 -6.34576e-07 )  
( -1.33074e-07 3.52265e-07 -4.13201e-07 )  
( 1.57494e-06 1.50728e-07 -2.20656e-08 )  
( 1.42756e-06 -1.01137e-08 4.54239e-08 )  
( 1.63956e-06 4.25433e-07 -7.12025e-08 )  
( 5.04479e-07 3.90206e-07 8.72855e-09 )  
( 1.07811e-06 1.96062e-07 -6.61192e-08 )  
( 4.96461e-07 4.19801e-07 1.19313e-07 )  
( 3.0395e-07 2.962e-07 1.25399e-08 )  
( -2.77855e-07 3.09207e-07 -2.46329e-07 )  
( 4.41971e-07 3.96539e-08 6.71236e-08 )  
( -3.57322e-07 3.0635e-07 -6.6639e-07 )  
( 9.44922e-07 3.27965e-07 -5.80691e-08 )  
( -1.52399e-07 2.50806e-07 1.72944e-09 )  
( -2.37809e-08 3.6584e-09 9.41068e-09 )  
( -2.35675e-07 6.33013e-08 -1.17725e-07 )  
( 4.10255e-07 -1.43295e-08 5.57078e-07 )  
( 2.60176e-06 2.21176e-07 -7.73437e-07 )  
( -8.993e-07 4.77499e-07 -4.08682e-07 )  
( 1.15277e-06 -1.25536e-08 -3.18291e-08 )  
( 4.08902e-08 1.04691e-08 -5.29058e-08 )  
( -4.72132e-07 4.77812e-07 -1.21632e-06 )  
( 1.96416e-06 2.95379e-07 -6.71086e-09 )  
( 2.56895e-06 3.20513e-07 1.35247e-07 )  
( -4.67365e-07 3.75406e-07 -7.69638e-07 )  
( 2.25789e-06 7.57279e-07 -3.74375e-07 )  
( -1.16925e-06 6.9402e-07 -6.51207e-07 )  
( -2.81294e-08 1.5139e-07 -4.02621e-07 )  
( -8.60252e-07 4.5134e-07 -7.15639e-07 )  
( 5.39987e-07 2.14104e-08 -2.7083e-07 )  
( 1.87079e-06 1.63731e-07 3.34574e-08 )  
( 2.13602e-08 -2.57776e-08 -9.12942e-08 )  
( 8.81719e-07 4.27485e-07 -1.01022e-06 )  
( 5.45625e-07 -6.06177e-09 2.31881e-08 )  
( 3.51149e-06 7.02271e-07 -6.2462e-07 )  
( -5.478e-07 5.91686e-07 -1.19369e-06 )  
( -2.32933e-07 1.11615e-07 -4.54693e-07 )  
( -5.9914e-07 6.46131e-07 -8.84537e-07 )  
( -6.6332e-07 7.11025e-07 -1.29931e-06 )  
( 5.39289e-07 2.6221e-07 -2.99223e-08 )  
( -2.36463e-07 1.77484e-07 -6.28005e-07 )  
( -5.37943e-07 3.01068e-07 -5.10806e-07 )  
( -1.27044e-07 -2.95164e-08 2.28218e-08 )  
( 1.4833e-06 3.79202e-08 -6.32797e-09 )  
( 2.16737e-07 5.69546e-07 -7.91291e-07 )  
( -2.14456e-07 9.27767e-08 -4.73606e-07 )  
( -2.70165e-07 1.47565e-07 -8.95044e-08 )  
( 8.06342e-08 1.96352e-07 -4.78198e-07 )  
( 1.70508e-06 4.81779e-07 -4.18198e-07 )  
( -1.33383e-06 1.06035e-06 -9.96613e-07 )  
( 1.63797e-07 2.60045e-07 -3.08983e-08 )  
( -1.99174e-07 1.26572e-07 -7.82375e-07 )  
( 1.27743e-06 3.54378e-07 -4.42396e-07 )  
( 1.10878e-06 -1.6897e-09 -3.25481e-07 )  
( 1.45466e-06 5.34705e-07 -1.46074e-07 )  
( -1.03874e-07 -1.46608e-07 4.57541e-07 )  
( -4.57102e-06 1.72661e-06 1.23112e-06 )  
( -8.14525e-07 1.48218e-07 -7.65273e-07 )  
( -9.87522e-07 1.07918e-06 -1.46177e-06 )  
( 1.15124e-06 7.43909e-07 -1.62841e-07 )  
( -4.78729e-07 1.32066e-07 -4.71319e-07 )  
( -7.2716e-08 -8.50118e-06 3.51999e-07 )  
( 2.13991e-06 4.88354e-07 -1.5508e-07 )  
( 2.04648e-06 5.91196e-08 9.93524e-08 )  
( 2.98802e-06 4.98269e-07 -4.30273e-07 )  
( 1.07134e-06 -4.65478e-08 -3.3944e-07 )  
( -4.81051e-08 4.78815e-07 -2.57429e-07 )  
( -9.18809e-07 5.00255e-07 -1.86591e-07 )  
( 1.36881e-06 3.56188e-07 -1.71775e-07 )  
( -3.53499e-07 1.02501e-07 -2.72021e-07 )  
( 2.24326e-07 6.35069e-08 -5.46542e-07 )  
( 7.7913e-08 -9.9795e-08 -3.87457e-07 )  
( -7.51652e-07 -6.29373e-07 -4.71297e-07 )  
( 2.47909e-06 2.87083e-07 -2.56268e-07 )  
( 2.72808e-06 7.54809e-07 -5.29587e-07 )  
( 1.17737e-06 4.61058e-07 -8.18558e-07 )  
( -2.66762e-08 8.4482e-08 -4.17967e-07 )  
( 1.27693e-06 8.44823e-09 -4.69555e-08 )  
( 2.99509e-07 3.99274e-07 -3.09444e-08 )  
( -5.44986e-08 4.11811e-09 -6.18968e-09 )  
( -1.98081e-07 2.40162e-07 -8.44966e-07 )  
( -1.00178e-07 4.92755e-08 8.87616e-08 )  
( -7.15917e-07 2.98949e-07 -2.92107e-07 )  
( -9.79932e-08 1.00972e-07 -4.10506e-07 )  
( -1.46767e-06 7.61682e-07 -1.15242e-06 )  
( -5.55859e-07 1.95802e-07 7.73967e-08 )  
( -1.72569e-06 3.10278e-07 5.80482e-07 )  
( -1.12117e-06 1.30709e-07 -6.88712e-07 )  
( 3.09621e-06 4.29853e-07 -7.12321e-07 )  
( -2.11052e-07 -1.77332e-07 -6.52954e-07 )  
( -9.36566e-08 5.02221e-08 -1.11971e-08 )  
( 1.62802e-06 9.57779e-08 -5.92251e-07 )  
( 3.7889e-07 2.22377e-07 1.16839e-07 )  
( -2.60898e-09 1.59291e-08 9.81181e-09 )  
( -1.82477e-07 2.11362e-07 -6.4032e-07 )  
( 1.65964e-06 7.48926e-08 -1.91952e-07 )  
( 2.52078e-07 2.81051e-07 -7.24735e-09 )  
( -2.5422e-08 3.73934e-08 -1.59085e-08 )  
( -5.87399e-08 6.13749e-08 2.03554e-08 )  
( -6.95568e-07 4.25167e-07 -7.13514e-07 )  
( 1.41675e-06 1.42331e-07 -3.3222e-07 )  
( -1.929e-07 8.0807e-08 -1.66428e-07 )  
( 1.69309e-07 2.28731e-07 -5.00487e-08 )  
( 2.17717e-06 -2.8532e-08 -2.49197e-07 )  
( 8.21911e-07 1.22302e-07 -7.18685e-08 )  
( 2.15026e-06 3.67501e-07 2.63954e-08 )  
( 1.21402e-06 2.63752e-07 -4.76207e-08 )  
( 6.86328e-07 3.01866e-07 -9.90634e-08 )  
( 2.75584e-07 2.4492e-07 -1.20018e-06 )  
( -5.03987e-08 1.09188e-07 3.66339e-08 )  
( -2.93151e-07 5.14837e-07 -9.997e-07 )  
( -2.22801e-08 6.91964e-08 -5.58928e-07 )  
( 1.31137e-06 2.04191e-07 -8.96027e-08 )  
( -4.06506e-08 1.61577e-07 -2.81431e-08 )  
( -1.33508e-08 -1.64405e-08 1.05561e-07 )  
( -8.58085e-07 5.01063e-07 -1.22539e-06 )  
( 2.27874e-06 4.64862e-08 -9.80522e-08 )  
( -9.27465e-08 -5.2222e-09 -6.63038e-08 )  
( -7.62811e-08 1.52697e-08 5.47736e-08 )  
( 2.22944e-06 8.17077e-07 -2.39429e-07 )  
( 9.30061e-07 4.41329e-07 -1.63205e-08 )  
( -1.03926e-07 -1.17204e-08 -2.44971e-08 )  
( 1.00187e-06 2.23508e-07 4.04908e-09 )  
( 2.04407e-08 -1.2199e-08 -1.08499e-07 )  
( -9.96819e-08 -4.83672e-08 -3.58874e-08 )  
( 2.85098e-06 8.95712e-07 -4.98979e-07 )  
( -5.32768e-07 8.55253e-07 -8.24943e-07 )  
( 1.48457e-07 1.28862e-07 -9.10731e-08 )  
( 6.30791e-07 2.28698e-07 -3.80517e-08 )  
( -3.0647e-07 1.09185e-07 -1.39952e-07 )  
( -1.07058e-07 7.94537e-09 -6.1484e-08 )  
( -3.61945e-07 3.04076e-07 -5.55598e-07 )  
( -1.0637e-06 7.00993e-07 -7.47886e-07 )  
( 1.04066e-07 -1.0109e-07 2.26295e-07 )  
( 5.5966e-07 2.60307e-07 -8.37791e-08 )  
( -2.42363e-07 1.30542e-07 -3.22357e-08 )  
( -6.26155e-07 1.98165e-07 -1.92905e-07 )  
( -1.53698e-07 3.58071e-07 2.29012e-09 )  
( 3.78443e-07 -7.73061e-09 -2.94767e-07 )  
( 1.8822e-07 4.6808e-08 6.89923e-08 )  
( -5.3379e-08 1.26892e-07 -8.70075e-09 )  
( 1.42644e-06 3.88062e-07 5.04566e-09 )  
( 1.90254e-06 3.15275e-07 -2.08911e-07 )  
( -4.65281e-07 5.64412e-07 -6.08756e-07 )  
( 2.59283e-06 3.06418e-07 2.16983e-07 )  
( -1.60619e-07 -2.64925e-08 -1.03812e-07 )  
( -2.8594e-07 1.14777e-07 -4.38646e-08 )  
( -5.11791e-07 9.56536e-08 -8.0029e-08 )  
( 1.26888e-06 1.25183e-07 -3.01215e-08 )  
( -1.74321e-07 -1.17835e-08 -7.7934e-08 )  
( 4.95554e-08 1.17933e-07 -4.66124e-07 )  
( -1.1972e-07 -1.72382e-08 -1.44721e-07 )  
( 7.92313e-07 1.40042e-07 3.88982e-09 )  
( 1.45001e-08 2.12339e-07 2.73922e-08 )  
( -2.06645e-07 2.80712e-07 -5.71403e-07 )  
( -1.39733e-07 1.32652e-07 -5.30049e-07 )  
( -1.61221e-07 6.03187e-08 -3.6821e-07 )  
( 1.14722e-07 2.30504e-07 5.56382e-08 )  
( -2.91854e-08 1.40748e-07 -1.08208e-07 )  
( -1.61818e-07 9.26259e-08 -4.01049e-07 )  
( -1.47557e-07 1.84127e-07 -4.48555e-07 )  
( -4.93609e-07 8.58385e-08 -1.01448e-08 )  
( -2.46122e-07 2.12957e-07 -3.72484e-07 )  
( -1.37796e-07 7.5336e-08 -3.94139e-07 )  
( -9.26855e-08 1.25355e-08 -1.49116e-08 )  
( -1.98232e-07 1.25205e-07 -4.76913e-07 )  
( 1.55053e-06 1.58099e-07 -1.56656e-07 )  
( -2.03759e-07 1.92778e-07 -6.1048e-07 )  
( 4.67468e-07 -7.30437e-08 3.14356e-08 )  
( 1.20027e-06 -1.13843e-07 -4.72763e-08 )  
( -8.16892e-07 1.3221e-07 -3.28397e-07 )  
( 3.49633e-07 2.90784e-07 3.51748e-08 )  
( 1.93371e-06 3.68976e-07 -4.81922e-07 )  
( -1.87846e-07 4.58953e-08 -7.60753e-08 )  
( -6.77362e-08 -4.43168e-09 -2.64792e-08 )  
( -4.21526e-08 1.18488e-08 -1.05921e-08 )  
( 2.41554e-06 7.6572e-07 -5.38436e-07 )  
( 3.18373e-06 6.54937e-07 -1.24986e-06 )  
( 1.08935e-07 5.23044e-08 -4.32731e-07 )  
( 1.40641e-06 -2.70001e-07 -6.65206e-08 )  
( 5.62381e-07 2.71729e-07 -1.02651e-06 )  
( -1.74064e-07 6.87676e-08 -1.74499e-07 )  
( 1.93683e-06 -3.53809e-07 -1.743e-07 )  
( 1.54409e-07 -5.91019e-08 2.73798e-07 )  
( -2.50691e-07 4.82087e-08 -7.38408e-07 )  
( 3.03074e-06 7.83787e-07 -2.07736e-07 )  
( 1.33142e-06 5.98088e-08 -5.0827e-07 )  
( -1.07412e-07 -2.72194e-08 -5.25501e-08 )  
( -5.44785e-09 7.51924e-08 -3.20321e-07 )  
( 1.58256e-06 1.98044e-07 -3.70294e-07 )  
( 4.20454e-07 2.45821e-07 -9.84339e-07 )  
( -7.72695e-07 1.05421e-06 -1.4373e-06 )  
( 2.00072e-06 3.2006e-07 -6.48454e-07 )  
( -5.74157e-08 1.41653e-07 -7.45319e-07 )  
( 2.71335e-06 3.20061e-07 -1.0307e-06 )  
( -5.86793e-07 1.14879e-07 -5.27224e-07 )  
( 1.9012e-06 2.6388e-08 -3.43413e-07 )  
( 3.94752e-06 4.92531e-07 -1.53284e-06 )  
( 1.14003e-06 6.37185e-08 5.51936e-09 )  
( -2.47787e-07 1.50771e-08 -1.38834e-07 )  
( 1.07281e-06 3.94313e-07 -1.13895e-06 )  
( 1.81122e-06 3.71343e-07 5.19376e-08 )  
( -4.35042e-07 1.86478e-07 -7.6668e-07 )  
( 2.53569e-06 8.62182e-07 -5.89781e-07 )  
( 2.93339e-06 2.5509e-07 -6.58207e-07 )  
( 8.03637e-07 1.23443e-07 -1.7755e-07 )  
( 1.82502e-06 -2.31387e-07 -1.99585e-07 )  
( -2.85025e-07 3.11735e-07 -7.17105e-07 )  
( 8.70731e-07 7.0477e-09 -2.39987e-07 )  
( 2.56144e-09 1.45984e-08 -1.51169e-07 )  
( 1.82277e-06 2.50516e-07 -1.73488e-07 )  
( 1.13438e-06 1.09302e-07 -3.59764e-07 )  
( 5.67968e-08 9.03592e-08 -1.54673e-07 )  
( 9.03029e-07 -2.55615e-07 -3.02884e-07 )  
( -1.53513e-07 6.64924e-08 -4.82677e-07 )  
( 5.92022e-07 1.89301e-07 4.2197e-08 )  
( -1.4922e-07 5.50005e-08 -2.45989e-07 )  
( 2.35807e-06 5.9102e-07 -9.86025e-07 )  
( -2.13555e-07 8.97511e-08 -6.15465e-07 )  
( 5.03193e-07 -9.48289e-08 -2.29419e-07 )  
( -1.9597e-07 2.17601e-08 -2.0282e-07 )  
( 1.76061e-06 1.44886e-07 -4.65031e-07 )  
( -3.51116e-07 1.85204e-08 -3.89363e-07 )  
( 1.96973e-06 1.79036e-07 -4.05811e-07 )  
( -4.73527e-08 1.29612e-07 -4.74943e-07 )  
( -2.39393e-07 2.54379e-07 -3.04748e-07 )  
( -1.41977e-07 1.10753e-07 -4.13129e-07 )  
( 1.50437e-06 6.23318e-08 -4.08019e-07 )  
( 3.65415e-06 4.62668e-08 -6.54016e-07 )  
( -6.00051e-08 3.10459e-07 -3.28675e-07 )  
( -9.09987e-08 7.62694e-07 -1.04195e-06 )  
( -3.04717e-07 7.2235e-07 -8.24833e-07 )  
( 1.41398e-06 5.44533e-07 -8.00788e-08 )  
( 4.97773e-08 1.06177e-07 -3.3794e-07 )  
( -1.13795e-06 -1.1052e-07 -8.14401e-07 )  
( 1.27408e-06 1.0545e-06 -2.04018e-07 )  
( 3.27424e-06 8.66335e-07 -4.31939e-07 )  
( -7.10628e-07 5.11843e-06 5.24515e-07 )  
( 2.66442e-06 1.15936e-06 -3.17122e-07 )  
( 3.85865e-07 3.95355e-07 -1.59583e-08 )  
( 8.09926e-07 5.63367e-07 -1.16042e-07 )  
( 1.82819e-06 1.45034e-07 8.52641e-08 )  
( 3.492e-06 1.05431e-06 -5.12846e-07 )  
( 4.58471e-07 2.49355e-07 1.03783e-08 )  
( 5.72737e-08 1.57129e-07 2.52408e-08 )  
( -2.2898e-06 6.60558e-07 -7.19496e-07 )  
( 7.63209e-07 3.519e-07 -2.71472e-07 )  
( -8.27802e-07 9.40219e-07 -1.37472e-06 )  
( 3.02737e-06 3.97266e-07 -1.80699e-07 )  
( -8.80084e-07 1.59182e-06 -8.48167e-07 )  
( 2.48935e-06 -1.81598e-06 -1.32979e-07 )  
( 3.1287e-06 3.04484e-07 -1.28678e-07 )  
( 3.24072e-06 5.83027e-07 -6.55686e-08 )  
( 5.67543e-07 7.92939e-07 -2.92427e-07 )  
( 4.65639e-06 1.16387e-06 -1.11291e-06 )  
( 1.4554e-06 3.52988e-07 -1.10119e-07 )  
)
