/*--------------------------------*- C++ -*----------------------------------*\
| =========                 |                                                 |
| \\      /  F ield         | OpenFOAM: The Open Source CFD Toolbox           |
|  \\    /   O peration     | Version:  4.x                                   |
|   \\  /    A nd           | Web:      www.OpenFOAM.org                      |
|    \\/     M anipulation  |                                                 |
\*---------------------------------------------------------------------------*/
FoamFile
{
    version     2.0;
    format      ascii;
    class       volScalarField;
    location    "51";
    object      particleRelTemp;
}
// * * * * * * * * * * * * * * * * * * * * * * * * * * * * * * * * * * * * * //

dimensions      [0 0 0 0 0 0 0];

internalField   nonuniform List<scalar> 
114
(
-1.44445e-12
-1.35927e-12
-1.1767e-12
-1.04036e-12
-8.41956e-13
-7.85492e-13
-1.64168e-12
-1.58736e-12
-1.53317e-12
-1.45283e-12
-1.3479e-12
-1.21476e-12
-1.09914e-12
-9.56359e-13
-8.40735e-13
-1.66235e-12
-1.61448e-12
-1.5525e-12
-1.48622e-12
-1.3901e-12
-1.30719e-12
-1.19451e-12
-1.04221e-12
-9.7497e-13
-1.66395e-12
-1.63334e-12
-1.59002e-12
-1.53246e-12
-1.45422e-12
-1.41511e-12
-1.28807e-12
-1.19982e-12
-1.12727e-12
-1.1079e-12
-9.11811e-13
-7.24143e-13
-5.33865e-13
-1.65452e-12
-1.58627e-12
-1.49671e-12
-1.39894e-12
-1.2946e-12
-1.12651e-12
-9.81117e-13
-7.81534e-13
-6.14625e-13
-1.65136e-12
-1.59469e-12
-1.52736e-12
-1.43869e-12
-1.34054e-12
-1.23834e-12
-1.09965e-12
-9.39601e-13
-8.0364e-13
-1.65499e-12
-1.6112e-12
-1.55583e-12
-1.48631e-12
-1.41595e-12
-1.33435e-12
-1.23194e-12
-1.07556e-12
-9.90802e-13
-5.09064e-13
-2.97102e-13
-1.63785e-12
-1.5706e-12
-1.4661e-12
-1.3463e-12
-1.20706e-12
-1.01973e-12
-8.37409e-13
-6.12814e-13
-4.31968e-13
-1.64808e-12
-1.5826e-12
-1.4826e-12
-1.39292e-12
-1.24976e-12
-1.1207e-12
-9.77328e-13
-7.80102e-13
-5.21696e-13
-1.65136e-12
-1.59511e-12
-1.52724e-12
-1.42711e-12
-1.3474e-12
-1.23397e-12
-1.09948e-12
-9.56738e-13
-7.60018e-13
-1.62917e-12
-1.5325e-12
-1.43464e-12
-1.32374e-12
-1.17325e-12
-9.73328e-13
-7.61912e-13
-4.29189e-13
-1.64589e-12
-1.56362e-12
-1.48837e-12
-1.35978e-12
-1.22874e-12
-1.06971e-12
-9.57622e-13
-1.65204e-12
-1.5869e-12
-1.50635e-12
-1.41961e-12
-1.31313e-12
-1.17266e-12
)
;

boundaryField
{
    inlet
    {
        type            calculated;
        value           nonuniform List<scalar> 
12
(
-1.64168e-12
-1.66235e-12
-1.66395e-12
-1.65452e-12
-1.65136e-12
-1.65499e-12
-1.63785e-12
-1.64808e-12
-1.65136e-12
-1.62917e-12
-1.64589e-12
-1.65204e-12
)
;
    }
    outlet
    {
        type            calculated;
        value           nonuniform 0();
    }
    wall
    {
        type            calculated;
        value           nonuniform List<scalar> 
66
(
-1.64168e-12
-1.66235e-12
-1.66395e-12
-1.58736e-12
-1.61448e-12
-1.63334e-12
-1.53317e-12
-1.5525e-12
-1.59002e-12
-1.44445e-12
-1.45283e-12
-1.48622e-12
-1.53246e-12
-1.35927e-12
-1.3479e-12
-1.3901e-12
-1.45422e-12
-1.1767e-12
-1.21476e-12
-1.30719e-12
-1.41511e-12
-1.04036e-12
-1.09914e-12
-1.19451e-12
-1.28807e-12
-8.41956e-13
-9.56359e-13
-1.04221e-12
-1.19982e-12
-7.85492e-13
-8.40735e-13
-9.7497e-13
-1.12727e-12
-1.66395e-12
-1.65499e-12
-1.65136e-12
-1.65204e-12
-1.63334e-12
-1.6112e-12
-1.59511e-12
-1.5869e-12
-1.59002e-12
-1.55583e-12
-1.52724e-12
-1.50635e-12
-1.53246e-12
-1.48631e-12
-1.42711e-12
-1.41961e-12
-1.45422e-12
-1.41595e-12
-1.3474e-12
-1.31313e-12
-1.41511e-12
-1.33435e-12
-1.23397e-12
-1.17266e-12
-1.28807e-12
-1.23194e-12
-1.09948e-12
-1.19982e-12
-1.07556e-12
-9.56738e-13
-1.12727e-12
-9.90802e-13
-7.60018e-13
)
;
    }
    procBoundary2to0
    {
        type            processor;
        value           nonuniform List<scalar> 
44
(
-1.43136e-12
-1.34441e-12
-1.22483e-12
-1.06049e-12
-9.00947e-13
-7.63765e-13
-1.65368e-12
-1.57793e-12
-1.54896e-12
-1.54896e-12
-1.35009e-12
-1.2535e-12
-1.16057e-12
-9.46127e-13
-7.53323e-13
-5.25191e-13
-1.63507e-12
-1.55898e-12
-1.469e-12
-1.35009e-12
-1.2535e-12
-1.2535e-12
-1.02301e-12
-7.19848e-13
-5.32265e-13
-3.93104e-13
-1.6277e-12
-1.53591e-12
-1.43612e-12
-1.32908e-12
-1.17253e-12
-1.02301e-12
-7.19848e-13
-7.19848e-13
-4.65021e-13
-2.00678e-13
-1.62315e-12
-1.54526e-12
-1.43713e-12
-1.28319e-12
-1.14306e-12
-9.3139e-13
-6.3951e-13
-4.65021e-13
)
;
    }
    procBoundary2to3
    {
        type            processor;
        value           nonuniform List<scalar> 
12
(
-5.15296e-13
-6.09783e-13
-7.80776e-13
-1.0023e-12
-2.46111e-13
-3.70072e-13
-6.15088e-13
-7.57365e-13
6.82963e-14
-1.04845e-13
-2.43037e-13
-4.72179e-13
)
;
    }
    procBoundary2to6
    {
        type            processor;
        value           nonuniform List<scalar> 
32
(
-2.60932e-13
-7.44901e-13
-3.93651e-13
-1.06562e-12
-8.5842e-13
-6.50078e-13
-1.61966e-12
-1.53966e-12
-1.42799e-12
-1.28407e-12
-1.12996e-12
-9.65033e-13
-8.09492e-13
-2.60932e-13
-7.44901e-13
-5.76982e-13
-1.62568e-12
-1.57208e-12
-1.47966e-12
-1.35157e-12
-1.23237e-12
-1.08495e-12
-7.44901e-13
-1.06562e-12
-8.92821e-13
-1.64631e-12
-1.58513e-12
-1.521e-12
-1.40403e-12
-1.31258e-12
-1.06562e-12
-1.16744e-12
)
;
    }
}


// ************************************************************************* //
