/*--------------------------------*- C++ -*----------------------------------*\
| =========                 |                                                 |
| \\      /  F ield         | OpenFOAM: The Open Source CFD Toolbox           |
|  \\    /   O peration     | Version:  4.x                                   |
|   \\  /    A nd           | Web:      www.OpenFOAM.org                      |
|    \\/     M anipulation  |                                                 |
\*---------------------------------------------------------------------------*/
FoamFile
{
    version     2.0;
    format      ascii;
    class       volScalarField;
    location    "27.5";
    object      Cs;
}
// * * * * * * * * * * * * * * * * * * * * * * * * * * * * * * * * * * * * * //

dimensions      [1 -3 0 0 0 0 0];

internalField   nonuniform List<scalar> 
114
(
334.997
334.995
334.993
334.988
334.979
334.858
334.992
334.986
334.979
334.969
334.961
334.947
334.898
334.99
334.983
334.973
334.965
334.957
334.953
334.944
334.939
334.999
334.999
334.998
334.997
334.994
334.992
334.988
334.984
334.801
334.997
334.993
334.988
334.983
334.978
334.975
334.975
334.973
335.015
334.995
334.99
334.984
334.977
334.972
334.971
334.975
334.978
335.132
334.994
334.988
335
334.999
334.999
334.998
334.997
334.996
334.993
334.991
334.61
334.999
334.997
334.995
334.992
334.988
334.985
334.981
334.981
335.01
334.998
334.996
334.992
334.989
334.984
334.98
334.977
334.977
335.045
334.996
334.993
334.987
334.981
334.999
334.999
334.999
334.999
334.998
334.998
334.997
334.995
336.558
335
334.999
334.999
334.998
334.997
334.996
334.993
334.991
334.914
334.999
334.999
334.998
334.997
334.995
334.993
334.989
334.986
334.918
334.999
334.998
334.997
334.995
334.993
334.99
)
;

boundaryField
{
    inlet
    {
        type            calculated;
        value           nonuniform 0();
    }
    outlet
    {
        type            calculated;
        value           uniform 335;
    }
    wall
    {
        type            calculated;
        value           nonuniform List<scalar> 
66
(
334.999
335
334.999
334.999
334.999
334.999
334.999
334.998
334.999
334.999
334.998
334.997
334.999
334.998
334.997
334.995
334.998
334.997
334.995
334.993
334.998
334.996
334.993
334.99
334.997
334.993
334.989
334.995
334.991
334.986
336.558
334.914
334.918
334.999
335
334.999
334.999
334.999
334.999
334.998
334.999
334.999
334.997
334.997
334.998
334.999
334.995
334.994
334.997
334.998
334.993
334.992
334.996
334.998
334.988
334.988
334.993
334.997
334.979
334.984
334.991
334.995
334.858
334.801
334.61
336.558
)
;
    }
    procBoundary5to1
    {
        type            processor;
        value           nonuniform List<scalar> 
32
(
334.996
334.992
334.987
334.977
334.969
334.666
334.98
334.968
334.947
334.931
334.914
334.914
334.745
334.971
334.963
334.953
334.942
334.932
334.927
334.92
334.88
335
334.999
334.998
334.998
334.998
334.998
334.996
334.996
334.996
334.995
334.995
)
;
    }
    procBoundary5to4
    {
        type            processor;
        value           nonuniform List<scalar> 
12
(
335
334.998
334.998
334.997
335
334.999
334.999
334.998
334.999
335
335
334.999
)
;
    }
    procBoundary5to7
    {
        type            processor;
        value           nonuniform List<scalar> 
44
(
334.986
334.978
334.968
334.957
334.943
334.938
334.931
335.027
334.994
334.986
334.982
334.975
334.969
334.964
334.967
334.971
335.285
334.99
334.982
334.983
334.982
334.975
334.976
334.973
334.974
334.979
335.058
334.997
334.994
334.99
334.976
334.985
334.976
334.973
334.985
334.981
334.887
334.999
334.999
334.998
334.996
334.993
334.985
334.989
)
;
    }
}


// ************************************************************************* //
