/*--------------------------------*- C++ -*----------------------------------*\
| =========                 |                                                 |
| \\      /  F ield         | OpenFOAM: The Open Source CFD Toolbox           |
|  \\    /   O peration     | Version:  4.x                                   |
|   \\  /    A nd           | Web:      www.OpenFOAM.org                      |
|    \\/     M anipulation  |                                                 |
\*---------------------------------------------------------------------------*/
FoamFile
{
    version     2.0;
    format      ascii;
    class       volVectorField;
    location    "27.5";
    object      ddtUrel;
}
// * * * * * * * * * * * * * * * * * * * * * * * * * * * * * * * * * * * * * //

dimensions      [0 1 -2 0 0 0 0];

internalField   nonuniform List<vector> 
114
(
(3.16563e-07 -2.95116e-08 -1.04972e-07)
(1.96632e-07 -1.50119e-08 -9.91786e-08)
(3.36124e-08 -1.72628e-08 -8.35681e-08)
(-2.48605e-07 -5.44766e-09 -5.21745e-08)
(-4.16905e-07 2.05587e-08 -3.18631e-08)
(-3.80734e-07 3.70482e-08 -1.19401e-08)
(4.03872e-07 -9.28521e-08 -1.23342e-07)
(3.21494e-07 -3.77227e-08 -1.1119e-07)
(1.91798e-07 -4.6174e-08 -1.07189e-07)
(1.51653e-08 -1.62507e-08 -9.79659e-08)
(-3.25899e-07 3.11127e-09 -8.34755e-08)
(-5.09021e-07 2.75076e-08 -4.47602e-08)
(-4.56973e-07 5.06293e-08 -1.2459e-08)
(2.86524e-07 -1.55419e-07 -1.79013e-07)
(4.36843e-07 -9.46787e-08 -1.5514e-07)
(3.50031e-07 -5.07626e-08 -1.28335e-07)
(1.84247e-07 -4.67203e-08 -9.68923e-08)
(-4.90719e-08 5.89005e-09 -9.10631e-08)
(-3.99106e-07 2.94909e-08 -7.60482e-08)
(-5.64359e-07 2.58915e-08 -5.47517e-08)
(-4.7291e-07 5.46779e-08 -2.62421e-08)
(2.67816e-07 -7.08892e-08 -9.92669e-08)
(3.34467e-07 -7.18436e-08 -7.03862e-08)
(3.69036e-07 -3.33183e-08 -5.51948e-08)
(2.84627e-07 -2.59736e-08 -5.86319e-08)
(1.73278e-07 -2.93857e-08 -4.12559e-08)
(-1.71588e-09 -1.33326e-08 -4.57428e-08)
(-2.60326e-07 -1.65421e-08 -2.72495e-08)
(-4.17288e-07 7.29916e-09 -4.8514e-09)
(-3.54022e-07 2.9706e-08 1.95444e-09)
(3.44302e-07 -1.00798e-07 -1.32965e-07)
(3.40735e-07 -1.0119e-07 -9.72463e-08)
(3.7078e-07 -7.48401e-08 -8.37399e-08)
(2.95291e-07 -3.56363e-08 -7.34923e-08)
(1.82708e-07 -3.37793e-08 -5.64455e-08)
(1.61709e-08 -7.04658e-09 -5.17571e-08)
(-2.66122e-07 1.07227e-08 -3.24049e-08)
(-4.06053e-07 7.19006e-09 -1.10192e-08)
(-3.56337e-07 2.82401e-08 -2.09167e-09)
(3.84009e-07 -1.42614e-07 -1.6343e-07)
(3.63505e-07 -9.9537e-08 -1.12405e-07)
(3.99618e-07 -5.78418e-08 -9.81102e-08)
(3.47055e-07 -3.56008e-08 -8.887e-08)
(1.19111e-07 -2.02868e-08 -5.31466e-08)
(-2.46133e-08 1.0181e-08 -4.97231e-08)
(-3.43951e-07 3.77883e-08 -3.77529e-08)
(-4.54228e-07 3.08508e-08 -1.54417e-08)
(-3.60025e-07 3.93359e-08 -1.55311e-08)
(4.52837e-07 -1.25186e-07 -1.65359e-07)
(4.89211e-07 -9.26834e-08 -1.32342e-07)
(3.00879e-07 -5.87232e-08 -7.01721e-08)
(3.11026e-07 -6.50691e-08 -6.14234e-08)
(2.89502e-07 -6.01462e-08 -5.24792e-08)
(2.49011e-07 -2.87554e-08 -4.21395e-08)
(1.45807e-07 -1.76368e-08 -2.32527e-08)
(-9.22616e-09 -1.23039e-08 -2.66268e-08)
(-2.66992e-07 -1.19888e-08 -4.30661e-09)
(-4.19588e-07 7.80875e-09 9.85537e-09)
(-3.63205e-07 2.46219e-08 2.91306e-09)
(3.39479e-07 -6.0737e-08 -8.46595e-08)
(3.37832e-07 -7.40466e-08 -6.85417e-08)
(3.21244e-07 -6.13348e-08 -7.84457e-08)
(2.96828e-07 -2.22868e-08 -5.20622e-08)
(1.67341e-07 -1.54796e-08 -2.36302e-08)
(-1.31246e-09 -5.82655e-09 -1.95083e-08)
(-2.99488e-07 -1.09033e-08 9.61734e-09)
(-4.35619e-07 7.12252e-09 1.74585e-08)
(-3.63765e-07 2.95388e-08 1.66142e-11)
(3.9778e-07 -6.29361e-08 -1.01747e-07)
(3.81136e-07 -7.18191e-08 -7.93974e-08)
(3.69687e-07 -4.70937e-08 -6.5018e-08)
(3.12746e-07 -2.01902e-08 -6.33825e-08)
(1.53117e-07 -7.75176e-09 -2.53988e-08)
(-2.46012e-08 9.38171e-09 -2.55466e-08)
(-3.27056e-07 1.74681e-08 -9.81569e-09)
(-4.26481e-07 2.52404e-08 1.21278e-08)
(-3.57751e-07 4.07666e-08 -2.1778e-09)
(4.54207e-07 -4.27231e-08 -1.05745e-07)
(4.14328e-07 -5.79357e-08 -9.26369e-08)
(3.99299e-07 -4.58779e-08 -9.30524e-08)
(3.13938e-07 -1.48489e-08 -6.62935e-08)
(2.92402e-07 -5.63745e-08 -5.68509e-08)
(2.70651e-07 -7.60168e-08 -5.02112e-08)
(2.00587e-07 -1.28245e-07 -4.72089e-08)
(2.18278e-07 -4.97695e-08 -4.03976e-08)
(1.31301e-07 -2.10275e-08 -2.96675e-08)
(-6.86906e-09 -1.27743e-08 -2.21655e-08)
(-2.33155e-07 -1.15544e-08 2.32363e-09)
(-3.63724e-07 5.33526e-09 1.25984e-08)
(-2.81524e-07 2.40143e-08 4.17577e-09)
(3.37309e-07 -5.06963e-08 -6.04675e-08)
(3.15035e-07 -6.91676e-08 -5.25037e-08)
(2.84665e-07 -8.22831e-08 -5.13782e-08)
(2.49809e-07 -2.98045e-08 -4.41157e-08)
(1.18754e-07 -1.31443e-08 -3.06714e-08)
(-3.69537e-08 -8.20024e-09 -2.22117e-08)
(-3.01551e-07 -6.08653e-09 8.36907e-09)
(-4.1437e-07 1.2692e-08 9.57676e-09)
(-3.36131e-07 2.69546e-08 -3.47463e-09)
(3.97275e-07 -4.28364e-08 -7.34903e-08)
(3.58308e-07 -5.7698e-08 -6.00133e-08)
(3.25551e-07 -4.8905e-08 -4.99197e-08)
(2.46297e-07 -1.60898e-08 -3.93173e-08)
(1.08947e-07 -1.01473e-09 -2.71263e-08)
(-5.12619e-08 1.04604e-08 -1.44888e-08)
(-3.42728e-07 1.46113e-08 1.48195e-08)
(-4.46161e-07 3.25687e-08 6.42326e-09)
(-3.47663e-07 4.77622e-08 -1.24306e-08)
(4.20941e-07 -2.11323e-08 -8.28147e-08)
(4.06337e-07 -4.68373e-08 -5.71255e-08)
(3.40174e-07 -6.32908e-08 -4.85337e-08)
(2.22837e-07 -9.25478e-09 -4.25899e-08)
(9.30645e-08 2.67659e-08 -1.61313e-08)
(-8.08902e-08 4.28944e-08 -3.76631e-09)
)
;

boundaryField
{
    inlet
    {
        type            calculated;
        value           nonuniform 0();
    }
    outlet
    {
        type            calculated;
        value           nonuniform List<vector> 
12
(
(-5.39128e-08 -1.83538e-08 3.46179e-08)
(1.20784e-07 1.27232e-08 3.54938e-08)
(4.43725e-08 3.382e-08 2.35403e-08)
(5.1213e-08 1.69194e-08 -3.0757e-08)
(2.62262e-08 -1.64521e-08 5.02391e-08)
(2.02835e-08 -2.49325e-08 1.69389e-08)
(4.14584e-08 3.86488e-09 -3.47238e-08)
(-3.08534e-08 -1.55516e-08 9.38569e-09)
(4.28448e-08 -6.37127e-08 1.25803e-08)
(1.19924e-07 9.26254e-09 2.05035e-09)
(2.574e-08 2.38217e-09 -2.34146e-09)
(7.05448e-08 1.28908e-08 -5.7734e-09)
)
;
    }
    wall
    {
        type            calculated;
        value           nonuniform List<vector> 
66
(
(3.42551e-07 -3.0441e-08 1.28009e-08)
(5.56071e-07 -4.78768e-08 1.04242e-08)
(4.29097e-07 -7.44446e-08 1.32694e-08)
(4.42736e-07 -3.66633e-08 -1.98361e-07)
(2.96973e-07 -1.76974e-09 -1.67615e-08)
(5.54443e-07 -8.89873e-08 1.52129e-08)
(3.41737e-07 -8.00944e-08 2.55194e-08)
(5.80659e-07 -5.6126e-08 1.13257e-07)
(-5.50504e-07 -9.07663e-07 -1.14486e-08)
(6.67816e-07 -3.42021e-07 -1.93551e-08)
(3.76006e-07 7.96912e-08 4.95462e-08)
(1.4249e-07 -5.79467e-07 2.88397e-07)
(2.68535e-07 1.14386e-08 -2.57605e-08)
(8.19261e-07 1.07187e-07 -3.06232e-08)
(2.63427e-07 3.25271e-08 -4.58993e-08)
(-4.80399e-08 2.51301e-08 -4.17954e-08)
(1.41578e-07 -1.98293e-08 -7.62743e-09)
(3.40384e-07 -3.82853e-08 -1.64692e-08)
(1.8714e-07 7.55687e-08 -2.22082e-08)
(-2.34566e-07 1.00411e-07 1.20991e-07)
(5.12394e-07 -6.27349e-08 -9.66871e-08)
(6.88246e-07 -3.42106e-08 -1.59437e-07)
(4.66285e-08 4.56904e-08 -2.64012e-08)
(-1.44031e-07 8.02668e-08 -7.95118e-08)
(-3.82008e-07 -3.63971e-08 1.87376e-08)
(-7.88966e-07 -6.53626e-08 6.3555e-08)
(-9.53173e-07 -3.81688e-08 1.48415e-07)
(-9.18479e-07 1.62239e-08 1.54818e-08)
(-1.11222e-06 -2.61011e-08 3.81109e-08)
(-1.09562e-06 -3.87128e-08 1.24511e-08)
(7.68089e-08 3.39933e-08 -1.0579e-09)
(-7.48054e-08 6.05107e-08 -2.15254e-08)
(-6.4049e-09 2.3396e-08 -4.15643e-08)
(1.70638e-07 -2.53469e-08 -1.73504e-08)
(2.60072e-07 3.6871e-08 -6.18968e-08)
(2.7754e-07 -2.34019e-08 1.54945e-08)
(4.67887e-07 -2.59919e-08 3.37296e-08)
(3.74691e-07 3.35063e-09 -8.38419e-09)
(2.46291e-07 3.44848e-09 -1.25044e-08)
(3.71268e-07 2.68708e-07 5.28865e-08)
(3.59197e-07 1.81856e-08 -3.18703e-08)
(-1.56513e-06 -8.86806e-07 -8.32981e-09)
(3.45208e-07 5.54308e-08 -8.73791e-09)
(4.8287e-07 3.32225e-08 2.79944e-08)
(4.65116e-07 4.9876e-08 -1.40764e-08)
(2.03035e-07 9.79952e-09 -2.78639e-08)
(-3.28888e-08 4.97929e-08 -8.05709e-08)
(3.27171e-07 -1.23188e-07 1.16249e-07)
(3.75987e-07 2.43826e-08 4.34156e-08)
(1.50696e-07 -1.99076e-08 -9.21149e-09)
(3.79227e-07 -3.56806e-08 -1.16194e-07)
(2.10533e-07 -1.51383e-08 -1.662e-08)
(7.6001e-08 -2.9865e-08 -2.52345e-08)
(1.77956e-07 -6.88882e-08 -9.80664e-08)
(-6.37038e-07 -6.45611e-08 1.46641e-08)
(-7.29248e-07 -2.21238e-07 -2.99904e-08)
(-6.46082e-07 -9.17898e-08 -4.05624e-09)
(-4.04995e-07 -3.5309e-08 1.68485e-08)
(-1.15569e-06 5.55749e-08 4.14766e-08)
(-1.0741e-06 -1.05174e-07 6.3595e-08)
(-1.01571e-06 3.3017e-09 2.56453e-08)
(-8.26317e-07 2.38202e-08 1.62779e-08)
(-1.9012e-07 2.78901e-08 5.9795e-08)
(-6.0282e-08 7.48739e-08 -6.85759e-08)
(-4.69872e-08 3.98273e-08 -5.9175e-08)
(1.2185e-07 1.86054e-08 -1.10229e-08)
)
;
    }
    procBoundary5to1
    {
        type            processor;
        value           nonuniform List<vector> 
32
(
(2.92336e-07 -1.5393e-08 -1.43705e-07)
(1.75089e-07 -2.4533e-08 -1.60955e-07)
(3.01551e-08 -1.09227e-08 -1.48731e-07)
(-2.79155e-07 1.38621e-08 -9.98931e-08)
(-4.81179e-07 2.9012e-08 -7.77964e-08)
(-4.01944e-07 3.94078e-08 -4.42559e-08)
(3.80567e-07 -1.10761e-07 -1.99105e-07)
(2.43099e-07 -3.16362e-08 -1.74832e-07)
(1.82373e-07 -5.65052e-08 -1.55064e-07)
(2.42139e-08 -8.35304e-09 -1.49685e-07)
(-3.79496e-07 3.04157e-08 -1.08443e-07)
(-6.33138e-07 3.71187e-08 -6.86723e-08)
(-4.98905e-07 4.43078e-08 -4.68959e-08)
(1.55172e-07 -1.77938e-07 -3.10252e-07)
(4.4799e-07 -3.991e-08 -2.76413e-07)
(2.97384e-07 -6.28003e-08 -2.12456e-07)
(1.92165e-07 -9.29785e-08 -1.68339e-07)
(2.32689e-08 8.40983e-09 -1.35965e-07)
(-4.32581e-07 3.00459e-08 -1.21155e-07)
(-7.03189e-07 3.01916e-08 -9.44179e-08)
(-5.85425e-07 4.41138e-08 -4.80228e-08)
(2.89203e-07 -1.2141e-07 -1.77096e-07)
(3.72568e-07 -8.96856e-08 -1.15813e-07)
(4.37659e-07 -4.70278e-08 -1.07696e-07)
(4.37659e-07 -4.70278e-08 -1.07696e-07)
(4.37659e-07 -4.70278e-08 -1.07696e-07)
(3.25883e-07 -1.66704e-07 -2.18433e-07)
(3.41354e-07 -1.52494e-07 -1.42644e-07)
(3.41354e-07 -1.52494e-07 -1.42644e-07)
(3.41354e-07 -1.52494e-07 -1.42644e-07)
(2.64054e-07 -2.2724e-07 -2.9565e-07)
(2.64054e-07 -2.2724e-07 -2.9565e-07)
)
;
    }
    procBoundary5to4
    {
        type            processor;
        value           nonuniform List<vector> 
12
(
(2.79889e-07 -9.06654e-08 -1.24096e-07)
(3.9734e-07 -1.06274e-07 -1.53248e-07)
(4.43106e-07 -1.2983e-07 -1.84296e-07)
(5.06426e-07 -1.1778e-07 -1.955e-07)
(2.85902e-07 -6.29813e-08 -7.54562e-08)
(3.46529e-07 -6.16163e-08 -9.35302e-08)
(4.0566e-07 -6.73928e-08 -1.13319e-07)
(4.66478e-07 -5.8101e-08 -1.45551e-07)
(2.83084e-07 -3.92039e-08 -5.77787e-08)
(3.21765e-07 -3.83389e-08 -6.65843e-08)
(3.55813e-07 -3.21993e-08 -8.46162e-08)
(3.82303e-07 -2.89704e-08 -1.15095e-07)
)
;
    }
    procBoundary5to7
    {
        type            processor;
        value           nonuniform List<vector> 
44
(
(3.29949e-07 -1.47559e-07 -2.33872e-07)
(4.32178e-07 -1.08593e-07 -2.74644e-07)
(3.78175e-07 -5.14072e-08 -1.49035e-07)
(2.25939e-07 2.96826e-10 -6.33723e-08)
(-1.6622e-08 2.63369e-08 -9.35483e-08)
(-4.21394e-07 7.04316e-08 -5.63721e-08)
(-5.88056e-07 6.12509e-08 -4.34132e-08)
(-5.09332e-07 6.6205e-08 -1.21481e-08)
(3.59461e-07 -2.17962e-07 -2.72052e-07)
(3.29949e-07 -1.47559e-07 -2.33872e-07)
(4.37554e-07 -8.41877e-08 -1.17491e-07)
(3.31543e-07 -4.07505e-08 -9.9033e-08)
(1.62546e-07 -4.71072e-09 -7.20416e-08)
(3.52692e-09 3.88983e-08 -6.35365e-08)
(-3.70782e-07 6.7343e-08 -4.02651e-08)
(-4.99873e-07 7.96066e-08 -8.60236e-09)
(-4.08467e-07 7.23304e-08 6.49811e-09)
(5.32489e-07 -1.03562e-07 -1.85005e-07)
(4.37554e-07 -8.41877e-08 -1.17491e-07)
(4.91151e-07 -1.05689e-07 -1.51248e-07)
(4.37554e-07 -8.41877e-08 -1.17491e-07)
(3.31543e-07 -4.07505e-08 -9.9033e-08)
(1.32385e-07 9.32921e-11 -1.62368e-08)
(-7.49065e-08 2.94284e-08 -1.51003e-08)
(-3.75688e-07 6.15524e-08 -7.18979e-09)
(-4.70964e-07 8.81965e-08 2.34107e-08)
(-3.77624e-07 9.2515e-08 1.54831e-08)
(4.82294e-07 -6.92352e-08 -1.433e-07)
(4.47379e-07 -6.14336e-08 -1.07338e-07)
(4.09562e-07 -4.61205e-08 -7.6994e-08)
(1.32385e-07 9.32921e-11 -1.62368e-08)
(3.31913e-07 -4.14245e-09 -6.37384e-08)
(1.32385e-07 9.32921e-11 -1.62368e-08)
(-7.49065e-08 2.94284e-08 -1.51003e-08)
(-3.91581e-07 4.52963e-08 2.81996e-08)
(-5.02983e-07 8.4197e-08 2.80223e-08)
(-4.16342e-07 1.08864e-07 1.73169e-08)
(3.95662e-07 -3.63006e-08 -1.20252e-07)
(4.1925e-07 -4.78774e-08 -7.66374e-08)
(3.54612e-07 -4.26058e-08 -5.45506e-08)
(2.39496e-07 2.80511e-09 -4.81011e-08)
(9.80113e-08 4.05699e-08 -1.24169e-08)
(-3.91581e-07 4.52963e-08 2.81996e-08)
(-7.76844e-08 5.46486e-08 5.59285e-09)
)
;
    }
}


// ************************************************************************* //
