/*--------------------------------*- C++ -*----------------------------------*\
| =========                 |                                                 |
| \\      /  F ield         | OpenFOAM: The Open Source CFD Toolbox           |
|  \\    /   O peration     | Version:  4.x                                   |
|   \\  /    A nd           | Web:      www.OpenFOAM.org                      |
|    \\/     M anipulation  |                                                 |
\*---------------------------------------------------------------------------*/
FoamFile
{
    version     2.0;
    format      ascii;
    class       surfaceScalarField;
    location    "27.5";
    object      phi;
}
// * * * * * * * * * * * * * * * * * * * * * * * * * * * * * * * * * * * * * //

dimensions      [0 3 -1 0 0 0 0];

internalField   nonuniform List<scalar> 
259
(
8.10583e-06
1.57272e-07
2.14369e-07
7.47846e-06
-4.92839e-08
1.85071e-07
6.93213e-06
3.59292e-07
3.70244e-07
5.70785e-06
-3.63383e-09
5.35483e-07
5.97948e-06
6.66678e-07
8.81241e-08
1.64095e-08
2.31172e-06
6.13529e-06
-1.2207e-07
-5.70392e-08
6.03471e-06
1.09861e-07
2.5086e-07
5.81474e-06
-9.50318e-08
-1.39007e-08
5.91948e-06
3.20509e-07
4.47273e-07
5.25679e-06
-1.18924e-07
1.96518e-07
5.74714e-06
1.00541e-06
6.72176e-07
-4.63941e-07
1.42547e-06
5.08337e-06
4.97219e-08
4.89219e-06
-1.91937e-12
4.9645e-06
2.69742e-07
4.78521e-06
7.26564e-08
5.04703e-06
4.54602e-07
4.47553e-06
2.6555e-07
6.36561e-06
7.38336e-08
3.94523e-07
8.70918e-06
-8.86848e-08
-2.96328e-08
8.64521e-06
-8.39384e-09
8.00241e-08
8.68862e-06
-6.99927e-08
6.72055e-08
8.58772e-06
1.64424e-07
1.50849e-07
8.73274e-06
-2.10485e-07
2.50531e-07
8.69909e-06
3.18593e-07
8.53022e-08
9.33642e-06
-7.54989e-07
6.53142e-07
9.23531e-06
8.67649e-07
-6.78417e-07
-3.34114e-06
2.14496e-06
5.87272e-06
-4.73644e-08
-2.82001e-09
5.64164e-06
5.12959e-08
7.54813e-08
5.4976e-06
-8.5448e-09
2.55568e-08
5.78867e-06
6.91624e-08
5.50474e-08
5.58899e-06
-1.53756e-07
1.29054e-07
6.24789e-06
9.67476e-08
1.02183e-08
5.79532e-06
-6.88591e-07
5.82692e-07
7.09785e-06
8.23484e-07
-5.86194e-07
-2.58481e-06
2.96558e-06
5.18653e-06
-4.19245e-09
2.34201e-08
5.24955e-06
1.45524e-08
2.34488e-08
5.19341e-06
4.75955e-08
5.559e-06
7.91387e-08
5.41569e-06
1.62744e-07
5.98159e-06
1.88671e-07
5.34813e-06
5.60454e-07
6.04016e-06
-2.65011e-07
1.62406e-06
5.05968e-06
4.55254e-08
1.74116e-08
9.14775e-06
-7.03956e-08
7.41094e-09
9.22042e-06
-6.46692e-08
7.20268e-08
9.32316e-06
-6.11165e-08
2.55754e-08
9.40808e-06
5.69119e-08
9.01986e-09
9.58027e-06
-1.02135e-07
1.80472e-07
9.43836e-06
3.90016e-07
-1.62796e-07
9.73093e-06
-2.18327e-07
5.78898e-07
8.8265e-06
1.05612e-06
-8.30111e-07
-1.01587e-06
1.01754e-06
7.06349e-06
-1.15568e-07
1.36486e-08
7.07063e-06
-6.68735e-08
7.05448e-08
7.18039e-06
-1.72684e-07
2.73714e-08
7.31334e-06
5.26822e-08
-7.36745e-08
7.52896e-06
-2.96283e-07
1.07581e-07
7.88291e-06
3.27708e-07
-2.81421e-07
8.57782e-06
-7.16033e-07
3.85482e-07
8.8601e-06
1.08199e-06
-8.94343e-07
-2.66226e-06
1.48103e-06
6.22285e-06
-5.14419e-08
5.34519e-08
6.21664e-06
-2.50652e-08
-1.21491e-08
6.04526e-06
-6.12949e-08
1.07592e-07
6.2064e-06
9.39799e-09
-3.87165e-08
5.92538e-06
2.61753e-07
6.51008e-06
-1.53857e-07
6.02491e-06
7.07519e-07
7.06435e-06
-6.48561e-07
2.23866e-06
5.65722e-06
6.14515e-08
5.63643e-06
-7.80582e-09
5.54937e-06
5.84919e-08
-9.08065e-08
1.09107e-05
-1.92759e-07
1.11483e-05
-1.65597e-07
1.14149e-05
-2.4097e-07
1.1522e-05
-9.81691e-08
1.21129e-05
-4.10347e-07
1.18427e-05
1.07397e-07
1.31592e-05
-7.37669e-07
1.14849e-05
8.44209e-07
-1.50193e-06
9.51875e-06
-2.7022e-07
9.64582e-06
-2.22123e-07
9.81808e-06
-3.8585e-07
9.83233e-06
-1.86101e-07
1.01077e-05
-5.78125e-07
9.88e-06
5.36674e-08
1.04357e-05
-9.07876e-07
9.4422e-06
9.43358e-07
-1.50069e-06
8.45781e-06
-1.96793e-07
8.39412e-06
-1.70575e-07
8.39723e-06
-2.81374e-07
8.37979e-06
-2.07373e-07
8.50905e-06
-4.45634e-07
8.50653e-06
-9.76748e-08
9.15173e-06
8.74977e-06
8.15404e-06
8.07344e-06
8.02035e-06
7.85284e-06
7.83127e-06
)
;

boundaryField
{
    inlet
    {
        type            calculated;
        value           nonuniform 0();
    }
    outlet
    {
        type            calculated;
        value           nonuniform List<scalar> 
12
(
3.14336e-06
3.39783e-06
5.04756e-06
1.27432e-05
4.80141e-06
3.0394e-06
1.09698e-05
1.1991e-05
5.36823e-06
1.40044e-05
1.0922e-05
1.11607e-05
)
;
    }
    wall
    {
        type            calculated;
        value           nonuniform List<scalar> 
66
(
0
0
0
0
0
0
0
0
0
0
0
0
0
0
0
0
0
0
0
0
0
0
0
0
0
0
0
0
0
0
0
0
0
0
4.93038e-32
0
0
0
2.46519e-32
0
0
9.86076e-32
0
0
0
0
0
0
0
0
0
0
0
0
0
0
-9.86076e-32
0
0
0
0
4.93038e-32
0
0
0
0
)
;
    }
    procBoundary5to1
    {
        type            processor;
        value           nonuniform List<scalar> 
32
(
9.77521e-08
4.91587e-07
-1.83211e-07
6.92437e-07
-1.02643e-06
5.07994e-07
2.19596e-07
-1.02869e-07
2.79612e-07
-5.13225e-07
5.81457e-07
-1.50125e-06
1.40419e-06
-1.72763e-08
7.19121e-12
-2.96405e-07
5.63642e-12
-5.6788e-07
2.13265e-07
-9.59919e-07
5.3327e-07
7.27809e-08
-7.6549e-09
-8.57522e-06
8.04246e-08
-4.06292e-08
4.90396e-08
-6.2562e-06
1.42031e-09
9.59055e-08
-5.21176e-06
1.86577e-08
)
;
    }
    procBoundary5to4
    {
        type            processor;
        value           nonuniform List<scalar> 
12
(
-8.66364e-06
-5.96026e-06
-5.27178e-06
-5.19325e-06
-9.1144e-06
-7.03479e-06
-6.31701e-06
-5.71685e-06
-1.07105e-05
-9.42764e-06
-8.47779e-06
-8.18094e-06
)
;
    }
    procBoundary5to7
    {
        type            processor;
        value           nonuniform List<scalar> 
44
(
9.45298e-08
6.91022e-08
6.42162e-08
1.15946e-08
1.71963e-07
-2.62383e-08
1.4175e-09
-7.36867e-08
8.7283e-08
5.30373e-09
-2.02796e-12
-1.05827e-07
-1.00529e-07
-2.0323e-07
-3.50028e-07
4.70297e-07
-8.13588e-07
-3.43326e-09
5.08631e-06
-3.47905e-08
-2.81063e-08
-1.5455e-07
-1.14269e-07
8.55269e-08
-3.77921e-07
4.26099e-07
-1.58074e-06
-7.73688e-09
2.09406e-08
-4.62158e-09
5.82819e-06
-2.40594e-08
-1.53227e-07
5.48486e-08
-8.45552e-07
6.9676e-07
-1.67292e-06
-1.08441e-07
-9.77843e-08
-1.69786e-07
-1.3067e-07
-2.70843e-07
7.80796e-06
-1.29215e-07
)
;
    }
}


// ************************************************************************* //
