/*--------------------------------*- C++ -*----------------------------------*\
| =========                 |                                                 |
| \\      /  F ield         | OpenFOAM: The Open Source CFD Toolbox           |
|  \\    /   O peration     | Version:  4.x                                   |
|   \\  /    A nd           | Web:      www.OpenFOAM.org                      |
|    \\/     M anipulation  |                                                 |
\*---------------------------------------------------------------------------*/
FoamFile
{
    version     2.0;
    format      ascii;
    class       volScalarField;
    location    "27.5";
    object      thCond;
}
// * * * * * * * * * * * * * * * * * * * * * * * * * * * * * * * * * * * * * //

dimensions      [1 1 -3 -1 0 0 0];

internalField   nonuniform List<scalar> 
114
(
190.182
189.994
189.989
189.911
189.881
189.899
190.186
190.204
190.081
189.923
189.733
189.702
189.835
190.025
190.121
189.915
189.934
189.923
189.71
189.845
189.712
190.318
190.369
190.055
190.05
189.836
189.73
189.704
189.82
189.881
190.112
190.037
189.812
189.794
189.59
189.531
189.658
189.497
189.694
189.939
190.104
189.798
189.638
189.605
189.511
189.446
189.485
189.645
189.743
189.966
190.207
189.979
190.004
189.812
189.713
189.675
189.629
189.651
189.793
190.148
189.87
189.929
189.724
189.527
189.484
189.363
189.546
189.744
189.987
189.882
189.692
189.61
189.246
189.335
189.258
189.256
189.357
189.995
189.583
189.423
189.457
190.683
190.237
190.332
189.923
189.872
189.938
189.744
189.775
189.875
190.226
190.095
190.197
189.911
189.618
189.651
189.785
189.643
189.777
190.083
189.93
189.624
189.617
189.495
189.35
189.513
189.505
189.559
189.946
189.883
189.587
189.603
189.254
189.397
)
;

boundaryField
{
    inlet
    {
        type            zeroGradient;
    }
    outlet
    {
        type            zeroGradient;
    }
    wall
    {
        type            zeroGradient;
    }
    procBoundary5to1
    {
        type            processor;
        value           nonuniform List<scalar> 
32
(
190.574
190.601
190.27
190.31
190.562
190.921
190.823
190.626
190.454
190.305
190.26
190.338
190.818
190.604
190.629
190.23
190.191
190.073
190.11
190.155
190.686
190.692
190.611
190.215
190.215
190.215
190.427
190.073
190.073
190.073
190.286
190.286
)
;
    }
    procBoundary5to4
    {
        type            processor;
        value           nonuniform List<scalar> 
12
(
190.13
190.035
190.184
190.177
189.984
189.931
190.026
190.017
190.174
190.04
190.103
190.143
)
;
    }
    procBoundary5to7
    {
        type            processor;
        value           nonuniform List<scalar> 
44
(
189.865
189.93
189.794
189.449
189.384
189.496
189.731
189.556
189.899
189.865
189.736
189.559
189.483
189.409
189.263
189.319
189.46
190.121
189.736
189.669
189.736
189.559
189.52
189.483
189.351
189.443
189.558
189.83
189.671
189.604
189.52
189.663
189.52
189.483
189.594
189.58
189.674
189.997
189.908
189.615
189.595
189.684
189.594
189.817
)
;
    }
}


// ************************************************************************* //
