/*--------------------------------*- C++ -*----------------------------------*\
| =========                 |                                                 |
| \\      /  F ield         | OpenFOAM: The Open Source CFD Toolbox           |
|  \\    /   O peration     | Version:  4.x                                   |
|   \\  /    A nd           | Web:      www.OpenFOAM.org                      |
|    \\/     M anipulation  |                                                 |
\*---------------------------------------------------------------------------*/
FoamFile
{
    version     2.0;
    format      ascii;
    class       volScalarField;
    location    "42.5";
    object      QWallFluidCoeff;
}
// * * * * * * * * * * * * * * * * * * * * * * * * * * * * * * * * * * * * * //

dimensions      [1 -1 -3 -1 0 0 0];

internalField   nonuniform List<scalar> 
87
(
0
0
0
-2.90609e+06
-1.60743e+06
-2.96004e+06
0
0
0
0
0
0
0
0
0
0
0
0
0
0
0
0
0
0
-2.75623e+06
-1.36501e+06
-2.76952e+06
-1.39997e+06
-2.75919e+06
-1.36309e+06
-2.76101e+06
-1.30902e+06
-2.74718e+06
0
0
0
0
0
0
0
0
0
0
0
0
0
0
0
0
0
0
-2.75127e+06
-1.43447e+06
-2.80611e+06
-1.53816e+06
-2.83325e+06
-1.59612e+06
-2.87068e+06
-1.62293e+06
-2.90563e+06
-2.72131e+06
-1.36815e+06
-2.72887e+06
-1.3696e+06
-2.73349e+06
-1.36399e+06
-2.73959e+06
-1.31584e+06
-2.77931e+06
-2.73608e+06
-1.43652e+06
-2.77901e+06
-1.52391e+06
-2.80848e+06
-1.57312e+06
-2.84361e+06
-1.58686e+06
-2.87238e+06
-5.52199e+06
-3.03513e+06
-5.70413e+06
-3.4253e+06
-5.89385e+06
-3.69955e+06
-6.03228e+06
-3.87032e+06
-6.09628e+06
)
;

boundaryField
{
    inlet
    {
        type            calculated;
        value           uniform 0;
    }
    outlet
    {
        type            calculated;
        value           nonuniform 0();
    }
    wall
    {
        type            calculated;
        value           uniform 0;
    }
    procBoundary6to0
    {
        type            processor;
        value           uniform 0;
    }
    procBoundary6to2
    {
        type            processor;
        value           uniform 0;
    }
    procBoundary6to4
    {
        type            processor;
        value           uniform 0;
    }
    procBoundary6to7
    {
        type            processor;
        value           uniform 0;
    }
}


// ************************************************************************* //
