/*--------------------------------*- C++ -*----------------------------------*\
| =========                 |                                                 |
| \\      /  F ield         | OpenFOAM: The Open Source CFD Toolbox           |
|  \\    /   O peration     | Version:  4.x                                   |
|   \\  /    A nd           | Web:      www.OpenFOAM.org                      |
|    \\/     M anipulation  |                                                 |
\*---------------------------------------------------------------------------*/
FoamFile
{
    version     2.0;
    format      ascii;
    class       volVectorField;
    location    "42.5";
    object      Urel;
}
// * * * * * * * * * * * * * * * * * * * * * * * * * * * * * * * * * * * * * //

dimensions      [0 1 -1 0 0 0 0];

internalField   nonuniform List<vector> 
87
(
(-0.0198946 -4.27067e-05 0.000264732)
(-0.019325 -0.000154264 0.000402483)
(-0.0209374 -0.000116083 0.000352062)
(-0.0220705 -0.000238816 0.000523526)
(-0.0207433 -0.000135761 0.000482524)
(-0.0221017 -7.37752e-05 0.000437857)
(-0.0229215 -0.000212447 0.000486601)
(-0.0205659 -0.000188675 0.000433719)
(-0.021295 -0.000196586 0.000408502)
(-0.0191617 -0.000148262 0.000349609)
(-0.0204103 -0.000136205 0.000306718)
(-0.0183133 -8.95726e-05 0.00025234)
(-0.0198941 -5.86963e-05 0.000216713)
(-0.0178486 -2.64991e-05 0.000179532)
(-0.0196187 1.94485e-05 0.000159584)
(-0.0231243 -0.000501251 0.000484258)
(-0.0209184 -0.000416135 0.000446677)
(-0.0217448 -0.000445326 0.000428922)
(-0.0198561 -0.000339671 0.000386683)
(-0.0210944 -0.000329922 0.000350822)
(-0.0192405 -0.000235117 0.00030593)
(-0.0207168 -0.000195392 0.000277321)
(-0.0188213 -0.000116436 0.000243492)
(-0.0204915 -4.86468e-05 0.000228633)
(-0.0233409 -0.000533938 0.000494197)
(-0.0213597 -0.000468882 0.000465041)
(-0.0222659 -0.00047982 0.000457075)
(-0.0207487 -0.000388005 0.000429165)
(-0.021917 -0.000367532 0.000396685)
(-0.0204762 -0.00027822 0.000362384)
(-0.0217395 -0.000244303 0.000328882)
(-0.0202796 -0.000143178 0.000318492)
(-0.0216126 -7.2887e-05 0.000290123)
(-0.0230459 -0.000238732 9.21412e-05)
(-0.0208265 -0.000200769 0.000112859)
(-0.0216069 -0.000215675 6.26571e-05)
(-0.0196826 -0.00015616 7.86319e-05)
(-0.0208926 -0.000147365 3.44617e-05)
(-0.0190138 -8.66733e-05 4.98916e-05)
(-0.0204814 -6.32212e-05 3.13388e-05)
(-0.0185738 -1.47977e-05 3.61258e-05)
(-0.0202414 1.55497e-05 4.07231e-05)
(-0.0232363 -0.00049739 0.000111634)
(-0.0211742 -0.000417034 0.000131007)
(-0.0220351 -0.000441196 8.89468e-05)
(-0.0203685 -0.000337974 0.000110377)
(-0.0215556 -0.000335563 6.52905e-05)
(-0.0199505 -0.000239691 8.61797e-05)
(-0.0212782 -0.000216081 5.30919e-05)
(-0.0196342 -0.00012157 8.23703e-05)
(-0.0211067 -7.99265e-05 7.22946e-05)
(-0.023427 -0.000517489 0.000147076)
(-0.0215512 -0.000457097 0.000161816)
(-0.0225012 -0.000457016 0.000132558)
(-0.0211265 -0.000375642 0.000142169)
(-0.0222997 -0.000350338 0.000110208)
(-0.0210094 -0.00027245 0.000127361)
(-0.0222162 -0.000232769 0.000104014)
(-0.0209118 -0.000143386 0.000130365)
(-0.0221571 -8.13343e-05 0.000117076)
(-0.0232104 -0.000237579 -5.65352e-05)
(-0.0212119 -0.000192712 -2.91283e-05)
(-0.0220434 -0.000195513 -6.77068e-05)
(-0.0204685 -0.000142605 -3.9593e-05)
(-0.0216048 -0.000119697 -8.01663e-05)
(-0.0201356 -6.4663e-05 -5.43152e-05)
(-0.021393 -2.53572e-05 -8.54039e-05)
(-0.0199174 2.05661e-05 -5.49223e-05)
(-0.0212753 5.81343e-05 -6.10053e-05)
(-0.0233791 -0.000463186 -2.21534e-05)
(-0.0214985 -0.000395448 2.11014e-06)
(-0.0224158 -0.000407972 -2.18405e-05)
(-0.021025 -0.000324615 1.39256e-06)
(-0.0221871 -0.000303514 -2.44083e-05)
(-0.020886 -0.000222658 -8.03549e-06)
(-0.0220837 -0.000183339 -2.55797e-05)
(-0.020771 -9.02013e-05 1.05418e-05)
(-0.0220276 -3.849e-05 1.41197e-05)
(-0.0235353 -0.000487819 1.38849e-05)
(-0.0217782 -0.000433072 3.54137e-05)
(-0.0227882 -0.000429463 1.6788e-05)
(-0.0215936 -0.000360514 3.18493e-05)
(-0.0227974 -0.000326408 1.67345e-05)
(-0.0216966 -0.000248461 3.66777e-05)
(-0.0228588 -0.000203841 2.53642e-05)
(-0.021735 -0.00011452 6.54674e-05)
(-0.022885 -4.96742e-05 7.3575e-05)
)
;

boundaryField
{
    inlet
    {
        type            calculated;
        value           nonuniform List<vector> 9((-0.01 -1.35028e-10 9.13644e-11) (-0.01 -4.16503e-11 -7.28667e-11) (-0.01 -5.56525e-11 8.82859e-11) (-0.01 -1.06522e-10 6.04214e-11) (-0.01 -9.4246e-11 -4.25273e-11) (-0.01 1.6408e-11 1.60487e-10) (-0.01 -8.98536e-11 2.10965e-11) (-0.01 -3.03238e-10 -3.74599e-11) (-0.01 -6.03529e-10 -7.72629e-11));
    }
    outlet
    {
        type            calculated;
        value           nonuniform 0();
    }
    wall
    {
        type            calculated;
        value           nonuniform List<vector> 
57
(
(1.69817e-11 -8.98536e-11 2.10965e-11)
(-4.84226e-10 -3.03238e-10 -3.74599e-11)
(-2.11478e-09 -6.03529e-10 -7.72629e-11)
(8.2387e-11 -1.26312e-10 3.35971e-11)
(7.49052e-11 -8.28703e-11 1.70343e-11)
(-1.35384e-11 -4.89554e-11 1.30781e-11)
(1.37933e-10 -8.90003e-11 2.76266e-11)
(-3.21478e-11 -8.39328e-11 2.31994e-11)
(-7.03904e-12 -1.19978e-10 9.81036e-11)
(2.99755e-10 -9.62792e-11 1.48434e-11)
(2.0591e-10 -1.13339e-10 -3.21169e-12)
(4.97464e-11 -5.03472e-11 -4.00509e-11)
(3.67665e-10 -1.55896e-10 2.77895e-11)
(2.04337e-10 -1.76905e-10 2.02859e-12)
(2.98248e-11 -5.4461e-11 -1.77624e-12)
(6.83745e-10 -1.44602e-10 6.07605e-11)
(4.09371e-10 -1.88018e-10 -2.74189e-11)
(1.75258e-10 -1.0339e-10 -3.97052e-11)
(9.21818e-10 -1.14706e-10 2.01428e-10)
(1.09515e-10 -6.51032e-10 1.8432e-10)
(1.70047e-10 -1.06511e-10 5.81098e-12)
(1.75936e-09 1.55497e-11 7.40225e-11)
(2.39297e-09 -2.37224e-09 -2.53489e-10)
(2.7268e-10 -2.17252e-10 7.0782e-11)
(2.23401e-09 6.41011e-11 4.12542e-10)
(1.37591e-09 -3.91365e-11 -1.93551e-10)
(4.1796e-10 -3.428e-11 -1.91326e-10)
(-2.84091e-11 -5.56525e-11 8.82859e-11)
(-3.86822e-10 1.6408e-11 1.60487e-10)
(-2.11478e-09 -6.03529e-10 -7.72629e-11)
(2.65509e-10 3.84367e-12 8.28484e-11)
(7.67433e-10 3.47143e-10 2.38037e-10)
(-1.35384e-11 -4.89554e-11 1.30781e-11)
(-6.39842e-11 -1.15422e-10 1.53981e-11)
(1.77298e-11 -2.03558e-10 2.59286e-10)
(-7.03904e-12 -1.19978e-10 9.81036e-11)
(1.0422e-10 -1.57548e-10 7.67063e-11)
(7.39753e-11 -5.69089e-11 9.68077e-11)
(4.97464e-11 -5.03472e-11 -4.00509e-11)
(5.20472e-11 -1.6724e-10 8.69083e-11)
(7.51282e-12 -1.34512e-10 7.0956e-11)
(2.98248e-11 -5.4461e-11 -1.77624e-12)
(2.98952e-10 -2.10897e-10 3.38712e-11)
(1.5987e-10 -1.70641e-10 2.41203e-11)
(1.75258e-10 -1.0339e-10 -3.97052e-11)
(4.47777e-10 -1.86008e-10 7.98705e-11)
(1.82143e-10 -2.82508e-10 -1.58514e-10)
(1.57301e-10 -2.18298e-10 4.84269e-11)
(1.70047e-10 -1.06511e-10 5.81098e-12)
(1.08369e-09 -2.35508e-10 3.62977e-10)
(-1.72078e-10 -4.93806e-10 -3.86631e-10)
(2.88468e-10 -3.27802e-10 2.57898e-10)
(2.7268e-10 -2.17252e-10 7.0782e-11)
(9.38561e-10 -4.32447e-10 2.08717e-10)
(-3.54112e-10 -6.85118e-10 -2.18456e-11)
(3.09036e-10 -7.91049e-11 -1.57352e-10)
(4.1796e-10 -3.428e-11 -1.91326e-10)
)
;
    }
    procBoundary6to0
    {
        type            processor;
        value           uniform (-0.0196552 3.98434e-05 0.000256473);
    }
    procBoundary6to2
    {
        type            processor;
        value           nonuniform List<vector> 
32
(
(-0.020692 -1.58237e-06 0.000372376)
(-0.019941 -0.000135053 0.000504088)
(-0.0216358 -9.64996e-05 0.000433593)
(-0.0227174 -0.00024315 0.000664087)
(-0.0214699 -0.000143315 0.000581628)
(-0.0228855 -9.02471e-05 0.000512501)
(-0.0229778 -0.000218303 0.000907726)
(-0.0206481 -0.000192448 0.000794551)
(-0.0214272 -0.000217979 0.000784386)
(-0.0193538 -0.000164299 0.00064733)
(-0.0206036 -0.000170471 0.000593699)
(-0.0185927 -0.000111313 0.000470547)
(-0.0201495 -9.83556e-05 0.000397893)
(-0.0181197 -5.33641e-05 0.000325718)
(-0.0181197 -5.33641e-05 0.000325718)
(-0.0181197 -5.33641e-05 0.000325718)
(-0.0231653 -0.000483899 0.000884106)
(-0.0209989 -0.000413869 0.000790824)
(-0.021856 -0.00044945 0.000785547)
(-0.0200543 -0.000351701 0.000676546)
(-0.0212933 -0.000362332 0.000633692)
(-0.019585 -0.000260013 0.000522994)
(-0.0210414 -0.000247386 0.000467043)
(-0.0210414 -0.000247386 0.000467043)
(-0.0210414 -0.000247386 0.000467043)
(-0.0233687 -0.000515314 0.000869436)
(-0.0214041 -0.000457547 0.000798075)
(-0.0223496 -0.000468772 0.00080033)
(-0.0208799 -0.000387456 0.000719777)
(-0.0220964 -0.000369883 0.00067833)
(-0.0207627 -0.000278779 0.000579332)
(-0.0207627 -0.000278779 0.000579332)
)
;
    }
    procBoundary6to4
    {
        type            processor;
        value           nonuniform List<vector> 
27
(
(-0.0228911 0.000135693 0.000493506)
(-0.02054 0.000102998 0.00043633)
(-0.0212415 0.000112216 0.000402492)
(-0.0191017 9.05205e-05 0.000342477)
(-0.0203077 9.49836e-05 0.000291053)
(-0.0182062 7.10571e-05 0.000235228)
(-0.0197711 6.03891e-05 0.000197959)
(-0.0176702 5.51692e-05 0.000153479)
(-0.0194614 5.49754e-05 0.000120216)
(-0.0229984 0.000112578 0.000124694)
(-0.0207566 8.5709e-05 0.000114479)
(-0.0215084 8.6228e-05 6.24882e-05)
(-0.0195498 7.69662e-05 7.02203e-05)
(-0.0207512 7.77296e-05 1.34934e-05)
(-0.0188585 7.43575e-05 2.37026e-05)
(-0.0203444 7.34589e-05 -1.8888e-05)
(-0.0184467 7.69897e-05 2.59182e-06)
(-0.0201311 8.43464e-05 -5.03951e-06)
(-0.0231409 9.68294e-05 -3.92997e-05)
(-0.0210999 8.67019e-05 -3.47554e-05)
(-0.0219141 9.59544e-05 -8.21367e-05)
(-0.0202881 8.98721e-05 -6.31687e-05)
(-0.0214473 9.5591e-05 -0.000108366)
(-0.019967 9.62718e-05 -8.98491e-05)
(-0.0212754 0.00010657 -0.000130457)
(-0.0198545 0.000115437 -9.16867e-05)
(-0.0212439 0.000138693 -0.00010796)
)
;
    }
    procBoundary6to7
    {
        type            processor;
        value           nonuniform List<vector> 
12
(
(-0.0178862 -5.62926e-06 0.000224646)
(-0.0192218 -5.87764e-05 0.000333274)
(-0.0207295 1.73286e-05 0.000441961)
(-0.0176363 2.67707e-05 0.000132737)
(-0.0185612 3.55947e-08 0.000204069)
(-0.0200641 8.5275e-06 0.000302203)
(-0.0182906 4.80719e-05 4.55614e-05)
(-0.0194102 -3.32629e-06 9.70327e-05)
(-0.0208041 7.94487e-06 0.000147274)
(-0.0197696 9.76032e-05 -1.94454e-05)
(-0.0206704 3.03752e-05 6.26156e-05)
(-0.0216965 3.62664e-05 0.00012177)
)
;
    }
}


// ************************************************************************* //
