/*--------------------------------*- C++ -*----------------------------------*\
| =========                 |                                                 |
| \\      /  F ield         | OpenFOAM: The Open Source CFD Toolbox           |
|  \\    /   O peration     | Version:  4.x                                   |
|   \\  /    A nd           | Web:      www.OpenFOAM.org                      |
|    \\/     M anipulation  |                                                 |
\*---------------------------------------------------------------------------*/
FoamFile
{
    version     2.0;
    format      ascii;
    class       volVectorField;
    location    "42.5";
    object      UsNext;
}
// * * * * * * * * * * * * * * * * * * * * * * * * * * * * * * * * * * * * * //

dimensions      [0 1 -1 0 0 0 0];

internalField   nonuniform List<vector> 
87
(
(3.72071e-09 3.38363e-10 8.0089e-10)
(2.49324e-09 -1.39449e-10 6.27935e-10)
(3.15652e-09 -4.71161e-10 6.65558e-10)
(5.1552e-10 -9.33012e-11 2.02664e-10)
(1.07813e-09 -1.28014e-10 5.16351e-10)
(1.06684e-09 -3.43089e-10 3.14307e-10)
(1.30426e-10 -5.42322e-11 1.6313e-10)
(3.11071e-10 -1.47825e-10 2.83975e-10)
(4.01525e-10 -1.28221e-10 3.39936e-10)
(6.81051e-10 8.15956e-12 4.48564e-10)
(1.186e-09 2.8447e-11 6.13759e-10)
(1.72241e-09 7.07466e-11 2.70088e-10)
(2.04842e-09 2.20473e-10 4.8321e-10)
(2.50081e-09 -6.49666e-12 2.52694e-10)
(3.13737e-09 6.9227e-11 6.46508e-10)
(2.79004e-11 1.99246e-11 -5.88094e-12)
(1.00069e-10 -4.83143e-11 1.81899e-10)
(1.15309e-10 -4.95932e-11 2.01701e-10)
(3.92379e-10 -2.91893e-11 2.9562e-10)
(5.45406e-10 -2.32348e-10 3.68688e-10)
(9.36717e-10 -1.37828e-10 3.07423e-10)
(1.4156e-09 -2.52854e-10 1.6856e-10)
(1.96231e-09 -1.40331e-10 4.54559e-10)
(2.47794e-09 -5.32949e-10 2.97345e-10)
(4.37733e-12 -2.88608e-11 8.63344e-11)
(1.81859e-10 9.24902e-12 1.32802e-10)
(-2.66446e-12 -7.59165e-11 6.2024e-11)
(1.6044e-10 -1.01495e-10 1.26879e-10)
(1.52034e-10 -1.02315e-10 1.38966e-10)
(3.75255e-10 -1.32289e-10 1.12851e-10)
(2.95315e-10 -1.99512e-10 -5.50605e-11)
(-9.45468e-11 -4.32384e-10 -3.48122e-10)
(-5.91818e-11 -5.87632e-10 2.49271e-11)
(4.47769e-11 -3.56291e-11 9.80342e-11)
(2.80641e-10 -8.33029e-11 2.31246e-10)
(3.8543e-10 -8.54364e-11 1.68619e-10)
(4.71317e-10 -5.74968e-11 2.52904e-10)
(6.64955e-10 -1.97768e-11 3.35891e-10)
(1.25748e-09 -6.74885e-11 3.90021e-10)
(1.65661e-09 2.05393e-10 5.06374e-10)
(2.18327e-09 2.16731e-10 3.84991e-10)
(2.54757e-09 2.40998e-10 3.77059e-10)
(3.32916e-11 -4.3442e-11 5.06767e-12)
(1.81736e-10 -8.64616e-11 1.39369e-10)
(2.18293e-10 -9.48505e-11 2.28415e-10)
(3.38366e-10 -4.58605e-11 2.60166e-10)
(4.56717e-10 -1.232e-10 2.14677e-10)
(8.61083e-10 -1.49902e-10 1.39678e-10)
(1.16581e-09 -3.96653e-11 3.35809e-10)
(2.31125e-09 -1.2135e-09 5.87721e-10)
(2.68175e-09 1.4437e-10 -4.86927e-11)
(-1.51392e-10 7.19757e-12 1.6503e-10)
(3.82391e-10 1.71313e-10 2.38688e-10)
(1.1558e-10 -1.97372e-10 3.61571e-10)
(1.50128e-10 -5.64204e-12 1.47876e-10)
(1.48734e-10 -8.14979e-11 1.25468e-10)
(2.58946e-10 -1.26671e-10 6.73193e-11)
(3.88663e-10 -1.49999e-10 9.86807e-11)
(5.25882e-10 -1.78014e-10 3.60303e-10)
(8.47148e-10 1.0375e-10 -2.41553e-10)
(6.41863e-11 -3.0185e-11 2.97286e-11)
(1.32819e-10 -3.13787e-11 5.82854e-11)
(2.44348e-10 1.69123e-12 4.88366e-11)
(3.76976e-10 -2.79534e-11 4.65643e-11)
(4.99517e-10 -6.75421e-11 5.23231e-11)
(8.11529e-10 -3.72889e-11 8.10866e-11)
(1.19471e-09 1.79995e-10 2.35838e-10)
(1.72531e-09 2.75459e-10 1.0472e-10)
(2.19462e-09 4.52642e-10 4.17653e-10)
(-9.551e-11 -9.70442e-11 -1.16112e-11)
(1.09522e-10 -3.59919e-11 3.40466e-11)
(7.47654e-11 -5.07339e-11 4.77813e-11)
(2.85986e-10 -4.77614e-11 2.57767e-11)
(3.83248e-10 -9.83242e-11 1.10233e-11)
(5.80935e-10 -1.11727e-10 -1.52787e-11)
(6.36299e-10 -2.03004e-10 2.27865e-10)
(2.47378e-09 -1.74033e-09 -1.20894e-10)
(1.73565e-09 3.81072e-10 -1.69606e-10)
(-6.65537e-10 -1.75916e-10 -2.17154e-11)
(2.08878e-11 -2.12027e-11 2.20972e-11)
(5.63473e-11 -1.07906e-10 1.40941e-10)
(9.50879e-11 -2.77593e-11 -3.56886e-11)
(1.10926e-10 -2.17176e-11 2.55763e-11)
(2.65168e-10 -6.74895e-11 -2.08255e-11)
(2.96176e-10 -5.32897e-11 2.72563e-11)
(3.49765e-10 -9.79065e-11 1.12192e-10)
(7.2755e-10 1.20032e-10 -2.44667e-10)
)
;

boundaryField
{
    inlet
    {
        type            calculated;
        value           nonuniform List<vector> 9((1.30426e-10 -5.42322e-11 1.6313e-10) (2.79004e-11 1.99246e-11 -5.88094e-12) (4.37733e-12 -2.88608e-11 8.63344e-11) (4.47769e-11 -3.56291e-11 9.80342e-11) (3.32916e-11 -4.3442e-11 5.06767e-12) (-1.51392e-10 7.19757e-12 1.6503e-10) (6.41863e-11 -3.0185e-11 2.97286e-11) (-9.551e-11 -9.70442e-11 -1.16112e-11) (-6.65537e-10 -1.75916e-10 -2.17154e-11));
    }
    outlet
    {
        type            calculated;
        value           nonuniform 0();
    }
    wall
    {
        type            calculated;
        value           nonuniform List<vector> 
57
(
(6.41863e-11 -3.0185e-11 2.97286e-11)
(-9.551e-11 -9.70442e-11 -1.16112e-11)
(-6.65537e-10 -1.75916e-10 -2.17154e-11)
(1.32819e-10 -3.13787e-11 5.82854e-11)
(1.09522e-10 -3.59919e-11 3.40466e-11)
(2.08878e-11 -2.12027e-11 2.20972e-11)
(2.44348e-10 1.69123e-12 4.88366e-11)
(7.47654e-11 -5.07339e-11 4.77813e-11)
(5.63473e-11 -1.07906e-10 1.40941e-10)
(3.76976e-10 -2.79534e-11 4.65643e-11)
(2.85986e-10 -4.77614e-11 2.57767e-11)
(9.50879e-11 -2.77593e-11 -3.56886e-11)
(4.99517e-10 -6.75421e-11 5.23231e-11)
(3.83248e-10 -9.83242e-11 1.10233e-11)
(1.10926e-10 -2.17176e-11 2.55763e-11)
(8.11529e-10 -3.72889e-11 8.10866e-11)
(5.80935e-10 -1.11727e-10 -1.52787e-11)
(2.65168e-10 -6.74895e-11 -2.08255e-11)
(1.19471e-09 1.79995e-10 2.35838e-10)
(6.36299e-10 -2.03004e-10 2.27865e-10)
(2.96176e-10 -5.32897e-11 2.72563e-11)
(1.72531e-09 2.75459e-10 1.0472e-10)
(2.47378e-09 -1.74033e-09 -1.20894e-10)
(3.49765e-10 -9.79065e-11 1.12192e-10)
(2.19462e-09 4.52642e-10 4.17653e-10)
(1.73565e-09 3.81072e-10 -1.69606e-10)
(7.2755e-10 1.20032e-10 -2.44667e-10)
(4.37733e-12 -2.88608e-11 8.63344e-11)
(-1.51392e-10 7.19757e-12 1.6503e-10)
(-6.65537e-10 -1.75916e-10 -2.17154e-11)
(1.81859e-10 9.24902e-12 1.32802e-10)
(3.82391e-10 1.71313e-10 2.38688e-10)
(2.08878e-11 -2.12027e-11 2.20972e-11)
(-2.66446e-12 -7.59165e-11 6.2024e-11)
(1.1558e-10 -1.97372e-10 3.61571e-10)
(5.63473e-11 -1.07906e-10 1.40941e-10)
(1.6044e-10 -1.01495e-10 1.26879e-10)
(1.50128e-10 -5.64204e-12 1.47876e-10)
(9.50879e-11 -2.77593e-11 -3.56886e-11)
(1.52034e-10 -1.02315e-10 1.38966e-10)
(1.48734e-10 -8.14979e-11 1.25468e-10)
(1.10926e-10 -2.17176e-11 2.55763e-11)
(3.75255e-10 -1.32289e-10 1.12851e-10)
(2.58946e-10 -1.26671e-10 6.73193e-11)
(2.65168e-10 -6.74895e-11 -2.08255e-11)
(5.1552e-10 -9.33012e-11 2.02664e-10)
(2.95315e-10 -1.99512e-10 -5.50605e-11)
(3.88663e-10 -1.49999e-10 9.86807e-11)
(2.96176e-10 -5.32897e-11 2.72563e-11)
(1.07813e-09 -1.28014e-10 5.16351e-10)
(-9.45468e-11 -4.32384e-10 -3.48122e-10)
(5.25882e-10 -1.78014e-10 3.60303e-10)
(3.49765e-10 -9.79065e-11 1.12192e-10)
(1.06684e-09 -3.43089e-10 3.14307e-10)
(-5.91818e-11 -5.87632e-10 2.49271e-11)
(8.47148e-10 1.0375e-10 -2.41553e-10)
(7.2755e-10 1.20032e-10 -2.44667e-10)
)
;
    }
    procBoundary6to0
    {
        type            processor;
        value           uniform (3.67989e-09 -1.08412e-10 1.98033e-09);
    }
    procBoundary6to2
    {
        type            processor;
        value           nonuniform List<vector> 
32
(
(2.22992e-09 -4.67329e-10 1.29797e-09)
(1.37963e-09 -3.99881e-10 1.14589e-09)
(1.88538e-09 -6.28752e-10 8.44822e-10)
(3.96413e-10 -2.29249e-10 4.46096e-10)
(5.26453e-10 -3.6896e-10 6.49801e-10)
(9.83309e-10 -3.11548e-10 6.17545e-10)
(1.1706e-10 2.04099e-11 1.89719e-10)
(3.78391e-10 -7.49771e-11 3.87674e-10)
(6.22045e-10 -1.90891e-10 6.5313e-10)
(8.62622e-10 -7.3774e-11 6.90192e-10)
(1.21951e-09 4.75444e-11 9.74463e-10)
(1.8784e-09 5.36119e-11 6.30689e-10)
(2.39726e-09 1.06907e-10 9.25662e-10)
(3.1448e-09 9.87069e-11 7.57183e-10)
(3.1448e-09 9.87069e-11 7.57183e-10)
(3.1448e-09 9.87069e-11 7.57183e-10)
(3.94752e-11 5.30971e-11 8.45205e-11)
(3.16341e-10 -8.80129e-11 3.60743e-10)
(3.80105e-10 -3.29517e-11 4.73308e-10)
(6.20874e-10 -3.74831e-11 5.38974e-10)
(8.51009e-10 -1.24873e-10 6.03043e-10)
(1.13156e-09 -7.58603e-11 6.08583e-10)
(1.43997e-09 -2.28e-10 6.54695e-10)
(1.43997e-09 -2.28e-10 6.54695e-10)
(1.43997e-09 -2.28e-10 6.54695e-10)
(3.09188e-11 -9.20957e-11 1.17238e-10)
(9.0115e-11 -4.12684e-11 2.21582e-10)
(9.75496e-11 -6.16376e-12 3.31857e-10)
(1.6493e-10 -1.19844e-10 2.32661e-10)
(4.9219e-10 -1.48838e-10 3.36868e-10)
(4.91374e-10 -1.49379e-10 2.19819e-10)
(4.91374e-10 -1.49379e-10 2.19819e-10)
)
;
    }
    procBoundary6to4
    {
        type            processor;
        value           nonuniform List<vector> 
27
(
(1.18801e-10 5.90866e-11 1.60487e-10)
(3.84765e-10 7.89139e-12 1.98097e-10)
(6.6052e-10 -1.01649e-12 1.03909e-10)
(9.03224e-10 1.48187e-10 8.54632e-11)
(1.47123e-09 3.25513e-10 5.15566e-10)
(1.97041e-09 4.89832e-10 7.00641e-10)
(2.23541e-09 5.41528e-10 7.13317e-10)
(2.64868e-09 4.40158e-10 2.71211e-10)
(3.03082e-09 4.53266e-10 6.41639e-10)
(6.5899e-11 2.95676e-11 6.22285e-11)
(2.3208e-10 9.46788e-12 8.42414e-11)
(4.12312e-10 2.25194e-11 9.34204e-11)
(4.82675e-10 2.51521e-11 1.60905e-10)
(6.34092e-10 6.37887e-11 2.45851e-10)
(1.21938e-09 3.38769e-10 3.22745e-10)
(1.54171e-09 6.49966e-10 4.587e-10)
(1.7727e-09 4.26608e-10 4.73473e-10)
(1.96054e-09 3.48233e-10 7.17277e-10)
(4.27019e-11 -1.54007e-11 -3.62476e-12)
(1.18769e-10 1.85582e-11 -5.22095e-12)
(2.45074e-10 9.82042e-11 3.63092e-11)
(2.48189e-10 4.30454e-11 7.97135e-11)
(3.44262e-10 -6.52463e-12 5.75429e-11)
(5.19982e-10 8.38701e-11 2.19263e-11)
(7.0659e-10 4.14301e-10 2.06224e-10)
(3.54445e-09 -9.31711e-10 1.87815e-10)
(1.62311e-09 3.46994e-10 2.58314e-10)
)
;
    }
    procBoundary6to7
    {
        type            processor;
        value           nonuniform List<vector> 
12
(
(4.14048e-09 -5.36991e-10 1.14493e-09)
(3.50788e-09 -9.7033e-10 2.57414e-10)
(1.38486e-09 -1.09178e-09 -1.15227e-10)
(3.79184e-09 -3.73684e-10 4.8371e-10)
(2.97721e-09 -4.87046e-10 2.91459e-10)
(3.36057e-10 -7.96529e-10 1.01545e-11)
(3.23426e-09 4.60045e-10 7.68265e-10)
(2.48993e-09 5.26449e-11 5.77584e-10)
(1.17906e-09 -1.85275e-10 3.09236e-10)
(2.15751e-09 5.10201e-10 2.98936e-10)
(1.29052e-09 6.83968e-11 1.12202e-10)
(8.24059e-10 -2.76527e-10 -1.61691e-10)
)
;
    }
}


// ************************************************************************* //
