/*--------------------------------*- C++ -*----------------------------------*\
| =========                 |                                                 |
| \\      /  F ield         | OpenFOAM: The Open Source CFD Toolbox           |
|  \\    /   O peration     | Version:  4.x                                   |
|   \\  /    A nd           | Web:      www.OpenFOAM.org                      |
|    \\/     M anipulation  |                                                 |
\*---------------------------------------------------------------------------*/
FoamFile
{
    version     2.0;
    format      ascii;
    class       volVectorField;
    location    "42.5";
    object      ddtUrel;
}
// * * * * * * * * * * * * * * * * * * * * * * * * * * * * * * * * * * * * * //

dimensions      [0 1 -2 0 0 0 0];

internalField   nonuniform List<vector> 
108
(
(-3.71061e-11 9.33376e-11 1.42298e-10)
(-6.92658e-11 9.43902e-11 1.34493e-10)
(-1.40183e-10 9.19812e-11 1.12026e-10)
(-2.97482e-10 8.71645e-11 7.96102e-11)
(-5.54811e-10 8.53741e-11 6.20627e-11)
(-9.17273e-10 8.31672e-11 7.13023e-11)
(-1.4283e-09 8.97693e-11 8.96945e-11)
(-2.10419e-09 9.1408e-11 1.16465e-10)
(-2.91813e-09 7.58473e-11 1.3744e-10)
(-2.58166e-11 1.07191e-10 1.38997e-10)
(-5.39548e-11 1.10696e-10 1.355e-10)
(-1.20207e-10 1.1039e-10 1.17901e-10)
(-2.67227e-10 1.05808e-10 9.11598e-11)
(-4.94079e-10 1.0136e-10 7.57049e-11)
(-8.30653e-10 1.04166e-10 8.25701e-11)
(-1.29019e-09 1.13564e-10 1.03227e-10)
(-1.88443e-09 1.20105e-10 1.25979e-10)
(-2.57507e-09 9.92478e-11 1.45633e-10)
(-1.43409e-11 1.21878e-10 1.26846e-10)
(-3.68512e-11 1.29096e-10 1.29343e-10)
(-9.14438e-11 1.31681e-10 1.19311e-10)
(-2.1395e-10 1.3091e-10 1.05039e-10)
(-3.99704e-10 1.28525e-10 9.60652e-11)
(-6.80105e-10 1.38193e-10 1.06463e-10)
(-1.04292e-09 1.52269e-10 1.25521e-10)
(-1.51295e-09 1.58534e-10 1.40071e-10)
(-2.01783e-09 1.402e-10 1.46921e-10)
(-2.03191e-12 1.25864e-10 1.11037e-10)
(-1.63973e-11 1.3743e-10 1.16843e-10)
(-5.17024e-11 1.4569e-10 1.15309e-10)
(-1.42446e-10 1.48882e-10 1.11739e-10)
(-2.78451e-10 1.5501e-10 1.15017e-10)
(-4.89468e-10 1.6803e-10 1.29576e-10)
(-7.4138e-10 1.81143e-10 1.43729e-10)
(-1.08808e-09 1.87821e-10 1.5264e-10)
(-1.44804e-09 1.80347e-10 1.5622e-10)
(-3.46211e-11 7.50816e-11 1.01334e-10)
(-6.10186e-11 7.78112e-11 9.84244e-11)
(-1.18745e-10 7.77083e-11 8.74627e-11)
(-2.2864e-10 7.79089e-11 7.51812e-11)
(-3.94207e-10 7.7927e-11 6.68804e-11)
(-6.28755e-10 7.74018e-11 6.97637e-11)
(-9.36007e-10 7.9793e-11 7.67735e-11)
(-1.32414e-09 7.71401e-11 8.85638e-11)
(-1.73241e-09 6.17314e-11 1.00984e-10)
(-1.95892e-11 8.66972e-11 1.01857e-10)
(-4.69901e-11 9.08955e-11 1.01065e-10)
(-9.95069e-11 9.18733e-11 9.23055e-11)
(-2.05926e-10 9.30147e-11 8.18838e-11)
(-3.57193e-10 9.19205e-11 7.44968e-11)
(-5.81782e-10 9.64423e-11 7.86478e-11)
(-8.65584e-10 1.02919e-10 8.78224e-11)
(-1.21453e-09 1.02804e-10 9.76018e-11)
(-1.58347e-09 8.63123e-11 1.08213e-10)
(-4.3991e-12 9.83128e-11 9.48447e-11)
(-2.66793e-11 1.06423e-10 9.95442e-11)
(-6.87926e-11 1.10654e-10 9.42695e-11)
(-1.58582e-10 1.12588e-10 8.81637e-11)
(-2.86433e-10 1.1568e-10 8.542e-11)
(-4.83656e-10 1.28629e-10 9.22421e-11)
(-7.17525e-10 1.42123e-10 1.02274e-10)
(-1.00857e-09 1.48576e-10 1.05953e-10)
(-1.30922e-09 1.33292e-10 1.01277e-10)
(1.4425e-11 1.06857e-10 8.74805e-11)
(-3.8803e-13 1.16329e-10 9.18704e-11)
(-2.86278e-11 1.2441e-10 9.25387e-11)
(-9.52463e-11 1.29227e-10 9.11289e-11)
(-1.898e-10 1.37653e-10 9.53299e-11)
(-3.34649e-10 1.59028e-10 1.03546e-10)
(-5.09582e-10 1.78871e-10 1.11593e-10)
(-7.54499e-10 1.91103e-10 1.13302e-10)
(-9.84366e-10 1.80788e-10 9.26346e-11)
(-2.95696e-11 6.59456e-11 7.53916e-11)
(-5.55346e-11 6.87728e-11 7.59607e-11)
(-1.05413e-10 6.97578e-11 7.2084e-11)
(-1.90141e-10 7.02854e-11 6.67559e-11)
(-3.08845e-10 7.04852e-11 6.25403e-11)
(-4.82042e-10 7.25308e-11 6.41064e-11)
(-6.87165e-10 7.37842e-11 6.93762e-11)
(-9.53115e-10 7.10641e-11 7.58441e-11)
(-1.21519e-09 5.48887e-11 8.24173e-11)
(-1.2472e-11 7.51183e-11 7.45017e-11)
(-3.9994e-11 7.89555e-11 7.81848e-11)
(-8.39624e-11 8.14997e-11 7.50651e-11)
(-1.68129e-10 8.16184e-11 6.99506e-11)
(-2.78831e-10 8.3698e-11 6.69058e-11)
(-4.50807e-10 9.15396e-11 6.90677e-11)
(-6.45863e-10 9.59678e-11 7.4372e-11)
(-8.90346e-10 9.51915e-11 8.04989e-11)
(-1.1228e-09 7.61532e-11 8.51543e-11)
(4.79947e-12 8.59261e-11 7.34294e-11)
(-1.98389e-11 9.1824e-11 7.77008e-11)
(-5.35107e-11 9.6238e-11 7.64174e-11)
(-1.25449e-10 9.89868e-11 7.35874e-11)
(-2.22053e-10 1.04708e-10 7.38768e-11)
(-3.75618e-10 1.2183e-10 7.83385e-11)
(-5.42157e-10 1.37046e-10 8.57558e-11)
(-7.64555e-10 1.45051e-10 8.52749e-11)
(-9.53609e-10 1.19482e-10 8.00741e-11)
(2.26291e-11 9.56209e-11 7.10058e-11)
(6.36449e-12 1.01389e-10 7.33335e-11)
(-1.72239e-11 1.08821e-10 7.50014e-11)
(-7.33603e-11 1.14483e-10 7.55595e-11)
(-1.49247e-10 1.25745e-10 7.89314e-11)
(-2.65404e-10 1.46483e-10 8.25761e-11)
(-4.05755e-10 1.77389e-10 8.93764e-11)
(-6.57694e-10 2.29236e-10 8.76542e-11)
(-7.49436e-10 1.80088e-10 7.64523e-11)
)
;

boundaryField
{
    inlet
    {
        type            calculated;
        value           nonuniform List<vector> 
12
(
(7.12563e-11 1.25059e-11 1.27415e-10)
(4.53027e-11 5.27146e-11 1.38309e-10)
(1.77889e-11 8.75362e-11 1.10933e-10)
(-4.92766e-11 8.48622e-11 9.65666e-11)
(-2.20628e-11 3.52849e-12 6.41787e-11)
(5.87834e-11 4.47791e-11 9.68075e-11)
(5.3464e-11 4.67869e-11 4.90579e-11)
(6.11002e-11 7.61172e-11 6.25799e-11)
(2.14644e-11 -1.07859e-13 -1.93802e-12)
(1.26839e-10 1.96701e-11 -2.00578e-11)
(1.38883e-10 3.03819e-11 -3.33109e-13)
(3.56351e-11 4.5367e-11 2.70877e-11)
)
;
    }
    outlet
    {
        type            calculated;
        value           nonuniform 0();
    }
    wall
    {
        type            calculated;
        value           nonuniform List<vector> 
63
(
(1.96762e-11 -2.5568e-14 -1.96806e-12)
(9.07567e-11 2.17485e-11 -2.08247e-11)
(1.28628e-10 3.10902e-11 -6.47014e-13)
(-6.76526e-12 4.55201e-11 2.62287e-11)
(-1.01795e-11 1.49847e-11 1.5276e-11)
(1.12854e-11 3.82634e-11 4.04012e-11)
(9.29193e-12 6.1089e-11 4.21572e-11)
(1.93428e-11 6.25023e-11 2.28742e-11)
(-1.95566e-11 1.10319e-11 2.20137e-11)
(9.09671e-11 4.63195e-11 3.63245e-11)
(1.54407e-10 6.07047e-11 3.81614e-11)
(1.39282e-10 9.8822e-11 3.39302e-11)
(-3.07142e-11 1.27787e-11 2.88963e-11)
(-1.77306e-11 1.925e-11 2.56202e-11)
(5.73399e-11 5.02669e-11 2.43899e-11)
(1.05247e-10 9.19807e-11 3.031e-11)
(6.33381e-11 -6.50042e-13 1.80756e-11)
(1.68675e-10 1.10338e-11 2.00667e-11)
(2.31569e-10 2.98768e-11 3.41218e-11)
(1.26224e-10 1.08233e-10 4.70564e-11)
(-1.33312e-11 -3.43012e-13 1.83918e-11)
(-4.23228e-11 4.91572e-11 1.55676e-11)
(-1.22992e-11 1.21435e-10 4.20628e-11)
(3.62162e-11 1.21054e-10 2.15818e-11)
(3.20035e-10 -3.05216e-12 3.09233e-11)
(1.30698e-10 2.90696e-11 1.30047e-11)
(2.21547e-10 1.43774e-10 8.84038e-11)
(3.67092e-10 1.57398e-10 6.85175e-11)
(1.20304e-10 1.88816e-11 2.65918e-11)
(2.59579e-11 4.65263e-11 3.69085e-11)
(9.33094e-11 1.33639e-10 4.75657e-11)
(-1.19978e-09 9.46249e-10 4.65872e-11)
(1.34255e-10 -4.13001e-12 1.71094e-11)
(3.05818e-10 -1.15585e-12 4.19455e-11)
(4.66928e-10 4.42458e-11 1.41742e-12)
(5.04861e-10 2.58247e-10 -1.94327e-11)
(2.23936e-11 1.40565e-11 1.28493e-10)
(-3.50741e-11 3.40598e-12 6.42396e-11)
(-4.39803e-12 3.26429e-13 -2.3564e-12)
(-3.55219e-11 1.66635e-11 1.22687e-10)
(-4.21132e-12 2.08337e-11 7.72022e-11)
(-2.13348e-11 1.52445e-11 1.49318e-11)
(-1.60355e-11 3.48e-11 8.56147e-11)
(-1.92005e-11 1.39559e-11 5.04839e-11)
(-5.03196e-11 1.13123e-11 2.13232e-11)
(-7.56648e-11 3.36595e-11 3.44957e-11)
(-3.40946e-11 2.78004e-11 5.63225e-11)
(-2.54951e-11 1.27589e-11 2.89707e-11)
(-4.90348e-10 7.85747e-11 -2.93547e-12)
(-1.25065e-10 3.74799e-11 3.67366e-11)
(2.59551e-11 -3.62837e-13 1.72361e-11)
(-3.8982e-10 9.21985e-12 6.26447e-11)
(-1.51565e-10 6.14392e-12 4.19894e-11)
(-3.0781e-11 -3.02806e-13 1.80654e-11)
(-5.50336e-10 3.76047e-11 5.45539e-11)
(-1.88086e-10 1.15237e-11 9.27661e-12)
(1.85999e-10 -2.17326e-12 2.62999e-11)
(-5.52451e-10 5.54263e-11 1.09647e-10)
(-4.32991e-10 1.42546e-11 1.51236e-11)
(-3.40493e-11 1.99317e-11 2.06445e-11)
(-5.59033e-10 3.57044e-11 1.12699e-11)
(-2.78406e-10 5.72557e-13 2.28252e-12)
(-1.5209e-11 -2.64037e-12 1.16205e-11)
)
;
    }
    procBoundary4to0
    {
        type            processor;
        value           nonuniform List<vector> 
36
(
(-4.64272e-11 1.22862e-10 1.99742e-10)
(-7.09211e-11 1.22541e-10 1.91853e-10)
(-1.509e-10 1.09335e-10 1.4726e-10)
(-3.80595e-10 9.22206e-11 7.38114e-11)
(-7.57322e-10 8.00936e-11 3.96497e-11)
(-1.34133e-09 8.24123e-11 5.54985e-11)
(-2.21131e-09 9.81421e-11 9.28597e-11)
(-3.48851e-09 1.06872e-10 1.43779e-10)
(-5.26755e-09 9.39598e-11 1.89044e-10)
(-3.29631e-11 1.41589e-10 1.86844e-10)
(-5.94032e-11 1.43179e-10 1.84276e-10)
(-1.39303e-10 1.31654e-10 1.47543e-10)
(-3.44221e-10 1.14849e-10 9.18651e-11)
(-6.85911e-10 1.01793e-10 6.20775e-11)
(-1.20595e-09 1.09246e-10 7.43156e-11)
(-1.96462e-09 1.26053e-10 1.08613e-10)
(-3.03183e-09 1.40407e-10 1.56385e-10)
(-4.42822e-09 1.24695e-10 2.01311e-10)
(-2.56429e-11 1.58669e-10 1.63463e-10)
(-4.94252e-11 1.61115e-10 1.62301e-10)
(-1.21256e-10 1.55135e-10 1.42216e-10)
(-2.90753e-10 1.43653e-10 1.13316e-10)
(-5.61975e-10 1.36536e-10 9.91796e-11)
(-9.79932e-10 1.50449e-10 1.1493e-10)
(-1.55729e-09 1.70118e-10 1.45366e-10)
(-2.33375e-09 1.80473e-10 1.82371e-10)
(-3.27043e-09 1.65156e-10 2.15873e-10)
(-1.43174e-11 1.55948e-10 1.3543e-10)
(-3.77446e-11 1.66707e-10 1.40366e-10)
(-9.02404e-11 1.69194e-10 1.37081e-10)
(-2.15114e-10 1.67601e-10 1.28202e-10)
(-4.10653e-10 1.70471e-10 1.30509e-10)
(-7.19103e-10 1.81954e-10 1.51684e-10)
(-1.11856e-09 1.98752e-10 1.78815e-10)
(-1.64112e-09 2.02748e-10 2.07091e-10)
(-2.23159e-09 1.88013e-10 2.35272e-10)
)
;
    }
    procBoundary4to5
    {
        type            processor;
        value           nonuniform List<vector> 
12
(
(-3.73622e-09 4.68702e-11 1.74912e-10)
(-3.22825e-09 6.07156e-11 1.73647e-10)
(-2.4872e-09 1.02723e-10 1.61875e-10)
(-1.77218e-09 1.3959e-10 1.56423e-10)
(-2.10582e-09 3.49769e-11 1.20083e-10)
(-1.9158e-09 5.53855e-11 1.20391e-10)
(-1.59756e-09 1.00726e-10 1.07841e-10)
(-1.22024e-09 1.38932e-10 9.22605e-11)
(-1.44982e-09 2.87657e-11 9.07326e-11)
(-1.3451e-09 4.75383e-11 9.09343e-11)
(-1.15946e-09 8.51442e-11 8.11717e-11)
(-9.28564e-10 1.23801e-10 7.49678e-11)
)
;
    }
    procBoundary4to6
    {
        type            processor;
        value           nonuniform List<vector> 
27
(
(1.19292e-11 1.19832e-10 9.49882e-11)
(6.35681e-13 1.30648e-10 1.01112e-10)
(-2.38746e-11 1.40977e-10 1.03358e-10)
(-8.6467e-11 1.48604e-10 1.08186e-10)
(-1.82833e-10 1.62284e-10 1.1711e-10)
(-3.29587e-10 1.77653e-10 1.29306e-10)
(-5.09804e-10 1.97762e-10 1.44582e-10)
(-7.43647e-10 2.0497e-10 1.55083e-10)
(-9.83848e-10 1.98417e-10 1.59942e-10)
(3.81884e-11 1.07718e-10 7.76697e-11)
(1.99931e-11 1.15683e-10 8.27019e-11)
(-1.43107e-12 1.22978e-10 8.48327e-11)
(-4.93344e-11 1.30041e-10 8.8955e-11)
(-1.13875e-10 1.43659e-10 9.58511e-11)
(-2.1549e-10 1.68722e-10 1.02978e-10)
(-3.3298e-10 1.97442e-10 1.10005e-10)
(-5.11298e-10 2.16688e-10 1.14498e-10)
(-6.74276e-10 2.14806e-10 1.08266e-10)
(6.16995e-11 1.03798e-10 6.51987e-11)
(3.59261e-11 1.05966e-10 6.80588e-11)
(1.09706e-11 1.09872e-10 7.04971e-11)
(-3.3413e-11 1.16098e-10 7.37863e-11)
(-8.50137e-11 1.30875e-10 7.73379e-11)
(-1.61212e-10 1.56495e-10 8.19057e-11)
(-2.42837e-10 1.98624e-10 8.77799e-11)
(-4.12251e-10 2.23057e-10 8.87656e-11)
(-5.16374e-10 2.16756e-10 8.1032e-11)
)
;
    }
}


// ************************************************************************* //
