/*--------------------------------*- C++ -*----------------------------------*\
| =========                 |                                                 |
| \\      /  F ield         | OpenFOAM: The Open Source CFD Toolbox           |
|  \\    /   O peration     | Version:  4.x                                   |
|   \\  /    A nd           | Web:      www.OpenFOAM.org                      |
|    \\/     M anipulation  |                                                 |
\*---------------------------------------------------------------------------*/
FoamFile
{
    version     2.0;
    format      ascii;
    class       volScalarField;
    location    "12";
    object      Cs;
}
// * * * * * * * * * * * * * * * * * * * * * * * * * * * * * * * * * * * * * //

dimensions      [1 -3 0 0 0 0 0];

internalField   nonuniform List<scalar> 
108
(
334.72
334.692
334.719
334.791
334.889
334.98
335.059
335.111
337.128
334.719
334.673
334.675
334.722
334.811
334.905
334.998
335.067
339.028
334.741
334.688
334.656
334.666
334.728
334.826
334.937
335.05
335.446
334.828
334.775
334.72
334.672
334.643
334.638
334.673
334.709
348.34
334.757
334.785
334.848
334.922
334.998
335.068
335.124
335.161
335.221
334.752
334.763
334.818
334.884
334.965
335.038
335.102
335.148
335.348
334.744
334.737
334.77
334.826
334.912
334.988
335.061
335.086
335.8
334.814
334.767
334.724
334.69
334.676
334.667
334.713
334.733
335.548
334.854
334.887
334.934
334.984
335.03
335.079
335.116
335.148
335.204
334.856
334.879
334.924
334.974
335.025
335.072
335.112
335.138
335.256
334.84
334.854
334.902
334.95
335.007
335.034
335.078
335.069
335.528
334.843
334.805
334.772
334.742
334.731
334.725
334.755
334.775
335.291
)
;

boundaryField
{
    inlet
    {
        type            calculated;
        value           nonuniform 0();
    }
    outlet
    {
        type            calculated;
        value           uniform 335;
    }
    wall
    {
        type            calculated;
        value           nonuniform List<scalar> 
63
(
334.72
334.719
334.741
334.828
334.692
334.673
334.688
334.775
334.719
334.675
334.656
334.72
334.791
334.722
334.666
334.672
334.889
334.811
334.728
334.643
334.98
334.905
334.826
334.638
335.059
334.998
334.937
334.673
335.111
335.067
335.05
334.709
337.128
339.028
335.446
348.34
334.828
334.814
334.843
334.775
334.767
334.805
334.72
334.724
334.772
334.672
334.69
334.742
334.643
334.676
334.731
334.638
334.667
334.725
334.673
334.713
334.755
334.709
334.733
334.775
348.34
335.548
335.291
)
;
    }
    procBoundary3to1
    {
        type            processor;
        value           nonuniform List<scalar> 
27
(
334.727
334.686
334.703
334.777
334.894
335.011
335.097
335.146
335.299
334.771
334.799
334.869
334.951
335.039
335.118
335.173
335.111
335.016
334.869
334.911
334.978
335.041
335.101
335.148
335.183
335.179
335.193
)
;
    }
    procBoundary3to2
    {
        type            processor;
        value           nonuniform List<scalar> 
12
(
334.781
334.787
334.803
334.875
334.761
334.77
334.778
334.861
334.838
334.849
334.842
334.881
)
;
    }
    procBoundary3to7
    {
        type            processor;
        value           nonuniform List<scalar> 
36
(
334.903
334.924
334.955
334.995
335.037
335.078
335.103
335.121
335.139
334.924
334.941
334.971
335.007
335.044
335.078
335.107
335.126
335.232
334.911
334.924
334.953
334.983
335.021
335.04
335.078
335.073
335.201
334.91
334.88
334.854
334.826
334.82
334.809
334.849
334.853
335.154
)
;
    }
}


// ************************************************************************* //
