/*--------------------------------*- C++ -*----------------------------------*\
| =========                 |                                                 |
| \\      /  F ield         | OpenFOAM: The Open Source CFD Toolbox           |
|  \\    /   O peration     | Version:  4.x                                   |
|   \\  /    A nd           | Web:      www.OpenFOAM.org                      |
|    \\/     M anipulation  |                                                 |
\*---------------------------------------------------------------------------*/
FoamFile
{
    version     2.0;
    format      ascii;
    class       volScalarField;
    location    "12";
    object      KslNext;
}
// * * * * * * * * * * * * * * * * * * * * * * * * * * * * * * * * * * * * * //

dimensions      [1 -3 -1 0 0 0 0];

internalField   nonuniform List<scalar> 
108
(
5885.41
3085.9
8248.58
3111.56
9890.61
2906.01
8468.26
2323.92
3695.52
5781.93
3087.78
8033.95
3103.64
11151.5
2968.9
12768.8
2412.29
4438.97
4504.01
2857.63
5749.93
3056.13
9240.45
3426.96
20478
4408.9
16407.4
3200.23
2340.54
3345.91
2374.63
3795.88
2439.4
4565.86
2574.07
3567.93
21196.5
3656.31
19068.8
3528.74
14676.8
3506.16
9816.06
3424.93
3925.06
21618.3
3638.26
25913
3509.03
28360.3
3392.91
24154.4
3064.04
3602.07
15066.4
3534.24
16869.4
3340.87
16797.1
3091.28
12922.8
2685.37
5026.38
4911.64
2829.57
4808.61
2670.01
5019.57
2418
5699.86
1859.89
3566.77
9.98746e+06
3873.16
1.10773e+06
3693.92
52659.1
3576.08
31771.1
3575.43
20570.3
116767
3788.77
64606.2
3649.62
57861.8
3540.83
35094.2
3354.4
11448.6
85000.2
3783.64
60440.2
3573.75
25706.9
3268.97
14292
2634.66
5403.31
6600.78
3141.8
6104.97
2928.21
6004.25
2675.4
6689.64
2136.17
10319
)
;

boundaryField
{
    inlet
    {
        type            zeroGradient;
    }
    outlet
    {
        type            zeroGradient;
    }
    wall
    {
        type            zeroGradient;
    }
    procBoundary3to1
    {
        type            processor;
        value           uniform 0;
    }
    procBoundary3to2
    {
        type            processor;
        value           uniform 0;
    }
    procBoundary3to7
    {
        type            processor;
        value           uniform 0;
    }
}


// ************************************************************************* //
