/*--------------------------------*- C++ -*----------------------------------*\
| =========                 |                                                 |
| \\      /  F ield         | OpenFOAM: The Open Source CFD Toolbox           |
|  \\    /   O peration     | Version:  4.x                                   |
|   \\  /    A nd           | Web:      www.OpenFOAM.org                      |
|    \\/     M anipulation  |                                                 |
\*---------------------------------------------------------------------------*/
FoamFile
{
    version     2.0;
    format      ascii;
    class       volScalarField;
    location    "12";
    object      nu;
}
// * * * * * * * * * * * * * * * * * * * * * * * * * * * * * * * * * * * * * //

dimensions      [0 2 -1 0 0 0 0];

internalField   nonuniform List<scalar> 
108
(
1.00084e-06
1.00092e-06
1.00084e-06
1.00062e-06
1.00033e-06
1.00006e-06
9.99823e-07
9.99668e-07
9.93689e-07
1.00084e-06
1.00098e-06
1.00097e-06
1.00083e-06
1.00057e-06
1.00028e-06
1e-06
9.998e-07
9.88119e-07
1.00077e-06
1.00093e-06
1.00103e-06
1.001e-06
1.00081e-06
1.00052e-06
1.00019e-06
9.99849e-07
9.98669e-07
1.00051e-06
1.00067e-06
1.00084e-06
1.00098e-06
1.00107e-06
1.00108e-06
1.00098e-06
1.00087e-06
9.61703e-07
1.00073e-06
1.00064e-06
1.00045e-06
1.00023e-06
1.00001e-06
9.99797e-07
9.99629e-07
9.9952e-07
9.99342e-07
1.00074e-06
1.00071e-06
1.00054e-06
1.00035e-06
1.0001e-06
9.99886e-07
9.99696e-07
9.99558e-07
9.98963e-07
1.00076e-06
1.00079e-06
1.00069e-06
1.00052e-06
1.00026e-06
1.00004e-06
9.99819e-07
9.99744e-07
9.97618e-07
1.00055e-06
1.0007e-06
1.00082e-06
1.00093e-06
1.00097e-06
1.00099e-06
1.00086e-06
1.0008e-06
9.98367e-07
1.00044e-06
1.00034e-06
1.0002e-06
1.00005e-06
9.99909e-07
9.99765e-07
9.99655e-07
9.9956e-07
9.99391e-07
1.00043e-06
1.00036e-06
1.00023e-06
1.00008e-06
9.99925e-07
9.99786e-07
9.99666e-07
9.99588e-07
9.99237e-07
1.00048e-06
1.00044e-06
1.00029e-06
1.00015e-06
9.99978e-07
9.99897e-07
9.99767e-07
9.99794e-07
9.98428e-07
1.00047e-06
1.00058e-06
1.00068e-06
1.00077e-06
1.0008e-06
1.00082e-06
1.00073e-06
1.00067e-06
9.99131e-07
)
;

boundaryField
{
    inlet
    {
        type            calculated;
        value           nonuniform 0();
    }
    outlet
    {
        type            calculated;
        value           uniform 1e-06;
    }
    wall
    {
        type            calculated;
        value           nonuniform List<scalar> 
63
(
1.00084e-06
1.00084e-06
1.00077e-06
1.00051e-06
1.00092e-06
1.00098e-06
1.00093e-06
1.00067e-06
1.00084e-06
1.00097e-06
1.00103e-06
1.00084e-06
1.00062e-06
1.00083e-06
1.001e-06
1.00098e-06
1.00033e-06
1.00057e-06
1.00081e-06
1.00107e-06
1.00006e-06
1.00028e-06
1.00052e-06
1.00108e-06
9.99823e-07
1e-06
1.00019e-06
1.00098e-06
9.99668e-07
9.998e-07
9.99849e-07
1.00087e-06
9.93689e-07
9.88119e-07
9.98669e-07
9.61703e-07
1.00051e-06
1.00055e-06
1.00047e-06
1.00067e-06
1.0007e-06
1.00058e-06
1.00084e-06
1.00082e-06
1.00068e-06
1.00098e-06
1.00093e-06
1.00077e-06
1.00107e-06
1.00097e-06
1.0008e-06
1.00108e-06
1.00099e-06
1.00082e-06
1.00098e-06
1.00086e-06
1.00073e-06
1.00087e-06
1.0008e-06
1.00067e-06
9.61703e-07
9.98367e-07
9.99131e-07
)
;
    }
    procBoundary3to1
    {
        type            processor;
        value           nonuniform List<scalar> 
27
(
1.00082e-06
1.00094e-06
1.00089e-06
1.00067e-06
1.00032e-06
9.99966e-07
9.99711e-07
9.99565e-07
9.99107e-07
1.00068e-06
1.0006e-06
1.00039e-06
1.00015e-06
9.99885e-07
9.99648e-07
9.99484e-07
9.99668e-07
9.99952e-07
1.00039e-06
1.00027e-06
1.00007e-06
9.99876e-07
9.99699e-07
9.9956e-07
9.99454e-07
9.99466e-07
9.99425e-07
)
;
    }
    procBoundary3to2
    {
        type            processor;
        value           nonuniform List<scalar> 
12
(
1.00065e-06
1.00064e-06
1.00059e-06
1.00037e-06
1.00071e-06
1.00069e-06
1.00066e-06
1.00042e-06
1.00048e-06
1.00045e-06
1.00047e-06
1.00035e-06
)
;
    }
    procBoundary3to7
    {
        type            processor;
        value           nonuniform List<scalar> 
36
(
1.00029e-06
1.00023e-06
1.00013e-06
1.00002e-06
9.99889e-07
9.99768e-07
9.99694e-07
9.99639e-07
9.99586e-07
1.00023e-06
1.00017e-06
1.00009e-06
9.9998e-07
9.9987e-07
9.99768e-07
9.99679e-07
9.99624e-07
9.99307e-07
1.00027e-06
1.00023e-06
1.00014e-06
1.00005e-06
9.99936e-07
9.99882e-07
9.99768e-07
9.99782e-07
9.99399e-07
1.00027e-06
1.00036e-06
1.00044e-06
1.00052e-06
1.00054e-06
1.00057e-06
1.00045e-06
1.00044e-06
9.99541e-07
)
;
    }
}


// ************************************************************************* //
