/*--------------------------------*- C++ -*----------------------------------*\
| =========                 |                                                 |
| \\      /  F ield         | OpenFOAM: The Open Source CFD Toolbox           |
|  \\    /   O peration     | Version:  4.x                                   |
|   \\  /    A nd           | Web:      www.OpenFOAM.org                      |
|    \\/     M anipulation  |                                                 |
\*---------------------------------------------------------------------------*/
FoamFile
{
    version     2.0;
    format      ascii;
    class       volScalarField;
    location    "12";
    object      particleRelTemp;
}
// * * * * * * * * * * * * * * * * * * * * * * * * * * * * * * * * * * * * * //

dimensions      [0 0 0 0 0 0 0];

internalField   nonuniform List<scalar> 
108
(
6.39522e-08
4.79871e-08
3.02959e-08
1.50788e-08
9.54345e-09
1.65553e-08
3.11947e-08
4.64962e-08
6.61126e-08
1.14969e-07
9.86877e-08
5.84817e-08
1.46419e-08
5.14522e-09
5.00444e-09
2.29355e-08
3.26496e-08
4.40181e-08
1.20796e-07
9.24079e-08
4.81532e-08
1.24313e-08
-2.05239e-09
-5.14612e-09
8.08155e-09
1.80495e-08
3.30749e-08
1.02125e-07
6.76533e-08
2.07945e-08
1.21126e-09
-8.99017e-09
-1.63734e-08
-1.29787e-08
-3.10683e-09
1.88166e-10
6.42246e-08
5.93536e-08
3.86927e-08
2.14567e-08
2.00995e-08
2.68648e-08
5.0473e-08
7.268e-08
7.96923e-08
9.80078e-08
1.00695e-07
5.30954e-08
2.59673e-08
1.56947e-08
2.7268e-08
3.98715e-08
5.27944e-08
6.02405e-08
1.14064e-07
8.92172e-08
5.18965e-08
2.21834e-08
8.93071e-09
9.40986e-09
2.0737e-08
3.1974e-08
4.04556e-08
1.03632e-07
7.21867e-08
4.06432e-08
1.3467e-08
1.39794e-09
-7.74119e-09
3.62989e-09
1.07401e-08
1.78638e-08
5.14138e-08
4.63703e-08
3.7278e-08
2.81277e-08
2.89841e-08
4.18599e-08
6.27734e-08
8.97899e-08
9.24825e-08
7.24628e-08
7.47781e-08
4.93863e-08
3.09933e-08
2.99999e-08
3.80512e-08
5.51131e-08
6.74631e-08
7.0885e-08
7.89895e-08
7.72585e-08
4.59382e-08
2.93404e-08
2.26436e-08
2.66496e-08
3.23458e-08
4.49717e-08
4.8977e-08
8.2477e-08
6.4521e-08
3.95663e-08
1.73901e-08
1.17265e-08
7.47352e-09
1.44299e-08
2.34406e-08
3.29334e-08
)
;

boundaryField
{
    inlet
    {
        type            calculated;
        value           nonuniform 0();
    }
    outlet
    {
        type            calculated;
        value           nonuniform List<scalar> 
12
(
6.61126e-08
4.40181e-08
3.30749e-08
1.88166e-10
7.96923e-08
6.02405e-08
4.04556e-08
1.78638e-08
9.24825e-08
7.0885e-08
4.8977e-08
3.29334e-08
)
;
    }
    wall
    {
        type            calculated;
        value           nonuniform List<scalar> 
63
(
6.39522e-08
1.14969e-07
1.20796e-07
1.02125e-07
4.79871e-08
9.86877e-08
9.24079e-08
6.76533e-08
3.02959e-08
5.84817e-08
4.81532e-08
2.07945e-08
1.50788e-08
1.46419e-08
1.24313e-08
1.21126e-09
9.54345e-09
5.14522e-09
-2.05239e-09
-8.99017e-09
1.65553e-08
5.00444e-09
-5.14612e-09
-1.63734e-08
3.11947e-08
2.29355e-08
8.08155e-09
-1.29787e-08
4.64962e-08
3.26496e-08
1.80495e-08
-3.10683e-09
6.61126e-08
4.40181e-08
3.30749e-08
1.88166e-10
1.02125e-07
1.03632e-07
8.2477e-08
6.76533e-08
7.21867e-08
6.4521e-08
2.07945e-08
4.06432e-08
3.95663e-08
1.21126e-09
1.3467e-08
1.73901e-08
-8.99017e-09
1.39794e-09
1.17265e-08
-1.63734e-08
-7.74119e-09
7.47352e-09
-1.29787e-08
3.62989e-09
1.44299e-08
-3.10683e-09
1.07401e-08
2.34406e-08
1.88166e-10
1.78638e-08
3.29334e-08
)
;
    }
    procBoundary3to1
    {
        type            processor;
        value           nonuniform List<scalar> 
27
(
2.18973e-08
1.9569e-08
1.76248e-08
5.45055e-09
1.76805e-09
9.23713e-09
3.65007e-08
6.75517e-08
8.4495e-08
2.61116e-08
2.35159e-08
2.05015e-08
9.44799e-09
1.37888e-08
2.62931e-08
5.01677e-08
8.95708e-08
1.15347e-07
1.84412e-08
2.44993e-08
2.20708e-08
2.05668e-08
2.40145e-08
3.88696e-08
6.91359e-08
9.15467e-08
1.07359e-07
)
;
    }
    procBoundary3to2
    {
        type            processor;
        value           nonuniform List<scalar> 
12
(
5.61065e-08
8.92614e-08
1.11762e-07
9.95768e-08
4.43682e-08
7.86766e-08
1.02347e-07
9.93672e-08
3.39115e-08
6.3724e-08
7.93299e-08
7.93626e-08
)
;
    }
    procBoundary3to7
    {
        type            processor;
        value           nonuniform List<scalar> 
36
(
3.16255e-08
3.83552e-08
3.34546e-08
3.20943e-08
3.3792e-08
4.68477e-08
6.51201e-08
7.76617e-08
8.48362e-08
4.9527e-08
4.95666e-08
3.83662e-08
3.32514e-08
3.35771e-08
3.93229e-08
5.28173e-08
6.74653e-08
7.47017e-08
4.57794e-08
5.02125e-08
3.64037e-08
2.79115e-08
2.5238e-08
2.60366e-08
3.59751e-08
4.73932e-08
5.4269e-08
5.25127e-08
4.1243e-08
3.27224e-08
1.70722e-08
1.39343e-08
1.3031e-08
1.94207e-08
2.49433e-08
3.08477e-08
)
;
    }
}


// ************************************************************************* //
