/*--------------------------------*- C++ -*----------------------------------*\
| =========                 |                                                 |
| \\      /  F ield         | OpenFOAM: The Open Source CFD Toolbox           |
|  \\    /   O peration     | Version:  4.x                                   |
|   \\  /    A nd           | Web:      www.OpenFOAM.org                      |
|    \\/     M anipulation  |                                                 |
\*---------------------------------------------------------------------------*/
FoamFile
{
    version     2.0;
    format      ascii;
    class       volScalarField;
    location    "12";
    object      SPartFluid;
}
// * * * * * * * * * * * * * * * * * * * * * * * * * * * * * * * * * * * * * //

dimensions      [1 -3 -1 0 0 0 0];

internalField   nonuniform List<scalar> 
108
(
6.97436e-65
3.25475e-65
5.81215e-65
2.5574e-65
4.10731e-65
3.02236e-65
4.72721e-65
3.87474e-65
4.57214e-65
5.0368e-65
7.90393e-65
4.10712e-65
4.6498e-65
5.42477e-65
3.87484e-65
5.50218e-65
4.9597e-65
5.42462e-65
5.50169e-65
5.19185e-65
6.19953e-65
3.71985e-65
5.11483e-65
3.79738e-65
5.73474e-65
5.26972e-65
4.02974e-65
4.64945e-65
3.56467e-65
4.10728e-65
5.88981e-65
4.2624e-65
4.88242e-65
3.17743e-65
5.34734e-65
4.41736e-65
7.51679e-65
6.27694e-65
8.98934e-65
8.52452e-65
7.59456e-65
6.2771e-65
6.04448e-65
6.43182e-65
9.06655e-65
6.50914e-65
6.35416e-65
7.5169e-65
7.28457e-65
6.81964e-65
6.27709e-65
8.60186e-65
7.05191e-65
6.97435e-65
1.03835e-64
7.51659e-65
7.43938e-65
8.447e-65
6.81969e-65
7.20715e-65
6.7421e-65
7.207e-65
7.90439e-65
7.74899e-65
5.65696e-65
6.35455e-65
6.19971e-65
8.21467e-65
5.65732e-65
6.89721e-65
6.81971e-65
5.65722e-65
7.67185e-65
8.98928e-65
8.83437e-65
8.52446e-65
6.1221e-65
6.19953e-65
8.60168e-65
7.12912e-65
7.43917e-65
8.98909e-65
5.11449e-65
7.74938e-65
4.33972e-65
4.6497e-65
7.90444e-65
7.28439e-65
8.83413e-65
6.12189e-65
5.65687e-65
8.29161e-65
8.21435e-65
5.81212e-65
6.8196e-65
7.98202e-65
6.66457e-65
7.20692e-65
5.42456e-65
5.73437e-65
3.87466e-65
5.42462e-65
6.12219e-65
5.57974e-65
7.1297e-65
6.1997e-65
7.90459e-65
8.52445e-65
)
;

boundaryField
{
    inlet
    {
        type            calculated;
        value           nonuniform 0();
    }
    outlet
    {
        type            calculated;
        value           uniform 0;
    }
    wall
    {
        type            calculated;
        value           uniform 0;
    }
    procBoundary3to1
    {
        type            processor;
        value           nonuniform List<scalar> 
27
(
3.48732e-65
5.50222e-65
5.5022e-65
7.43968e-65
5.50227e-65
4.33983e-65
4.95968e-65
4.5721e-65
4.49454e-65
8.13701e-65
6.5871e-65
6.19963e-65
5.26973e-65
5.26973e-65
7.36201e-65
8.05932e-65
1.03062e-64
4.88175e-65
7.90456e-65
6.3546e-65
5.11469e-65
9.06699e-65
8.292e-65
8.75686e-65
6.81932e-65
7.90404e-65
3.48704e-65
)
;
    }
    procBoundary3to2
    {
        type            processor;
        value           nonuniform List<scalar> 
12
(
2.6348e-65
3.95209e-65
5.26927e-65
3.09966e-65
9.37674e-65
5.1919e-65
6.27663e-65
4.26197e-65
7.98195e-65
4.88204e-65
8.36907e-65
8.91156e-65
)
;
    }
    procBoundary3to7
    {
        type            processor;
        value           nonuniform List<scalar> 
36
(
9.91934e-65
7.82694e-65
6.43205e-65
6.74205e-65
1.03068e-64
1.03842e-64
7.98174e-65
5.6569e-65
8.36908e-65
7.67189e-65
9.45424e-65
7.28447e-65
6.74204e-65
8.44693e-65
5.65708e-65
7.51685e-65
6.35439e-65
8.05917e-65
5.50204e-65
7.36191e-65
6.19957e-65
7.12955e-65
7.43955e-65
8.0595e-65
7.51697e-65
7.20692e-65
8.60175e-65
5.1146e-65
7.2845e-65
8.75693e-65
5.50221e-65
7.20715e-65
6.81967e-65
7.90457e-65
5.88969e-65
4.33975e-65
)
;
    }
}


// ************************************************************************* //
