/*--------------------------------*- C++ -*----------------------------------*\
| =========                 |                                                 |
| \\      /  F ield         | OpenFOAM: The Open Source CFD Toolbox           |
|  \\    /   O peration     | Version:  4.x                                   |
|   \\  /    A nd           | Web:      www.OpenFOAM.org                      |
|    \\/     M anipulation  |                                                 |
\*---------------------------------------------------------------------------*/
FoamFile
{
    version     2.0;
    format      ascii;
    class       volScalarField;
    location    "12";
    object      thCond;
}
// * * * * * * * * * * * * * * * * * * * * * * * * * * * * * * * * * * * * * //

dimensions      [1 1 -3 -1 0 0 0];

internalField   nonuniform List<scalar> 
108
(
191.868
191.964
191.716
191.956
191.896
191.966
191.687
191.698
191.633
191.871
191.517
191.735
191.799
191.735
191.834
191.529
191.516
191.485
191.899
191.776
191.667
191.829
191.748
191.821
191.568
191.522
191.652
192.246
192.215
192.004
191.749
191.818
191.821
191.877
191.619
191.728
191.082
191.073
190.756
190.786
190.883
190.933
190.788
190.721
190.593
191.131
191.016
190.844
190.888
190.926
190.884
190.589
190.632
190.66
190.939
191.001
190.916
190.86
190.909
190.854
190.765
190.69
190.693
191.365
191.449
191.256
191.108
190.9
191.029
190.903
190.818
190.937
190.432
190.245
190.152
190.134
190.246
190.145
189.934
190.047
190.113
190.437
190.493
190.288
190.543
190.456
190.106
189.985
189.91
190.143
190.75
190.479
190.371
190.521
190.359
190.109
190.125
190.078
190.248
191.033
191.063
190.787
190.663
190.523
190.292
190.264
190.112
190.126
)
;

boundaryField
{
    inlet
    {
        type            zeroGradient;
    }
    outlet
    {
        type            zeroGradient;
    }
    wall
    {
        type            zeroGradient;
    }
    procBoundary3to1
    {
        type            processor;
        value           nonuniform List<scalar> 
27
(
192.332
192.094
191.886
191.677
191.805
191.815
191.614
191.67
191.843
191.307
191.325
191.23
191.155
191.111
190.865
190.651
190.55
191.14
190.675
190.641
190.652
190.245
190.204
190.085
190.116
190.151
190.676
)
;
    }
    procBoundary3to2
    {
        type            processor;
        value           nonuniform List<scalar> 
12
(
192.433
192.282
192.25
192.665
191.243
191.493
191.466
191.846
190.76
190.91
190.736
190.886
)
;
    }
    procBoundary3to7
    {
        type            processor;
        value           nonuniform List<scalar> 
36
(
189.958
189.902
189.958
189.818
189.46
189.395
189.502
189.729
189.547
190.122
189.803
189.891
189.9
189.639
189.71
189.587
189.665
189.574
190.481
190.089
190.067
189.999
189.777
189.613
189.595
189.677
189.64
190.735
190.295
190.048
190.194
189.939
189.827
189.711
189.922
190.181
)
;
    }
}


// ************************************************************************* //
