/*--------------------------------*- C++ -*----------------------------------*\
| =========                 |                                                 |
| \\      /  F ield         | OpenFOAM: The Open Source CFD Toolbox           |
|  \\    /   O peration     | Version:  4.x                                   |
|   \\  /    A nd           | Web:      www.OpenFOAM.org                      |
|    \\/     M anipulation  |                                                 |
\*---------------------------------------------------------------------------*/
FoamFile
{
    version     2.0;
    format      ascii;
    class       volScalarField;
    location    "10";
    object      Cs;
}
// * * * * * * * * * * * * * * * * * * * * * * * * * * * * * * * * * * * * * //

dimensions      [1 -3 0 0 0 0 0];

internalField   nonuniform List<scalar> 
114
(
334.966
334.927
334.865
334.785
334.7
334.645
335
334.997
334.988
334.968
334.93
334.872
334.794
334.707
334.637
334.999
334.997
334.988
334.97
334.937
334.886
334.817
334.735
334.655
334.999
334.997
334.99
334.976
334.952
334.917
334.868
334.808
334.738
334.841
334.774
334.738
334.738
335
334.998
334.99
334.968
334.925
334.861
334.793
334.746
334.73
335
334.998
334.991
334.971
334.933
334.875
334.806
334.747
334.713
335
334.998
334.993
334.981
334.957
334.922
334.872
334.816
334.756
334.832
334.843
335
334.999
334.993
334.976
334.945
334.903
334.861
334.843
334.845
335
334.999
334.993
334.979
334.95
334.908
334.863
334.834
334.824
335
334.999
334.995
334.986
334.968
334.942
334.904
334.862
334.816
335
334.999
334.995
334.985
334.967
334.944
334.921
334.913
335
334.999
334.996
334.986
334.969
334.944
334.918
335
334.999
334.997
334.992
334.981
334.966
)
;

boundaryField
{
    inlet
    {
        type            calculated;
        value           uniform 335;
    }
    outlet
    {
        type            calculated;
        value           nonuniform 0();
    }
    wall
    {
        type            calculated;
        value           nonuniform List<scalar> 
66
(
335
334.999
334.999
334.997
334.997
334.997
334.988
334.988
334.99
334.966
334.968
334.97
334.976
334.927
334.93
334.937
334.952
334.865
334.872
334.886
334.917
334.785
334.794
334.817
334.868
334.7
334.707
334.735
334.808
334.645
334.637
334.655
334.738
334.999
335
335
335
334.997
334.998
334.999
334.999
334.99
334.993
334.995
334.997
334.976
334.981
334.986
334.992
334.952
334.957
334.968
334.981
334.917
334.922
334.942
334.966
334.868
334.872
334.904
334.808
334.816
334.862
334.738
334.756
334.816
)
;
    }
    procBoundary2to0
    {
        type            processor;
        value           nonuniform List<scalar> 
44
(
334.968
334.932
334.876
334.801
334.716
334.648
335
334.997
334.987
334.987
334.961
334.911
334.859
334.795
334.755
334.75
335
334.997
334.988
334.961
334.911
334.911
334.885
334.843
334.842
334.856
335
334.998
334.991
334.97
334.931
334.885
334.843
334.843
334.89
334.895
335
334.999
334.994
334.98
334.957
334.928
334.901
334.89
)
;
    }
    procBoundary2to3
    {
        type            processor;
        value           nonuniform List<scalar> 
12
(
334.651
334.615
334.604
334.67
334.789
334.766
334.727
334.704
334.883
334.882
334.856
334.777
)
;
    }
    procBoundary2to6
    {
        type            processor;
        value           nonuniform List<scalar> 
32
(
334.918
334.903
334.902
334.944
334.92
334.889
335
334.999
334.995
334.985
334.967
334.948
334.935
334.918
334.903
334.938
335
334.999
334.996
334.988
334.974
334.956
334.903
334.944
334.94
335
334.999
334.998
334.993
334.985
334.944
334.973
)
;
    }
}


// ************************************************************************* //
