/*--------------------------------*- C++ -*----------------------------------*\
| =========                 |                                                 |
| \\      /  F ield         | OpenFOAM: The Open Source CFD Toolbox           |
|  \\    /   O peration     | Version:  4.x                                   |
|   \\  /    A nd           | Web:      www.OpenFOAM.org                      |
|    \\/     M anipulation  |                                                 |
\*---------------------------------------------------------------------------*/
FoamFile
{
    version     2.0;
    format      ascii;
    class       volVectorField;
    location    "10";
    object      DDtUrel;
}
// * * * * * * * * * * * * * * * * * * * * * * * * * * * * * * * * * * * * * //

dimensions      [0 1 -2 0 0 0 0];

internalField   nonuniform List<vector> 
114
(
(0.000593226 4.68015e-06 9.36891e-05)
(0.000368758 3.28971e-06 0.000150275)
(0.000184981 1.73382e-06 0.000196175)
(7.59525e-06 9.17418e-07 0.000167365)
(-7.55381e-05 2.20569e-06 0.000118922)
(-0.000118986 -2.64401e-06 4.00369e-05)
(0.00186578 3.87754e-05 -0.000224003)
(0.00124691 2.70512e-05 -0.000109189)
(0.00086726 1.78104e-05 3.11735e-07)
(0.000623859 1.26738e-05 9.13204e-05)
(0.000409118 1.00357e-05 0.000148043)
(0.000234921 8.90429e-06 0.000194589)
(5.47867e-05 6.64213e-06 0.000175376)
(-3.91157e-05 5.93503e-06 0.000133363)
(-0.000101628 3.57518e-06 5.45542e-05)
(0.00191066 7.43017e-05 -0.00022502)
(0.00130407 4.27532e-05 -0.000110938)
(0.000937999 2.4716e-05 -2.19983e-06)
(0.000709308 1.71562e-05 8.65708e-05)
(0.000509002 1.35558e-05 0.000147687)
(0.000341916 1.74036e-05 0.000202538)
(0.000156002 1.92139e-05 0.000201229)
(3.62409e-05 2.33955e-05 0.000174587)
(-6.22668e-05 2.153e-05 0.000101298)
(0.00196124 8.51654e-05 -0.000219593)
(0.00136956 5.24751e-05 -0.000110895)
(0.00101667 2.93344e-05 -6.97389e-06)
(0.000808433 1.99355e-05 7.93942e-05)
(0.000628615 1.50977e-05 0.000145241)
(0.000483503 2.15853e-05 0.000207386)
(0.000307595 3.09902e-05 0.000228159)
(0.00017281 3.7688e-05 0.000224139)
(3.4174e-05 3.70457e-05 0.000168914)
(0.000166233 -2.83269e-07 0.000166654)
(6.44225e-05 -1.13325e-06 0.000130699)
(2.29493e-05 -2.27251e-07 8.97343e-05)
(-1.75269e-05 -2.74567e-06 2.4046e-05)
(0.00176084 4.1502e-05 -0.000264119)
(0.00110788 2.48299e-05 -0.000114587)
(0.000718078 1.55913e-05 4.11692e-08)
(0.000480126 8.67929e-06 9.28819e-05)
(0.000312304 3.59863e-06 0.000132005)
(0.000194241 -1.79591e-06 0.000170344)
(8.76014e-05 -5.50528e-07 0.000140863)
(4.18796e-05 -1.72544e-06 0.000104499)
(-5.38296e-06 -1.87117e-06 3.77241e-05)
(0.00180515 8.0882e-05 -0.000266088)
(0.00115964 4.49385e-05 -0.000118692)
(0.000776322 2.30044e-05 -4.13185e-06)
(0.0005468 1.20359e-05 8.74397e-05)
(0.000381727 6.43986e-06 0.000134171)
(0.000262274 4.03193e-06 0.000182351)
(0.000150177 5.21621e-06 0.000168307)
(9.27651e-05 4.94949e-06 0.00014732)
(2.97164e-05 2.89002e-06 8.15927e-05)
(0.0018629 9.46486e-05 -0.000262322)
(0.0012332 5.59624e-05 -0.000121123)
(0.000858859 2.80317e-05 -1.09951e-05)
(0.000641908 1.59336e-05 7.93215e-05)
(0.0004815 9.08592e-06 0.000135741)
(0.000369478 8.62193e-06 0.000197039)
(0.000254225 1.2845e-05 0.000209648)
(0.000188452 1.22001e-05 0.000212242)
(0.000105118 7.69511e-06 0.00015845)
(6.23662e-05 -6.71309e-07 5.58245e-05)
(3.14516e-05 -2.3406e-06 1.10307e-05)
(0.00166539 4.84769e-05 -0.000245047)
(0.00098764 2.39466e-05 -0.000100931)
(0.000600886 1.17455e-05 -2.5001e-06)
(0.000378179 2.94746e-06 7.72097e-05)
(0.000244963 -5.6561e-07 0.000101743)
(0.000165363 -5.41757e-06 0.000124565)
(0.00010322 -3.21242e-06 9.82225e-05)
(7.93352e-05 -3.61285e-06 6.75112e-05)
(4.70476e-05 -3.54143e-06 2.02406e-05)
(0.00170807 8.74549e-05 -0.000247035)
(0.00103494 4.59734e-05 -0.000106247)
(0.000647575 2.11023e-05 -8.57887e-06)
(0.000423877 6.217e-06 7.21655e-05)
(0.000289125 1.43119e-07 0.000105282)
(0.00020586 -4.7581e-06 0.000138638)
(0.000143794 -3.87223e-06 0.000121612)
(0.000119164 -6.02559e-06 0.000102383)
(8.48981e-05 -7.80841e-06 5.3387e-05)
(0.00176776 0.000103117 -0.000247168)
(0.00110659 5.95985e-05 -0.000112221)
(0.000720714 2.73751e-05 -1.58911e-05)
(0.000500566 1.04371e-05 6.64329e-05)
(0.00036175 1.01714e-06 0.000112346)
(0.000276756 -3.42127e-06 0.0001583)
(0.000211711 -3.10152e-06 0.000160063)
(0.000190288 -8.90407e-06 0.000160183)
(0.000152567 -1.26778e-05 0.000115997)
(0.00161036 4.81776e-05 -0.000194296)
(0.000922966 2.43271e-05 -7.7673e-05)
(0.000539596 9.42191e-06 -3.93763e-06)
(0.00032977 -7.39316e-07 5.64676e-05)
(0.000211483 -2.78073e-06 7.43254e-05)
(0.000151208 -6.76254e-06 8.7224e-05)
(0.000105649 -5.84049e-06 6.52094e-05)
(9.10949e-05 -5.64303e-06 4.0983e-05)
(0.00165446 9.24655e-05 -0.000195295)
(0.0009691 4.48001e-05 -8.3028e-05)
(0.000580685 1.73557e-05 -9.58149e-06)
(0.000365094 1.03422e-06 5.22232e-05)
(0.000242995 -3.81982e-06 7.77124e-05)
(0.000179777 -9.73779e-06 9.93875e-05)
(0.000136179 -1.06884e-05 8.27326e-05)
(0.00171714 0.000108307 -0.00019885)
(0.00104001 5.85944e-05 -9.12958e-05)
(0.000647939 2.46494e-05 -1.78748e-05)
(0.000428738 5.95367e-06 4.7011e-05)
(0.000300608 -3.03311e-06 8.50849e-05)
(0.000235772 -1.1065e-05 0.000117709)
)
;

boundaryField
{
    inlet
    {
        type            calculated;
        value           nonuniform List<vector> 
12
(
(0.00408613 0.000121067 -0.000461363)
(0.00418136 0.000231869 -0.000488621)
(0.00433447 0.00019532 -0.000424308)
(0.00376149 0.000130834 -0.000905095)
(0.00382955 0.000275808 -0.00094536)
(0.00407042 0.000265244 -0.000885581)
(0.00367319 0.00021098 -0.000801356)
(0.00370351 0.000298 -0.000808892)
(0.00395648 0.000302113 -0.000786446)
(0.00364777 0.000174588 -0.000670367)
(0.00371844 0.00033928 -0.000629709)
(0.00400827 0.000329715 -0.000632891)
)
;
    }
    outlet
    {
        type            calculated;
        value           nonuniform 0();
    }
    wall
    {
        type            calculated;
        value           nonuniform List<vector> 
66
(
(0.00408613 0.000121067 -0.000461363)
(0.00418136 0.000231869 -0.000488621)
(0.00433447 0.00019532 -0.000424308)
(0.000762314 6.46133e-05 -8.22534e-05)
(0.000941397 1.05714e-05 -7.53455e-05)
(0.00121419 4.0606e-05 -6.39289e-05)
(0.000720469 3.98853e-05 6.2137e-05)
(0.000964301 3.02107e-06 7.51725e-05)
(0.00127216 2.90148e-06 4.75588e-05)
(0.000690584 2.92165e-05 0.00020663)
(0.000803198 2.75435e-05 0.000204889)
(0.00107292 2.51659e-05 0.000180986)
(0.00152981 2.58765e-05 0.000124113)
(0.000225246 1.77335e-05 0.000244733)
(0.000391726 3.46825e-05 0.000224415)
(0.000730748 1.72061e-05 0.000215706)
(0.00133313 1.4543e-06 0.000178775)
(-7.24289e-05 3.29631e-05 0.000527113)
(0.00020419 4.11597e-05 0.000452595)
(0.000541088 7.80986e-05 0.000455763)
(0.0013661 6.45513e-05 0.00038791)
(-0.000721311 4.27712e-05 0.000280593)
(-0.000490395 2.55523e-06 0.000300144)
(-0.000194849 5.67442e-05 0.000380742)
(0.000801958 0.000131292 0.000447598)
(-0.000667927 7.46206e-05 0.000203184)
(-0.000508018 -7.3992e-06 0.000258979)
(-0.000393287 0.000109089 0.00038375)
(0.000555444 0.000183259 0.000578203)
(-0.000709952 -1.71471e-05 -2.3409e-05)
(-0.00073245 -5.63818e-07 4.13979e-07)
(-0.000810009 0.000116302 0.000108283)
(-0.000165625 0.000225441 0.00044374)
(0.00433447 0.00019532 -0.000424308)
(0.00407042 0.000265244 -0.000885581)
(0.00395648 0.000302113 -0.000786446)
(0.00400827 0.000329715 -0.000632891)
(0.00121419 4.0606e-05 -6.39289e-05)
(0.000600856 5.43839e-05 -8.64416e-05)
(0.000250442 7.89022e-05 -4.23058e-05)
(0.000222897 5.12814e-05 -3.35229e-05)
(0.00127216 2.90148e-06 4.75588e-05)
(0.000541309 -9.90948e-06 3.48201e-05)
(0.000207409 3.34904e-06 -1.89522e-06)
(0.000170506 -2.20826e-06 -3.21852e-05)
(0.00152981 2.58765e-05 0.000124113)
(0.000672825 1.53694e-05 0.000203491)
(0.000259131 -4.18422e-06 0.000186782)
(0.000217961 -9.11376e-06 0.000110507)
(0.00133313 1.4543e-06 0.000178775)
(0.000546433 2.68812e-06 0.000167202)
(0.000230349 -2.48692e-05 0.000145564)
(0.000188053 -4.89589e-06 0.000134621)
(0.0013661 6.45513e-05 0.00038791)
(0.000642919 4.54132e-06 0.000486681)
(0.000270754 -2.84023e-05 0.000367315)
(0.000317027 -4.08462e-05 0.000304646)
(0.000801958 0.000131292 0.000447598)
(0.000379131 4.51087e-05 0.0004638)
(0.000210497 7.68046e-06 0.000277319)
(0.000555444 0.000183259 0.000578203)
(0.000580531 3.3425e-05 0.00071662)
(0.000484046 -4.36792e-05 0.000476689)
(-0.000165625 0.000225441 0.00044374)
(0.00018536 3.36453e-05 0.000509131)
(0.000320074 -1.31844e-05 0.000324026)
)
;
    }
    procBoundary2to0
    {
        type            processor;
        value           nonuniform List<vector> 
44
(
(0.000633861 -5.72129e-06 9.20874e-05)
(0.00041339 -6.35656e-06 0.000150691)
(0.000231211 -1.44229e-05 0.000198242)
(4.20087e-05 -1.8682e-05 0.000179751)
(-5.89638e-05 -1.62565e-05 0.000138328)
(-0.000121104 -1.09113e-05 5.92265e-05)
(0.00185552 -1.39546e-05 -0.00022681)
(0.00123381 -1.31598e-06 -0.000105182)
(0.000849372 1.544e-06 2.4636e-06)
(0.000849372 1.544e-06 2.4636e-06)
(0.000456679 3.82173e-06 9.73503e-05)
(0.000287633 1.58765e-06 0.000132494)
(0.000192756 -2.1626e-06 0.000173185)
(8.29856e-05 -6.84932e-06 0.000142949)
(3.47295e-05 -5.99614e-06 0.000107056)
(-1.47169e-05 -4.75036e-06 4.08501e-05)
(0.00174459 -1.36698e-05 -0.00027029)
(0.001091 -3.64899e-06 -0.000111365)
(0.000700587 7.25367e-07 3.89756e-06)
(0.000456679 3.82173e-06 9.73503e-05)
(0.000287633 1.58765e-06 0.000132494)
(0.000287633 1.58765e-06 0.000132494)
(0.000150074 -9.99706e-07 0.000117801)
(8.98775e-05 -1.1356e-06 8.97295e-05)
(7.60153e-05 -8.74399e-07 6.98018e-05)
(4.17739e-05 -1.84278e-06 2.55067e-05)
(0.00164398 -1.03371e-05 -0.00024561)
(0.000966973 -3.41451e-06 -9.93197e-05)
(0.000584076 -4.29672e-07 5.28303e-07)
(0.000360915 1.75005e-06 8.06938e-05)
(0.00023151 3.31532e-07 9.95185e-05)
(0.000150074 -9.99706e-07 0.000117801)
(8.98775e-05 -1.1356e-06 8.97295e-05)
(8.98775e-05 -1.1356e-06 8.97295e-05)
(7.45201e-05 -1.81617e-06 3.5509e-05)
(5.18435e-05 -3.86254e-06 -1.92138e-06)
(0.00159375 -1.36588e-05 -0.000189822)
(0.000906117 -2.85985e-06 -7.648e-05)
(0.000525411 2.97731e-08 -8.23681e-07)
(0.000317197 2.02471e-06 5.8773e-05)
(0.000201938 3.57527e-07 7.33643e-05)
(0.000140107 -6.26387e-07 8.38721e-05)
(9.61754e-05 -1.58072e-06 6.10583e-05)
(7.45201e-05 -1.81617e-06 3.5509e-05)
)
;
    }
    procBoundary2to3
    {
        type            processor;
        value           nonuniform List<vector> 
12
(
(-9.01407e-05 -8.55625e-07 -3.6036e-05)
(-8.12832e-05 -3.44344e-06 -2.21268e-05)
(-7.10059e-05 1.03908e-05 2.4691e-05)
(-1.88988e-05 2.07169e-05 0.000102625)
(-6.16237e-06 -2.9698e-06 -4.25924e-05)
(7.72831e-06 -5.52016e-06 -3.0547e-05)
(3.28756e-05 -5.50787e-06 1.30328e-05)
(9.04646e-05 -8.72138e-06 9.92897e-05)
(2.73218e-05 -3.25432e-06 -3.98761e-05)
(5.02832e-05 -8.9931e-06 -3.34277e-05)
(9.08306e-05 -1.57432e-05 -1.71611e-06)
(0.000162427 -2.72387e-05 6.96898e-05)
)
;
    }
    procBoundary2to6
    {
        type            processor;
        value           nonuniform List<vector> 
32
(
(6.64991e-05 -5.84263e-06 3.44936e-06)
(0.000123763 -1.47027e-05 6.4364e-05)
(0.000102619 -1.56465e-05 2.57517e-05)
(0.000191212 -1.55271e-05 0.000112309)
(0.000184567 -2.37631e-05 0.000109441)
(0.000162749 -2.61944e-05 7.03688e-05)
(0.00158975 4.93548e-05 -0.000114969)
(0.000893227 2.37392e-05 -4.81266e-05)
(0.000513103 7.64642e-06 -2.75695e-06)
(0.000306813 -2.34698e-06 3.5998e-05)
(0.000196056 -4.4938e-06 4.85191e-05)
(0.000136922 -7.84752e-06 5.4623e-05)
(0.000102586 -8.39041e-06 3.98286e-05)
(6.64991e-05 -5.84263e-06 3.44936e-06)
(0.000123763 -1.47027e-05 6.4364e-05)
(8.46175e-05 -1.07278e-05 1.75385e-05)
(0.00163353 9.57682e-05 -0.000118008)
(0.000939955 4.32553e-05 -5.36375e-05)
(0.00055244 1.53894e-05 -7.42674e-06)
(0.000337961 -3.196e-06 3.34639e-05)
(0.00022147 -6.87693e-06 5.06812e-05)
(0.000159218 -1.22619e-05 6.17614e-05)
(0.000123763 -1.47027e-05 6.4364e-05)
(0.000191212 -1.55271e-05 0.000112309)
(0.000126271 -1.40212e-05 5.06793e-05)
(0.00169769 0.000109635 -0.000126193)
(0.00100956 5.70642e-05 -6.14678e-05)
(0.000615747 2.18377e-05 -1.45369e-05)
(0.00039321 9.82943e-07 2.99404e-05)
(0.000266913 -6.79573e-06 5.47484e-05)
(0.000191212 -1.55271e-05 0.000112309)
(0.000202605 -1.43677e-05 7.4539e-05)
)
;
    }
}


// ************************************************************************* //
