/*--------------------------------*- C++ -*----------------------------------*\
| =========                 |                                                 |
| \\      /  F ield         | OpenFOAM: The Open Source CFD Toolbox           |
|  \\    /   O peration     | Version:  4.x                                   |
|   \\  /    A nd           | Web:      www.OpenFOAM.org                      |
|    \\/     M anipulation  |                                                 |
\*---------------------------------------------------------------------------*/
FoamFile
{
    version     2.0;
    format      ascii;
    class       volVectorField;
    location    "10";
    object      GField;
}
// * * * * * * * * * * * * * * * * * * * * * * * * * * * * * * * * * * * * * //

dimensions      [1 -2 -1 0 0 0 0];

internalField   nonuniform List<vector> 
114
(
(63.9424 -0.184666 -4.07975)
(112.475 0.00514769 -5.43195)
(71.3401 0.00788967 -1.93116)
(113.94 0.352231 1.16361)
(61.776 0.733355 2.91787)
(107.575 1.62509 6.63851)
(95.7079 1.06943 -4.97526)
(48.8037 0.895479 -3.46398)
(103.643 1.89754 -6.57647)
(62.8454 1.40661 -3.79819)
(111.353 2.01728 -4.94345)
(71.2863 1.69451 -1.95125)
(115.012 2.49615 0.332804)
(65.9908 1.80527 2.73751)
(111.47 2.78393 6.05628)
(97.0139 2.87943 -5.41071)
(50.982 1.5044 -3.69637)
(106.893 2.84252 -6.83265)
(68.196 1.64789 -3.95965)
(116.977 2.83506 -5.54858)
(80.5538 1.63204 -2.60563)
(123.925 3.39568 -1.09166)
(81.2084 2.1934 2.24913)
(121.48 4.93474 5.179)
(97.048 2.22793 -4.55835)
(55.2645 1.38223 -3.34011)
(109.946 2.61635 -5.72)
(76.2851 1.55433 -3.7758)
(124.417 2.6095 -5.12689)
(94.7821 1.38856 -3.10623)
(137.5 2.7455 -2.36329)
(106.175 2.45259 0.645173)
(143.816 4.38166 3.32035)
(25.2967 -0.0333127 -1.7493)
(87.1038 -0.0482042 1.70012)
(19.6956 0.0734905 0.760179)
(89.6046 0.527645 6.50649)
(93.8414 1.54404 -10.0468)
(39.3816 0.643108 -5.97012)
(93.6267 1.86827 -11.713)
(36.189 1.21257 -5.17873)
(91.6849 2.21019 -7.56346)
(30.2239 0.975603 -2.32965)
(89.8909 0.895323 0.702604)
(23.8781 0.583039 0.909774)
(92.4015 0.0735388 6.40146)
(94.5797 3.28508 -10.3319)
(40.7506 1.67063 -6.49016)
(95.1137 3.69132 -12.2385)
(40.0844 1.63658 -5.77227)
(94.625 3.60255 -8.7611)
(36.629 1.42562 -3.11573)
(93.0946 3.18211 -1.21527)
(30.0353 1.04769 1.07561)
(94.1416 3.15574 6.5316)
(94.9817 2.9871 -9.35259)
(48.1343 1.79469 -6.57768)
(100.773 3.6706 -11.0744)
(57.5105 1.87848 -7.11672)
(106.495 3.76537 -9.44765)
(64.9693 1.98894 -6.20594)
(111.329 3.64579 -4.58821)
(69.5471 2.5215 -1.02802)
(116.69 4.13698 4.47378)
(5.5515 -0.00750113 0.36067)
(82.4787 0.40771 3.63896)
(92.0008 2.37868 -8.36695)
(35.224 1.12015 -4.78858)
(88.6594 2.39584 -8.22442)
(25.5013 1.01593 -2.78009)
(85.3786 1.8918 -3.4146)
(16.661 0.612087 -0.454784)
(83.929 0.577952 2.31991)
(12.3485 0.543944 0.672183)
(85.8648 0.429777 4.34318)
(93.1558 3.65089 -8.41886)
(36.0502 1.61421 -4.93457)
(89.9779 4.08409 -8.59598)
(27.4009 1.42446 -3.33076)
(86.662 3.61801 -4.54574)
(18.773 0.835656 -0.928196)
(84.4931 2.7439 1.60397)
(12.2867 0.513362 0.708671)
(85.5992 2.6627 5.54126)
(93.8345 3.26267 -7.84527)
(43.5549 2.0693 -5.36697)
(95.7454 4.46653 -8.6285)
(47.0167 2.19186 -5.35426)
(97.8028 4.31947 -6.40609)
(49.9348 1.77514 -3.53921)
(98.3548 3.68572 -1.57773)
(51.9339 1.85741 0.170248)
(101.893 3.11953 5.02738)
(91.0802 1.68557 -7.12804)
(33.272 1.08876 -3.64069)
(86.6231 2.06448 -6.34037)
(23.7084 0.791074 -2.41645)
(84.7845 1.10244 -2.8243)
(17.8154 0.557167 -0.676809)
(85.1311 0.3326 1.11401)
(15.815 0.435154 -0.17421)
(91.456 3.93022 -6.49128)
(35.3176 1.8512 -3.71723)
(88.0272 3.90045 -6.07142)
(27.2236 1.14617 -2.76678)
(85.8374 2.99792 -3.30112)
(20.4078 0.67314 -0.958833)
(85.302 2.1841 1.03938)
(92.8977 3.59051 -6.11623)
(43.8601 2.12671 -4.39952)
(94.5116 4.25044 -6.71423)
(46.5615 2.05011 -4.84064)
(96.271 3.99609 -5.4754)
(49.2086 1.90862 -3.07971)
)
;

boundaryField
{
    inlet
    {
        type            calculated;
        value           uniform (67 0 0);
    }
    outlet
    {
        type            calculated;
        value           nonuniform 0();
    }
    wall
    {
        type            calculated;
        value           uniform (0 0 0);
    }
    procBoundary2to0
    {
        type            processor;
        value           nonuniform List<vector> 
44
(
(65.2052 -1.76182 -3.84861)
(114.136 -2.32516 -4.94229)
(73.7945 -1.58894 -1.95904)
(117.646 -3.09926 0.576541)
(66.5187 -2.53389 3.09236)
(110.112 -3.89024 6.43657)
(97.7615 -1.15401 -6.05204)
(49.9947 -0.224821 -3.5639)
(105.686 -0.366163 -6.8693)
(105.686 -0.366163 -6.8693)
(34.2228 -0.132573 -5.29728)
(89.6852 -0.0297772 -7.52659)
(30.5339 -1.03641 -1.99941)
(90.7868 -1.6251 1.045)
(23.552 -0.880071 1.13691)
(93.0203 -1.32065 6.45569)
(93.4676 -0.723727 -11.5259)
(38.2117 -0.34231 -6.61551)
(93.3356 -0.607042 -12.7733)
(34.2228 -0.132573 -5.29728)
(89.6852 -0.0297772 -7.52659)
(89.6852 -0.0297772 -7.52659)
(8.00993 -0.0804739 -0.185459)
(81.1994 -0.00212319 3.09968)
(6.83688 -0.440837 0.450425)
(84.4264 -0.735898 4.04715)
(91.4806 -0.205722 -8.39449)
(31.371 0.0289506 -4.83377)
(86.5082 0.0955881 -8.41238)
(18.0957 0.0352738 -2.06014)
(82.175 0.225292 -2.16103)
(8.00993 -0.0804739 -0.185459)
(81.1994 -0.00212319 3.09968)
(81.1994 -0.00212319 3.09968)
(17.2232 -0.0751941 -0.142194)
(85.3565 0.10926 2.97921)
(91.484 -0.985871 -5.98199)
(33.1245 -0.213016 -3.81555)
(86.3787 -0.359572 -5.80773)
(22.0487 0.0941535 -2.21127)
(84.538 0.0635155 -2.23877)
(17.1498 0.0206468 -0.831539)
(84.4865 -0.116186 1.48326)
(17.2232 -0.0751941 -0.142194)
)
;
    }
    procBoundary2to3
    {
        type            processor;
        value           nonuniform List<vector> 
12
(
(40.8386 0.483144 3.21585)
(48.9828 1.86864 3.87963)
(66.576 3.90775 5.17036)
(105.951 4.92931 5.58133)
(19.6771 0.0594965 0.354876)
(21.3856 0.466361 1.12578)
(24.1141 1.25749 2.38646)
(73.3342 3.44313 5.88216)
(6.3037 0.131101 0.0296685)
(12.2799 0.915061 0.734508)
(11.5094 0.752104 1.01091)
(57.2404 2.08239 5.31437)
)
;
    }
    procBoundary2to6
    {
        type            processor;
        value           nonuniform List<vector> 
32
(
(86.9844 0.754527 2.60022)
(17.2326 0.274579 0.0497233)
(86.8453 1.48135 3.01336)
(98.745 3.32609 -1.51228)
(52.8219 1.25323 -0.882106)
(102.845 1.98357 3.15625)
(88.7129 1.77005 -3.53536)
(30.6271 1.25272 -1.79405)
(83.667 2.27062 -3.25343)
(17.2703 0.773577 -1.14178)
(80.2709 1.56595 -1.21549)
(8.20434 0.477787 -0.343715)
(79.402 0.862457 0.822179)
(86.9844 0.754527 2.60022)
(17.2326 0.274579 0.0497233)
(3.47852 0.241486 -0.112537)
(90.8079 4.73247 -3.0832)
(33.1994 1.75784 -1.98154)
(86.3178 4.47451 -3.08526)
(22.6299 1.20697 -1.55056)
(82.8671 2.96379 -1.38117)
(13.8594 0.63207 -0.624391)
(17.2326 0.274579 0.0497233)
(98.745 3.32609 -1.51228)
(81.1636 2.18082 0.602706)
(92.7059 3.77891 -3.33665)
(43.0214 2.20865 -2.58209)
(93.0849 4.47612 -3.86248)
(44.4519 2.04606 -3.1798)
(92.6617 3.69897 -3.06492)
(98.745 3.32609 -1.51228)
(44.1477 1.72109 -2.39078)
)
;
    }
}


// ************************************************************************* //
