/*--------------------------------*- C++ -*----------------------------------*\
| =========                 |                                                 |
| \\      /  F ield         | OpenFOAM: The Open Source CFD Toolbox           |
|  \\    /   O peration     | Version:  4.x                                   |
|   \\  /    A nd           | Web:      www.OpenFOAM.org                      |
|    \\/     M anipulation  |                                                 |
\*---------------------------------------------------------------------------*/
FoamFile
{
    version     2.0;
    format      ascii;
    class       volScalarField;
    location    "10";
    object      QWallFluidCoeff;
}
// * * * * * * * * * * * * * * * * * * * * * * * * * * * * * * * * * * * * * //

dimensions      [1 -1 -3 -1 0 0 0];

internalField   nonuniform List<scalar> 
114
(
-1.99084e+06
-3.1257e+06
-2.17016e+06
-3.15543e+06
-1.93537e+06
-3.01833e+06
-2.74755e+06
-1.60469e+06
-2.93013e+06
-1.96353e+06
-3.10068e+06
-2.16935e+06
-3.17962e+06
-2.04039e+06
-3.10487e+06
-2.7788e+06
-1.66223e+06
-3.00392e+06
-2.09599e+06
-3.22605e+06
-2.39232e+06
-3.37574e+06
-2.4079e+06
-3.32585e+06
-5.55636e+06
-3.54345e+06
-6.14099e+06
-4.58328e+06
-6.77645e+06
-5.44919e+06
-7.33653e+06
-5.96547e+06
-7.60723e+06
0
0
0
0
0
0
0
0
0
0
0
0
0
0
0
0
0
0
0
0
0
0
-2.7394e+06
-1.59629e+06
-2.87531e+06
-1.83788e+06
-3.00012e+06
-2.02117e+06
-3.10073e+06
-2.12709e+06
-3.21957e+06
0
0
0
0
0
0
0
0
0
0
0
0
0
0
0
0
0
0
0
0
-2.71023e+06
-1.47208e+06
-2.75659e+06
-1.56354e+06
-2.79936e+06
-1.63497e+06
-2.80687e+06
-1.68377e+06
-2.88933e+06
0
0
0
0
0
0
0
0
0
0
0
0
0
0
0
-2.68603e+06
-1.47739e+06
-2.72464e+06
-1.54996e+06
-2.76282e+06
-1.61536e+06
)
;

boundaryField
{
    inlet
    {
        type            calculated;
        value           uniform 0;
    }
    outlet
    {
        type            calculated;
        value           nonuniform 0();
    }
    wall
    {
        type            calculated;
        value           uniform 0;
    }
    procBoundary2to0
    {
        type            processor;
        value           uniform 0;
    }
    procBoundary2to3
    {
        type            processor;
        value           uniform 0;
    }
    procBoundary2to6
    {
        type            processor;
        value           uniform 0;
    }
}


// ************************************************************************* //
