/*--------------------------------*- C++ -*----------------------------------*\
| =========                 |                                                 |
| \\      /  F ield         | OpenFOAM: The Open Source CFD Toolbox           |
|  \\    /   O peration     | Version:  4.x                                   |
|   \\  /    A nd           | Web:      www.OpenFOAM.org                      |
|    \\/     M anipulation  |                                                 |
\*---------------------------------------------------------------------------*/
FoamFile
{
    version     2.0;
    format      ascii;
    class       volVectorField;
    location    "10";
    object      U;
}
// * * * * * * * * * * * * * * * * * * * * * * * * * * * * * * * * * * * * * //

dimensions      [0 1 -1 0 0 0 0];

internalField   nonuniform List<vector> 
114
(
(0.0194534 -6.06924e-05 -0.00124132)
(0.0342567 -3.04119e-06 -0.00165492)
(0.0216364 -8.88005e-07 -0.000586232)
(0.034771 0.000105457 0.000354466)
(0.0187417 0.000221312 0.000884883)
(0.0328191 0.000495085 0.00202508)
(0.0288064 0.000326364 -0.00149709)
(0.0147816 0.000274119 -0.00104851)
(0.0313557 0.000574119 -0.00198922)
(0.0190532 0.000424966 -0.00115139)
(0.0339988 0.000613841 -0.0015095)
(0.0217236 0.000514484 -0.000594883)
(0.0352764 0.000764171 0.000101628)
(0.0202354 0.000552616 0.000839128)
(0.0340796 0.000850521 0.00185136)
(0.02905 0.000864113 -0.00161996)
(0.0153785 0.000455325 -0.00111469)
(0.0321298 0.000854801 -0.00205347)
(0.0206506 0.000498589 -0.00119889)
(0.0353998 0.000857097 -0.00167914)
(0.0244445 0.000494317 -0.000790832)
(0.0374807 0.00102616 -0.000330528)
(0.0247043 0.000666602 0.000683882)
(0.0369495 0.00150043 0.00157494)
(0.0289772 0.000665763 -0.0013609)
(0.0165453 0.000414226 -0.000999785)
(0.0329624 0.000784519 -0.00171469)
(0.0229635 0.000467781 -0.00113647)
(0.0373622 0.000783352 -0.00153957)
(0.0284913 0.000417078 -0.000933788)
(0.0412576 0.000823446 -0.000709358)
(0.0320924 0.000740999 0.000194714)
(0.0434827 0.00132447 0.0010035)
(0.00794386 -1.30012e-05 -0.000550394)
(0.0274902 -1.69037e-05 0.000535469)
(0.00615416 2.19457e-05 0.000236986)
(0.028226 0.000165599 0.00204931)
(0.0286675 0.000475566 -0.00306817)
(0.0121202 0.000200157 -0.0018361)
(0.0289922 0.0005788 -0.00362639)
(0.0112549 0.000376017 -0.00161042)
(0.0286036 0.000687911 -0.00236006)
(0.00944454 0.000303332 -0.00072846)
(0.0283371 0.00028109 0.000220706)
(0.00749355 0.000182187 0.000285105)
(0.0288851 2.25179e-05 0.00200084)
(0.0288431 0.00100351 -0.00315028)
(0.0125642 0.000516243 -0.0020004)
(0.0294666 0.0011439 -0.00379106)
(0.0124541 0.000508118 -0.00179316)
(0.0294167 0.00111922 -0.00272377)
(0.011403 0.000443022 -0.000970185)
(0.0290312 0.000991654 -0.000379582)
(0.00937787 0.000326612 0.000335486)
(0.0294141 0.000985645 0.0020404)
(0.0288427 0.000907547 -0.0028397)
(0.0146824 0.000547758 -0.00200597)
(0.0309801 0.00112851 -0.00340419)
(0.0177033 0.000578129 -0.00219047)
(0.0328472 0.00116112 -0.00291403)
(0.0200336 0.000613013 -0.00191376)
(0.0343848 0.00112575 -0.00141758)
(0.0215343 0.000780514 -0.000318795)
(0.0361078 0.00127991 0.00138363)
(0.00176844 -3.19385e-06 0.000114281)
(0.0263361 0.000129684 0.00116162)
(0.0285768 0.000741466 -0.00259756)
(0.010954 0.000350007 -0.00148799)
(0.0277714 0.000750901 -0.00257566)
(0.00804091 0.000319761 -0.000876571)
(0.0269779 0.00059677 -0.00107949)
(0.00529862 0.000193604 -0.000145194)
(0.0268545 0.000184069 0.00074163)
(0.00393326 0.000172661 0.000213686)
(0.027292 0.000136195 0.00138023)
(0.0287492 0.001128 -0.00259748)
(0.0112175 0.000503149 -0.00153479)
(0.0282578 0.0012829 -0.00269916)
(0.00867764 0.000450882 -0.00105463)
(0.027389 0.00114295 -0.00143688)
(0.00594232 0.000263936 -0.00029407)
(0.0268931 0.000872852 0.000510042)
(0.00390872 0.00016293 0.000225144)
(0.0273332 0.000849983 0.00176915)
(0.0288449 0.00100332 -0.00241118)
(0.0135388 0.000643465 -0.00166782)
(0.0298764 0.00139378 -0.00269208)
(0.0147537 0.000687697 -0.00167993)
(0.0305685 0.00134985 -0.0020023)
(0.0157107 0.000558285 -0.00111369)
(0.0311373 0.00116661 -0.000499909)
(0.0163532 0.000584704 5.32004e-05)
(0.0324003 0.00099182 0.00159804)
(0.0284921 0.000528878 -0.00222858)
(0.0105321 0.000345745 -0.00115145)
(0.0276264 0.000658846 -0.00202165)
(0.00757379 0.000252515 -0.000771913)
(0.0271367 0.000352341 -0.000904418)
(0.00572113 0.000178288 -0.000217847)
(0.027413 0.000106555 0.000358144)
(0.00509843 0.000139866 -5.65466e-05)
(0.0286154 0.00123058 -0.00203036)
(0.0111412 0.000584571 -0.00117202)
(0.0280207 0.00124181 -0.0019323)
(0.0086729 0.000365051 -0.0008813)
(0.0274579 0.000958684 -0.00105619)
(0.00654626 0.000215551 -0.000307824)
(0.0274826 0.000703333 0.000334428)
(0.0288289 0.00111449 -0.00189757)
(0.0137573 0.000667231 -0.00137953)
(0.0298191 0.00134106 -0.00211808)
(0.0147866 0.000650985 -0.00153707)
(0.0305533 0.00126807 -0.0017378)
(0.015691 0.000608436 -0.000982194)
)
;

boundaryField
{
    inlet
    {
        type            fixedValue;
        value           uniform (0.01 0 0);
    }
    outlet
    {
        type            zeroGradient;
    }
    wall
    {
        type            fixedValue;
        value           uniform (0 0 0);
    }
    procBoundary2to0
    {
        type            processor;
        value           nonuniform List<vector> 
44
(
(0.0197129 -0.000545985 -0.00116498)
(0.0345411 -0.000713028 -0.00149725)
(0.0223685 -0.000486524 -0.000594889)
(0.0356505 -0.000941525 0.000173938)
(0.0202039 -0.000770809 0.000938867)
(0.0337617 -0.00119341 0.00197329)
(0.0291139 -0.000328251 -0.00180139)
(0.0150141 -6.69353e-05 -0.00106899)
(0.0317963 -0.000111888 -0.00206632)
(0.0317963 -0.000111888 -0.00206632)
(0.0105816 -4.37393e-05 -0.00163826)
(0.0281084 -1.25849e-05 -0.00236016)
(0.00951187 -0.000326432 -0.00062511)
(0.028409 -0.00051052 0.000325421)
(0.00732673 -0.000274863 0.000352986)
(0.028955 -0.000411713 0.00200912)
(0.0286529 -0.000213489 -0.00353069)
(0.0117309 -0.000101368 -0.00202843)
(0.0287484 -0.000187133 -0.00393377)
(0.0105816 -4.37393e-05 -0.00163826)
(0.0281084 -1.25849e-05 -0.00236016)
(0.0281084 -1.25849e-05 -0.00236016)
(0.00255532 -2.72669e-05 -6.03102e-05)
(0.0259372 -1.86629e-06 0.000989116)
(0.00216356 -0.000140388 0.000141786)
(0.0266781 -0.000233049 0.00127847)
(0.0284556 -5.94441e-05 -0.00260809)
(0.00980209 1.18545e-05 -0.00150819)
(0.0272165 3.05821e-05 -0.00264614)
(0.00573528 1.00119e-05 -0.000653466)
(0.0261646 6.99681e-05 -0.000689427)
(0.00255532 -2.72669e-05 -6.03102e-05)
(0.0259372 -1.86629e-06 0.000989116)
(0.0259372 -1.86629e-06 0.000989116)
(0.00551653 -2.47106e-05 -4.61e-05)
(0.0272539 3.4489e-05 0.00095089)
(0.0285069 -0.000304807 -0.00186161)
(0.0104171 -6.53136e-05 -0.00119818)
(0.0275254 -0.000113985 -0.00185014)
(0.00708002 2.99048e-05 -0.000710341)
(0.0270122 1.9493e-05 -0.000716352)
(0.00554514 5.80335e-06 -0.000269823)
(0.0272526 -3.82409e-05 0.000477537)
(0.00551653 -2.47106e-05 -4.61e-05)
)
;
    }
    procBoundary2to3
    {
        type            processor;
        value           nonuniform List<vector> 
12
(
(0.0126509 0.000149284 0.000996182)
(0.0151591 0.00057792 0.00120064)
(0.0205593 0.00120638 0.00159655)
(0.0324376 0.00150887 0.00170843)
(0.00622587 1.84891e-05 0.000112178)
(0.00675407 0.000147002 0.000355491)
(0.00765327 0.000398886 0.00075732)
(0.0230057 0.00108003 0.0018448)
(0.00203115 4.19627e-05 9.34939e-06)
(0.0039557 0.000294519 0.000236432)
(0.00367408 0.000239896 0.000322571)
(0.0181323 0.000659584 0.00168304)
)
;
    }
    procBoundary2to6
    {
        type            processor;
        value           nonuniform List<vector> 
32
(
(0.0280333 0.000242873 0.000837735)
(0.00553186 8.78758e-05 1.56778e-05)
(0.0279502 0.000476577 0.000969561)
(0.031437 0.00105875 -0.000481839)
(0.0168219 0.000398998 -0.000281286)
(0.032784 0.000632217 0.00100561)
(0.0283303 0.000566186 -0.00112809)
(0.00977282 0.000400408 -0.000571751)
(0.0266896 0.000724655 -0.0010375)
(0.00556913 0.000249422 -0.000368159)
(0.026084 0.000508624 -0.000395304)
(0.00265618 0.000154312 -0.000111624)
(0.0258109 0.000280005 0.000266835)
(0.0280333 0.000242873 0.000837735)
(0.00553186 8.78758e-05 1.56778e-05)
(0.00112939 7.80629e-05 -3.68259e-05)
(0.0285894 0.00149049 -0.00097015)
(0.0105597 0.000559507 -0.000629815)
(0.0275337 0.00142746 -0.000983887)
(0.00729596 0.000389102 -0.000499816)
(0.0267954 0.000958208 -0.000446783)
(0.00449319 0.000204687 -0.000202617)
(0.00553186 8.78758e-05 1.56778e-05)
(0.031437 0.00105875 -0.000481839)
(0.0263178 0.00070693 0.000195115)
(0.0289036 0.00117834 -0.0010399)
(0.0135877 0.000697672 -0.000815172)
(0.0294696 0.0014171 -0.00122259)
(0.0142107 0.000654053 -0.00101643)
(0.0298694 0.00119226 -0.000988055)
(0.031437 0.00105875 -0.000481839)
(0.0143036 0.000557519 -0.000774748)
)
;
    }
}


// ************************************************************************* //
