/*--------------------------------*- C++ -*----------------------------------*\
| =========                 |                                                 |
| \\      /  F ield         | OpenFOAM: The Open Source CFD Toolbox           |
|  \\    /   O peration     | Version:  4.x                                   |
|   \\  /    A nd           | Web:      www.OpenFOAM.org                      |
|    \\/     M anipulation  |                                                 |
\*---------------------------------------------------------------------------*/
FoamFile
{
    version     2.0;
    format      ascii;
    class       volVectorField;
    location    "10";
    object      UsNext;
}
// * * * * * * * * * * * * * * * * * * * * * * * * * * * * * * * * * * * * * //

dimensions      [0 1 -1 0 0 0 0];

internalField   nonuniform List<vector> 
114
(
(-3.2765e-09 7.57037e-10 -1.54872e-08)
(-8.27169e-09 5.97441e-10 -3.39677e-08)
(-1.53706e-09 -1.8411e-09 -4.41649e-08)
(8.98623e-09 -1.89773e-09 -3.52833e-08)
(1.79628e-08 -1.37969e-08 5.56849e-09)
(3.65682e-08 -1.96757e-08 4.91263e-08)
(2.77145e-08 -4.18297e-09 7.87882e-09)
(2.90651e-09 2.1821e-09 1.12982e-08)
(-5.34342e-09 2.504e-09 1.8767e-09)
(-8.40726e-09 1.58468e-09 -1.3143e-08)
(-1.22159e-08 -1.79749e-09 -3.12195e-08)
(-7.95879e-09 1.23824e-09 -3.6393e-08)
(5.92598e-09 2.56155e-09 -2.58804e-08)
(2.01555e-08 -2.96615e-09 6.19547e-09)
(2.37428e-08 -1.51292e-08 4.21394e-08)
(3.08764e-09 5.19311e-10 9.35669e-09)
(3.23494e-09 -9.61678e-10 1.17485e-08)
(-7.77419e-09 1.75714e-09 6.56454e-09)
(-1.1509e-08 -2.67046e-09 -8.59545e-09)
(-1.74009e-08 3.19116e-11 -2.34179e-08)
(-1.37891e-08 2.60251e-09 -2.80993e-08)
(-4.53277e-09 2.13482e-09 -2.24313e-08)
(2.15669e-08 -1.00405e-08 4.55226e-09)
(1.54866e-08 -1.19309e-08 3.458e-08)
(9.21838e-09 -1.72997e-09 8.07655e-09)
(3.24455e-09 -6.65414e-10 9.75146e-09)
(-3.71761e-09 1.45504e-09 1.06916e-08)
(-1.73362e-08 3.66413e-09 -8.40645e-10)
(-1.56592e-08 1.176e-08 -1.3205e-08)
(-1.35172e-08 3.10862e-09 -1.32818e-08)
(-9.28014e-09 6.77246e-09 -1.95491e-08)
(-2.07096e-09 -1.94778e-09 -1.44027e-09)
(1.03803e-09 -1.15052e-08 2.34303e-08)
(-1.23962e-08 -2.85692e-09 -4.06073e-08)
(-1.52993e-08 -3.65062e-09 -3.6563e-08)
(-7.8855e-09 -1.02909e-08 6.72029e-09)
(-1.21536e-08 -1.20776e-08 3.73083e-08)
(3.03007e-09 1.29267e-09 7.7652e-09)
(5.69976e-09 2.28467e-09 1.17428e-08)
(4.63872e-09 -1.21857e-10 1.5771e-09)
(-4.29333e-12 8.15816e-10 -1.43142e-08)
(-4.37103e-09 1.71146e-09 -3.04746e-08)
(-1.32187e-08 1.09566e-09 -3.63568e-08)
(-1.31194e-08 -1.72389e-09 -2.65585e-08)
(-1.7304e-08 -7.65827e-09 4.55323e-09)
(-1.12273e-08 -1.14298e-08 3.41001e-08)
(3.88132e-09 3.92728e-10 1.08721e-08)
(4.0485e-09 4.38291e-10 1.08141e-08)
(5.123e-10 8.29668e-10 4.66634e-09)
(-3.95852e-09 1.5264e-09 -9.82912e-09)
(-6.92849e-09 4.58513e-09 -2.16949e-08)
(-1.26852e-08 3.20025e-09 -2.76534e-08)
(-1.46624e-08 1.27939e-09 -2.4684e-08)
(-1.37964e-08 -4.41608e-09 -2.45565e-09)
(-1.11587e-08 -9.00009e-09 2.18597e-08)
(2.50012e-09 -1.52169e-10 7.40564e-09)
(2.44004e-09 -3.38132e-11 7.88947e-09)
(1.22783e-09 8.54201e-11 5.04126e-09)
(-2.30851e-09 1.24704e-09 -2.09791e-09)
(-4.78004e-09 4.14947e-09 -9.32148e-09)
(-9.22894e-09 4.69491e-09 -1.54118e-08)
(-1.01643e-08 2.40181e-09 -1.72712e-08)
(-1.23747e-08 -7.74439e-10 -6.42082e-09)
(-2.10138e-08 -1.07723e-09 7.49424e-10)
(-5.29204e-08 -6.78421e-09 3.58709e-09)
(-5.55162e-08 -5.18647e-09 3.08199e-08)
(3.58177e-09 1.64099e-09 7.13736e-09)
(7.00194e-09 1.15621e-09 8.20262e-09)
(9.64747e-09 4.77128e-10 3.90567e-10)
(3.12388e-09 2.23094e-09 -1.23495e-08)
(-4.30011e-09 1.00614e-09 -2.67592e-08)
(-2.02591e-08 -8.45047e-10 -2.90703e-08)
(-3.17753e-08 -9.02323e-10 -1.94667e-08)
(-4.40476e-08 -6.38925e-09 3.55513e-09)
(-5.16667e-08 -6.18591e-09 2.275e-08)
(3.27947e-09 8.36894e-11 6.69845e-09)
(7.75201e-09 8.57859e-10 7.25844e-09)
(6.65842e-09 5.07321e-10 7.82546e-10)
(2.85144e-09 7.9849e-10 -8.84704e-09)
(-2.55974e-09 4.65291e-09 -1.90953e-08)
(-1.49104e-08 9.72453e-10 -2.17951e-08)
(-2.72524e-08 2.62554e-09 -1.94687e-08)
(-4.10791e-08 -3.33109e-09 -2.67843e-09)
(-4.83174e-08 -1.3161e-09 1.74307e-08)
(2.47193e-09 -2.51897e-10 6.14743e-09)
(3.86056e-09 2.17489e-10 6.08206e-09)
(3.589e-09 9.57299e-10 2.53035e-09)
(1.72912e-09 1.78668e-09 -4.9166e-09)
(-3.10355e-09 3.0757e-09 -8.42296e-09)
(-9.58227e-09 9.82879e-10 -1.30229e-08)
(-1.66134e-08 2.54528e-10 -1.27331e-08)
(-2.37245e-08 1.23112e-10 -6.49255e-09)
(-3.67121e-08 2.21701e-09 3.16977e-10)
(3.896e-09 2.03684e-09 4.80137e-09)
(8.68032e-09 2.24684e-09 3.60304e-09)
(1.08829e-08 1.19376e-09 -9.14107e-10)
(4.95392e-09 1.51076e-09 -7.59537e-09)
(-3.44514e-09 -2.08479e-09 -1.76895e-08)
(-2.94515e-08 -1.2394e-09 -1.4596e-08)
(-4.56147e-08 -2.65087e-09 -1.0911e-08)
(-6.63606e-08 -6.18991e-09 6.5567e-09)
(3.3205e-09 7.92168e-10 4.44478e-09)
(8.88892e-09 4.63664e-10 4.70877e-09)
(7.26294e-09 6.10366e-10 5.88219e-10)
(3.73603e-09 -1.88652e-10 -5.21583e-09)
(-4.54306e-09 1.29256e-09 -1.45102e-08)
(-2.02389e-08 -7.9024e-10 -1.67998e-08)
(-3.53506e-08 7.24519e-10 -1.37704e-08)
(2.79976e-09 -7.20731e-10 4.62619e-09)
(4.46525e-09 -3.10998e-10 4.48122e-09)
(6.17495e-09 -8.82762e-11 1.20662e-09)
(2.96045e-09 4.0443e-10 -2.40681e-09)
(-3.26931e-09 1.55867e-09 -8.54981e-09)
(-1.22821e-08 7.076e-10 -8.34002e-09)
)
;

boundaryField
{
    inlet
    {
        type            calculated;
        value           nonuniform List<vector> 
12
(
(2.77145e-08 -4.18297e-09 7.87882e-09)
(3.08764e-09 5.19311e-10 9.35669e-09)
(9.21838e-09 -1.72997e-09 8.07655e-09)
(3.03007e-09 1.29267e-09 7.7652e-09)
(3.88132e-09 3.92728e-10 1.08721e-08)
(2.50012e-09 -1.52169e-10 7.40564e-09)
(3.58177e-09 1.64099e-09 7.13736e-09)
(3.27947e-09 8.36894e-11 6.69845e-09)
(2.47193e-09 -2.51897e-10 6.14743e-09)
(3.896e-09 2.03684e-09 4.80137e-09)
(3.3205e-09 7.92168e-10 4.44478e-09)
(2.79976e-09 -7.20731e-10 4.62619e-09)
)
;
    }
    outlet
    {
        type            calculated;
        value           nonuniform 0();
    }
    wall
    {
        type            calculated;
        value           nonuniform List<vector> 
66
(
(2.77145e-08 -4.18297e-09 7.87882e-09)
(3.08764e-09 5.19311e-10 9.35669e-09)
(9.21838e-09 -1.72997e-09 8.07655e-09)
(2.90651e-09 2.1821e-09 1.12982e-08)
(3.23494e-09 -9.61678e-10 1.17485e-08)
(3.24455e-09 -6.65414e-10 9.75146e-09)
(-5.34342e-09 2.504e-09 1.8767e-09)
(-7.77419e-09 1.75714e-09 6.56454e-09)
(-3.71761e-09 1.45504e-09 1.06916e-08)
(-3.2765e-09 7.57037e-10 -1.54872e-08)
(-8.40726e-09 1.58468e-09 -1.3143e-08)
(-1.1509e-08 -2.67046e-09 -8.59545e-09)
(-1.73362e-08 3.66413e-09 -8.40645e-10)
(-8.27169e-09 5.97441e-10 -3.39677e-08)
(-1.22159e-08 -1.79749e-09 -3.12195e-08)
(-1.74009e-08 3.19116e-11 -2.34179e-08)
(-1.56592e-08 1.176e-08 -1.3205e-08)
(-1.53706e-09 -1.8411e-09 -4.41649e-08)
(-7.95879e-09 1.23824e-09 -3.6393e-08)
(-1.37891e-08 2.60251e-09 -2.80993e-08)
(-1.35172e-08 3.10862e-09 -1.32818e-08)
(8.98623e-09 -1.89773e-09 -3.52833e-08)
(5.92598e-09 2.56155e-09 -2.58804e-08)
(-4.53277e-09 2.13482e-09 -2.24313e-08)
(-9.28014e-09 6.77246e-09 -1.95491e-08)
(1.79628e-08 -1.37969e-08 5.56849e-09)
(2.01555e-08 -2.96615e-09 6.19547e-09)
(2.15669e-08 -1.00405e-08 4.55226e-09)
(-2.07096e-09 -1.94778e-09 -1.44027e-09)
(3.65682e-08 -1.96757e-08 4.91263e-08)
(2.37428e-08 -1.51292e-08 4.21394e-08)
(1.54866e-08 -1.19309e-08 3.458e-08)
(1.03803e-09 -1.15052e-08 2.34303e-08)
(9.21838e-09 -1.72997e-09 8.07655e-09)
(2.50012e-09 -1.52169e-10 7.40564e-09)
(2.47193e-09 -2.51897e-10 6.14743e-09)
(2.79976e-09 -7.20731e-10 4.62619e-09)
(3.24455e-09 -6.65414e-10 9.75146e-09)
(2.44004e-09 -3.38132e-11 7.88947e-09)
(3.86056e-09 2.17489e-10 6.08206e-09)
(4.46525e-09 -3.10998e-10 4.48122e-09)
(-3.71761e-09 1.45504e-09 1.06916e-08)
(1.22783e-09 8.54201e-11 5.04126e-09)
(3.589e-09 9.57299e-10 2.53035e-09)
(6.17495e-09 -8.82762e-11 1.20662e-09)
(-1.73362e-08 3.66413e-09 -8.40645e-10)
(-2.30851e-09 1.24704e-09 -2.09791e-09)
(1.72912e-09 1.78668e-09 -4.9166e-09)
(2.96045e-09 4.0443e-10 -2.40681e-09)
(-1.56592e-08 1.176e-08 -1.3205e-08)
(-4.78004e-09 4.14947e-09 -9.32148e-09)
(-3.10355e-09 3.0757e-09 -8.42296e-09)
(-3.26931e-09 1.55867e-09 -8.54981e-09)
(-1.35172e-08 3.10862e-09 -1.32818e-08)
(-9.22894e-09 4.69491e-09 -1.54118e-08)
(-9.58227e-09 9.82879e-10 -1.30229e-08)
(-1.22821e-08 7.076e-10 -8.34002e-09)
(-9.28014e-09 6.77246e-09 -1.95491e-08)
(-1.01643e-08 2.40181e-09 -1.72712e-08)
(-1.66134e-08 2.54528e-10 -1.27331e-08)
(-2.07096e-09 -1.94778e-09 -1.44027e-09)
(-1.23747e-08 -7.74439e-10 -6.42082e-09)
(-2.37245e-08 1.23112e-10 -6.49255e-09)
(1.03803e-09 -1.15052e-08 2.34303e-08)
(-2.10138e-08 -1.07723e-09 7.49424e-10)
(-3.67121e-08 2.21701e-09 3.16977e-10)
)
;
    }
    procBoundary2to0
    {
        type            processor;
        value           nonuniform List<vector> 
44
(
(-6.14747e-09 -4.8886e-09 -1.67558e-08)
(-1.10716e-08 -5.47562e-09 -3.62601e-08)
(-8.67288e-09 -1.00797e-08 -4.34118e-08)
(2.76409e-09 -1.00193e-08 -3.73622e-08)
(3.51629e-08 -1.53865e-08 -3.57393e-10)
(4.56768e-08 -2.08589e-08 5.77698e-08)
(6.16017e-09 1.22921e-08 7.11552e-09)
(7.70046e-09 5.18002e-09 1.09026e-08)
(-8.53912e-11 1.92059e-09 5.51957e-09)
(-8.53912e-11 1.92059e-09 5.51957e-09)
(4.21347e-09 2.52958e-10 -1.97493e-08)
(-1.10037e-09 -4.05085e-09 -3.23573e-08)
(-1.43505e-08 -5.50566e-09 -4.23654e-08)
(-1.35341e-08 -1.30773e-08 -3.54284e-08)
(-1.86051e-08 -1.21186e-08 -4.50913e-09)
(-1.48012e-08 -1.36708e-08 5.04652e-08)
(6.48379e-09 7.64618e-09 9.54452e-09)
(1.03051e-08 5.32864e-09 1.10007e-08)
(1.19551e-08 -5.80243e-10 -1.58395e-10)
(4.21347e-09 2.52958e-10 -1.97493e-08)
(-1.10037e-09 -4.05085e-09 -3.23573e-08)
(-1.10037e-09 -4.05085e-09 -3.23573e-08)
(-1.96474e-08 -3.08864e-09 -3.04245e-08)
(-4.28953e-08 -2.86541e-09 -2.07625e-08)
(-5.99978e-08 -7.08274e-09 -3.77134e-09)
(-5.99745e-08 -4.6458e-09 1.45674e-08)
(3.5942e-09 4.08726e-09 8.55605e-09)
(1.13426e-08 1.8769e-09 9.11475e-09)
(1.59416e-08 2.71986e-10 -8.97565e-10)
(7.19261e-09 -1.04287e-09 -1.19702e-08)
(-6.43951e-09 -7.84305e-10 -2.92298e-08)
(-1.96474e-08 -3.08864e-09 -3.04245e-08)
(-4.28953e-08 -2.86541e-09 -2.07625e-08)
(-4.28953e-08 -2.86541e-09 -2.07625e-08)
(-6.58766e-08 -5.77835e-09 5.35807e-10)
(-6.96958e-08 -7.38895e-09 2.38352e-08)
(4.58607e-09 3.28191e-09 6.91858e-09)
(1.12333e-08 2.40851e-09 6.85546e-09)
(1.27045e-08 2.66116e-09 3.03681e-10)
(1.14942e-09 1.36178e-09 -1.16929e-08)
(-1.31645e-08 -3.47136e-09 -2.32476e-08)
(-3.60846e-08 -4.045e-09 -2.36014e-08)
(-5.72816e-08 -4.85521e-09 -1.37005e-08)
(-6.58766e-08 -5.77835e-09 5.35807e-10)
)
;
    }
    procBoundary2to3
    {
        type            processor;
        value           nonuniform List<vector> 
12
(
(5.63647e-08 -2.32653e-09 6.56235e-08)
(4.01404e-08 -1.85473e-08 6.75609e-08)
(3.47351e-08 5.27937e-09 4.80236e-08)
(-7.16621e-10 -1.14525e-08 2.16352e-08)
(5.70952e-09 -1.02993e-08 6.41392e-08)
(-7.28786e-09 -1.39992e-08 5.89471e-08)
(3.68902e-10 -1.11323e-08 4.44202e-08)
(-1.35993e-08 -5.06961e-09 1.46054e-08)
(-5.40738e-08 -7.30897e-09 4.7348e-08)
(-5.67189e-08 -6.96499e-09 4.43845e-08)
(-5.4738e-08 -3.03338e-09 3.01967e-08)
(-4.02276e-08 6.48309e-09 1.27802e-08)
)
;
    }
    procBoundary2to6
    {
        type            processor;
        value           nonuniform List<vector> 
32
(
(-6.99462e-08 -3.5583e-09 1.7755e-08)
(-5.65395e-08 -7.56736e-09 -1.28057e-10)
(-6.67678e-08 -1.72623e-09 1.29014e-08)
(-1.7319e-08 -8.3542e-10 -6.88346e-09)
(-3.04592e-08 -3.19915e-09 -2.9642e-09)
(-2.59353e-08 -1.1453e-11 2.47479e-09)
(4.63459e-09 1.77129e-09 3.60761e-09)
(7.21505e-09 1.84372e-09 3.48866e-09)
(8.05029e-09 5.80892e-10 -2.12653e-10)
(4.45326e-09 -4.37339e-10 -5.24108e-09)
(-1.24479e-08 -8.30779e-11 -1.35462e-08)
(-4.26368e-08 -5.1648e-09 -5.75817e-09)
(-5.30146e-08 -7.43027e-09 -3.49101e-09)
(-6.99462e-08 -3.5583e-09 1.7755e-08)
(-5.65395e-08 -7.56736e-09 -1.28057e-10)
(-6.56203e-08 -7.70224e-09 5.52039e-09)
(5.71267e-09 1.47015e-09 3.33617e-09)
(7.47389e-09 4.07833e-10 3.51227e-09)
(9.18571e-09 2.21044e-10 1.14392e-09)
(2.37868e-09 3.23438e-10 -3.27716e-09)
(-6.26837e-09 2.12472e-09 -1.0404e-08)
(-2.68089e-08 -1.06242e-09 -8.47998e-09)
(-5.65395e-08 -7.56736e-09 -1.28057e-10)
(-1.7319e-08 -8.3542e-10 -6.88346e-09)
(-4.6539e-08 -3.59687e-09 -5.76387e-09)
(1.67097e-09 9.75484e-11 2.24893e-09)
(6.01947e-09 -4.58375e-10 2.32148e-09)
(3.72059e-09 7.04608e-10 1.02989e-09)
(1.19835e-09 3.56088e-10 -2.18897e-09)
(-2.17306e-09 1.3097e-09 -3.95765e-09)
(-1.7319e-08 -8.3542e-10 -6.88346e-09)
(-1.55166e-08 1.38171e-09 -5.96054e-09)
)
;
    }
}


// ************************************************************************* //
