/*--------------------------------*- C++ -*----------------------------------*\
| =========                 |                                                 |
| \\      /  F ield         | OpenFOAM: The Open Source CFD Toolbox           |
|  \\    /   O peration     | Version:  4.x                                   |
|   \\  /    A nd           | Web:      www.OpenFOAM.org                      |
|    \\/     M anipulation  |                                                 |
\*---------------------------------------------------------------------------*/
FoamFile
{
    version     2.0;
    format      ascii;
    class       volScalarField;
    location    "34.5";
    object      Cs;
}
// * * * * * * * * * * * * * * * * * * * * * * * * * * * * * * * * * * * * * //

dimensions      [1 -3 0 0 0 0 0];

internalField   nonuniform List<scalar> 
132
(
334.999
334.998
334.996
334.992
334.987
334.978
334.969
334.958
334.903
334.999
334.999
334.997
334.995
334.991
334.986
334.979
334.973
334.883
335
334.999
334.999
334.998
334.996
334.994
334.989
334.985
334.819
335
335
335
335
334.999
334.999
334.998
334.997
334.81
334.996
334.993
334.989
334.983
334.977
334.972
334.979
334.998
334.997
334.994
334.99
334.985
334.98
334.975
334.971
334.954
334.999
334.999
334.997
334.995
334.992
334.988
334.982
334.98
334.952
335
335
335
334.999
334.999
334.998
334.997
334.996
334.866
334.994
334.99
334.986
334.984
334.986
335
334.999
334.998
334.997
334.994
334.991
334.988
334.985
334.96
335
335
334.999
334.999
334.998
334.997
334.995
334.994
334.872
335
335
335
335
335
335
334.999
334.999
333.792
334.996
334.996
334.87
335
335
335
334.999
334.999
334.998
334.997
334.995
334.87
335
335
335
335
335
334.999
334.999
334.998
334.672
335
335
335
335
335
335
335
334.999
334.822
)
;

boundaryField
{
    inlet
    {
        type            calculated;
        value           nonuniform 0();
    }
    outlet
    {
        type            calculated;
        value           uniform 335;
    }
    wall
    {
        type            calculated;
        value           nonuniform List<scalar> 
66
(
335
335
335
335
335
335
335
335
335
334.999
335
335
334.999
335
335
334.998
334.999
335
334.996
334.997
334.999
335
334.996
334.995
334.998
334.999
334.87
334.87
334.672
334.822
335
335
335
335
335
335
335
335
335
335
335
335
335
334.999
335
335
334.999
334.999
335
335
334.999
334.998
335
335
334.998
334.997
334.999
335
334.997
334.996
334.999
334.999
334.81
334.866
333.792
334.822
)
;
    }
    procBoundary7to0
    {
        type            processor;
        value           uniform 335;
    }
    procBoundary7to1
    {
        type            processor;
        value           uniform 334.999;
    }
    procBoundary7to3
    {
        type            processor;
        value           nonuniform List<scalar> 
36
(
334.998
334.995
334.99
334.981
334.971
334.962
334.949
334.95
334.872
334.999
334.999
334.997
334.993
334.988
334.981
334.971
334.966
334.842
335
334.999
334.998
334.996
334.992
334.987
334.981
334.978
334.865
335
335
335
335
334.999
334.999
334.997
334.996
334.728
)
;
    }
    procBoundary7to5
    {
        type            processor;
        value           nonuniform List<scalar> 
44
(
334.998
334.997
334.993
334.989
334.982
334.975
334.966
334.865
334.999
334.998
334.997
334.994
334.991
334.986
334.982
334.979
334.974
334.999
334.998
334.998
334.998
334.996
334.996
334.994
334.99
334.989
334.983
335
334.999
334.998
334.996
334.996
334.999
334.998
334.998
334.997
334.873
335
335
335
335
334.999
334.998
334.998
)
;
    }
    procBoundary7to6
    {
        type            processor;
        value           nonuniform List<scalar> 
12
(
335
335
335
334.999
335
335
335
335
335
335
335
335
)
;
    }
}


// ************************************************************************* //
