/*--------------------------------*- C++ -*----------------------------------*\
| =========                 |                                                 |
| \\      /  F ield         | OpenFOAM: The Open Source CFD Toolbox           |
|  \\    /   O peration     | Version:  4.x                                   |
|   \\  /    A nd           | Web:      www.OpenFOAM.org                      |
|    \\/     M anipulation  |                                                 |
\*---------------------------------------------------------------------------*/
FoamFile
{
    version     2.0;
    format      ascii;
    class       volScalarField;
    location    "34.5";
    object      thCond;
}
// * * * * * * * * * * * * * * * * * * * * * * * * * * * * * * * * * * * * * //

dimensions      [1 1 -3 -1 0 0 0];

internalField   nonuniform List<scalar> 
132
(
189.899
189.865
189.93
189.794
189.449
189.384
189.496
189.731
189.556
190.067
189.762
189.858
189.865
189.634
189.701
189.581
189.664
189.578
190.444
190.045
190.034
189.966
189.76
189.603
189.593
189.676
189.643
190.455
190.26
190.014
190.165
189.915
189.822
189.71
189.922
190.183
189.736
189.559
189.483
189.409
189.263
189.319
189.46
190.121
189.669
189.638
189.574
189.385
189.426
189.458
189.375
189.557
190.179
189.765
189.772
189.758
189.5
189.328
189.275
189.437
189.483
190.183
189.896
189.924
189.795
189.652
189.662
189.552
189.565
189.934
189.52
189.483
189.351
189.443
189.558
189.83
189.671
189.604
189.663
189.38
189.452
189.37
189.272
189.438
189.991
189.784
189.683
189.654
189.45
189.42
189.341
189.429
189.481
190.244
189.967
189.827
189.761
189.726
189.738
189.493
189.603
189.899
189.594
189.58
189.674
189.997
189.908
189.615
189.595
189.684
189.817
189.552
189.555
189.736
190.125
189.984
189.871
189.781
189.645
189.652
189.516
189.621
189.68
190.24
189.952
190.01
189.928
189.764
189.72
189.656
189.807
190.197
)
;

boundaryField
{
    inlet
    {
        type            zeroGradient;
    }
    outlet
    {
        type            zeroGradient;
    }
    wall
    {
        type            zeroGradient;
    }
    procBoundary7to0
    {
        type            processor;
        value           uniform 190.695;
    }
    procBoundary7to1
    {
        type            processor;
        value           uniform 190.286;
    }
    procBoundary7to3
    {
        type            processor;
        value           nonuniform List<scalar> 
36
(
190.353
190.194
190.124
190.117
190.234
190.131
189.933
190.047
190.125
190.358
190.447
190.247
190.514
190.44
190.095
189.981
189.909
190.149
190.677
190.418
190.321
190.486
190.336
190.097
190.121
190.076
190.251
190.644
190.91
190.71
190.621
190.5
190.284
190.261
190.112
190.131
)
;
    }
    procBoundary7to5
    {
        type            processor;
        value           nonuniform List<scalar> 
44
(
190.025
190.121
189.915
189.934
189.923
189.71
189.845
189.712
189.743
189.966
189.798
189.638
189.605
189.511
189.446
189.485
189.645
189.743
189.966
189.966
189.423
189.457
189.246
189.335
189.258
189.256
189.357
189.995
189.583
189.423
189.457
189.457
189.254
189.397
189.513
189.505
189.559
189.946
189.883
189.587
189.603
189.254
189.397
189.397
)
;
    }
    procBoundary7to6
    {
        type            processor;
        value           nonuniform List<scalar> 
12
(
190.368
190.416
190.724
189.977
190.071
190.244
189.935
190.027
190.357
190.297
190.112
190.389
)
;
    }
}


// ************************************************************************* //
