/*--------------------------------*- C++ -*----------------------------------*\
| =========                 |                                                 |
| \\      /  F ield         | OpenFOAM: The Open Source CFD Toolbox           |
|  \\    /   O peration     | Version:  4.x                                   |
|   \\  /    A nd           | Web:      www.OpenFOAM.org                      |
|    \\/     M anipulation  |                                                 |
\*---------------------------------------------------------------------------*/
FoamFile
{
    version     2.0;
    format      ascii;
    class       volScalarField;
    location    "25.5";
    object      QWallFluid;
}
// * * * * * * * * * * * * * * * * * * * * * * * * * * * * * * * * * * * * * //

dimensions      [1 -1 -3 0 0 0 0];

internalField   nonuniform List<scalar> 
87
(
0
0
0
8.83179e+08
4.96942e+08
9.08557e+08
0
0
0
0
0
0
0
0
0
0
0
0
0
0
0
0
0
0
8.35792e+08
3.98528e+08
8.40431e+08
4.03155e+08
8.37994e+08
3.75136e+08
8.36539e+08
4.2427e+08
8.38648e+08
0
0
0
0
0
0
0
0
0
0
0
0
0
0
0
0
0
0
8.31654e+08
4.26975e+08
8.51393e+08
4.62439e+08
8.6343e+08
4.86968e+08
8.77416e+08
5.02253e+08
8.91714e+08
8.25705e+08
4.00452e+08
8.3078e+08
3.96585e+08
8.35103e+08
3.78729e+08
8.3463e+08
4.25915e+08
8.35484e+08
8.28993e+08
4.21178e+08
8.4255e+08
4.46227e+08
8.51886e+08
4.57384e+08
8.59933e+08
4.54398e+08
8.63454e+08
1.67479e+09
8.92893e+08
1.73175e+09
1.01191e+09
1.791e+09
1.10472e+09
1.83474e+09
1.18606e+09
1.85823e+09
)
;

boundaryField
{
    inlet
    {
        type            calculated;
        value           uniform 0;
    }
    outlet
    {
        type            calculated;
        value           nonuniform 0();
    }
    wall
    {
        type            calculated;
        value           uniform 0;
    }
    procBoundary6to0
    {
        type            processor;
        value           uniform 0;
    }
    procBoundary6to2
    {
        type            processor;
        value           nonuniform List<scalar> 
32
(
0
0
0
8.75515e+08
4.52651e+08
8.95058e+08
0
0
0
0
0
0
0
0
0
0
0
0
0
0
0
0
0
0
0
8.30936e+08
4.16542e+08
8.45393e+08
4.44538e+08
8.62111e+08
4.69886e+08
4.69886e+08
)
;
    }
    procBoundary6to4
    {
        type            processor;
        value           nonuniform List<scalar> 
27
(
0
0
0
0
0
0
0
0
0
0
0
0
0
0
0
0
0
0
8.15025e+08
3.81797e+08
8.18237e+08
3.6823e+08
8.23958e+08
3.59719e+08
8.3852e+08
3.51344e+08
8.4771e+08
)
;
    }
    procBoundary6to7
    {
        type            processor;
        value           nonuniform List<scalar> 
12
(
0
0
5.13139e+08
0
0
3.71993e+08
0
0
5.18807e+08
3.69643e+08
4.60303e+08
1.20983e+09
)
;
    }
}


// ************************************************************************* //
