/*--------------------------------*- C++ -*----------------------------------*\
| =========                 |                                                 |
| \\      /  F ield         | OpenFOAM: The Open Source CFD Toolbox           |
|  \\    /   O peration     | Version:  4.x                                   |
|   \\  /    A nd           | Web:      www.OpenFOAM.org                      |
|    \\/     M anipulation  |                                                 |
\*---------------------------------------------------------------------------*/
FoamFile
{
    version     2.0;
    format      ascii;
    class       volVectorField;
    location    "15";
    object      GField;
}
// * * * * * * * * * * * * * * * * * * * * * * * * * * * * * * * * * * * * * //

dimensions      [1 -2 -1 0 0 0 0];

internalField   nonuniform List<vector> 
114
(
(114.105 1.85142 4.56276)
(49.1306 -3.69875 0.341496)
(127.392 4.5944 9.52451)
(44.8644 -10.8264 -3.84166)
(157.247 11.684 15.4501)
(30.1198 -40.4165 -34.5659)
(19.9011 -0.667386 -0.77562)
(95.5428 0.412746 4.70238)
(24.6004 -2.50571 -3.42051)
(98.9293 1.34822 1.00391)
(27.6395 -10.1705 -8.7855)
(93.7983 8.02533 3.44373)
(29.0494 -44.3525 -26.5128)
(90.2192 -2.46356 3.71328)
(12.5816 -1.8291 -0.995703)
(92.7503 -0.79874 0.00918034)
(13.9027 -3.18999 -2.89391)
(93.9429 1.44658 -1.66312)
(9.03164 -3.32857 -3.43761)
(87.431 6.42321 1.93448)
(8.46984 -4.0818 -5.85756)
(47.8256 -3.40194 -2.29333)
(99.62 -0.978789 0.992936)
(41.838 -2.13146 -0.583136)
(100.917 2.83951 4.62641)
(35.5626 -3.04535 0.784723)
(100.542 5.12352 8.76013)
(25.9762 -4.85969 1.70592)
(86.8878 11.7223 10.1932)
(11.416 -3.5873 0.853975)
(-1.35058 -0.531033 0.397235)
(81.6142 2.85653 2.28435)
(-1.0867 -0.431723 0.306071)
(80.8426 1.41973 1.8832)
(3.83014 -1.19059 -0.603836)
(76.2676 4.86866 2.08887)
(3.88015 -1.82516 -0.796776)
(60.9631 13.724 3.96656)
(11.3226 -5.83527 -3.61678)
(-1.14447 -0.655977 0.541929)
(79.608 -0.441611 2.89185)
(5.50871 -1.31321 -0.576684)
(77.879 0.700969 0.082998)
(4.34799 -1.35016 -0.839806)
(72.5218 3.32807 0.573388)
(3.6038 -1.21312 -0.785839)
(63.7413 8.79565 0.851562)
(25.167 -4.70163 -9.40856)
(-1.1274 -0.45583 0.698506)
(75.8562 -1.54791 2.67886)
(50.4319 -2.59597 0.670643)
(104.015 -0.220598 2.17288)
(50.219 -2.79517 2.78302)
(111.582 1.63343 4.37566)
(50.6304 -5.57562 7.42203)
(125.845 4.7048 6.60129)
(48.7821 -13.9184 19.7552)
(154.502 12.5356 1.87529)
(31.2382 -46.2479 46.9477)
(16.72 -0.970288 1.02683)
(88.4312 -0.950598 2.24322)
(18.9183 -1.53723 1.12913)
(92.0515 -0.15938 -0.28211)
(22.123 -3.72714 1.92643)
(94.8739 2.46364 0.190243)
(26.0687 -11.0397 5.97243)
(92.7441 10.5697 -4.09343)
(33.3424 -49.5498 19.9112)
(18.8649 -1.81588 2.29948)
(89.2703 -2.60215 -0.557648)
(19.6809 -3.14595 2.63989)
(91.2165 -1.45047 0.864284)
(17.8357 -4.7571 3.74241)
(91.7859 0.739603 -1.95584)
(17.3772 -8.43727 6.46015)
(85.5364 6.74772 -12.108)
(19.654 -15.4162 10.1011)
(13.8188 -0.668423 1.88127)
(79.0336 -1.87508 2.43166)
(8.70129 -0.56119 1.33082)
(76.5583 -0.726483 -0.583953)
(60.0769 -1.84359 -0.882876)
(109.012 -0.547337 0.357348)
(62.5643 -2.46927 -1.77893)
(117.878 0.843458 0.275798)
(64.9378 -5.61857 -1.86366)
(137.963 4.05421 0.476121)
(64.0811 -15.438 0.734496)
(194.433 8.62461 1.2226)
(47.9754 -68.1806 0.599098)
(53.3778 -2.26149 0.479882)
(102.264 -1.47615 0.429252)
(55.3733 -3.49434 -1.00057)
(106.42 -1.07783 -0.68151)
(54.168 -6.84342 -1.81521)
(110.478 0.905166 -0.711265)
(55.1984 -18.7126 -1.12525)
(115.367 7.49405 -0.79223)
(51.3841 -76.9458 2.89559)
(47.7765 -2.83903 -0.100779)
(98.8439 -1.89014 0.969019)
(46.7532 -4.483 -1.35704)
(101.237 -1.1652 0.151949)
(46.0755 -7.21092 -2.03635)
(102.767 -0.251461 -0.291273)
(41.9971 -12.7105 -1.83547)
(100.622 4.57913 1.11634)
(29.5979 -18.2599 -0.824722)
(43.3348 -1.61377 1.51864)
(93.3513 -1.93602 2.21435)
(44.178 -2.55853 0.952077)
(92.5967 -1.71041 1.12939)
(42.1173 -4.19271 0.989854)
(88.9948 0.0868443 0.676538)
)
;

boundaryField
{
    inlet
    {
        type            calculated;
        value           nonuniform 0();
    }
    outlet
    {
        type            calculated;
        value           nonuniform List<vector> 
12
(
(66.1281 -88.7346 -75.8895)
(63.8229 -97.4446 -58.25)
(18.6729 -8.99889 -12.9138)
(25.0698 -7.87777 1.87534)
(24.9849 -12.8763 -7.98094)
(55.5895 -10.3851 -20.7819)
(68.73 -101.754 103.294)
(73.4635 -109.173 43.8706)
(43.8113 -34.3646 22.5165)
(104.322 -148.258 1.30273)
(113.149 -169.436 6.37613)
(65.5951 -40.4677 -1.82776)
)
;
    }
    wall
    {
        type            calculated;
        value           uniform (0 0 0);
    }
    procBoundary5to1
    {
        type            processor;
        value           nonuniform List<vector> 
32
(
(109.697 -0.605674 6.55117)
(49.3794 -3.29008 5.39793)
(122.746 2.25788 13.3993)
(47.9832 -9.19171 7.77111)
(159.451 8.21784 18.7777)
(32.6189 -38.4992 -2.47862)
(23.3218 -3.05299 2.12029)
(91.5531 -1.32342 6.54279)
(20.5988 -4.96632 0.680903)
(94.6394 0.33659 4.89528)
(27.3107 -13.8069 -1.73679)
(94.4105 10.4665 3.41501)
(36.6688 -59.3711 -14.2503)
(81.8463 1.16689 3.09259)
(-0.663461 -0.672126 0.529646)
(81.8903 1.74108 2.28237)
(2.73956 -0.526683 -0.115484)
(81.4761 1.41443 -2.21971)
(3.51763 -1.06941 -0.66278)
(73.1322 4.95818 -2.97739)
(12.2941 -4.81024 -3.93412)
(53.025 -2.37614 -2.73684)
(108.274 -0.167492 -0.052318)
(51.9512 -0.983377 -0.551365)
(51.9512 -0.983377 -0.551365)
(51.9512 -0.983377 -0.551365)
(16.9057 -0.797643 -1.49035)
(90.8842 -1.83104 4.96879)
(90.8842 -1.83104 4.96879)
(90.8842 -1.83104 4.96879)
(15.8235 -1.39078 -1.26202)
(15.8235 -1.39078 -1.26202)
)
;
    }
    procBoundary5to4
    {
        type            processor;
        value           nonuniform List<vector> 
12
(
(97.4224 -6.77809 -0.647097)
(85.0897 -5.31047 1.90092)
(81.5053 -1.26527 2.85433)
(78.006 2.83727 3.28005)
(100.172 -3.04344 2.36427)
(87.6238 -2.29722 7.55712)
(87.2447 -1.42782 7.07677)
(80.8124 -1.22946 8.65317)
(103.491 -2.02723 0.946021)
(98.1223 -1.72457 2.42212)
(95.6151 -0.807984 2.16119)
(91.8093 -0.558502 3.51167)
)
;
    }
    procBoundary5to7
    {
        type            processor;
        value           nonuniform List<vector> 
44
(
(85.4602 -0.529992 2.85161)
(10.1802 0.0743992 -1.68132)
(83.8416 -1.29694 2.46124)
(7.80426 -0.156516 -2.37702)
(80.4836 0.595892 1.2168)
(7.69754 0.0629042 -3.76113)
(77.593 1.24419 5.40365)
(11.1791 0.554287 -8.61907)
(15.6674 0.432433 -1.80326)
(85.4602 -0.529992 2.85161)
(-0.975002 -0.417994 0.518874)
(72.934 -0.444558 1.14618)
(3.27108 -0.0545609 -0.748785)
(70.2093 3.40655 -0.304956)
(9.3542 -0.147174 -3.45475)
(65.7796 2.89062 2.1341)
(30.2197 0.119342 -19.3901)
(-1.18643 -0.308519 0.730974)
(-0.975002 -0.417994 0.518874)
(72.8823 -2.05461 1.48786)
(-0.975002 -0.417994 0.518874)
(72.934 -0.444558 1.14618)
(4.35818 -0.46735 0.772648)
(71.7179 0.977868 -2.40702)
(1.96401 -0.349027 0.365511)
(59.6676 4.63779 -7.49492)
(11.6879 -2.4359 -0.102498)
(14.166 0.98082 0.284457)
(85.7811 1.17261 -1.36591)
(8.2335 0.839995 0.349054)
(4.35818 -0.46735 0.772648)
(86.3794 0.749661 -0.179628)
(4.35818 -0.46735 0.772648)
(71.7179 0.977868 -2.40702)
(39.1903 -8.8593 1.65294)
(80.6233 6.06466 0.333306)
(36.1492 -15.2196 1.22739)
(38.0241 0.69324 0.0492811)
(92.3989 -0.0700204 1.50415)
(33.2606 0.609612 -1.21161)
(89.6976 -0.690879 0.243753)
(27.732 0.587316 -2.07934)
(39.1903 -8.8593 1.65294)
(84.4212 -1.47775 0.474225)
)
;
    }
}


// ************************************************************************* //
