/*--------------------------------*- C++ -*----------------------------------*\
| =========                 |                                                 |
| \\      /  F ield         | OpenFOAM: The Open Source CFD Toolbox           |
|  \\    /   O peration     | Version:  4.x                                   |
|   \\  /    A nd           | Web:      www.OpenFOAM.org                      |
|    \\/     M anipulation  |                                                 |
\*---------------------------------------------------------------------------*/
FoamFile
{
    version     2.0;
    format      ascii;
    class       volScalarField;
    location    "15";
    object      p_rgh;
}
// * * * * * * * * * * * * * * * * * * * * * * * * * * * * * * * * * * * * * //

dimensions      [1 -1 -2 0 0 0 0];

internalField   nonuniform List<scalar> 
114
(
-2471.58
-1659.09
-925.429
-561.851
-146.565
-78.4577
-3562.66
-2343.64
-1565.03
-863.667
-516.45
-130.773
-60.2538
-4622
-3252.99
-2112.21
-1398.84
-748.486
-443.105
-92.1887
-57.2859
-7743.81
-5610.03
-4034.6
-2705.35
-1828.44
-1048.99
-634.905
-194.276
-62.2392
-7545.54
-5438.43
-3891.62
-2596.06
-1746.36
-994.347
-595.368
-178.346
-55.0034
-7175.45
-5119.72
-3640.38
-2406.07
-1603.42
-895.601
-528.887
-145.429
-49.0597
-6692.33
-4717.88
-8057.99
-5891.68
-4270.06
-2890.86
-1969.73
-1148.17
-708.588
-225.958
-84.114
-7905
-5755.28
-4154.69
-2801.06
-1899.54
-1101.21
-669.532
-214.228
-64.8878
-7624.92
-5506.61
-3948.78
-2638.2
-1777.03
-1013.08
-612.44
-182.509
-61.4706
-7265.03
-5190.96
-3684.61
-2432.15
-8223.87
-6046.05
-4398.57
-2994.37
-2046.81
-1204.92
-746.295
-246.46
-40.5616
-8094.96
-5926.3
-4297.02
-2914.78
-1983.8
-1161.85
-710.474
-236.699
-70.2202
-7859.29
-5712.8
-4113.69
-2765.35
-1871.66
-1080.54
-656.101
-207.882
-65.5
-7557.42
-5439.36
-3881.86
-2581.61
-1728.08
-980.762
)
;

boundaryField
{
    inlet
    {
        type            fixedFluxPressure;
        gradient        nonuniform 0();
        value           nonuniform 0();
    }
    outlet
    {
        type            fixedValue;
        value           uniform 0;
    }
    wall
    {
        type            fixedFluxPressure;
        gradient        nonuniform List<scalar> 
66
(
-0.0166699
-0.0224901
-0.00894289
-0.00167181
-0.0022668
0.00148285
-0.0123359
-0.0126163
-0.00311888
-0.00695551
-0.0203591
-0.0130362
-3.60908e-05
-0.00546326
-0.00632773
-0.00757619
-0.00105007
-0.0141621
-0.00693296
-0.00590619
-0.000921221
-2.28045e-05
-0.00443245
-0.00337965
-0.00549202
-0.000470613
-0.00325259
-0.00148475
-1.42122e-05
-0.00264828
-0.00103411
-0.000565633
-0.00120934
-0.0135396
-0.0159034
-0.0242879
-0.00419528
-0.00824024
0.00237868
-0.0183232
-0.00455261
-0.00700718
-0.00331999
-0.00191411
-0.0027254
-0.00273625
-0.0163888
-0.0090421
0.0019976
0.00120049
-0.00199859
5.49524e-05
-0.00116519
-0.00399874
-0.0016684
-0.00304598
-0.00345124
-0.00264251
-4.07034e-05
-0.00220996
-0.00122701
0.000815122
-0.00557755
-0.00721935
0.000118386
0.00109797
)
;
        value           nonuniform List<scalar> 
66
(
-8223.87
-8094.96
-7859.29
-7557.42
-6046.05
-5926.3
-5712.8
-5439.36
-4398.57
-4297.02
-4113.69
-3881.86
-2994.37
-2914.78
-2765.35
-2581.61
-2046.81
-1983.8
-1871.66
-1728.08
-1204.92
-1161.85
-1080.54
-980.762
-746.295
-710.474
-656.101
-246.46
-236.699
-207.882
-40.5616
-70.2202
-65.5
-7743.81
-8057.99
-8223.87
-5610.03
-5891.68
-6046.05
-4034.6
-4270.06
-4398.57
-2471.58
-2705.35
-2890.86
-2994.37
-1659.09
-1828.44
-1969.73
-2046.81
-925.429
-1048.99
-1148.17
-1204.92
-561.851
-634.905
-708.588
-746.295
-146.565
-194.276
-225.958
-246.46
-78.4577
-62.2393
-84.114
-40.5616
)
;
    }
    procBoundary5to1
    {
        type            processor;
        value           nonuniform List<scalar> 
32
(
-2236.32
-1484.31
-805.38
-479.566
-106.325
-70.4639
-3225.98
-2088.89
-1378.38
-735.367
-432.214
-88.2734
-55.1664
-4093.76
-2845.68
-1813.29
-1183.53
-605.317
-347.222
-47.9559
-47.7115
-7340.36
-5250.7
-3736.67
-3736.67
-3736.67
-7073.86
-5029.5
-5029.5
-5029.5
-6578.61
-6578.61
)
;
    }
    procBoundary5to4
    {
        type            processor;
        value           nonuniform List<scalar> 
12
(
-10267
-10058.3
-9657.98
-9122.52
-10582.7
-10424.8
-10131.5
-9751.34
-10744.5
-10617.3
-10377
-10072.9
)
;
    }
    procBoundary5to7
    {
        type            processor;
        value           nonuniform List<scalar> 
44
(
-4092.16
-2849.84
-1819.72
-1186.9
-607.172
-347.557
-47.9201
-46.9486
-5916.35
-4092.16
-3319.31
-2163.02
-1424.61
-772.871
-446.826
-104.595
-43.0607
-6182.19
-3319.31
-4299.03
-3319.31
-2163.02
-1619.31
-905.765
-533.941
-147.402
-47.9021
-6887.95
-4864.76
-3421.14
-1619.31
-2227.03
-1619.31
-905.765
-584
-174.567
-51.303
-7249.42
-5164
-3650.24
-2394.26
-1587.5
-584
-878.621
)
;
    }
}


// ************************************************************************* //
