/*--------------------------------*- C++ -*----------------------------------*\
| =========                 |                                                 |
| \\      /  F ield         | OpenFOAM: The Open Source CFD Toolbox           |
|  \\    /   O peration     | Version:  4.x                                   |
|   \\  /    A nd           | Web:      www.OpenFOAM.org                      |
|    \\/     M anipulation  |                                                 |
\*---------------------------------------------------------------------------*/
FoamFile
{
    version     2.0;
    format      ascii;
    class       volVectorField;
    location    "15";
    object      Urel;
}
// * * * * * * * * * * * * * * * * * * * * * * * * * * * * * * * * * * * * * //

dimensions      [0 1 -1 0 0 0 0];

internalField   nonuniform List<vector> 
114
(
(-0.0232454 0.00033135 -0.000644382)
(-0.0219138 0.000547445 -0.000610898)
(-0.0236183 0.000607546 -0.000714366)
(-0.0216471 0.00134262 -0.0002503)
(-0.0233855 0.00162701 -5.42131e-05)
(-0.0193338 0.00383622 0.00154633)
(-0.019863 0.000288333 -0.000296483)
(-0.0215975 0.000296195 -0.000369877)
(-0.0200391 0.000465557 -0.000216043)
(-0.0216657 0.000531035 -0.000174885)
(-0.0197208 0.0011345 0.000236105)
(-0.0208232 0.00134871 0.000455936)
(-0.0181344 0.00339338 0.00154997)
(-0.0202161 0.000174507 -0.000309683)
(-0.0184827 0.000203267 -0.000177649)
(-0.0203138 0.000199866 -0.000100514)
(-0.0185367 0.000315816 5.80583e-05)
(-0.0201297 0.000308022 0.000218574)
(-0.0179669 0.000588204 0.000478119)
(-0.0191125 0.000638304 0.000728941)
(-0.0166848 0.00144683 0.00138171)
(-0.0209697 0.000415372 -0.000102419)
(-0.0223354 0.0003302 -0.000288672)
(-0.0211501 0.000341474 -0.000367873)
(-0.022673 0.000308754 -0.000532556)
(-0.0212794 0.000516284 -0.000531771)
(-0.0227911 0.000526107 -0.000664431)
(-0.0207702 0.00119417 -0.000470412)
(-0.0217674 0.00141932 -0.000409659)
(-0.0185459 0.00291276 1.09753e-05)
(-0.0190638 0.000317331 -0.000144305)
(-0.0208357 0.00023192 -0.000254619)
(-0.0191752 0.000272444 -0.000253387)
(-0.0210268 0.000256589 -0.000268382)
(-0.0192833 0.000417271 -0.000225884)
(-0.020935 0.000437507 -0.000205909)
(-0.0189276 0.000957417 -4.64247e-05)
(-0.0198596 0.001129 6.5903e-05)
(-0.0175413 0.00250784 0.00041703)
(-0.0180573 0.000203538 -0.000165008)
(-0.0198468 0.000182007 -0.000220357)
(-0.018146 0.000222331 -0.000146186)
(-0.0198832 0.000210385 -7.62537e-05)
(-0.0180514 0.00031276 4.74163e-06)
(-0.0195818 0.000311323 0.000126229)
(-0.01759 0.000592567 0.000275829)
(-0.0186178 0.000635853 0.000500972)
(-0.0167435 0.00141036 0.000867067)
(-0.0175455 2.17679e-05 -0.000136752)
(-0.019284 4.56078e-05 -0.000155319)
(-0.0214117 0.000420659 -0.000204131)
(-0.0228285 0.000360138 -0.000298985)
(-0.0218017 0.000417962 -0.00035224)
(-0.0234292 0.000403575 -0.000448926)
(-0.0222433 0.000675475 -0.000549703)
(-0.0240272 0.000734579 -0.000627372)
(-0.022231 0.00163123 -0.000871502)
(-0.0239696 0.00196423 -0.000700991)
(-0.0199735 0.00448139 -0.0015753)
(-0.0199547 0.000348726 -0.000225313)
(-0.0215745 0.000324881 -0.000255627)
(-0.0202035 0.000372813 -0.000231252)
(-0.021927 0.000390389 -0.000211476)
(-0.0204394 0.000597237 -0.000233394)
(-0.0220953 0.000676606 -0.000184417)
(-0.0202614 0.00139606 -0.000294453)
(-0.0213949 0.00167382 -0.000137911)
(-0.0187969 0.00397248 -0.000677062)
(-0.0190784 0.000272185 -0.000237871)
(-0.0206717 0.00028615 -0.000186417)
(-0.0191645 0.000343794 -0.000167254)
(-0.0207754 0.000370147 -7.52018e-05)
(-0.0190583 0.000507392 -5.91484e-05)
(-0.0205826 0.000529538 0.000117983)
(-0.0185577 0.00095473 6.74976e-05)
(-0.0196163 0.000986495 0.000411885)
(-0.0173026 0.00215253 6.69105e-05)
(-0.0184276 0.000108222 -0.000198096)
(-0.0199612 0.000148944 -0.00016009)
(-0.0182997 0.000160377 -9.60317e-05)
(-0.0198162 0.000174895 1.84426e-05)
(-0.0221709 0.000418073 -0.000175336)
(-0.0235448 0.000388457 -0.000217107)
(-0.0227535 0.000458969 -0.000205013)
(-0.0243275 0.000475999 -0.000263206)
(-0.0233983 0.000780894 -0.000268675)
(-0.0252437 0.000913586 -0.000361177)
(-0.0237419 0.0019784 -0.000463744)
(-0.0260514 0.00258223 -0.000497386)
(-0.0215091 0.00579813 -0.000751169)
(-0.0213469 0.000389423 -0.000205215)
(-0.0226816 0.000382178 -0.000199487)
(-0.0217437 0.000462904 -0.000156822)
(-0.0231598 0.000490658 -0.000145219)
(-0.0220477 0.000772136 -0.000110847)
(-0.0234739 0.000906635 -0.000121491)
(-0.0219335 0.0018353 -0.000148348)
(-0.0230392 0.00226288 -0.000150593)
(-0.0201804 0.00526018 -0.000411038)
(-0.0205294 0.000330968 -0.000199069)
(-0.0218163 0.000347096 -0.000177707)
(-0.0206999 0.00044286 -0.000105686)
(-0.0220053 0.000456244 -7.23659e-05)
(-0.0206605 0.000687305 1.94076e-05)
(-0.0218561 0.000736741 7.34924e-05)
(-0.0200563 0.00130669 0.000120645)
(-0.020851 0.00139323 0.000180739)
(-0.0182705 0.00275762 9.54263e-05)
(-0.0199489 0.000170672 -0.00019835)
(-0.021152 0.000208882 -0.000166954)
(-0.0199328 0.000261988 -9.91656e-05)
(-0.0210623 0.00028606 -4.83174e-05)
(-0.0196192 0.000393802 6.35786e-05)
(-0.0205474 0.000402983 0.000186595)
)
;

boundaryField
{
    inlet
    {
        type            calculated;
        value           nonuniform 0();
    }
    outlet
    {
        type            calculated;
        value           nonuniform List<vector> 
12
(
(-0.0105295 0.0141541 0.0121017)
(-0.0104893 0.0160718 0.00930936)
(-0.00454052 0.00256275 0.0030759)
(-0.00440147 0.00135975 0.000286123)
(-0.00372902 0.00189773 0.00130081)
(-0.00787488 0.00153382 0.00279244)
(-0.010294 0.014967 -0.0145404)
(-0.0109509 0.0159774 -0.00611584)
(-0.00677267 0.00530907 -0.00317394)
(-0.0155602 0.021899 -9.10055e-05)
(-0.0169283 0.0249301 -0.000949603)
(-0.00992029 0.00607385 0.000271028)
)
;
    }
    wall
    {
        type            calculated;
        value           nonuniform List<vector> 
66
(
(-4.87064e-06 1.12464e-06 1.81682e-07)
(-9.84256e-06 1.57994e-06 -3.65443e-07)
(-1.05073e-05 2.33459e-06 -1.42302e-06)
(-3.65765e-06 6.99219e-07 3.73084e-07)
(-5.77182e-06 3.88606e-07 1.89333e-07)
(-9.31487e-06 5.85587e-07 -2.55192e-07)
(-9.53484e-06 -6.52622e-07 1.78238e-07)
(-4.45721e-06 -3.84042e-07 1.94192e-07)
(-3.97801e-06 4.1171e-06 -4.45004e-08)
(-1.27665e-05 2.8557e-06 2.2913e-06)
(-8.07121e-06 -4.56827e-07 8.08112e-09)
(-7.23033e-06 -7.14564e-06 -4.74218e-07)
(-3.9996e-06 -7.48131e-07 2.74869e-07)
(-1.66937e-05 -3.95105e-06 3.25293e-07)
(-8.31755e-06 -1.44296e-06 -1.75924e-07)
(-4.16544e-06 -1.63867e-06 -5.05457e-07)
(-3.67191e-06 8.92961e-08 -1.41877e-07)
(-4.136e-06 6.48381e-09 1.66878e-07)
(-4.41302e-06 -1.46023e-06 4.54685e-08)
(-3.80217e-06 -1.53686e-06 1.48351e-07)
(-1.90423e-06 6.43555e-07 2.38874e-06)
(-2.43074e-06 6.27089e-07 2.50394e-06)
(-2.9674e-06 -6.60136e-07 -5.37112e-07)
(-2.80741e-06 -4.71787e-07 -2.47438e-07)
(-1.54684e-06 1.34933e-07 -5.49645e-08)
(-2.19845e-06 2.50867e-07 -1.25493e-07)
(-2.13705e-06 7.49448e-09 -4.45413e-07)
(-1.2529e-06 1.30464e-07 -3.83069e-07)
(-1.1618e-06 1.19509e-07 -2.95389e-07)
(-1.35074e-06 5.06126e-08 -2.6336e-07)
(-3.86305e-07 1.11337e-07 -2.42454e-07)
(-4.61354e-07 9.52748e-08 -1.70149e-07)
(-6.53633e-07 3.44523e-08 -1.23378e-07)
(-9.36025e-06 2.12395e-06 1.3735e-06)
(-8.05152e-06 8.11899e-07 8.02229e-07)
(-4.87064e-06 1.12464e-06 1.81682e-07)
(-8.3219e-06 -9.04348e-08 4.48095e-07)
(-7.44495e-06 -3.69069e-07 6.02786e-07)
(-5.77182e-06 3.88606e-07 1.89333e-07)
(-8.66341e-06 2.6876e-07 3.12742e-07)
(-6.83309e-06 -1.60908e-07 8.08025e-07)
(-3.97801e-06 4.1171e-06 -4.45004e-08)
(-9.99135e-06 -2.42415e-07 1.26582e-06)
(-7.22378e-06 1.50265e-07 7.09396e-07)
(-5.921e-06 -2.75577e-07 4.21355e-07)
(-3.9996e-06 -7.48131e-07 2.74869e-07)
(-7.11392e-06 -5.74427e-07 1.04804e-06)
(-5.09792e-06 -3.46104e-07 -1.1598e-06)
(-5.28047e-06 -2.87833e-07 -3.35494e-07)
(-3.67191e-06 8.92961e-08 -1.41877e-07)
(-6.21159e-06 7.79185e-07 7.27696e-07)
(-3.45399e-06 9.48036e-08 3.74689e-07)
(-3.13078e-06 5.42435e-07 8.37582e-07)
(-1.90423e-06 6.43555e-07 2.38874e-06)
(-3.27781e-06 5.69848e-08 1.17087e-07)
(-2.40103e-06 -5.17107e-08 -1.1525e-07)
(-2.42975e-06 3.93528e-07 -1.24013e-07)
(-1.54684e-06 1.34933e-07 -5.49645e-08)
(-2.09857e-06 1.31454e-07 6.02502e-08)
(-1.59061e-06 8.92581e-08 -1.03445e-07)
(-1.49397e-06 1.56975e-07 -3.07077e-07)
(-1.2529e-06 1.30464e-07 -3.83069e-07)
(-8.08725e-07 9.09866e-08 -1.06108e-07)
(-9.12144e-07 3.36872e-07 -5.22433e-09)
(-5.65402e-07 1.83278e-07 -2.04804e-08)
(-3.86305e-07 1.11337e-07 -2.42454e-07)
)
;
    }
    procBoundary5to1
    {
        type            processor;
        value           nonuniform List<vector> 
32
(
(-0.0239699 0.000466887 -0.000853045)
(-0.0226887 0.000667252 -0.000879728)
(-0.0242783 0.00078843 -0.000963694)
(-0.0223925 0.00150668 -0.000555215)
(-0.0240968 0.00191747 -9.61371e-05)
(-0.0199082 0.00417076 0.00132447)
(-0.0206258 0.000360448 -0.000466585)
(-0.0221895 0.000355772 -0.000589477)
(-0.0205932 0.000552589 -0.00044793)
(-0.0221824 0.000623912 -0.000355147)
(-0.0202546 0.00127186 6.17549e-05)
(-0.0213664 0.00153449 0.0004823)
(-0.0186329 0.00380532 0.00147881)
(-0.020632 8.91456e-05 -0.000337318)
(-0.018629 0.000156269 -0.00033834)
(-0.0206017 0.000134402 -0.000383792)
(-0.0186717 0.000268009 -0.000135053)
(-0.0204244 0.000308401 0.000156856)
(-0.0182632 0.000560602 0.000441196)
(-0.0193467 0.000679145 0.000892444)
(-0.016886 0.00138709 0.00147715)
(-0.0214321 0.000369924 -2.51847e-05)
(-0.0228233 0.000311892 -0.000320563)
(-0.0216938 0.000318469 -0.000438996)
(-0.0216938 0.000318469 -0.000438996)
(-0.0216938 0.000318469 -0.000438996)
(-0.0197284 0.000335647 -3.56695e-05)
(-0.0213358 0.000287974 -0.000326337)
(-0.0213358 0.000287974 -0.000326337)
(-0.0213358 0.000287974 -0.000326337)
(-0.018514 0.000213591 -9.90029e-05)
(-0.018514 0.000213591 -9.90029e-05)
)
;
    }
    procBoundary5to4
    {
        type            processor;
        value           nonuniform List<vector> 
12
(
(-0.0221024 0.000529536 -8.33181e-06)
(-0.0208614 0.000420463 -9.06583e-05)
(-0.0199649 0.000212916 -0.000153015)
(-0.0193867 -0.000106993 -0.000139535)
(-0.0224235 0.000467591 -0.000192337)
(-0.021366 0.000384935 -0.000297875)
(-0.0205851 0.000248964 -0.000317439)
(-0.0200073 7.20515e-05 -0.000290509)
(-0.0229613 0.000431792 -0.000175576)
(-0.0222487 0.000379284 -0.000238319)
(-0.0215449 0.000277253 -0.000248158)
(-0.0210449 0.000121016 -0.000241589)
)
;
    }
    procBoundary5to7
    {
        type            processor;
        value           nonuniform List<vector> 
44
(
(-0.0197544 2.60637e-05 -0.000195908)
(-0.0180468 3.70255e-05 -0.000106315)
(-0.0197474 5.5129e-05 -4.5923e-05)
(-0.0179733 5.76031e-05 0.000141579)
(-0.0194687 4.27318e-05 0.000278426)
(-0.0174897 6.18765e-05 0.000667669)
(-0.0185129 6.12351e-05 0.000903581)
(-0.0163647 8.71596e-05 0.00177034)
(-0.0180834 2.10714e-05 -8.86466e-05)
(-0.0197544 2.60637e-05 -0.000195908)
(-0.0175089 7.67189e-05 -8.63323e-05)
(-0.0192238 8.97796e-05 2.04083e-05)
(-0.0173637 0.000104834 0.000120004)
(-0.0188892 9.15546e-05 0.000281642)
(-0.0169902 0.000163329 0.000510169)
(-0.0180223 0.000152666 0.000701671)
(-0.0163548 0.000313474 0.00136154)
(-0.017618 -7.65902e-05 -9.4014e-05)
(-0.0175089 7.67189e-05 -8.63323e-05)
(-0.0194538 -2.40435e-05 -0.000110354)
(-0.0175089 7.67189e-05 -8.63323e-05)
(-0.0192238 8.97796e-05 2.04083e-05)
(-0.0178961 0.000217717 8.66184e-05)
(-0.0193434 0.000232717 0.000294191)
(-0.0172335 0.000353818 0.000363663)
(-0.0182571 0.000340969 0.000666764)
(-0.0163862 0.000672632 0.000675341)
(-0.0185917 -5.72665e-05 -6.47449e-05)
(-0.0201522 -2.78611e-05 -2.34167e-05)
(-0.0184843 -3.0308e-05 -1.99873e-05)
(-0.0178961 0.000217717 8.66184e-05)
(-0.0200887 -4.488e-05 8.08012e-05)
(-0.0178961 0.000217717 8.66184e-05)
(-0.0193434 0.000232717 0.000294191)
(-0.018769 0.000668693 0.000280447)
(-0.0192986 0.000550634 0.000471707)
(-0.0173225 0.00122075 0.00048311)
(-0.0198745 -2.32835e-05 -0.000104319)
(-0.0210955 8.14602e-06 -8.68366e-05)
(-0.0197121 1.45356e-05 8.67444e-06)
(-0.0209243 3.61162e-05 7.67426e-05)
(-0.0192899 3.12612e-05 0.000220472)
(-0.018769 0.000668693 0.000280447)
(-0.0203462 5.54012e-05 0.000337194)
)
;
    }
}


// ************************************************************************* //
