/*--------------------------------*- C++ -*----------------------------------*\
| =========                 |                                                 |
| \\      /  F ield         | OpenFOAM: The Open Source CFD Toolbox           |
|  \\    /   O peration     | Version:  4.x                                   |
|   \\  /    A nd           | Web:      www.OpenFOAM.org                      |
|    \\/     M anipulation  |                                                 |
\*---------------------------------------------------------------------------*/
FoamFile
{
    version     2.0;
    format      ascii;
    class       volScalarField;
    location    "50";
    object      QPartFluidCoeff;
}
// * * * * * * * * * * * * * * * * * * * * * * * * * * * * * * * * * * * * * //

dimensions      [1 -1 -3 -1 0 0 0];

internalField   nonuniform List<scalar> 
87
(
-1.4324e+07
-2.3528e+07
-1.39913e+07
-2.18544e+07
-1.4569e+07
-1.62731e+07
-1.74808e+07
-2.19603e+07
-1.32729e+07
-1.5112e+07
-1.47746e+07
-1.94832e+07
-1.91676e+07
-1.4668e+07
-2.22505e+07
-2.5526e+07
-2.24806e+07
-1.34191e+07
-1.31605e+07
-2.36577e+07
-2.07596e+07
-2.98744e+07
-2.10041e+07
-1.94225e+07
-1.92466e+07
-2.10361e+07
-1.43653e+07
-2.47557e+07
-2.19748e+07
-2.04647e+07
-2.52669e+07
-2.12013e+07
-2.61242e+07
-3.0175e+07
-2.97773e+07
-1.77982e+07
-3.00598e+07
-2.24031e+07
-2.522e+07
-3.14273e+07
-3.06852e+07
-2.57645e+07
-3.13941e+07
-3.5262e+07
-1.57584e+07
-2.63743e+07
-2.82817e+07
-2.39531e+07
-2.26922e+07
-1.93364e+07
-3.10714e+07
-3.15567e+07
-4.40243e+07
-1.49345e+07
-2.37315e+07
-2.33621e+07
-2.74163e+07
-3.20683e+07
-2.03159e+07
-3.22372e+07
-2.53013e+07
-2.47582e+07
-1.06452e+07
-2.16041e+07
-2.95373e+07
-2.1668e+07
-2.70316e+07
-2.73222e+07
-3.0321e+07
-2.54894e+07
-3.15583e+07
-1.2379e+07
-3.14838e+07
-2.62339e+07
-1.82318e+07
-3.71283e+07
-2.95651e+07
-3.57168e+07
-2.50224e+07
-3.23396e+07
-1.12897e+07
-2.15593e+07
-1.84429e+07
-2.53078e+07
-2.61963e+07
-4.06698e+07
-1.96688e+07
)
;

boundaryField
{
    inlet
    {
        type            calculated;
        value           nonuniform 0();
    }
    outlet
    {
        type            calculated;
        value           uniform 0;
    }
    wall
    {
        type            calculated;
        value           uniform 0;
    }
    procBoundary1to0
    {
        type            processor;
        value           nonuniform List<scalar> 
12
(
152.493
396.321
642.914
548.703
677.877
479.588
409.46
766.494
407.597
456.406
523.667
705.46
)
;
    }
    procBoundary1to3
    {
        type            processor;
        value           nonuniform List<scalar> 
27
(
641.943
291.554
509.258
244.733
379.626
287.554
426.987
401.452
221.207
647.34
612.238
778.015
806.939
646.838
606.529
521.19
654.111
584.435
625.068
834.54
702.912
786.197
502.934
595.935
696.759
642.31
531.327
)
;
    }
    procBoundary1to5
    {
        type            processor;
        value           nonuniform List<scalar> 
32
(
593.94
547.608
531.5
432.292
596.497
443.002
549.621
533.34
447.132
625.823
644.334
767.148
495.975
752.722
464.952
659.07
445.328
402.237
564.596
473.241
502.405
502.776
430.931
593.94
549.621
572.824
613.224
549.621
752.722
623.008
752.722
643.657
)
;
    }
    procBoundary1to7
    {
        type            processor;
        value           uniform 767.245;
    }
}


// ************************************************************************* //
