/*--------------------------------*- C++ -*----------------------------------*\
| =========                 |                                                 |
| \\      /  F ield         | OpenFOAM: The Open Source CFD Toolbox           |
|  \\    /   O peration     | Version:  4.x                                   |
|   \\  /    A nd           | Web:      www.OpenFOAM.org                      |
|    \\/     M anipulation  |                                                 |
\*---------------------------------------------------------------------------*/
FoamFile
{
    version     2.0;
    format      ascii;
    class       volScalarField;
    location    "50";
    object      Qsource;
}
// * * * * * * * * * * * * * * * * * * * * * * * * * * * * * * * * * * * * * //

dimensions      [1 -1 -3 0 0 0 0];

internalField   nonuniform List<scalar> 
87
(
5.90908e+09
9.30917e+09
5.83541e+09
8.91754e+09
5.99125e+09
7.44468e+09
6.73353e+09
9.62005e+09
5.05262e+09
5.25077e+09
5.51395e+09
6.57149e+09
6.88202e+09
5.10817e+09
7.88878e+09
8.29142e+09
8.11986e+09
4.56657e+09
4.56136e+09
8.09229e+09
6.82954e+09
9.98245e+09
6.87764e+09
6.9055e+09
6.31446e+09
7.53623e+09
4.81604e+09
7.97785e+09
7.55338e+09
6.68706e+09
8.56035e+09
6.87766e+09
8.84048e+09
9.4886e+09
9.96259e+09
5.63952e+09
9.01795e+09
6.72092e+09
7.566e+09
9.42818e+09
9.20556e+09
7.72936e+09
9.41824e+09
1.05786e+10
4.72751e+09
7.91228e+09
8.48451e+09
7.18592e+09
6.80767e+09
5.80093e+09
9.32142e+09
9.46701e+09
1.32073e+10
4.48036e+09
7.63507e+09
7.95122e+09
8.72129e+09
1.05856e+10
6.55051e+09
1.06689e+10
7.98336e+09
8.464e+09
3.56002e+09
6.48123e+09
8.86119e+09
6.50041e+09
8.10949e+09
8.19665e+09
9.0963e+09
7.64683e+09
9.46749e+09
3.71369e+09
9.44514e+09
7.87017e+09
5.46953e+09
1.11385e+10
8.86954e+09
1.0715e+10
7.50671e+09
9.70187e+09
3.3869e+09
6.8556e+09
6.37482e+09
7.87642e+09
7.85888e+09
1.22009e+10
5.90064e+09
)
;

boundaryField
{
    inlet
    {
        type            calculated;
        value           nonuniform 0();
    }
    outlet
    {
        type            calculated;
        value           uniform 0;
    }
    wall
    {
        type            calculated;
        value           uniform 0;
    }
    procBoundary1to0
    {
        type            processor;
        value           nonuniform List<scalar> 
12
(
4.19943e+09
6.28066e+09
9.47664e+09
8.19891e+09
8.96831e+09
6.34495e+09
6.33685e+09
1.01407e+10
5.39251e+09
6.89885e+09
6.92811e+09
9.33323e+09
)
;
    }
    procBoundary1to3
    {
        type            processor;
        value           nonuniform List<scalar> 
27
(
9.15305e+09
4.90347e+09
7.413e+09
4.33796e+09
5.68303e+09
4.96788e+09
6.22567e+09
6.56118e+09
3.41788e+09
8.56431e+09
8.09991e+09
1.02931e+10
1.06758e+10
8.55767e+09
8.02437e+09
6.89535e+09
8.65389e+09
7.73207e+09
8.26965e+09
1.1041e+10
9.29952e+09
1.04014e+10
6.65382e+09
7.88422e+09
9.21813e+09
8.49776e+09
7.02945e+09
)
;
    }
    procBoundary1to5
    {
        type            processor;
        value           nonuniform List<scalar> 
32
(
8.64829e+09
7.36515e+09
7.73109e+09
5.71923e+09
8.42126e+09
5.93911e+09
7.27149e+09
7.05609e+09
5.91555e+09
8.27964e+09
8.52454e+09
1.01494e+10
6.56175e+09
9.95851e+09
6.15131e+09
8.7195e+09
5.89169e+09
5.3216e+09
7.46961e+09
6.26098e+09
6.64682e+09
7.10571e+09
6.59823e+09
8.64829e+09
7.27149e+09
8.01992e+09
8.11296e+09
7.27149e+09
9.95851e+09
8.24239e+09
9.95851e+09
8.51558e+09
)
;
    }
    procBoundary1to7
    {
        type            processor;
        value           uniform 1.01506e+10;
    }
}


// ************************************************************************* //
