/*--------------------------------*- C++ -*----------------------------------*\
| =========                 |                                                 |
| \\      /  F ield         | OpenFOAM: The Open Source CFD Toolbox           |
|  \\    /   O peration     | Version:  4.x                                   |
|   \\  /    A nd           | Web:      www.OpenFOAM.org                      |
|    \\/     M anipulation  |                                                 |
\*---------------------------------------------------------------------------*/
FoamFile
{
    version     2.0;
    format      ascii;
    class       volVectorField;
    location    "50";
    object      UsNext;
}
// * * * * * * * * * * * * * * * * * * * * * * * * * * * * * * * * * * * * * //

dimensions      [0 1 -1 0 0 0 0];

internalField   nonuniform List<vector> 
87
(
(9.53612e-09 7.07599e-09 2.52718e-08)
(-4.08504e-08 1.03892e-06 1.01401e-07)
(-1.17045e-08 1.14743e-09 1.63586e-08)
(-6.43859e-09 -6.20745e-10 1.68874e-09)
(-2.55021e-09 2.12522e-10 1.09783e-10)
(-2.31495e-10 -1.0667e-09 -7.72028e-10)
(2.58196e-09 -1.59552e-09 -1.68877e-09)
(1.85575e-07 2.86785e-09 -1.19245e-08)
(9.56901e-08 -6.93614e-09 -1.85739e-08)
(3.22925e-09 -5.02344e-09 1.12024e-08)
(1.72015e-09 -8.43453e-09 2.14378e-08)
(-1.24206e-08 -7.07989e-09 7.67647e-09)
(-2.56825e-09 -2.0722e-09 7.63613e-10)
(4.14511e-10 -3.3263e-09 1.18473e-10)
(8.61899e-10 -2.1478e-10 -1.31694e-09)
(1.22838e-09 -1.37493e-09 -2.72001e-09)
(2.23954e-12 -4.33111e-09 -3.82223e-09)
(-2.77506e-09 -1.22634e-08 -8.45775e-09)
(3.67326e-09 -6.2513e-09 4.50672e-09)
(1.84904e-09 -9.42896e-09 7.30677e-09)
(2.21766e-09 -5.70818e-09 4.00111e-09)
(4.55384e-10 -1.47298e-09 1.04283e-09)
(7.71914e-10 -1.22191e-09 -1.39305e-10)
(1.52074e-09 -3.22871e-10 -5.87877e-10)
(2.23094e-09 -4.0296e-10 -1.256e-09)
(1.72313e-09 -2.5903e-09 -3.42077e-09)
(3.13534e-09 -2.23002e-10 -1.32548e-09)
(-5.75926e-09 4.81106e-09 1.71982e-08)
(4.98613e-10 3.04246e-09 3.97111e-08)
(2.59324e-09 1.71435e-09 1.46687e-08)
(2.08956e-09 -1.17206e-09 9.89779e-10)
(4.30616e-10 1.50107e-10 5.38929e-10)
(3.14288e-10 -1.01798e-10 -4.93669e-10)
(1.11575e-09 -4.11773e-10 -1.2717e-09)
(9.32068e-10 -1.29055e-09 -3.06628e-09)
(1.91155e-11 -2.63812e-09 -5.99887e-09)
(-3.2901e-09 8.35863e-10 1.19698e-08)
(-1.33961e-09 -2.96885e-09 1.96162e-08)
(3.10032e-09 1.47176e-09 1.00288e-08)
(4.81141e-10 -1.75155e-09 1.41764e-09)
(4.53855e-10 -9.019e-10 -7.69216e-11)
(7.01143e-10 -3.12878e-10 -1.07771e-09)
(1.3313e-09 -8.25353e-10 -2.12932e-09)
(1.46349e-09 -1.34104e-09 -2.80045e-09)
(3.8266e-09 -3.13047e-09 -5.71791e-09)
(1.37979e-09 -1.22089e-09 3.77959e-09)
(2.12885e-09 -1.57037e-09 6.58142e-09)
(2.28447e-09 -1.1511e-09 3.36463e-09)
(9.06737e-10 -1.58257e-09 1.37977e-09)
(1.22775e-09 -1.23709e-09 -3.867e-10)
(1.5223e-09 -6.31513e-10 -9.01581e-10)
(2.33051e-09 -3.13229e-10 -1.92249e-09)
(2.77048e-09 -6.22036e-10 -1.31473e-09)
(1.04597e-09 -1.729e-09 -2.70028e-09)
(-1.17446e-09 2.22961e-10 3.34075e-09)
(1.08288e-10 1.66409e-09 4.93845e-09)
(1.88614e-10 1.45889e-09 6.6606e-09)
(1.65309e-09 -3.00476e-10 1.18137e-09)
(1.0079e-09 -6.94183e-11 4.14819e-10)
(4.96017e-10 -1.13962e-10 -4.26955e-10)
(3.50353e-10 2.33238e-11 -5.85309e-10)
(-4.76104e-10 -1.26365e-10 -8.83685e-10)
(1.42918e-10 -2.81441e-10 -2.32114e-09)
(-1.16592e-09 1.07137e-09 4.81758e-09)
(1.6524e-09 6.45143e-10 6.37093e-09)
(2.24001e-09 5.80206e-10 7.50868e-09)
(1.24649e-09 -5.46917e-10 2.06284e-09)
(1.25617e-09 -2.1416e-10 2.23817e-10)
(8.66646e-10 2.51533e-10 -7.05503e-10)
(8.6371e-10 6.52131e-12 -1.26614e-09)
(6.79742e-10 -4.72284e-10 -1.72549e-09)
(7.10464e-11 -5.56143e-10 -9.52858e-10)
(1.11062e-09 7.78554e-10 3.14203e-09)
(2.09555e-09 1.28663e-09 4.21713e-09)
(2.61837e-09 1.46362e-09 4.84603e-09)
(2.31398e-09 2.32496e-10 1.63064e-09)
(1.83716e-09 -1.59559e-10 -1.80967e-11)
(1.68192e-09 -5.32093e-11 -7.66713e-10)
(1.52874e-09 -3.74493e-11 -1.30136e-09)
(1.23844e-09 1.35299e-11 -1.2048e-09)
(7.8618e-10 -8.13848e-10 -5.66292e-10)
(-1.10675e-10 2.87912e-10 2.06079e-09)
(7.39796e-10 8.98999e-10 6.58262e-10)
(8.59942e-10 6.21911e-10 1.57116e-09)
(-1.34308e-10 7.16635e-10 2.23374e-09)
(1.36174e-09 1.14352e-09 3.66148e-09)
(8.98722e-10 6.50758e-10 1.84891e-09)
)
;

boundaryField
{
    inlet
    {
        type            calculated;
        value           nonuniform 0();
    }
    outlet
    {
        type            calculated;
        value           nonuniform List<vector> 9((9.56901e-08 -6.93614e-09 -1.85739e-08) (-2.77506e-09 -1.22634e-08 -8.45775e-09) (3.13534e-09 -2.23002e-10 -1.32548e-09) (1.91155e-11 -2.63812e-09 -5.99887e-09) (3.8266e-09 -3.13047e-09 -5.71791e-09) (1.04597e-09 -1.729e-09 -2.70028e-09) (1.42918e-10 -2.81441e-10 -2.32114e-09) (7.10464e-11 -5.56143e-10 -9.52858e-10) (7.8618e-10 -8.13848e-10 -5.66292e-10));
    }
    wall
    {
        type            calculated;
        value           nonuniform List<vector> 
57
(
(9.53612e-09 7.07599e-09 2.52718e-08)
(3.22925e-09 -5.02344e-09 1.12024e-08)
(3.67326e-09 -6.2513e-09 4.50672e-09)
(-4.08504e-08 1.03892e-06 1.01401e-07)
(1.72015e-09 -8.43453e-09 2.14378e-08)
(1.84904e-09 -9.42896e-09 7.30677e-09)
(-1.17045e-08 1.14743e-09 1.63586e-08)
(-1.24206e-08 -7.07989e-09 7.67647e-09)
(2.21766e-09 -5.70818e-09 4.00111e-09)
(-6.43859e-09 -6.20745e-10 1.68874e-09)
(-2.56825e-09 -2.0722e-09 7.63613e-10)
(4.55384e-10 -1.47298e-09 1.04283e-09)
(-2.55021e-09 2.12522e-10 1.09783e-10)
(4.14511e-10 -3.3263e-09 1.18473e-10)
(7.71914e-10 -1.22191e-09 -1.39305e-10)
(-2.31495e-10 -1.0667e-09 -7.72028e-10)
(8.61899e-10 -2.1478e-10 -1.31694e-09)
(1.52074e-09 -3.22871e-10 -5.87877e-10)
(2.58196e-09 -1.59552e-09 -1.68877e-09)
(1.22838e-09 -1.37493e-09 -2.72001e-09)
(2.23094e-09 -4.0296e-10 -1.256e-09)
(1.85575e-07 2.86785e-09 -1.19245e-08)
(2.23954e-12 -4.33111e-09 -3.82223e-09)
(1.72313e-09 -2.5903e-09 -3.42077e-09)
(9.56901e-08 -6.93614e-09 -1.85739e-08)
(-2.77506e-09 -1.22634e-08 -8.45775e-09)
(3.13534e-09 -2.23002e-10 -1.32548e-09)
(9.53612e-09 7.07599e-09 2.52718e-08)
(-5.75926e-09 4.81106e-09 1.71982e-08)
(-1.17446e-09 2.22961e-10 3.34075e-09)
(-1.10675e-10 2.87912e-10 2.06079e-09)
(-4.08504e-08 1.03892e-06 1.01401e-07)
(4.98613e-10 3.04246e-09 3.97111e-08)
(1.08288e-10 1.66409e-09 4.93845e-09)
(7.39796e-10 8.98999e-10 6.58262e-10)
(-1.17045e-08 1.14743e-09 1.63586e-08)
(2.59324e-09 1.71435e-09 1.46687e-08)
(1.88614e-10 1.45889e-09 6.6606e-09)
(8.59942e-10 6.21911e-10 1.57116e-09)
(-6.43859e-09 -6.20745e-10 1.68874e-09)
(2.08956e-09 -1.17206e-09 9.89779e-10)
(1.65309e-09 -3.00476e-10 1.18137e-09)
(-2.55021e-09 2.12522e-10 1.09783e-10)
(4.30616e-10 1.50107e-10 5.38929e-10)
(1.0079e-09 -6.94183e-11 4.14819e-10)
(-2.31495e-10 -1.0667e-09 -7.72028e-10)
(3.14288e-10 -1.01798e-10 -4.93669e-10)
(4.96017e-10 -1.13962e-10 -4.26955e-10)
(2.58196e-09 -1.59552e-09 -1.68877e-09)
(1.11575e-09 -4.11773e-10 -1.2717e-09)
(3.50353e-10 2.33238e-11 -5.85309e-10)
(1.85575e-07 2.86785e-09 -1.19245e-08)
(9.32068e-10 -1.29055e-09 -3.06628e-09)
(-4.76104e-10 -1.26365e-10 -8.83685e-10)
(9.56901e-08 -6.93614e-09 -1.85739e-08)
(1.91155e-11 -2.63812e-09 -5.99887e-09)
(1.42918e-10 -2.81441e-10 -2.32114e-09)
)
;
    }
    procBoundary1to0
    {
        type            processor;
        value           nonuniform List<vector> 
12
(
(-3.13553e-10 1.06742e-10 4.00394e-10)
(2.6851e-09 -2.16589e-09 3.73929e-09)
(1.85504e-09 -1.82653e-09 2.12258e-09)
(-1.76697e-09 -1.26888e-09 3.09957e-09)
(-8.07413e-10 5.28921e-10 4.53044e-09)
(9.18251e-10 -1.53373e-10 2.72445e-09)
(-1.71929e-09 -5.89475e-10 4.01543e-09)
(-2.24421e-09 1.99649e-09 4.53386e-09)
(-6.34879e-10 2.05833e-09 3.01985e-09)
(-3.55672e-10 -1.85387e-10 2.7375e-09)
(-6.56169e-10 6.48581e-10 1.81601e-09)
(1.32161e-11 1.0869e-09 2.00779e-09)
)
;
    }
    procBoundary1to3
    {
        type            processor;
        value           nonuniform List<vector> 
27
(
(2.13058e-09 -3.43133e-09 1.47987e-09)
(2.81954e-09 -5.1047e-09 1.82612e-09)
(4.03361e-09 -8.28188e-09 1.90785e-10)
(2.17302e-09 -2.43686e-09 -8.95976e-11)
(1.4475e-09 -1.05261e-09 -6.79486e-10)
(2.13633e-09 -3.5357e-10 -7.79227e-10)
(1.5059e-09 -3.785e-10 -4.33947e-10)
(-3.30789e-09 1.47598e-10 7.32896e-11)
(-1.14306e-08 -5.9596e-10 5.91209e-10)
(2.1571e-09 -2.11102e-09 1.2314e-09)
(2.32639e-09 -9.95478e-10 1.20452e-09)
(2.12944e-09 -1.37181e-09 7.87929e-10)
(2.09545e-09 -7.3844e-10 8.18999e-11)
(2.16498e-09 -6.76181e-10 -6.66266e-10)
(2.086e-09 -4.16766e-10 -1.07773e-09)
(1.71407e-09 -2.14128e-10 -1.43379e-09)
(9.79436e-10 3.58802e-10 -1.02664e-10)
(-1.15469e-09 -6.26725e-10 2.91079e-10)
(2.02811e-09 -1.99003e-10 1.12981e-09)
(2.26248e-09 4.77639e-11 1.426e-09)
(2.19459e-09 1.04984e-09 1.91659e-09)
(2.4017e-09 -2.47096e-10 4.01914e-10)
(2.29311e-09 -4.18364e-10 -4.09514e-10)
(2.06773e-09 -5.85786e-11 -1.18702e-09)
(1.69653e-09 -7.97373e-11 -1.43475e-09)
(1.23816e-09 1.11964e-11 -9.85055e-10)
(8.91402e-10 -1.28786e-10 -4.18797e-10)
)
;
    }
    procBoundary1to5
    {
        type            processor;
        value           nonuniform List<vector> 
32
(
(1.44709e-09 -1.70262e-10 1.172e-09)
(1.0001e-09 -1.49755e-10 2.22707e-10)
(9.18331e-10 -1.06001e-10 -2.7104e-10)
(3.92572e-10 3.85449e-12 -4.57643e-10)
(4.39567e-10 -9.99244e-11 -5.44443e-10)
(-1.17929e-09 3.61025e-11 -6.16813e-10)
(2.79859e-09 9.54698e-10 4.45488e-09)
(2.45405e-09 7.81196e-11 1.79973e-09)
(1.90612e-09 -1.33235e-10 2.82489e-10)
(1.30907e-09 6.51844e-11 -3.9493e-10)
(9.01809e-10 2.45128e-10 -9.52391e-10)
(5.22159e-10 1.53293e-10 -1.03222e-09)
(1.97035e-10 1.61914e-10 -7.79371e-10)
(1.98104e-09 6.67589e-10 2.69392e-09)
(2.67178e-09 1.06017e-09 2.3922e-09)
(2.8822e-09 6.03363e-10 1.10552e-09)
(2.23113e-09 2.90389e-10 2.25294e-10)
(1.68122e-09 1.975e-10 -3.7291e-10)
(1.10967e-09 3.33426e-10 -7.69673e-10)
(7.74093e-10 1.78076e-10 -1.08254e-09)
(2.2836e-10 -8.54123e-11 -4.46703e-10)
(8.77172e-11 3.03783e-10 4.34606e-10)
(7.94297e-10 3.8427e-10 6.53298e-10)
(1.44709e-09 -1.70262e-10 1.172e-09)
(2.79859e-09 9.54698e-10 4.45488e-09)
(1.04821e-09 6.47249e-11 9.22994e-10)
(1.19246e-09 6.11857e-10 8.66066e-10)
(2.79859e-09 9.54698e-10 4.45488e-09)
(1.98104e-09 6.67589e-10 2.69392e-09)
(2.4813e-09 9.06861e-10 8.74212e-10)
(1.98104e-09 6.67589e-10 2.69392e-09)
(1.27976e-09 6.14463e-10 1.32423e-09)
)
;
    }
    procBoundary1to7
    {
        type            processor;
        value           uniform (2.02541e-09 3.87845e-10 1.23172e-09);
    }
}


// ************************************************************************* //
