/*--------------------------------*- C++ -*----------------------------------*\
| =========                 |                                                 |
| \\      /  F ield         | OpenFOAM: The Open Source CFD Toolbox           |
|  \\    /   O peration     | Version:  4.x                                   |
|   \\  /    A nd           | Web:      www.OpenFOAM.org                      |
|    \\/     M anipulation  |                                                 |
\*---------------------------------------------------------------------------*/
FoamFile
{
    version     2.0;
    format      ascii;
    class       volScalarField;
    location    "40";
    object      pSmooth;
}
// * * * * * * * * * * * * * * * * * * * * * * * * * * * * * * * * * * * * * //

dimensions      [1 -1 -2 0 0 0 0];

internalField   nonuniform List<scalar> 
114
(
74.0931
94.9231
55.7956
87.9458
37.0876
81.2068
108.808
91.8125
102.091
74.2645
95.1975
56.1633
88.2774
37.7003
81.5167
108.463
91.6517
101.79
74.0323
94.8932
55.9232
87.9825
37.3575
81.2083
108.147
91.5296
101.532
73.9808
94.6754
56.0184
87.8386
37.6646
81.1226
55.9924
88.5674
37.0743
81.6302
109.7
92.3964
102.964
74.5788
95.9404
56.3697
88.8927
37.6931
81.9491
109.337
92.1344
102.543
74.2189
95.4774
55.9633
88.4103
37.2693
81.5199
108.867
91.9244
102.128
74.1489
95.1363
56.0518
88.1711
37.5645
81.3939
37.5878
81.5646
110.428
92.7613
103.527
75.081
96.2694
57.0394
88.9687
38.6306
81.803
110.109
92.6808
103.283
74.8043
96.0362
56.6359
88.8757
38.119
81.7756
109.6
92.3721
102.716
74.621
95.5635
56.681
88.4569
38.1811
81.5752
111.199
93.3959
104.103
75.3882
96.716
57.2448
89.3028
39.0365
110.699
93.033
103.593
75.0145
96.2018
56.7048
88.8007
110.121
92.752
103.107
74.8778
95.8214
56.6668
)
;

boundaryField
{
    inlet
    {
        type            zeroGradient;
    }
    outlet
    {
        type            fixedValue;
        value           nonuniform 0();
    }
    wall
    {
        type            zeroGradient;
    }
    procBoundary2to0
    {
        type            processor;
        value           nonuniform List<scalar> 
44
(
74.1773
95.0408
56.0525
88.1171
37.7331
81.409
108.519
91.6773
101.919
101.919
74.4537
95.8037
56.3743
88.8913
37.8365
82.0361
109.595
92.1512
102.816
74.4537
95.8037
95.8037
56.3115
88.6856
37.8366
81.6054
110.441
92.7101
103.481
74.7925
96.1148
56.3115
88.6856
88.6856
38.8673
81.8529
111.159
93.4458
104.18
75.4085
96.6727
57.2552
89.0844
38.8673
)
;
    }
    procBoundary2to3
    {
        type            processor;
        value           nonuniform List<scalar> 
12
(
18.0436
19.2272
18.3907
18.894
17.9781
19.2495
18.2497
18.8276
18.9405
20.5798
19.451
19.5436
)
;
    }
    procBoundary2to6
    {
        type            processor;
        value           nonuniform List<scalar> 
32
(
82.0017
38.0576
81.628
88.5722
38.2783
81.5882
111.724
93.5116
104.435
75.9603
96.7897
57.9006
89.0268
82.0017
38.0576
40.0123
111.194
93.3498
104.071
75.555
96.643
57.3148
38.0576
88.5722
89.2198
110.554
93.0403
103.48
75.4181
96.1939
88.5722
57.2039
)
;
    }
}


// ************************************************************************* //
