/*--------------------------------*- C++ -*----------------------------------*\
| =========                 |                                                 |
| \\      /  F ield         | OpenFOAM: The Open Source CFD Toolbox           |
|  \\    /   O peration     | Version:  4.x                                   |
|   \\  /    A nd           | Web:      www.OpenFOAM.org                      |
|    \\/     M anipulation  |                                                 |
\*---------------------------------------------------------------------------*/
FoamFile
{
    version     2.0;
    format      ascii;
    class       volVectorField;
    location    "40";
    object      Urel;
}
// * * * * * * * * * * * * * * * * * * * * * * * * * * * * * * * * * * * * * //

dimensions      [0 1 -1 0 0 0 0];

internalField   nonuniform List<vector> 
114
(
(-0.0218812 9.69277e-05 0.00107918)
(-0.0232836 9.40428e-05 0.0010409)
(-0.0222915 8.37551e-05 0.000870613)
(-0.0237044 8.44568e-05 0.000796662)
(-0.0226914 6.41788e-05 0.000636853)
(-0.0240985 5.87095e-05 0.000567666)
(-0.0236605 -0.000121915 0.00128633)
(-0.0218188 -0.00011482 0.00118993)
(-0.0229976 -0.000130172 0.00119812)
(-0.0218299 -0.000117772 0.00104754)
(-0.0232437 -0.000109904 0.00100058)
(-0.0222042 -7.27125e-05 0.000838038)
(-0.0236416 -5.26193e-05 0.000766693)
(-0.0225619 -1.87071e-05 0.000609709)
(-0.0239934 -1.37747e-05 0.000540313)
(-0.0237849 -0.000363402 0.00125426)
(-0.0220397 -0.000321893 0.0011629)
(-0.0232939 -0.000349169 0.00116544)
(-0.0222806 -0.000306392 0.00102251)
(-0.0237466 -0.000307572 0.000968992)
(-0.0228829 -0.00023683 0.000816183)
(-0.0243444 -0.0002165 0.00074303)
(-0.0234514 -0.000140438 0.00060143)
(-0.0248908 -0.000127018 0.000534126)
(-0.0239146 -0.000406876 0.00121657)
(-0.0223101 -0.000370981 0.00113699)
(-0.0236361 -0.000381146 0.00113198)
(-0.0228336 -0.000336804 0.00100857)
(-0.0243541 -0.000321983 0.000950795)
(-0.0237273 -0.000247791 0.00081485)
(-0.0252055 -0.000208686 0.000737265)
(-0.0245583 -0.000115603 0.000609665)
(-0.0259536 -7.35863e-05 0.000544798)
(-0.0205452 6.30186e-05 0.000801881)
(-0.0220924 6.00136e-05 0.000732421)
(-0.0204891 4.44735e-05 0.000574295)
(-0.0221709 3.13665e-05 0.000499419)
(-0.0234216 -0.000160459 0.00134095)
(-0.0213518 -0.000137737 0.00120325)
(-0.022383 -0.000158071 0.00122483)
(-0.0207791 -0.000138247 0.00103013)
(-0.0221588 -0.000144342 0.000987119)
(-0.0206155 -9.46987e-05 0.000800623)
(-0.0221695 -7.99667e-05 0.000729831)
(-0.0205377 -4.10443e-05 0.0005769)
(-0.0222216 -3.65001e-05 0.000498246)
(-0.0235657 -0.000403433 0.00131542)
(-0.0216074 -0.00035273 0.00119105)
(-0.0227152 -0.000389933 0.0012149)
(-0.0213041 -0.000325924 0.00103555)
(-0.0227259 -0.000339845 0.00099573)
(-0.0214178 -0.00025025 0.00082364)
(-0.0229476 -0.000242789 0.000762854)
(-0.0215784 -0.000148775 0.000619608)
(-0.0231945 -0.000138255 0.000553935)
(-0.0237192 -0.000448788 0.00128175)
(-0.0219436 -0.00040527 0.00117512)
(-0.0231318 -0.00042297 0.00118944)
(-0.0220276 -0.000362341 0.00104473)
(-0.0234603 -0.000352923 0.000996539)
(-0.0225096 -0.00026653 0.000857134)
(-0.0239578 -0.000234601 0.000780954)
(-0.0229852 -0.0001347 0.000662493)
(-0.0244218 -9.26836e-05 0.000595583)
(-0.0188398 6.44573e-05 0.000474718)
(-0.0206015 6.35209e-05 0.000393731)
(-0.023154 -0.000190549 0.00119867)
(-0.0209316 -0.000159762 0.00106659)
(-0.0217903 -0.000173819 0.00106575)
(-0.0198994 -0.000139367 0.000882173)
(-0.0211847 -0.000134492 0.000828227)
(-0.0193329 -8.6212e-05 0.000661582)
(-0.0208881 -5.70289e-05 0.000587536)
(-0.0189541 -3.4871e-05 0.000465005)
(-0.0207083 -1.06868e-05 0.000384679)
(-0.0233217 -0.000436524 0.00116864)
(-0.0212123 -0.000376652 0.00105053)
(-0.0221618 -0.00041236 0.00105232)
(-0.0204594 -0.000334659 0.000894667)
(-0.0217835 -0.000342833 0.000843446)
(-0.0201498 -0.000246859 0.00069322)
(-0.0216711 -0.000232652 0.000622052)
(-0.0199597 -0.000146248 0.000513056)
(-0.021651 -0.000116144 0.00044248)
(-0.0234998 -0.000486213 0.0011458)
(-0.0215821 -0.00043951 0.00104781)
(-0.0226228 -0.000462494 0.00105319)
(-0.0212627 -0.000389438 0.00092746)
(-0.022576 -0.000380594 0.000874833)
(-0.0213605 -0.000284757 0.00074793)
(-0.0227357 -0.000260045 0.000673252)
(-0.0214973 -0.000161264 0.000591677)
(-0.0229177 -0.000114038 0.000523925)
(-0.022974 -0.000222968 0.00090951)
(-0.020648 -0.000197237 0.000796692)
(-0.0214235 -0.000224243 0.000787922)
(-0.0193531 -0.000170238 0.000650769)
(-0.0205966 -0.000177456 0.0005997)
(-0.018589 -0.000117401 0.000475148)
(-0.0201366 -0.000103138 0.000405454)
(-0.0181111 -5.82196e-05 0.000329806)
(-0.0231628 -0.000486068 0.000884764)
(-0.0209955 -0.000416769 0.000791839)
(-0.0218515 -0.000451929 0.000786674)
(-0.0200464 -0.000355903 0.000678435)
(-0.0212849 -0.000366572 0.000636018)
(-0.0195704 -0.000266452 0.00052623)
(-0.021027 -0.000254677 0.000470741)
(-0.0233667 -0.000523593 0.000870721)
(-0.0214034 -0.000465969 0.00079969)
(-0.022348 -0.00047947 0.000802579)
(-0.0208784 -0.000398189 0.000722441)
(-0.0220944 -0.000383356 0.000681916)
(-0.0207604 -0.000292829 0.000583285)
)
;

boundaryField
{
    inlet
    {
        type            calculated;
        value           nonuniform List<vector> 
12
(
(-0.01 -1.71301e-09 2.34948e-11)
(-0.01 -1.54426e-10 1.94755e-10)
(-0.01 -1.98339e-10 2.06116e-10)
(-0.01 -1.56348e-10 1.7408e-10)
(-0.01 -7.35969e-11 1.64922e-10)
(-0.01 -7.52309e-11 8.7703e-11)
(-0.01 -2.23014e-10 2.32754e-10)
(-0.01 -3.86434e-11 1.15276e-10)
(-0.01 -1.40056e-10 1.0875e-10)
(-0.01 -8.28679e-11 1.28279e-10)
(-0.01 3.47676e-11 3.30147e-11)
(-0.01 -1.35147e-10 8.03297e-11)
)
;
    }
    outlet
    {
        type            calculated;
        value           nonuniform 0();
    }
    wall
    {
        type            calculated;
        value           nonuniform List<vector> 
66
(
(4.35099e-09 -1.71301e-09 2.34948e-11)
(2.42846e-10 -1.54426e-10 1.94755e-10)
(6.36256e-10 -1.98339e-10 2.06116e-10)
(3.81052e-10 -2.70539e-10 5.76668e-10)
(1.33268e-10 -1.43732e-10 3.4103e-10)
(-1.94057e-10 -2.76033e-10 2.24723e-10)
(6.1393e-10 -4.37715e-10 8.99044e-10)
(4.96494e-10 -2.10645e-10 8.61264e-10)
(3.49821e-10 -2.13804e-10 7.59887e-10)
(6.70786e-10 -2.72526e-10 1.18153e-09)
(3.87761e-10 -6.69647e-10 1.19641e-09)
(3.41012e-10 -2.90131e-10 9.16275e-10)
(-2.55732e-11 -8.78335e-10 5.12764e-10)
(1.15357e-09 -3.75897e-10 1.39888e-09)
(2.17384e-10 -9.60488e-10 1.2421e-09)
(4.30575e-10 -3.50397e-10 1.02517e-09)
(5.02453e-10 -1.09433e-09 4.74906e-10)
(5.44727e-10 -1.03742e-09 2.23711e-09)
(-3.93499e-12 -1.45788e-09 1.74055e-09)
(1.07469e-10 -1.11365e-09 1.14478e-09)
(1.10211e-10 -5.28606e-10 3.11297e-10)
(9.94458e-10 -1.39843e-09 2.63289e-09)
(-2.54448e-10 -2.65184e-09 2.23771e-09)
(-7.28941e-11 -1.34843e-09 1.67695e-09)
(4.76147e-11 -1.12415e-09 8.3447e-10)
(1.24591e-09 -2.2382e-09 3.2324e-09)
(-1.18571e-09 -3.90747e-09 2.1496e-09)
(-6.94246e-10 -1.37603e-09 1.82277e-09)
(7.37927e-11 -2.00612e-09 1.28487e-09)
(1.37057e-09 -2.7603e-09 3.2544e-09)
(-6.55932e-10 -2.33302e-09 2.7116e-09)
(-1.35387e-11 -1.63282e-09 2.13162e-09)
(5.35627e-11 -1.2434e-09 1.38269e-09)
(6.36256e-10 -1.98339e-10 2.06116e-10)
(7.25636e-11 -7.52309e-11 8.7703e-11)
(8.21547e-11 -1.40056e-10 1.0875e-10)
(2.3472e-11 -1.35147e-10 8.03297e-11)
(-1.94057e-10 -2.76033e-10 2.24723e-10)
(1.06565e-10 -1.64776e-10 1.24422e-10)
(-2.54804e-11 -1.25803e-10 1.97912e-10)
(-2.23103e-11 -1.43346e-10 1.46384e-10)
(3.49821e-10 -2.13804e-10 7.59887e-10)
(2.76215e-10 -2.41268e-10 2.22217e-10)
(3.20668e-11 -2.03553e-10 2.08132e-10)
(1.42632e-10 -9.57777e-11 2.63256e-10)
(-2.55732e-11 -8.78335e-10 5.12764e-10)
(2.53325e-10 -2.28904e-10 3.65222e-10)
(-1.19705e-10 -3.16703e-10 4.27595e-10)
(1.2094e-10 -2.18074e-10 2.28641e-10)
(5.02453e-10 -1.09433e-09 4.74906e-10)
(3.04222e-10 -3.94119e-10 2.87588e-10)
(3.03385e-10 -2.3942e-10 4.69842e-10)
(5.46817e-10 -1.97653e-10 4.35916e-10)
(1.10211e-10 -5.28606e-10 3.11297e-10)
(6.5738e-11 -4.63195e-10 4.58326e-10)
(1.67706e-10 -2.54946e-10 5.21666e-10)
(2.73e-10 -2.37349e-10 3.74057e-10)
(4.76147e-11 -1.12415e-09 8.3447e-10)
(1.32177e-11 -6.30848e-10 5.76786e-10)
(1.86339e-10 -2.01041e-10 6.72627e-10)
(7.37927e-11 -2.00612e-09 1.28487e-09)
(-1.9174e-10 -4.87613e-10 6.93823e-10)
(-6.44044e-11 -3.13646e-10 8.4593e-10)
(5.35627e-11 -1.2434e-09 1.38269e-09)
(-1.84593e-10 -5.87126e-10 6.24088e-10)
(1.77246e-10 -5.47161e-10 9.86487e-10)
)
;
    }
    procBoundary2to0
    {
        type            processor;
        value           nonuniform List<vector> 
44
(
(-0.0220542 0.000282219 0.00109239)
(-0.0234914 0.000262615 0.00105432)
(-0.0225456 0.000207597 0.000894926)
(-0.023973 0.000193598 0.000834014)
(-0.0229857 0.000142957 0.000681774)
(-0.0243747 0.000120868 0.000628197)
(-0.0236589 0.000142739 0.00133381)
(-0.0218327 0.00011684 0.00121806)
(-0.0230129 0.000117458 0.00122754)
(-0.0230129 0.000117458 0.00122754)
(-0.0207277 8.00504e-05 0.00104554)
(-0.0220926 7.27582e-05 0.0010046)
(-0.020829 0.00019951 0.000804485)
(-0.0223739 0.000180305 0.000732375)
(-0.020789 0.000124091 0.000581097)
(-0.0224542 9.99281e-05 0.000507363)
(-0.0233847 0.000121555 0.00138532)
(-0.021306 0.000105208 0.00123107)
(-0.0223282 0.000104051 0.00125416)
(-0.0207277 8.00504e-05 0.00104554)
(-0.0220926 7.27582e-05 0.0010046)
(-0.0220926 7.27582e-05 0.0010046)
(-0.0191476 7.61938e-05 0.00066709)
(-0.0207499 8.63327e-05 0.000597273)
(-0.0192731 0.000137023 0.000500861)
(-0.0209878 0.000115119 0.000405798)
(-0.0230974 0.000120324 0.00121824)
(-0.0208327 0.000104027 0.00108882)
(-0.0216904 0.000106644 0.00109515)
(-0.019735 8.52978e-05 0.000891978)
(-0.0210498 8.83481e-05 0.000840043)
(-0.0191476 7.61938e-05 0.00066709)
(-0.0207499 8.63327e-05 0.000597273)
(-0.0207499 8.63327e-05 0.000597273)
(-0.0178195 4.0767e-05 0.000314081)
(-0.0196196 3.87896e-05 0.000252776)
(-0.0229199 0.000111131 0.00089911)
(-0.0205602 8.74212e-05 0.000803118)
(-0.0213067 7.61536e-05 0.000788185)
(-0.0191499 6.16743e-05 0.000645031)
(-0.0204044 4.93994e-05 0.000598709)
(-0.0183019 4.85491e-05 0.000466794)
(-0.0199085 4.8926e-05 0.000417082)
(-0.0178195 4.0767e-05 0.000314081)
)
;
    }
    procBoundary2to3
    {
        type            processor;
        value           nonuniform List<vector> 
12
(
(-0.0230142 5.09873e-05 0.00045247)
(-0.0228354 1.05411e-05 0.000421439)
(-0.0239339 -8.10397e-05 0.000420453)
(-0.0252403 2.22073e-05 0.000446372)
(-0.0204873 2.05929e-05 0.000404721)
(-0.0205112 -1.48548e-05 0.000396859)
(-0.0217534 -7.3258e-05 0.000460182)
(-0.0233929 9.23012e-06 0.000521211)
(-0.0186644 4.0196e-05 0.00032823)
(-0.0187384 -7.77413e-06 0.000307894)
(-0.0198704 -5.84466e-05 0.000383079)
(-0.0216355 -2.76395e-05 0.000490718)
)
;
    }
    procBoundary2to6
    {
        type            processor;
        value           nonuniform List<vector> 
32
(
(-0.0198734 -4.15492e-05 0.000264847)
(-0.0192997 -0.000163988 0.00040624)
(-0.0209136 -0.000127398 0.00035494)
(-0.0220686 -0.000256361 0.000528168)
(-0.0207416 -0.000155444 0.000487262)
(-0.0221018 -9.75326e-05 0.000442168)
(-0.0229197 -0.00021733 0.00048705)
(-0.0205689 -0.000193562 0.000434193)
(-0.0212966 -0.000202904 0.000410047)
(-0.0191691 -0.000154086 0.000350775)
(-0.0204129 -0.000143397 0.000309631)
(-0.0183194 -9.57819e-05 0.000254759)
(-0.019894 -6.60568e-05 0.000221306)
(-0.0198734 -4.15492e-05 0.000264847)
(-0.0192997 -0.000163988 0.00040624)
(-0.0178446 -3.29645e-05 0.000183273)
(-0.0231232 -0.00050377 0.000482174)
(-0.0209203 -0.000419418 0.000445207)
(-0.0217465 -0.000448924 0.000426492)
(-0.0198621 -0.00034485 0.000385795)
(-0.0210986 -0.000337024 0.000349127)
(-0.0192497 -0.000243676 0.000306562)
(-0.0192997 -0.000163988 0.00040624)
(-0.0220686 -0.000256361 0.000528168)
(-0.0207221 -0.000208718 0.000277501)
(-0.0233399 -0.000540375 0.000493495)
(-0.0213616 -0.000475625 0.000464624)
(-0.0222682 -0.000487852 0.000456695)
(-0.0207548 -0.000396736 0.000429246)
(-0.0219243 -0.000378209 0.000397217)
(-0.0220686 -0.000256361 0.000528168)
(-0.0204898 -0.000290548 0.000363483)
)
;
    }
}


// ************************************************************************* //
