/*--------------------------------*- C++ -*----------------------------------*\
| =========                 |                                                 |
| \\      /  F ield         | OpenFOAM: The Open Source CFD Toolbox           |
|  \\    /   O peration     | Version:  4.x                                   |
|   \\  /    A nd           | Web:      www.OpenFOAM.org                      |
|    \\/     M anipulation  |                                                 |
\*---------------------------------------------------------------------------*/
FoamFile
{
    version     2.0;
    format      ascii;
    class       volVectorField;
    location    "40";
    object      UsPrev;
}
// * * * * * * * * * * * * * * * * * * * * * * * * * * * * * * * * * * * * * //

dimensions      [0 1 -1 0 0 0 0];

internalField   nonuniform List<vector> 
114
(
(3.24866e-09 -2.13331e-10 2.21774e-10)
(5.67436e-09 -3.78332e-10 1.23631e-09)
(5.36972e-09 -1.56129e-09 3.30653e-09)
(6.65841e-09 -1.80511e-09 6.13823e-09)
(4.89612e-09 -2.34319e-09 1.01039e-08)
(4.70356e-09 -2.8328e-09 1.16022e-08)
(9.67995e-09 -3.93376e-09 -5.26052e-10)
(1.64774e-09 -7.09572e-10 -4.25581e-10)
(3.19059e-09 -8.49007e-10 -4.8285e-10)
(3.66567e-09 -8.12705e-10 -1.49999e-10)
(4.9341e-09 -1.43828e-09 5.07104e-10)
(5.52608e-09 -2.54406e-09 2.12368e-09)
(6.48676e-09 -4.61995e-09 5.32877e-09)
(3.50667e-09 -5.04802e-09 7.2815e-09)
(2.85183e-09 -3.84397e-09 1.04811e-08)
(9.01575e-10 -4.57442e-10 -2.76371e-10)
(6.8677e-10 -1.18053e-10 -6.9722e-10)
(2.68205e-09 -3.27929e-10 -5.18439e-10)
(3.7783e-09 -6.41648e-10 -1.20068e-10)
(4.8008e-09 -6.38447e-10 2.45349e-10)
(4.38344e-09 -2.87167e-09 1.41426e-09)
(5.91279e-09 -1.92903e-09 3.96346e-09)
(1.8847e-09 -3.10692e-09 5.7121e-09)
(3.4575e-09 -3.9676e-09 7.63342e-09)
(1.76555e-09 -2.49021e-10 3.30421e-11)
(-3.41808e-10 -2.79585e-10 -3.72301e-10)
(1.21017e-09 -1.54105e-10 6.74165e-10)
(-1.36039e-09 3.23839e-09 1.16013e-11)
(3.30456e-09 -1.04354e-09 -9.22069e-10)
(1.67348e-09 -1.01163e-09 -5.02633e-10)
(2.21494e-09 -1.81475e-09 2.21037e-09)
(1.87609e-09 -3.09971e-09 2.5611e-09)
(1.25202e-09 -2.4625e-09 4.26406e-09)
(4.07536e-09 -6.073e-10 3.44672e-09)
(3.54412e-09 -1.15653e-09 6.03632e-09)
(3.02079e-09 -1.5728e-09 9.64974e-09)
(2.01392e-09 -1.22309e-09 1.13942e-08)
(6.28786e-10 -4.48351e-10 -1.45383e-10)
(1.43944e-09 -5.58117e-10 -4.23134e-10)
(2.2163e-09 -2.9356e-10 -5.90459e-10)
(2.8949e-09 -3.85119e-10 -1.56408e-10)
(3.6445e-09 -6.95834e-10 6.44949e-10)
(3.33788e-09 -1.46244e-09 2.21538e-09)
(3.07382e-09 -1.77452e-09 5.16521e-09)
(1.69699e-09 -2.0416e-09 7.32077e-09)
(5.29401e-10 -1.6791e-09 1.03181e-08)
(8.46435e-10 -2.78489e-10 -2.71182e-10)
(1.16087e-09 -2.97684e-10 -5.50023e-10)
(2.17547e-09 -3.01644e-10 -9.15956e-10)
(2.6477e-09 -1.35348e-10 -4.6303e-10)
(2.97991e-09 -4.84156e-10 -6.09628e-10)
(2.7967e-09 -1.29051e-09 1.15867e-09)
(2.50986e-09 -1.45996e-09 3.26609e-09)
(1.14529e-09 -1.42843e-09 5.12578e-09)
(-1.21915e-10 -1.45946e-09 7.07864e-09)
(4.24441e-10 -1.41931e-10 -1.32695e-10)
(5.94887e-10 -2.32311e-10 -5.51975e-10)
(1.27662e-09 -2.26625e-10 -6.22613e-10)
(1.57796e-09 9.04203e-12 -4.515e-10)
(2.00649e-09 -2.39821e-10 -1.30969e-09)
(1.26802e-09 -6.21386e-10 2.28507e-10)
(1.18858e-09 -7.95099e-10 1.3799e-09)
(4.29493e-10 -5.54168e-10 2.06458e-09)
(-2.29125e-10 -4.43929e-10 1.7541e-09)
(1.87331e-09 -2.52743e-10 8.26932e-09)
(5.38096e-10 1.70538e-10 1.06521e-08)
(4.5332e-10 -2.03079e-10 -2.42611e-10)
(8.56771e-10 -4.33275e-10 -3.0688e-10)
(1.84534e-09 -2.72988e-10 -5.25447e-10)
(1.74296e-09 -1.59553e-10 -6.78566e-11)
(2.38088e-09 -4.0123e-10 8.39765e-10)
(1.76563e-09 -6.12526e-10 2.42252e-09)
(1.84641e-09 -8.37015e-10 4.4367e-09)
(1.15316e-09 -5.8704e-10 6.75203e-09)
(3.74562e-11 -3.87654e-10 8.85763e-09)
(4.18581e-10 -1.24423e-10 -1.87642e-10)
(5.86704e-10 -4.37007e-10 -5.6636e-10)
(1.50497e-09 -9.07938e-11 -6.02677e-10)
(1.51224e-09 7.27956e-11 -1.77519e-10)
(1.84893e-09 -3.06751e-12 1.87528e-10)
(1.47208e-09 -3.90545e-10 1.26738e-09)
(1.45434e-09 -6.81357e-10 2.79576e-09)
(5.20944e-10 -2.59273e-10 4.91952e-09)
(-7.60412e-10 -1.51957e-10 6.62099e-09)
(3.68753e-10 -2.05464e-10 -1.45566e-10)
(4.12667e-10 -2.32502e-10 -4.7951e-10)
(6.7499e-10 -1.95509e-10 -4.99526e-10)
(9.3609e-10 -1.79802e-10 -4.25047e-10)
(1.4831e-09 -2.29325e-10 -3.44278e-10)
(7.02575e-10 -2.96472e-10 4.5128e-10)
(6.67243e-10 2.74661e-11 1.36554e-09)
(-1.86066e-10 1.04463e-10 2.18038e-09)
(-3.86276e-10 2.22776e-10 3.41095e-09)
(3.4575e-10 -7.47147e-11 -2.87008e-10)
(7.36475e-10 -2.56129e-10 -5.48009e-10)
(1.58422e-09 -3.105e-10 -4.24671e-10)
(1.29539e-09 -1.4168e-10 -2.13088e-11)
(1.56941e-09 -1.38725e-10 8.70915e-10)
(1.2799e-09 -2.04592e-10 1.65172e-09)
(1.65209e-09 -3.02422e-10 3.81326e-09)
(9.94603e-10 -2.81794e-10 5.41513e-09)
(2.52349e-10 1.26082e-11 -2.02346e-10)
(6.12212e-10 -2.75786e-10 -5.47793e-10)
(1.1161e-09 -1.94625e-10 -5.5115e-10)
(1.04793e-09 -1.48939e-10 -1.24602e-10)
(1.37281e-09 -1.49709e-10 2.83335e-10)
(1.00452e-09 -1.21342e-10 1.22439e-09)
(9.8338e-10 3.48664e-11 2.14013e-09)
(1.71987e-10 -1.29417e-10 -8.81596e-11)
(2.04603e-10 -3.00508e-10 -4.90571e-10)
(6.78713e-10 -1.64707e-10 -5.18441e-10)
(4.31015e-10 -2.05011e-10 -2.79237e-10)
(9.64463e-10 -8.6556e-11 9.28696e-11)
(1.68714e-10 -1.08153e-10 4.60602e-10)
)
;

boundaryField
{
    inlet
    {
        type            calculated;
        value           uniform (0 0 0);
    }
    outlet
    {
        type            calculated;
        value           nonuniform 0();
    }
    wall
    {
        type            calculated;
        value           uniform (0 0 0);
    }
    procBoundary2to0
    {
        type            processor;
        value           uniform (0 0 0);
    }
    procBoundary2to3
    {
        type            processor;
        value           uniform (0 0 0);
    }
    procBoundary2to6
    {
        type            processor;
        value           uniform (0 0 0);
    }
}


// ************************************************************************* //
