/*--------------------------------*- C++ -*----------------------------------*\
| =========                 |                                                 |
| \\      /  F ield         | OpenFOAM: The Open Source CFD Toolbox           |
|  \\    /   O peration     | Version:  4.x                                   |
|   \\  /    A nd           | Web:      www.OpenFOAM.org                      |
|    \\/     M anipulation  |                                                 |
\*---------------------------------------------------------------------------*/
FoamFile
{
    version     2.0;
    format      ascii;
    class       volScalarField;
    location    "35.5";
    object      KslPrev;
}
// * * * * * * * * * * * * * * * * * * * * * * * * * * * * * * * * * * * * * //

dimensions      [1 -3 -1 0 0 0 0];

internalField   nonuniform List<scalar> 
108
(
3382.31
7941.03
3388.6
7587.99
3370.11
7284.98
3305.38
7123.2
3180.35
3473.52
9934.3
3653.27
12810.4
3704.61
15751.1
3681.46
20051.5
3607.11
3509.28
11157.2
3760.5
17308.6
3815.75
28069.9
3786.54
70061.6
3721.38
3494.86
11302.9
3799.88
19298.7
3890.43
47421.9
3901.13
1.72611e+06
3830.66
3366.59
7823.77
3355.94
7508.39
3360.07
7219.55
3295.59
7274.73
3251.4
3448.45
8952.76
3540.02
9838.87
3574.39
10847.5
3563.67
12678.1
3533.3
3464.09
10174.4
3682.11
13935.3
3758.31
19756.1
3731.65
31102.4
3685.53
3496.35
10486.9
3707.34
14781.5
3777.32
21020.2
3748.5
29750.1
3656.44
3320.15
6956.52
3169.08
5964.42
3104.47
5542.35
3030.63
5227.52
2902.2
3372.37
7706.21
3354.44
7063.83
3287.7
6650.44
3195.24
6341.25
3077.84
3423.8
8295.32
3455.33
8211.85
3427.96
7979.09
3328.77
7638.08
3219.06
3466.54
8463.56
3494.52
8588.71
3457.38
8227.26
3325.17
7593.8
3201.51
)
;

boundaryField
{
    inlet
    {
        type            zeroGradient;
    }
    outlet
    {
        type            zeroGradient;
    }
    wall
    {
        type            zeroGradient;
    }
    procBoundary4to0
    {
        type            processor;
        value           uniform 0;
    }
    procBoundary4to5
    {
        type            processor;
        value           uniform 0;
    }
    procBoundary4to6
    {
        type            processor;
        value           uniform 0;
    }
}


// ************************************************************************* //
