/*--------------------------------*- C++ -*----------------------------------*\
| =========                 |                                                 |
| \\      /  F ield         | OpenFOAM: The Open Source CFD Toolbox           |
|  \\    /   O peration     | Version:  4.x                                   |
|   \\  /    A nd           | Web:      www.OpenFOAM.org                      |
|    \\/     M anipulation  |                                                 |
\*---------------------------------------------------------------------------*/
FoamFile
{
    version     2.0;
    format      ascii;
    class       volScalarField;
    location    "35.5";
    object      pSmooth;
}
// * * * * * * * * * * * * * * * * * * * * * * * * * * * * * * * * * * * * * //

dimensions      [1 -1 -2 0 0 0 0];

internalField   nonuniform List<scalar> 
108
(
110.139
92.7769
103.07
74.9826
95.7413
56.8219
88.4492
38.3065
81.343
110.791
93.0783
103.685
75.205
96.1966
56.8922
88.7969
38.434
81.6643
111.281
93.4154
104.07
75.5444
96.4757
57.342
88.9946
39.0773
81.6202
111.487
93.7144
104.337
75.9085
96.7661
57.8417
89.084
39.6278
81.5428
110.321
93.016
103.321
75.3439
95.9886
57.1818
88.7896
38.9733
81.6641
110.825
93.2144
103.692
75.4627
96.2988
57.2871
89.0042
38.9201
81.7774
111.33
93.6457
104.208
75.726
96.7171
57.4685
89.2433
39.1844
81.9746
111.564
93.633
104.3
75.8484
96.6577
57.5036
89.0601
38.986
81.73
110.026
92.7665
102.953
75.2957
95.7119
57.1779
88.3617
38.7068
81.1685
110.501
92.9909
103.271
75.3314
95.915
57.1588
88.509
38.7426
81.3563
110.946
93.2937
103.673
75.4945
96.1917
57.3478
88.736
39.0034
81.5322
111.185
93.2929
103.832
75.5966
96.2077
57.2435
88.606
38.9641
81.4729
)
;

boundaryField
{
    inlet
    {
        type            zeroGradient;
    }
    outlet
    {
        type            fixedValue;
        value           nonuniform 0();
    }
    wall
    {
        type            zeroGradient;
    }
    procBoundary4to0
    {
        type            processor;
        value           nonuniform List<scalar> 
36
(
109.912
92.7115
103.009
74.9913
95.8849
56.8928
88.6748
38.6595
81.8215
110.508
92.9963
103.509
75.1228
96.2614
57.0221
89.0363
38.6137
82.0241
110.984
93.4046
104.056
75.6003
96.725
57.5928
89.155
39.6779
81.7563
111.201
93.5308
104.199
75.6213
96.6745
57.678
89.0384
39.5807
81.6516
)
;
    }
    procBoundary4to5
    {
        type            processor;
        value           nonuniform List<scalar> 
12
(
19.3341
19.5601
20.8068
21.7985
20.2377
20.0924
20.7935
20.7133
19.8849
19.9224
20.5278
20.5391
)
;
    }
    procBoundary4to6
    {
        type            processor;
        value           nonuniform List<scalar> 
27
(
111.625
93.4233
104.32
75.8618
96.6888
57.7781
88.996
39.8545
81.6093
111.567
93.5302
104.274
75.7255
96.7734
57.6827
89.3054
39.4454
82.0193
111.045
93.3235
103.825
75.6408
96.3481
57.5901
88.9305
39.2164
81.768
)
;
    }
}


// ************************************************************************* //
