/*--------------------------------*- C++ -*----------------------------------*\
| =========                 |                                                 |
| \\      /  F ield         | OpenFOAM: The Open Source CFD Toolbox           |
|  \\    /   O peration     | Version:  4.x                                   |
|   \\  /    A nd           | Web:      www.OpenFOAM.org                      |
|    \\/     M anipulation  |                                                 |
\*---------------------------------------------------------------------------*/
FoamFile
{
    version     2.0;
    format      ascii;
    class       volVectorField;
    location    "35.5";
    object      Us;
}
// * * * * * * * * * * * * * * * * * * * * * * * * * * * * * * * * * * * * * //

dimensions      [0 1 -1 0 0 0 0];

internalField   nonuniform List<vector> 
108
(
(-7.66339e-10 -9.17738e-11 6.82933e-10)
(-4.30429e-10 -2.28369e-10 9.53806e-10)
(-2.25979e-09 1.80114e-10 1.25819e-09)
(-1.63367e-09 1.42254e-10 1.96827e-09)
(-1.75317e-09 5.69608e-10 2.20425e-09)
(-6.91591e-11 -4.79037e-11 3.091e-09)
(6.58855e-10 -7.16169e-10 4.50981e-09)
(5.22305e-09 -5.71967e-10 2.28752e-09)
(2.38817e-09 2.16431e-10 3.05842e-10)
(-1.09992e-09 -3.71093e-10 9.52857e-10)
(-1.60701e-09 -8.92482e-10 1.63126e-09)
(-3.17698e-09 1.80927e-10 2.49626e-09)
(-2.25233e-09 -2.138e-10 3.72837e-09)
(-2.16596e-09 3.50735e-10 5.2963e-09)
(1.48183e-10 -4.1074e-10 7.16948e-09)
(4.44135e-09 -1.44276e-09 5.58444e-09)
(6.65798e-09 -2.79872e-09 4.0226e-09)
(7.6779e-09 2.00782e-10 1.67878e-09)
(-1.46548e-09 5.41864e-11 1.07454e-09)
(-3.30092e-09 -5.43172e-10 2.22079e-09)
(-4.50089e-09 5.35508e-11 3.33209e-09)
(-3.65098e-09 -1.207e-09 5.23898e-09)
(-3.02952e-09 -1.30644e-09 7.32897e-09)
(1.06171e-09 -1.14755e-09 7.5452e-09)
(3.23341e-09 -2.21315e-09 6.46945e-09)
(7.22443e-09 -2.47081e-09 3.56729e-09)
(9.44576e-09 -1.70081e-09 -5.90591e-10)
(-1.26039e-09 -4.14195e-11 1.01904e-09)
(-2.30262e-09 -4.02196e-10 1.89967e-09)
(-4.93073e-09 -3.8863e-10 3.13922e-09)
(-4.28062e-09 -1.69346e-09 3.9808e-09)
(-3.72364e-09 -2.9765e-09 6.09741e-09)
(5.83593e-10 -2.18845e-09 6.85324e-09)
(3.76338e-09 -3.51896e-09 5.1757e-09)
(8.04059e-09 -2.96871e-09 -1.07467e-09)
(8.49472e-09 -5.01341e-09 -6.08569e-09)
(-6.57393e-10 -2.4908e-10 5.84888e-10)
(-3.67791e-10 -5.53965e-10 9.60534e-10)
(-1.50311e-09 -2.7744e-10 9.75829e-10)
(-8.23875e-10 -2.48636e-10 1.14073e-09)
(-7.84203e-10 -8.06636e-11 1.04451e-09)
(9.3931e-10 6.18294e-11 1.63277e-09)
(1.17784e-09 -3.0802e-10 2.20784e-09)
(4.15228e-09 6.41749e-10 2.27163e-09)
(4.11216e-09 2.58349e-10 3.33372e-10)
(-9.73848e-10 -3.80693e-10 8.35114e-10)
(-1.02507e-09 -8.71833e-10 1.44995e-09)
(-1.76776e-09 -6.60516e-10 1.46675e-09)
(-1.05335e-09 -1.21257e-09 2.93614e-09)
(-4.91964e-10 -6.46045e-10 3.39376e-09)
(1.34669e-09 6.05409e-10 3.54949e-09)
(4.1442e-09 5.48963e-10 3.26541e-09)
(6.98639e-09 1.3173e-09 3.31315e-09)
(7.67319e-09 -8.03917e-11 -2.26015e-10)
(-7.05445e-10 -1.18214e-10 5.12925e-10)
(-1.269e-09 -9.84631e-10 1.60354e-09)
(-2.2531e-09 -8.51998e-10 1.69156e-09)
(-1.46964e-09 -2.63351e-10 2.33996e-09)
(-1.22265e-09 -3.79123e-10 4.12082e-09)
(2.18951e-09 -6.51636e-10 4.41038e-09)
(4.33955e-09 -1.07418e-09 3.5341e-09)
(9.555e-09 1.67934e-10 1.4761e-09)
(9.48003e-09 1.13354e-09 1.75659e-10)
(-8.337e-10 -2.06139e-10 5.20018e-10)
(-1.2278e-09 -5.65371e-10 1.27646e-09)
(-3.01886e-09 -1.72579e-10 2.45781e-09)
(-2.97035e-09 -6.90569e-10 2.63669e-09)
(-2.12688e-09 -1.91589e-09 3.56749e-09)
(2.28014e-09 -1.67002e-09 3.3381e-09)
(4.83185e-09 -2.39367e-10 3.35096e-09)
(9.1635e-09 -6.95793e-10 1.50687e-10)
(1.16474e-08 -2.54252e-09 -1.13577e-09)
(-3.88583e-10 2.49941e-12 2.93925e-10)
(-1.67916e-10 -3.89781e-10 6.06901e-10)
(-7.17259e-10 -2.04945e-10 5.22324e-10)
(1.69672e-11 -2.20504e-10 6.29465e-10)
(-4.23809e-10 1.12079e-10 4.90213e-10)
(6.79303e-10 -6.4065e-12 5.10338e-10)
(-3.35126e-10 -2.89553e-10 1.12595e-09)
(1.99174e-09 -6.08176e-11 6.19363e-10)
(1.46547e-09 3.48297e-10 -5.58733e-11)
(-7.95182e-10 -3.08735e-10 6.77995e-10)
(-3.93204e-10 -6.46279e-10 6.8609e-10)
(-1.04032e-09 -4.92502e-10 9.0049e-10)
(-4.58244e-10 -4.88592e-10 8.33202e-10)
(-1.00023e-09 -8.46071e-11 1.43501e-09)
(3.01408e-09 1.25498e-09 1.02125e-09)
(2.64692e-09 3.76829e-10 7.128e-10)
(4.8724e-09 -7.93507e-10 8.95512e-10)
(4.32e-09 2.32079e-10 -5.18704e-11)
(-6.4209e-10 -7.82771e-11 2.63508e-10)
(-5.4715e-10 -7.7448e-10 7.08507e-10)
(-1.00811e-09 -4.14421e-10 7.47467e-10)
(-8.43674e-10 -3.42113e-10 9.52882e-10)
(-1.78569e-09 -2.26955e-10 1.93137e-09)
(2.71823e-09 -2.0338e-10 1.89375e-09)
(4.51217e-09 -1.10445e-10 6.98543e-10)
(6.84507e-09 4.20688e-10 8.95667e-10)
(5.52924e-09 1.80167e-09 3.87666e-10)
(-7.72838e-10 -2.50352e-10 3.02622e-10)
(-6.35419e-10 -6.6311e-10 5.49276e-10)
(-1.81524e-09 -8.63401e-10 1.05785e-09)
(-8.53439e-10 -1.85217e-10 1.30705e-09)
(-1.04714e-09 -3.48057e-10 1.25741e-09)
(1.15512e-09 -4.80725e-10 7.74047e-10)
(4.16513e-09 -7.76978e-10 7.80908e-10)
(5.76954e-08 -2.95803e-08 4.04665e-10)
(9.67186e-09 -1.22055e-09 4.73773e-11)
)
;

boundaryField
{
    inlet
    {
        type            zeroGradient;
    }
    outlet
    {
        type            zeroGradient;
    }
    wall
    {
        type            zeroGradient;
    }
    procBoundary4to0
    {
        type            processor;
        value           nonuniform List<vector> 
36
(
(-7.58919e-10 -2.92485e-10 4.92533e-10)
(-9.79974e-10 -5.72017e-10 1.68994e-09)
(-2.70755e-09 -7.68632e-10 2.11514e-09)
(-1.0641e-09 1.33286e-10 2.78724e-09)
(-1.5726e-09 -3.43168e-10 3.87785e-09)
(-1.14121e-09 2.97852e-10 6.56545e-09)
(-1.19521e-09 -4.53788e-10 6.75348e-09)
(7.10814e-09 -1.32193e-09 3.60741e-09)
(8.78052e-09 -7.69549e-10 1.73509e-09)
(-1.11688e-09 -5.97635e-10 1.01184e-09)
(-2.83016e-09 -3.34318e-10 2.15841e-09)
(-4.74895e-09 5.81018e-10 3.50484e-09)
(-4.94389e-09 -1.13792e-09 5.22004e-09)
(-5.12499e-09 -1.76701e-10 7.84209e-09)
(-2.06547e-09 -9.96565e-10 1.07789e-08)
(2.09573e-09 -3.38768e-09 8.42751e-09)
(9.10708e-09 -3.4656e-09 5.7216e-09)
(1.15184e-08 -1.82793e-09 1.02428e-09)
(-2.74436e-09 4.69588e-11 2.01131e-09)
(-4.4564e-09 -9.46166e-11 2.61694e-09)
(-7.35963e-09 6.69846e-11 3.56452e-09)
(-4.06771e-09 -8.50648e-10 6.29988e-09)
(-6.03259e-09 -2.0796e-09 8.7095e-09)
(-3.14159e-10 -3.4054e-09 1.0883e-08)
(1.43093e-09 -5.43507e-09 7.79458e-09)
(7.46616e-09 -5.05724e-09 5.49243e-09)
(9.95084e-09 -3.03775e-09 2.84249e-10)
(-1.7391e-09 1.67886e-10 1.21112e-09)
(-3.89651e-09 5.68946e-10 2.18438e-09)
(-7.2059e-09 -7.76612e-10 3.31333e-09)
(-5.20744e-09 -2.46303e-09 5.4899e-09)
(-4.82359e-09 -4.44567e-09 8.35152e-09)
(-1.84321e-09 -5.3578e-09 1.00276e-08)
(3.19827e-09 -6.87805e-09 6.9275e-09)
(5.07719e-09 -6.09657e-09 2.41075e-09)
(8.41571e-09 -4.2976e-09 -5.26342e-09)
)
;
    }
    procBoundary4to5
    {
        type            processor;
        value           nonuniform List<vector> 
12
(
(6.88309e-09 -4.2316e-10 -2.67882e-09)
(7.07579e-09 -5.29054e-09 -3.34949e-09)
(1.44766e-08 -2.22556e-09 -6.71005e-09)
(1.00363e-08 -4.55207e-09 -1.08286e-08)
(6.49558e-09 -3.79529e-11 -1.58743e-09)
(9.93431e-09 -2.61077e-10 -2.25126e-09)
(1.41005e-08 4.38501e-10 -3.28714e-09)
(1.39918e-08 -6.80558e-10 -1.29739e-09)
(3.05029e-09 6.93319e-10 -8.4995e-10)
(5.87942e-09 4.41568e-10 -1.41802e-09)
(6.87828e-09 1.52486e-09 -1.00793e-09)
(1.09697e-08 2.72509e-09 -1.3631e-09)
)
;
    }
    procBoundary4to6
    {
        type            processor;
        value           nonuniform List<vector> 
27
(
(-1.83533e-09 9.50007e-11 7.79854e-10)
(-2.73244e-09 4.36073e-10 1.63623e-09)
(-5.2428e-09 -2.69672e-10 2.78745e-09)
(-5.43548e-09 -1.09668e-09 3.87394e-09)
(-6.61828e-09 -3.23717e-09 5.0743e-09)
(-8.93243e-10 -2.48839e-09 4.20349e-09)
(-1.88665e-09 -3.61211e-09 2.48729e-09)
(9.31815e-10 -3.476e-09 -1.32309e-09)
(2.56201e-09 -3.58688e-09 -6.13027e-09)
(-9.99149e-10 -2.76672e-11 6.34383e-10)
(-1.51271e-09 1.41592e-10 1.22169e-09)
(-3.11136e-09 1.6611e-10 2.13211e-09)
(-2.44362e-09 -5.75589e-10 2.07357e-09)
(-1.72274e-09 -1.52725e-09 2.08281e-09)
(2.21871e-09 -1.99378e-09 2.74998e-09)
(3.05961e-09 -1.94441e-09 2.01179e-09)
(5.62314e-09 -2.50731e-09 4.1669e-10)
(5.45475e-09 -4.02787e-09 -3.95213e-09)
(-6.49997e-10 -9.33801e-11 3.14835e-10)
(-5.68572e-10 -2.27991e-10 3.74226e-10)
(-1.78809e-09 -2.60689e-10 1.03257e-09)
(-2.4879e-10 -1.55768e-10 6.54053e-10)
(-5.21519e-10 -6.94823e-10 6.47439e-10)
(1.46189e-09 -1.37668e-09 7.37163e-10)
(3.48441e-09 -1.57723e-09 1.11635e-09)
(7.54623e-09 -1.38972e-09 9.194e-11)
(7.24837e-09 -1.81265e-09 6.80849e-11)
)
;
    }
}


// ************************************************************************* //
