/*--------------------------------*- C++ -*----------------------------------*\
| =========                 |                                                 |
| \\      /  F ield         | OpenFOAM: The Open Source CFD Toolbox           |
|  \\    /   O peration     | Version:  4.x                                   |
|   \\  /    A nd           | Web:      www.OpenFOAM.org                      |
|    \\/     M anipulation  |                                                 |
\*---------------------------------------------------------------------------*/
FoamFile
{
    version     2.0;
    format      ascii;
    class       volVectorField;
    location    "57";
    object      GField;
}
// * * * * * * * * * * * * * * * * * * * * * * * * * * * * * * * * * * * * * //

dimensions      [1 -2 -1 0 0 0 0];

internalField   nonuniform List<vector> 
114
(
(55.3787 -0.631459 -2.67537)
(111.717 -1.06984 -5.0317)
(64.0352 -0.729483 -2.40269)
(117.271 -1.15781 -3.71008)
(69.7429 -0.396222 -1.38929)
(122.757 -0.859212 -2.37437)
(99.1757 0.172543 -4.31906)
(41.7742 0.0488118 -2.44173)
(103.557 0.458249 -5.09439)
(49.6125 0.264594 -2.19644)
(106.953 0.0502456 -4.2986)
(54.4651 -0.400078 -1.7677)
(109.806 -0.594418 -3.57024)
(56.3109 -1.08279 -0.892643)
(112.234 -0.779426 -2.33549)
(99.8211 3.44308 -4.19359)
(44.5648 1.74341 -2.24927)
(105.964 3.66695 -4.30916)
(55.7022 2.08794 -1.79209)
(111.791 3.60095 -3.15146)
(63.5757 1.78054 -1.09264)
(116.703 2.98322 -2.03336)
(68.7179 1.26426 -0.269457)
(121.35 2.42946 -1.10667)
(100.239 1.53879 -3.53055)
(48.9847 0.718077 -2.04543)
(109.297 1.37309 -3.60052)
(64.2088 0.633308 -1.74581)
(118.719 1.09145 -2.7634)
(76.7062 0.109326 -1.12717)
(127.218 0.424833 -1.81166)
(85.5593 -0.942063 -0.194763)
(133.2 -0.486776 -0.954795)
(27.3494 0.0322564 -1.97023)
(95.9865 -0.199827 -3.97056)
(23.8823 0.203487 -1.44709)
(98.3243 0.15851 -2.24742)
(97.5062 1.19922 -8.06192)
(34.0227 0.263245 -3.86104)
(96.4444 1.25896 -8.522)
(28.9176 0.660033 -3.14017)
(94.9282 1.60015 -6.45119)
(22.4721 0.275229 -2.40947)
(93.6382 0.727101 -3.95732)
(14.6722 -0.112106 -1.59804)
(93.6362 0.446742 -0.78752)
(97.5763 4.1209 -8.04763)
(37.0534 2.04918 -4.24233)
(97.983 4.8434 -8.74056)
(36.5972 1.99749 -3.68702)
(98.8788 4.76436 -7.06216)
(35.8981 1.66423 -3.1861)
(100.167 4.29775 -5.75461)
(34.0747 1.11 -2.95598)
(102.504 3.3031 -4.13906)
(98.2976 2.16408 -7.34198)
(43.7671 1.01959 -4.31808)
(102.978 2.0891 -7.7003)
(51.716 0.779009 -4.34704)
(107.874 1.56938 -6.48032)
(58.1325 0.24673 -4.44442)
(112.345 0.811986 -5.37773)
(62.3103 -0.602135 -3.94686)
(116.478 -0.101777 -4.47747)
(14.2883 -1.04434 -1.56325)
(92.5424 -0.229419 -2.04371)
(95.4308 1.19028 -6.69824)
(30.8856 0.154019 -3.16705)
(92.1026 0.401712 -5.99705)
(20.3785 -0.0286572 -1.76674)
(89.2712 -0.442737 -3.6551)
(10.0557 -0.283563 -0.807385)
(87.0489 -1.77736 -1.53296)
(1.22508 -0.0665776 -0.128184)
(85.8852 -1.62161 0.162679)
(96.3074 4.10864 -6.00459)
(33.1623 1.74724 -2.92494)
(93.8677 4.58763 -5.34427)
(25.6637 1.55437 -1.94653)
(91.9807 3.91194 -3.45834)
(18.1554 0.974409 -1.10473)
(90.8448 2.29463 -1.69175)
(9.51041 0.546251 -0.482971)
(90.8685 -0.330132 -0.363418)
(97.1931 2.32112 -5.73636)
(39.9523 1.21409 -3.29783)
(98.9499 2.84546 -5.52097)
(43.3293 1.13566 -3.12912)
(101.212 2.39768 -4.09487)
(46.1241 0.504693 -2.53956)
(101.937 1.78799 -2.46474)
(46.2131 0.242969 -2.25439)
(103.41 0.564154 -1.49243)
(94.71 1.82531 -5.61024)
(29.0039 0.974857 -2.27691)
(90.3624 2.51018 -4.46376)
(18.9333 0.661015 -1.55691)
(88.3235 1.99979 -2.38939)
(11.2119 0.458028 -0.816767)
(87.429 1.53566 -0.153206)
(4.62856 0.24954 -0.478876)
(94.6483 5.06449 -4.726)
(34.4075 2.49708 -2.30382)
(93.1025 5.52228 -4.16409)
(30.5418 2.01457 -2.05272)
(92.9577 4.9062 -3.24407)
(28.1681 1.89146 -1.57078)
(93.9626 4.13672 -1.87503)
(96.3256 2.46622 -4.35071)
(41.022 1.1263 -2.67664)
(98.3179 2.2148 -4.42117)
(44.4237 0.758941 -3.13055)
(100.613 1.52434 -4.10147)
(47.5927 0.338523 -2.49361)
)
;

boundaryField
{
    inlet
    {
        type            calculated;
        value           uniform (67 0 0);
    }
    outlet
    {
        type            calculated;
        value           nonuniform 0();
    }
    wall
    {
        type            calculated;
        value           uniform (0 0 0);
    }
    procBoundary2to0
    {
        type            processor;
        value           nonuniform List<vector> 
44
(
(54.3059 -1.17744 -2.99489)
(111.125 -1.35594 -5.42203)
(61.6024 -0.355756 -2.78499)
(115.586 -0.929985 -4.7643)
(65.7988 0.0010308 -1.9045)
(117.571 -0.694361 -3.55407)
(100.74 -1.5855 -5.37966)
(44.9249 -0.547072 -2.60277)
(106.645 -1.1923 -5.31319)
(106.645 -1.1923 -5.31319)
(32.3731 -0.0103122 -3.09682)
(95.9744 -0.131686 -6.33953)
(24.6619 -0.0102808 -1.56718)
(94.7262 -0.200518 -3.21905)
(16.8854 0.419598 -0.658792)
(94.8833 0.304893 -1.31515)
(96.5897 -0.588907 -8.91393)
(34.9719 -0.256708 -4.15171)
(97.0112 -0.6078 -8.72122)
(32.3731 -0.0103122 -3.09682)
(95.9744 -0.131686 -6.33953)
(95.9744 -0.131686 -6.33953)
(16.3163 -0.90833 -1.42993)
(91.2995 -1.59308 -2.52259)
(10.8118 -0.311989 -1.599)
(90.7108 -1.10974 0.0593778)
(94.7854 -1.13075 -6.50399)
(30.3584 -0.590499 -3.44732)
(92.1425 -1.46477 -6.52481)
(21.802 -0.622355 -1.89956)
(90.7738 -1.5881 -3.7978)
(16.3163 -0.90833 -1.42993)
(91.2995 -1.59308 -2.52259)
(91.2995 -1.59308 -2.52259)
(11.1369 0.621072 -1.31693)
(89.2804 -0.0932491 -1.30348)
(94.9635 -0.429853 -4.40537)
(30.6702 0.127173 -2.52433)
(91.0101 0.578214 -4.44635)
(20.7775 0.441362 -1.69378)
(89.8096 0.941095 -3.57411)
(14.8239 0.488271 -1.39347)
(89.408 -0.103773 -2.72387)
(11.1369 0.621072 -1.31693)
)
;
    }
    procBoundary2to3
    {
        type            processor;
        value           nonuniform List<vector> 
12
(
(72.4723 -1.22664 -0.760892)
(54.3031 -1.45979 -0.49392)
(71.6901 2.02387 0.38695)
(90.8746 -2.14343 0.271275)
(21.6045 0.161047 -1.65817)
(7.34286 -0.108171 -1.02355)
(32.0755 1.4892 -3.09809)
(64.1207 -1.79368 -4.28113)
(12.1056 -1.13258 -2.26914)
(3.79599e-05 -5.683e-06 8.10687e-07)
(2.61329 0.252969 -0.137931)
(43.2443 -0.338408 -2.01933)
)
;
    }
    procBoundary2to6
    {
        type            processor;
        value           nonuniform List<vector> 
32
(
(87.4262 1.86706 -0.687622)
(27.4718 2.07031 -1.67777)
(96.3348 2.93336 -1.05562)
(103.363 0.736477 -2.82133)
(50.2821 -0.626902 -3.0667)
(106.218 -0.379959 -3.02194)
(92.0879 0.78834 -1.81847)
(26.163 0.506268 -0.577239)
(86.9579 0.724542 -1.2654)
(11.4344 0.138829 -0.380261)
(83.164 0.0330778 -0.730785)
(1.62021 0.0173298 -0.0640218)
(81.4746 -0.747184 -0.423663)
(87.4262 1.86706 -0.687622)
(27.4718 2.07031 -1.67777)
(3.35543e-05 1.28647e-07 -1.59242e-06)
(94.2804 5.32978 -1.74864)
(30.4974 1.94717 -0.984394)
(90.7804 4.96527 -1.72597)
(20.6774 1.40673 -1.02255)
(88.165 2.81774 -1.55659)
(11.8662 0.851576 -0.769372)
(27.4718 2.07031 -1.67777)
(103.363 0.736477 -2.82133)
(86.7522 0.336721 -1.56436)
(96.2185 2.81808 -1.83812)
(39.6403 1.2659 -1.23138)
(96.5908 2.89501 -1.94199)
(40.3777 0.870928 -1.85586)
(95.8329 1.9078 -1.94996)
(103.363 0.736477 -2.82133)
(37.91 0.480048 -1.89911)
)
;
    }
}


// ************************************************************************* //
