/*--------------------------------*- C++ -*----------------------------------*\
| =========                 |                                                 |
| \\      /  F ield         | OpenFOAM: The Open Source CFD Toolbox           |
|  \\    /   O peration     | Version:  4.x                                   |
|   \\  /    A nd           | Web:      www.OpenFOAM.org                      |
|    \\/     M anipulation  |                                                 |
\*---------------------------------------------------------------------------*/
FoamFile
{
    version     2.0;
    format      ascii;
    class       volScalarField;
    location    "57";
    object      magGField;
}
// * * * * * * * * * * * * * * * * * * * * * * * * * * * * * * * * * * * * * //

dimensions      [1 -2 -1 0 0 0 0];

internalField   nonuniform List<scalar> 
114
(
55.4469
111.836
64.0845
117.335
69.7578
122.783
99.2698
41.8455
103.683
49.6618
107.039
54.4953
109.865
56.3283
112.261
99.9685
44.6556
106.115
55.7702
111.893
63.61
116.759
68.7301
121.379
100.313
49.0326
109.364
64.2356
118.757
76.7145
127.232
85.5647
133.204
27.4203
96.0688
23.927
98.3501
97.8462
34.2421
96.8284
29.0951
95.1606
22.6025
93.7246
14.7594
93.6406
97.9943
37.3517
98.4913
36.8366
99.2451
36.0776
100.424
34.2207
102.64
98.5952
43.9914
103.286
51.9042
108.08
58.3027
112.477
62.4381
116.564
14.4115
92.5652
95.6729
31.0479
92.2986
20.455
89.3471
10.092
87.0806
1.23356
85.9006
96.5818
33.3368
94.1315
25.7843
92.1288
18.2151
90.8895
9.53832
90.8698
97.3899
40.1066
99.1447
43.457
101.323
46.1967
101.982
46.2687
103.422
94.8936
29.1095
90.5074
19.0088
88.3785
11.2509
87.4426
4.65996
94.9015
34.5748
93.3591
30.6769
93.1436
28.2752
94.0723
96.4553
41.1247
98.4422
44.5403
100.708
47.6591
)
;

boundaryField
{
    inlet
    {
        type            calculated;
        value           uniform 67;
    }
    outlet
    {
        type            calculated;
        value           nonuniform 0();
    }
    wall
    {
        type            calculated;
        value           uniform 0;
    }
    procBoundary2to0
    {
        type            processor;
        value           nonuniform List<scalar> 
44
(
54.4012
111.265
61.6663
115.688
65.8263
117.627
100.896
45.0035
106.784
106.784
32.5209
96.1836
24.7116
94.7811
16.9034
94.8929
97.0019
35.2184
97.4043
32.5209
96.1836
96.1836
16.4041
91.3483
10.9338
90.7176
95.015
30.5592
92.3848
21.8934
90.8671
16.4041
91.3483
91.3483
11.2317
89.29
95.0666
30.7742
91.1205
20.8511
89.8856
14.8973
89.4496
11.2317
)
;
    }
    procBoundary2to3
    {
        type            processor;
        value           nonuniform List<scalar> 
12
(
72.4867
54.3249
71.7197
90.9003
21.6686
7.41464
32.2592
64.2885
12.3684
3.83915e-05
2.62912
43.2927
)
;
    }
    procBoundary2to6
    {
        type            processor;
        value           nonuniform List<scalar> 
32
(
87.4489
27.6007
96.3852
103.404
50.3794
106.262
92.1093
26.1743
86.9701
11.4415
83.1672
1.62156
81.4791
87.4489
27.6007
3.35923e-05
94.4471
30.5754
90.9324
20.7504
88.2238
11.9216
27.6007
103.404
86.767
96.2773
39.6796
96.6536
40.4297
95.8718
103.404
37.9606
)
;
    }
}


// ************************************************************************* //
