/*--------------------------------*- C++ -*----------------------------------*\
| =========                 |                                                 |
| \\      /  F ield         | OpenFOAM: The Open Source CFD Toolbox           |
|  \\    /   O peration     | Version:  4.x                                   |
|   \\  /    A nd           | Web:      www.OpenFOAM.org                      |
|    \\/     M anipulation  |                                                 |
\*---------------------------------------------------------------------------*/
FoamFile
{
    version     2.0;
    format      ascii;
    class       volScalarField;
    location    "57";
    object      QWallFluidCoeff;
}
// * * * * * * * * * * * * * * * * * * * * * * * * * * * * * * * * * * * * * //

dimensions      [1 -1 -3 -1 0 0 0];

internalField   nonuniform List<scalar> 
114
(
-1.77337e+06
-3.10858e+06
-1.99113e+06
-3.23027e+06
-2.13094e+06
-3.34971e+06
-2.82586e+06
-1.41585e+06
-2.92593e+06
-1.62374e+06
-3.00146e+06
-1.74898e+06
-3.06468e+06
-1.79589e+06
-3.11804e+06
-2.84176e+06
-1.49141e+06
-2.98071e+06
-1.78164e+06
-3.10985e+06
-1.97933e+06
-3.21759e+06
-2.10579e+06
-3.31904e+06
-5.69919e+06
-3.21452e+06
-6.10701e+06
-3.98977e+06
-6.52309e+06
-4.59864e+06
-6.89294e+06
-5.01838e+06
-7.15058e+06
0
0
0
0
0
0
0
0
0
0
0
0
0
0
0
0
0
0
0
0
0
0
-2.81049e+06
-1.47364e+06
-2.91697e+06
-1.68213e+06
-3.02478e+06
-1.84607e+06
-3.12282e+06
-1.9501e+06
-3.21329e+06
0
0
0
0
0
0
0
0
0
0
0
0
0
0
0
0
0
0
0
0
-2.78297e+06
-1.36858e+06
-2.82301e+06
-1.4593e+06
-2.87253e+06
-1.53245e+06
-2.88746e+06
-1.53436e+06
-2.92003e+06
0
0
0
0
0
0
0
0
0
0
0
0
0
0
0
-2.76158e+06
-1.3963e+06
-2.807e+06
-1.48833e+06
-2.85858e+06
-1.57114e+06
)
;

boundaryField
{
    inlet
    {
        type            calculated;
        value           uniform 0;
    }
    outlet
    {
        type            calculated;
        value           nonuniform 0();
    }
    wall
    {
        type            calculated;
        value           uniform 0;
    }
    procBoundary2to0
    {
        type            processor;
        value           uniform 0;
    }
    procBoundary2to3
    {
        type            processor;
        value           uniform 0;
    }
    procBoundary2to6
    {
        type            processor;
        value           uniform 0;
    }
}


// ************************************************************************* //
