/*--------------------------------*- C++ -*----------------------------------*\
  =========                 |
  \\      /  F ield         | OpenFOAM: The Open Source CFD Toolbox
   \\    /   O peration     | Website:  https://openfoam.org
    \\  /    A nd           | Version:  4.x
     \\/     M anipulation  |
\*---------------------------------------------------------------------------*/
FoamFile
{
    version     2.0;
    format      ascii;
    class       vectorField;
    location    0;
    object      v;
}
// * * * * * * * * * * * * * * * * * * * * * * * * * * * * * * * * * * * * * //

325
(
( 3.04891e-10 8.55341e-11 3.7655e-10 )  
( 7.27963e-10 1.82124e-10 6.15236e-10 )  
( 4.26597e-09 5.11278e-11 2.17502e-09 )  
( 8.65367e-10 4.6671e-11 4.81692e-10 )  
( 1.55596e-09 3.1763e-10 9.45145e-10 )  
( 1.36333e-09 2.91643e-10 6.68234e-10 )  
( 2.82672e-10 6.43342e-11 2.97601e-10 )  
( 1.80424e-10 1.35412e-10 3.08656e-10 )  
( 5.13948e-09 -2.8643e-10 1.3071e-09 )  
( 1.92662e-10 1.49689e-11 3.82401e-10 )  
( 5.5591e-09 3.53717e-10 1.72352e-09 )  
( 2.80632e-10 8.39895e-10 2.64113e-09 )  
( 2.49469e-09 1.72666e-10 1.36023e-09 )  
( 1.33066e-09 -3.7106e-10 2.50081e-09 )  
( 3.3422e-10 1.78015e-10 4.04952e-09 )  
( 1.2672e-09 4.58911e-11 6.49143e-10 )  
( 9.9849e-10 1.48137e-10 3.81295e-10 )  
( 9.04716e-10 1.04838e-10 4.56025e-10 )  
( 1.18736e-09 1.85253e-10 7.6074e-10 )  
( 3.84397e-09 1.44681e-10 1.03566e-09 )  
( 1.00366e-09 1.90844e-10 3.82075e-10 )  
( 3.46142e-09 4.73186e-10 1.07284e-09 )  
( 4.8449e-09 2.59815e-10 1.08777e-09 )  
( 2.54345e-09 2.51738e-10 8.44802e-10 )  
( 4.07048e-10 2.60944e-11 1.09345e-10 )  
( 2.18598e-09 1.17184e-09 2.38993e-09 )  
( 6.84732e-10 2.92678e-10 5.70915e-10 )  
( 1.84214e-09 -7.44457e-12 2.29613e-09 )  
( 2.13187e-09 -7.35866e-12 4.45622e-10 )  
( 4.09782e-10 6.54124e-11 1.41833e-09 )  
( 2.07508e-09 2.97141e-10 5.80983e-10 )  
( 1.97682e-09 -9.81815e-11 6.4182e-11 )  
( 3.4304e-10 1.91925e-10 7.48096e-10 )  
( 9.71488e-10 1.74286e-10 4.86591e-10 )  
( 9.01713e-10 1.53069e-10 4.53138e-10 )  
( 1.28874e-10 1.06387e-10 2.04343e-10 )  
( 8.16482e-10 -9.01839e-11 4.16838e-10 )  
( 1.53999e-09 2.84508e-10 9.21197e-10 )  
( 1.29622e-09 2.5141e-10 7.19773e-10 )  
( 2.80416e-10 1.1802e-10 1.47258e-09 )  
( 4.98448e-10 -3.04157e-11 2.74226e-10 )  
( 9.65203e-10 7.44502e-11 3.9455e-10 )  
( 3.60426e-10 2.43739e-10 4.89536e-10 )  
( 1.81915e-09 1.94632e-10 6.67629e-10 )  
( 5.19532e-10 -1.92527e-11 2.48379e-10 )  
( 1.1824e-09 1.2368e-10 1.23386e-09 )  
( 2.33922e-09 6.39152e-10 1.05599e-09 )  
( 7.87771e-10 3.32276e-10 3.81416e-10 )  
( 3.67389e-10 1.50049e-10 6.83992e-10 )  
( 1.10391e-09 5.20041e-11 5.59643e-10 )  
( 8.08971e-10 7.72659e-11 2.68867e-10 )  
( 2.47992e-09 -6.83876e-12 6.7587e-10 )  
( 2.78206e-09 3.60807e-11 8.82781e-10 )  
( 4.7534e-09 -4.03255e-10 1.2129e-09 )  
( 1.417e-10 2.16477e-10 1.38848e-09 )  
( 9.46782e-10 6.64201e-11 6.20965e-10 )  
( 3.90221e-09 -2.09745e-11 1.24488e-09 )  
( 1.06415e-10 4.57696e-11 2.68463e-10 )  
( 4.56514e-09 7.19224e-10 1.22484e-09 )  
( 1.13926e-10 3.5431e-11 2.5132e-10 )  
( 1.54015e-09 -1.14397e-10 4.01771e-10 )  
( 5.33706e-10 8.61993e-11 1.63115e-10 )  
( 4.62025e-10 6.07682e-11 3.52836e-10 )  
( 2.28996e-09 6.09328e-10 1.54554e-09 )  
( 6.95432e-10 2.81941e-10 5.65907e-10 )  
( -2.18708e-10 2.45584e-10 1.606e-09 )  
( 2.02482e-09 2.63132e-10 1.83241e-09 )  
( 1.32815e-09 3.89963e-10 9.85256e-10 )  
( -3.87599e-10 7.49545e-10 2.97743e-09 )  
( 7.93119e-10 3.90547e-11 3.07201e-10 )  
( 6.28869e-10 -4.17721e-11 2.59504e-10 )  
( 2.51702e-09 6.97431e-11 3.79349e-10 )  
( 3.41435e-10 2.77744e-11 6.57049e-10 )  
( 1.22382e-09 3.27415e-11 6.70913e-10 )  
( 1.2279e-09 -4.66361e-10 1.67606e-10 )  
( 3.67874e-09 2.47062e-10 1.14204e-09 )  
( -3.06339e-10 -9.22519e-11 2.01625e-09 )  
( 5.25776e-09 3.85625e-10 8.96216e-10 )  
( 1.13103e-09 -2.24673e-10 3.52689e-10 )  
( 4.81647e-09 3.31211e-10 9.87435e-10 )  
( 1.89192e-09 -4.93458e-10 1.66048e-10 )  
( 4.75049e-09 3.99947e-11 5.74253e-10 )  
( 3.79529e-09 2.30165e-11 1.13148e-09 )  
( 5.0953e-09 -5.8437e-11 1.08922e-09 )  
( 4.11647e-09 5.59643e-10 7.35788e-10 )  
( 6.25652e-10 -3.96307e-10 2.13265e-10 )  
( 2.57503e-10 7.44024e-10 2.19839e-09 )  
( 1.45705e-10 4.79193e-11 2.87381e-10 )  
( 1.2511e-09 4.5562e-11 7.05585e-10 )  
( -5.81562e-10 -5.25461e-10 2.18458e-09 )  
( 1.13963e-10 9.31791e-11 2.80444e-10 )  
( 5.54098e-10 1.44245e-10 3.4449e-10 )  
( 6.11656e-10 6.24714e-11 9.91129e-10 )  
( 1.8236e-10 5.38615e-11 2.46003e-10 )  
( 1.84848e-10 3.14875e-11 2.27412e-10 )  
( 1.10246e-09 3.30365e-10 5.39739e-10 )  
( 1.63014e-10 6.94727e-11 3.96276e-10 )  
( 4.18782e-10 6.7642e-12 4.34895e-10 )  
( 4.33972e-09 1.06198e-09 2.70039e-10 )  
( 1.15658e-09 1.36861e-11 5.65645e-10 )  
( 8.44241e-10 8.96252e-11 3.99088e-10 )  
( 2.30891e-10 1.04668e-10 4.64119e-10 )  
( 3.01546e-09 3.78219e-11 4.42356e-10 )  
( 2.54496e-10 8.36627e-11 3.25786e-10 )  
( 6.14865e-10 4.23677e-11 2.44838e-10 )  
( 2.12004e-10 3.27374e-11 2.08585e-10 )  
( 1.33288e-09 1.75051e-10 5.82839e-10 )  
( 1.26373e-09 -1.36608e-10 -2.44986e-11 )  
( 2.17148e-09 3.21625e-10 1.32821e-09 )  
( 2.4385e-10 5.78329e-11 1.22931e-10 )  
( 1.16335e-09 3.79339e-11 3.2525e-10 )  
( 5.16448e-10 6.37187e-12 1.6002e-10 )  
( 6.20481e-10 5.47886e-11 5.35861e-10 )  
( 2.16078e-09 9.05315e-10 7.65473e-10 )  
( 1.68687e-09 -6.44554e-10 1.92941e-09 )  
( 9.58164e-10 -1.53025e-10 3.4738e-11 )  
( 6.69173e-10 2.29418e-10 2.71006e-10 )  
( 1.34495e-10 3.33859e-11 5.39926e-10 )  
( 6.03454e-11 1.11866e-10 2.52916e-11 )  
( 3.17753e-09 1.05171e-09 -1.19953e-10 )  
( 6.11013e-10 -8.83113e-12 2.27011e-10 )  
( 6.85088e-10 -6.8221e-11 6.82615e-10 )  
( 1.04196e-09 -6.62326e-11 8.37688e-10 )  
( 3.08307e-10 3.40904e-12 1.49651e-10 )  
( 1.05046e-09 -1.28852e-11 3.91976e-10 )  
( 1.91548e-09 -7.43183e-11 1.64514e-09 )  
( 3.14817e-09 -7.77661e-11 6.44262e-10 )  
( 2.64675e-09 7.37061e-10 7.3191e-10 )  
( 1.47396e-10 3.02235e-11 7.72879e-11 )  
( 7.18564e-10 1.12098e-10 1.92667e-10 )  
( 2.91525e-10 2.06977e-11 8.15443e-11 )  
( 2.46184e-09 3.74877e-10 4.91499e-10 )  
( 1.26902e-09 1.93969e-10 4.80787e-10 )  
( 4.37301e-10 4.78174e-11 1.7282e-10 )  
( 8.40068e-10 4.13143e-11 4.41827e-10 )  
( 1.67441e-09 5.381e-10 8.92869e-10 )  
( 5.30195e-10 5.64137e-11 3.18879e-10 )  
( 1.21318e-10 -1.07443e-10 8.01847e-10 )  
( 4.94738e-09 -3.66493e-10 1.19841e-09 )  
( 1.39304e-09 -2.35515e-11 2.94927e-10 )  
( 1.64172e-10 -1.57103e-10 1.06831e-10 )  
( 3.08659e-09 2.53033e-10 7.1526e-10 )  
( 1.01933e-09 -2.00103e-10 6.64884e-11 )  
( 7.78879e-10 -8.42208e-11 3.42797e-10 )  
( 1.37493e-09 -1.39569e-10 2.01622e-10 )  
( 1.54016e-09 -2.64277e-10 1.80434e-10 )  
( 1.15223e-09 3.55059e-10 1.29136e-09 )  
( 1.28616e-10 1.23256e-10 8.95357e-11 )  
( 8.09826e-11 9.2297e-11 4.86478e-11 )  
( 2.79514e-10 2.56291e-12 1.67324e-10 )  
( 5.49738e-10 1.8125e-10 1.65526e-10 )  
( 9.45717e-10 7.32171e-11 6.01223e-10 )  
( -2.87215e-10 5.58299e-10 9.92724e-10 )  
( 8.02329e-10 2.39147e-10 9.37972e-10 )  
( 2.64251e-10 2.30599e-10 3.9797e-10 )  
( 8.5776e-10 2.31086e-10 3.06611e-10 )  
( 1.40993e-09 -4.13526e-10 3.88246e-11 )  
( 8.48998e-11 1.93124e-11 1.99573e-10 )  
( 1.14471e-09 -8.59017e-11 6.18505e-10 )  
( 2.42507e-09 2.75801e-10 1.06171e-09 )  
( 8.19034e-10 8.44923e-11 3.29888e-10 )  
( 5.96418e-10 -3.84528e-11 2.70528e-10 )  
( 4.60336e-10 1.21577e-10 1.89233e-10 )  
( 3.66983e-10 -1.1314e-09 1.61271e-09 )  
( 7.20069e-10 5.75708e-11 3.17964e-10 )  
( 1.40897e-09 4.45542e-10 1.32873e-09 )  
( 2.33652e-10 6.81588e-11 2.38053e-10 )  
( 3.82346e-09 7.41264e-11 1.34327e-09 )  
( 1.90026e-09 1.32877e-10 5.78616e-10 )  
( 2.27079e-09 -8.7178e-11 5.53465e-10 )  
( 1.96048e-09 5.60157e-10 1.46397e-09 )  
( 1.56255e-09 -1.99074e-10 1.55811e-10 )  
( 1.47756e-09 1.2229e-10 5.42081e-10 )  
( 9.42051e-10 6.93455e-12 4.19458e-10 )  
( 6.34083e-10 -9.32177e-11 9.57949e-11 )  
( 1.74771e-10 5.8977e-11 1.1822e-10 )  
( 3.24026e-09 -2.80504e-10 1.65215e-09 )  
( 3.44064e-10 -2.2325e-12 2.10954e-10 )  
( 4.9242e-10 -8.97695e-11 1.67727e-10 )  
( 8.52347e-10 1.43627e-10 1.25667e-09 )  
( 1.17128e-09 2.30529e-10 6.12727e-10 )  
( 2.31076e-09 2.37111e-10 8.18304e-10 )  
( 2.43546e-09 -3.33698e-10 6.46036e-10 )  
( 1.23752e-09 3.1815e-10 9.67474e-10 )  
( 1.0247e-09 1.24924e-10 5.31542e-10 )  
( 1.34696e-10 -6.37771e-11 1.39376e-10 )  
( 8.00883e-10 -8.99881e-11 1.30109e-10 )  
( 6.44125e-10 -5.78134e-11 1.03279e-09 )  
( 4.69606e-10 -1.00356e-10 2.61704e-10 )  
( 2.15392e-10 1.18441e-11 7.98188e-11 )  
( 8.98595e-11 4.44208e-11 1.48752e-10 )  
( 2.14165e-10 -9.8312e-12 1.25132e-10 )  
( 6.65601e-10 1.68415e-10 1.8515e-10 )  
( 4.64826e-09 -5.12084e-10 1.89448e-09 )  
( 2.35936e-09 3.80292e-10 8.95934e-10 )  
( 1.90575e-09 1.67149e-10 4.73112e-10 )  
( 3.63928e-10 2.6898e-11 1.27656e-10 )  
( 1.40912e-09 -3.88077e-10 -9.04673e-11 )  
( 3.98665e-09 6.43176e-10 8.96127e-10 )  
( 2.5736e-10 4.28007e-11 2.35329e-10 )  
( 6.44156e-10 -1.19706e-10 3.49663e-10 )  
( 1.17455e-09 -1.01781e-10 9.2089e-11 )  
( 3.9123e-09 2.40465e-10 6.55555e-10 )  
( 1.45973e-10 7.53495e-11 2.09108e-10 )  
( 1.78296e-09 5.62834e-10 8.81902e-10 )  
( -1.05333e-10 6.31344e-10 1.05285e-09 )  
( 4.83543e-10 5.48555e-11 9.37005e-11 )  
( 5.76024e-10 -6.80296e-11 1.3732e-10 )  
( 8.52957e-10 6.2231e-11 1.0356e-09 )  
( 1.39169e-09 1.70166e-10 1.21957e-09 )  
( 1.27054e-10 3.56809e-11 2.63873e-11 )  
( 3.98611e-10 -6.45694e-11 6.81201e-10 )  
( 3.96424e-09 6.52408e-10 7.96237e-10 )  
( 1.28824e-09 -1.75258e-10 6.69382e-10 )  
( 1.7865e-10 7.88752e-11 2.56965e-10 )  
( 2.07316e-09 1.69572e-10 9.05721e-10 )  
( 1.07542e-10 2.56951e-11 1.49455e-10 )  
( 4.50396e-10 1.2204e-10 1.18455e-10 )  
( 2.23201e-09 7.94602e-10 6.2897e-10 )  
( 9.70435e-10 3.74039e-10 4.2767e-10 )  
( 5.19797e-10 2.63391e-11 7.7193e-11 )  
( 2.11365e-09 -1.53187e-10 2.97545e-10 )  
( 4.02344e-10 -3.75421e-10 3.39492e-10 )  
( 8.74431e-10 -6.4802e-10 8.75047e-10 )  
( 5.56799e-10 1.64181e-11 1.39904e-10 )  
( 7.74678e-10 -9.83729e-10 1.10653e-09 )  
( 6.12849e-10 5.66339e-11 1.86444e-10 )  
( 1.43621e-09 1.84715e-10 7.82831e-10 )  
( 5.78964e-10 1.46452e-10 3.0923e-10 )  
( 2.29302e-09 2.12685e-11 -3.10166e-10 )  
( 1.18732e-09 3.66144e-11 4.24875e-10 )  
( 3.24053e-10 -4.31135e-10 -8.18612e-11 )  
( 1.24864e-09 -3.47603e-10 2.79254e-10 )  
( 2.13573e-10 2.65207e-11 5.15695e-11 )  
( 1.13132e-09 1.04582e-10 8.52548e-10 )  
( 3.4102e-09 -4.14237e-11 8.83673e-10 )  
( 1.65195e-09 5.10126e-10 3.76286e-10 )  
( 3.21749e-10 5.66869e-11 -1.13199e-11 )  
( 3.04888e-10 -1.56304e-10 3.67347e-10 )  
( 1.9017e-09 -2.15257e-11 3.19638e-10 )  
( 1.32134e-09 -1.83034e-11 1.70973e-10 )  
( 1.56471e-10 -3.27091e-11 -1.29741e-10 )  
( 2.05253e-09 2.56615e-10 2.96572e-10 )  
( 4.63798e-10 -2.32262e-10 2.96595e-10 )  
( 2.6203e-10 3.58184e-11 3.1564e-11 )  
( 3.77103e-10 7.12588e-11 1.16002e-10 )  
( 5.47854e-10 -6.94211e-11 1.67145e-10 )  
( 1.04546e-09 1.05964e-12 3.38664e-10 )  
( 8.39597e-10 1.24175e-10 8.60758e-11 )  
( 3.27261e-10 -4.39132e-11 4.20027e-10 )  
( 2.90684e-10 4.30511e-11 8.27279e-11 )  
( 9.95097e-11 -6.75811e-11 -2.49731e-11 )  
( 1.59065e-10 1.16231e-11 -9.98608e-11 )  
( 1.04635e-09 -1.71249e-10 7.37504e-11 )  
( 3.0915e-09 4.34046e-10 7.14667e-10 )  
( 1.39864e-09 -3.76052e-10 4.44415e-11 )  
( 8.81976e-10 1.61986e-11 2.60486e-10 )  
( 7.31946e-10 -9.88348e-11 1.16462e-10 )  
( 3.70072e-10 5.05225e-11 1.5215e-10 )  
( 8.17318e-10 6.20267e-11 -1.15166e-11 )  
( 3.02143e-10 -3.1579e-11 8.82499e-11 )  
( 2.3365e-09 1.10208e-09 1.88766e-09 )  
( 3.5427e-10 -1.59684e-10 1.15197e-10 )  
( 3.32258e-10 1.07168e-10 7.90568e-11 )  
( 5.05012e-10 -1.54099e-10 3.49882e-10 )  
( 1.32983e-10 3.68776e-11 4.45876e-11 )  
( 7.9434e-10 3.99943e-10 2.10185e-10 )  
( 7.45784e-10 2.90837e-11 6.66372e-12 )  
( 8.92657e-11 5.74865e-11 2.12354e-11 )  
( 2.90117e-10 1.44513e-11 6.26235e-11 )  
( 3.08461e-09 1.96257e-10 8.16608e-10 )  
( 5.01619e-10 -8.23077e-11 5.88182e-11 )  
( 2.39125e-10 -4.95245e-12 6.53433e-11 )  
( 2.43561e-10 5.44703e-11 -2.0299e-11 )  
( 3.29932e-10 -3.25495e-11 4.10586e-10 )  
( 1.09613e-09 -1.6608e-10 4.99274e-11 )  
( 7.19204e-10 -1.24813e-10 4.98945e-10 )  
( 1.05502e-09 -6.72667e-11 3.82839e-10 )  
( 2.7011e-10 -8.4455e-12 2.8365e-11 )  
( 6.43471e-10 -7.88068e-11 1.49313e-10 )  
( 8.64815e-10 6.50827e-11 1.93483e-10 )  
( 2.34769e-10 -2.32295e-10 -4.64026e-11 )  
( 9.23162e-10 1.14218e-10 -8.46663e-13 )  
( 6.63759e-10 -2.45845e-10 -4.31576e-11 )  
( 8.00541e-10 -5.75639e-11 3.78926e-10 )  
( 4.16549e-10 1.60584e-10 9.83311e-11 )  
( 6.287e-10 -4.4359e-12 1.79913e-10 )  
( 2.68417e-10 -1.00028e-10 -8.04611e-11 )  
( 1.26652e-10 1.63495e-11 1.8593e-11 )  
( 1.73766e-09 4.85338e-10 7.93862e-10 )  
( 1.69073e-10 9.44345e-11 2.8397e-10 )  
( 1.40549e-10 6.74336e-12 1.45748e-11 )  
( 5.31917e-10 -2.80443e-10 1.0438e-11 )  
( 5.24019e-10 -8.21603e-11 1.01334e-10 )  
( 1.50222e-10 -1.85074e-10 9.41228e-11 )  
( 6.9602e-10 -3.5695e-10 5.71741e-10 )  
( 2.55012e-10 -9.36219e-11 1.57092e-10 )  
( 7.7876e-10 6.95099e-11 -1.19613e-10 )  
( 8.68133e-10 -7.01876e-10 1.64136e-10 )  
( 1.71188e-10 6.99288e-12 3.35114e-11 )  
( 3.11111e-10 -2.04852e-11 2.76515e-11 )  
( 4.61507e-10 -1.70913e-10 1.04285e-10 )  
( 3.43147e-10 1.75237e-11 -1.16411e-11 )  
( 6.24047e-10 -8.91525e-11 5.63718e-11 )  
( 4.25744e-10 -3.61023e-11 4.6824e-11 )  
( 5.5517e-10 -1.83783e-10 8.21698e-11 )  
( 2.25063e-10 3.86903e-11 1.2602e-10 )  
( 3.53716e-10 6.36108e-11 4.54538e-11 )  
( 4.28324e-10 -7.30041e-11 8.62307e-11 )  
( 1.34624e-10 1.42284e-11 -1.68288e-11 )  
( 1.01055e-10 -4.05872e-11 5.82482e-12 )  
( 4.00784e-10 7.27121e-11 3.59114e-11 )  
( 1.47359e-10 -3.40591e-11 3.57852e-11 )  
( 2.08584e-10 1.45422e-11 8.00699e-11 )  
( 1.69753e-10 3.83157e-11 3.50408e-12 )  
( 7.72281e-09 -3.36785e-09 -1.08853e-10 )  
( 3.01079e-10 -8.15525e-12 6.504e-11 )  
( 3.09186e-10 -1.5392e-10 1.74138e-10 )  
( 8.71615e-10 1.79663e-10 4.36272e-10 )  
( 2.06964e-10 3.42781e-11 2.4735e-11 )  
( 8.97034e-11 3.14028e-12 1.85468e-11 )  
( 6.59582e-10 -5.16639e-10 3.41372e-10 )  
( 2.43644e-09 -1.66717e-10 -1.00302e-10 )  
( 8.26261e-10 1.59211e-10 1.04117e-10 )  
( 6.74094e-10 -8.24488e-11 -2.26784e-11 )  
)
