/*--------------------------------*- C++ -*----------------------------------*\
  =========                 |
  \\      /  F ield         | OpenFOAM: The Open Source CFD Toolbox
   \\    /   O peration     | Website:  https://openfoam.org
    \\  /    A nd           | Version:  4.x
     \\/     M anipulation  |
\*---------------------------------------------------------------------------*/
FoamFile
{
    version     2.0;
    format      ascii;
    class       vectorField;
    location    0;
    object      v;
}
// * * * * * * * * * * * * * * * * * * * * * * * * * * * * * * * * * * * * * //

356
(
( 2.99615e-08 -1.38016e-09 -1.92739e-08 )  
( 4.83281e-08 -6.81093e-09 -2.72437e-08 )  
( 6.16976e-08 1.65645e-08 -4.08188e-08 )  
( 3.71417e-08 -9.2582e-09 -1.33635e-08 )  
( 8.33525e-08 -1.54006e-08 -6.66213e-08 )  
( 1.72628e-08 4.5326e-09 -1.73614e-08 )  
( 1.10981e-07 -4.10589e-08 -7.73512e-08 )  
( 6.58049e-08 -9.6647e-09 -5.42947e-08 )  
( 2.2023e-08 5.64133e-09 -2.22672e-08 )  
( 2.61888e-08 2.18611e-09 -2.52413e-08 )  
( 6.43357e-09 -1.01207e-09 -8.79799e-09 )  
( 3.48008e-08 -5.00443e-08 -6.54808e-08 )  
( 1.00416e-07 -2.31437e-08 -7.36474e-08 )  
( 9.03248e-08 -3.2849e-08 -6.55903e-08 )  
( 5.78047e-08 -7.69838e-09 -2.5147e-08 )  
( 8.6178e-08 -2.17926e-08 -6.50181e-08 )  
( 1.03954e-07 -2.98721e-08 -7.444e-08 )  
( 1.24747e-07 -4.20029e-08 -7.67397e-08 )  
( 7.40231e-08 -1.72019e-08 -3.20282e-08 )  
( 6.86031e-08 -3.57381e-08 -7.84086e-08 )  
( 7.73277e-08 -2.22502e-08 -7.33334e-08 )  
( 3.57099e-08 1.5746e-08 -4.61361e-08 )  
( 4.46673e-08 -2.53385e-10 -3.15526e-08 )  
( 1.00224e-07 -1.78848e-08 -6.43685e-08 )  
( 9.80712e-08 -3.68169e-08 -8.60236e-08 )  
( 4.18784e-08 -7.95854e-09 -2.97261e-08 )  
( 3.35214e-08 -1.693e-09 -2.42164e-08 )  
( 9.36682e-08 -4.14202e-08 -9.23808e-08 )  
( 1.63071e-08 -4.41681e-09 -1.52587e-08 )  
( 3.53813e-08 3.25838e-09 -1.61628e-08 )  
( 7.95636e-08 -1.95726e-08 -8.43384e-08 )  
( 9.14521e-08 -2.16701e-08 -4.58797e-08 )  
( 7.66784e-08 -1.31084e-08 -6.3617e-08 )  
( 1.29958e-08 -4.13547e-09 -1.8509e-08 )  
( 8.26275e-08 -5.76137e-09 -5.63096e-08 )  
( 4.15031e-09 -6.2156e-10 -1.18116e-08 )  
( 1.01915e-07 -2.85745e-08 -4.19763e-08 )  
( 7.81891e-09 2.40296e-09 -9.20741e-09 )  
( 4.91591e-08 -7.88529e-10 -2.66059e-08 )  
( 1.94194e-08 3.59842e-09 -1.56454e-08 )  
( 3.49921e-08 1.12924e-09 -2.682e-08 )  
( 1.10797e-07 -2.64166e-08 -5.77905e-08 )  
( 1.07854e-07 -2.32307e-08 -6.4217e-08 )  
( 6.36541e-08 -4.1594e-08 -4.90689e-08 )  
( 1.25772e-07 -3.49952e-08 -7.94885e-08 )  
( 3.82151e-08 -5.88058e-09 -1.10441e-08 )  
( 1.13179e-08 5.11955e-09 -5.20002e-08 )  
( 1.35272e-08 1.27739e-10 -7.28371e-09 )  
( 1.00421e-07 -2.75639e-08 -6.73711e-08 )  
( 6.42822e-08 -1.06755e-08 -2.39721e-08 )  
( 6.52413e-08 -9.14856e-09 -2.87844e-08 )  
( 6.18337e-08 -1.9685e-08 -2.99114e-08 )  
( 9.8545e-08 -8.1057e-09 -7.45912e-08 )  
( 1.08689e-07 -2.59381e-08 -6.17656e-08 )  
( 5.69157e-08 -7.28616e-09 -2.8155e-08 )  
( 9.05712e-08 -2.11879e-08 -4.34656e-08 )  
( 6.55023e-08 -6.89086e-09 -2.45671e-08 )  
( 1.07535e-07 -2.68589e-08 -6.97044e-08 )  
( 2.27927e-08 -4.74101e-10 -1.82686e-08 )  
( 4.15966e-08 -5.69933e-09 -2.56023e-08 )  
( 1.34326e-08 -1.67301e-10 -1.73431e-08 )  
( 6.69441e-08 -1.3322e-08 -4.14903e-08 )  
( 1.33241e-08 -1.29151e-09 -9.5523e-09 )  
( 4.54362e-08 -4.58019e-09 -2.654e-08 )  
( 7.42029e-08 -1.16487e-08 -3.48741e-08 )  
( 6.96277e-09 -2.01074e-09 -9.86389e-09 )  
( 5.945e-08 1.27222e-08 -5.07479e-08 )  
( 9.41168e-08 -6.62396e-09 -5.92359e-08 )  
( 9.69457e-08 -3.87421e-09 -6.43789e-08 )  
( 7.03992e-08 -1.44387e-08 -8.39429e-08 )  
( 9.96324e-08 -2.82024e-08 -7.52494e-08 )  
( 1.23485e-07 -5.4935e-08 -7.47996e-08 )  
( 9.36461e-08 -2.00618e-08 -5.36474e-08 )  
( 8.05394e-08 -2.96097e-08 -7.74302e-08 )  
( 1.26162e-08 1.18037e-09 -1.3906e-08 )  
( 2.46521e-08 2.95448e-09 -1.54021e-08 )  
( 4.91892e-09 -2.457e-09 -6.55711e-09 )  
( 4.94388e-08 -1.15828e-09 -2.82236e-08 )  
( 1.1657e-07 -2.68008e-08 -7.01328e-08 )  
( 1.15713e-07 -2.93616e-08 -6.07548e-08 )  
( 1.68246e-08 4.69722e-09 -1.31083e-08 )  
( 2.17098e-08 -2.59927e-09 -1.71675e-08 )  
( 3.49401e-08 -1.48188e-08 -2.27764e-08 )  
( 4.71189e-08 -1.06852e-08 -3.05253e-08 )  
( 1.12433e-08 -3.42577e-10 -1.1062e-08 )  
( 3.47043e-08 4.2663e-09 -1.95131e-08 )  
( 3.35573e-08 -3.16222e-09 -2.01354e-08 )  
( 1.10564e-07 -3.34501e-08 -7.35311e-08 )  
( -1.72564e-09 1.50764e-09 -6.61284e-09 )  
( 1.06817e-09 1.75989e-09 -3.47663e-09 )  
( 8.26849e-08 -1.94063e-08 -8.27569e-08 )  
( 1.13911e-07 -1.86792e-08 -4.06661e-08 )  
( 5.96536e-08 -8.77351e-09 -5.97374e-08 )  
( 1.53612e-08 -3.27425e-09 -3.11469e-08 )  
( 9.15875e-08 -7.47021e-10 -4.11534e-08 )  
( 4.55667e-08 -7.51798e-09 -2.41503e-08 )  
( 3.6323e-09 1.30273e-09 -4.30701e-09 )  
( 6.53212e-08 -7.1387e-09 -2.67097e-08 )  
( 3.94673e-08 -4.99008e-09 -5.63552e-08 )  
( 1.02995e-07 -1.87226e-08 -6.04499e-08 )  
( 4.25849e-08 -2.02456e-08 -5.43007e-08 )  
( 1.08258e-07 -4.30767e-08 -5.98099e-08 )  
( 1.05705e-08 2.50671e-09 -1.92336e-08 )  
( 3.01094e-08 -1.27364e-08 -4.67604e-08 )  
( -3.53126e-09 5.51523e-09 -2.2597e-08 )  
( 2.49537e-09 -1.09722e-09 -1.25973e-08 )  
( 7.02058e-08 -1.80778e-08 -2.49221e-08 )  
( 6.27921e-08 -2.73014e-08 -9.93752e-08 )  
( 8.5755e-08 -2.49871e-08 -3.34449e-08 )  
( 3.62456e-08 -1.51513e-09 -5.59165e-08 )  
( 5.90792e-08 -1.20799e-10 -4.27053e-08 )  
( 6.55481e-08 -5.53992e-10 -4.39293e-08 )  
( 1.41193e-07 -3.33955e-09 -4.07819e-08 )  
( 9.22772e-08 1.5368e-08 -8.29853e-08 )  
( 3.36222e-08 2.26316e-09 -2.79077e-08 )  
( 4.85216e-08 -2.78034e-08 -5.18199e-08 )  
( 7.726e-08 -1.25235e-08 -3.00333e-08 )  
( 1.03473e-07 -4.1994e-08 -7.33916e-08 )  
( 6.18969e-08 -9.86909e-09 -4.4704e-08 )  
( 1.13782e-07 -8.60263e-09 -6.73459e-08 )  
( 1.15867e-08 4.41652e-09 -7.46161e-09 )  
( 2.72611e-08 -6.27208e-09 -3.90986e-08 )  
( 5.20234e-08 -1.11983e-08 -1.78014e-08 )  
( 6.74269e-08 -1.08517e-08 -7.70783e-08 )  
( 2.23441e-08 -1.53507e-09 -1.1214e-08 )  
( 3.14396e-09 -6.88349e-10 -8.34585e-09 )  
( 1.01111e-07 -3.28192e-08 -7.08388e-08 )  
( 9.78623e-08 -3.13274e-08 -3.99971e-08 )  
( 9.85678e-08 -1.59893e-08 -5.02487e-08 )  
( 6.81976e-08 -9.18909e-09 -2.5151e-08 )  
( 8.66098e-08 -2.45908e-08 -7.75851e-08 )  
( 6.64527e-09 -1.55107e-09 -1.21895e-08 )  
( 9.08659e-08 -1.76978e-08 -2.79778e-08 )  
( 6.29388e-09 2.04487e-09 -7.78806e-09 )  
( 2.08959e-08 2.77381e-09 -1.57044e-08 )  
( 1.2941e-08 -7.04783e-10 -6.02187e-09 )  
( 1.91602e-08 -4.51028e-10 -8.90051e-09 )  
( 3.75093e-08 -4.23593e-09 -2.35756e-08 )  
( 1.11945e-08 4.90317e-09 -8.09264e-09 )  
( 7.41519e-08 -4.51818e-09 -4.50829e-08 )  
( 4.1345e-09 -2.51795e-09 -1.12224e-08 )  
( 9.97752e-08 -1.63553e-08 -5.74787e-08 )  
( 8.95396e-10 1.24056e-09 -3.45358e-09 )  
( 9.41958e-08 1.12182e-08 -6.95247e-08 )  
( 7.01047e-09 -1.75442e-09 -8.10173e-09 )  
( 5.03729e-08 -1.0691e-08 -4.60087e-08 )  
( 4.86639e-08 -1.11932e-08 -5.23494e-08 )  
( 3.61609e-08 -9.02763e-09 -4.56236e-08 )  
( 6.05264e-08 -7.9747e-09 -5.26247e-08 )  
( 7.7949e-09 1.1535e-09 -1.47528e-08 )  
( 1.73165e-08 -8.90072e-09 -2.26732e-08 )  
( 3.02201e-08 -1.21332e-08 -4.55676e-08 )  
( 5.3133e-08 -1.87677e-08 -4.02301e-08 )  
( 2.47636e-10 -4.77101e-09 -1.4416e-08 )  
( 5.72605e-08 -2.19883e-08 -6.75902e-08 )  
( 1.81786e-08 -7.53642e-09 -4.98787e-08 )  
( 1.05274e-07 -2.23007e-08 -4.06188e-08 )  
( 1.93914e-08 -5.67369e-09 -2.77152e-08 )  
( 1.29577e-09 -3.39615e-09 -1.21297e-08 )  
( 6.28738e-08 -1.40477e-08 -7.50336e-08 )  
( 5.39646e-09 -6.89432e-09 -3.32897e-08 )  
( 6.91364e-08 -9.73324e-09 -4.52642e-08 )  
( 4.72336e-09 -6.63511e-09 -1.84428e-08 )  
( 1.7447e-08 -1.29301e-08 -5.24498e-08 )  
( 3.29726e-08 -8.94555e-09 -6.10944e-08 )  
( 2.88622e-08 -5.02339e-09 -3.66522e-08 )  
( 2.4156e-08 -1.36414e-08 -2.69054e-08 )  
( 3.59057e-08 -1.66753e-08 -5.05733e-08 )  
( 4.19631e-08 -2.67173e-08 -7.30473e-08 )  
( 5.25182e-08 -1.87313e-08 -5.96384e-08 )  
( 5.81925e-08 6.12173e-10 -5.71954e-08 )  
( 3.50124e-08 1.61573e-09 -3.31241e-08 )  
( 4.42881e-08 -6.76577e-09 -4.22681e-08 )  
( 2.04285e-08 1.48665e-09 -3.58164e-08 )  
( 6.61982e-10 -1.61434e-09 -9.31266e-09 )  
( 9.00871e-09 -4.79795e-09 -3.05492e-08 )  
( 5.85349e-08 -9.35657e-09 -5.75288e-08 )  
( 6.89765e-09 -3.12651e-09 -1.82193e-08 )  
( 3.71108e-08 -5.66538e-09 -5.7048e-08 )  
( 8.14848e-09 -5.30099e-09 -2.26991e-08 )  
( 2.26903e-08 -6.58183e-10 -3.20672e-08 )  
( 3.53124e-09 -1.28077e-09 -8.66412e-09 )  
( 6.05092e-08 -1.8527e-08 -6.18031e-08 )  
( 4.48488e-09 -1.20818e-08 -3.90225e-08 )  
( 3.18666e-08 -5.63959e-09 -5.80302e-08 )  
( 3.17981e-08 4.21608e-09 -2.61285e-08 )  
( 4.87454e-08 -1.57086e-08 -5.59009e-08 )  
( 1.51039e-08 -3.7162e-09 -2.42335e-08 )  
( 2.23199e-08 2.96247e-09 -3.48814e-08 )  
( 6.19574e-08 -1.959e-08 -7.03116e-08 )  
( 7.73544e-09 5.96491e-09 -8.60004e-09 )  
( 3.43264e-08 -1.85299e-08 -6.05821e-08 )  
( 1.91267e-09 2.88772e-09 -7.73485e-09 )  
( 4.23954e-08 -1.66078e-08 -4.59317e-08 )  
( 4.88149e-08 -8.09424e-09 -5.4679e-08 )  
( 4.47189e-08 -6.40186e-09 -7.03959e-08 )  
( 8.42994e-08 -1.56045e-08 -5.65568e-08 )  
( 1.05311e-08 -5.60866e-09 -1.59057e-08 )  
( 1.84191e-08 1.10729e-08 -2.04966e-08 )  
( 4.04605e-08 1.93449e-09 -3.90223e-08 )  
( 1.63791e-08 5.73913e-09 -1.44383e-08 )  
( 5.33086e-08 -1.4498e-08 -5.4231e-08 )  
( 5.49298e-10 3.05533e-09 -3.22043e-09 )  
( -3.94202e-10 1.0118e-09 -3.63007e-09 )  
( 5.29907e-08 -2.06972e-08 -3.99291e-08 )  
( 5.44257e-08 -2.49795e-08 -5.60925e-08 )  
( 3.3908e-08 -4.80227e-09 -4.93714e-08 )  
( 7.48005e-08 -1.24153e-08 -6.24743e-08 )  
( -6.55789e-10 1.74859e-09 -4.3777e-09 )  
( 2.85638e-08 -1.21256e-08 -5.51607e-08 )  
( 2.03327e-08 -6.6575e-10 -1.99009e-08 )  
( 4.75318e-09 -5.37786e-09 -2.42497e-08 )  
( 3.65981e-09 1.71757e-09 -1.13841e-08 )  
( 7.44451e-09 -1.21173e-08 -2.40095e-08 )  
( 1.17028e-09 -2.40623e-09 -8.17484e-09 )  
( 3.84285e-09 -4.32428e-09 -1.26094e-08 )  
( 5.53349e-08 2.63836e-09 -4.96166e-08 )  
( 9.7614e-09 -1.07733e-08 -2.51549e-08 )  
( 7.62191e-08 -2.22124e-08 -4.95919e-08 )  
( 4.25772e-08 -2.62952e-08 -6.63997e-08 )  
( 7.74899e-08 -1.56081e-08 -5.91883e-08 )  
( 7.08262e-08 -3.79861e-09 -5.05345e-08 )  
( 5.59582e-09 -4.50012e-09 -1.98052e-08 )  
( 3.63282e-08 -5.37443e-09 -3.37281e-08 )  
( 1.11378e-07 -9.76058e-09 -6.48779e-08 )  
( 5.29223e-08 -1.5924e-08 -3.64813e-08 )  
( 8.17975e-08 -8.40143e-09 -5.49426e-08 )  
( 2.41948e-08 -8.19714e-09 -2.62548e-08 )  
( 2.25279e-09 -1.20285e-09 -7.7249e-09 )  
( 3.90858e-08 -7.4089e-09 -3.21435e-08 )  
( 8.43577e-08 -1.0054e-08 -4.85292e-08 )  
( 8.42481e-08 -1.7878e-08 -6.1341e-08 )  
( 1.46133e-08 -6.34154e-09 -1.95451e-08 )  
( 8.08276e-08 -1.46309e-08 -5.42524e-08 )  
( 2.80524e-08 -5.7274e-09 -2.21533e-08 )  
( 7.1821e-08 -1.56118e-08 -3.4178e-08 )  
( 5.12572e-08 -7.97413e-09 -6.68545e-08 )  
( -1.18884e-10 -9.83609e-10 -8.23279e-09 )  
( 1.94029e-08 -4.02986e-09 -3.23786e-08 )  
( 1.56148e-08 -8.20911e-09 -2.45714e-08 )  
( 4.68309e-08 -1.49424e-08 -5.49381e-08 )  
( 1.18098e-08 -3.95648e-09 -2.54437e-08 )  
( -9.23435e-09 -7.62727e-09 -2.91647e-08 )  
( 3.57794e-08 -8.65742e-09 -5.55029e-08 )  
( 1.99126e-08 -6.61364e-09 -4.59687e-08 )  
( 6.14925e-08 -1.2855e-08 -5.8245e-08 )  
( 2.2699e-08 -6.33631e-09 -6.84612e-08 )  
( 5.28938e-09 -3.30433e-09 -1.81474e-08 )  
( 8.45506e-08 -1.87377e-08 -4.64204e-08 )  
( 3.96739e-08 -4.29935e-09 -2.70518e-08 )  
( -3.23955e-10 5.75471e-10 -2.51629e-09 )  
( 1.04025e-08 -9.43721e-10 -2.27096e-08 )  
( 4.81385e-08 -8.03404e-09 -3.05633e-08 )  
( 2.1824e-08 -8.92721e-10 -1.94783e-08 )  
( 3.22035e-09 -1.30661e-09 -7.41683e-09 )  
( 6.5877e-08 -2.10169e-08 -5.46338e-08 )  
( 1.17523e-07 -3.58703e-08 -6.75276e-08 )  
( 5.04608e-08 -1.26764e-08 -3.90137e-08 )  
( 2.54367e-08 -4.70214e-09 -1.50895e-08 )  
( 4.59241e-08 -9.01939e-09 -1.52722e-08 )  
( 8.16199e-09 -2.34176e-10 -1.30594e-08 )  
( 3.50094e-08 -3.96092e-09 -3.26801e-08 )  
( 3.17814e-08 -4.8584e-09 -2.45373e-08 )  
( 6.64325e-08 -2.38386e-08 -4.78201e-08 )  
( 1.72421e-08 -6.14678e-09 -1.34228e-08 )  
( 1.74944e-08 6.16442e-10 -2.29646e-08 )  
( 7.76664e-08 4.13429e-09 -4.92454e-08 )  
( 6.30601e-08 -2.60567e-08 -3.01838e-08 )  
( 3.86952e-08 -6.49811e-09 -1.66232e-08 )  
( 3.89581e-08 -2.29811e-08 -5.81042e-08 )  
( 9.66249e-08 -1.15398e-08 -7.14378e-08 )  
( 8.28762e-08 -3.58127e-08 -7.526e-08 )  
( 3.46436e-08 -1.95155e-09 -4.92689e-08 )  
( 2.4789e-08 -1.36252e-08 -4.51938e-08 )  
( 1.00999e-07 -2.29557e-08 -6.41307e-08 )  
( 4.15342e-08 -3.64978e-09 -3.66825e-08 )  
( 9.88862e-09 2.85882e-09 -1.25542e-08 )  
( 5.90591e-08 -1.58092e-08 -6.66549e-08 )  
( 7.81012e-08 -2.18351e-08 -6.01024e-08 )  
( 6.72535e-08 -1.70786e-08 -5.50427e-08 )  
( 3.97054e-08 -5.60634e-09 -3.77931e-08 )  
( 1.21793e-09 1.63798e-09 -7.12345e-09 )  
( 9.18778e-08 -2.39288e-08 -7.84698e-08 )  
( 7.87249e-08 -1.77102e-08 -5.39951e-08 )  
( 5.57619e-08 -9.21646e-09 -5.23321e-08 )  
( 4.02326e-08 -4.16793e-09 -4.61475e-08 )  
( 7.69897e-08 -1.98508e-08 -7.71845e-08 )  
( 8.53309e-08 -1.35692e-08 -5.79144e-08 )  
( 1.09501e-09 2.53401e-09 -5.62945e-09 )  
( 1.99919e-08 -1.08676e-09 -2.91651e-08 )  
( 7.65174e-09 -2.84505e-09 -1.72417e-08 )  
( 1.07201e-07 -1.60731e-08 -5.33698e-08 )  
( 8.61108e-08 -2.65679e-08 -6.91276e-08 )  
( 4.59588e-09 4.08875e-09 -1.83268e-08 )  
( 4.85895e-08 -9.43282e-10 -3.35825e-08 )  
( 3.09793e-08 -8.33862e-09 -3.0411e-08 )  
( 3.34024e-08 -7.29522e-09 -4.59144e-08 )  
( 8.72369e-09 -3.68605e-09 -1.65468e-08 )  
( 5.05126e-09 -7.35806e-10 -7.20615e-09 )  
( 5.42598e-08 -4.06255e-09 -5.27062e-08 )  
( 6.68033e-08 -1.62372e-08 -6.15093e-08 )  
( 1.71279e-08 -2.90657e-10 -1.63903e-08 )  
( 5.49089e-09 -3.14171e-09 -1.37931e-08 )  
( 8.56376e-08 -3.1856e-08 -5.41161e-08 )  
( 1.25522e-07 -4.77185e-08 -7.74315e-08 )  
( 5.6179e-08 6.97344e-10 -2.15486e-08 )  
( 5.29256e-09 5.55824e-09 -6.31463e-09 )  
( 1.34284e-08 -1.2209e-09 -1.6096e-08 )  
( 4.35952e-08 9.51618e-09 -1.967e-08 )  
( 4.81666e-08 -1.0961e-08 -1.12248e-08 )  
( 4.84425e-10 4.30168e-10 -7.63736e-09 )  
( 1.20468e-08 -1.92068e-08 -6.42007e-08 )  
( 7.54435e-08 -3.66288e-08 -5.01844e-08 )  
( 8.88309e-08 -2.39527e-08 -4.9403e-08 )  
( 5.64798e-08 -3.88235e-09 -2.39436e-08 )  
( 6.54185e-11 -1.12961e-08 -5.93361e-08 )  
( 1.88785e-09 2.65099e-09 -6.09765e-09 )  
( 5.97779e-08 -6.42658e-09 -2.81015e-08 )  
( 7.33136e-08 -1.85485e-08 -2.80764e-08 )  
( 1.07793e-07 -4.09795e-08 -7.52574e-08 )  
( 1.28148e-07 -3.04035e-08 -1.03067e-07 )  
( 5.56193e-08 -2.61551e-08 -4.98779e-08 )  
( 8.49748e-08 -1.92472e-08 -3.93719e-08 )  
( 3.21896e-08 -7.22762e-09 -2.08026e-08 )  
( 6.47448e-08 -2.72108e-08 -2.45103e-08 )  
( 2.967e-08 3.63642e-10 -1.3516e-08 )  
( 8.12215e-08 -2.08326e-08 -2.43889e-08 )  
( 1.98965e-08 1.48527e-09 -9.3473e-09 )  
( 2.51046e-08 -3.87645e-09 -5.67504e-09 )  
( 4.34955e-08 -3.57314e-09 -1.25475e-08 )  
( 5.35114e-08 -2.38119e-08 -8.05324e-08 )  
( 7.74257e-08 -5.63904e-08 -5.90535e-08 )  
( 1.40988e-07 -6.67261e-08 -6.2367e-08 )  
( 1.12339e-07 -3.88318e-08 -7.45598e-08 )  
( 5.63499e-08 -8.38511e-10 -1.61836e-08 )  
( 7.76351e-09 5.39139e-09 -1.10073e-08 )  
( 4.47399e-08 -1.34306e-08 -1.60199e-08 )  
( 1.90904e-08 -5.41341e-09 -1.38284e-08 )  
( 3.79505e-08 -1.35391e-08 -2.28214e-08 )  
( 1.15947e-07 -8.34804e-08 -9.51739e-08 )  
( 7.59174e-08 -1.90528e-08 -1.90217e-08 )  
( 1.09413e-07 -4.96203e-08 -6.82907e-08 )  
( 9.73186e-08 -2.3759e-08 -3.17517e-08 )  
( -1.28042e-09 1.17799e-09 -3.1936e-09 )  
( 6.9332e-08 -1.20442e-08 -1.99087e-08 )  
( 4.73727e-08 -8.96805e-09 -6.07228e-08 )  
( 3.50182e-08 -1.09924e-08 -2.18696e-08 )  
( -1.97926e-09 -1.24272e-09 -1.09966e-08 )  
( 4.17486e-08 -2.454e-08 -3.23332e-08 )  
( 4.02506e-08 -1.45516e-08 -1.32694e-08 )  
( 1.07365e-09 -1.36255e-09 -7.56829e-09 )  
( 1.82036e-07 -2.08905e-08 -9.91685e-08 )  
( 1.2717e-08 -2.46107e-09 -1.52855e-08 )  
( 2.92724e-10 4.04998e-09 -4.07964e-09 )  
( 5.82819e-08 -3.88398e-09 -3.22901e-08 )  
( -3.76827e-09 -5.78916e-10 -6.15865e-09 )  
)
