/*--------------------------------*- C++ -*----------------------------------*\
| =========                 |                                                 |
| \\      /  F ield         | OpenFOAM: The Open Source CFD Toolbox           |
|  \\    /   O peration     | Version:  4.x                                   |
|   \\  /    A nd           | Web:      www.OpenFOAM.org                      |
|    \\/     M anipulation  |                                                 |
\*---------------------------------------------------------------------------*/
FoamFile
{
    version     2.0;
    format      ascii;
    class       volScalarField;
    location    "43";
    object      KslPrev;
}
// * * * * * * * * * * * * * * * * * * * * * * * * * * * * * * * * * * * * * //

dimensions      [1 -3 -1 0 0 0 0];

internalField   nonuniform List<scalar> 
87
(
3825.73
2552.59
3755.46
2395.96
3763.93
2110.56
4112.96
1682.16
5607.15
4470.85
2694.86
4416.51
2555.47
4540.31
2303.1
5122.6
1949.66
6047.32
5380.54
2957.49
5492.92
2853.91
5759.71
2628.58
6108.18
2189.32
6360.69
6047.14
3034.1
6100.4
2957.53
6435.81
2787.91
7699.11
2584.48
11113
11440.7
3397.26
12883.8
3289.64
15576.8
3056.61
16529.7
2811.26
10165.7
42344.2
3722.45
311032
3712.31
1e+10
3824.14
55636.6
4095.61
7618.6
6316.96
3011.48
6589.18
2905.49
7148.31
2699.68
8190.48
2500.91
8511.97
12445.5
3349.72
12431.4
3194.81
12293.8
2985.18
11004.7
2712.11
7602.72
36022.2
3710.73
44326.4
3670.65
39222.2
3621.78
20525.9
3693.15
8045.63
8729.58
3348.01
12467
62292.3
3721.65
1e+10
)
;

boundaryField
{
    inlet
    {
        type            zeroGradient;
    }
    outlet
    {
        type            zeroGradient;
    }
    wall
    {
        type            zeroGradient;
    }
    procBoundary1to0
    {
        type            processor;
        value           uniform 0;
    }
    procBoundary1to3
    {
        type            processor;
        value           uniform 0;
    }
    procBoundary1to5
    {
        type            processor;
        value           uniform 0;
    }
    procBoundary1to7
    {
        type            processor;
        value           uniform 0;
    }
}


// ************************************************************************* //
