/*--------------------------------*- C++ -*----------------------------------*\
| =========                 |                                                 |
| \\      /  F ield         | OpenFOAM: The Open Source CFD Toolbox           |
|  \\    /   O peration     | Version:  4.x                                   |
|   \\  /    A nd           | Web:      www.OpenFOAM.org                      |
|    \\/     M anipulation  |                                                 |
\*---------------------------------------------------------------------------*/
FoamFile
{
    version     2.0;
    format      ascii;
    class       volScalarField;
    location    "50.5";
    object      QWallFluidCoeff;
}
// * * * * * * * * * * * * * * * * * * * * * * * * * * * * * * * * * * * * * //

dimensions      [1 -1 -3 -1 0 0 0];

internalField   nonuniform List<scalar> 
132
(
-5.70061e+06
-3.21411e+06
-6.16596e+06
-4.05e+06
-6.57924e+06
-4.63956e+06
-6.91361e+06
-5.07311e+06
-7.27286e+06
-2.85914e+06
-1.53926e+06
-3.02567e+06
-1.86159e+06
-3.19331e+06
-2.10147e+06
-3.32909e+06
-2.27941e+06
-3.45779e+06
0
-1.48686e+06
-2.98786e+06
-1.74717e+06
-3.09752e+06
-1.93158e+06
-3.19566e+06
-2.03495e+06
-3.23623e+06
-2.8635e+06
-1.50063e+06
-2.99645e+06
-2.82721e+06
-1.42657e+06
-2.90742e+06
-1.59721e+06
-2.98917e+06
-1.72552e+06
-3.0654e+06
-1.80629e+06
-3.13185e+06
0
0
0
0
0
0
0
0
0
0
0
0
0
0
0
0
0
0
0
0
0
0
0
-2.78328e+06
-1.39366e+06
-2.83982e+06
-1.51815e+06
-2.91095e+06
-1.62798e+06
-2.98367e+06
-1.69523e+06
-3.06535e+06
0
0
0
0
0
0
0
0
0
0
0
0
0
0
0
0
0
0
0
0
0
0
0
0
0
-2.77926e+06
-1.37678e+06
-2.8187e+06
-1.46121e+06
-2.85033e+06
-1.48854e+06
-2.87143e+06
-1.45995e+06
-2.86844e+06
0
0
0
0
0
0
0
0
0
0
0
0
0
0
0
0
0
0
0
0
0
0
0
0
0
0
0
)
;

boundaryField
{
    inlet
    {
        type            calculated;
        value           uniform 0;
    }
    outlet
    {
        type            calculated;
        value           nonuniform 0();
    }
    wall
    {
        type            calculated;
        value           uniform 0;
    }
    procBoundary0to1
    {
        type            processor;
        value           uniform 0;
    }
    procBoundary0to2
    {
        type            processor;
        value           uniform 0;
    }
    procBoundary0to4
    {
        type            processor;
        value           uniform 0;
    }
    procBoundary0to6
    {
        type            processor;
        value           uniform 0;
    }
    procBoundary0to7
    {
        type            processor;
        value           uniform 0;
    }
}


// ************************************************************************* //
