/*--------------------------------*- C++ -*----------------------------------*\
| =========                 |                                                 |
| \\      /  F ield         | OpenFOAM: The Open Source CFD Toolbox           |
|  \\    /   O peration     | Version:  4.x                                   |
|   \\  /    A nd           | Web:      www.OpenFOAM.org                      |
|    \\/     M anipulation  |                                                 |
\*---------------------------------------------------------------------------*/
FoamFile
{
    version     2.0;
    format      ascii;
    class       volVectorField;
    location    "50.5";
    object      Urel;
}
// * * * * * * * * * * * * * * * * * * * * * * * * * * * * * * * * * * * * * //

dimensions      [0 1 -1 0 0 0 0];

internalField   nonuniform List<vector> 
132
(
(-0.0239367 0.000468902 0.00126681)
(-0.0223486 0.000440044 0.00119377)
(-0.0237105 0.000438687 0.00119638)
(-0.0229609 0.000379124 0.00107357)
(-0.0245253 0.000347974 0.00102428)
(-0.0239319 0.000277101 0.000894093)
(-0.025417 0.000240217 0.000844297)
(-0.0247745 0.000166046 0.000742183)
(-0.0261707 0.000104585 0.000689818)
(-0.0238366 0.000492474 0.00129696)
(-0.0221393 0.000457932 0.00120431)
(-0.0234287 0.000477684 0.00121107)
(-0.0225068 0.000408295 0.00108137)
(-0.0240184 0.000394895 0.00103852)
(-0.0232452 0.00031724 0.000893434)
(-0.0247183 0.000307154 0.000842335)
(-0.0239008 0.000246869 0.000716491)
(-0.0253098 0.000210364 0.000664342)
(-0.0237183 0.000350759 0.00132369)
(-0.0219208 0.000318783 0.00121239)
(-0.0231343 0.00032851 0.00122318)
(-0.0220487 0.000281417 0.00107952)
(-0.0234833 0.000260526 0.00104113)
(-0.0225361 0.000208001 0.000879905)
(-0.0239613 0.000193133 0.000818246)
(-0.0229724 0.000145376 0.000662404)
(-0.0243617 0.000123482 0.000606387)
(-0.0236501 0.000148849 0.0013165)
(-0.021833 0.000123295 0.00120133)
(-0.0230088 0.00012574 0.00120738)
(-0.0237321 0.00050637 0.00129982)
(-0.0219535 0.000461212 0.00119261)
(-0.0231793 0.000465507 0.00119766)
(-0.0220827 0.000401858 0.00104315)
(-0.0235562 0.00037841 0.000983905)
(-0.0225985 0.000296944 0.000838493)
(-0.0240699 0.000261988 0.000776603)
(-0.0230723 0.000172018 0.000662205)
(-0.0245129 0.000116898 0.000592623)
(-0.0236045 0.000531903 0.00133554)
(-0.0216762 0.00047188 0.00120349)
(-0.0228243 0.000501574 0.00121565)
(-0.0214903 0.000416394 0.00104147)
(-0.0229309 0.000416608 0.000990903)
(-0.0216853 0.000318148 0.000821577)
(-0.0232073 0.000310755 0.000763564)
(-0.0218914 0.000217135 0.000623458)
(-0.0234665 0.000193356 0.000556574)
(-0.0234523 0.0003679 0.00136763)
(-0.0213943 0.000320243 0.00121497)
(-0.0224642 0.000332778 0.00123638)
(-0.0209086 0.00027329 0.00103785)
(-0.0223087 0.000260721 0.000989985)
(-0.0208021 0.000198026 0.000797245)
(-0.0223533 0.000176173 0.000723769)
(-0.0207504 0.000125647 0.000573548)
(-0.0224328 9.95032e-05 0.000498102)
(-0.0233753 0.000125349 0.00137735)
(-0.0213079 0.000109654 0.00122321)
(-0.022324 0.000109576 0.00124372)
(-0.0207337 8.61374e-05 0.00103643)
(-0.0220913 8.11644e-05 0.000992442)
(-0.0235138 0.00055331 0.00115917)
(-0.0216298 0.000498955 0.00106448)
(-0.0227068 0.000505986 0.00107056)
(-0.021407 0.000431217 0.000935437)
(-0.0227513 0.000408998 0.000885914)
(-0.0215862 0.000318131 0.00076328)
(-0.0229834 0.000281542 0.000706323)
(-0.0217911 0.00018536 0.000623805)
(-0.023197 0.000126552 0.000563961)
(-0.0233556 0.000579865 0.00118701)
(-0.0212998 0.000508795 0.00107192)
(-0.0222908 0.000545851 0.00107895)
(-0.0207071 0.000443244 0.000913901)
(-0.0220339 0.000442284 0.00086559)
(-0.0205343 0.000330321 0.000721773)
(-0.0220193 0.000309997 0.000667041)
(-0.0204748 0.000220715 0.000558628)
(-0.0220748 0.000184591 0.000500652)
(-0.0231727 0.000405043 0.00120389)
(-0.0209643 0.000351367 0.00107721)
(-0.0218579 0.000371742 0.00108421)
(-0.0199973 0.000292396 0.000892996)
(-0.0213131 0.000285008 0.000838777)
(-0.0195059 0.000211149 0.000672021)
(-0.0210753 0.000191226 0.000589943)
(-0.0192513 0.000139921 0.000487229)
(-0.0209656 0.000117765 0.000393938)
(-0.0230899 0.000131029 0.00120187)
(-0.0208416 0.000114171 0.001074)
(-0.0216945 0.00012154 0.00107353)
(-0.0197672 9.7369e-05 0.000875768)
(-0.0210694 0.000104903 0.000818)
(-0.0192114 8.94444e-05 0.000653971)
(-0.0207875 9.84106e-05 0.00058341)
(-0.0233813 0.00059297 0.000878438)
(-0.0214323 0.000530883 0.000809787)
(-0.022418 0.00053562 0.00080691)
(-0.020976 0.00044791 0.000705852)
(-0.0222195 0.000421239 0.000657183)
(-0.0208857 0.000332162 0.000565945)
(-0.0222004 0.000293821 0.000510946)
(-0.0208223 0.000199317 0.000441029)
(-0.0221723 0.000141288 0.000364195)
(-0.0231964 0.000611302 0.000892348)
(-0.021043 0.000534106 0.000805144)
(-0.0219378 0.000567416 0.000802011)
(-0.0201479 0.000450447 0.000673516)
(-0.0214149 0.000444338 0.000625797)
(-0.0196857 0.000330078 0.00051477)
(-0.0211624 0.000290297 0.000467096)
(-0.0193638 0.000208558 0.000381012)
(-0.0209999 0.000140678 0.000331987)
(-0.0229976 0.000402699 0.000893699)
(-0.0206882 0.000350749 0.000796039)
(-0.0214772 0.000358312 0.000778994)
(-0.0194015 0.000280057 0.000637352)
(-0.0206663 0.000257723 0.000583589)
(-0.0186289 0.000194165 0.000463533)
(-0.020214 0.000152541 0.000417273)
(-0.0182046 0.000118951 0.000321782)
(-0.0199381 7.37195e-05 0.000265692)
(-0.0229233 0.000113624 0.000892148)
(-0.0205958 9.06865e-05 0.000797695)
(-0.0213451 7.83245e-05 0.000784017)
(-0.0192488 6.46113e-05 0.000643385)
(-0.020484 5.19964e-05 0.000598988)
(-0.0184655 5.0148e-05 0.000472714)
(-0.020018 5.22823e-05 0.000423694)
(-0.0180128 3.85732e-05 0.000331042)
(-0.0197337 3.70543e-05 0.000270127)
)
;

boundaryField
{
    inlet
    {
        type            calculated;
        value           nonuniform List<vector> 
16
(
(-0.01 2.02123e-11 2.81947e-11)
(-0.01 2.64541e-11 5.1602e-11)
(-0.01 -1.56772e-11 7.59126e-11)
(-0.01 -2.34688e-11 2.65899e-11)
(-0.01 2.10865e-11 1.14685e-11)
(-0.01 5.92751e-12 1.59549e-11)
(-0.01 9.63627e-12 3.82103e-12)
(-0.01 -6.49055e-12 1.99564e-11)
(-0.01 1.17507e-11 1.05172e-11)
(-0.01 -2.11317e-11 3.3534e-11)
(-0.01 2.36078e-12 2.84438e-11)
(-0.01 -2.83698e-11 6.37287e-11)
(-0.01 2.23751e-11 5.27509e-12)
(-0.01 -1.29241e-11 2.36058e-11)
(-0.01 4.5085e-11 5.39296e-11)
(-0.01 -3.69465e-12 8.15205e-11)
)
;
    }
    outlet
    {
        type            calculated;
        value           nonuniform 0();
    }
    wall
    {
        type            calculated;
        value           nonuniform List<vector> 
66
(
(1.54304e-11 2.02123e-11 2.81947e-11)
(5.3976e-11 2.64541e-11 5.1602e-11)
(1.80207e-10 -1.56772e-11 7.59126e-11)
(4.0027e-11 -2.34688e-11 2.65899e-11)
(3.59127e-11 1.98715e-11 4.83265e-11)
(2.00055e-10 -3.73272e-11 8.95063e-11)
(2.53095e-10 -4.19638e-11 1.00697e-10)
(2.30537e-10 -6.6663e-11 8.17992e-11)
(5.98369e-11 1.17224e-09 6.86063e-11)
(2.74804e-10 4.26273e-11 1.39761e-10)
(3.42825e-10 -1.65542e-11 1.45315e-10)
(3.01016e-10 -1.07993e-10 9.23969e-11)
(1.41185e-10 7.60402e-11 1.15009e-10)
(3.22902e-10 1.93263e-11 1.61651e-10)
(4.33557e-10 5.36973e-11 1.94594e-10)
(1.20734e-10 1.83474e-10 1.48571e-10)
(3.63685e-10 7.09231e-11 2.20052e-10)
(5.13292e-10 1.1472e-10 3.17961e-10)
(1.31066e-10 1.15834e-10 2.79321e-10)
(5.00456e-10 1.10254e-10 3.82965e-10)
(9.46363e-10 -8.71389e-12 3.65753e-10)
(-2.06624e-10 3.28754e-10 7.28537e-10)
(1.17679e-09 6.5645e-11 6.92446e-10)
(1.24943e-09 -5.35555e-11 6.85711e-10)
(-3.93342e-10 4.63254e-10 2.81536e-11)
(1.93283e-09 1.10804e-13 1.53008e-09)
(1.86962e-09 -8.53443e-10 1.49671e-09)
(-2.12778e-10 1.32651e-10 4.04219e-10)
(2.79757e-09 -2.15892e-09 3.78727e-09)
(1.96669e-09 -1.82243e-09 2.18868e-09)
(1.54304e-11 2.02123e-11 2.81947e-11)
(-2.42199e-12 2.10865e-11 1.14685e-11)
(7.78835e-12 1.17507e-11 1.05172e-11)
(8.20116e-12 2.23751e-11 5.27509e-12)
(3.59127e-11 1.98715e-11 4.83265e-11)
(4.82961e-11 2.80434e-11 3.5945e-11)
(2.94424e-11 1.77258e-11 3.22121e-11)
(3.52032e-11 3.18228e-11 3.61113e-11)
(5.98369e-11 1.17224e-09 6.86063e-11)
(5.67644e-11 5.20961e-11 4.5118e-11)
(3.48148e-11 2.24226e-11 5.1632e-11)
(2.83761e-11 5.24405e-12 5.04177e-11)
(1.41185e-10 7.60402e-11 1.15009e-10)
(1.36872e-10 3.72305e-11 1.10685e-10)
(9.16828e-11 1.88454e-11 1.2343e-10)
(7.56939e-11 3.40492e-11 1.19049e-10)
(1.20734e-10 1.83474e-10 1.48571e-10)
(1.25799e-10 4.93367e-11 1.40341e-10)
(6.45329e-11 2.93922e-11 1.50985e-10)
(6.19644e-11 3.34698e-11 1.63211e-10)
(1.31066e-10 1.15834e-10 2.79321e-10)
(5.7387e-11 6.14414e-11 2.72169e-10)
(6.34998e-12 1.00894e-10 3.79721e-10)
(-2.2748e-11 6.69264e-11 3.15901e-10)
(-2.06624e-10 3.28754e-10 7.28537e-10)
(-1.37513e-10 -2.2235e-11 5.85107e-10)
(-2.0354e-10 1.22269e-11 6.76273e-10)
(-1.06561e-10 1.2889e-10 4.70686e-10)
(-3.93342e-10 4.63254e-10 2.81536e-11)
(1.84286e-10 2.27062e-10 -4.79891e-10)
(-7.33498e-11 7.78158e-11 5.01726e-10)
(-9.26521e-11 2.08548e-11 1.12941e-09)
(-2.12778e-10 1.32651e-10 4.04219e-10)
(-1.68892e-09 -1.28877e-09 3.13998e-09)
(-1.68095e-09 -6.04898e-10 4.08325e-09)
(-3.4151e-10 -1.88045e-10 2.81687e-09)
)
;
    }
    procBoundary0to1
    {
        type            processor;
        value           nonuniform List<vector> 
12
(
(-0.0254582 -2.87083e-06 0.00060977)
(-0.0244202 0.000127598 0.000576788)
(-0.0232817 6.67498e-05 0.000505883)
(-0.0234407 1.47312e-05 0.000507924)
(-0.0220618 0.000106325 0.000462147)
(-0.0207047 5.80481e-05 0.000408844)
(-0.0219204 2.58106e-05 0.000511477)
(-0.020477 0.000119518 0.000435027)
(-0.0190945 7.63171e-05 0.000346832)
(-0.0206402 6.06777e-05 0.000291135)
(-0.0191029 9.39867e-05 0.000252576)
(-0.0179845 5.41079e-05 0.000209345)
)
;
    }
    procBoundary0to2
    {
        type            processor;
        value           nonuniform List<vector> 
44
(
(-0.0218842 0.000105412 0.00106018)
(-0.0232817 0.000104965 0.00101894)
(-0.0222975 9.48214e-05 0.000849976)
(-0.0237065 9.84526e-05 0.000773082)
(-0.0227028 7.94067e-05 0.00061338)
(-0.0241078 7.85926e-05 0.00054026)
(-0.0236549 -0.000110309 0.00126783)
(-0.0218121 -0.000103003 0.00117136)
(-0.0218842 0.000105412 0.00106018)
(-0.0229898 -0.00011487 0.00117733)
(-0.0218842 0.000105412 0.00106018)
(-0.0232817 0.000104965 0.00101894)
(-0.0205557 7.15687e-05 0.000792234)
(-0.0220954 7.19424e-05 0.000719911)
(-0.0205096 5.59706e-05 0.000564377)
(-0.0221854 4.71677e-05 0.000487526)
(-0.0234154 -0.000150367 0.0013399)
(-0.0213431 -0.000127327 0.00120027)
(-0.0223719 -0.000145013 0.0012246)
(-0.0207567 -0.000125453 0.00102547)
(-0.0205557 7.15687e-05 0.000792234)
(-0.022135 -0.000128429 0.000983271)
(-0.0205557 7.15687e-05 0.000792234)
(-0.0220954 7.19424e-05 0.000719911)
(-0.0189353 7.63522e-05 0.000470441)
(-0.0206608 6.01209e-05 0.000399982)
(-0.0231443 -0.000173313 0.00118745)
(-0.0209088 -0.000143122 0.00105365)
(-0.0217643 -0.000149148 0.00104798)
(-0.0198443 -0.00011942 0.000863141)
(-0.0211372 -0.000104395 0.00080276)
(-0.0192437 -6.62028e-05 0.00063699)
(-0.0189353 7.63522e-05 0.000470441)
(-0.0208234 -2.64297e-05 0.000556263)
(-0.0189353 7.63522e-05 0.000470441)
(-0.0206608 6.01209e-05 0.000399982)
(-0.0229709 -0.000208058 0.000901197)
(-0.0206502 -0.000182434 0.000788463)
(-0.0214276 -0.000204665 0.000775779)
(-0.0193657 -0.000153044 0.000640263)
(-0.0206124 -0.000156974 0.000582734)
(-0.0186175 -0.000101082 0.000463544)
(-0.0201687 -8.91245e-05 0.000387523)
(-0.0181594 -4.61485e-05 0.000324491)
)
;
    }
    procBoundary0to4
    {
        type            processor;
        value           nonuniform List<vector> 
36
(
(-0.0233593 0.0006111 0.000514148)
(-0.0214275 0.000544898 0.000477871)
(-0.0223709 0.000550959 0.00046235)
(-0.0209182 0.00045906 0.000414489)
(-0.022124 0.000430417 0.000362548)
(-0.0207923 0.00033693 0.000315792)
(-0.0220888 0.000303886 0.000261977)
(-0.0207418 0.000228683 0.000213399)
(-0.0221058 0.000196693 0.000122132)
(-0.0231681 0.000627355 0.000499329)
(-0.0210357 0.000544689 0.000456686)
(-0.0218876 0.000570926 0.000430499)
(-0.0201008 0.000453652 0.000376707)
(-0.0213436 0.000443708 0.000323061)
(-0.019635 0.000333635 0.000274118)
(-0.0210837 0.000310897 0.000221274)
(-0.0193318 0.000228428 0.000178565)
(-0.0209466 0.000191676 0.000108652)
(-0.0229771 0.000424082 0.000486759)
(-0.0206874 0.000370211 0.000438112)
(-0.0214408 0.000384035 0.000399943)
(-0.0194078 0.000304757 0.000339358)
(-0.0206348 0.000300393 0.000283272)
(-0.0186615 0.000220734 0.000234629)
(-0.020186 0.000196054 0.000200989)
(-0.0181672 0.000140196 0.000151329)
(-0.019925 0.000101939 0.000119479)
(-0.0228906 0.000143219 0.000497728)
(-0.020553 0.000110024 0.000439826)
(-0.0212567 0.000121293 0.000411693)
(-0.0191369 9.78476e-05 0.000347543)
(-0.0203384 0.000102463 0.000301733)
(-0.0182606 7.68502e-05 0.000240234)
(-0.0198094 6.17506e-05 0.000205762)
(-0.0177277 5.92927e-05 0.000158087)
(-0.0195055 5.84423e-05 0.000123232)
)
;
    }
    procBoundary0to6
    {
        type            processor;
        value           uniform (-0.0199274 -3.96516e-05 0.000275124);
    }
    procBoundary0to7
    {
        type            processor;
        value           uniform (-0.0177461 2.52157e-05 0.000222194);
    }
}


// ************************************************************************* //
