/*--------------------------------*- C++ -*----------------------------------*\
| =========                 |                                                 |
| \\      /  F ield         | OpenFOAM: The Open Source CFD Toolbox           |
|  \\    /   O peration     | Version:  4.x                                   |
|   \\  /    A nd           | Web:      www.OpenFOAM.org                      |
|    \\/     M anipulation  |                                                 |
\*---------------------------------------------------------------------------*/
FoamFile
{
    version     2.0;
    format      ascii;
    class       volVectorField;
    location    "38.5";
    object      ddtUrel;
}
// * * * * * * * * * * * * * * * * * * * * * * * * * * * * * * * * * * * * * //

dimensions      [0 1 -2 0 0 0 0];

internalField   nonuniform List<vector> 
114
(
(-3.85018e-09 -7.64632e-11 4.3612e-10)
(-1.73605e-09 -6.78868e-11 6.51574e-10)
(-2.09894e-11 -3.58809e-11 9.15551e-10)
(1.36079e-09 1.13212e-11 1.20914e-09)
(2.63105e-09 8.42699e-11 1.43922e-09)
(3.95159e-09 1.0489e-10 1.65747e-09)
(-4.65348e-09 -4.80534e-11 2.25624e-10)
(-2.96624e-09 -8.54372e-11 4.47161e-10)
(-1.337e-09 -9.81102e-11 6.86227e-10)
(4.79857e-11 -8.82757e-11 9.50009e-10)
(1.21034e-09 -6.71703e-11 1.21273e-09)
(2.15258e-09 -2.18849e-12 1.35917e-09)
(2.935e-09 5.43776e-11 1.54214e-09)
(-3.51684e-09 8.76177e-11 2.08159e-13)
(-2.9024e-09 1.76348e-11 1.82344e-10)
(-1.84943e-09 -5.16405e-11 4.37445e-10)
(-7.53851e-10 -9.32073e-11 7.0509e-10)
(2.34629e-10 -1.20752e-10 9.61364e-10)
(1.0955e-09 -9.98829e-11 1.16189e-09)
(1.76184e-09 -3.14601e-11 1.23677e-09)
(2.22805e-09 8.75315e-11 1.31957e-09)
(-3.04718e-09 5.90999e-11 -4.87108e-11)
(-3.37178e-09 2.35393e-11 4.16062e-11)
(-2.78481e-09 -1.29673e-12 1.44398e-10)
(-1.78117e-09 -3.83884e-11 2.79109e-10)
(-8.2663e-10 -6.51264e-11 4.39584e-10)
(2.29372e-11 -6.47897e-11 6.02795e-10)
(7.31964e-10 -4.09641e-11 7.58522e-10)
(1.32105e-09 8.7638e-12 8.48449e-10)
(1.81089e-09 4.53002e-11 9.46916e-10)
(-2.47829e-09 9.39049e-11 -7.69234e-11)
(-2.67923e-09 4.66786e-11 2.14221e-11)
(-2.24552e-09 1.53143e-11 1.40988e-10)
(-1.44097e-09 -4.02808e-11 2.95624e-10)
(-6.31746e-10 -8.08016e-11 4.68989e-10)
(1.01561e-10 -9.53276e-11 6.38573e-10)
(7.37695e-10 -8.20676e-11 7.91201e-10)
(1.24409e-09 -2.3245e-11 8.43234e-10)
(1.57652e-09 3.55895e-11 9.41454e-10)
(-1.6844e-09 1.64151e-10 -1.18544e-10)
(-1.77826e-09 1.17763e-10 -9.27978e-12)
(-1.47326e-09 6.17771e-11 1.2914e-10)
(-9.2453e-10 -1.45166e-11 3.11745e-10)
(-3.28149e-10 -6.86132e-11 4.9922e-10)
(2.3458e-10 -9.93457e-11 6.72817e-10)
(7.46574e-10 -9.02328e-11 8.13392e-10)
(1.11607e-09 -2.87328e-11 8.49222e-10)
(1.33614e-09 1.89357e-11 9.09778e-10)
(-9.21984e-10 2.30657e-10 -1.44023e-10)
(-9.48595e-10 1.87696e-10 -2.93942e-11)
(-1.47261e-09 6.9457e-11 -6.51525e-11)
(-1.52567e-09 4.35344e-11 4.91615e-12)
(-1.25656e-09 2.03555e-11 8.51721e-11)
(-7.13516e-10 -5.52156e-12 1.75334e-10)
(-3.68219e-10 -4.91045e-11 2.96987e-10)
(-8.2644e-12 -5.84086e-11 4.0327e-10)
(2.95266e-10 -4.18363e-11 4.88544e-10)
(4.71558e-10 -6.40115e-13 5.28658e-10)
(8.53682e-10 7.87695e-11 5.0826e-10)
(-1.26645e-09 1.01846e-10 -8.23493e-11)
(-1.29641e-09 6.99908e-11 -6.25915e-12)
(-1.10469e-09 4.04366e-11 8.7264e-11)
(-6.61715e-10 -5.69794e-12 1.95317e-10)
(-2.89853e-10 -5.78248e-11 3.22227e-10)
(5.92647e-11 -7.41807e-11 4.35313e-10)
(3.72408e-10 -6.11899e-11 5.18993e-10)
(6.00735e-10 -1.91596e-11 5.44549e-10)
(7.7051e-10 6.66605e-11 5.12881e-10)
(-9.23217e-10 1.62308e-10 -1.06289e-10)
(-9.25416e-10 1.25296e-10 -2.03613e-11)
(-7.86869e-10 8.2599e-11 8.51613e-11)
(-4.59383e-10 1.48224e-11 2.15588e-10)
(-1.4228e-10 -4.04707e-11 3.48154e-10)
(1.44883e-10 -6.54232e-11 4.64343e-10)
(4.27856e-10 -5.9401e-11 5.55011e-10)
(6.29213e-10 -1.07484e-11 5.62718e-10)
(7.42933e-10 4.20797e-11 5.60318e-10)
(-5.3075e-10 2.09677e-10 -1.15192e-10)
(-5.07219e-10 1.80044e-10 -2.84151e-11)
(-4.03927e-10 1.32574e-10 8.90263e-11)
(-1.81277e-10 6.88075e-11 2.27178e-10)
(-8.1385e-10 6.79858e-11 -6.07519e-11)
(-7.75775e-10 4.66065e-11 -5.08686e-12)
(-6.15888e-10 2.29795e-11 6.0035e-11)
(-2.17222e-10 2.26779e-12 1.33878e-10)
(-1.86748e-10 -3.34958e-11 2.27741e-10)
(-1.10098e-10 -4.42173e-11 3.05528e-10)
(-8.11935e-11 -2.61481e-11 3.43377e-10)
(-5.10105e-10 1.63898e-11 3.33592e-10)
(2.61726e-11 2.52103e-10 -4.80603e-11)
(-7.00999e-10 9.13088e-11 -7.23059e-11)
(-6.53892e-10 6.78679e-11 -1.21782e-11)
(-5.4031e-10 4.14984e-11 6.45179e-11)
(-2.65357e-10 1.13275e-11 1.45082e-10)
(-1.51361e-10 -3.14709e-11 2.43113e-10)
(-5.98387e-11 -4.89456e-11 3.27251e-10)
(4.88007e-11 -3.7911e-11 3.79071e-10)
(1.88892e-11 -1.91695e-11 3.85334e-10)
(3.76633e-10 7.11995e-11 2.39601e-10)
(-5.19301e-10 1.39396e-10 -8.36299e-11)
(-4.81248e-10 1.11554e-10 -1.89033e-11)
(-4.15928e-10 7.74221e-11 6.5684e-11)
(-2.07642e-10 2.7304e-11 1.62146e-10)
(-9.37264e-11 -1.61614e-11 2.66995e-10)
(-3.87059e-13 -3.97589e-11 3.50949e-10)
(1.25102e-10 -3.42976e-11 4.03255e-10)
(1.36001e-10 1.76569e-13 4.09907e-10)
(3.85306e-10 6.53824e-11 3.08553e-10)
(-2.88612e-10 1.84164e-10 -8.86819e-11)
(-2.35245e-10 1.59588e-10 -2.2289e-11)
(-2.10273e-10 1.15913e-10 7.09523e-11)
(-6.75707e-11 6.89308e-11 1.74723e-10)
(1.25128e-11 2.62393e-11 2.83317e-10)
(9.39208e-11 -9.08072e-12 3.68222e-10)
)
;

boundaryField
{
    inlet
    {
        type            calculated;
        value           nonuniform 0();
    }
    outlet
    {
        type            calculated;
        value           nonuniform List<vector> 
12
(
(4.52126e-09 -6.99535e-10 6.09031e-10)
(1.11926e-09 -8.44285e-10 1.73994e-09)
(7.15321e-10 3.19954e-10 1.37501e-09)
(4.29963e-10 -1.06798e-10 4.63659e-10)
(2.07429e-10 -4.29958e-10 1.16268e-09)
(4.59983e-10 -4.25632e-10 9.8074e-10)
(6.0454e-10 -5.87418e-11 1.06653e-09)
(-2.73862e-10 4.18345e-10 -1.39923e-10)
(6.42664e-11 6.41236e-11 5.096e-10)
(-3.55725e-09 1.79458e-09 -3.31795e-09)
(-2.17817e-10 -5.49487e-10 -6.99377e-11)
(-4.49104e-10 1.97321e-10 -4.90039e-10)
)
;
    }
    wall
    {
        type            calculated;
        value           nonuniform List<vector> 
66
(
(5.56886e-10 7.13501e-12 -4.27528e-11)
(6.1341e-10 -2.45805e-11 -7.75349e-11)
(2.76413e-10 8.02445e-11 -7.70199e-11)
(2.63222e-10 8.90757e-11 -7.0609e-11)
(1.50015e-09 -6.19696e-12 -1.92876e-11)
(2.03894e-09 -2.12409e-11 -6.19798e-11)
(1.31615e-09 6.07233e-11 -7.20752e-11)
(1.43183e-09 1.42278e-10 -9.84964e-11)
(5.74607e-10 -3.80141e-11 -4.31501e-11)
(1.50468e-09 -4.97548e-11 1.98362e-11)
(5.56244e-10 7.2411e-11 -1.60003e-11)
(2.8989e-10 -7.32333e-13 6.04505e-12)
(4.14877e-09 4.03117e-11 -5.43833e-11)
(1.69089e-09 7.71871e-11 -7.74132e-11)
(1.10432e-09 -4.5026e-11 -1.28032e-11)
(8.30618e-10 -4.75479e-12 6.70885e-12)
(3.55334e-11 -7.09915e-11 1.21187e-11)
(2.78395e-10 -7.33513e-11 2.02421e-11)
(-1.27263e-10 -7.92483e-11 9.67094e-11)
(-7.9604e-11 -4.83959e-11 1.06776e-10)
(-9.84911e-10 -8.08413e-11 6.6616e-11)
(-1.12691e-09 -1.08757e-10 1.03437e-10)
(-1.47494e-09 -1.21668e-10 1.51172e-10)
(-9.20197e-10 -1.69282e-10 1.24522e-10)
(-6.16756e-10 2.94077e-11 -1.8508e-10)
(-1.22708e-09 1.18943e-10 1.15515e-11)
(-1.0341e-09 -1.32958e-11 -1.00124e-10)
(-1.51506e-08 -5.82281e-10 1.02189e-09)
(-4.73926e-09 -5.81127e-10 6.70256e-10)
(-4.71285e-09 -2.04326e-10 5.74962e-10)
(-5.29702e-09 4.75436e-09 -7.98501e-09)
(8.22978e-10 4.07113e-10 -6.81313e-10)
(-4.11315e-10 3.2909e-10 -1.13923e-09)
(-2.11787e-10 4.3743e-11 -1.25093e-10)
(-1.22476e-10 2.65598e-11 -1.31292e-10)
(3.2874e-10 1.08546e-11 -5.49693e-11)
(-5.21534e-10 1.15245e-11 -1.27449e-10)
(1.81898e-10 6.29901e-12 -7.47096e-11)
(8.27e-10 -9.79133e-13 -4.26625e-11)
(2.20004e-10 6.89934e-11 -1.08192e-10)
(3.32422e-10 3.58902e-11 -6.41522e-11)
(4.19388e-10 -3.37641e-11 -5.30753e-11)
(5.94273e-10 -2.202e-10 3.88425e-11)
(5.57689e-10 -5.02173e-11 -1.21777e-11)
(2.9549e-09 1.43107e-10 -1.74803e-10)
(3.84995e-09 4.87641e-11 -6.30762e-11)
(6.03056e-10 -1.41592e-10 1.77094e-10)
(2.66856e-10 -1.44767e-10 1.2279e-10)
(1.85271e-10 -1.34589e-10 4.35001e-11)
(5.02785e-11 -7.36748e-11 1.41334e-11)
(1.09434e-09 -1.42126e-10 3.78077e-10)
(5.56322e-10 -1.55338e-10 1.73568e-10)
(1.73044e-10 -1.18388e-10 6.31934e-11)
(-4.77971e-10 -8.06219e-11 6.90866e-11)
(5.2834e-10 -2.80087e-10 7.16531e-10)
(4.09423e-10 -1.38428e-10 2.90978e-10)
(2.14381e-10 -1.22836e-10 1.53571e-10)
(-4.38967e-10 -5.43834e-12 -1.3897e-10)
(2.55427e-10 -3.18515e-10 1.97813e-10)
(3.06197e-11 -6.73665e-11 1.56729e-11)
(-8.68056e-10 -1.28277e-10 3.26254e-10)
(-1.2803e-08 -4.58904e-10 9.11483e-10)
(8.06992e-09 -7.88564e-10 1.17688e-09)
(4.69193e-10 -7.44761e-11 4.23717e-10)
(2.03707e-09 5.49923e-12 8.44142e-10)
(-4.30384e-09 3.52048e-09 -6.99717e-09)
)
;
    }
    procBoundary5to1
    {
        type            processor;
        value           nonuniform List<vector> 
32
(
(-7.9601e-09 -9.38002e-11 6.76712e-10)
(-3.38103e-09 -4.10188e-11 9.33031e-10)
(-7.40834e-11 6.47328e-11 1.33935e-09)
(2.53069e-09 2.09252e-10 1.88442e-09)
(5.1048e-09 4.35511e-10 2.52478e-09)
(7.14005e-09 5.3502e-10 2.89338e-09)
(-9.7762e-09 -1.16162e-10 3.9889e-10)
(-5.86551e-09 -1.13226e-10 6.52662e-10)
(-2.58937e-09 -8.97809e-11 9.65164e-10)
(-4.07278e-11 -3.99075e-11 1.34485e-09)
(2.01895e-09 1.86114e-11 1.75689e-09)
(3.79185e-09 1.74465e-10 2.14755e-09)
(5.29845e-09 3.17974e-10 2.33152e-09)
(-6.9464e-09 2.18977e-11 4.92076e-11)
(-5.61941e-09 -5.81132e-11 2.70369e-10)
(-3.50352e-09 -9.55098e-11 5.84574e-10)
(-1.51581e-09 -1.09519e-10 9.58308e-10)
(1.47668e-10 -1.18253e-10 1.31873e-09)
(1.57845e-09 -1.22013e-10 1.5912e-09)
(2.70615e-09 -1.18872e-11 1.74477e-09)
(3.63177e-09 1.04528e-10 1.77233e-09)
(-6.61955e-09 2.65018e-11 4.61345e-12)
(-7.89894e-09 -2.54139e-11 1.38642e-10)
(-6.25584e-09 -5.05044e-11 2.56838e-10)
(-6.25584e-09 -5.05044e-11 2.56838e-10)
(-6.25584e-09 -5.05044e-11 2.56838e-10)
(-5.02938e-09 6.19143e-11 -5.32141e-11)
(-5.72842e-09 4.21175e-12 7.24644e-11)
(-5.72842e-09 4.21175e-12 7.24644e-11)
(-5.72842e-09 4.21175e-12 7.24644e-11)
(-3.20959e-09 1.39292e-10 -1.29849e-10)
(-3.20959e-09 1.39292e-10 -1.29849e-10)
)
;
    }
    procBoundary5to4
    {
        type            processor;
        value           nonuniform List<vector> 
12
(
(-2.29509e-09 8.72903e-11 -1.26887e-10)
(-1.91033e-09 1.29271e-10 -1.61788e-10)
(-1.32487e-09 1.87734e-10 -1.99361e-10)
(-7.18498e-10 2.49225e-10 -2.24591e-10)
(-1.17443e-09 8.90653e-11 -1.18447e-10)
(-1.01636e-09 1.24407e-10 -1.41849e-10)
(-7.31814e-10 1.82368e-10 -1.68737e-10)
(-4.10066e-10 2.30614e-10 -1.80325e-10)
(-6.70157e-10 8.38216e-11 -1.02115e-10)
(-5.58266e-10 1.11224e-10 -1.17786e-10)
(-3.88279e-10 1.62948e-10 -1.32175e-10)
(-1.83859e-10 2.18691e-10 -1.41252e-10)
)
;
    }
    procBoundary5to7
    {
        type            processor;
        value           nonuniform List<vector> 
44
(
(-1.81681e-09 1.91476e-10 -6.61513e-11)
(-1.47661e-09 1.34094e-10 1.33178e-10)
(-8.48652e-10 4.04823e-11 4.10679e-10)
(-1.67651e-10 -1.93998e-11 6.99982e-10)
(5.04128e-10 -5.91456e-11 9.52589e-10)
(1.11349e-09 4.51559e-13 1.10092e-09)
(1.56849e-09 9.70239e-11 1.09971e-09)
(1.88931e-09 2.22892e-10 1.10622e-09)
(-1.70794e-09 2.33266e-10 -1.85923e-10)
(-1.81681e-09 1.91476e-10 -6.61513e-11)
(-7.45516e-10 1.35587e-10 1.26477e-10)
(-3.93466e-10 5.53381e-11 3.15243e-10)
(1.84057e-11 -6.91729e-12 5.11628e-10)
(4.34121e-10 -4.3192e-11 6.91356e-10)
(8.22951e-10 -2.08775e-11 8.03994e-10)
(1.08978e-09 3.68701e-11 8.12909e-10)
(1.25784e-09 9.18321e-11 8.71409e-10)
(-3.40844e-10 2.59839e-10 -1.53771e-10)
(-7.45516e-10 1.35587e-10 1.26477e-10)
(-3.33374e-10 2.4518e-10 -3.94115e-11)
(-7.45516e-10 1.35587e-10 1.26477e-10)
(-3.93466e-10 5.53381e-11 3.15243e-10)
(4.8445e-11 1.88668e-11 3.64616e-10)
(2.76803e-10 -2.30562e-11 4.81897e-10)
(5.15798e-10 -2.57923e-11 5.68667e-10)
(6.6909e-10 1.52672e-11 5.69838e-10)
(7.72245e-10 5.19576e-11 5.61591e-10)
(-1.6303e-10 2.39234e-10 -1.16268e-10)
(-1.30938e-10 2.27181e-10 -2.77518e-11)
(-6.50423e-11 1.90699e-10 8.51337e-11)
(4.8445e-11 1.88668e-11 3.64616e-10)
(8.11273e-11 1.42125e-10 2.3257e-10)
(4.8445e-11 1.88668e-11 3.64616e-10)
(2.76803e-10 -2.30562e-11 4.81897e-10)
(1.94735e-10 -1.43365e-11 4.22886e-10)
(1.64885e-10 3.27275e-11 4.35797e-10)
(4.44857e-10 9.59732e-11 3.30966e-10)
(-4.62152e-11 2.19263e-10 -8.80473e-11)
(2.89219e-11 2.06727e-10 -2.14738e-11)
(9.82327e-12 1.71041e-10 7.0179e-11)
(9.48812e-11 1.26374e-10 1.81892e-10)
(1.1039e-10 9.01774e-11 3.01287e-10)
(1.94735e-10 -1.43365e-11 4.22886e-10)
(1.69878e-10 5.58739e-11 3.87469e-10)
)
;
    }
}


// ************************************************************************* //
