/*--------------------------------*- C++ -*----------------------------------*\
| =========                 |                                                 |
| \\      /  F ield         | OpenFOAM: The Open Source CFD Toolbox           |
|  \\    /   O peration     | Version:  4.x                                   |
|   \\  /    A nd           | Web:      www.OpenFOAM.org                      |
|    \\/     M anipulation  |                                                 |
\*---------------------------------------------------------------------------*/
FoamFile
{
    version     2.0;
    format      ascii;
    class       surfaceScalarField;
    location    "38.5";
    object      phi;
}
// * * * * * * * * * * * * * * * * * * * * * * * * * * * * * * * * * * * * * //

dimensions      [0 3 -1 0 0 0 0];

internalField   nonuniform List<scalar> 
308
(
9.09704e-06
-2.69753e-07
-6.64024e-07
9.69522e-06
-1.87162e-07
-4.11017e-07
1.07284e-05
-3.32275e-07
-7.00906e-07
1.12559e-05
-1.59896e-07
-3.67644e-07
1.20586e-05
-2.61108e-07
-5.41512e-07
1.24515e-05
-1.05056e-07
-2.87867e-07
1.30978e-05
-2.15042e-07
-4.31308e-07
1.35074e-05
-1.35012e-07
-2.74536e-07
-1.77902e-07
-3.34142e-07
8.95438e-06
-3.06203e-07
-7.54666e-07
9.36865e-06
-2.05844e-07
-3.9559e-07
1.01673e-05
-3.71386e-07
-7.59582e-07
1.05711e-05
-1.99883e-07
-3.63763e-07
1.122e-05
-2.88529e-07
-6.21511e-07
1.15156e-05
-1.25802e-07
-2.74779e-07
1.2043e-05
-2.44894e-07
-4.97589e-07
1.22928e-05
-1.55727e-07
-2.29068e-07
-2.21242e-07
-3.46202e-07
8.8881e-06
-2.12618e-07
-8.18416e-07
9.16222e-06
-1.02776e-07
-3.77194e-07
9.81083e-06
-2.05329e-07
-8.14666e-07
1.00648e-05
-3.41348e-07
1.05777e-05
-6.49122e-07
1.07797e-05
-2.57062e-07
1.11311e-05
-4.66519e-07
1.11536e-05
-1.53926e-07
-2.91171e-07
8.8833e-06
-8.61393e-07
9.20722e-06
-4.06005e-07
-8.56895e-07
8.61048e-06
-3.57909e-07
-7.53334e-07
8.7993e-06
-1.60734e-07
-4.39103e-07
9.2364e-06
-3.78678e-07
-7.5932e-07
9.41357e-06
-1.49904e-07
-3.94915e-07
9.7819e-06
-3.35771e-07
-5.74069e-07
9.91983e-06
-9.75306e-08
-3.28268e-07
1.02021e-05
-2.76916e-07
-4.36653e-07
1.02904e-05
-4.43713e-08
-3.18477e-07
-1.84914e-07
-3.40157e-07
8.29191e-06
-3.88725e-07
-8.52497e-07
8.32458e-06
-1.60453e-07
-4.28538e-07
8.41911e-06
-4.02183e-07
-8.30608e-07
8.39266e-06
-1.43804e-07
-3.43412e-07
8.3829e-06
-3.3782e-07
-6.09703e-07
8.35509e-06
-8.56729e-08
-2.58825e-07
8.29244e-06
-2.42393e-07
-4.69467e-07
8.26349e-06
-3.69588e-08
-2.07529e-07
-1.59927e-07
-3.09307e-07
8.03619e-06
-1.89559e-07
-8.90507e-07
7.98195e-06
-6.8167e-08
-4.15235e-07
7.84366e-06
-1.83336e-07
-8.95228e-07
7.71037e-06
-4.54651e-08
-3.06397e-07
7.45527e-06
-1.12868e-07
-6.1897e-07
7.31349e-06
-1.92217e-07
6.95906e-06
-3.15059e-07
6.87051e-06
-1.38378e-07
-7.59921e-08
8.01989e-06
-9.40292e-07
8.00907e-06
-4.60547e-07
7.88303e-06
-9.53422e-07
7.7586e-06
-3.02559e-07
-6.48961e-07
8.42425e-06
-4.08134e-07
-6.06183e-07
8.54733e-06
-1.85469e-07
-3.76714e-07
8.87188e-06
-4.50153e-07
-6.33721e-07
9.01854e-06
-1.71284e-07
-3.70289e-07
9.33812e-06
-3.79268e-07
-5.14384e-07
9.46787e-06
-1.04971e-07
-3.53043e-07
9.71637e-06
-2.69231e-07
-4.15925e-07
9.85068e-06
-6.46483e-08
-3.88141e-07
-1.57432e-07
-3.59043e-07
8.04669e-06
-4.59305e-07
-6.8475e-07
8.00359e-06
-2.08543e-07
-3.6236e-07
7.92393e-06
-5.15363e-07
-6.8574e-07
7.85765e-06
-1.65786e-07
-2.82633e-07
7.74592e-06
-3.92041e-07
-4.85201e-07
7.7066e-06
-9.27683e-08
-2.31706e-07
7.58505e-06
-2.43421e-07
-3.73723e-07
7.59987e-06
-7.5552e-08
-2.11449e-07
-1.81042e-07
-3.19469e-07
7.75685e-06
-2.44456e-07
-6.98945e-07
7.60261e-06
-1.12137e-07
-3.57397e-07
7.15399e-06
-2.73333e-07
-6.88636e-07
6.98586e-06
-8.08618e-08
-2.23193e-07
6.64493e-06
-2.1467e-07
-4.55413e-07
6.5601e-06
-6.28376e-08
-1.37318e-07
6.42714e-06
-1.6979e-07
-2.55734e-07
6.38509e-06
-1.15362e-07
-4.123e-08
7.62458e-06
-6.88017e-07
7.42843e-06
-3.73152e-07
6.89477e-06
-7.03864e-07
6.74525e-06
-2.16161e-07
6.3891e-06
-4.72765e-07
6.32125e-06
-1.37557e-07
-2.93718e-07
8.38302e-06
-4.6369e-07
8.46031e-06
-2.21422e-07
8.69305e-06
-4.9793e-07
8.73234e-06
-1.72757e-07
8.86518e-06
-3.85465e-07
8.85651e-06
-1.37743e-07
8.9079e-06
-2.55596e-07
8.82115e-06
-8.48207e-08
-4.76949e-08
7.85401e-06
-4.67749e-07
7.68908e-06
-2.2469e-07
7.37479e-06
-5.23293e-07
7.23231e-06
-1.55157e-07
6.93292e-06
-3.62906e-07
6.77381e-06
-1.02483e-07
6.39351e-06
-1.2661e-07
6.2606e-06
-7.22172e-08
9.44662e-08
7.58272e-06
-2.07978e-07
7.26261e-06
-7.9238e-08
6.52309e-06
-1.71155e-07
6.25203e-06
-2.27888e-08
5.63836e-06
-5.53847e-08
5.41342e-06
7.71764e-10
5.1574e-06
9.81161e-09
4.95265e-06
4.57169e-09
7.07976e-08
7.55613e-06
7.22221e-06
6.46341e-06
6.27866e-06
5.77999e-06
5.64833e-06
5.43368e-06
5.32892e-06
)
;

boundaryField
{
    inlet
    {
        type            calculated;
        value           nonuniform List<scalar> 
16
(
-8.16327e-06
-8.16327e-06
-8.16327e-06
-8.16327e-06
-8.16327e-06
-8.16327e-06
-8.16327e-06
-8.16327e-06
-8.16327e-06
-8.16327e-06
-8.16327e-06
-8.16327e-06
-8.16327e-06
-8.16327e-06
-8.16327e-06
-8.16327e-06
)
;
    }
    outlet
    {
        type            calculated;
        value           nonuniform 0();
    }
    wall
    {
        type            calculated;
        value           uniform 0;
    }
    procBoundary0to1
    {
        type            processor;
        value           nonuniform List<scalar> 
12
(
1.40194e-05
1.26823e-05
1.13036e-05
1.04813e-05
8.20161e-06
6.46164e-06
1.0027e-05
7.63364e-06
6.31207e-06
8.60251e-06
5.85883e-06
5.00438e-06
)
;
    }
    procBoundary0to2
    {
        type            processor;
        value           nonuniform List<scalar> 
44
(
-1.12465e-07
-1.52346e-07
-7.07821e-08
-1.29774e-07
-2.43017e-08
-7.99826e-08
-7.12648e-08
-2.06911e-08
9.87917e-06
-2.03818e-08
3.4737e-07
7.00252e-07
-8.73983e-09
-3.9427e-08
3.60448e-08
3.37636e-08
3.27173e-08
-2.80528e-09
3.92323e-08
3.41466e-08
7.5017e-06
9.27409e-08
1.98482e-07
3.97995e-07
-5.65157e-08
-1.42783e-07
4.19551e-08
-3.37764e-09
1.07629e-08
-1.77342e-08
-3.47183e-08
-5.59084e-08
6.18805e-06
-1.40869e-07
1.01962e-07
8.76357e-08
8.58151e-08
6.80417e-08
1.92767e-07
6.51407e-08
1.82979e-07
4.55157e-08
7.50185e-08
2.13914e-08
)
;
    }
    procBoundary0to4
    {
        type            processor;
        value           nonuniform List<scalar> 
36
(
-3.62248e-07
-2.32583e-07
-3.68528e-07
-2.36824e-07
-2.61764e-07
-2.06622e-07
-2.11721e-07
-2.16576e-07
-9.27078e-08
-3.71431e-07
-1.94163e-07
-3.46086e-07
-1.5776e-07
-2.08364e-07
-1.07856e-07
-1.22414e-07
-9.11369e-08
-5.98666e-08
-3.78168e-07
-1.82747e-07
-3.01246e-07
-8.45007e-08
-1.49266e-07
-1.56332e-08
-1.3614e-07
1.26055e-08
-6.92977e-08
-3.74672e-07
-1.86515e-07
-3.08989e-07
-1.19332e-07
-2.12459e-07
-5.06411e-08
-1.44277e-07
-1.40235e-08
-2.69506e-08
)
;
    }
    procBoundary0to6
    {
        type            processor;
        value           uniform 2.75942e-08;
    }
    procBoundary0to7
    {
        type            processor;
        value           uniform 5.31144e-06;
    }
}


// ************************************************************************* //
