/*--------------------------------*- C++ -*----------------------------------*\
| =========                 |                                                 |
| \\      /  F ield         | OpenFOAM: The Open Source CFD Toolbox           |
|  \\    /   O peration     | Version:  4.x                                   |
|   \\  /    A nd           | Web:      www.OpenFOAM.org                      |
|    \\/     M anipulation  |                                                 |
\*---------------------------------------------------------------------------*/
FoamFile
{
    version     2.0;
    format      ascii;
    class       volVectorField;
    location    "38.5";
    object      Urel;
}
// * * * * * * * * * * * * * * * * * * * * * * * * * * * * * * * * * * * * * //

dimensions      [0 1 -1 0 0 0 0];

internalField   nonuniform List<vector> 
132
(
(-0.0239362 0.000485373 0.00127408)
(-0.0223489 0.000456419 0.0012014)
(-0.0237111 0.000459242 0.001204)
(-0.0229625 0.000398441 0.00108214)
(-0.0245281 0.000371273 0.00103258)
(-0.0239353 0.000298492 0.00090375)
(-0.025422 0.000265628 0.000853596)
(-0.02478 0.000190803 0.000753037)
(-0.0261783 0.000134064 0.000700256)
(-0.0238373 0.000491501 0.00130554)
(-0.0221385 0.000457486 0.00121306)
(-0.0234297 0.000474439 0.00121992)
(-0.0225071 0.00040665 0.00109072)
(-0.0240209 0.000390051 0.00104749)
(-0.0232473 0.000314403 0.000903168)
(-0.0247212 0.000301385 0.000851753)
(-0.0239029 0.000243569 0.000726797)
(-0.0253093 0.000205362 0.000674978)
(-0.023717 0.000353236 0.00133463)
(-0.0219246 0.000320906 0.00122403)
(-0.0231377 0.000332489 0.00123499)
(-0.0220583 0.000283517 0.00109283)
(-0.0234933 0.000264143 0.00105418)
(-0.0225535 0.000208554 0.000895398)
(-0.0239782 0.000194509 0.000833825)
(-0.0229975 0.000143126 0.00068203)
(-0.0243821 0.000120443 0.000628119)
(-0.0236523 0.000141385 0.00133488)
(-0.0218306 0.000115451 0.0012195)
(-0.0230091 0.000115336 0.00122905)
(-0.0237316 0.000523319 0.00130483)
(-0.021956 0.000477689 0.00119845)
(-0.0231819 0.000486013 0.00120449)
(-0.0220891 0.00042023 0.00105058)
(-0.0235632 0.000400638 0.000992868)
(-0.0226098 0.000316167 0.000847252)
(-0.0240822 0.000285306 0.000786934)
(-0.0230893 0.000193044 0.000670985)
(-0.0245312 0.000142765 0.000602199)
(-0.0236057 0.00053196 0.00134195)
(-0.0216786 0.000472837 0.00121066)
(-0.0228287 0.000499732 0.00122445)
(-0.0214991 0.000416941 0.00105084)
(-0.0229405 0.000413645 0.00100233)
(-0.0217024 0.00031833 0.000832769)
(-0.0232219 0.00030747 0.00077694)
(-0.021916 0.000217669 0.000635338)
(-0.0234821 0.000192314 0.000569868)
(-0.0234516 0.000373814 0.00137251)
(-0.0214029 0.000325201 0.00122175)
(-0.0224712 0.000341552 0.00124391)
(-0.0209303 0.000278296 0.00104692)
(-0.0223254 0.000269395 0.00100059)
(-0.0208405 0.000200598 0.000807408)
(-0.0223792 0.000181732 0.00073648)
(-0.020806 0.000123712 0.000583171)
(-0.0224611 9.9587e-05 0.000510167)
(-0.0233779 0.000120757 0.00138689)
(-0.0213041 0.000104289 0.00123316)
(-0.0223237 0.000102583 0.00125713)
(-0.0207262 7.85164e-05 0.00104858)
(-0.0220878 7.01048e-05 0.00100851)
(-0.0235136 0.000571134 0.00116682)
(-0.0216299 0.00051632 0.00107277)
(-0.0227082 0.000528032 0.00108039)
(-0.0214088 0.000451241 0.000946311)
(-0.0227554 0.00043392 0.000898532)
(-0.0215908 0.000340518 0.000776716)
(-0.0229914 0.000309288 0.000721151)
(-0.0218009 0.000211277 0.000638421)
(-0.0232117 0.000157388 0.000577865)
(-0.0233561 0.000577944 0.0011961)
(-0.021296 0.000508093 0.00108118)
(-0.0222899 0.000542504 0.00108976)
(-0.0207007 0.000441897 0.000925294)
(-0.0220313 0.000438416 0.000878552)
(-0.0205228 0.000327531 0.000735073)
(-0.022012 0.000305789 0.000682374)
(-0.0204519 0.00021488 0.000572238)
(-0.0220587 0.00017805 0.000515598)
(-0.0231722 0.000407988 0.00121442)
(-0.0209676 0.000354134 0.00108874)
(-0.0218612 0.000377617 0.00109921)
(-0.0200033 0.000295178 0.000908063)
(-0.0213195 0.000290591 0.000859535)
(-0.0195126 0.00021118 0.000689492)
(-0.0210843 0.00019236 0.000616116)
(-0.0192616 0.000136264 0.000502804)
(-0.0209793 0.000113174 0.000408037)
(-0.0230894 0.000117821 0.00122054)
(-0.0208265 0.000101692 0.00109134)
(-0.0216807 0.000102602 0.00109836)
(-0.0197214 8.20704e-05 0.000895191)
(-0.0210339 8.27842e-05 0.000843923)
(-0.0191236 7.17611e-05 0.000670252)
(-0.0207268 8.01391e-05 0.000600166)
(-0.0233788 0.000611762 0.000884789)
(-0.021433 0.000549211 0.000816983)
(-0.0224183 0.000557772 0.000815368)
(-0.0209808 0.000468403 0.000715948)
(-0.0222244 0.000445373 0.00066869)
(-0.0208981 0.000354708 0.000579702)
(-0.0222131 0.000321271 0.000526011)
(-0.0208509 0.000225442 0.000459181)
(-0.0221976 0.00017328 0.000383046)
(-0.0231941 0.000614305 0.000897926)
(-0.0210431 0.000538608 0.000811683)
(-0.0219376 0.000571625 0.00080851)
(-0.0201555 0.000457413 0.000682449)
(-0.0214175 0.000452304 0.000633739)
(-0.0197013 0.00033955 0.000525846)
(-0.021163 0.000303787 0.000475729)
(-0.0193744 0.00021703 0.000392688)
(-0.0209899 0.000146253 0.000339582)
(-0.0229915 0.000417576 0.000902467)
(-0.0206874 0.000364047 0.000805405)
(-0.0214692 0.000381395 0.000790733)
(-0.0193978 0.000295257 0.000648683)
(-0.02065 0.000281955 0.000597505)
(-0.0186116 0.000204914 0.000474419)
(-0.0201864 0.000165257 0.000429949)
(-0.0181594 0.000120115 0.00032741)
(-0.0199085 6.12368e-05 0.000272972)
(-0.0229098 0.000110565 0.0008988)
(-0.0205528 8.66841e-05 0.000803322)
(-0.0212928 7.52096e-05 0.000787511)
(-0.0191334 6.05222e-05 0.000645243)
(-0.0203813 4.7447e-05 0.000597984)
(-0.0182732 4.67412e-05 0.000466669)
(-0.0198767 4.51858e-05 0.000416807)
(-0.0177845 3.88071e-05 0.000313444)
(-0.0195867 3.69232e-05 0.0002529)
)
;

boundaryField
{
    inlet
    {
        type            calculated;
        value           nonuniform List<vector> 
16
(
(-0.01 3.85231e-11 1.23905e-11)
(-0.01 -8.81383e-11 -1.36221e-11)
(-0.01 2.01881e-10 2.4187e-10)
(-0.01 -9.02814e-11 3.32878e-10)
(-0.01 5.45291e-11 1.07771e-10)
(-0.01 -4.54154e-12 1.45519e-10)
(-0.01 3.52733e-11 3.0148e-10)
(-0.01 -5.50422e-11 4.64983e-10)
(-0.01 2.68762e-11 1.61254e-10)
(-0.01 3.66997e-12 2.24657e-10)
(-0.01 4.75553e-11 2.70235e-10)
(-0.01 -1.58813e-10 3.71336e-10)
(-0.01 3.67092e-12 1.02865e-10)
(-0.01 -2.56603e-11 9.40868e-11)
(-0.01 1.15253e-10 2.59481e-10)
(-0.01 -3.81692e-11 2.18022e-10)
)
;
    }
    outlet
    {
        type            calculated;
        value           nonuniform 0();
    }
    wall
    {
        type            calculated;
        value           nonuniform List<vector> 
66
(
(8.92733e-11 3.85231e-11 1.23905e-11)
(1.10775e-10 -8.81383e-11 -1.36221e-11)
(2.88039e-10 2.01881e-10 2.4187e-10)
(3.34208e-10 -9.02814e-11 3.32878e-10)
(3.88122e-12 1.43999e-10 1.37013e-10)
(-1.47771e-10 1.2132e-10 3.8845e-10)
(1.67007e-10 7.33986e-11 6.61277e-10)
(4.49291e-10 -4.6455e-11 7.71175e-10)
(6.26e-10 6.07647e-09 3.1907e-10)
(1.80749e-10 -2.64568e-10 3.21934e-10)
(2.72148e-10 -6.28115e-11 1.00732e-09)
(5.49703e-10 -3.53041e-10 9.49235e-10)
(-6.81767e-12 4.88939e-10 6.49629e-10)
(-6.46001e-11 -1.2392e-10 8.98787e-10)
(1.63844e-10 -5.2241e-11 1.23428e-09)
(-4.10412e-11 8.85554e-10 7.87523e-10)
(-5.10902e-11 -4.44964e-10 1.38983e-09)
(2.98898e-10 -3.65264e-10 1.61807e-09)
(-3.71026e-10 2.22722e-10 1.03498e-09)
(-5.24337e-10 -2.04989e-10 1.67545e-09)
(-8.37571e-10 5.95192e-11 2.39482e-09)
(-6.85259e-10 5.19524e-10 1.37524e-09)
(-1.41785e-10 -3.43874e-10 2.37125e-09)
(-1.55503e-10 -5.61242e-10 2.8378e-09)
(-1.50412e-09 2.86813e-10 2.18721e-10)
(-3.10888e-10 -3.80634e-10 2.85892e-09)
(-9.78322e-10 -1.2645e-09 3.43347e-09)
(-1.7538e-09 8.27309e-11 4.89945e-10)
(1.99018e-10 -3.03771e-09 4.64005e-09)
(-2.27687e-10 -2.1169e-09 3.58931e-09)
(8.92733e-11 3.85231e-11 1.23905e-11)
(1.65484e-10 5.45291e-11 1.07771e-10)
(5.83993e-11 2.68762e-11 1.61254e-10)
(7.56056e-11 3.67092e-12 1.02865e-10)
(3.88122e-12 1.43999e-10 1.37013e-10)
(-2.17616e-10 8.96411e-11 2.76194e-10)
(-1.30454e-10 1.0068e-10 2.87372e-10)
(-7.3305e-11 7.20009e-11 1.82612e-10)
(6.26e-10 6.07647e-09 3.1907e-10)
(6.40271e-11 1.51276e-10 4.00268e-10)
(7.0357e-11 -1.62167e-11 3.92575e-10)
(1.85444e-10 -3.68263e-11 2.66658e-10)
(-6.81767e-12 4.88939e-10 6.49629e-10)
(-8.0387e-11 1.74711e-10 7.25757e-10)
(-2.26601e-12 1.79185e-11 6.71566e-10)
(2.84381e-11 1.08832e-10 4.41879e-10)
(-4.10412e-11 8.85554e-10 7.87523e-10)
(-6.93205e-11 2.57383e-11 9.04501e-10)
(1.39291e-10 2.02054e-12 7.08356e-10)
(1.30715e-10 -1.79088e-12 5.12068e-10)
(-3.71026e-10 2.22722e-10 1.03498e-09)
(-2.5056e-10 -1.32284e-10 1.15719e-09)
(5.62383e-11 1.59153e-10 1.18519e-09)
(-9.88276e-11 1.3289e-10 8.9478e-10)
(-6.85259e-10 5.19524e-10 1.37524e-09)
(-5.50417e-10 -1.61544e-10 1.34107e-09)
(-2.26487e-10 -5.65998e-11 1.40736e-09)
(-1.46227e-10 1.24069e-10 1.21477e-09)
(-1.50412e-09 2.86813e-10 2.18721e-10)
(-7.64151e-10 1.97599e-12 -8.32446e-11)
(-2.26263e-10 -2.17959e-11 1.02891e-09)
(-3.56424e-10 -1.86732e-10 1.80691e-09)
(-1.7538e-09 8.27309e-11 4.89945e-10)
(-2.95823e-09 -1.90227e-09 3.97518e-09)
(-1.8612e-09 -9.72939e-10 5.21429e-09)
(-4.52112e-10 -4.58341e-10 3.85471e-09)
)
;
    }
    procBoundary0to1
    {
        type            processor;
        value           nonuniform List<vector> 
12
(
(-0.0254665 2.94793e-05 0.000620665)
(-0.0244168 0.000125515 0.000587402)
(-0.0233082 5.89562e-05 0.000533444)
(-0.0234642 4.04847e-05 0.000513532)
(-0.0220887 0.000108849 0.000472633)
(-0.0207572 4.90933e-05 0.000420878)
(-0.0219389 5.66257e-05 0.000524869)
(-0.0204371 0.000108392 0.000446732)
(-0.0191289 6.90758e-05 0.000363644)
(-0.020688 9.05431e-05 0.000312431)
(-0.0190849 9.69735e-05 0.000260783)
(-0.0179479 4.9443e-05 0.000212062)
)
;
    }
    procBoundary0to2
    {
        type            processor;
        value           nonuniform List<vector> 
44
(
(-0.0218801 9.48496e-05 0.0010811)
(-0.0232802 9.08287e-05 0.00104276)
(-0.0222901 8.06086e-05 0.000872803)
(-0.0237005 7.97431e-05 0.000798584)
(-0.0226886 5.91663e-05 0.000639126)
(-0.0240927 5.12149e-05 0.000569606)
(-0.0236537 -0.000124954 0.00128786)
(-0.0218198 -0.000117997 0.00119199)
(-0.0218801 9.48496e-05 0.0010811)
(-0.0229967 -0.000134257 0.0012002)
(-0.0218801 9.48496e-05 0.0010811)
(-0.0232802 9.08287e-05 0.00104276)
(-0.0205425 6.04227e-05 0.000805527)
(-0.0220864 5.56369e-05 0.000736427)
(-0.0204847 4.03531e-05 0.000578172)
(-0.0221629 2.45283e-05 0.000502614)
(-0.0234148 -0.000163078 0.00134138)
(-0.0213537 -0.000140566 0.00120454)
(-0.0223824 -0.00016157 0.00122609)
(-0.0207884 -0.000142087 0.00103254)
(-0.0205425 6.04227e-05 0.000805527)
(-0.0221639 -0.000148932 0.000989741)
(-0.0205425 6.04227e-05 0.000805527)
(-0.0220864 5.56369e-05 0.000736427)
(-0.0188072 5.95614e-05 0.00047604)
(-0.0205718 6.09631e-05 0.000390587)
(-0.0231477 -0.000194801 0.0012007)
(-0.0209343 -0.000164059 0.00106938)
(-0.0217905 -0.00017987 0.00106951)
(-0.0199107 -0.000145 0.000886884)
(-0.0211901 -0.000142065 0.000834459)
(-0.019354 -9.25978e-05 0.00066873)
(-0.0188072 5.95614e-05 0.00047604)
(-0.0208988 -6.47665e-05 0.00059697)
(-0.0188072 5.95614e-05 0.00047604)
(-0.0205718 6.09631e-05 0.000390587)
(-0.0229663 -0.000226142 0.000910899)
(-0.0206476 -0.000200722 0.000798608)
(-0.0214187 -0.000228424 0.000790848)
(-0.019355 -0.000174998 0.000654174)
(-0.0205912 -0.000182715 0.000605331)
(-0.0185911 -0.000123165 0.000480464)
(-0.0201283 -0.000108034 0.000414263)
(-0.0181121 -6.36822e-05 0.00033604)
)
;
    }
    procBoundary0to4
    {
        type            processor;
        value           nonuniform List<vector> 
36
(
(-0.0233567 0.000626769 0.000518325)
(-0.0214251 0.00056036 0.000482658)
(-0.0223686 0.000569259 0.00046866)
(-0.0209163 0.000476456 0.000421819)
(-0.0221226 0.000450123 0.000372215)
(-0.0207921 0.000355622 0.000326872)
(-0.022089 0.000324034 0.000276214)
(-0.0207438 0.000247722 0.000229736)
(-0.0221064 0.000214868 0.000142912)
(-0.0231652 0.000627842 0.000500795)
(-0.0210308 0.000546561 0.000459118)
(-0.0218828 0.000571974 0.000433103)
(-0.0200938 0.000457298 0.000381269)
(-0.0213364 0.000446925 0.000328166)
(-0.0196257 0.000338931 0.000281176)
(-0.0210735 0.000315368 0.000228262)
(-0.0193201 0.000232987 0.000187684)
(-0.0209319 0.000192818 0.000117063)
(-0.0229713 0.000428542 0.000491234)
(-0.0206807 0.000374944 0.000442281)
(-0.0214303 0.000390269 0.000406088)
(-0.0193923 0.000311069 0.000343924)
(-0.0206151 0.000306786 0.000289089)
(-0.0186364 0.000226795 0.000239142)
(-0.0201597 0.000199767 0.000203655)
(-0.0181446 0.000142313 0.000156842)
(-0.0199006 9.75167e-05 0.00013016)
(-0.022879 0.000130678 0.000488541)
(-0.0205327 9.8498e-05 0.000432365)
(-0.0212274 0.000105537 0.000395686)
(-0.0190895 8.57636e-05 0.000338338)
(-0.0202869 8.90709e-05 0.000284379)
(-0.0181886 6.71108e-05 0.00023338)
(-0.0197457 5.79899e-05 0.000197018)
(-0.017649 5.14047e-05 0.000157962)
(-0.0194484 5.02595e-05 0.000134601)
)
;
    }
    procBoundary0to6
    {
        type            processor;
        value           uniform (-0.0198594 -4.26196e-05 0.000269031);
    }
    procBoundary0to7
    {
        type            processor;
        value           uniform (-0.0175727 2.1241e-05 0.000202128);
    }
}


// ************************************************************************* //
