/*--------------------------------*- C++ -*----------------------------------*\
  =========                 |
  \\      /  F ield         | OpenFOAM: The Open Source CFD Toolbox
   \\    /   O peration     | Website:  https://openfoam.org
    \\  /    A nd           | Version:  4.x
     \\/     M anipulation  |
\*---------------------------------------------------------------------------*/
FoamFile
{
    version     2.0;
    format      ascii;
    class       vectorField;
    location    0;
    object      v;
}
// * * * * * * * * * * * * * * * * * * * * * * * * * * * * * * * * * * * * * //

407
(
( 4.38018e-09 8.8622e-10 3.02249e-09 )  
( 3.89552e-09 -3.66551e-10 1.15609e-09 )  
( 1.5548e-09 -6.04437e-10 2.36309e-10 )  
( 3.8256e-09 3.5574e-10 8.29155e-10 )  
( 8.75923e-10 -1.26404e-09 1.00875e-10 )  
( 3.99127e-09 -1.1572e-10 2.27352e-09 )  
( 5.2966e-09 8.59643e-10 3.73028e-09 )  
( 5.29824e-09 3.04607e-10 2.27847e-09 )  
( 2.66809e-09 -2.27214e-10 -2.9216e-09 )  
( 4.30034e-09 4.03028e-10 -2.0007e-10 )  
( 2.76504e-09 2.37371e-10 -2.58816e-09 )  
( 4.00706e-09 7.91768e-10 -7.25562e-10 )  
( 3.28052e-09 -2.3e-10 -2.01575e-09 )  
( 3.77023e-09 -2.72689e-10 -1.61772e-09 )  
( 3.65594e-09 3.86959e-10 -1.55549e-09 )  
( 5.42666e-09 1.44078e-09 4.0808e-09 )  
( 1.22726e-09 6.58677e-10 -2.08311e-09 )  
( 5.11448e-09 1.91079e-11 2.31618e-09 )  
( 1.354e-09 -1.74376e-10 -6.77013e-10 )  
( 4.7186e-09 7.94455e-10 9.08612e-10 )  
( 6.16815e-10 1.37554e-10 -5.92606e-10 )  
( 4.91315e-09 -3.21672e-10 8.04219e-10 )  
( 2.02855e-09 1.14691e-09 -1.23077e-09 )  
( 4.65661e-09 1.1379e-09 5.35959e-09 )  
( 2.53759e-09 8.61082e-10 -1.75011e-09 )  
( 2.2181e-09 1.29429e-09 -2.72896e-09 )  
( 4.65985e-09 -3.60465e-10 -3.23532e-11 )  
( 4.11038e-09 4.35742e-11 1.91903e-09 )  
( 1.52795e-09 -5.16954e-10 4.56103e-10 )  
( -9.36315e-10 2.63656e-10 1.17823e-10 )  
( 1.1479e-09 2.92682e-10 1.606e-09 )  
( 8.08884e-10 9.37517e-10 -3.31111e-09 )  
( 2.668e-09 9.096e-10 -4.0294e-10 )  
( 2.13003e-09 -1.29531e-10 1.16546e-10 )  
( 4.08138e-09 -3.99108e-10 1.64041e-09 )  
( 5.09023e-09 2.95724e-10 8.45354e-10 )  
( 5.17906e-09 3.30482e-10 2.12751e-09 )  
( 1.22413e-09 2.7219e-10 1.08595e-09 )  
( 4.8098e-09 -2.64298e-10 2.24013e-09 )  
( 5.83387e-09 2.07768e-10 1.38935e-09 )  
( 9.36734e-10 6.01654e-10 1.07775e-09 )  
( 2.89923e-09 6.35496e-11 -1.60052e-09 )  
( 1.92636e-09 1.2674e-09 -1.14622e-09 )  
( 3.27539e-09 -5.30843e-11 -1.29223e-09 )  
( 4.84363e-09 2.83359e-10 9.67763e-11 )  
( 1.53293e-09 1.75858e-10 -3.85992e-10 )  
( 4.1064e-09 -2.04104e-10 1.56447e-09 )  
( 5.47622e-09 -5.8807e-10 1.64468e-09 )  
( 5.06688e-09 -1.52188e-10 1.76345e-09 )  
( 1.25171e-09 -3.67787e-10 7.48351e-10 )  
( 1.20459e-10 8.39686e-11 -1.87566e-09 )  
( 4.37895e-09 -5.45002e-11 2.11967e-09 )  
( 1.20878e-09 4.14639e-10 9.80752e-10 )  
( 4.37597e-09 1.1974e-09 6.34198e-10 )  
( 1.99266e-09 7.62465e-11 -1.53448e-09 )  
( 1.42279e-09 2.16031e-10 7.00165e-10 )  
( 3.52241e-09 -1.00852e-11 1.62993e-09 )  
( 2.0143e-09 -3.10664e-10 -4.76669e-10 )  
( 3.95608e-09 -9.57773e-11 2.00889e-09 )  
( 5.37901e-09 4.90365e-10 9.24534e-10 )  
( -3.92045e-10 1.08582e-10 -1.11641e-09 )  
( 4.35975e-09 -3.76344e-10 1.57958e-09 )  
( 3.06114e-09 2.76993e-10 -3.01275e-10 )  
( 3.39825e-09 3.41287e-10 2.08354e-09 )  
( -3.79246e-10 1.3703e-09 -1.6739e-09 )  
( 1.58552e-09 2.00126e-10 -2.8413e-09 )  
( 2.55684e-09 5.79242e-10 1.41963e-09 )  
( 5.59885e-10 -1.09198e-10 -1.11731e-09 )  
( -9.05885e-11 1.39181e-10 -1.26751e-09 )  
( 5.03419e-09 -3.04723e-10 1.67756e-09 )  
( 4.17959e-09 -6.79903e-10 1.85751e-09 )  
( 1.81242e-09 -9.9172e-11 -2.51148e-09 )  
( 1.04584e-09 7.5749e-10 9.15256e-10 )  
( 3.04062e-11 2.82259e-11 4.2126e-10 )  
( 7.74991e-10 5.95044e-10 -1.67179e-09 )  
( 3.20228e-09 -3.61727e-10 -6.0639e-10 )  
( 4.22899e-09 1.17274e-10 1.14727e-09 )  
( 4.75825e-09 -7.38511e-10 -6.42284e-11 )  
( 1.84959e-09 1.67565e-09 -2.37973e-09 )  
( 3.29143e-09 -3.33491e-10 1.47709e-09 )  
( 4.00838e-09 -6.47831e-10 7.75698e-10 )  
( 3.43824e-09 9.75881e-10 -7.71704e-11 )  
( 4.34898e-10 3.69684e-10 -1.62342e-10 )  
( 3.0616e-09 -2.32044e-10 1.00986e-09 )  
( 4.56181e-09 3.06548e-10 2.52388e-09 )  
( 6.68661e-10 8.0707e-11 7.33232e-10 )  
( 2.78606e-09 1.70331e-10 -1.33235e-09 )  
( 3.23113e-09 3.22959e-10 -1.38608e-09 )  
( 3.2366e-09 4.5241e-10 1.56386e-09 )  
( 7.73995e-10 2.29705e-10 5.88053e-10 )  
( 1.47765e-09 8.26458e-10 -1.56511e-09 )  
( 1.70916e-09 2.81871e-10 -1.36581e-09 )  
( 3.99888e-09 -3.65688e-11 8.52312e-10 )  
( 5.17216e-09 3.69625e-10 2.25324e-09 )  
( 3.39062e-09 8.36891e-11 -1.01292e-09 )  
( 1.24494e-09 6.82709e-11 5.52548e-10 )  
( -1.57997e-11 1.11513e-10 2.96831e-10 )  
( 5.14551e-09 -5.4069e-10 1.87358e-10 )  
( 3.1068e-09 1.28869e-09 6.45403e-10 )  
( 2.73315e-09 1.33189e-09 -2.66495e-10 )  
( 1.54358e-09 1.5505e-10 -2.37101e-09 )  
( 2.26525e-11 5.34335e-10 6.38846e-10 )  
( 2.51585e-09 1.07253e-09 -1.14596e-09 )  
( 1.6468e-09 3.32406e-10 -1.39262e-09 )  
( 3.36915e-10 6.91247e-10 4.16558e-11 )  
( 2.96578e-09 -3.508e-10 5.68293e-10 )  
( 1.25284e-09 -3.1436e-10 -1.0219e-09 )  
( 1.76768e-09 1.22522e-09 1.57214e-09 )  
( 9.1474e-10 6.91606e-10 -1.23007e-09 )  
( 4.36279e-09 -1.74342e-10 -1.63045e-10 )  
( 3.9135e-09 2.08909e-11 -2.04564e-09 )  
( 2.1398e-09 -2.31899e-11 -1.03435e-10 )  
( 4.48529e-09 1.01809e-10 1.90126e-09 )  
( 3.92828e-09 -1.06923e-10 1.30324e-09 )  
( 9.42301e-10 2.30511e-10 7.39281e-10 )  
( 3.1338e-09 3.15896e-10 4.52332e-10 )  
( 4.6027e-09 6.58662e-10 6.95329e-10 )  
( 7.20584e-10 9.59664e-10 -1.83012e-09 )  
( 2.40191e-09 2.61439e-10 1.77591e-09 )  
( 1.87531e-09 -5.17079e-10 4.81011e-10 )  
( 5.37008e-09 1.33852e-10 1.47279e-09 )  
( 3.99281e-09 -2.21e-11 1.05391e-09 )  
( 4.60547e-09 -5.35982e-10 1.94848e-09 )  
( 2.61597e-09 -6.08865e-10 5.97017e-10 )  
( 2.93607e-09 1.40377e-09 -4.62884e-10 )  
( -1.54661e-12 -2.98263e-11 -1.22095e-09 )  
( 4.66227e-09 3.3225e-10 1.22503e-09 )  
( 9.30141e-10 2.93453e-10 -7.72074e-10 )  
( 5.38716e-09 -1.45772e-10 -1.84095e-09 )  
( 2.41613e-09 3.59169e-10 -2.5306e-09 )  
( 2.74514e-09 1.77075e-09 3.30386e-10 )  
( -6.53825e-10 9.18857e-12 -2.27972e-10 )  
( 4.3068e-09 -4.24401e-10 1.96079e-09 )  
( 1.15359e-10 1.51386e-10 9.40572e-10 )  
( 8.20879e-10 1.14971e-10 -4.49326e-10 )  
( 4.59199e-11 -1.70436e-10 2.93083e-10 )  
( -2.93311e-09 -1.91627e-09 9.52601e-10 )  
( 2.8277e-09 3.40403e-10 -3.71578e-10 )  
( 4.04863e-09 5.89298e-10 8.39324e-10 )  
( 1.14696e-09 -2.51828e-10 3.83601e-10 )  
( 4.87779e-09 -2.36996e-10 1.77337e-09 )  
( 3.51713e-09 5.51013e-10 -9.33065e-11 )  
( 1.77898e-09 -4.19501e-10 2.37299e-10 )  
( 3.25004e-09 8.46212e-10 1.58151e-09 )  
( 6.83486e-10 -6.27562e-11 -2.76401e-09 )  
( 7.43651e-10 4.12255e-10 -1.73668e-09 )  
( 2.13113e-09 8.19146e-10 -1.71375e-09 )  
( 4.71329e-09 5.74776e-10 3.1088e-09 )  
( 2.08999e-09 1.39534e-09 -2.47865e-09 )  
( 4.69083e-09 -2.26495e-11 1.87179e-09 )  
( -7.58399e-10 1.018e-09 3.64692e-10 )  
( 2.20425e-09 3.80516e-10 -2.10639e-09 )  
( 1.92318e-10 -2.58314e-10 -5.42126e-10 )  
( 4.45465e-09 6.57447e-10 3.92889e-10 )  
( 3.12902e-09 -3.97719e-11 5.14166e-10 )  
( 1.67223e-09 -2.86076e-10 6.0715e-10 )  
( 1.0907e-09 2.39901e-10 8.17091e-10 )  
( 4.58203e-09 1.682e-10 3.50943e-09 )  
( 3.6085e-10 6.20152e-10 -8.44851e-10 )  
( 1.158e-09 1.14958e-09 4.69979e-10 )  
( 2.27738e-10 3.79915e-12 9.72812e-10 )  
( -1.28168e-10 3.55317e-11 3.59024e-10 )  
( 4.12796e-09 2.16248e-10 3.44543e-09 )  
( 3.61316e-09 9.24237e-10 4.67202e-09 )  
( 2.60898e-09 -2.783e-12 1.51319e-09 )  
( 4.76368e-09 6.12387e-10 1.22306e-09 )  
( 5.21205e-09 8.89221e-11 1.82807e-09 )  
( 1.74854e-09 5.48488e-10 5.84741e-10 )  
( 2.34138e-10 3.31182e-10 -2.45828e-09 )  
( 4.52986e-09 -2.40003e-10 1.43479e-09 )  
( 2.54403e-10 4.66656e-10 8.22975e-12 )  
( 4.87216e-09 -9.0952e-11 2.01523e-09 )  
( 2.00848e-09 5.64671e-10 -7.76419e-10 )  
( 3.91892e-09 4.82316e-10 8.6087e-10 )  
( 5.19704e-09 2.45419e-10 -1.79907e-10 )  
( 3.23459e-09 4.97074e-10 2.02509e-09 )  
( 3.05683e-09 8.78842e-12 3.25437e-10 )  
( 3.41988e-09 2.98747e-10 1.04252e-09 )  
( 7.73789e-10 1.1358e-09 1.06673e-10 )  
( 4.22648e-09 5.37544e-10 6.34055e-10 )  
( 1.25136e-09 3.41895e-11 4.91548e-10 )  
( 4.58294e-09 2.34132e-09 8.89188e-10 )  
( 3.80039e-09 2.57675e-10 5.70773e-10 )  
( 3.82906e-10 5.4423e-10 2.04432e-10 )  
( 6.28544e-10 1.08545e-09 -1.25285e-09 )  
( 1.69776e-09 5.51537e-10 -2.62558e-11 )  
( 4.30549e-09 1.32585e-09 7.49061e-10 )  
( 4.54954e-09 7.73173e-10 9.34667e-10 )  
( 1.29036e-09 1.68117e-10 2.35389e-10 )  
( 2.0129e-10 9.96601e-10 7.01076e-10 )  
( 3.72807e-09 1.91588e-10 4.04387e-10 )  
( 2.21755e-09 9.32386e-10 -1.35313e-10 )  
( 1.42049e-09 5.81432e-10 -6.2526e-10 )  
( 9.97033e-10 8.88318e-10 -6.90832e-10 )  
( 2.07499e-09 5.56566e-10 -9.1119e-10 )  
( 3.45972e-09 1.06437e-09 5.80922e-10 )  
( 4.31294e-09 1.55888e-09 -4.86937e-10 )  
( 4.33949e-09 -3.48434e-10 3.22839e-10 )  
( 4.52721e-09 -2.16986e-10 1.67482e-09 )  
( 5.40059e-09 1.4519e-09 8.83827e-10 )  
( 3.75915e-09 7.79745e-10 1.22487e-09 )  
( 3.62736e-09 2.99429e-10 2.25379e-10 )  
( 2.64676e-09 1.41085e-09 -6.72253e-10 )  
( 3.40261e-09 8.36264e-10 2.30622e-10 )  
( 8.79703e-10 2.96304e-11 3.67016e-11 )  
( 1.99215e-09 7.05938e-10 -2.16087e-10 )  
( 3.84305e-09 5.81295e-10 -5.718e-10 )  
( 3.16858e-09 1.28989e-09 -9.82044e-11 )  
( 2.29873e-09 -6.00318e-10 5.98305e-10 )  
( 2.80206e-09 1.11299e-09 -6.03731e-10 )  
( 3.76444e-09 1.4084e-09 4.26629e-10 )  
( 2.43336e-09 8.90675e-10 1.68302e-10 )  
( 1.66577e-09 3.90069e-10 4.01338e-10 )  
( 3.59232e-09 2.34333e-10 5.48294e-10 )  
( 3.37113e-09 1.338e-09 3.78168e-10 )  
( 2.56702e-09 -3.27238e-11 -7.08245e-12 )  
( 2.39093e-09 -1.53652e-10 -5.5893e-11 )  
( 3.18496e-09 1.97182e-09 2.34477e-10 )  
( 5.59732e-10 1.5414e-09 -1.92808e-10 )  
( 1.90898e-09 -4.53124e-10 5.11231e-10 )  
( 8.97501e-10 8.26046e-10 -7.91287e-10 )  
( 3.65956e-09 5.53693e-10 -3.71917e-10 )  
( 5.51857e-09 7.31712e-09 5.12076e-10 )  
( 4.85376e-10 1.043e-09 3.96453e-12 )  
( 5.76422e-09 2.93308e-09 2.71497e-10 )  
( 1.66771e-09 2.4023e-10 5.80452e-10 )  
( 6.07042e-09 1.42216e-09 9.06474e-10 )  
( 2.60637e-09 -7.6095e-10 -3.50284e-10 )  
( 3.12418e-09 1.39566e-09 -4.7438e-10 )  
( 3.23076e-09 8.88789e-10 1.05309e-10 )  
( 9.81864e-10 5.65659e-10 1.11743e-10 )  
( 2.35844e-09 1.17182e-09 -1.66299e-10 )  
( 2.15533e-09 -1.46562e-10 9.67487e-11 )  
( 4.60877e-09 7.51021e-10 2.92941e-10 )  
( 4.02348e-09 4.15e-10 1.2793e-09 )  
( 9.03414e-10 -2.91168e-10 7.36981e-11 )  
( 2.8762e-09 7.91758e-10 5.05867e-10 )  
( 3.76456e-09 4.13179e-10 1.13802e-09 )  
( 9.32833e-10 2.41607e-10 -4.02942e-11 )  
( 2.55686e-09 7.55844e-10 -1.09598e-09 )  
( 3.86628e-09 1.45816e-09 3.61457e-10 )  
( 1.89219e-09 1.37434e-09 -1.25973e-09 )  
( 2.43406e-09 -8.65429e-11 7.57341e-10 )  
( 4.51606e-09 2.52753e-09 -2.82868e-10 )  
( 4.58636e-09 2.07941e-10 1.5417e-09 )  
( 2.95853e-09 7.79122e-10 6.46627e-10 )  
( 1.8595e-09 3.21805e-10 2.88661e-10 )  
( 7.88492e-11 7.02659e-10 3.70921e-10 )  
( 5.03039e-10 5.21656e-10 1.07924e-10 )  
( 1.24256e-09 3.95759e-10 -3.11759e-10 )  
( 2.3733e-09 1.52383e-09 -6.48773e-10 )  
( 2.19251e-09 1.27298e-09 -6.11687e-10 )  
( 2.78061e-09 7.93934e-10 -2.33931e-10 )  
( 4.21635e-09 2.25656e-10 7.18749e-11 )  
( 3.46215e-09 1.36989e-09 -3.76289e-10 )  
( 6.47864e-10 5.49482e-10 -1.31138e-09 )  
( 1.80264e-09 1.08823e-09 -1.55824e-09 )  
( 3.32462e-09 1.72139e-09 2.91215e-10 )  
( 7.08116e-10 7.83027e-10 -7.55171e-10 )  
( 3.12011e-09 3.58913e-10 6.81338e-10 )  
( 4.02351e-09 5.3444e-10 1.56812e-09 )  
( 4.19131e-09 4.93605e-10 6.07899e-10 )  
( 4.34646e-09 1.62624e-09 3.83809e-10 )  
( 1.99251e-09 2.41934e-11 2.11105e-10 )  
( 3.63322e-09 1.32623e-09 6.95633e-10 )  
( 3.05721e-11 6.32471e-10 3.13893e-10 )  
( 3.9939e-09 1.0193e-09 7.05337e-10 )  
( 1.02937e-09 3.53888e-10 -5.96981e-10 )  
( 2.51027e-09 -8.46784e-11 2.4548e-10 )  
( 3.10789e-09 -7.4041e-11 -1.1069e-09 )  
( 1.41065e-09 -1.84595e-11 5.06416e-10 )  
( -1.84802e-10 5.26151e-10 2.33134e-10 )  
( 1.28526e-09 -3.11429e-10 -1.03601e-10 )  
( 2.62155e-09 4.49294e-10 2.4798e-10 )  
( 3.77596e-09 1.05196e-09 2.27152e-10 )  
( 3.53699e-09 1.52446e-09 1.07699e-09 )  
( 3.66601e-09 1.66108e-09 1.51867e-09 )  
( 1.88316e-09 2.70612e-10 3.52495e-10 )  
( 7.1751e-10 1.08932e-09 -9.17687e-10 )  
( 4.48179e-09 2.9548e-09 1.75797e-10 )  
( 3.01376e-10 9.14062e-10 -3.49616e-10 )  
( 1.91115e-09 8.67396e-10 -1.02196e-09 )  
( 2.45164e-09 1.32472e-09 4.1262e-10 )  
( 4.00893e-09 2.96703e-09 7.71223e-10 )  
( 2.49116e-09 1.6094e-10 3.37042e-10 )  
( 3.94871e-09 1.38413e-09 4.08238e-10 )  
( 1.48749e-09 1.06984e-09 -4.95748e-10 )  
( 1.75643e-09 1.64463e-09 -1.12054e-09 )  
( 5.34438e-10 1.33248e-10 8.11506e-10 )  
( 4.0759e-09 3.43919e-10 1.11624e-09 )  
( 1.17111e-09 7.94746e-10 -6.10935e-10 )  
( 4.64945e-09 5.43633e-10 9.91471e-10 )  
( 2.2331e-09 1.40151e-09 -1.9536e-10 )  
( -1.41676e-11 7.2011e-10 6.63822e-10 )  
( 1.22182e-09 -4.76676e-10 3.10672e-10 )  
( 3.87145e-09 9.04255e-10 9.64465e-10 )  
( 8.73906e-10 -5.11447e-10 -4.27838e-10 )  
( 3.44192e-09 1.90262e-09 -4.72621e-10 )  
( 3.27998e-09 1.17494e-09 1.36292e-09 )  
( 2.56608e-09 6.32739e-10 6.28433e-10 )  
( 3.64352e-09 4.21506e-10 7.88664e-10 )  
( 2.86796e-09 1.14933e-09 -7.06918e-10 )  
( 3.47095e-09 2.43487e-10 1.10894e-09 )  
( 9.37776e-10 9.65594e-10 -2.37596e-10 )  
( 1.57138e-09 6.25277e-12 6.63855e-12 )  
( 4.4131e-09 1.39137e-09 8.48976e-10 )  
( 2.13257e-09 8.53589e-10 8.5938e-10 )  
( 2.35332e-09 9.53045e-10 3.22595e-10 )  
( 1.99501e-09 4.39624e-10 3.80043e-10 )  
( 2.27981e-09 7.50962e-10 -5.15833e-11 )  
( 3.49721e-09 1.42593e-09 -2.01153e-10 )  
( 3.60089e-09 8.4562e-10 7.84712e-10 )  
( 4.33725e-09 -1.48073e-10 -2.60313e-09 )  
( 9.61232e-10 9.90786e-10 4.36625e-10 )  
( 4.18494e-09 4.85574e-11 1.43089e-09 )  
( 4.08168e-09 1.1456e-09 5.41492e-10 )  
( 1.59407e-09 -2.71608e-10 1.24779e-10 )  
( 1.88685e-09 1.00383e-09 8.4005e-10 )  
( 1.88713e-09 7.68067e-10 -4.22449e-10 )  
( 2.74345e-09 8.93712e-10 2.6968e-10 )  
( 2.57476e-10 1.28326e-09 -5.08633e-10 )  
( 1.30267e-09 6.37357e-10 -2.62279e-10 )  
( 3.73987e-09 5.15112e-10 1.16217e-09 )  
( 4.02228e-09 9.76311e-10 8.91425e-10 )  
( 2.81561e-09 8.86238e-11 1.77858e-10 )  
( 2.70189e-09 6.36234e-10 2.1454e-11 )  
( 3.99744e-09 -3.29104e-10 1.41618e-09 )  
( -6.877e-10 5.03675e-10 5.64398e-10 )  
( 2.2767e-09 2.57476e-10 6.94265e-11 )  
( 1.65637e-09 3.7055e-10 -5.44003e-11 )  
( 2.19557e-09 4.62726e-10 4.70762e-10 )  
( 2.31254e-09 4.33702e-10 3.78923e-10 )  
( 1.8249e-09 1.27709e-09 -1.16239e-10 )  
( 1.89932e-10 2.55005e-09 -2.8339e-10 )  
( 7.183e-10 1.06686e-09 -5.2227e-10 )  
( 2.31864e-09 4.87379e-10 4.89336e-11 )  
( 1.71651e-09 5.27452e-11 2.27915e-10 )  
( 8.72723e-10 1.05973e-09 -2.70705e-10 )  
( 1.38791e-10 2.0159e-09 -2.338e-10 )  
( 3.63927e-09 1.0064e-09 8.42775e-11 )  
( 3.04496e-09 6.88508e-10 -1.57122e-10 )  
( 2.50114e-09 1.47114e-11 9.6773e-10 )  
( 3.27134e-09 4.27664e-10 9.34621e-10 )  
( 1.13296e-09 3.67747e-10 -7.31031e-11 )  
( 1.75603e-09 1.04259e-09 3.90619e-11 )  
( 1.09515e-09 -1.99157e-10 -1.2463e-10 )  
( 8.39775e-10 3.67814e-10 1.97268e-10 )  
( 2.07218e-09 1.22612e-09 -1.84842e-10 )  
( 2.53345e-09 1.01598e-09 6.87252e-10 )  
( -4.46377e-12 3.26134e-09 1.50587e-09 )  
( -8.06115e-10 -8.36483e-11 4.12519e-10 )  
( 2.33261e-09 1.04924e-09 -2.02434e-10 )  
( 4.9773e-10 1.34737e-09 1.2718e-10 )  
( 2.84707e-09 4.31183e-10 4.59569e-10 )  
( 1.60157e-09 9.08713e-10 4.16183e-10 )  
( 2.29089e-09 1.04829e-09 2.25404e-10 )  
( 2.37128e-09 9.51105e-10 1.12551e-09 )  
( 1.8941e-09 4.20092e-10 9.25365e-11 )  
( 3.2401e-09 1.05722e-09 2.57679e-10 )  
( 5.70089e-10 1.49155e-09 1.10819e-10 )  
( 1.96086e-09 4.20397e-10 -5.36787e-10 )  
( 1.00595e-09 8.42818e-10 3.44749e-10 )  
( 9.30839e-10 4.30472e-10 -6.6408e-11 )  
( 2.43279e-09 1.17163e-09 3.21473e-10 )  
( 1.82821e-09 8.15602e-10 1.38212e-10 )  
( 5.10287e-10 9.15327e-10 -1.69974e-10 )  
( 7.27285e-09 2.29362e-09 -5.58323e-10 )  
( 9.1064e-10 -3.50488e-10 1.21235e-11 )  
( -1.7689e-09 3.07452e-12 4.37726e-10 )  
( 2.49589e-09 1.98586e-09 -1.20781e-11 )  
( 4.93295e-10 5.74222e-10 -9.83336e-10 )  
( 9.66685e-10 6.89173e-10 -3.34316e-10 )  
( 9.96621e-11 -3.13438e-10 5.07667e-10 )  
( 5.21896e-10 -4.52168e-10 -1.61988e-11 )  
( 1.04443e-09 8.52296e-10 -3.35014e-10 )  
( 8.67971e-10 9.95611e-10 -6.85305e-11 )  
( 2.24705e-09 4.18951e-10 -1.39924e-10 )  
( 1.0578e-10 3.56876e-09 1.01807e-09 )  
( 1.08102e-09 6.43405e-10 -8.83254e-11 )  
( 1.29212e-09 4.7947e-10 -3.5856e-10 )  
( 1.08708e-09 6.34175e-10 1.38386e-10 )  
( 1.25022e-09 2.28239e-10 -1.19299e-10 )  
( 1.11661e-09 3.32687e-10 -2.45748e-10 )  
( 8.85917e-10 2.90468e-10 2.49365e-10 )  
( 1.19906e-09 2.12478e-10 -2.81599e-10 )  
( 6.31446e-09 1.23935e-09 3.98401e-10 )  
( 1.54024e-09 3.63817e-10 -8.12953e-11 )  
( 8.35758e-10 3.10534e-10 -7.27908e-11 )  
( 8.49764e-10 2.13609e-10 7.64676e-11 )  
( -1.6527e-09 -3.62529e-10 1.26539e-09 )  
( -4.12449e-09 1.51646e-08 9.36946e-10 )  
( 7.2546e-10 5.59546e-11 -9.3827e-12 )  
( 1.9863e-09 6.1035e-10 4.16972e-10 )  
( 4.42752e-10 6.22804e-10 5.88173e-11 )  
( 1.52343e-09 5.45783e-10 -1.00935e-10 )  
( -4.87421e-10 1.02345e-09 -5.89543e-10 )  
( 7.84911e-10 5.83361e-10 -7.33791e-11 )  
( 1.05011e-09 3.33483e-10 1.99582e-10 )  
( -7.18485e-10 -3.65161e-10 3.6392e-10 )  
( 1.58099e-09 6.89343e-10 3.74348e-10 )  
( 2.83514e-09 -4.7576e-08 -6.58843e-10 )  
( 1.13051e-09 1.36015e-10 7.32555e-11 )  
( 3.60976e-09 1.2201e-10 -6.11681e-11 )  
( 5.29669e-10 2.30224e-10 -1.03548e-10 )  
( 1.45453e-09 2.80599e-10 1.91041e-10 )  
( 1.10777e-09 3.61297e-10 3.68722e-12 )  
( 1.37214e-09 2.9214e-10 -1.40127e-10 )  
)
