/*--------------------------------*- C++ -*----------------------------------*\
| =========                 |                                                 |
| \\      /  F ield         | OpenFOAM: The Open Source CFD Toolbox           |
|  \\    /   O peration     | Version:  4.x                                   |
|   \\  /    A nd           | Web:      www.OpenFOAM.org                      |
|    \\/     M anipulation  |                                                 |
\*---------------------------------------------------------------------------*/
FoamFile
{
    version     2.0;
    format      ascii;
    class       volVectorField;
    location    "28";
    object      GField;
}
// * * * * * * * * * * * * * * * * * * * * * * * * * * * * * * * * * * * * * //

dimensions      [1 -2 -1 0 0 0 0];

internalField   nonuniform List<vector> 
132
(
(100.207 -1.58214 -3.72639)
(48.9623 -1.03298 -2.59283)
(110.529 -1.90815 -4.15258)
(65.4308 -0.752898 -2.39466)
(119.907 -1.31554 -3.36509)
(77.6132 -0.311988 -1.94508)
(127.542 -0.777691 -2.9208)
(86.7704 0.0485521 -2.1205)
(135.689 0.0460667 -2.73477)
(100.586 -3.03046 -4.30778)
(46.2299 -2.15482 -2.4882)
(107.886 -3.76946 -4.36668)
(58.7744 -1.90653 -2.51265)
(115.427 -3.07887 -3.81275)
(68.6259 -1.33871 -1.97441)
(121.568 -2.71639 -3.20208)
(76.3093 -1.99361 -1.69931)
(127.381 -2.549 -2.74438)
(101.18 -2.27144 -4.75218)
(44.4081 -1.37397 -2.34014)
(106.167 -2.68278 -4.60885)
(54.2631 -1.50346 -2.34397)
(111.221 -1.9876 -4.24906)
(61.5315 -0.759592 -2.0555)
(115.724 -1.57545 -4.03303)
(65.6957 -0.474265 -1.16538)
(117.496 -1.16633 -3.7391)
(100.811 -1.31551 -4.9136)
(44.4564 -0.363317 -2.25485)
(106.423 -0.684212 -4.56115)
(98.8237 -2.09543 -7.45724)
(42.6611 -0.921931 -4.35588)
(102.703 -2.0764 -7.70464)
(49.4604 -0.851154 -3.79491)
(106.833 -1.70094 -5.83363)
(54.7692 -0.344191 -2.9783)
(110.703 -1.03672 -4.49277)
(58.3901 0.338671 -2.6054)
(114.166 -0.086794 -2.87383)
(98.4217 -3.8174 -8.38289)
(38.1104 -1.73424 -4.18553)
(99.8659 -4.05302 -8.44819)
(39.8738 -1.53885 -3.60387)
(100.847 -3.67333 -6.72242)
(39.8514 -1.0197 -2.609)
(102.334 -3.47693 -5.3852)
(38.9748 -0.596001 -2.04763)
(104.381 -3.31558 -3.60306)
(97.5318 -2.68687 -9.08112)
(34.9321 -0.941776 -4.08784)
(97.6528 -2.67002 -9.29546)
(32.6488 -0.784071 -3.49404)
(96.9136 -2.12695 -6.98319)
(27.7051 -0.17466 -2.21413)
(96.3884 -1.16916 -4.08645)
(20.2463 0.350738 -1.08711)
(96.7419 -1.02714 -1.57057)
(96.5456 -0.759412 -9.70173)
(35.3221 -0.402447 -4.73624)
(97.123 -0.729924 -10.1015)
(33.0285 -0.203671 -3.92784)
(96.1908 -0.0213555 -7.88885)
(97.3466 -2.56337 -5.7105)
(40.2306 -1.16686 -3.44607)
(99.4074 -2.75008 -5.69268)
(44.1087 -1.08657 -3.38661)
(102.06 -2.54084 -4.50984)
(47.4162 -0.701491 -3.30445)
(104.624 -2.11965 -3.59865)
(49.021 -0.314396 -3.76077)
(107.378 -1.29515 -3.39528)
(96.6819 -4.65208 -6.52334)
(34.5768 -2.1168 -3.46379)
(96.0206 -5.33459 -6.26813)
(31.5856 -1.94735 -2.71827)
(95.229 -4.33258 -4.42563)
(27.3661 -1.17749 -2.40811)
(95.0857 -2.57459 -3.62649)
(21.6838 -0.8008 -2.14414)
(95.9502 -1.37175 -2.99813)
(95.2357 -3.64219 -6.43426)
(29.8015 -1.65511 -3.30516)
(92.0243 -4.0993 -6.26959)
(18.4394 -1.01678 -2.04641)
(88.9861 -2.79343 -3.89218)
(8.32159 -0.386583 -1.09325)
(87.9508 -0.879703 -1.78555)
(2.57117 -0.134535 -0.499764)
(88.4519 0.255306 -0.288729)
(94.6442 -0.175443 -6.74401)
(27.942 -0.03441 -3.51755)
(90.392 0.185101 -6.65826)
(14.9226 -0.0438332 -1.74326)
(87.1722 0.299684 -3.7706)
(4.38344 -0.098865 -0.66889)
(85.9816 -0.117271 -2.06328)
(96.6049 -2.97878 -4.12212)
(41.1486 -1.45639 -2.6996)
(98.7229 -2.90831 -4.28163)
(44.8408 -1.11663 -2.62738)
(100.734 -2.08747 -3.413)
(46.711 -0.922996 -2.48643)
(102.555 -1.79532 -2.88582)
(47.6961 -0.386271 -2.672)
(103.968 -0.91536 -2.38975)
(95.4958 -4.58724 -4.69134)
(33.8122 -2.28357 -2.51946)
(93.6509 -4.88143 -4.71049)
(29.2779 -1.95852 -1.9861)
(92.6686 -3.83138 -3.19439)
(25.1588 -1.8877 -1.51692)
(91.89 -2.86982 -2.22885)
(19.9053 -2.08266 -1.46414)
(92.0226 -2.23852 -1.71032)
(94.5304 -2.98684 -4.5471)
(31.302 -1.5693 -2.36497)
(90.5099 -3.2959 -3.8208)
(21.5648 -1.10528 -1.40494)
(87.4481 -1.91969 -2.25928)
(13.523 -0.834906 -0.982861)
(85.1987 -0.369471 -2.04237)
(7.86379 -0.722001 -0.779685)
(83.4435 0.0480995 -0.992634)
(94.5125 -0.901297 -3.99417)
(30.3354 -0.0913854 -2.33985)
(89.7443 -0.224638 -3.5273)
(19.5721 0.294857 -1.49977)
(87.3703 0.211266 -2.29067)
(13.0709 0.398522 -1.22078)
(86.0166 0.116615 -1.97344)
(10.0681 0.567759 -1.24521)
(85.689 1.1803 -2.29246)
)
;

boundaryField
{
    inlet
    {
        type            calculated;
        value           uniform (67 0 0);
    }
    outlet
    {
        type            calculated;
        value           nonuniform 0();
    }
    wall
    {
        type            calculated;
        value           uniform (0 0 0);
    }
    procBoundary0to1
    {
        type            processor;
        value           nonuniform List<vector> 
12
(
(92.7797 1.74119 -1.54886)
(81.799 -1.01901 -1.46778)
(66.4465 0.0711083 -1.74845)
(60.5023 1.42965 -1.69446)
(38.3102 -0.664143 -1.52732)
(10.2126 0.297971 -0.756535)
(49.3549 0.563782 -4.33745)
(16.5501 -0.925635 -2.13607)
(0.000101707 2.89325e-05 -9.29868e-05)
(45.8244 -0.190919 -1.61328)
(14.1689 -2.39941 -1.02366)
(1.76762 -0.295027 -0.163824)
)
;
    }
    procBoundary0to2
    {
        type            processor;
        value           nonuniform List<vector> 
44
(
(54.4493 -0.390168 -2.17381)
(111.082 -0.404108 -4.18042)
(62.5485 -0.420125 -1.69569)
(115.952 -0.366937 -2.95042)
(67.3581 0.111942 -0.493106)
(120.357 0.089894 -2.22982)
(98.9279 0.554048 -4.0586)
(42.2771 0.341283 -2.33517)
(54.4493 -0.390168 -2.17381)
(103.624 1.01517 -4.62203)
(54.4493 -0.390168 -2.17381)
(111.082 -0.404108 -4.18042)
(28.2788 -0.184437 -2.94191)
(96.0822 0.462155 -5.06379)
(24.6675 0.0402795 -2.50732)
(97.8846 1.6483 -2.6415)
(97.0706 1.13553 -7.95885)
(35.0028 0.23604 -3.8502)
(96.4196 1.10266 -8.34785)
(31.1203 0.62708 -3.12459)
(28.2788 -0.184437 -2.94191)
(95.5085 1.28663 -6.22854)
(28.2788 -0.184437 -2.94191)
(96.0822 0.462155 -5.06379)
(0.000145495 -2.94723e-05 -8.56919e-05)
(85.1847 -0.603382 -0.837495)
(95.3464 2.17418 -6.58059)
(32.2066 0.815743 -3.26192)
(92.8084 2.01718 -5.88795)
(24.1093 0.729875 -2.13872)
(90.9293 1.39097 -3.92153)
(17.2597 0.347164 -1.57474)
(0.000145495 -2.94723e-05 -8.56919e-05)
(89.9159 -0.481337 -2.49034)
(0.000145495 -2.94723e-05 -8.56919e-05)
(85.1847 -0.603382 -0.837495)
(94.1787 1.75446 -5.47386)
(30.1544 1.07963 -2.29043)
(90.1204 2.2727 -4.44536)
(21.0755 0.965852 -1.69171)
(88.2034 1.51013 -3.01493)
(14.1911 0.974711 -1.02912)
(87.1351 0.61297 -2.53632)
(8.63236 0.895461 -0.93558)
)
;
    }
    procBoundary0to4
    {
        type            processor;
        value           nonuniform List<vector> 
36
(
(96.3394 -3.22363 -2.19649)
(40.5695 -1.5226 -1.39872)
(97.4291 -3.49953 -2.3615)
(42.8205 -1.39962 -1.53704)
(98.8846 -2.75542 -1.54659)
(44.0383 -0.818956 -1.15549)
(99.9977 -1.97924 -1.35943)
(43.432 -0.708365 -1.1564)
(101.078 -1.35995 -0.124079)
(94.6794 -5.07222 -1.88797)
(32.6817 -2.27078 -0.964682)
(92.1783 -5.09716 -1.8817)
(24.4599 -1.58028 -0.865508)
(90.5149 -3.56989 -1.38627)
(17.9392 -0.987241 -0.4793)
(90.3161 -2.31103 -1.05325)
(11.8302 -0.802099 -0.339259)
(90.2682 -0.879806 0.142856)
(94.2649 -2.96336 -1.91304)
(29.3454 -1.65666 -0.875514)
(89.5135 -2.9971 -1.5728)
(17.9198 -1.12849 -0.317168)
(87.2223 -2.13242 -0.682856)
(9.72009 -0.779201 0.104854)
(86.4508 -0.903539 -0.329541)
(3.33273 -0.325764 0.159425)
(86.3847 -0.617979 0.835186)
(94.3492 -1.16819 -2.26597)
(29.8069 -0.0784414 -0.770782)
(88.8547 -0.514325 -1.81513)
(18.726 -0.344263 -0.529585)
(85.785 -0.439239 -1.51535)
(10.528 -0.228572 0.0916348)
(83.8664 -0.604101 -1.30874)
(4.95249 -0.170563 0.265042)
(83.3074 0.0419261 -0.223209)
)
;
    }
    procBoundary0to6
    {
        type            processor;
        value           uniform (86.0936 0.832285 -0.481267);
    }
    procBoundary0to7
    {
        type            processor;
        value           uniform (7.03078 0.705033 -1.16498);
    }
}


// ************************************************************************* //
