/*--------------------------------*- C++ -*----------------------------------*\
| =========                 |                                                 |
| \\      /  F ield         | OpenFOAM: The Open Source CFD Toolbox           |
|  \\    /   O peration     | Version:  4.x                                   |
|   \\  /    A nd           | Web:      www.OpenFOAM.org                      |
|    \\/     M anipulation  |                                                 |
\*---------------------------------------------------------------------------*/
FoamFile
{
    version     2.0;
    format      ascii;
    class       volVectorField;
    location    "39";
    object      GField;
}
// * * * * * * * * * * * * * * * * * * * * * * * * * * * * * * * * * * * * * //

dimensions      [1 -2 -1 0 0 0 0];

internalField   nonuniform List<vector> 
114
(
(55.0496 -0.601292 -2.89006)
(111.711 -0.961049 -5.43975)
(63.5503 -0.697064 -2.61351)
(117.028 -1.02737 -4.07879)
(68.9889 -0.29347 -1.57472)
(122.168 -0.59659 -2.67864)
(99.136 0.32111 -4.57689)
(41.8372 0.151521 -2.64945)
(103.583 0.726437 -5.39062)
(49.6659 0.392656 -2.44516)
(107.069 0.384137 -4.52804)
(54.521 -0.243191 -2.04138)
(110.062 -0.225813 -3.68756)
(56.7092 -0.856964 -1.19793)
(112.822 -0.385842 -2.48772)
(99.9783 3.26222 -4.5857)
(44.4471 1.60842 -2.53418)
(106.098 3.36984 -4.89403)
(55.5695 1.9327 -2.1649)
(111.873 3.29454 -3.83521)
(63.3434 1.64451 -1.55104)
(116.7 2.75545 -2.77471)
(68.3361 1.18001 -0.83313)
(121.251 2.31176 -1.86439)
(100.291 1.75618 -3.86246)
(48.9726 0.884114 -2.31949)
(109.382 1.73885 -4.08601)
(64.2255 0.842714 -2.12047)
(118.861 1.5296 -3.33856)
(76.7764 0.361302 -1.62867)
(127.465 0.919722 -2.47476)
(85.8007 -0.611093 -0.888223)
(133.669 0.074618 -1.74767)
(26.6039 -0.0134462 -1.79988)
(95.8841 -0.0239528 -3.92752)
(22.588 0.211657 -1.23653)
(98.003 0.501396 -2.07647)
(97.4468 1.23547 -7.60074)
(34.0152 0.276679 -3.55046)
(96.4003 1.34317 -7.82183)
(29.2085 0.659307 -2.79542)
(95.0144 1.67917 -5.80452)
(23.5697 0.258614 -2.10831)
(93.9989 0.763189 -3.8316)
(17.1418 -0.162401 -1.44287)
(94.4405 0.433221 -1.98906)
(97.7905 3.89886 -7.76573)
(36.5063 1.89357 -3.9954)
(97.9718 4.43799 -8.24019)
(35.5979 1.82523 -3.33995)
(98.6163 4.23823 -6.38454)
(34.3531 1.47859 -2.72927)
(99.6339 3.69642 -4.99193)
(31.8384 0.90626 -2.39004)
(101.596 2.77267 -3.46903)
(98.3888 2.43138 -7.01313)
(43.5484 1.19876 -4.0455)
(102.964 2.53512 -7.17421)
(51.3726 0.978244 -3.97269)
(107.75 2.10062 -5.82756)
(57.6788 0.454821 -3.93217)
(112.106 1.3821 -4.62458)
(61.7352 -0.386214 -3.23063)
(116.125 0.443363 -3.6068)
(10.3955 -0.673569 -1.49411)
(91.6645 -1.2366 -1.36612)
(95.4286 1.54179 -6.76058)
(31.9706 0.3507 -3.29931)
(92.7845 1.11929 -6.27171)
(23.277 0.12804 -2.05067)
(90.6491 0.494547 -4.17667)
(14.7372 -0.296933 -1.2292)
(89.0578 -0.863474 -2.27815)
(6.13742 -0.271686 -0.685548)
(88.3596 -1.03233 -0.580802)
(96.4115 3.81455 -6.29172)
(33.5537 1.56544 -3.14689)
(94.2738 4.1381 -5.8372)
(27.0106 1.40987 -2.26072)
(92.7145 3.59814 -4.04836)
(20.8518 0.902583 -1.50791)
(91.8533 2.59264 -2.27342)
(13.6611 0.610728 -0.926119)
(91.9707 1.38067 -0.813562)
(97.1883 2.5553 -5.89445)
(40.2745 1.37645 -3.44266)
(99.2183 3.17322 -5.84188)
(44.0908 1.28432 -3.36347)
(101.856 2.71558 -4.55696)
(47.487 0.636357 -2.90161)
(103.106 2.11039 -3.04063)
(48.6582 0.441395 -2.82047)
(105.42 1.09199 -2.17488)
(94.7821 2.04325 -5.70833)
(28.9566 1.10745 -2.32586)
(90.425 2.90804 -4.72633)
(18.8233 0.800803 -1.60625)
(88.2622 2.32669 -2.84805)
(10.9013 0.561848 -0.836927)
(87.0847 1.41216 -0.575059)
(4.03355 0.273126 -0.432564)
(94.8823 4.77625 -4.83361)
(33.4098 2.25779 -2.33057)
(92.8176 5.07648 -4.25329)
(28.3113 1.71429 -2.03024)
(92.0657 4.41962 -3.33114)
(24.4512 1.51088 -1.53437)
(92.3768 3.64966 -2.01365)
(96.4689 2.85411 -4.40231)
(40.6558 1.39014 -2.69975)
(98.2295 2.83423 -4.46118)
(43.6635 1.07682 -3.13399)
(100.178 2.21033 -4.05559)
(46.3045 0.715192 -2.45411)
)
;

boundaryField
{
    inlet
    {
        type            calculated;
        value           uniform (67 0 0);
    }
    outlet
    {
        type            calculated;
        value           nonuniform 0();
    }
    wall
    {
        type            calculated;
        value           uniform (0 0 0);
    }
    procBoundary2to0
    {
        type            processor;
        value           nonuniform List<vector> 
44
(
(54.3534 -1.28888 -3.11946)
(111.289 -1.60159 -5.54276)
(61.6975 -0.487703 -2.96573)
(115.84 -1.15347 -4.92589)
(65.9807 -0.111746 -2.1914)
(117.842 -0.744844 -3.81769)
(100.975 -1.54345 -5.6609)
(44.6667 -0.515048 -2.79115)
(106.789 -1.10367 -5.71457)
(106.789 -1.10367 -5.71457)
(31.8357 -0.0804515 -2.9643)
(96.0482 -0.123406 -6.35992)
(25.5037 -0.121058 -1.37203)
(94.9876 -0.626466 -2.93687)
(18.1588 0.393479 -0.413968)
(95.1598 0.0513519 -1.07491)
(96.8968 -0.683928 -8.87282)
(34.5601 -0.322999 -4.05377)
(97.2168 -0.686076 -8.73234)
(31.8357 -0.0804515 -2.9643)
(96.0482 -0.123406 -6.35992)
(96.0482 -0.123406 -6.35992)
(13.858 -0.671849 -1.54625)
(91.0067 -1.58496 -2.8048)
(13.4495 -0.314998 -1.9462)
(92.2013 -1.08253 -0.162927)
(95.1108 -0.879805 -6.98429)
(29.9016 -0.436555 -3.70626)
(92.4137 -1.02423 -7.32989)
(20.5882 -0.454888 -2.12949)
(90.8511 -1.18161 -4.56564)
(13.858 -0.671849 -1.54625)
(91.0067 -1.58496 -2.8048)
(91.0067 -1.58496 -2.8048)
(1.91225 0.0945675 -0.293164)
(87.0283 -0.374442 -0.280515)
(95.1649 -0.597824 -4.63012)
(28.7668 0.033118 -2.5856)
(90.2391 0.337593 -4.5645)
(15.7965 0.287208 -1.5217)
(88.1246 0.746982 -3.44656)
(6.7569 0.197613 -0.805161)
(87.2063 -0.154364 -2.2307)
(1.91225 0.0945675 -0.293164)
)
;
    }
    procBoundary2to3
    {
        type            processor;
        value           nonuniform List<vector> 
12
(
(71.4065 -0.866246 -0.884321)
(56.3855 -1.10578 -0.882893)
(71.2224 1.98672 -0.351059)
(91.47 -1.67844 -0.725733)
(19.1084 0.25854 -1.35921)
(11.2422 -0.194414 -1.19556)
(28.9823 1.18674 -2.43605)
(63.4459 -1.54368 -3.25944)
(6.83325 -0.584005 -1.58797)
(3.60297e-05 -8.48752e-06 5.60582e-06)
(7.55139 0.619718 -0.584842)
(48.0488 0.0729274 -2.95189)
)
;
    }
    procBoundary2to6
    {
        type            processor;
        value           nonuniform List<vector> 
32
(
(86.5261 0.977266 0.406031)
(22.0063 1.55498 -1.5991)
(93.9581 2.36886 -1.13949)
(102.425 1.39567 -2.55548)
(48.3425 -0.157379 -2.93784)
(104.582 0.162631 -2.33826)
(92.1453 1.24232 -1.78593)
(26.8753 0.788661 -0.554513)
(87.5117 1.48878 -1.27055)
(13.0472 0.369988 -0.390095)
(84.1705 0.802147 -0.753834)
(3.22206 0.109787 -0.105305)
(82.8919 -0.289898 -0.438313)
(86.5261 0.977266 0.406031)
(22.0063 1.55498 -1.5991)
(3.74021e-05 -9.98509e-07 2.01526e-06)
(94.2968 5.0967 -1.43035)
(30.7742 1.80554 -0.810297)
(90.9981 4.75346 -1.18922)
(21.6337 1.33203 -0.89453)
(88.5787 3.01966 -0.996841)
(13.5268 0.872815 -0.737433)
(22.0063 1.55498 -1.5991)
(102.425 1.39567 -2.55548)
(87.1899 1.34949 -1.14784)
(96.1966 3.09913 -1.67167)
(39.9723 1.4809 -1.11579)
(96.8558 3.28633 -1.69127)
(41.3803 1.12574 -1.71674)
(96.5812 2.39331 -1.67941)
(102.425 1.39567 -2.55548)
(40.3239 0.82805 -1.75043)
)
;
    }
}


// ************************************************************************* //
