/*--------------------------------*- C++ -*----------------------------------*\
| =========                 |                                                 |
| \\      /  F ield         | OpenFOAM: The Open Source CFD Toolbox           |
|  \\    /   O peration     | Version:  4.x                                   |
|   \\  /    A nd           | Web:      www.OpenFOAM.org                      |
|    \\/     M anipulation  |                                                 |
\*---------------------------------------------------------------------------*/
FoamFile
{
    version     2.0;
    format      ascii;
    class       volScalarField;
    location    "39";
    object      Ksl;
}
// * * * * * * * * * * * * * * * * * * * * * * * * * * * * * * * * * * * * * //

dimensions      [1 -3 -1 0 0 0 0];

internalField   nonuniform List<scalar> 
114
(
6290.97
3144.24
5547.5
3034.3
5116.49
2885.09
3396.49
8079.91
3327.41
6980.88
3276.48
6430.91
3207.35
6179.18
3115.53
3343.75
7555.42
3222.25
6192.16
3134.53
5524.96
3030.74
5153.93
2913.34
3290.1
6771.18
3089.14
5284.88
2905.71
4507.42
2733.88
4061.31
2625.75
13126.5
3679.77
15408.3
3559.28
3439.34
9952.9
3591.1
11832.7
3690.04
14716
3732.11
20182.9
3689.09
3406.37
9194.38
3518.27
9659.36
3535.04
10109.2
3524.18
10911.1
3443.91
3331.65
7601.26
3293.07
6581.33
3168.43
5941.56
3080.99
5570.01
2971.88
32091.1
3682.83
3495.74
10527
3695.2
14633.8
3794.41
23008.9
3836.55
54682.2
3833.32
3436.14
9952.34
3626.33
12554.7
3704.3
16276.4
3739.64
24788
3708.81
3364.67
8148.72
3382.28
7584.32
3305.29
7078.23
3291.61
6926.46
3205.76
3503.59
11539.5
3752.02
17803
3829.35
30473.7
3845.86
80916.5
3456.88
9906.06
3641.69
11819.5
3675.2
13614.6
3634.58
3354.62
8002.62
3388.74
7559.15
3338.71
7134.62
)
;

boundaryField
{
    inlet
    {
        type            zeroGradient;
    }
    outlet
    {
        type            zeroGradient;
    }
    wall
    {
        type            zeroGradient;
    }
    procBoundary2to0
    {
        type            processor;
        value           nonuniform List<scalar> 
44
(
6389.3
3184.05
5724.55
3071.08
5371.6
3028.11
3358.51
7596.66
3224.07
3224.07
10879.6
3661.36
13758.7
3734.56
19284.9
3701.19
3476.73
9811.55
3566.15
10879.6
3661.36
3661.36
24484.4
3774.63
25023.4
3697.96
3519.36
11250.6
3720.51
16528
3797
24484.4
3774.63
3774.63
170300
3793.29
3497.46
11646.3
3772.48
21236.4
3842.95
48949.6
3845.06
170300
)
;
    }
    procBoundary2to3
    {
        type            processor;
        value           nonuniform List<scalar> 
12
(
4949.44
6242.49
4940.69
3783.52
18090.1
30669.6
11993.7
5406.15
47507.5
1e+10
44616.1
6957.39
)
;
    }
    procBoundary2to6
    {
        type            processor;
        value           nonuniform List<scalar> 
32
(
3825.09
15011.2
3554.09
3244.14
6820.65
3165.84
3570.85
12372.3
3838.54
25410.4
3955.37
101928
3980.2
3825.09
15011.2
1e+10
3482.82
10717.3
3675.75
15287.2
3769.65
24279.7
15011.2
3244.14
3802.56
3368.65
8113.47
3385.19
7882.77
3409.49
3244.14
8091.58
)
;
    }
}


// ************************************************************************* //
