/*--------------------------------*- C++ -*----------------------------------*\
| =========                 |                                                 |
| \\      /  F ield         | OpenFOAM: The Open Source CFD Toolbox           |
|  \\    /   O peration     | Version:  4.x                                   |
|   \\  /    A nd           | Web:      www.OpenFOAM.org                      |
|    \\/     M anipulation  |                                                 |
\*---------------------------------------------------------------------------*/
FoamFile
{
    version     2.0;
    format      ascii;
    class       volScalarField;
    location    "53";
    object      QPartFluidCoeff;
}
// * * * * * * * * * * * * * * * * * * * * * * * * * * * * * * * * * * * * * //

dimensions      [1 -1 -3 -1 0 0 0];

internalField   nonuniform List<scalar> 
108
(
-1.64149e+07
-2.36958e+07
-2.80895e+07
-1.99352e+07
-2.38598e+07
-1.99801e+07
-2.98154e+07
-2.29198e+07
-3.21761e+07
-2.3393e+07
-2.43286e+07
-3.12971e+07
-3.34757e+07
-3.37197e+07
-2.86508e+07
-2.71499e+07
-1.92729e+07
-3.70457e+07
-2.22958e+07
-3.42658e+07
-2.77227e+07
-3.12568e+07
-2.70971e+07
-2.10395e+07
-2.43825e+07
-3.43393e+07
-2.24899e+07
-1.1529e+07
-2.24536e+07
-3.13513e+07
-1.90666e+07
-2.93943e+07
-2.23473e+07
-3.68451e+07
-2.00657e+07
-2.36112e+07
-1.68785e+07
-1.82969e+07
-2.6848e+07
-2.77795e+07
-2.84223e+07
-1.82029e+07
-1.8591e+07
-2.51111e+07
-3.19431e+07
-2.08225e+07
-2.53365e+07
-2.5187e+07
-2.53147e+07
-2.58076e+07
-2.27154e+07
-2.83586e+07
-3.09061e+07
-3.5017e+07
-1.3985e+07
-2.44132e+07
-3.34309e+07
-2.76259e+07
-3.22651e+07
-2.74994e+07
-2.72791e+07
-2.38167e+07
-2.8776e+07
-2.06838e+07
-2.862e+07
-2.51519e+07
-3.21735e+07
-3.50936e+07
-2.53752e+07
-3.94887e+07
-2.82611e+07
-2.71483e+07
-1.51757e+07
-2.1e+07
-1.48165e+07
-2.01802e+07
-2.11694e+07
-2.67131e+07
-2.67381e+07
-2.17261e+07
-2.73623e+07
-1.62516e+07
-3.00336e+07
-2.37594e+07
-1.94936e+07
-2.49065e+07
-2.57103e+07
-2.46202e+07
-2.0762e+07
-2.86171e+07
-1.74454e+07
-2.48717e+07
-2.82094e+07
-2.39013e+07
-2.23761e+07
-2.30941e+07
-2.45679e+07
-2.64436e+07
-2.34971e+07
-2.41783e+07
-2.33766e+07
-2.23397e+07
-2.65992e+07
-2.81482e+07
-3.1803e+07
-1.65796e+07
-1.72755e+07
-2.36471e+07
)
;

boundaryField
{
    inlet
    {
        type            calculated;
        value           uniform 0;
    }
    outlet
    {
        type            calculated;
        value           nonuniform 0();
    }
    wall
    {
        type            calculated;
        value           uniform 0;
    }
    procBoundary4to0
    {
        type            processor;
        value           nonuniform List<scalar> 
36
(
329.126
377.015
511.641
391.934
535.473
587.356
446.082
327.09
456.39
388.244
725.255
687.195
611.053
544.045
500.542
788.156
542.652
523.654
392.182
422.035
684.255
461.007
657.151
634.836
623.108
373.792
705.455
364.945
509.237
743.734
774.547
417.376
745.503
648.749
423.401
198.375
)
;
    }
    procBoundary4to5
    {
        type            processor;
        value           nonuniform List<scalar> 
12
(
502.907
613.628
643.946
777.682
548.953
468.772
559.911
400.992
188.208
526.979
459.609
545.358
)
;
    }
    procBoundary4to6
    {
        type            processor;
        value           nonuniform List<scalar> 
27
(
752.363
676.821
459.776
603.351
837.098
458.995
658.174
504.442
753.519
555.502
680.471
730.096
652.865
504.214
596.732
599.71
462.572
723.827
371.343
408.942
562.045
531.751
542.385
492.953
779.382
659.23
343.306
)
;
    }
}


// ************************************************************************* //
