/*--------------------------------*- C++ -*----------------------------------*\
| =========                 |                                                 |
| \\      /  F ield         | OpenFOAM: The Open Source CFD Toolbox           |
|  \\    /   O peration     | Version:  4.x                                   |
|   \\  /    A nd           | Web:      www.OpenFOAM.org                      |
|    \\/     M anipulation  |                                                 |
\*---------------------------------------------------------------------------*/
FoamFile
{
    version     2.0;
    format      ascii;
    class       volVectorField;
    location    "53";
    object      U;
}
// * * * * * * * * * * * * * * * * * * * * * * * * * * * * * * * * * * * * * //

dimensions      [0 1 -1 0 0 0 0];

internalField   nonuniform List<vector> 
108
(
(0.029904 -0.000886384 -0.000569363)
(0.0128938 -0.000403876 -0.000370386)
(0.0309634 -0.000942719 -0.000554175)
(0.0138877 -0.000375517 -0.000420923)
(0.0316674 -0.000700123 -0.000277242)
(0.0145559 -0.000202711 -0.000304869)
(0.0324282 -0.000490946 -0.000221635)
(0.0148474 -0.000193094 -0.000294258)
(0.033443 -0.000482672 0.000215506)
(0.0296899 -0.00170292 -0.00047564)
(0.0106038 -0.00081434 -0.000251533)
(0.0294411 -0.0017874 -0.000359905)
(0.0085384 -0.000624654 -0.000247519)
(0.0293227 -0.00134046 -0.000129827)
(0.00702625 -0.000453504 -0.000144469)
(0.0294263 -0.00101156 9.81088e-06)
(0.00559335 -0.000433471 -0.000128266)
(0.0299449 -0.000612901 0.000279436)
(0.0296839 -0.000913579 -0.00042231)
(0.00949924 -0.000501524 -0.00019596)
(0.0287342 -0.00102991 -0.000179714)
(0.00623785 -0.000339479 -5.79235e-05)
(0.0283679 -0.00090017 6.73516e-05)
(0.00383059 -0.000239925 5.15265e-05)
(0.0283472 -0.000544006 -0.000181933)
(0.00133899 -9.05598e-05 5.73689e-05)
(0.0284622 4.09876e-05 -0.00019001)
(0.029734 -0.000619418 -0.000692475)
(0.00957393 -0.000170387 -0.000268852)
(0.0287075 -0.00058936 -0.000518321)
(0.00605527 -0.000242287 -0.000251973)
(0.0281633 -0.000494165 -0.000383304)
(0.00290592 -0.000159346 -8.27151e-05)
(0.0279098 9.47733e-05 -0.000254891)
(0.000555222 -4.88417e-05 -1.20539e-05)
(0.0275882 -9.17137e-06 9.37133e-05)
(0.0299049 -0.000698001 0.000189615)
(0.0129593 -0.000291219 7.01595e-05)
(0.0310122 -0.000592607 0.000214468)
(0.0139003 -0.00021323 -0.00017197)
(0.0316699 -0.000463073 -1.78943e-05)
(0.0144319 -0.000172372 -0.000257606)
(0.0321482 -0.0003131 2.4697e-05)
(0.0143306 5.91427e-06 -0.000258088)
(0.0327004 -0.000104479 0.000154528)
(0.0298008 -0.0014695 0.000397087)
(0.0115443 -0.000788436 0.000146796)
(0.0300051 -0.0015752 0.000596248)
(0.0106974 -0.000572301 4.10206e-05)
(0.0300851 -0.00124261 0.000364783)
(0.00966768 -0.000403564 -7.47142e-05)
(0.030138 -0.000782175 0.000343555)
(0.00827231 -0.000241054 -7.50516e-05)
(0.0304833 -0.000503912 0.000407916)
(0.0297771 -0.000940542 0.000552906)
(0.0102774 -0.000401822 0.000226316)
(0.0292463 -0.000876496 0.000711858)
(0.00764122 -0.000266694 0.000164714)
(0.0288183 -0.000503007 0.000539962)
(0.00531502 -8.91877e-05 8.98952e-05)
(0.0286986 -5.98379e-05 0.000500262)
(0.00312599 8.35111e-06 7.2755e-05)
(0.0288271 8.22819e-05 0.000274799)
(0.0297076 -0.000300952 0.000389391)
(0.0100475 2.67921e-05 0.000319129)
(0.0289737 -3.76792e-05 0.000766467)
(0.00714377 -7.24903e-06 0.000200158)
(0.0287158 -2.27992e-05 0.000816771)
(0.00474516 -7.85069e-05 0.000205496)
(0.028761 -4.174e-05 0.000783522)
(0.00300443 -6.48406e-05 0.000131602)
(0.028954 -5.36085e-05 0.000273002)
(0.0300242 -0.000670895 0.000458754)
(0.0144042 -0.000341978 0.000336705)
(0.0320331 -0.000565169 0.000696188)
(0.0171831 -0.000179337 0.000257076)
(0.0336259 -0.000323356 0.000541617)
(0.0188552 -5.30528e-05 0.000175732)
(0.0347636 -0.000192534 0.000709423)
(0.0200233 -5.03332e-05 0.000494676)
(0.0361505 -0.00025878 0.000962857)
(0.0299794 -0.00136662 0.000483715)
(0.0132669 -0.000785681 0.000290124)
(0.0310539 -0.00137585 0.000723928)
(0.0147133 -0.000566793 0.000293673)
(0.0321571 -0.000926872 0.000679592)
(0.0158084 -0.000441624 0.000290901)
(0.0330783 -0.00070563 0.000831776)
(0.0165271 -0.000508164 0.00038854)
(0.034226 -0.000706047 0.000780965)
(0.0297938 -0.000919162 0.00056726)
(0.0124562 -0.000412618 0.000391787)
(0.0304448 -0.000901869 0.000921389)
(0.012898 -0.000373904 0.000377696)
(0.0310222 -0.000528032 0.000917561)
(0.0134398 -0.000143373 0.00029759)
(0.0317641 -0.000179046 0.000878184)
(0.0140407 -0.000154088 0.000341148)
(0.0325406 -0.000218059 0.000816438)
(0.0297072 -0.00016827 0.000490366)
(0.0122017 -7.58623e-05 0.000329519)
(0.0301449 -0.000264636 0.000721527)
(0.0122805 -0.000183959 0.000307671)
(0.0309006 -0.000291588 0.000706366)
(0.012886 -0.000276637 0.000322646)
(0.0316486 -0.000354151 0.000762669)
(0.013834 -0.000310828 0.000170072)
(0.0326256 -0.000433186 0.000462634)
)
;

boundaryField
{
    inlet
    {
        type            fixedValue;
        value           uniform (0.01 0 0);
    }
    outlet
    {
        type            zeroGradient;
    }
    wall
    {
        type            fixedValue;
        value           uniform (0 0 0);
    }
    procBoundary4to0
    {
        type            processor;
        value           nonuniform List<vector> 
36
(
(0.0299202 -0.000792449 -0.00131265)
(0.0125318 -0.000351851 -0.00084638)
(0.0310079 -0.000765561 -0.00138512)
(0.0136699 -0.000251758 -0.000822679)
(0.0317024 -0.000545478 -0.00108905)
(0.0141236 -0.000194061 -0.000764587)
(0.0320398 -0.000474117 -0.00085138)
(0.0137015 7.29984e-06 -0.000779844)
(0.0321103 -6.53238e-05 -0.000570515)
(0.029815 -0.00161353 -0.00150719)
(0.0102919 -0.000800026 -0.00079149)
(0.0296464 -0.0018616 -0.00154459)
(0.00840748 -0.000640309 -0.000590728)
(0.0292873 -0.00145511 -0.00104836)
(0.00638825 -0.000492994 -0.000406825)
(0.0291168 -0.000709704 -0.000741802)
(0.00399317 -0.000374085 -0.000330023)
(0.0289567 1.84809e-05 -0.000690404)
(0.0296361 -0.000726401 -0.00151826)
(0.00898238 -0.000320777 -0.000737938)
(0.028685 -0.000697593 -0.00132208)
(0.00486596 -0.00011541 -0.000352512)
(0.027733 -0.000198171 -0.000752932)
(0.00131393 -1.23248e-05 -9.9504e-05)
(0.0269648 0.000260025 -0.000525169)
(1.03087e-08 6.73668e-10 2.77202e-11)
(0.0261318 0.000313065 -8.84061e-05)
(0.0296914 -0.000139464 -0.00140159)
(0.00962665 3.7613e-05 -0.00080838)
(0.029091 0.000178347 -0.00145814)
(0.00656549 0.000139337 -0.000551372)
(0.02874 0.000293403 -0.00117676)
(0.00458706 0.00015328 -0.000446111)
(0.0288445 -5.96064e-05 -0.00087975)
(0.00330084 0.000187737 -0.000402896)
(0.0285022 -3.89977e-05 -0.000339482)
)
;
    }
    procBoundary4to5
    {
        type            processor;
        value           nonuniform List<vector> 
12
(
(0.0147003 -0.000250304 0.000237563)
(0.00349022 -0.000428571 6.70616e-05)
(1.11286e-08 -8.29503e-10 2.47091e-09)
(1.12303e-08 -8.94692e-10 8.86749e-10)
(0.013645 0.00013989 -0.000310876)
(0.00702875 -0.000343447 -7.08611e-05)
(0.00114999 -3.71546e-05 4.14196e-05)
(0.00204231 -7.60785e-05 0.000168405)
(0.0212293 -6.24992e-05 0.000692595)
(0.0170854 -0.000852044 0.000376151)
(0.0142778 -0.000463768 0.000382407)
(0.0141794 -0.000641776 0.000198848)
)
;
    }
    procBoundary4to6
    {
        type            processor;
        value           nonuniform List<vector> 
27
(
(0.0294762 0.000271334 -0.00057698)
(0.00836877 0.000172156 -0.000182043)
(0.0278194 0.000268099 -0.000392736)
(0.00368932 5.17025e-05 -0.000121033)
(0.0270982 4.94519e-05 -0.000218168)
(0.000485923 6.34177e-06 -1.88648e-05)
(0.026563 -0.000230611 -0.00010864)
(1.08874e-08 2.15909e-10 -2.73331e-10)
(0.0263822 -0.000411261 -0.000139122)
(0.0296268 0.000712128 0.000981953)
(0.00993294 0.000290815 0.000325833)
(0.0289285 0.000803006 0.00103869)
(0.00712414 0.000195096 0.000322257)
(0.0285469 0.000561911 0.000786891)
(0.0046497 2.63322e-05 0.000219294)
(0.0283435 0.000265129 0.000153115)
(0.00242334 -3.91664e-05 0.000204684)
(0.0282548 0.000125129 -5.19518e-06)
(0.0298494 0.000669611 0.000706861)
(0.0127219 0.00021229 0.000295239)
(0.0303882 0.000495473 0.000702131)
(0.0129973 0.00010939 0.00020216)
(0.0308666 0.000170297 0.000648783)
(0.0130183 -0.000111037 0.000190172)
(0.0311643 -0.000211331 0.000602608)
(0.0123546 -0.000289356 0.000251613)
(0.0312684 -0.000284774 0.000514026)
)
;
    }
}


// ************************************************************************* //
