/*--------------------------------*- C++ -*----------------------------------*\
| =========                 |                                                 |
| \\      /  F ield         | OpenFOAM: The Open Source CFD Toolbox           |
|  \\    /   O peration     | Version:  4.x                                   |
|   \\  /    A nd           | Web:      www.OpenFOAM.org                      |
|    \\/     M anipulation  |                                                 |
\*---------------------------------------------------------------------------*/
FoamFile
{
    version     2.0;
    format      ascii;
    class       volVectorField;
    location    "53";
    object      Urel;
}
// * * * * * * * * * * * * * * * * * * * * * * * * * * * * * * * * * * * * * //

dimensions      [0 1 -1 0 0 0 0];

internalField   nonuniform List<vector> 
108
(
(-0.023359 0.000608654 0.000514251)
(-0.0214276 0.000542511 0.000477943)
(-0.022371 0.000548068 0.000462451)
(-0.0209186 0.000456293 0.000414516)
(-0.0221243 0.000427181 0.000362587)
(-0.0207932 0.000333697 0.000315731)
(-0.0220895 0.000300176 0.000261864)
(-0.0207433 0.000224698 0.000213131)
(-0.0221072 0.000192167 0.000121556)
(-0.0231679 0.000627369 0.000499372)
(-0.0210362 0.00054455 0.000456703)
(-0.0218879 0.00057103 0.000430569)
(-0.0201019 0.000453377 0.000376689)
(-0.0213445 0.000443594 0.000323148)
(-0.0196369 0.000333136 0.000274131)
(-0.0210857 0.000310427 0.000221499)
(-0.0193359 0.000227753 0.000178693)
(-0.0209511 0.000190857 0.000108842)
(-0.022977 0.000423119 0.000487062)
(-0.0206873 0.000369274 0.000438371)
(-0.0214409 0.000382621 0.000400392)
(-0.019408 0.000303581 0.00033975)
(-0.0206356 0.000298982 0.000284081)
(-0.0186624 0.000219673 0.000235334)
(-0.0201877 0.000195677 0.00020248)
(-0.0181689 0.000139983 0.000152368)
(-0.019928 0.000104177 0.000120563)
(-0.0228915 0.000144243 0.000498271)
(-0.0205564 0.000110991 0.000440356)
(-0.021261 0.000122587 0.000412899)
(-0.0191463 9.89601e-05 0.000348457)
(-0.0203468 0.00010361 0.000303297)
(-0.0182759 7.79825e-05 0.000241395)
(-0.0198205 6.22658e-05 0.000207227)
(-0.0177444 6.0558e-05 0.000159519)
(-0.0195162 5.98741e-05 0.000124136)
(-0.0234348 0.000585699 0.000185783)
(-0.0215593 0.000522697 0.000180759)
(-0.0225373 0.000512589 0.000154831)
(-0.0211578 0.000429123 0.000163786)
(-0.022381 0.000397094 0.000130822)
(-0.0211129 0.000316927 0.000119022)
(-0.0224025 0.000280494 6.19923e-05)
(-0.0211216 0.000214257 3.98256e-05)
(-0.0224824 0.000186726 -3.1824e-05)
(-0.0232677 0.000604655 0.000157192)
(-0.0212361 0.000530142 0.00015523)
(-0.0221276 0.000544081 0.000110358)
(-0.0205023 0.000434961 0.000121364)
(-0.0217252 0.000420673 7.92494e-05)
(-0.0201844 0.000319134 7.76402e-05)
(-0.0215644 0.000293256 2.07623e-05)
(-0.01999 0.000224636 1.44563e-05)
(-0.0215202 0.000207815 -4.54341e-05)
(-0.0230844 0.000415241 0.000130042)
(-0.0209012 0.000356907 0.000128651)
(-0.0217024 0.000365239 7.60162e-05)
(-0.0198278 0.000291825 8.38869e-05)
(-0.0210466 0.000274541 3.55094e-05)
(-0.0192414 0.00020847 3.99542e-05)
(-0.0207141 0.000179778 -8.04676e-06)
(-0.0188732 0.00014806 -5.31657e-07)
(-0.0205489 0.000131675 -3.10532e-05)
(-0.0229956 0.000116679 0.000126465)
(-0.0207628 9.02282e-05 0.000116545)
(-0.021515 9.03089e-05 6.57541e-05)
(-0.0195625 8.20633e-05 7.39331e-05)
(-0.0207665 8.15111e-05 1.76158e-05)
(-0.0188751 7.92965e-05 2.89731e-05)
(-0.0203682 7.61543e-05 -1.52012e-05)
(-0.0184675 8.21668e-05 8.64783e-06)
(-0.0201648 8.9118e-05 -4.27955e-06)
(-0.0235504 0.000572583 1.35677e-05)
(-0.0218041 0.000514273 1.28842e-05)
(-0.0228393 0.000495376 -2.49894e-05)
(-0.0216698 0.000411256 -3.12447e-06)
(-0.0228955 0.000370963 -3.51647e-05)
(-0.0218375 0.000297717 -3.39031e-05)
(-0.0230889 0.000267006 -0.000105312)
(-0.0220552 0.000222891 -0.000127177)
(-0.0233615 0.000212437 -0.000196404)
(-0.0234 0.00058788 -3.54009e-06)
(-0.0215216 0.00051942 -1.40523e-06)
(-0.0224723 0.000522627 -4.85955e-05)
(-0.0211131 0.000421437 -2.99334e-05)
(-0.0223225 0.000393257 -7.05968e-05)
(-0.021092 0.000311676 -6.33504e-05)
(-0.0223795 0.000289792 -0.000127135)
(-0.0211743 0.000249835 -0.000123527)
(-0.0225409 0.00024828 -0.000174673)
(-0.0232209 0.000405805 -2.67488e-05)
(-0.0212282 0.000352156 -2.58425e-05)
(-0.0220911 0.000362059 -8.00728e-05)
(-0.0205425 0.000294777 -5.91431e-05)
(-0.0217167 0.000272459 -0.000107327)
(-0.0203168 0.000214394 -8.43194e-05)
(-0.021629 0.000194817 -0.00013762)
(-0.020274 0.000179506 -0.000113415)
(-0.0216677 0.000184584 -0.000150021)
(-0.0231384 0.000102598 -3.10099e-05)
(-0.0211051 9.26038e-05 -2.68619e-05)
(-0.0219201 0.000102521 -7.20747e-05)
(-0.0203018 9.67914e-05 -5.41026e-05)
(-0.0214621 0.000102725 -9.71377e-05)
(-0.0199897 0.000104293 -7.89596e-05)
(-0.0212997 0.000114451 -0.000116932)
(-0.0198872 0.000125544 -7.69965e-05)
(-0.0212789 0.000149557 -9.04324e-05)
)
;

boundaryField
{
    inlet
    {
        type            calculated;
        value           nonuniform List<vector> 
12
(
(-0.01 1.24799e-11 -4.42336e-12)
(-0.01 -3.03276e-12 -3.98395e-12)
(-0.01 1.62653e-11 -2.59361e-12)
(-0.01 -2.63862e-14 9.71716e-12)
(-0.01 2.4393e-11 -7.25167e-12)
(-0.01 -3.75237e-12 -7.77758e-12)
(-0.01 1.45506e-11 -4.12033e-12)
(-0.01 5.16355e-12 -1.10002e-11)
(-0.01 2.21639e-11 -4.37884e-12)
(-0.01 -1.16413e-11 -1.26466e-11)
(-0.01 1.66936e-11 -1.1571e-11)
(-0.01 -1.40526e-11 -1.85592e-11)
)
;
    }
    outlet
    {
        type            calculated;
        value           nonuniform 0();
    }
    wall
    {
        type            calculated;
        value           nonuniform List<vector> 
63
(
(7.58515e-12 2.21639e-11 -4.37884e-12)
(1.69372e-11 -1.16413e-11 -1.26466e-11)
(1.71902e-11 1.66936e-11 -1.1571e-11)
(2.98679e-11 -1.40526e-11 -1.85592e-11)
(1.40074e-11 2.80385e-11 -8.43998e-12)
(2.6027e-11 6.39357e-12 -9.94304e-12)
(3.15693e-11 4.25921e-11 -9.08873e-12)
(6.78538e-11 -7.43293e-12 -2.52886e-11)
(2.5224e-11 2.52046e-11 -6.00696e-12)
(3.64284e-11 -7.18033e-12 -5.30634e-12)
(3.92717e-11 2.35393e-11 -3.3464e-12)
(1.4963e-10 2.31416e-11 -2.94623e-11)
(3.88298e-11 1.43009e-11 -2.89884e-12)
(6.32633e-11 5.55878e-12 8.94132e-13)
(5.31129e-11 2.41015e-11 -9.07208e-12)
(1.42337e-10 -1.54024e-11 -1.63979e-11)
(1.96697e-11 2.79766e-11 7.91835e-12)
(5.8435e-11 1.58117e-11 1.47989e-11)
(5.96057e-11 1.55365e-11 6.04618e-12)
(2.31655e-10 -4.4663e-11 -2.71821e-11)
(1.62894e-11 1.54735e-11 1.09852e-11)
(2.36626e-12 -5.32266e-11 4.00098e-11)
(1.00058e-10 2.08935e-13 5.08597e-11)
(2.67805e-10 -3.26993e-11 -2.49401e-11)
(-1.62561e-11 -1.4107e-11 7.99934e-11)
(-1.6482e-11 -1.00713e-10 2.9358e-11)
(1.53103e-10 9.25338e-11 8.21865e-11)
(2.9338e-10 4.59049e-11 3.3458e-11)
(-1.41832e-11 8.41384e-12 1.45562e-10)
(3.17231e-11 -2.94321e-11 1.45692e-10)
(1.77338e-10 1.55612e-10 1.11015e-10)
(1.65649e-09 -5.94217e-10 2.48816e-11)
(3.90405e-11 2.10116e-12 7.29849e-11)
(2.47888e-11 -6.53298e-11 1.65371e-10)
(6.62232e-11 4.40499e-11 1.45023e-10)
(6.65593e-10 1.33768e-10 1.05244e-10)
(1.02624e-11 1.24799e-11 -4.42336e-12)
(1.29078e-11 2.4393e-11 -7.25167e-12)
(7.58515e-12 2.21639e-11 -4.37884e-12)
(2.60943e-11 2.88753e-11 -5.95912e-12)
(2.86119e-11 2.64437e-11 -5.93038e-12)
(1.40074e-11 2.80385e-11 -8.43998e-12)
(5.20358e-11 2.67027e-11 8.07595e-13)
(4.14322e-11 2.07398e-11 5.47836e-12)
(2.5224e-11 2.52046e-11 -6.00696e-12)
(6.03062e-11 4.28875e-11 2.56222e-11)
(6.35588e-11 3.12775e-11 3.05343e-12)
(3.88298e-11 1.43009e-11 -2.89884e-12)
(6.6285e-11 1.20479e-10 4.17817e-11)
(7.99476e-11 5.03641e-11 3.59394e-11)
(1.96697e-11 2.79766e-11 7.91835e-12)
(3.63107e-11 1.06498e-10 1.09456e-10)
(5.35504e-11 3.6883e-11 4.04013e-11)
(1.62894e-11 1.54735e-11 1.09852e-11)
(1.7341e-11 6.09034e-11 2.49015e-10)
(4.74504e-11 6.05551e-12 1.23076e-10)
(-1.62561e-11 -1.4107e-11 7.99934e-11)
(-1.15941e-10 1.47927e-10 4.95334e-10)
(1.86299e-11 6.25643e-11 2.87713e-10)
(-1.41832e-11 8.41384e-12 1.45562e-10)
(-2.89797e-10 5.88803e-11 8.40048e-10)
(1.55356e-10 -1.86816e-11 2.59747e-10)
(3.90405e-11 2.10116e-12 7.29849e-11)
)
;
    }
    procBoundary4to0
    {
        type            processor;
        value           nonuniform List<vector> 
36
(
(-0.0233808 0.000590848 0.000878133)
(-0.0214322 0.000528825 0.000809466)
(-0.0224177 0.000533079 0.000806425)
(-0.0209759 0.000445523 0.000705335)
(-0.0222191 0.000418288 0.000656429)
(-0.0208852 0.000329268 0.000565145)
(-0.0221996 0.000290138 0.000509832)
(-0.0208208 0.00019552 0.000439819)
(-0.0221706 0.000136604 0.00036261)
(-0.0231958 0.000611095 0.000891736)
(-0.021043 0.000533792 0.000804579)
(-0.0219373 0.000567149 0.000801201)
(-0.0201475 0.000449926 0.000672755)
(-0.0214145 0.000443662 0.000624797)
(-0.0196852 0.000329169 0.000513824)
(-0.0211626 0.000288812 0.000465956)
(-0.0193646 0.000207239 0.000379977)
(-0.0210018 0.000139006 0.000330652)
(-0.0229971 0.000401443 0.000893417)
(-0.0206879 0.00034965 0.0007957)
(-0.0214768 0.000356293 0.000778414)
(-0.0194012 0.0002788 0.000636816)
(-0.0206662 0.000255564 0.00058272)
(-0.0186293 0.000193096 0.000462944)
(-0.0202147 0.000151085 0.000416458)
(-0.0182073 0.000118193 0.000321546)
(-0.0199399 7.35525e-05 0.000265294)
(-0.0229231 0.000113972 0.000890733)
(-0.0205991 9.10842e-05 0.000796614)
(-0.0213483 7.86358e-05 0.00078229)
(-0.0192585 6.49305e-05 0.000642535)
(-0.0204912 5.2256e-05 0.000597599)
(-0.0184819 5.01548e-05 0.000472694)
(-0.0200288 5.2289e-05 0.000423908)
(-0.0180333 3.77721e-05 0.0003327)
(-0.0197464 3.57924e-05 0.000273778)
)
;
    }
    procBoundary4to5
    {
        type            processor;
        value           nonuniform List<vector> 
12
(
(-0.020652 0.00012776 6.2596e-05)
(-0.0190727 0.000138174 7.19315e-05)
(-0.017887 8.21498e-05 8.27848e-05)
(-0.0175002 5.86839e-05 0.000103212)
(-0.0211214 0.000133856 -4.22514e-05)
(-0.0198694 0.000170685 -4.34709e-05)
(-0.0186463 0.000124751 -2.66736e-05)
(-0.0182571 9.90285e-05 2.0849e-06)
(-0.0223162 0.000175787 -0.000204247)
(-0.0213095 0.000240544 -0.00016314)
(-0.0202943 0.000201546 -0.000124507)
(-0.0198525 0.000181153 -6.01666e-05)
)
;
    }
    procBoundary4to6
    {
        type            processor;
        value           nonuniform List<vector> 
27
(
(-0.0229143 -0.00019599 0.000486972)
(-0.0205574 -0.000173041 0.000433781)
(-0.0212851 -0.000175175 0.000408951)
(-0.0191466 -0.000130744 0.00034905)
(-0.0203984 -0.000113065 0.000306671)
(-0.018303 -7.27029e-05 0.000251235)
(-0.019887 -3.86654e-05 0.00021694)
(-0.0178665 -1.22968e-05 0.000180565)
(-0.0196173 3.16852e-05 0.000162855)
(-0.0230386 -0.00022777 8.77541e-05)
(-0.0208284 -0.000189616 0.000109563)
(-0.0216046 -0.000203406 5.60948e-05)
(-0.0196902 -0.00014313 7.5567e-05)
(-0.0208949 -0.000134316 2.98207e-05)
(-0.0190298 -7.23033e-05 4.90771e-05)
(-0.0204912 -5.06804e-05 3.40069e-05)
(-0.0186033 -6.09478e-07 3.75623e-05)
(-0.0202597 2.47727e-05 4.28485e-05)
(-0.0232047 -0.000225379 -4.69559e-05)
(-0.0212139 -0.000180287 -2.01048e-05)
(-0.0220434 -0.000180814 -5.60771e-05)
(-0.0204778 -0.000127189 -2.94427e-05)
(-0.02161 -0.000102296 -6.66467e-05)
(-0.020152 -4.59439e-05 -4.1921e-05)
(-0.0214021 -5.92984e-06 -6.81914e-05)
(-0.0199353 4.14862e-05 -3.80981e-05)
(-0.0212845 7.69239e-05 -3.90805e-05)
)
;
    }
}


// ************************************************************************* //
