/*--------------------------------*- C++ -*----------------------------------*\
| =========                 |                                                 |
| \\      /  F ield         | OpenFOAM: The Open Source CFD Toolbox           |
|  \\    /   O peration     | Version:  4.x                                   |
|   \\  /    A nd           | Web:      www.OpenFOAM.org                      |
|    \\/     M anipulation  |                                                 |
\*---------------------------------------------------------------------------*/
FoamFile
{
    version     2.0;
    format      ascii;
    class       volScalarField;
    location    "10";
    object      alpha.iron;
}
// * * * * * * * * * * * * * * * * * * * * * * * * * * * * * * * * * * * * * //

dimensions      [0 0 0 0 0 0 0];

internalField   nonuniform List<scalar> 
108
(
1
0.999998
0.999993
0.99998
0.999954
0.999918
0.99987
0.999817
0.999757
1
0.999998
0.999988
0.999963
0.999917
0.999858
0.99981
0.999801
0.999843
1
0.999997
0.999987
0.999958
0.999907
0.999846
0.999798
0.999795
0.999841
1
0.999997
0.999986
0.999956
0.999902
0.999836
0.999784
0.999779
0.999823
1
0.999999
0.999994
0.999984
0.999965
0.999937
0.999902
0.999865
0.999826
1
0.999998
0.999992
0.999975
0.999944
0.999901
0.999859
0.999839
0.999855
1
0.999998
0.999991
0.999972
0.999937
0.999891
0.999846
0.999826
0.999841
1
0.999998
0.99999
0.99997
0.999932
0.999881
0.999833
0.999807
0.999821
1
0.999998
0.999993
0.999983
0.999964
0.999936
0.999901
0.999863
0.999826
1
0.999998
0.999993
0.99998
0.999958
0.999926
0.999889
0.999852
0.999823
1
0.999998
0.999993
0.999979
0.999955
0.999923
0.999883
0.999847
0.999816
1
0.999998
0.999992
0.999978
0.999953
0.999918
0.999877
0.999839
0.999809
)
;

boundaryField
{
    inlet
    {
        type            fixedValue;
        value           uniform 1;
    }
    outlet
    {
        type            fixedValue;
        value           nonuniform 0();
    }
    wall
    {
        type            zeroGradient;
    }
    procBoundary4to0
    {
        type            processor;
        value           nonuniform List<scalar> 
36
(
1
0.999998
0.999991
0.999974
0.999942
0.999893
0.999822
0.999738
0.999633
1
0.999997
0.999987
0.999959
0.999908
0.999839
0.999762
0.999716
0.999708
1
0.999997
0.999984
0.999948
0.999886
0.999809
0.999737
0.999717
0.999747
1
0.999996
0.999982
0.999942
0.99987
0.999784
0.999703
0.999673
0.999688
)
;
    }
    procBoundary4to5
    {
        type            processor;
        value           nonuniform List<scalar> 
12
(
0.999704
0.999952
0.999934
0.999914
0.999794
0.999916
0.999893
0.999877
0.999794
0.999801
0.999793
0.999789
)
;
    }
    procBoundary4to6
    {
        type            processor;
        value           nonuniform List<scalar> 
27
(
1
0.999997
0.999986
0.999955
0.999903
0.999844
0.999806
0.999816
0.999874
1
0.999998
0.99999
0.999968
0.999931
0.999882
0.999841
0.999827
0.999848
1
0.999998
0.999993
0.999979
0.999955
0.999921
0.99988
0.999839
0.999803
)
;
    }
}


// ************************************************************************* //
