/*--------------------------------*- C++ -*----------------------------------*\
| =========                 |                                                 |
| \\      /  F ield         | OpenFOAM: The Open Source CFD Toolbox           |
|  \\    /   O peration     | Version:  4.x                                   |
|   \\  /    A nd           | Web:      www.OpenFOAM.org                      |
|    \\/     M anipulation  |                                                 |
\*---------------------------------------------------------------------------*/
FoamFile
{
    version     2.0;
    format      ascii;
    class       volScalarField;
    location    "10";
    object      pSmooth;
}
// * * * * * * * * * * * * * * * * * * * * * * * * * * * * * * * * * * * * * //

dimensions      [1 -1 -2 0 0 0 0];

internalField   nonuniform List<scalar> 
108
(
110.111
93.5608
102.84
76.8999
95.164
59.8368
87.2629
42.3686
79.2691
110.923
94.0159
103.699
77.2348
95.8105
59.9269
87.7012
42.634
79.8642
111.163
94.1334
103.732
77.3728
95.6884
60.1148
87.6234
42.9394
79.743
111.567
94.6001
104.201
77.851
96.14
60.6852
87.8448
43.5222
79.8147
110.133
93.6547
102.825
77.0483
95.0094
59.7923
87.0737
42.2477
78.9643
110.825
94.0425
103.468
77.3378
95.5714
59.9779
87.5353
42.4537
79.6308
111.019
94.195
103.527
77.3169
95.4254
59.8176
87.2134
42.2571
79.4504
111.562
94.471
104.022
77.751
95.8383
60.254
87.5366
42.746
79.5912
110.111
93.6541
102.782
77.2192
95.0361
59.9776
86.861
42.221
78.5468
110.699
93.9964
103.23
77.3611
95.3375
60.0163
87.0248
42.2881
78.6832
110.893
94.0905
103.317
77.3175
95.2726
59.9433
86.9444
42.1787
78.6841
111.373
94.3024
103.755
77.6474
95.5578
60.1034
87.0418
42.5177
78.7653
)
;

boundaryField
{
    inlet
    {
        type            zeroGradient;
    }
    outlet
    {
        type            fixedValue;
        value           nonuniform 0();
    }
    wall
    {
        type            zeroGradient;
    }
    procBoundary4to0
    {
        type            processor;
        value           nonuniform List<scalar> 
36
(
109.287
92.9259
102.085
76.3118
94.6062
59.253
86.9065
41.8717
79.4012
110.012
93.3329
102.771
76.567
95.196
59.5097
87.472
41.9335
79.7636
110.227
93.4813
102.954
76.7115
95.2588
59.4949
87.3635
41.9145
79.6896
110.718
93.854
103.439
76.9776
95.5687
59.8628
87.5459
42.3079
79.789
)
;
    }
    procBoundary4to5
    {
        type            processor;
        value           nonuniform List<scalar> 
12
(
24.4025
25.2443
26.0064
27.0136
23.8673
24.898
24.858
26.0762
23.9646
24.2359
24.2906
25.0024
)
;
    }
    procBoundary4to6
    {
        type            processor;
        value           nonuniform List<scalar> 
27
(
111.433
94.0542
103.86
77.4745
95.7538
60.1626
87.5944
43.0167
79.7677
111.325
94.1287
103.663
77.3281
95.5158
59.973
87.2793
42.4746
79.5675
110.998
94.1106
103.495
77.4534
95.4717
60.136
87.2045
42.2895
79.0131
)
;
    }
}


// ************************************************************************* //
