/*--------------------------------*- C++ -*----------------------------------*\
| =========                 |                                                 |
| \\      /  F ield         | OpenFOAM: The Open Source CFD Toolbox           |
|  \\    /   O peration     | Version:  4.x                                   |
|   \\  /    A nd           | Web:      www.OpenFOAM.org                      |
|    \\/     M anipulation  |                                                 |
\*---------------------------------------------------------------------------*/
FoamFile
{
    version     2.0;
    format      ascii;
    class       volScalarField;
    location    "10";
    object      QPartFluidCoeff;
}
// * * * * * * * * * * * * * * * * * * * * * * * * * * * * * * * * * * * * * //

dimensions      [1 -1 -3 -1 0 0 0];

internalField   nonuniform List<scalar> 
108
(
-1.6242e+07
-2.37153e+07
-2.77245e+07
-1.98015e+07
-2.3432e+07
-1.97506e+07
-2.91392e+07
-2.2669e+07
-3.16364e+07
-2.32288e+07
-2.42012e+07
-3.05016e+07
-3.25904e+07
-3.30574e+07
-2.77564e+07
-2.63291e+07
-1.83875e+07
-3.6528e+07
-2.21115e+07
-3.41534e+07
-2.64032e+07
-3.12964e+07
-2.78691e+07
-2.0776e+07
-2.39448e+07
-3.42537e+07
-2.20758e+07
-1.14706e+07
-2.23601e+07
-3.09166e+07
-1.89026e+07
-2.89421e+07
-2.0946e+07
-3.74829e+07
-1.99883e+07
-2.3306e+07
-1.67094e+07
-1.82918e+07
-2.65097e+07
-2.75716e+07
-2.79916e+07
-1.82444e+07
-1.81516e+07
-2.55083e+07
-3.16782e+07
-2.05969e+07
-2.52548e+07
-2.54127e+07
-2.55621e+07
-2.52748e+07
-2.21644e+07
-2.77304e+07
-3.02066e+07
-3.44459e+07
-1.38352e+07
-2.44104e+07
-3.29597e+07
-2.75444e+07
-3.04619e+07
-2.74296e+07
-2.68745e+07
-2.43022e+07
-2.84816e+07
-2.05385e+07
-2.85044e+07
-2.47976e+07
-3.20147e+07
-3.57364e+07
-2.39471e+07
-3.88193e+07
-2.82533e+07
-2.67855e+07
-1.50273e+07
-2.10469e+07
-1.46439e+07
-2.00271e+07
-2.07823e+07
-2.63551e+07
-2.46949e+07
-2.29604e+07
-2.68508e+07
-1.61067e+07
-2.99922e+07
-2.34054e+07
-1.93502e+07
-2.44509e+07
-2.54216e+07
-2.41896e+07
-2.07036e+07
-2.83316e+07
-1.62338e+07
-2.5246e+07
-2.78572e+07
-2.31279e+07
-2.15188e+07
-2.33362e+07
-2.43303e+07
-2.68303e+07
-2.34652e+07
-2.46736e+07
-2.33991e+07
-2.20171e+07
-2.69411e+07
-2.81263e+07
-3.15945e+07
-1.6368e+07
-1.73206e+07
-2.34389e+07
)
;

boundaryField
{
    inlet
    {
        type            calculated;
        value           uniform 0;
    }
    outlet
    {
        type            calculated;
        value           nonuniform 0();
    }
    wall
    {
        type            calculated;
        value           uniform 0;
    }
    procBoundary4to0
    {
        type            processor;
        value           nonuniform List<scalar> 
36
(
324.985
379
506.033
393.482
528.604
617.821
441.853
331.772
457.108
385.405
723.991
680.641
606.037
537.035
473.9
779.216
551.768
522.132
389.06
425.355
677.215
467.477
650.19
650.773
620.918
390.598
711.016
362.49
508.806
722.013
780.59
404.598
747.622
640.759
429.649
199.372
)
;
    }
    procBoundary4to5
    {
        type            processor;
        value           nonuniform List<scalar> 
12
(
498.087
613.41
642.846
775.898
564.216
453.943
680.541
287.608
187.542
503.768
488.713
540.742
)
;
    }
    procBoundary4to6
    {
        type            processor;
        value           nonuniform List<scalar> 
27
(
747.456
675.227
455.146
606.637
828.366
468.273
652.88
504.718
749.1
570.754
679.387
736.17
617.109
503.206
594.844
591.616
470.124
715.735
347.617
410.129
539.358
527.638
533.983
487.446
766.784
656.189
337.909
)
;
    }
}


// ************************************************************************* //
