/*--------------------------------*- C++ -*----------------------------------*\
| =========                 |                                                 |
| \\      /  F ield         | OpenFOAM: The Open Source CFD Toolbox           |
|  \\    /   O peration     | Version:  4.x                                   |
|   \\  /    A nd           | Web:      www.OpenFOAM.org                      |
|    \\/     M anipulation  |                                                 |
\*---------------------------------------------------------------------------*/
FoamFile
{
    version     2.0;
    format      ascii;
    class       volVectorField;
    location    "10";
    object      UsNext;
}
// * * * * * * * * * * * * * * * * * * * * * * * * * * * * * * * * * * * * * //

dimensions      [0 1 -1 0 0 0 0];

internalField   nonuniform List<vector> 
108
(
(2.56182e-09 7.49753e-10 4.06235e-09)
(4.87687e-09 1.09214e-09 4.36558e-09)
(8.37569e-09 -5.05987e-10 2.41797e-09)
(5.1507e-09 -1.09839e-09 -1.78753e-09)
(1.34551e-09 -5.41094e-10 -4.29994e-09)
(-4.93915e-09 1.07551e-09 -6.24783e-09)
(-2.7112e-08 -3.81259e-09 -8.98164e-09)
(-4.21757e-08 -3.42495e-09 -1.1163e-09)
(-4.16981e-08 1.28018e-09 -2.67366e-09)
(3.51311e-09 1.64643e-09 5.39352e-09)
(7.81376e-09 1.30302e-09 5.23031e-09)
(1.04306e-08 1.28278e-11 2.45863e-09)
(4.85682e-09 -4.29343e-10 -4.32259e-09)
(-4.36327e-09 -4.2814e-09 -8.96835e-09)
(-1.65186e-08 -7.69729e-09 -1.74287e-08)
(-4.33439e-08 -9.15739e-09 -9.03602e-09)
(-5.21813e-08 -3.8514e-09 -3.89539e-09)
(-6.87181e-08 -6.48232e-09 3.65561e-09)
(3.90413e-09 2.02241e-09 4.80135e-09)
(8.73862e-09 2.35069e-09 5.73779e-09)
(8.44489e-09 8.85973e-12 7.20034e-10)
(1.11413e-09 2.03911e-09 -5.96164e-09)
(-1.02508e-08 -3.42647e-09 -1.41508e-08)
(-3.22565e-08 -8.57119e-09 -1.52139e-08)
(-4.9697e-08 -7.67755e-09 -1.00721e-08)
(-6.34395e-08 -9.17924e-09 -2.72626e-09)
(-7.49794e-08 -8.87704e-09 3.97574e-09)
(3.56261e-09 2.09159e-09 4.41676e-09)
(7.35184e-09 2.21704e-09 4.08638e-09)
(7.84424e-09 1.60225e-09 -6.57787e-10)
(1.56692e-09 2.53001e-09 -5.49932e-09)
(-1.53812e-08 -2.18727e-09 -1.25961e-08)
(-4.35812e-08 -7.4312e-09 -1.54566e-08)
(-6.22221e-08 -6.3768e-09 -1.04611e-08)
(-7.75142e-08 -1.03303e-08 4.73396e-09)
(-7.78898e-08 -4.84269e-09 1.31494e-08)
(2.38572e-09 4.66944e-10 2.14129e-09)
(4.87171e-09 2.55672e-10 2.79261e-09)
(5.88039e-09 5.06691e-11 1.37057e-09)
(4.03558e-09 -1.0451e-09 -2.81432e-10)
(-7.59856e-10 -6.97767e-10 -1.57486e-09)
(-6.00857e-09 -1.21891e-09 -8.08613e-11)
(-1.63387e-08 -3.6301e-10 -1.31987e-09)
(-3.64849e-08 -5.63176e-09 -1.77254e-09)
(-3.93567e-08 -1.92133e-09 -5.76802e-11)
(3.08484e-09 9.39648e-10 3.48879e-09)
(6.05379e-09 5.50283e-10 2.9491e-09)
(7.3641e-09 8.28156e-11 1.83354e-09)
(3.43956e-09 2.61623e-10 -2.6882e-09)
(-6.4089e-09 -1.51735e-09 -5.23847e-09)
(-1.55454e-08 -5.06635e-09 -2.6962e-09)
(-3.51726e-08 -8.46081e-09 -4.03773e-09)
(-4.62158e-08 -8.38035e-09 -6.83269e-09)
(-5.53073e-08 -6.6191e-09 3.92497e-09)
(2.23827e-09 1.15426e-09 2.73183e-09)
(5.42142e-09 9.81017e-10 2.9877e-09)
(5.48465e-09 6.55549e-10 1.419e-09)
(-4.83287e-10 -3.23199e-10 -2.38627e-09)
(-9.7965e-09 -2.64112e-09 -6.87648e-09)
(-2.83714e-08 -4.4464e-09 -7.44491e-09)
(-4.60631e-08 -8.14929e-09 -5.54588e-09)
(-5.97966e-08 -1.03063e-08 1.54445e-09)
(-7.11102e-08 -1.09183e-08 -2.1093e-10)
(2.95634e-09 1.44377e-09 2.05892e-09)
(4.82994e-09 1.65084e-09 2.1349e-09)
(4.59179e-09 1.28503e-09 1.56615e-10)
(7.2454e-10 4.54593e-10 -1.57783e-09)
(-8.0583e-09 4.95071e-10 -4.11557e-09)
(-4.27291e-08 -7.53245e-09 -4.54449e-09)
(-5.49272e-08 -1.16163e-08 -5.66826e-09)
(-6.72366e-08 -1.03508e-08 1.0473e-09)
(-6.97786e-08 -6.52449e-09 3.95002e-09)
(1.87874e-09 9.03734e-11 7.39713e-10)
(3.34232e-09 1.66373e-10 7.70843e-10)
(3.94229e-09 -4.6711e-10 6.88098e-10)
(1.25537e-09 -6.2667e-10 -3.38132e-10)
(-6.01014e-10 -1.10368e-09 8.25284e-11)
(-5.20623e-09 -1.50198e-09 1.5139e-09)
(-1.02222e-08 -4.47957e-10 1.23473e-09)
(-1.6033e-08 -1.03324e-09 5.59731e-10)
(-2.20203e-08 -4.25392e-09 7.60108e-10)
(2.69114e-09 1.86601e-10 2.45225e-10)
(3.79847e-09 4.3341e-11 9.44192e-10)
(4.60112e-09 -5.47077e-10 7.59973e-10)
(1.53756e-09 -6.51299e-10 2.76882e-10)
(-3.59285e-09 -8.93981e-10 -1.29174e-09)
(-1.9362e-08 -4.51663e-09 -6.55708e-10)
(-2.76093e-08 -3.85502e-09 -3.40785e-10)
(-3.32476e-08 1.86086e-09 1.63404e-09)
(-3.75769e-08 -3.4958e-09 4.64909e-09)
(1.90368e-09 6.15851e-10 9.47932e-10)
(3.29103e-09 2.60874e-10 6.39463e-10)
(3.13842e-09 -1.59583e-10 8.17412e-10)
(-7.52819e-10 -8.63989e-10 -2.3778e-10)
(-5.35492e-09 -1.22637e-09 -2.78067e-09)
(-2.4037e-08 -2.70429e-09 -1.70691e-09)
(-3.80332e-08 -5.36603e-09 5.19961e-11)
(-4.67432e-08 -5.41928e-09 -2.44485e-10)
(-4.73093e-08 -1.01642e-08 -1.83967e-09)
(1.98979e-09 7.84647e-10 6.72163e-10)
(2.80337e-09 1.37614e-09 6.20703e-10)
(2.17419e-09 5.30548e-10 6.68152e-10)
(-9.59856e-10 -2.05547e-10 -2.84974e-10)
(-5.80073e-09 -1.57458e-10 1.29282e-09)
(-1.87092e-08 -1.92698e-09 2.00145e-09)
(-4.00128e-08 -7.29328e-09 -9.10592e-10)
(-1.34007e-07 4.10697e-08 2.50188e-10)
(-5.62656e-08 -6.31909e-09 1.91281e-09)
)
;

boundaryField
{
    inlet
    {
        type            calculated;
        value           nonuniform List<vector> 
12
(
(2.56182e-09 7.49753e-10 4.06235e-09)
(3.51311e-09 1.64643e-09 5.39352e-09)
(3.90413e-09 2.02241e-09 4.80135e-09)
(3.56261e-09 2.09159e-09 4.41676e-09)
(2.38572e-09 4.66944e-10 2.14129e-09)
(3.08484e-09 9.39648e-10 3.48879e-09)
(2.23827e-09 1.15426e-09 2.73183e-09)
(2.95634e-09 1.44377e-09 2.05892e-09)
(1.87874e-09 9.03734e-11 7.39713e-10)
(2.69114e-09 1.86601e-10 2.45225e-10)
(1.90368e-09 6.15851e-10 9.47932e-10)
(1.98979e-09 7.84647e-10 6.72163e-10)
)
;
    }
    outlet
    {
        type            calculated;
        value           nonuniform 0();
    }
    wall
    {
        type            calculated;
        value           nonuniform List<vector> 
63
(
(1.87874e-09 9.03734e-11 7.39713e-10)
(2.69114e-09 1.86601e-10 2.45225e-10)
(1.90368e-09 6.15851e-10 9.47932e-10)
(1.98979e-09 7.84647e-10 6.72163e-10)
(3.34232e-09 1.66373e-10 7.70843e-10)
(3.79847e-09 4.3341e-11 9.44192e-10)
(3.29103e-09 2.60874e-10 6.39463e-10)
(2.80337e-09 1.37614e-09 6.20703e-10)
(3.94229e-09 -4.6711e-10 6.88098e-10)
(4.60112e-09 -5.47077e-10 7.59973e-10)
(3.13842e-09 -1.59583e-10 8.17412e-10)
(2.17419e-09 5.30548e-10 6.68152e-10)
(1.25537e-09 -6.2667e-10 -3.38132e-10)
(1.53756e-09 -6.51299e-10 2.76882e-10)
(-7.52819e-10 -8.63989e-10 -2.3778e-10)
(-9.59856e-10 -2.05547e-10 -2.84974e-10)
(-6.01014e-10 -1.10368e-09 8.25284e-11)
(-3.59285e-09 -8.93981e-10 -1.29174e-09)
(-5.35492e-09 -1.22637e-09 -2.78067e-09)
(-5.80073e-09 -1.57458e-10 1.29282e-09)
(-5.20623e-09 -1.50198e-09 1.5139e-09)
(-1.9362e-08 -4.51663e-09 -6.55708e-10)
(-2.4037e-08 -2.70429e-09 -1.70691e-09)
(-1.87092e-08 -1.92698e-09 2.00145e-09)
(-1.02222e-08 -4.47957e-10 1.23473e-09)
(-2.76093e-08 -3.85502e-09 -3.40785e-10)
(-3.80332e-08 -5.36603e-09 5.19961e-11)
(-4.00128e-08 -7.29328e-09 -9.10592e-10)
(-1.6033e-08 -1.03324e-09 5.59731e-10)
(-3.32476e-08 1.86086e-09 1.63404e-09)
(-4.67432e-08 -5.41928e-09 -2.44485e-10)
(-1.34007e-07 4.10697e-08 2.50188e-10)
(-2.20203e-08 -4.25392e-09 7.60108e-10)
(-3.75769e-08 -3.4958e-09 4.64909e-09)
(-4.73093e-08 -1.01642e-08 -1.83967e-09)
(-5.62656e-08 -6.31909e-09 1.91281e-09)
(2.56182e-09 7.49753e-10 4.06235e-09)
(2.38572e-09 4.66944e-10 2.14129e-09)
(1.87874e-09 9.03734e-11 7.39713e-10)
(4.87687e-09 1.09214e-09 4.36558e-09)
(4.87171e-09 2.55672e-10 2.79261e-09)
(3.34232e-09 1.66373e-10 7.70843e-10)
(8.37569e-09 -5.05987e-10 2.41797e-09)
(5.88039e-09 5.06691e-11 1.37057e-09)
(3.94229e-09 -4.6711e-10 6.88098e-10)
(5.1507e-09 -1.09839e-09 -1.78753e-09)
(4.03558e-09 -1.0451e-09 -2.81432e-10)
(1.25537e-09 -6.2667e-10 -3.38132e-10)
(1.34551e-09 -5.41094e-10 -4.29994e-09)
(-7.59856e-10 -6.97767e-10 -1.57486e-09)
(-6.01014e-10 -1.10368e-09 8.25284e-11)
(-4.93915e-09 1.07551e-09 -6.24783e-09)
(-6.00857e-09 -1.21891e-09 -8.08613e-11)
(-5.20623e-09 -1.50198e-09 1.5139e-09)
(-2.7112e-08 -3.81259e-09 -8.98164e-09)
(-1.63387e-08 -3.6301e-10 -1.31987e-09)
(-1.02222e-08 -4.47957e-10 1.23473e-09)
(-4.21757e-08 -3.42495e-09 -1.1163e-09)
(-3.64849e-08 -5.63176e-09 -1.77254e-09)
(-1.6033e-08 -1.03324e-09 5.59731e-10)
(-4.16981e-08 1.28018e-09 -2.67366e-09)
(-3.93567e-08 -1.92133e-09 -5.76802e-11)
(-2.20203e-08 -4.25392e-09 7.60108e-10)
)
;
    }
    procBoundary4to0
    {
        type            processor;
        value           nonuniform List<vector> 
36
(
(4.38012e-09 1.34233e-09 9.71413e-09)
(9.28063e-09 2.13223e-09 8.50119e-09)
(1.27298e-08 8.11392e-10 2.23775e-09)
(9.8468e-11 -1.29865e-09 -6.2463e-09)
(-5.44615e-09 5.78702e-10 -1.1813e-08)
(-1.85502e-08 -3.99658e-09 -1.69648e-08)
(-2.64752e-08 -4.52895e-09 -1.62678e-08)
(-5.01703e-08 -9.31867e-10 -8.28209e-09)
(-5.81072e-08 -4.20129e-09 -3.00363e-09)
(5.33794e-09 2.704e-09 9.57028e-09)
(1.15154e-08 3.16659e-09 1.00744e-08)
(1.38423e-08 -3.83133e-10 2.54153e-09)
(3.73461e-09 -1.80649e-09 -1.02589e-08)
(-9.69494e-09 -3.87382e-09 -1.90603e-08)
(-2.31827e-08 -4.90998e-09 -2.31533e-08)
(-4.44776e-08 -7.45145e-09 -1.51229e-08)
(-6.24536e-08 -4.09454e-09 -5.64939e-09)
(-7.1148e-08 -6.48799e-09 3.61102e-09)
(7.59601e-09 5.26806e-09 9.73297e-09)
(1.14334e-08 3.38097e-09 7.78615e-09)
(1.50145e-08 9.75902e-10 1.74047e-09)
(8.03951e-10 -1.81902e-09 -9.59612e-09)
(-1.0327e-08 -7.2692e-09 -1.94317e-08)
(-3.40114e-08 -5.56418e-09 -2.38092e-08)
(-5.34068e-08 -7.91861e-09 -1.65227e-08)
(-6.73098e-08 -6.74852e-09 -3.36932e-09)
(-7.73948e-08 -8.38463e-09 1.02154e-08)
(4.58607e-09 3.28191e-09 6.91858e-09)
(1.12333e-08 2.40851e-09 6.85546e-09)
(1.27045e-08 2.66116e-09 3.03681e-10)
(1.14942e-09 1.36178e-09 -1.16929e-08)
(-1.31645e-08 -3.47136e-09 -2.32476e-08)
(-3.60846e-08 -4.045e-09 -2.36014e-08)
(-5.72816e-08 -4.85521e-09 -1.37005e-08)
(-6.58766e-08 -5.77835e-09 5.35807e-10)
(-6.96958e-08 -7.38895e-09 2.38352e-08)
)
;
    }
    procBoundary4to5
    {
        type            processor;
        value           nonuniform List<vector> 
12
(
(-5.22369e-08 3.24568e-09 4.36287e-09)
(-7.81652e-08 -1.63232e-08 8.80856e-09)
(-8.13774e-08 -1.17312e-08 1.45153e-08)
(-7.95104e-08 -7.04272e-09 2.19265e-08)
(-4.94565e-08 1.99739e-09 6.96973e-09)
(-6.62354e-08 -9.4133e-10 1.47513e-09)
(-7.62132e-08 -7.48681e-09 6.50369e-09)
(-7.4036e-08 -3.42142e-09 3.65656e-09)
(-2.45012e-08 5.63407e-09 3.88359e-09)
(-5.27158e-08 7.20417e-09 2.69646e-09)
(-5.60554e-08 3.72603e-10 8.70152e-10)
(-4.81658e-08 -7.97973e-09 3.92377e-09)
)
;
    }
    procBoundary4to6
    {
        type            processor;
        value           nonuniform List<vector> 
27
(
(4.63459e-09 1.77129e-09 3.60761e-09)
(7.21505e-09 1.84372e-09 3.48866e-09)
(8.05029e-09 5.80892e-10 -2.12653e-10)
(4.45326e-09 -4.37339e-10 -5.24108e-09)
(-1.24479e-08 -8.30779e-11 -1.35462e-08)
(-4.26368e-08 -5.1648e-09 -5.75817e-09)
(-5.30146e-08 -7.43027e-09 -3.49101e-09)
(-6.56203e-08 -7.70224e-09 5.52039e-09)
(-7.47001e-08 -2.75067e-09 1.5523e-08)
(2.86411e-09 1.64423e-09 1.76269e-09)
(5.33583e-09 1.65905e-09 2.78761e-09)
(5.46033e-09 9.50661e-10 5.97872e-10)
(1.60102e-09 9.95112e-10 -1.52747e-09)
(-1.01531e-08 1.77619e-09 -3.88553e-09)
(-3.8118e-08 1.1639e-09 -8.32905e-10)
(-5.2298e-08 -5.87614e-09 -6.82933e-10)
(-6.20361e-08 -9.11423e-09 5.24254e-09)
(-6.64469e-08 -3.8306e-09 1.01779e-08)
(2.20112e-09 1.58427e-09 5.51838e-10)
(3.37493e-09 2.31729e-09 1.07878e-09)
(3.61841e-09 1.01377e-09 5.42762e-10)
(-2.0679e-09 5.24236e-10 3.71035e-10)
(-9.09635e-09 4.65604e-10 1.77338e-09)
(-2.19767e-08 3.33539e-10 2.28382e-09)
(-4.15002e-08 -6.52845e-09 -2.0027e-09)
(-4.64105e-08 -5.79594e-09 1.93178e-09)
(-5.37239e-08 -1.05806e-08 -3.76453e-09)
)
;
    }
}


// ************************************************************************* //
