/*--------------------------------*- C++ -*----------------------------------*\
| =========                 |                                                 |
| \\      /  F ield         | OpenFOAM: The Open Source CFD Toolbox           |
|  \\    /   O peration     | Version:  4.x                                   |
|   \\  /    A nd           | Web:      www.OpenFOAM.org                      |
|    \\/     M anipulation  |                                                 |
\*---------------------------------------------------------------------------*/
FoamFile
{
    version     2.0;
    format      ascii;
    class       volScalarField;
    location    "12";
    object      Cs;
}
// * * * * * * * * * * * * * * * * * * * * * * * * * * * * * * * * * * * * * //

dimensions      [1 -3 0 0 0 0 0];

internalField   nonuniform List<scalar> 
132
(
334.903
334.924
334.955
334.995
335.037
335.078
335.103
335.121
335.139
334.924
334.941
334.971
335.007
335.044
335.078
335.107
335.126
335.232
334.911
334.924
334.953
334.983
335.021
335.04
335.078
335.073
335.201
334.91
334.88
334.854
334.826
334.82
334.809
334.849
334.853
335.154
335.02
335.062
335.102
335.119
335.103
335.092
335.105
334.966
334.996
335.03
335.062
335.094
335.116
335.132
335.13
335.233
334.951
334.971
335
335.027
335.062
335.073
335.1
335.087
335.162
334.933
334.916
334.902
334.886
334.887
334.883
334.904
334.915
335.077
335.069
335.095
335.123
335.104
335.229
334.954
334.968
334.989
335.009
335.037
335.059
335.089
335.099
335.186
334.955
334.97
334.989
335.006
335.021
335.025
335.038
335.03
335.166
334.952
334.941
334.932
334.923
334.922
334.919
334.932
334.935
335.448
334.956
334.969
335.41
334.941
334.933
334.928
334.932
334.948
334.974
335.005
335.026
335.169
334.95
334.941
334.933
334.927
334.925
334.926
334.937
334.945
335.039
334.956
334.945
334.935
334.927
334.921
334.917
334.916
334.917
334.88
)
;

boundaryField
{
    inlet
    {
        type            calculated;
        value           nonuniform 0();
    }
    outlet
    {
        type            calculated;
        value           uniform 335;
    }
    wall
    {
        type            calculated;
        value           nonuniform List<scalar> 
66
(
334.941
334.95
334.956
334.933
334.941
334.945
334.928
334.933
334.935
334.932
334.927
334.927
334.948
334.925
334.921
334.974
334.926
334.917
334.956
335.005
334.937
334.916
334.969
335.026
334.945
334.917
335.41
335.169
335.039
334.88
334.91
334.933
334.952
334.956
334.88
334.916
334.941
334.945
334.854
334.902
334.932
334.935
334.826
334.886
334.923
334.927
334.82
334.887
334.922
334.921
334.809
334.883
334.919
334.917
334.849
334.904
334.932
334.916
334.853
334.915
334.935
334.917
335.154
335.077
335.448
334.88
)
;
    }
    procBoundary7to0
    {
        type            processor;
        value           uniform 334.898;
    }
    procBoundary7to1
    {
        type            processor;
        value           uniform 334.921;
    }
    procBoundary7to3
    {
        type            processor;
        value           nonuniform List<scalar> 
36
(
334.854
334.887
334.934
334.984
335.03
335.079
335.116
335.148
335.204
334.856
334.879
334.924
334.974
335.025
335.072
335.112
335.138
335.256
334.84
334.854
334.902
334.95
335.007
335.034
335.078
335.069
335.528
334.843
334.805
334.772
334.742
334.731
334.725
334.755
334.775
335.291
)
;
    }
    procBoundary7to5
    {
        type            processor;
        value           nonuniform List<scalar> 
44
(
334.945
334.982
335.027
335.071
335.112
335.145
335.158
335.279
334.951
334.982
335.028
335.067
335.104
335.123
335.142
335.13
335.248
334.951
334.982
334.982
335
335.034
335.036
335.048
335.078
335.074
335.202
334.947
334.965
335
335.034
335.034
334.933
334.94
334.938
334.946
335.17
334.944
334.938
334.933
334.931
334.933
334.94
334.94
)
;
    }
    procBoundary7to6
    {
        type            processor;
        value           nonuniform List<scalar> 
12
(
334.917
334.909
334.934
334.945
334.941
334.949
334.948
334.951
334.963
334.953
334.961
334.966
)
;
    }
}


// ************************************************************************* //
