/*--------------------------------*- C++ -*----------------------------------*\
| =========                 |                                                 |
| \\      /  F ield         | OpenFOAM: The Open Source CFD Toolbox           |
|  \\    /   O peration     | Version:  4.x                                   |
|   \\  /    A nd           | Web:      www.OpenFOAM.org                      |
|    \\/     M anipulation  |                                                 |
\*---------------------------------------------------------------------------*/
FoamFile
{
    version     2.0;
    format      ascii;
    class       volScalarField;
    location    "12";
    object      rho;
}
// * * * * * * * * * * * * * * * * * * * * * * * * * * * * * * * * * * * * * //

dimensions      [1 -3 0 0 0 0 0];

internalField   nonuniform List<scalar> 
132
(
6698.06
6698.48
6699.1
6699.89
6700.74
6701.55
6702.05
6702.42
6702.78
6698.48
6698.83
6699.43
6700.13
6700.87
6701.56
6702.15
6702.52
6704.65
6698.21
6698.49
6699.06
6699.66
6700.43
6700.79
6701.55
6701.46
6704.03
6698.2
6697.59
6697.07
6696.53
6696.4
6696.19
6696.98
6697.06
6703.07
6700.4
6701.24
6702.04
6702.38
6702.05
6701.85
6702.11
6699.33
6699.91
6700.6
6701.24
6701.88
6702.32
6702.64
6702.6
6704.67
6699.02
6699.43
6700.01
6700.53
6701.23
6701.45
6702.01
6701.74
6703.24
6698.67
6698.31
6698.04
6697.72
6697.74
6697.66
6698.08
6698.3
6701.55
6701.38
6701.89
6702.45
6702.09
6704.59
6699.08
6699.36
6699.78
6700.19
6700.73
6701.19
6701.77
6701.99
6703.72
6699.11
6699.4
6699.79
6700.12
6700.43
6700.5
6700.76
6700.6
6703.31
6699.05
6698.82
6698.65
6698.46
6698.44
6698.37
6698.64
6698.69
6708.96
6699.11
6699.37
6708.21
6698.83
6698.65
6698.57
6698.65
6698.97
6699.47
6700.11
6700.53
6703.37
6699.01
6698.82
6698.66
6698.54
6698.5
6698.53
6698.73
6698.9
6700.77
6699.11
6698.9
6698.7
6698.54
6698.41
6698.33
6698.33
6698.35
6697.59
)
;

boundaryField
{
    inlet
    {
        type            calculated;
        value           nonuniform 0();
    }
    outlet
    {
        type            calculated;
        value           uniform 6700;
    }
    wall
    {
        type            calculated;
        value           nonuniform List<scalar> 
66
(
6698.83
6699.01
6699.11
6698.65
6698.82
6698.9
6698.57
6698.66
6698.7
6698.65
6698.54
6698.54
6698.97
6698.5
6698.41
6699.47
6698.53
6698.33
6699.11
6700.11
6698.73
6698.33
6699.37
6700.53
6698.9
6698.35
6708.21
6703.37
6700.77
6697.59
6698.2
6698.67
6699.05
6699.11
6697.59
6698.31
6698.82
6698.9
6697.07
6698.04
6698.65
6698.7
6696.53
6697.72
6698.46
6698.54
6696.4
6697.74
6698.44
6698.41
6696.19
6697.66
6698.37
6698.33
6696.98
6698.08
6698.64
6698.33
6697.06
6698.3
6698.69
6698.35
6703.07
6701.55
6708.96
6697.59
)
;
    }
    procBoundary7to0
    {
        type            processor;
        value           uniform 6697.95;
    }
    procBoundary7to1
    {
        type            processor;
        value           uniform 6698.42;
    }
    procBoundary7to3
    {
        type            processor;
        value           nonuniform List<scalar> 
36
(
6697.08
6697.75
6698.67
6699.68
6700.61
6701.58
6702.31
6702.95
6704.08
6697.12
6697.58
6698.49
6699.47
6700.5
6701.44
6702.24
6702.76
6705.12
6696.79
6697.09
6698.03
6699.01
6700.15
6700.69
6701.56
6701.38
6710.55
6696.87
6696.09
6695.44
6694.83
6694.63
6694.5
6695.11
6695.5
6705.83
)
;
    }
    procBoundary7to5
    {
        type            processor;
        value           nonuniform List<scalar> 
44
(
6698.9
6699.65
6700.53
6701.42
6702.25
6702.9
6703.16
6705.58
6699.02
6699.64
6700.55
6701.34
6702.09
6702.46
6702.83
6702.59
6704.97
6699.02
6699.64
6699.64
6700.01
6700.69
6700.72
6700.96
6701.56
6701.47
6704.04
6698.93
6699.31
6700.01
6700.69
6700.69
6698.66
6698.79
6698.76
6698.91
6703.4
6698.88
6698.76
6698.66
6698.61
6698.66
6698.79
6698.79
)
;
    }
    procBoundary7to6
    {
        type            processor;
        value           nonuniform List<scalar> 
12
(
6698.35
6698.18
6698.67
6698.91
6698.82
6698.98
6698.96
6699.02
6699.26
6699.06
6699.21
6699.33
)
;
    }
}


// ************************************************************************* //
