/*--------------------------------*- C++ -*----------------------------------*\
| =========                 |                                                 |
| \\      /  F ield         | OpenFOAM: The Open Source CFD Toolbox           |
|  \\    /   O peration     | Version:  4.x                                   |
|   \\  /    A nd           | Web:      www.OpenFOAM.org                      |
|    \\/     M anipulation  |                                                 |
\*---------------------------------------------------------------------------*/
FoamFile
{
    version     2.0;
    format      ascii;
    class       volScalarField;
    location    "32";
    object      KslPrev;
}
// * * * * * * * * * * * * * * * * * * * * * * * * * * * * * * * * * * * * * //

dimensions      [1 -3 -1 0 0 0 0];

internalField   nonuniform List<scalar> 
87
(
3826.61
2549.39
3762.72
2409.18
3798.21
2143.4
4222.94
1746.19
5706.68
4485.15
2721.55
4437.24
2602.76
4598.5
2382.03
5379.18
2062.62
8494.43
5248.25
2921.06
5334.59
2807.19
5660.82
2600.12
6327.12
2242.55
6493.14
5912.68
3001.14
5944.95
2905.83
6204.82
2685.75
7156.07
2347.11
9184.82
10070.3
3352.79
10506.7
3231.7
11574.5
2993.51
12192.8
2720.92
10149.4
26697.1
3643.25
78019.7
3614.14
1e+10
3673.4
85685.2
3871.93
8164.95
6514.25
3050.08
6913.44
2956.4
7647.69
2746.93
8615.92
2508.34
8946.12
15143.3
3443.15
16436.4
3315.1
16673.9
3132.7
13534.9
2885.04
9744.65
67540.2
3703.81
65627
3646.75
38209.1
3575.57
17761.4
3600.38
7451.48
7821.45
3252.44
9509.3
33013.6
3705.81
1e+10
)
;

boundaryField
{
    inlet
    {
        type            zeroGradient;
    }
    outlet
    {
        type            zeroGradient;
    }
    wall
    {
        type            zeroGradient;
    }
    procBoundary1to0
    {
        type            processor;
        value           uniform 0;
    }
    procBoundary1to3
    {
        type            processor;
        value           uniform 0;
    }
    procBoundary1to5
    {
        type            processor;
        value           uniform 0;
    }
    procBoundary1to7
    {
        type            processor;
        value           uniform 0;
    }
}


// ************************************************************************* //
