/*--------------------------------*- C++ -*----------------------------------*\
| =========                 |                                                 |
| \\      /  F ield         | OpenFOAM: The Open Source CFD Toolbox           |
|  \\    /   O peration     | Version:  4.x                                   |
|   \\  /    A nd           | Web:      www.OpenFOAM.org                      |
|    \\/     M anipulation  |                                                 |
\*---------------------------------------------------------------------------*/
FoamFile
{
    version     2.0;
    format      ascii;
    class       volVectorField;
    location    "27.5";
    object      DDtUrel;
}
// * * * * * * * * * * * * * * * * * * * * * * * * * * * * * * * * * * * * * //

dimensions      [0 1 -2 0 0 0 0];

internalField   nonuniform List<vector> 
108
(
(0.000292872 8.499e-06 8.25258e-06)
(0.000235929 2.59269e-05 4.90438e-05)
(0.000105922 2.93863e-05 9.09179e-05)
(-0.000147269 2.08663e-05 7.5573e-05)
(-0.000311081 1.61661e-05 5.30629e-05)
(-0.000682842 1.65568e-05 -5.72347e-05)
(-0.00105294 6.99411e-06 -0.000166061)
(-0.00184849 3.02773e-05 -0.00046991)
(-0.00289005 5.4008e-05 -0.00075867)
(0.000251056 1.29566e-06 2.43621e-05)
(0.00017818 -3.41883e-06 3.87115e-05)
(8.90794e-05 1.81895e-06 6.17976e-05)
(-0.000116755 3.36494e-05 5.22205e-05)
(-0.000282221 6.17645e-05 2.87882e-05)
(-0.00064443 0.000108839 -8.55522e-05)
(-0.00104421 0.000165702 -0.000248549)
(-0.00180603 0.000296405 -0.000604347)
(-0.00282293 0.000443963 -0.00089643)
(0.000272277 -5.64334e-06 2.55383e-05)
(0.000194709 -4.73815e-06 3.4778e-05)
(0.000126814 3.82376e-06 4.77054e-05)
(-7.22215e-05 5.6147e-05 4.36887e-05)
(-0.000200246 8.74212e-05 1.66396e-05)
(-0.000581557 0.000194087 -0.000122216)
(-0.000937091 0.00026235 -0.000366378)
(-0.00192581 0.000603172 -0.000862076)
(-0.00313075 0.000916142 -0.00126879)
(0.000311242 -2.26119e-05 2.87961e-05)
(0.000220087 -2.33756e-05 3.41126e-05)
(0.000177191 -9.75915e-06 3.9125e-05)
(-4.90214e-06 4.95266e-05 2.74945e-05)
(-6.51789e-05 0.000100344 -1.47788e-05)
(-0.000470302 0.000236473 -0.000166269)
(-0.00070104 0.00034933 -0.000524755)
(-0.00208575 0.000795327 -0.00145026)
(-0.00371245 0.0010825 -0.00194437)
(0.000221929 2.38784e-06 1.69675e-05)
(0.000201345 1.25435e-05 5.95163e-05)
(4.36951e-05 1.40376e-05 8.89402e-05)
(-0.000183321 1.25372e-05 4.206e-05)
(-0.000303526 1.17899e-05 2.02988e-05)
(-0.000595291 1.95616e-05 -8.07644e-05)
(-0.000922049 1.49938e-05 -0.000169974)
(-0.00161308 9.22628e-05 -0.000537001)
(-0.00246804 0.000149599 -0.000848276)
(0.000195149 1.07949e-05 1.60578e-05)
(0.000134609 -4.72582e-06 3.25227e-05)
(3.97975e-05 -1.13983e-05 5.78121e-05)
(-0.000133227 2.13358e-05 2.88895e-05)
(-0.000264843 4.90314e-05 1.39379e-05)
(-0.000566975 9.42034e-05 -0.000101162)
(-0.000921772 0.000147542 -0.000239264)
(-0.00161696 0.000329965 -0.000609103)
(-0.00251506 0.000521951 -0.000956605)
(0.000205504 -2.29938e-06 1.69618e-05)
(0.000136736 -7.50962e-06 2.2638e-05)
(7.46138e-05 -8.15089e-06 4.70182e-05)
(-8.22474e-05 2.94743e-05 1.65523e-05)
(-0.000180158 6.00145e-05 -6.73812e-06)
(-0.000511133 0.000159851 -0.000149623)
(-0.000828939 0.000250454 -0.000331566)
(-0.00176363 0.000681342 -0.000883217)
(-0.00282807 0.00102617 -0.00141986)
(0.000242805 -1.49322e-05 2.11691e-05)
(0.000168197 -1.66909e-05 1.47016e-05)
(0.000141576 -1.23063e-05 2.28654e-05)
(-1.74372e-05 3.24765e-05 -1.07541e-05)
(-5.19889e-05 6.99147e-05 -3.35951e-05)
(-0.000419208 0.000204344 -0.000189158)
(-0.000571484 0.00032435 -0.000440403)
(-0.00191772 0.000816847 -0.00133024)
(-0.00345283 0.00113364 -0.00202025)
(0.000162517 1.17583e-05 2.16683e-05)
(0.000337397 -9.71397e-06 1.43957e-05)
(-7.579e-05 -1.96169e-05 1.45728e-05)
(-0.000385324 1.01045e-06 9.78516e-06)
(-0.000336785 3.36385e-06 1.20724e-06)
(-0.000556317 8.6957e-06 -7.57585e-05)
(-0.000863976 1.27544e-05 -0.000161384)
(-0.00136842 5.69255e-05 -0.000447519)
(-0.00196938 9.28552e-05 -0.000649644)
(0.000133578 1.37158e-05 1.66235e-05)
(0.000123857 -1.28157e-05 1.31612e-05)
(-5.30004e-05 -1.6972e-05 1.55645e-05)
(-0.000192654 1.15849e-05 6.65275e-06)
(-0.000296077 3.66119e-05 -7.73628e-06)
(-0.000537008 7.2957e-05 -9.46115e-05)
(-0.000849762 0.000125229 -0.000195341)
(-0.00139783 0.000276174 -0.000476114)
(-0.0021112 0.000408492 -0.000714242)
(0.000145567 7.54396e-06 1.27733e-05)
(8.74258e-05 -1.31973e-05 6.33632e-06)
(-2.14428e-05 -2.37383e-05 1.02657e-05)
(-0.000108619 7.89962e-06 -8.55831e-06)
(-0.000233326 4.45325e-05 -3.44767e-05)
(-0.000504021 0.000125169 -0.000130115)
(-0.000843376 0.000219199 -0.000264651)
(-0.00151895 0.000527484 -0.000596475)
(-0.00231511 0.000790896 -0.000927867)
(0.000168535 -9.82261e-07 9.5865e-06)
(0.000118777 -1.17256e-05 -9.51077e-07)
(6.99605e-05 -2.95422e-05 -4.06617e-07)
(-6.68137e-05 1.50946e-05 -3.15918e-05)
(-0.000140083 5.45791e-05 -5.3665e-05)
(-0.00044661 0.000168562 -0.000168292)
(-0.000691181 0.000262223 -0.000306658)
(-0.00168565 0.000620832 -0.000759856)
(-0.00285525 0.000955636 -0.00128601)
)
;

boundaryField
{
    inlet
    {
        type            calculated;
        value           nonuniform 0();
    }
    outlet
    {
        type            calculated;
        value           nonuniform List<vector> 
12
(
(-0.00779416 6.84075e-05 -0.00111504)
(-0.00591183 0.00043088 -0.0009397)
(-0.00712314 0.00252972 -0.00119486)
(-0.0115598 0.00236607 -0.00538229)
(-0.00546884 0.00121378 -0.00278877)
(-0.00490365 0.00132669 -0.00192274)
(-0.0059661 0.0044158 -0.00470834)
(-0.0113736 0.00319125 -0.0085747)
(-0.00255168 0.000506793 -0.00179107)
(-0.00387814 0.000308145 -0.00120731)
(-0.00273797 0.00211014 -0.0013612)
(-0.00753677 0.00304853 -0.00388527)
)
;
    }
    wall
    {
        type            calculated;
        value           nonuniform List<vector> 
63
(
(0.00100619 -7.40875e-05 -0.000378423)
(0.000490256 -2.1888e-05 4.34233e-05)
(0.000698446 7.09419e-06 1.04746e-05)
(0.00094151 -0.000106172 4.97156e-05)
(0.0010352 0.000146157 1.84426e-05)
(0.000137065 -0.000117535 9.85315e-06)
(0.000314018 3.19954e-05 4.99537e-05)
(0.00030046 -0.000147438 9.25138e-05)
(0.000936357 0.00015938 0.000442058)
(0.000451438 -0.000134252 0.00013371)
(0.000673175 -5.34064e-05 8.79042e-05)
(0.00089199 -0.000191269 0.000116477)
(-0.00039215 5.7873e-05 0.000364828)
(-0.000240228 5.38471e-05 0.000123237)
(-0.000341636 0.000295565 0.000224816)
(-0.000155072 0.000109149 0.000194136)
(0.000251745 -2.37114e-05 0.000566843)
(0.000139199 0.000100568 0.000331663)
(0.000396054 -3.3704e-05 0.000509337)
(0.00142537 -4.28764e-05 0.000300392)
(-0.00115549 7.16847e-06 0.000100993)
(-0.000834948 0.000143604 0.000145424)
(-0.00102933 0.000554864 0.000325359)
(-0.000850835 0.000540309 0.000439659)
(-0.000131739 -0.000340665 0.000688365)
(-0.000547063 0.000172699 0.000455899)
(0.000389225 -0.000554269 0.000466567)
(0.00336441 -0.000387506 0.000569069)
(-0.00180544 -0.000166134 -1.24966e-05)
(-0.00106151 1.46699e-05 -0.000418556)
(-0.00159968 0.000804341 -7.35646e-05)
(-0.00230731 0.00183229 -0.00501736)
(-0.00779416 6.84075e-05 -0.00111504)
(-0.00591183 0.00043088 -0.0009397)
(-0.00712314 0.00252972 -0.00119486)
(-0.0115598 0.00236607 -0.00538229)
(0.00094151 -0.000106172 4.97156e-05)
(0.000641883 -6.49069e-05 6.67763e-05)
(0.000365651 9.01911e-05 1.98659e-05)
(0.00030046 -0.000147438 9.25138e-05)
(0.000101428 -5.92538e-05 -6.86128e-05)
(0.000234429 1.47787e-05 -7.31278e-05)
(0.00089199 -0.000191269 0.000116477)
(0.000885659 -0.000110675 0.00010568)
(0.000540748 -0.000358392 4.19386e-05)
(-0.000155072 0.000109149 0.000194136)
(-0.000109574 6.69129e-05 -0.000182661)
(-0.000215266 3.73044e-06 -0.000189232)
(0.00142537 -4.28764e-05 0.000300392)
(0.00172845 -0.000259685 0.000318157)
(0.000740562 -0.000152162 8.74705e-05)
(-0.000850835 0.000540309 0.000439659)
(-0.000594111 0.000398188 -0.000133963)
(-0.000536008 0.000440972 -0.000330381)
(0.00336441 -0.000387506 0.000569069)
(0.00484687 -0.00054256 0.00114437)
(0.00199615 -0.000407083 0.000510534)
(-0.00230731 0.00183229 -0.00501736)
(-0.00197345 0.00246773 -0.00472635)
(-0.00146459 0.00106342 -0.000541446)
(-0.0115598 0.00236607 -0.00538229)
(-0.0113736 0.00319125 -0.0085747)
(-0.00753677 0.00304853 -0.00388527)
)
;
    }
    procBoundary3to1
    {
        type            processor;
        value           nonuniform List<vector> 
27
(
(0.000262907 3.03152e-05 4.95276e-05)
(0.000144329 4.40999e-05 5.76766e-05)
(4.42764e-05 4.2647e-05 6.79336e-05)
(-0.000156082 4.12712e-07 4.55569e-05)
(-0.000311108 -1.73237e-05 3.52212e-05)
(-0.000656286 -6.50067e-05 -5.86689e-05)
(-0.00104373 -8.10983e-05 -0.000152435)
(-0.00188007 -0.000234145 -0.000433751)
(-0.00288033 -0.000411066 -0.0007205)
(0.000209754 2.48276e-05 6.24151e-05)
(0.000119792 3.01026e-05 5.19842e-05)
(7.43472e-06 3.32366e-05 5.05357e-05)
(-0.000162784 4.33809e-06 3.2951e-05)
(-0.000308907 -1.29944e-05 2.39643e-05)
(-0.000589989 -4.49264e-05 -6.2457e-05)
(-0.000982295 -7.60908e-05 -0.000162075)
(-0.00165505 -0.000212737 -0.000447157)
(-0.0024221 -0.000357139 -0.000723654)
(0.000149225 3.25048e-05 2.56378e-05)
(7.91781e-05 2.29664e-05 2.29218e-05)
(-7.04379e-05 1.20601e-05 3.0314e-05)
(-0.000224287 -7.01419e-06 1.9377e-05)
(-0.000317334 -2.52142e-05 7.17751e-06)
(-0.000552573 -5.19179e-05 -5.47872e-05)
(-0.000895676 -7.81522e-05 -0.00012208)
(-0.0013921 -0.000230606 -0.000350942)
(-0.00202659 -0.000347082 -0.000545328)
)
;
    }
    procBoundary3to2
    {
        type            processor;
        value           nonuniform List<vector> 
12
(
(0.000264195 8.47007e-06 2.44903e-05)
(0.000243211 3.82497e-06 2.60806e-05)
(0.000264596 -4.18097e-06 2.70995e-05)
(0.000309419 -1.92357e-05 2.73166e-05)
(0.000200296 1.00556e-05 1.49799e-05)
(0.000184383 5.41707e-06 2.04679e-05)
(0.000195258 -4.06556e-06 2.12876e-05)
(0.000234963 -1.55296e-05 2.12774e-05)
(0.000158578 1.38235e-05 1.84651e-05)
(0.000132439 1.13795e-05 1.73029e-05)
(0.000135318 -1.26151e-06 1.51419e-05)
(0.000156799 -8.19396e-06 1.19644e-05)
)
;
    }
    procBoundary3to7
    {
        type            processor;
        value           nonuniform List<vector> 
36
(
(8.44239e-05 8.26518e-06 2.19064e-05)
(7.82614e-05 1.64925e-06 -9.52133e-06)
(-0.000124739 -8.62161e-06 -4.54181e-06)
(-0.000229707 -4.89863e-06 1.30031e-05)
(-0.000315205 -1.17638e-07 9.44523e-06)
(-0.000503055 -3.73211e-06 -3.54354e-05)
(-0.000831348 -1.11771e-05 -9.22508e-05)
(-0.00120658 2.82267e-05 -0.000232471)
(-0.00171731 6.34728e-05 -0.000331853)
(7.4244e-05 1.23465e-05 1.61982e-05)
(3.38345e-05 -6.2457e-06 -5.00481e-06)
(-7.6963e-05 -1.71772e-05 -8.82699e-06)
(-0.000175156 1.88341e-06 -4.40999e-06)
(-0.000295928 2.11157e-05 -1.38686e-05)
(-0.000491929 5.72903e-05 -6.49667e-05)
(-0.000804573 8.82693e-05 -0.000121124)
(-0.00123814 0.000264148 -0.00028607)
(-0.00182319 0.000400732 -0.000413901)
(9.32108e-05 1.41511e-06 9.916e-06)
(4.09744e-05 -4.39148e-06 -6.80207e-06)
(-1.88442e-05 -9.13851e-06 -1.15582e-05)
(-0.00012471 1.3301e-05 -2.00788e-05)
(-0.000231411 2.54935e-05 -3.19345e-05)
(-0.000464611 9.46034e-05 -8.4995e-05)
(-0.000759202 0.000138906 -0.00014063)
(-0.00137004 0.000397248 -0.000318989)
(-0.00217034 0.000621233 -0.000500428)
(0.000118103 -6.49519e-06 3.39209e-08)
(6.2033e-05 -6.30311e-06 -1.21253e-05)
(2.92053e-05 -1.10251e-05 -1.46215e-05)
(-9.27836e-05 1.41969e-05 -3.35739e-05)
(-0.000175483 3.77156e-05 -4.09413e-05)
(-0.000453137 0.000108602 -0.000107672)
(-0.000742719 0.000181185 -0.000148801)
(-0.00150688 0.000398805 -0.000346892)
(-0.00250632 0.000613233 -0.000617767)
)
;
    }
}


// ************************************************************************* //
