/*--------------------------------*- C++ -*----------------------------------*\
| =========                 |                                                 |
| \\      /  F ield         | OpenFOAM: The Open Source CFD Toolbox           |
|  \\    /   O peration     | Version:  4.x                                   |
|   \\  /    A nd           | Web:      www.OpenFOAM.org                      |
|    \\/     M anipulation  |                                                 |
\*---------------------------------------------------------------------------*/
FoamFile
{
    version     2.0;
    format      ascii;
    class       volScalarField;
    location    "27.5";
    object      KslNext;
}
// * * * * * * * * * * * * * * * * * * * * * * * * * * * * * * * * * * * * * //

dimensions      [1 -3 -1 0 0 0 0];

internalField   nonuniform List<scalar> 
108
(
5161.21
2821.64
4824.18
2660.1
4755.63
2561.63
5906.09
2535.05
17266.9
5875.52
3014.62
5858.2
2886.23
6171.04
2829.85
7845.3
2795.86
15640.1
5011.45
2824.44
4969.11
2702.07
5151.49
2579.72
6071.22
2342.6
8524.53
3784.03
2491.75
3757.85
2405.89
3849.43
2220.71
4168.75
1847.27
4649.7
16625.9
3470.71
39764
3407.54
49707
3261.89
38019.4
2943.99
13356.8
17168.1
3529.42
21897.8
3434.7
26118.4
3356.54
28188.4
3265.55
18740.3
13684.4
3397.7
14816.1
3241.37
17955.6
2981.62
15152.3
2526.59
5571.94
5385.09
2878.17
5400.68
2756.17
5633.76
2500.3
6222.45
1946.43
4511.87
1e+10
4114.02
1e+10
4014.52
5.87931e+08
3958.99
63075
3957.25
9221.6
34736.1
3740.02
101743
3661.31
1.90097e+06
3591.28
576269
3434.58
25392.7
82898.7
3687.43
1e+10
3652.7
1e+10
3684.46
52084.8
3838.39
8169.53
7282.63
3114.92
7236.56
2972.53
7450.89
2773.06
7601.14
2295.89
6865.48
)
;

boundaryField
{
    inlet
    {
        type            zeroGradient;
    }
    outlet
    {
        type            zeroGradient;
    }
    wall
    {
        type            zeroGradient;
    }
    procBoundary3to1
    {
        type            processor;
        value           uniform 0;
    }
    procBoundary3to2
    {
        type            processor;
        value           uniform 0;
    }
    procBoundary3to7
    {
        type            processor;
        value           uniform 0;
    }
}


// ************************************************************************* //
