/*--------------------------------*- C++ -*----------------------------------*\
| =========                 |                                                 |
| \\      /  F ield         | OpenFOAM: The Open Source CFD Toolbox           |
|  \\    /   O peration     | Version:  4.x                                   |
|   \\  /    A nd           | Web:      www.OpenFOAM.org                      |
|    \\/     M anipulation  |                                                 |
\*---------------------------------------------------------------------------*/
FoamFile
{
    version     2.0;
    format      ascii;
    class       volScalarField;
    location    "27.5";
    object      p_rgh;
}
// * * * * * * * * * * * * * * * * * * * * * * * * * * * * * * * * * * * * * //

dimensions      [1 -1 -2 0 0 0 0];

internalField   nonuniform List<scalar> 
108
(
18.7962
74.7177
-0.887866
68.5639
-21.0982
64.3313
-41.3624
62.2856
-70.8666
19.4776
74.8985
-0.285727
68.8388
-20.1913
64.0254
-40.4054
60.8998
-90.9361
18.9264
74.8342
-1.07945
68.9862
-21.4539
64.6471
-43.2098
62.8987
-78.2481
19.2389
74.8948
-0.2989
69.0986
-21.6892
64.6939
-44.9199
64.053
-199.045
18.4272
75.4503
-0.865283
69.2308
-20.7276
63.8882
-40.0031
60.3086
-57.1779
19.4805
75.1968
-0.0279724
68.9226
-19.6079
63.4681
-38.9044
59.0417
-54.5649
18.7505
75.0742
-1.35859
68.967
-22.2734
63.8774
-44.1605
61.4953
-64.6963
19.2306
74.9795
-0.633043
68.996
-21.9655
64.2219
-45.5192
62.8309
-70.2581
20.6936
74.9473
2.08227
68.8913
-16.4752
63.2867
-34.1878
57.495
-50.1153
20.7358
75.264
2.01629
68.9567
-16.5202
63.362
-35.2839
58.5492
-52.9764
19.8549
75.0748
0.649381
68.7406
-18.4704
62.928
-37.5131
57.7332
-53.1793
19.737
75.0267
0.281706
68.8245
-20.133
63.4683
-42.3409
60.4868
-66.608
)
;

boundaryField
{
    inlet
    {
        type            fixedFluxPressure;
        gradient        nonuniform 0();
        value           nonuniform 0();
    }
    outlet
    {
        type            fixedValue;
        value           uniform 0;
    }
    wall
    {
        type            fixedFluxPressure;
        gradient        nonuniform List<scalar> 
63
(
0.0002194
0.000259688
0.000161558
7.05297e-05
0.000138968
0.000106433
5.75113e-05
4.0506e-05
0.000330358
0.000151682
4.82107e-05
5.99005e-05
9.40637e-05
4.5349e-05
-2.28678e-05
-1.24112e-05
0.000239025
0.000195239
7.85574e-05
3.86814e-05
0.000101197
7.94776e-05
-2.71638e-06
5.2574e-06
0.000435888
0.000933522
3.15809e-05
1.90713e-06
0.000262672
0.000399107
2.47321e-05
1.44174e-05
0.00261523
0.00671454
-0.000205214
0.000556609
3.46264e-05
1.54755e-06
-0.00010357
-4.09438e-06
-3.23249e-05
-2.02016e-05
2.53839e-05
-7.60414e-05
-7.00553e-05
-8.85137e-06
-1.91452e-05
6.52076e-06
2.48264e-05
-1.6318e-05
-3.6068e-05
-7.39181e-06
-9.385e-06
-8.40571e-06
0.000176501
5.03654e-05
3.446e-06
5.29829e-05
6.63643e-06
1.97518e-05
0.0177183
4.13341e-05
-2.32384e-05
)
;
        value           nonuniform List<scalar> 
63
(
18.7962
19.4776
18.9264
19.2389
74.7177
74.8985
74.8342
74.8948
-0.887861
-0.285725
-1.07945
-0.298899
68.5639
68.8388
68.9862
69.0986
-21.0982
-20.1913
-21.4539
-21.6892
64.3313
64.0254
64.6471
64.6939
-41.3624
-40.4054
-43.2098
-44.9199
62.2856
60.8998
62.8987
64.053
-70.8666
-90.936
-78.2481
-199.045
19.2389
19.2306
19.737
74.8948
74.9795
75.0267
-0.2989
-0.633044
0.281705
69.0986
68.996
68.8245
-21.6892
-21.9655
-20.133
64.6939
64.2219
63.4683
-44.9199
-45.5192
-42.3409
64.053
62.8309
60.4868
-199.045
-70.2581
-66.608
)
;
    }
    procBoundary3to1
    {
        type            processor;
        value           nonuniform List<scalar> 
27
(
19.3543
75.0491
0.195106
69.0136
-20.0607
63.992
-40.6198
60.4893
-61.4853
19.456
75.4275
0.577961
69.0899
-18.1675
63.536
-35.9293
57.4689
-50.2403
20.4353
75.1574
1.98603
68.9492
-16.5962
63.0056
-34.8324
57.7959
-51.4834
)
;
    }
    procBoundary3to2
    {
        type            processor;
        value           nonuniform List<scalar> 
12
(
81.4794
81.6052
81.5449
81.3689
81.9159
81.974
81.9288
81.6345
81.835
82.0028
82.1021
81.8871
)
;
    }
    procBoundary3to7
    {
        type            processor;
        value           nonuniform List<scalar> 
36
(
22.8071
75.2669
4.51112
69.0047
-13.9591
62.874
-32.9026
57.2744
-50.0263
21.7794
75.159
3.39044
68.5125
-14.6938
61.8649
-32.4028
55.2972
-48.2898
20.3098
75.0886
1.01577
68.659
-18.6516
63.0677
-39.1654
59.3563
-60.2265
20.2971
75.0558
0.951673
68.7802
-18.8032
63.4101
-39.2808
59.8824
-59.0441
)
;
    }
}


// ************************************************************************* //
