/*--------------------------------*- C++ -*----------------------------------*\
| =========                 |                                                 |
| \\      /  F ield         | OpenFOAM: The Open Source CFD Toolbox           |
|  \\    /   O peration     | Version:  4.x                                   |
|   \\  /    A nd           | Web:      www.OpenFOAM.org                      |
|    \\/     M anipulation  |                                                 |
\*---------------------------------------------------------------------------*/
FoamFile
{
    version     2.0;
    format      ascii;
    class       volScalarField;
    location    "58.5";
    object      Ksl;
}
// * * * * * * * * * * * * * * * * * * * * * * * * * * * * * * * * * * * * * //

dimensions      [1 -3 -1 0 0 0 0];

internalField   nonuniform List<scalar> 
87
(
3797.76
2511.18
3713.49
2391.27
3744.12
2112.19
4106.61
1684.19
6044.27
4457.89
2685.85
4396.65
2549
4512.6
2294.68
5065.21
1937.22
5832.34
5384.5
2967.52
5507.08
2870.3
5759.4
2647.48
6127.66
2197.34
6226.56
6030.9
3030.99
6110.35
2973.48
6503.55
2839.07
7943.89
2715.2
12317.1
11536.3
3395.58
13001.9
3283.82
15716.8
3043.27
16680.5
2790.83
9893.61
42007.8
3733.61
238785
3736.84
2.22516e+07
3844.61
41064.5
4077.43
6786
6396.38
3033.21
6752.69
2942.63
7487.8
2762.58
8945.83
2603.98
9347.43
12142.7
3351.35
12201.4
3196.28
12271.8
2983.1
11300.7
2709.18
7784.43
57177.6
3761.98
80506.4
3726.52
53177.7
3662.55
21472.5
3717.57
8085.17
8931.64
3367.42
13287.4
56807.3
3717.56
1e+10
)
;

boundaryField
{
    inlet
    {
        type            zeroGradient;
    }
    outlet
    {
        type            zeroGradient;
    }
    wall
    {
        type            zeroGradient;
    }
    procBoundary1to0
    {
        type            processor;
        value           nonuniform List<scalar> 
12
(
2636.08
2819
3036.7
3117.46
3485.08
3713.16
3120.68
3481.87
3766.93
3325.92
3727.02
4108.59
)
;
    }
    procBoundary1to3
    {
        type            processor;
        value           nonuniform List<scalar> 
27
(
4884.36
2747.38
4737
2576.59
4848.11
2372.83
5593.53
2080.66
6439.27
16058.4
3432.03
18435.7
3270.17
20478.4
3053.55
19724
2762.4
8258.96
27261.6
3627.2
32577.6
3558.88
28197.7
3539.65
20079.9
3697.17
7844.3
)
;
    }
    procBoundary1to5
    {
        type            processor;
        value           nonuniform List<scalar> 
32
(
3624.85
40337.5
4121.67
1e+10
5606.08
55922.7
270098
3700.05
216112
3769.72
74008.2
4144.11
12893.8
4183.28
1e+10
4227.84
1e+10
4299.16
1e+10
4766.04
14365
7219.68
3081.7
3624.85
270098
7440.45
29019.1
270098
4183.28
3542.68
4183.28
1e+10
)
;
    }
    procBoundary1to7
    {
        type            processor;
        value           uniform 51430.5;
    }
}


// ************************************************************************* //
