/*--------------------------------*- C++ -*----------------------------------*\
| =========                 |                                                 |
| \\      /  F ield         | OpenFOAM: The Open Source CFD Toolbox           |
|  \\    /   O peration     | Version:  4.x                                   |
|   \\  /    A nd           | Web:      www.OpenFOAM.org                      |
|    \\/     M anipulation  |                                                 |
\*---------------------------------------------------------------------------*/
FoamFile
{
    version     2.0;
    format      ascii;
    class       volScalarField;
    location    "28.5";
    object      Cs;
}
// * * * * * * * * * * * * * * * * * * * * * * * * * * * * * * * * * * * * * //

dimensions      [1 -3 0 0 0 0 0];

internalField   nonuniform List<scalar> 
132
(
334.995
334.99
334.983
334.973
334.963
334.949
334.942
334.932
334.986
334.997
334.994
334.989
334.982
334.974
334.962
334.954
334.941
334.934
334.998
334.996
334.994
334.989
334.983
334.976
334.966
334.958
334.85
334.999
334.999
334.999
334.998
334.996
334.995
334.991
334.986
334.675
334.985
334.978
334.972
334.966
334.966
334.968
335.213
334.992
334.986
334.979
334.973
334.968
334.966
334.968
334.969
335.052
334.997
334.994
334.989
334.983
334.977
334.971
334.969
334.968
334.971
334.999
334.999
334.998
334.997
334.995
334.992
334.988
334.982
334.815
334.979
334.975
334.974
334.977
335.053
334.998
334.996
334.992
334.988
334.983
334.979
334.976
334.975
334.977
334.999
334.998
334.996
334.994
334.991
334.987
334.983
334.982
334.919
335
334.999
334.999
334.999
334.998
334.997
334.996
334.994
333.899
334.988
334.984
334.888
334.999
334.999
334.998
334.997
334.995
334.991
334.987
334.981
334.899
335
334.999
334.999
334.998
334.997
334.996
334.993
334.991
334.758
335
335
335
334.999
334.999
334.999
334.998
334.996
334.742
)
;

boundaryField
{
    inlet
    {
        type            calculated;
        value           nonuniform 0();
    }
    outlet
    {
        type            calculated;
        value           uniform 335;
    }
    wall
    {
        type            calculated;
        value           nonuniform List<scalar> 
66
(
334.999
335
335
334.999
334.999
335
334.998
334.999
335
334.997
334.998
334.999
334.995
334.997
334.999
334.991
334.996
334.999
334.988
334.987
334.993
334.998
334.984
334.981
334.991
334.996
334.888
334.899
334.758
334.742
334.999
334.999
335
335
334.999
334.999
334.999
335
334.999
334.998
334.999
335
334.998
334.997
334.999
334.999
334.996
334.995
334.998
334.999
334.995
334.992
334.997
334.999
334.991
334.988
334.996
334.998
334.986
334.982
334.994
334.996
334.675
334.815
333.899
334.742
)
;
    }
    procBoundary7to0
    {
        type            processor;
        value           uniform 334.998;
    }
    procBoundary7to1
    {
        type            processor;
        value           uniform 334.996;
    }
    procBoundary7to3
    {
        type            processor;
        value           nonuniform List<scalar> 
36
(
334.987
334.969
334.956
334.946
334.933
334.921
334.911
334.91
334.876
334.996
334.99
334.982
334.969
334.952
334.938
334.923
334.917
334.788
334.997
334.993
334.986
334.975
334.959
334.947
334.932
334.93
334.813
334.999
334.999
334.998
334.997
334.995
334.993
334.986
334.982
334.677
)
;
    }
    procBoundary7to5
    {
        type            processor;
        value           nonuniform List<scalar> 
44
(
334.992
334.986
334.977
334.969
334.96
334.955
334.946
334.915
334.995
334.991
334.987
334.981
334.975
334.972
334.973
334.976
335.09
334.995
334.991
334.991
334.99
334.985
334.987
334.983
334.979
334.978
335.036
334.997
334.994
334.99
334.985
334.985
334.994
334.992
334.991
334.989
334.91
334.999
334.999
334.998
334.996
334.994
334.992
334.992
)
;
    }
    procBoundary7to6
    {
        type            processor;
        value           nonuniform List<scalar> 
12
(
334.998
334.999
335
334.996
334.998
335
334.999
334.999
335
335
335
335
)
;
    }
}


// ************************************************************************* //
