/*--------------------------------*- C++ -*----------------------------------*\
| =========                 |                                                 |
| \\      /  F ield         | OpenFOAM: The Open Source CFD Toolbox           |
|  \\    /   O peration     | Version:  4.x                                   |
|   \\  /    A nd           | Web:      www.OpenFOAM.org                      |
|    \\/     M anipulation  |                                                 |
\*---------------------------------------------------------------------------*/
FoamFile
{
    version     2.0;
    format      ascii;
    class       volVectorField;
    location    "28.5";
    object      ddtUrel;
}
// * * * * * * * * * * * * * * * * * * * * * * * * * * * * * * * * * * * * * //

dimensions      [0 1 -2 0 0 0 0];

internalField   nonuniform List<vector> 
132
(
(1.22e-07 -7.79939e-08 -9.52496e-08)
(1.11429e-07 -5.21886e-08 -8.23629e-08)
(1.50199e-07 -3.79538e-08 -9.86843e-08)
(1.31761e-07 -1.7082e-08 -5.34961e-08)
(7.70771e-08 1.49901e-09 -2.27226e-08)
(-1.07683e-08 1.04398e-08 -3.42326e-08)
(-1.58436e-07 2.60485e-08 -2.07576e-08)
(-2.18669e-07 2.20607e-08 -1.60652e-08)
(-1.88727e-07 2.35875e-08 -4.6502e-09)
(1.50753e-07 -6.38802e-08 -1.06415e-07)
(1.53045e-07 -4.56022e-08 -8.10246e-08)
(1.68736e-07 -3.98482e-08 -7.41014e-08)
(1.56602e-07 -2.25005e-08 -5.71173e-08)
(8.07058e-08 6.22962e-09 -3.97824e-08)
(1.69482e-08 1.25745e-08 -3.32381e-08)
(-1.45387e-07 2.77551e-08 -2.6296e-08)
(-2.18829e-07 3.52225e-08 -1.62909e-08)
(-1.66654e-07 3.29361e-08 -3.00136e-09)
(1.92444e-07 -4.49668e-08 -8.67731e-08)
(1.92235e-07 -3.62168e-08 -8.59356e-08)
(1.92937e-07 -2.82133e-08 -8.24341e-08)
(1.67407e-07 -2.06269e-08 -5.38873e-08)
(8.83998e-08 4.18578e-09 -3.63206e-08)
(2.49677e-08 1.36277e-08 -3.59409e-08)
(-1.2243e-07 1.92965e-08 -3.69193e-08)
(-2.03033e-07 3.32291e-08 -1.21509e-08)
(-1.61548e-07 3.51552e-08 2.92682e-09)
(1.96553e-07 -3.6292e-08 -8.77432e-08)
(2.19183e-07 -3.1152e-08 -8.7696e-08)
(2.13051e-07 -2.76906e-08 -7.82043e-08)
(1.78637e-07 -1.99862e-08 -5.63274e-08)
(1.10639e-07 4.3446e-09 -4.42594e-08)
(3.11949e-08 1.45827e-08 -3.51779e-08)
(-1.05912e-07 2.41465e-08 -2.71841e-08)
(-1.81971e-07 3.29818e-08 -4.986e-09)
(-1.69046e-07 3.86767e-08 4.52881e-09)
(1.53873e-07 -2.96622e-08 -4.15168e-08)
(1.15878e-07 -1.38508e-08 -3.54578e-08)
(5.44769e-08 -9.10365e-10 -2.59687e-08)
(-3.22631e-09 1.47212e-08 -2.30605e-08)
(-1.40124e-07 2.47072e-08 -1.45538e-08)
(-1.86853e-07 2.88295e-08 -2.98262e-09)
(-1.52492e-07 2.59917e-08 2.49398e-09)
(1.87643e-07 -3.66537e-08 -6.47802e-08)
(1.72768e-07 -3.74753e-08 -5.30933e-08)
(1.61277e-07 -3.55197e-08 -4.18821e-08)
(1.25244e-07 -9.87585e-09 -3.8039e-08)
(7.04532e-08 1.10818e-08 -2.9407e-08)
(1.3569e-08 1.42526e-08 -2.44014e-08)
(-1.37338e-07 2.15487e-08 -1.64516e-08)
(-2.09033e-07 3.85184e-08 1.90715e-09)
(-1.66853e-07 4.30933e-08 1.15326e-08)
(1.92807e-07 -2.73572e-08 -6.56847e-08)
(1.82531e-07 -2.81028e-08 -5.99872e-08)
(1.68963e-07 -1.39277e-08 -4.58084e-08)
(1.33506e-07 -8.32361e-09 -3.5531e-08)
(6.95922e-08 9.70705e-09 -2.72021e-08)
(2.51553e-09 1.41611e-08 -2.30296e-08)
(-1.19109e-07 2.30772e-08 -1.23526e-08)
(-1.80449e-07 4.7354e-08 6.98233e-09)
(-1.58973e-07 6.37269e-08 1.92157e-08)
(1.98241e-07 -2.55942e-08 -6.80854e-08)
(1.92091e-07 -2.27616e-08 -6.63025e-08)
(1.63133e-07 -1.72368e-08 -5.21033e-08)
(1.35412e-07 -7.16803e-09 -3.99457e-08)
(7.48172e-08 7.33543e-09 -3.04748e-08)
(1.53084e-09 1.86702e-08 -2.0137e-08)
(-1.05999e-07 4.02655e-08 -5.88173e-09)
(-1.64192e-07 6.63536e-08 1.21174e-08)
(-1.59579e-07 9.29781e-08 2.65319e-08)
(4.40439e-08 3.52917e-10 -5.44976e-09)
(-3.17074e-08 1.09005e-08 -5.19073e-09)
(-1.41772e-07 2.23917e-08 -2.28957e-09)
(-1.76255e-07 3.19415e-08 8.8672e-09)
(-1.41315e-07 3.34426e-08 5.90709e-09)
(1.70312e-07 -2.46504e-08 -5.01881e-08)
(1.57698e-07 -2.1874e-08 -3.74543e-08)
(1.44554e-07 -1.65228e-08 -2.69554e-08)
(1.16803e-07 -1.04734e-09 -2.26713e-08)
(5.36615e-08 1.34429e-08 -1.15674e-08)
(-1.08501e-08 1.91991e-08 -9.95146e-09)
(-1.34989e-07 3.47034e-08 -5.55901e-09)
(-1.93714e-07 5.3386e-08 9.38386e-09)
(-1.58938e-07 6.48788e-08 1.86592e-08)
(1.678e-07 -1.42612e-08 -4.92806e-08)
(1.55899e-07 -9.87455e-09 -4.3521e-08)
(1.36716e-07 -6.18949e-09 -3.25422e-08)
(1.05723e-07 1.36053e-09 -2.75118e-08)
(5.37692e-08 1.49415e-08 -1.56511e-08)
(-4.72924e-09 2.43528e-08 -7.04832e-09)
(-1.17384e-07 4.71323e-08 7.06768e-09)
(-1.88234e-07 8.49869e-08 2.5403e-08)
(-1.74954e-07 1.28205e-07 4.01404e-08)
(1.59136e-07 -1.21745e-08 -5.02605e-08)
(1.42619e-07 -1.17797e-08 -4.64975e-08)
(1.24302e-07 -6.33545e-09 -3.62978e-08)
(9.74232e-08 2.40611e-09 -2.84554e-08)
(4.64373e-08 1.37951e-08 -1.76208e-08)
(-2.84865e-09 3.13719e-08 -4.11371e-09)
(-1.0722e-07 6.54091e-08 9.83315e-09)
(-1.77659e-07 1.31279e-07 3.77691e-08)
(-1.98529e-07 2.3602e-07 7.32755e-08)
(-1.47339e-07 1.62961e-08 1.07141e-08)
(-1.87824e-07 3.04717e-08 1.0575e-08)
(-1.55478e-07 3.94783e-08 6.62914e-09)
(1.39083e-07 -1.30538e-08 -4.21848e-08)
(1.47885e-07 -1.76422e-08 -2.65619e-08)
(1.24761e-07 -1.62083e-08 -1.89171e-08)
(8.31761e-08 1.10365e-09 -1.69647e-08)
(3.16478e-08 1.52485e-08 -4.12005e-09)
(-3.25562e-08 2.03147e-08 2.31142e-09)
(-1.35732e-07 3.49275e-08 8.88656e-09)
(-1.83513e-07 6.44594e-08 1.62616e-08)
(-1.62025e-07 9.34859e-08 2.71745e-08)
(1.45463e-07 -4.14792e-09 -4.07088e-08)
(1.36186e-07 -8.56897e-09 -3.14743e-08)
(1.2497e-07 -5.64026e-09 -2.26831e-08)
(8.9529e-08 6.29413e-09 -2.1328e-08)
(4.06886e-08 1.8016e-08 -7.85031e-09)
(-1.90106e-08 2.87145e-08 1.91301e-10)
(-1.22578e-07 6.40411e-08 1.30875e-08)
(-1.92261e-07 1.30466e-07 3.84998e-08)
(-2.05673e-07 2.36275e-07 7.36459e-08)
(1.29851e-07 -5.67667e-09 -4.09219e-08)
(1.26222e-07 -7.57944e-09 -3.34632e-08)
(1.18051e-07 -6.11763e-09 -2.68604e-08)
(8.48772e-08 7.73709e-09 -1.96154e-08)
(3.1042e-08 2.20697e-08 -8.90454e-09)
(-2.24812e-08 4.0322e-08 1.5559e-09)
(-1.10296e-07 9.76366e-08 2.21485e-08)
(-2.0594e-07 2.44197e-07 7.33966e-08)
(-3.55226e-07 6.73614e-07 2.13559e-07)
)
;

boundaryField
{
    inlet
    {
        type            calculated;
        value           nonuniform 0();
    }
    outlet
    {
        type            calculated;
        value           nonuniform List<vector> 
16
(
(1.64488e-08 3.97608e-08 5.11672e-08)
(5.08926e-08 3.13054e-08 5.08893e-08)
(1.54244e-08 -6.07837e-09 1.87802e-08)
(6.51448e-09 -2.48262e-09 1.49266e-08)
(-3.60083e-09 -1.45538e-08 5.64076e-08)
(-5.73358e-09 -8.25094e-09 3.38363e-08)
(-1.57692e-08 -7.42125e-09 1.42951e-08)
(1.69427e-08 -1.4003e-09 7.27266e-09)
(8.37173e-09 -1.50899e-08 1.33578e-08)
(4.92457e-09 -3.19437e-09 4.04977e-09)
(4.51436e-09 -2.16961e-09 1.5214e-09)
(4.96648e-08 -4.56903e-09 -4.22056e-10)
(1.21406e-08 -3.58888e-09 -4.4181e-09)
(2.73036e-09 -8.80578e-09 4.7252e-09)
(2.22238e-08 -4.88716e-09 -1.26313e-09)
(-1.69065e-06 4.74378e-06 1.52683e-06)
)
;
    }
    wall
    {
        type            calculated;
        value           nonuniform List<vector> 
66
(
(1.01748e-07 -9.83466e-10 -2.64564e-08)
(1.48993e-07 2.50468e-08 -9.93442e-09)
(7.76948e-08 -2.22718e-08 9.25676e-10)
(2.74644e-07 -4.74815e-08 3.9864e-08)
(8.84699e-08 -2.19237e-08 2.67691e-08)
(6.68477e-08 -1.54672e-08 -1.18707e-08)
(1.79369e-07 -4.74001e-08 3.28566e-08)
(2.51449e-07 5.80569e-10 2.93785e-08)
(1.44643e-07 -4.23489e-08 6.33676e-09)
(3.70784e-08 3.2009e-08 -1.12145e-08)
(1.50187e-07 2.21671e-08 -3.50251e-08)
(1.38626e-07 1.89293e-09 -5.92937e-09)
(-6.54456e-08 2.45165e-08 3.92512e-08)
(-3.79397e-08 1.27411e-08 2.97855e-08)
(-1.21445e-07 5.45709e-08 4.00882e-08)
(1.15131e-07 -1.46369e-09 -9.51913e-10)
(6.59252e-08 -2.81801e-08 2.41158e-09)
(-1.55254e-08 -4.87366e-09 3.09183e-09)
(-4.4708e-07 -3.73369e-08 3.52224e-08)
(-4.6787e-07 -1.29136e-08 1.7471e-08)
(-2.81141e-07 -3.83679e-09 4.78481e-09)
(-9.89298e-08 4.26486e-09 -9.34343e-09)
(-5.58012e-07 1.02689e-08 3.28646e-08)
(-4.71469e-07 8.34249e-09 1.17578e-08)
(-4.10023e-07 -8.75875e-09 -4.68189e-09)
(-2.19896e-07 -2.13139e-09 -1.57192e-08)
(-1.99572e-08 -6.03729e-10 -1.46275e-08)
(-4.96501e-08 -8.92712e-09 -4.74139e-09)
(-3.00071e-08 -7.23653e-09 -7.85689e-09)
(-1.72447e-06 4.74314e-06 1.5283e-06)
(1.00968e-07 4.48225e-08 -1.94153e-07)
(2.29125e-07 -3.38292e-08 -1.56661e-07)
(6.82097e-08 -1.6756e-08 -6.45701e-08)
(3.57015e-08 -2.10078e-08 -1.27905e-09)
(5.00346e-07 5.05217e-08 -1.4305e-07)
(5.17896e-07 2.04144e-08 -1.22408e-07)
(1.15263e-07 6.15561e-09 -5.03625e-08)
(6.98073e-08 -1.41688e-08 -1.17792e-08)
(3.35184e-07 -2.47303e-08 -1.5939e-07)
(-4.62317e-08 -4.19352e-08 -2.28136e-08)
(8.78178e-08 -6.64328e-09 -1.60641e-08)
(1.82402e-07 -4.17732e-08 4.46936e-09)
(4.54496e-07 -6.36143e-08 -4.07777e-08)
(2.79067e-07 -1.57926e-08 -2.09476e-08)
(7.53752e-08 1.17781e-09 -1.94633e-08)
(1.31921e-07 1.28656e-09 -4.54298e-09)
(1.32443e-07 1.45241e-08 -5.35151e-08)
(6.70333e-08 -8.58814e-09 -3.92125e-08)
(1.8989e-09 -2.35823e-09 -1.94753e-08)
(-1.62907e-07 5.65114e-08 4.00442e-08)
(2.04446e-07 4.41154e-08 -1.68918e-08)
(-6.74833e-08 3.22926e-08 -3.39598e-08)
(2.08443e-07 1.12783e-08 2.62743e-08)
(2.09496e-08 -5.15653e-09 1.22355e-08)
(-3.56012e-07 9.11114e-09 -6.64795e-08)
(-3.01079e-07 2.51831e-08 2.15136e-08)
(-2.45291e-07 1.57289e-08 2.63805e-08)
(-1.06904e-07 3.38464e-09 -7.50128e-09)
(-5.2688e-07 -1.92053e-08 5.04148e-08)
(-3.75788e-07 3.35554e-08 2.89649e-08)
(-2.61099e-07 -8.61205e-09 1.33261e-08)
(-2.30144e-07 -2.14437e-09 -1.48995e-08)
(-4.94345e-08 -1.09195e-08 3.76344e-08)
(9.86681e-10 -1.46179e-08 4.92334e-09)
(3.93708e-08 -9.68506e-09 1.11692e-08)
(-6.29259e-06 5.4333e-06 4.71764e-06)
)
;
    }
    procBoundary7to0
    {
        type            processor;
        value           uniform (1.14229e-07 -8.09842e-08 -1.14077e-07);
    }
    procBoundary7to1
    {
        type            processor;
        value           uniform (8.66252e-08 -8.13441e-08 -1.03804e-07);
    }
    procBoundary7to3
    {
        type            processor;
        value           nonuniform List<vector> 
36
(
(1.17286e-08 -1.54659e-07 -1.5442e-07)
(1.08757e-07 -7.84617e-08 -1.29788e-07)
(1.41077e-07 -5.05295e-08 -1.01264e-07)
(4.518e-08 -2.19412e-08 -7.03887e-08)
(6.79974e-08 1.85824e-09 -5.7738e-08)
(4.56596e-09 1.66754e-08 -5.14226e-08)
(-1.71564e-07 2.60923e-08 -4.70559e-08)
(-2.49525e-07 2.24704e-08 -4.3602e-08)
(-2.03899e-07 2.30296e-08 -2.96653e-08)
(1.03353e-07 -1.02058e-07 -1.42142e-07)
(1.07261e-07 -8.49545e-08 -1.32408e-07)
(1.55718e-07 -9.67446e-08 -1.07708e-07)
(1.287e-07 -2.68968e-08 -7.25369e-08)
(6.51649e-08 2.02028e-08 -5.56116e-08)
(2.60681e-08 1.88921e-08 -4.97507e-08)
(-1.50004e-07 4.60396e-08 -4.63077e-08)
(-2.45076e-07 2.41904e-08 -4.08954e-08)
(-1.98273e-07 1.67899e-08 -2.76838e-08)
(1.78888e-07 -8.25546e-08 -1.14463e-07)
(1.92064e-07 -5.70743e-08 -1.17152e-07)
(1.90214e-07 -4.46445e-08 -1.02507e-07)
(1.56979e-07 -1.71918e-08 -7.68629e-08)
(9.98822e-08 5.9274e-09 -5.88232e-08)
(4.81083e-08 1.36162e-08 -5.43091e-08)
(-1.35335e-07 2.04029e-08 -4.84968e-08)
(-2.24493e-07 1.85696e-08 -3.6754e-08)
(-1.71232e-07 2.07656e-08 -2.63169e-08)
(2.13946e-07 -5.45191e-08 -1.06364e-07)
(2.5398e-07 -4.5891e-08 -1.11345e-07)
(2.39754e-07 -4.52958e-08 -1.0303e-07)
(1.91935e-07 -2.28991e-08 -7.88306e-08)
(1.28765e-07 6.34047e-09 -5.95259e-08)
(4.15964e-08 7.11545e-09 -5.41155e-08)
(-9.44534e-08 7.86129e-09 -4.30492e-08)
(-1.89081e-07 2.14054e-08 -2.93002e-08)
(-1.5816e-07 1.99466e-08 -2.17774e-08)
)
;
    }
    procBoundary7to5
    {
        type            processor;
        value           nonuniform List<vector> 
44
(
(9.49458e-08 -5.49708e-08 -6.19958e-08)
(1.51487e-07 -3.24377e-08 -5.44454e-08)
(1.21281e-07 -1.64873e-08 -4.54997e-08)
(6.17407e-08 -1.55657e-08 -3.45709e-08)
(-2.27474e-08 3.0915e-09 -3.27611e-08)
(-1.50213e-07 1.1129e-08 -2.73234e-08)
(-2.09869e-07 9.35167e-09 -1.94338e-08)
(-1.75262e-07 1.97542e-08 -8.87823e-09)
(1.58329e-07 -4.443e-08 -5.72834e-08)
(1.71998e-07 -3.26176e-08 -4.60005e-08)
(1.39848e-07 -1.98281e-08 -3.41759e-08)
(1.21679e-07 -1.18118e-08 -3.14735e-08)
(3.86218e-08 -6.58722e-09 -1.86819e-08)
(-1.34558e-08 4.17043e-09 -1.75898e-08)
(-1.30123e-07 1.3849e-08 -1.31781e-08)
(-1.69934e-07 1.0946e-08 -4.92166e-09)
(-1.3467e-07 1.38798e-08 -4.89266e-09)
(1.58329e-07 -4.443e-08 -5.72834e-08)
(1.71998e-07 -3.26176e-08 -4.60005e-08)
(1.71998e-07 -3.26176e-08 -4.60005e-08)
(1.4084e-07 -1.68384e-08 -3.28844e-08)
(1.10315e-07 -5.10591e-09 -2.35641e-08)
(5.19455e-08 -2.58893e-09 -8.55139e-09)
(-1.29471e-08 3.39704e-09 -8.70856e-09)
(-1.23656e-07 6.0259e-09 -2.88541e-09)
(-1.59648e-07 8.64237e-09 5.20612e-09)
(-1.34039e-07 1.42037e-08 -2.76239e-11)
(1.60124e-07 -1.48173e-08 -3.6382e-08)
(1.45656e-07 -2.07525e-08 -3.20121e-08)
(1.4084e-07 -1.68384e-08 -3.28844e-08)
(1.10315e-07 -5.10591e-09 -2.35641e-08)
(1.10315e-07 -5.10591e-09 -2.35641e-08)
(3.00227e-08 9.78843e-09 -5.38969e-09)
(-3.34861e-08 1.56574e-08 -9.99838e-10)
(-1.2908e-07 4.80825e-09 6.11757e-09)
(-1.66739e-07 1.12502e-08 3.03884e-09)
(-1.30254e-07 1.67548e-08 -3.90472e-09)
(1.48515e-07 -7.44396e-09 -2.83786e-08)
(1.43237e-07 -1.78025e-08 -1.93418e-08)
(1.19172e-07 -2.69257e-08 -1.66462e-08)
(7.71967e-08 -4.01761e-09 -1.48865e-08)
(3.00227e-08 9.78843e-09 -5.38969e-09)
(-3.34861e-08 1.56574e-08 -9.99838e-10)
(-3.34861e-08 1.56574e-08 -9.99838e-10)
)
;
    }
    procBoundary7to6
    {
        type            processor;
        value           nonuniform List<vector> 
12
(
(1.84538e-07 -5.57312e-08 -9.48851e-08)
(2.01938e-07 -4.58704e-08 -8.53515e-08)
(1.80098e-07 -3.85087e-08 -7.98512e-08)
(1.9094e-07 -2.28834e-08 -5.81311e-08)
(2.05221e-07 -2.15742e-08 -5.87126e-08)
(1.90875e-07 -2.06408e-08 -5.98697e-08)
(1.83775e-07 -1.06252e-09 -3.98272e-08)
(1.7998e-07 -4.90078e-09 -4.56741e-08)
(1.58344e-07 -6.99067e-09 -4.87946e-08)
(1.60618e-07 7.20329e-09 -2.94924e-08)
(1.60879e-07 4.00196e-09 -3.70876e-08)
(1.40686e-07 -2.17881e-09 -3.91e-08)
)
;
    }
}


// ************************************************************************* //
