/*--------------------------------*- C++ -*----------------------------------*\
| =========                 |                                                 |
| \\      /  F ield         | OpenFOAM: The Open Source CFD Toolbox           |
|  \\    /   O peration     | Version:  4.x                                   |
|   \\  /    A nd           | Web:      www.OpenFOAM.org                      |
|    \\/     M anipulation  |                                                 |
\*---------------------------------------------------------------------------*/
FoamFile
{
    version     2.0;
    format      ascii;
    class       volVectorField;
    location    "28.5";
    object      impParticleForces;
}
// * * * * * * * * * * * * * * * * * * * * * * * * * * * * * * * * * * * * * //

dimensions      [1 1 -2 0 0 0 0];

internalField   nonuniform List<vector> 
132
(
(0.00240654 1.22016e-05 -2.69215e-05)
(0.00243385 1.41483e-05 -1.89508e-05)
(0.00239904 1.48499e-05 -1.04878e-05)
(0.0024212 1.50202e-05 -1.0539e-06)
(0.00240451 1.45306e-05 8.42695e-06)
(0.00241888 1.45381e-05 1.82118e-05)
(0.00234601 1.3547e-05 2.2788e-05)
(0.00231901 1.33174e-05 2.64479e-05)
(0.00225008 1.55051e-05 2.03737e-05)
(0.00240954 1.42013e-05 -2.88175e-05)
(0.00245529 1.52551e-05 -2.15374e-05)
(0.0024092 1.53886e-05 -1.38074e-05)
(0.00242221 1.57877e-05 -5.56042e-06)
(0.00239714 1.62592e-05 2.35111e-06)
(0.00241043 1.71368e-05 1.05749e-05)
(0.00235604 2.01044e-05 1.44121e-05)
(0.00233737 2.25806e-05 1.93299e-05)
(0.00225731 3.46525e-05 1.1008e-05)
(0.00241567 1.57566e-05 -3.12987e-05)
(0.00245984 1.6042e-05 -2.51785e-05)
(0.0024234 1.59297e-05 -1.84322e-05)
(0.00244102 1.61433e-05 -1.15316e-05)
(0.00241981 1.75634e-05 -5.49409e-06)
(0.00244905 1.81002e-05 6.23685e-07)
(0.00238371 2.36009e-05 3.87659e-06)
(0.00235723 2.80078e-05 7.98109e-06)
(0.00225454 4.45259e-05 -3.77474e-07)
(0.00240245 1.60248e-05 -3.29446e-05)
(0.00241879 1.56708e-05 -2.70927e-05)
(0.00240609 1.56186e-05 -2.15372e-05)
(0.00240553 1.58999e-05 -1.51686e-05)
(0.00240737 1.73985e-05 -1.09833e-05)
(0.00241531 1.93008e-05 -5.35478e-06)
(0.0023603 2.49e-05 -3.59434e-06)
(0.00233505 3.17034e-05 3.55735e-07)
(0.00223315 4.33101e-05 -7.51163e-06)
(0.0023706 1.02328e-05 -8.44028e-06)
(0.00239534 1.00197e-05 -1.36129e-07)
(0.00236432 9.74569e-06 7.72627e-06)
(0.00237538 9.1316e-06 1.67402e-05)
(0.00232558 8.71084e-06 2.23381e-05)
(0.00231115 9.16009e-06 2.78904e-05)
(0.00223017 8.23519e-06 3.03858e-05)
(0.00237555 1.13638e-05 -2.39724e-05)
(0.00241709 1.18846e-05 -1.8361e-05)
(0.00237689 1.19983e-05 -1.19594e-05)
(0.00239696 1.19853e-05 -4.91218e-06)
(0.00237227 1.2089e-05 2.23658e-06)
(0.00237639 1.24416e-05 9.68329e-06)
(0.00231992 1.3599e-05 1.4647e-05)
(0.00230944 1.68029e-05 2.04854e-05)
(0.00222481 2.3116e-05 2.04802e-05)
(0.00239097 1.38807e-05 -2.6459e-05)
(0.00242953 1.35909e-05 -2.1655e-05)
(0.00239008 1.33911e-05 -1.60661e-05)
(0.00240331 1.32457e-05 -1.00026e-05)
(0.00238797 1.37851e-05 -4.21351e-06)
(0.00240549 1.40295e-05 2.19592e-06)
(0.00234422 1.63981e-05 6.59566e-06)
(0.00231438 2.04345e-05 1.21807e-05)
(0.00222491 3.1065e-05 1.34371e-05)
(0.00237343 1.46118e-05 -2.79959e-05)
(0.00239265 1.38399e-05 -2.34434e-05)
(0.00236975 1.36662e-05 -1.87272e-05)
(0.00238255 1.34447e-05 -1.33718e-05)
(0.00236266 1.42681e-05 -8.45808e-06)
(0.0023638 1.48284e-05 -2.88492e-06)
(0.00231521 1.77415e-05 9.3646e-07)
(0.00229065 2.10151e-05 6.45809e-06)
(0.00219879 2.93076e-05 6.85383e-06)
(0.00234495 5.74149e-06 6.31542e-06)
(0.0023589 5.11857e-06 1.38453e-05)
(0.00231785 4.24555e-06 2.0841e-05)
(0.00230301 4.36015e-06 2.60165e-05)
(0.00221322 1.76074e-06 3.62426e-05)
(0.00237603 9.40822e-06 -2.02716e-05)
(0.00240451 9.66836e-06 -1.63321e-05)
(0.00236176 9.4067e-06 -1.10913e-05)
(0.00237791 9.054e-06 -5.58852e-06)
(0.00235187 8.71246e-06 8.60637e-07)
(0.00236136 8.14384e-06 7.47525e-06)
(0.00231111 8.71669e-06 1.32672e-05)
(0.00230422 9.89941e-06 1.95311e-05)
(0.00221451 1.8273e-05 2.41362e-05)
(0.00238713 1.28958e-05 -2.26178e-05)
(0.00241141 1.2495e-05 -1.91855e-05)
(0.00238019 1.20748e-05 -1.48353e-05)
(0.00240318 1.15256e-05 -1.02597e-05)
(0.00237712 1.13664e-05 -4.80352e-06)
(0.0023892 9.84885e-06 4.67424e-07)
(0.00233301 1.12794e-05 5.70655e-06)
(0.00231659 1.10766e-05 1.02923e-05)
(0.00221427 2.18488e-05 1.67286e-05)
(0.00235778 1.35233e-05 -2.39769e-05)
(0.00237278 1.27246e-05 -2.05273e-05)
(0.00235356 1.20143e-05 -1.68331e-05)
(0.00237835 1.13707e-05 -1.2771e-05)
(0.00235307 1.07214e-05 -8.68656e-06)
(0.00236307 1.00375e-05 -3.81915e-06)
(0.00231069 1.05443e-05 -7.1618e-08)
(0.00227771 1.24588e-05 5.74853e-06)
(0.00218613 1.70276e-05 9.58218e-06)
(0.00228311 1.21319e-06 1.89802e-05)
(0.00228017 1.85718e-06 2.55401e-05)
(0.00218719 -3.27446e-06 3.4716e-05)
(0.00234275 8.06136e-06 -1.81591e-05)
(0.00235675 8.10823e-06 -1.49747e-05)
(0.00233088 7.75282e-06 -1.06917e-05)
(0.00235005 7.3707e-06 -6.30326e-06)
(0.00230924 6.8707e-06 -4.5654e-07)
(0.0023084 6.32552e-06 4.86198e-06)
(0.00226817 6.16519e-06 1.08301e-05)
(0.00225352 7.18666e-06 1.57921e-05)
(0.00217367 9.01491e-06 2.15733e-05)
(0.00234414 1.1848e-05 -2.04739e-05)
(0.00235108 1.13311e-05 -1.76234e-05)
(0.00233644 1.10386e-05 -1.42872e-05)
(0.00236781 1.07073e-05 -1.08828e-05)
(0.00232952 1.02567e-05 -6.38427e-06)
(0.00231759 9.12188e-06 -1.39717e-06)
(0.00227879 9.45796e-06 2.81797e-06)
(0.00226392 8.82785e-06 8.1469e-06)
(0.00217776 1.26735e-05 1.14674e-05)
(0.00232838 1.26308e-05 -2.18176e-05)
(0.00234425 1.19839e-05 -1.91699e-05)
(0.0023284 1.12043e-05 -1.61026e-05)
(0.00236136 1.05164e-05 -1.31243e-05)
(0.00233334 9.62163e-06 -9.61938e-06)
(0.00230736 9.16791e-06 -4.67416e-06)
(0.00226224 8.83186e-06 -1.17156e-06)
(0.00223855 9.72554e-06 4.55312e-06)
(0.00216267 9.35773e-06 5.2435e-06)
)
;

boundaryField
{
    inlet
    {
        type            zeroGradient;
    }
    outlet
    {
        type            zeroGradient;
    }
    wall
    {
        type            zeroGradient;
    }
    procBoundary7to0
    {
        type            processor;
        value           uniform (0.00239606 9.40726e-06 -3.41826e-05);
    }
    procBoundary7to1
    {
        type            processor;
        value           uniform (0.00240705 1.084e-05 -2.61325e-05);
    }
    procBoundary7to3
    {
        type            processor;
        value           nonuniform List<vector> 
36
(
(0.00244978 1.58802e-05 -3.14956e-05)
(0.0024855 1.83453e-05 -2.19414e-05)
(0.00245283 1.93757e-05 -1.26723e-05)
(0.00247176 1.9158e-05 -2.26791e-06)
(0.00242821 1.83961e-05 7.5251e-06)
(0.00243908 1.76944e-05 1.84102e-05)
(0.00238642 1.73807e-05 2.38036e-05)
(0.00236416 1.74793e-05 2.79666e-05)
(0.00228292 1.84917e-05 1.45451e-05)
(0.00245977 1.62273e-05 -3.3598e-05)
(0.00248216 1.73309e-05 -2.47523e-05)
(0.00245393 1.81554e-05 -1.58963e-05)
(0.00244929 1.85404e-05 -6.48368e-06)
(0.00242251 1.93272e-05 2.49477e-06)
(0.0024525 2.14793e-05 1.2461e-05)
(0.00240027 2.43842e-05 1.64397e-05)
(0.00239219 3.01792e-05 2.06117e-05)
(0.00228338 4.04927e-05 3.77419e-06)
(0.00246765 1.70604e-05 -3.57394e-05)
(0.00250667 1.76109e-05 -2.82127e-05)
(0.00247274 1.75442e-05 -1.9955e-05)
(0.00248096 1.80562e-05 -1.15536e-05)
(0.00245645 1.98423e-05 -4.33978e-06)
(0.00248708 2.3218e-05 2.09545e-06)
(0.00243287 3.00717e-05 3.54339e-06)
(0.00240774 4.10656e-05 1.19561e-06)
(0.00229422 6.11792e-05 -1.70071e-05)
(0.00243897 1.70307e-05 -3.66828e-05)
(0.00245003 1.6791e-05 -2.92354e-05)
(0.00243887 1.67272e-05 -2.24105e-05)
(0.00245946 1.74285e-05 -1.55559e-05)
(0.00245675 1.98921e-05 -1.05859e-05)
(0.00247549 2.35361e-05 -5.64528e-06)
(0.00241006 3.31758e-05 -7.69696e-06)
(0.00239846 4.52683e-05 -1.29247e-05)
(0.00229176 6.72531e-05 -3.40128e-05)
)
;
    }
    procBoundary7to5
    {
        type            processor;
        value           nonuniform List<vector> 
44
(
(0.00243988 1.43054e-05 -1.80473e-05)
(0.00240341 1.53881e-05 -9.24981e-06)
(0.00242764 1.52662e-05 5.48529e-07)
(0.00239083 1.38166e-05 9.55725e-06)
(0.00239214 1.21594e-05 1.94163e-05)
(0.00234727 9.28565e-06 2.59612e-05)
(0.00232169 6.15525e-06 3.11254e-05)
(0.00225204 -1.31888e-06 2.83624e-05)
(0.00238275 8.39127e-06 -2.1915e-05)
(0.00239057 9.69502e-06 -1.55799e-05)
(0.00238186 9.40209e-06 -6.57307e-06)
(0.00240945 9.43801e-06 2.16764e-06)
(0.00237301 8.45278e-06 1.04692e-05)
(0.00238801 6.78332e-06 2.00925e-05)
(0.00233578 4.07373e-06 2.71892e-05)
(0.00231947 9.44015e-07 3.45584e-05)
(0.00223911 -7.4831e-06 3.96833e-05)
(0.00238275 8.39127e-06 -2.1915e-05)
(0.00239057 9.69502e-06 -1.55799e-05)
(0.00239057 9.69502e-06 -1.55799e-05)
(0.00237193 6.2417e-06 -7.37608e-06)
(0.00239076 5.96442e-06 -9.91584e-07)
(0.00238633 3.79929e-06 9.75617e-06)
(0.00239518 3.12052e-06 1.76901e-05)
(0.00234995 3.04358e-07 2.6081e-05)
(0.00233991 -2.82723e-06 3.47458e-05)
(0.00224922 -1.41056e-05 4.79634e-05)
(0.00236602 5.23325e-06 -1.79052e-05)
(0.00240971 6.05709e-06 -1.33225e-05)
(0.00237193 6.2417e-06 -7.37608e-06)
(0.00239076 5.96442e-06 -9.91584e-07)
(0.00239076 5.96442e-06 -9.91584e-07)
(0.00233357 2.51343e-06 5.20859e-06)
(0.00232502 2.44221e-06 1.17025e-05)
(0.00231723 -7.22529e-07 2.33912e-05)
(0.00230681 -1.78725e-06 2.95632e-05)
(0.00221913 -1.08896e-05 4.35502e-05)
(0.00233394 3.53479e-06 -1.58796e-05)
(0.00235789 3.96673e-06 -1.19184e-05)
(0.00233907 3.95079e-06 -7.02511e-06)
(0.00235303 3.50238e-06 -1.62217e-06)
(0.00233357 2.51343e-06 5.20859e-06)
(0.00232502 2.44221e-06 1.17025e-05)
(0.00232502 2.44221e-06 1.17025e-05)
)
;
    }
    procBoundary7to6
    {
        type            processor;
        value           nonuniform List<vector> 
12
(
(0.00242824 1.31432e-05 -3.58483e-05)
(0.00244653 1.6248e-05 -3.80088e-05)
(0.00240463 1.67117e-05 -3.83535e-05)
(0.00241448 1.09137e-05 -2.96565e-05)
(0.00243009 1.46177e-05 -3.15735e-05)
(0.00240185 1.58768e-05 -3.25395e-05)
(0.0024035 9.2164e-06 -2.40713e-05)
(0.00242237 1.41027e-05 -2.5721e-05)
(0.00238471 1.49581e-05 -2.69935e-05)
(0.00235933 8.00245e-06 -2.10482e-05)
(0.0023737 1.26453e-05 -2.29968e-05)
(0.00236152 1.3966e-05 -2.43296e-05)
)
;
    }
}


// ************************************************************************* //
