/*--------------------------------*- C++ -*----------------------------------*\
| =========                 |                                                 |
| \\      /  F ield         | OpenFOAM: The Open Source CFD Toolbox           |
|  \\    /   O peration     | Version:  4.x                                   |
|   \\  /    A nd           | Web:      www.OpenFOAM.org                      |
|    \\/     M anipulation  |                                                 |
\*---------------------------------------------------------------------------*/
FoamFile
{
    version     2.0;
    format      ascii;
    class       volScalarField;
    location    "28.5";
    object      KslNext;
}
// * * * * * * * * * * * * * * * * * * * * * * * * * * * * * * * * * * * * * //

dimensions      [1 -3 -1 0 0 0 0];

internalField   nonuniform List<scalar> 
132
(
64863.1
3820.54
100362
3732.87
1e+10
3683.8
1e+10
3862.05
13294.5
58015.5
3879.05
110400
3865.14
78125.3
3919.09
20049.7
4016.66
6904.52
17911.4
3526.73
18997.2
3387.28
18396.2
3232.17
16672.5
2900.67
14089.7
6704.46
3072.29
6881.03
2977.66
7513.16
2926.72
9399.13
2877.6
19271.6
1e+10
3873.71
1e+10
3912.3
1e+10
4306.79
13643.4
1e+10
3893.93
1e+10
3823.76
1e+10
3751.4
1e+10
3742.49
32254.6
609899
3769.6
1e+10
3823.22
1e+10
4067.77
1e+10
4736.95
12757.4
9168.67
3290.77
10991.9
3250.69
13913.7
3179.71
15913.8
3000.95
13347.7
53204.1
3445.65
23640.4
3593.07
9312.51
166838
3722.32
1e+10
3714.84
1e+10
3799.38
37106.6
3959.84
7587.59
15197.2
3416.77
15713.3
3218.77
14203
2921.06
11490.2
2425.3
8751.28
6268.17
3029.47
6244.65
2941.09
6421.62
2783.66
7147.49
2430.09
13505.4
10913.4
2644.85
10112.2
10193.1
3373.84
12961.7
3421.89
19820.7
3536.65
43391.7
3822.95
31086.9
6923.88
3099.24
7384.01
3082.86
8296.51
2961.4
9621.62
2778.09
15487.9
5084.84
2861.24
5188.56
2869.61
5467.52
2829.67
5580.44
2959.22
5498.92
)
;

boundaryField
{
    inlet
    {
        type            zeroGradient;
    }
    outlet
    {
        type            zeroGradient;
    }
    wall
    {
        type            zeroGradient;
    }
    procBoundary7to0
    {
        type            processor;
        value           uniform 0;
    }
    procBoundary7to1
    {
        type            processor;
        value           uniform 0;
    }
    procBoundary7to3
    {
        type            processor;
        value           uniform 0;
    }
    procBoundary7to5
    {
        type            processor;
        value           uniform 0;
    }
    procBoundary7to6
    {
        type            processor;
        value           uniform 0;
    }
}


// ************************************************************************* //
