/*--------------------------------*- C++ -*----------------------------------*\
| =========                 |                                                 |
| \\      /  F ield         | OpenFOAM: The Open Source CFD Toolbox           |
|  \\    /   O peration     | Version:  4.x                                   |
|   \\  /    A nd           | Web:      www.OpenFOAM.org                      |
|    \\/     M anipulation  |                                                 |
\*---------------------------------------------------------------------------*/
FoamFile
{
    version     2.0;
    format      ascii;
    class       volScalarField;
    location    "28.5";
    object      magGField;
}
// * * * * * * * * * * * * * * * * * * * * * * * * * * * * * * * * * * * * * //

dimensions      [1 -2 -1 0 0 0 0];

internalField   nonuniform List<scalar> 
132
(
4.99603
85.6897
3.22156
87.0574
9.44622e-05
87.0464
6.7911e-05
80.4366
22.5564
5.62056
84.8835
2.93482
84.2939
4.09863
82.3196
15.6713
77.7996
43.5964
18.4528
94.3261
17.2454
97.2236
17.638
101.121
19.0746
108.689
21.376
49.0439
107.144
47.2451
109.632
43.1649
110.868
33.6232
109.339
15.7213
7.29802e-05
82.4126
7.06448e-05
80.553
5.5681e-05
71.0032
21.7377
7.19236e-05
83.0092
8.01043e-05
83.583
7.78597e-05
84.0858
5.30613e-05
81.7879
9.19527
0.532299
86.4375
8.57187e-05
84.2823
7.03433e-05
78.2615
5.26428e-05
64.8778
23.1923
35.1503
97.8943
29.0511
98.3836
22.6964
99.3905
19.3863
101.754
22.1935
5.86719
91.0319
12.9855
85.1292
31.6848
1.91377
86.3903
8.13246e-05
85.5829
6.78764e-05
82.5662
8.25348
76.8817
38.7592
21.2089
94.7074
20.265
99.7972
22.2338
108.555
26.883
126.808
33.6393
51.1668
105.678
50.6413
108.439
49.0849
113.755
43.0028
125.094
21.7247
27.9124
114.982
28.9221
31.0375
94.0822
24.0088
91.6342
15.5868
87.6699
6.96546
78.5567
9.36689
45.8918
102.403
42.5706
103.057
37.5215
104.601
31.5254
108.816
18.7964
62.2799
110.496
60.6246
110.896
57.2326
109.209
54.1897
101.578
53.3798
)
;

boundaryField
{
    inlet
    {
        type            calculated;
        value           nonuniform 0();
    }
    outlet
    {
        type            calculated;
        value           nonuniform List<scalar> 
16
(
50.0111
96.6111
47.2884
34.2451
48.3027
20.3824
51.5366
48.678
70.2313
86.2437
74.7664
47.8297
63.916
20.6611
41.5473
116.207
)
;
    }
    wall
    {
        type            calculated;
        value           uniform 0;
    }
    procBoundary7to0
    {
        type            processor;
        value           uniform 85.0847;
    }
    procBoundary7to1
    {
        type            processor;
        value           uniform 0.247661;
    }
    procBoundary7to3
    {
        type            processor;
        value           nonuniform List<scalar> 
36
(
0.000103528
85.5697
0.000106067
85.2087
0.000130585
84.2033
3.34628
80.1183
30.3427
7.38296
91.2023
2.06479
91.9787
0.0343651
92.3936
1.16179
92.9008
12.2815
4.74963
93.3029
0.000315921
94.074
0.413422
93.7336
10.7419
88.1607
43.4171
47.8676
109.567
47.8819
114.157
46.4785
122.634
44.6065
144.963
48.0374
)
;
    }
    procBoundary7to5
    {
        type            processor;
        value           nonuniform List<scalar> 
44
(
81.6941
8.0274e-05
80.5313
8.51524e-05
79.0871
3.12632
72.5124
30.1553
5.38673e-05
82.5894
6.5402e-05
86.9095
4.18663
87.9495
11.4621
81.0512
22.2157
5.38673e-05
82.5894
82.5894
3.01653
90.4196
8.90572
85.3598
17.5126
79.9929
43.1955
5.09878
89.1877
3.01653
90.4196
90.4196
28.9829
104.798
32.4572
122.336
27.6559
37.1704
99.5085
33.5309
101.228
28.9829
104.798
104.798
)
;
    }
    procBoundary7to6
    {
        type            processor;
        value           nonuniform List<scalar> 
12
(
85.8032
92.1489
104.675
82.9514
86.9332
97.6109
86.42
92.2438
103.357
94.9711
100.899
109.439
)
;
    }
}


// ************************************************************************* //
