/*--------------------------------*- C++ -*----------------------------------*\
| =========                 |                                                 |
| \\      /  F ield         | OpenFOAM: The Open Source CFD Toolbox           |
|  \\    /   O peration     | Version:  4.x                                   |
|   \\  /    A nd           | Web:      www.OpenFOAM.org                      |
|    \\/     M anipulation  |                                                 |
\*---------------------------------------------------------------------------*/
FoamFile
{
    version     2.0;
    format      ascii;
    class       volScalarField;
    location    "28.5";
    object      QWallFluid;
}
// * * * * * * * * * * * * * * * * * * * * * * * * * * * * * * * * * * * * * //

dimensions      [1 -1 -3 0 0 0 0];

internalField   nonuniform List<scalar> 
132
(
0
0
0
0
0
0
0
0
0
0
0
0
0
0
0
0
0
0
0
0
0
0
0
0
0
0
0
4.82266e+08
9.01145e+08
4.68063e+08
9.17844e+08
4.35435e+08
9.26111e+08
3.56558e+08
9.15879e+08
1.94093e+08
0
0
0
0
0
0
0
0
0
0
0
0
0
0
0
0
0
0
0
0
0
0
0
0
0
3.69455e+08
8.38349e+08
3.17212e+08
8.41699e+08
2.60366e+08
8.48584e+08
2.29516e+08
8.64686e+08
2.55741e+08
0
0
0
0
0
0
0
0
0
0
0
0
0
0
0
0
0
0
0
0
0
0
0
4.98895e+08
8.91265e+08
4.94792e+08
9.09845e+08
4.82589e+08
9.45357e+08
4.34126e+08
1.02002e+09
2.51409e+08
3.07224e+08
9.53503e+08
3.16084e+08
3.34447e+08
8.12128e+08
2.72342e+08
7.95179e+08
1.92763e+08
7.67536e+08
1.01199e+08
7.03016e+08
1.28261e+08
4.57305e+08
8.69095e+08
4.30632e+08
8.73535e+08
3.89263e+08
8.8399e+08
3.38647e+08
9.12377e+08
2.23912e+08
1.16769e+09
1.84725e+09
1.14279e+09
1.8526e+09
1.09135e+09
1.83001e+09
1.04468e+09
1.72698e+09
1.03217e+09
)
;

boundaryField
{
    inlet
    {
        type            calculated;
        value           nonuniform 0();
    }
    outlet
    {
        type            calculated;
        value           uniform 0;
    }
    wall
    {
        type            calculated;
        value           uniform 0;
    }
    procBoundary7to0
    {
        type            processor;
        value           uniform 0;
    }
    procBoundary7to1
    {
        type            processor;
        value           uniform 0;
    }
    procBoundary7to3
    {
        type            processor;
        value           nonuniform List<scalar> 
36
(
0
0
0
0
0
0
0
0
0
0
0
0
0
0
0
0
0
0
0
0
0
0
0
0
0
0
0
4.7299e+08
9.1741e+08
4.73103e+08
9.48028e+08
4.61977e+08
1.00394e+09
4.47031e+08
1.14769e+09
4.74332e+08
)
;
    }
    procBoundary7to5
    {
        type            processor;
        value           nonuniform List<scalar> 
44
(
0
0
0
0
0
0
0
0
0
0
0
0
0
0
0
0
0
0
0
0
0
0
0
0
0
0
0
0
0
0
0
0
3.16615e+08
8.85322e+08
3.46631e+08
1.00198e+09
3.04964e+08
3.86346e+08
8.49389e+08
3.55774e+08
8.6111e+08
3.16615e+08
8.85322e+08
8.85322e+08
)
;
    }
    procBoundary7to6
    {
        type            processor;
        value           nonuniform List<scalar> 
12
(
0
0
8.84487e+08
0
0
8.36406e+08
0
0
8.7557e+08
8.18261e+08
8.58868e+08
1.83311e+09
)
;
    }
}


// ************************************************************************* //
