/*--------------------------------*- C++ -*----------------------------------*\
| =========                 |                                                 |
| \\      /  F ield         | OpenFOAM: The Open Source CFD Toolbox           |
|  \\    /   O peration     | Version:  4.x                                   |
|   \\  /    A nd           | Web:      www.OpenFOAM.org                      |
|    \\/     M anipulation  |                                                 |
\*---------------------------------------------------------------------------*/
FoamFile
{
    version     2.0;
    format      ascii;
    class       volScalarField;
    location    "28.5";
    object      SPartFluid;
}
// * * * * * * * * * * * * * * * * * * * * * * * * * * * * * * * * * * * * * //

dimensions      [1 -3 -1 0 0 0 0];

internalField   nonuniform List<scalar> 
132
(
9.91995e-65
7.82746e-65
6.43247e-65
6.74248e-65
1.03075e-64
1.0385e-64
7.98251e-65
5.65751e-65
8.37002e-65
7.67248e-65
9.45497e-65
7.28498e-65
6.89748e-65
8.29249e-65
5.6575e-65
7.51752e-65
6.35502e-65
8.06003e-65
4.805e-65
7.44e-65
6.1225e-65
7.13e-65
7.44001e-65
8.06002e-65
7.51753e-65
7.20753e-65
8.60254e-65
6.51002e-65
6.58752e-65
8.68002e-65
5.50252e-65
7.28503e-65
6.74253e-65
7.90504e-65
5.89004e-65
4.34003e-65
6.43248e-65
7.36249e-65
6.7425e-65
6.89751e-65
8.60252e-65
8.44753e-65
7.36252e-65
3.95249e-65
8.52499e-65
7.43999e-65
7.5175e-65
8.13751e-65
7.05251e-65
5.73502e-65
7.67253e-65
5.73502e-65
5.50251e-65
8.21501e-65
6.97501e-65
6.04501e-65
7.36252e-65
8.60253e-65
8.91254e-65
7.05254e-65
7.98254e-65
6.74252e-65
7.90503e-65
5.96752e-65
7.20753e-65
7.36253e-65
6.20004e-65
6.58754e-65
7.98256e-65
5.34754e-65
5.0375e-65
5.81251e-65
7.36253e-65
6.04502e-65
5.81252e-65
8.06001e-65
7.36251e-65
6.82001e-65
5.19251e-65
8.52502e-65
7.05252e-65
7.13003e-65
8.75754e-65
7.51754e-65
7.05253e-65
7.36253e-65
7.51752e-65
6.97502e-65
7.98253e-65
7.59504e-65
7.67254e-65
7.05255e-65
7.75005e-65
5.58004e-65
6.35504e-65
7.05254e-65
6.89754e-65
6.12254e-65
5.27004e-65
7.59506e-65
7.05256e-65
5.81255e-65
5.50253e-65
6.43254e-65
6.12254e-65
6.89752e-65
5.81252e-65
7.67253e-65
7.44003e-65
5.19252e-65
3.87502e-65
6.89754e-65
6.66504e-65
5.42503e-65
5.96753e-65
6.04504e-65
6.04503e-65
6.20004e-65
6.89754e-65
6.35504e-65
7.20755e-65
6.43255e-65
7.28506e-65
6.04505e-65
7.44006e-65
5.65754e-65
5.81255e-65
6.58755e-65
6.51006e-65
6.51005e-65
6.35506e-65
4.10754e-65
)
;

boundaryField
{
    inlet
    {
        type            calculated;
        value           nonuniform 0();
    }
    outlet
    {
        type            calculated;
        value           uniform 0;
    }
    wall
    {
        type            calculated;
        value           uniform 0;
    }
    procBoundary7to0
    {
        type            processor;
        value           uniform 2.32499e-65;
    }
    procBoundary7to1
    {
        type            processor;
        value           uniform 5.73497e-65;
    }
    procBoundary7to3
    {
        type            processor;
        value           nonuniform List<scalar> 
36
(
7.67246e-65
9.06745e-65
8.75746e-65
8.52497e-65
6.12249e-65
6.2775e-65
8.52501e-65
7.13002e-65
7.44002e-65
9.06747e-65
5.03748e-65
7.74997e-65
4.33999e-65
4.65e-65
7.90501e-65
7.28502e-65
8.83503e-65
6.12252e-65
5.115e-65
8.1375e-65
8.215e-65
5.8125e-65
6.82001e-65
7.98252e-65
6.66503e-65
7.20754e-65
5.42503e-65
8.52502e-65
4.03001e-65
5.42502e-65
6.12252e-65
5.58002e-65
7.13004e-65
6.20004e-65
7.90506e-65
8.52506e-65
)
;
    }
    procBoundary7to5
    {
        type            processor;
        value           nonuniform List<scalar> 
44
(
8.44746e-65
6.04498e-65
7.51748e-65
5.73499e-65
4.5725e-65
7.28501e-65
5.42501e-65
8.68002e-65
9.99748e-65
4.33999e-65
7.28498e-65
7.59499e-65
6.2e-65
7.05251e-65
7.13002e-65
6.89752e-65
5.58002e-65
9.99748e-65
4.33999e-65
4.33999e-65
8.99001e-65
7.98251e-65
1.0075e-64
7.36252e-65
8.21503e-65
8.91254e-65
8.68004e-65
4.805e-65
9.3775e-65
8.99001e-65
7.98251e-65
7.98251e-65
9.68753e-65
7.75004e-65
6.51003e-65
6.74254e-65
6.82004e-65
7.36252e-65
5.65752e-65
7.13002e-65
5.58002e-65
9.68753e-65
7.75004e-65
7.75004e-65
)
;
    }
    procBoundary7to6
    {
        type            processor;
        value           nonuniform List<scalar> 
12
(
6.74249e-65
7.13e-65
4.96002e-65
8.525e-65
7.59502e-65
7.51753e-65
7.90501e-65
7.75003e-65
5.65754e-65
3.79752e-65
7.82755e-65
6.04505e-65
)
;
    }
}


// ************************************************************************* //
