/*--------------------------------*- C++ -*----------------------------------*\
| =========                 |                                                 |
| \\      /  F ield         | OpenFOAM: The Open Source CFD Toolbox           |
|  \\    /   O peration     | Version:  4.x                                   |
|   \\  /    A nd           | Web:      www.OpenFOAM.org                      |
|    \\/     M anipulation  |                                                 |
\*---------------------------------------------------------------------------*/
FoamFile
{
    version     2.0;
    format      ascii;
    class       volVectorField;
    location    "40.5";
    object      impParticleForces;
}
// * * * * * * * * * * * * * * * * * * * * * * * * * * * * * * * * * * * * * //

dimensions      [1 1 -2 0 0 0 0];

internalField   nonuniform List<vector> 
108
(
(0.0024915 2.44494e-05 -4.00045e-05)
(0.0024845 2.86738e-05 -3.31218e-05)
(0.00248538 2.65871e-05 -2.74826e-05)
(0.00247617 2.20461e-05 -2.25325e-05)
(0.00245859 1.66389e-05 -1.95452e-05)
(0.00244329 1.34815e-05 -1.78701e-05)
(0.00240632 9.69995e-06 -2.28436e-05)
(0.00236215 1.03936e-05 -2.95351e-05)
(0.00227383 9.49366e-06 -4.64379e-05)
(0.00248151 1.82377e-05 -4.01225e-05)
(0.0025049 1.97923e-05 -3.35742e-05)
(0.00248159 1.9205e-05 -2.75592e-05)
(0.00247709 1.79984e-05 -2.23306e-05)
(0.00245859 1.72993e-05 -1.90785e-05)
(0.00245505 1.86762e-05 -1.69258e-05)
(0.00239888 2.23773e-05 -2.34283e-05)
(0.00235003 2.8632e-05 -3.3805e-05)
(0.00226339 3.67501e-05 -4.95682e-05)
(0.00247975 1.60709e-05 -4.08303e-05)
(0.00249809 1.59459e-05 -3.45927e-05)
(0.00249161 1.54948e-05 -2.87924e-05)
(0.00250261 1.56268e-05 -2.40266e-05)
(0.0024898 1.78168e-05 -2.12716e-05)
(0.0024988 2.35362e-05 -2.08282e-05)
(0.00243525 3.48201e-05 -2.96857e-05)
(0.00240455 4.53608e-05 -4.55097e-05)
(0.00229807 6.50901e-05 -6.73067e-05)
(0.00241711 1.38033e-05 -4.02052e-05)
(0.00244271 1.28518e-05 -3.45807e-05)
(0.0024644 1.1418e-05 -2.94392e-05)
(0.00248344 1.22355e-05 -2.57902e-05)
(0.00247296 1.50419e-05 -2.41322e-05)
(0.00246474 2.1121e-05 -2.57775e-05)
(0.00240556 3.11146e-05 -3.5946e-05)
(0.00235929 4.5232e-05 -5.6213e-05)
(0.0022951 5.98594e-05 -8.75809e-05)
(0.00249366 2.08901e-05 -3.85954e-05)
(0.00252096 2.41611e-05 -3.19066e-05)
(0.00250333 2.29684e-05 -2.62529e-05)
(0.00251841 1.96037e-05 -2.06346e-05)
(0.00247362 1.57952e-05 -1.68664e-05)
(0.00247381 1.28512e-05 -1.34534e-05)
(0.00241998 1.09082e-05 -1.70269e-05)
(0.00240477 9.5824e-06 -2.00255e-05)
(0.00230326 9.40516e-06 -4.4572e-05)
(0.00249297 1.67584e-05 -3.91437e-05)
(0.00252279 1.80288e-05 -3.23397e-05)
(0.00249527 1.73204e-05 -2.67332e-05)
(0.00250904 1.6397e-05 -2.13365e-05)
(0.00247358 1.59822e-05 -1.77989e-05)
(0.00248008 1.73488e-05 -1.52276e-05)
(0.00242415 2.13557e-05 -2.02803e-05)
(0.00239317 2.81435e-05 -2.85802e-05)
(0.00229435 4.03775e-05 -4.86004e-05)
(0.00252394 1.55027e-05 -4.1534e-05)
(0.0025417 1.50348e-05 -3.52068e-05)
(0.0025201 1.42262e-05 -2.972e-05)
(0.00255838 1.3971e-05 -2.4651e-05)
(0.00252174 1.60014e-05 -2.2439e-05)
(0.00254299 2.05413e-05 -2.12106e-05)
(0.00247051 3.18915e-05 -3.0342e-05)
(0.00244674 4.69484e-05 -4.47208e-05)
(0.00233028 7.27839e-05 -7.45005e-05)
(0.00245851 1.32637e-05 -4.10743e-05)
(0.00248462 1.19314e-05 -3.56143e-05)
(0.00248007 1.05352e-05 -3.09909e-05)
(0.00252281 1.02374e-05 -2.74331e-05)
(0.00250831 1.2607e-05 -2.6308e-05)
(0.00252348 1.75833e-05 -2.62593e-05)
(0.00244147 2.95644e-05 -3.65208e-05)
(0.00242435 4.54875e-05 -5.32809e-05)
(0.00231201 6.45717e-05 -8.97621e-05)
(0.00245267 1.5689e-05 -3.43859e-05)
(0.0024925 1.79627e-05 -2.83119e-05)
(0.00245924 1.75595e-05 -2.28001e-05)
(0.00248157 1.56303e-05 -1.72553e-05)
(0.002435 1.32652e-05 -1.30594e-05)
(0.0024457 1.14304e-05 -8.52369e-06)
(0.00238851 1.02435e-05 -9.75895e-06)
(0.00236034 1.08314e-05 -1.15416e-05)
(0.00227693 9.25157e-06 -2.75343e-05)
(0.00245355 1.37957e-05 -3.52015e-05)
(0.00247705 1.4268e-05 -2.91263e-05)
(0.00245082 1.395e-05 -2.41772e-05)
(0.00244775 1.33352e-05 -1.94235e-05)
(0.00242064 1.34225e-05 -1.58552e-05)
(0.00244774 1.55421e-05 -1.2597e-05)
(0.00239291 1.90759e-05 -1.49227e-05)
(0.00237393 2.6634e-05 -1.87965e-05)
(0.00227456 3.56143e-05 -3.35961e-05)
(0.00246265 1.3126e-05 -3.7492e-05)
(0.00250169 1.22705e-05 -3.25429e-05)
(0.00246938 1.14458e-05 -2.78167e-05)
(0.0024785 1.11894e-05 -2.37419e-05)
(0.00245552 1.31014e-05 -2.17549e-05)
(0.00248636 1.71272e-05 -2.12162e-05)
(0.00243131 2.57627e-05 -2.56895e-05)
(0.00240552 3.89755e-05 -3.41058e-05)
(0.00229375 5.96694e-05 -5.39872e-05)
(0.00243456 1.21008e-05 -3.85153e-05)
(0.0024446 1.05131e-05 -3.3417e-05)
(0.00243313 9.17539e-06 -2.96972e-05)
(0.00245323 8.61391e-06 -2.65446e-05)
(0.00245087 1.06479e-05 -2.60523e-05)
(0.00246891 1.4802e-05 -2.58904e-05)
(0.00240469 2.52823e-05 -3.24827e-05)
(0.00239529 3.93099e-05 -4.29527e-05)
(0.00229076 5.69834e-05 -6.49125e-05)
)
;

boundaryField
{
    inlet
    {
        type            zeroGradient;
    }
    outlet
    {
        type            zeroGradient;
    }
    wall
    {
        type            zeroGradient;
    }
    procBoundary3to1
    {
        type            processor;
        value           nonuniform List<vector> 
27
(
(0.00247213 3.96785e-05 -3.96065e-05)
(0.0025095 5.11995e-05 -3.36451e-05)
(0.00249339 4.31891e-05 -2.84569e-05)
(0.00252554 3.18777e-05 -2.43509e-05)
(0.00248117 2.15972e-05 -2.17561e-05)
(0.00248752 1.41784e-05 -2.00829e-05)
(0.00244302 6.84693e-06 -2.57317e-05)
(0.00243413 3.35536e-06 -2.75822e-05)
(0.00230547 -5.99721e-06 -5.02359e-05)
(0.00248859 3.05062e-05 -3.83767e-05)
(0.00252309 3.77485e-05 -3.18017e-05)
(0.0024991 3.40979e-05 -2.64857e-05)
(0.0025206 2.6918e-05 -2.16627e-05)
(0.00248019 1.92398e-05 -1.81064e-05)
(0.0024996 1.30165e-05 -1.54284e-05)
(0.00245879 7.02807e-06 -1.81045e-05)
(0.00245292 2.22776e-06 -2.02757e-05)
(0.00230913 -4.70579e-06 -4.27075e-05)
(0.00245667 2.03322e-05 -3.47891e-05)
(0.00248569 2.50047e-05 -2.82797e-05)
(0.00245517 2.40926e-05 -2.2905e-05)
(0.00249798 2.08066e-05 -1.7871e-05)
(0.00245108 1.54183e-05 -1.38167e-05)
(0.00246282 1.13883e-05 -9.2744e-06)
(0.00240064 6.26508e-06 -8.9732e-06)
(0.00238149 3.6374e-06 -8.9813e-06)
(0.00227097 -5.47149e-06 -2.24797e-05)
)
;
    }
    procBoundary3to2
    {
        type            processor;
        value           nonuniform List<vector> 
12
(
(0.00246 1.83049e-05 -4.69277e-05)
(0.0024542 1.59346e-05 -4.69823e-05)
(0.00246697 1.58937e-05 -4.75394e-05)
(0.00242442 1.46726e-05 -4.67718e-05)
(0.00250221 1.57234e-05 -4.62182e-05)
(0.00248115 1.48251e-05 -4.61939e-05)
(0.00249341 1.55432e-05 -4.75059e-05)
(0.00243334 1.4451e-05 -4.65081e-05)
(0.00245479 1.19855e-05 -4.1187e-05)
(0.00245008 1.26946e-05 -4.15715e-05)
(0.00247707 1.41821e-05 -4.36758e-05)
(0.00243434 1.38128e-05 -4.36547e-05)
)
;
    }
    procBoundary3to7
    {
        type            processor;
        value           nonuniform List<vector> 
36
(
(0.00240799 1.10952e-05 -2.83139e-05)
(0.00243778 1.27772e-05 -2.31039e-05)
(0.00240246 1.24839e-05 -1.79363e-05)
(0.00242519 1.1509e-05 -1.27145e-05)
(0.00240691 9.92524e-06 -7.45901e-06)
(0.00241732 9.22231e-06 -1.91044e-06)
(0.00234035 7.51709e-06 3.26881e-07)
(0.00230551 6.9232e-06 2.50675e-06)
(0.00223323 8.31236e-06 -3.33239e-06)
(0.00240678 1.06884e-05 -2.97349e-05)
(0.00245452 1.08424e-05 -2.5101e-05)
(0.00240856 1.01264e-05 -2.05126e-05)
(0.00242232 9.53871e-06 -1.61752e-05)
(0.00239623 9.48467e-06 -1.2301e-05)
(0.00240688 1.02589e-05 -8.28697e-06)
(0.00234968 1.4251e-05 -7.54644e-06)
(0.00232351 1.75833e-05 -6.06219e-06)
(0.00224236 2.96553e-05 -1.19869e-05)
(0.00241355 1.07978e-05 -3.2479e-05)
(0.00245777 9.5816e-06 -2.86558e-05)
(0.00242131 8.49784e-06 -2.49882e-05)
(0.0024391 7.75307e-06 -2.1896e-05)
(0.00241765 9.0249e-06 -1.99239e-05)
(0.00244556 9.71469e-06 -1.8213e-05)
(0.00237851 1.73331e-05 -1.89019e-05)
(0.00234906 2.29986e-05 -1.85605e-05)
(0.00224472 4.0066e-05 -2.8458e-05)
(0.00239964 1.00159e-05 -3.4162e-05)
(0.00241471 8.18561e-06 -3.03962e-05)
(0.00240095 6.71159e-06 -2.75711e-05)
(0.00239894 6.08719e-06 -2.44796e-05)
(0.00239925 6.74724e-06 -2.39038e-05)
(0.0024064 9.26345e-06 -2.20243e-05)
(0.00235052 1.60678e-05 -2.42841e-05)
(0.00232697 2.44584e-05 -2.42217e-05)
(0.00222423 3.42665e-05 -3.44026e-05)
)
;
    }
}


// ************************************************************************* //
