/*--------------------------------*- C++ -*----------------------------------*\
| =========                 |                                                 |
| \\      /  F ield         | OpenFOAM: The Open Source CFD Toolbox           |
|  \\    /   O peration     | Version:  4.x                                   |
|   \\  /    A nd           | Web:      www.OpenFOAM.org                      |
|    \\/     M anipulation  |                                                 |
\*---------------------------------------------------------------------------*/
FoamFile
{
    version     2.0;
    format      ascii;
    class       volScalarField;
    location    "40.5";
    object      KslNext;
}
// * * * * * * * * * * * * * * * * * * * * * * * * * * * * * * * * * * * * * //

dimensions      [1 -3 -1 0 0 0 0];

internalField   nonuniform List<scalar> 
108
(
4921.12
2754.34
4777.82
2589.43
4911.39
2396.32
5695.4
2115.27
6456.56
6334
3101.61
6953.56
3076.05
8836.24
3265.84
19419
4087.76
7.30651e+09
4933.63
2788.03
4864.32
2636.37
5061.55
2431.44
5683.51
2032.3
5540.09
3794.29
2500.43
3775.11
2421.54
3886.62
2252.7
4255.63
1888.81
5329.8
17522
3446.45
21391.4
3310.23
25963.6
3136.01
24953.3
2892.78
9425.92
36260.8
3707.4
103424
3703.36
990288
3827.22
193223
4298.55
18228.7
11745.2
3335.27
11676.9
3124.33
10725.7
2783.91
8494.58
2281.19
4195.69
5414.33
2901.79
5492.16
2809.85
5926.52
2596.75
6838.01
2072.87
5027.16
40169.8
3660.72
57279
3631.89
49839.5
3630.07
28901.1
3794.62
9067.44
1e+10
3916.49
1e+10
3905.9
1e+10
3936.93
1e+10
4366.87
30996.5
46631.7
3662.56
100139
3537.43
44908.4
3427.44
14970.2
3383.98
5431.31
7091.43
3139.69
7452.7
3050.79
8402.21
2892.4
9397.31
2381.53
9293.38
)
;

boundaryField
{
    inlet
    {
        type            zeroGradient;
    }
    outlet
    {
        type            zeroGradient;
    }
    wall
    {
        type            zeroGradient;
    }
    procBoundary3to1
    {
        type            processor;
        value           uniform 0;
    }
    procBoundary3to2
    {
        type            processor;
        value           uniform 0;
    }
    procBoundary3to7
    {
        type            processor;
        value           uniform 0;
    }
}


// ************************************************************************* //
