/*--------------------------------*- C++ -*----------------------------------*\
| =========                 |                                                 |
| \\      /  F ield         | OpenFOAM: The Open Source CFD Toolbox           |
|  \\    /   O peration     | Version:  4.x                                   |
|   \\  /    A nd           | Web:      www.OpenFOAM.org                      |
|    \\/     M anipulation  |                                                 |
\*---------------------------------------------------------------------------*/
FoamFile
{
    version     2.0;
    format      ascii;
    class       volScalarField;
    location    "40.5";
    object      particleRelTemp;
}
// * * * * * * * * * * * * * * * * * * * * * * * * * * * * * * * * * * * * * //

dimensions      [0 0 0 0 0 0 0];

internalField   nonuniform List<scalar> 
108
(
-1.91638e-11
-5.77171e-12
1.24096e-11
2.8136e-11
4.03258e-11
6.32022e-11
8.02824e-11
1.03329e-10
1.24837e-10
-2.66296e-11
-1.10233e-11
4.65379e-12
2.10353e-11
3.67461e-11
4.76543e-11
7.75421e-11
9.44089e-11
1.22369e-10
-4.03243e-11
-2.94709e-11
-1.41642e-11
-2.51155e-12
1.76924e-11
2.61006e-11
4.63509e-11
5.75271e-11
7.80204e-11
-5.6799e-11
-4.61161e-11
-4.55802e-11
-2.3181e-11
-6.60377e-12
-7.40901e-13
2.77194e-12
1.83782e-11
2.62781e-11
-7.06037e-13
2.4203e-11
3.33979e-11
5.67692e-11
7.62199e-11
9.01031e-11
1.2088e-10
1.44455e-10
1.56745e-10
-9.42906e-12
9.94916e-12
2.97243e-11
4.65521e-11
6.11744e-11
9.5519e-11
1.114e-10
1.29991e-10
1.48705e-10
-2.75943e-11
-6.47628e-12
8.69001e-12
2.22582e-11
4.25384e-11
5.8712e-11
8.15425e-11
9.68622e-11
1.1146e-10
-3.89354e-11
-2.85735e-11
-1.89033e-11
-8.0364e-13
1.77152e-11
2.45338e-11
4.85052e-11
5.91557e-11
7.13135e-11
2.19551e-11
3.86801e-11
6.41123e-11
7.97164e-11
1.0421e-10
1.32784e-10
1.55538e-10
1.89041e-10
1.98421e-10
1.01174e-11
3.32182e-11
5.58246e-11
7.92109e-11
1.04232e-10
1.26289e-10
1.51188e-10
1.68836e-10
1.79442e-10
-1.64661e-12
9.31272e-12
3.77274e-11
5.73123e-11
8.1387e-11
1.01895e-10
1.12786e-10
1.36677e-10
1.46251e-10
-1.85444e-11
-1.20837e-11
8.66492e-12
3.00986e-11
5.08585e-11
5.91752e-11
8.17442e-11
1.00104e-10
1.24038e-10
)
;

boundaryField
{
    inlet
    {
        type            calculated;
        value           nonuniform 0();
    }
    outlet
    {
        type            calculated;
        value           nonuniform List<scalar> 
12
(
1.24837e-10
1.22369e-10
7.80204e-11
2.62781e-11
1.56745e-10
1.48705e-10
1.1146e-10
7.13135e-11
1.98421e-10
1.79442e-10
1.46251e-10
1.24038e-10
)
;
    }
    wall
    {
        type            calculated;
        value           nonuniform List<scalar> 
63
(
-1.91638e-11
-2.66296e-11
-4.03243e-11
-5.6799e-11
-5.77171e-12
-1.10233e-11
-2.94709e-11
-4.61161e-11
1.24096e-11
4.65379e-12
-1.41642e-11
-4.55802e-11
2.8136e-11
2.10353e-11
-2.51155e-12
-2.3181e-11
4.03258e-11
3.67461e-11
1.76924e-11
-6.60377e-12
6.32022e-11
4.76543e-11
2.61006e-11
-7.40901e-13
8.02824e-11
7.75421e-11
4.63509e-11
2.77194e-12
1.03329e-10
9.44089e-11
5.75271e-11
1.83782e-11
1.24837e-10
1.22369e-10
7.80204e-11
2.62781e-11
-5.6799e-11
-3.89354e-11
-1.85444e-11
-4.61161e-11
-2.85735e-11
-1.20837e-11
-4.55802e-11
-1.89033e-11
8.66492e-12
-2.3181e-11
-8.0364e-13
3.00986e-11
-6.60377e-12
1.77152e-11
5.08585e-11
-7.40901e-13
2.45338e-11
5.91752e-11
2.77194e-12
4.85052e-11
8.17442e-11
1.83782e-11
5.91557e-11
1.00104e-10
2.62781e-11
7.13135e-11
1.24038e-10
)
;
    }
    procBoundary3to1
    {
        type            processor;
        value           nonuniform List<scalar> 
27
(
-1.52791e-11
-8.88088e-12
2.72318e-12
2.40425e-11
3.78158e-11
4.85454e-11
6.95713e-11
7.82562e-11
9.83933e-11
1.65065e-12
7.82477e-12
2.62208e-11
4.19886e-11
7.00324e-11
8.80788e-11
1.04255e-10
1.34638e-10
1.58463e-10
9.46173e-12
3.77159e-11
5.03715e-11
7.83538e-11
1.0274e-10
1.30178e-10
1.5661e-10
1.79874e-10
1.91839e-10
)
;
    }
    procBoundary3to2
    {
        type            processor;
        value           nonuniform List<scalar> 
12
(
-3.61833e-11
-4.0508e-11
-5.11706e-11
-6.398e-11
-1.79541e-11
-2.39256e-11
-3.83093e-11
-5.35555e-11
-5.8755e-13
-1.05257e-11
-1.8678e-11
-3.62814e-11
)
;
    }
    procBoundary3to7
    {
        type            processor;
        value           nonuniform List<scalar> 
36
(
2.98821e-11
5.25933e-11
7.43953e-11
1.01781e-10
1.24872e-10
1.55175e-10
1.80984e-10
2.06673e-10
2.19144e-10
2.54411e-11
4.74497e-11
7.45831e-11
9.37044e-11
1.19514e-10
1.38608e-10
1.62519e-10
1.86817e-10
2.04021e-10
1.24363e-11
2.81762e-11
5.18356e-11
6.93481e-11
9.21157e-11
1.0581e-10
1.30152e-10
1.54811e-10
1.71237e-10
-5.17473e-12
8.43375e-12
2.41147e-11
4.69002e-11
6.08847e-11
7.74661e-11
9.83885e-11
1.17848e-10
1.3636e-10
)
;
    }
}


// ************************************************************************* //
