/*--------------------------------*- C++ -*----------------------------------*\
| =========                 |                                                 |
| \\      /  F ield         | OpenFOAM: The Open Source CFD Toolbox           |
|  \\    /   O peration     | Version:  4.x                                   |
|   \\  /    A nd           | Web:      www.OpenFOAM.org                      |
|    \\/     M anipulation  |                                                 |
\*---------------------------------------------------------------------------*/
FoamFile
{
    version     2.0;
    format      ascii;
    class       volVectorField;
    location    "40.5";
    object      U;
}
// * * * * * * * * * * * * * * * * * * * * * * * * * * * * * * * * * * * * * //

dimensions      [0 1 -1 0 0 0 0];

internalField   nonuniform List<vector> 
108
(
(0.0223278 -0.000275818 -0.000279709)
(0.0397817 -0.000235364 -0.000538483)
(0.0229387 -0.000334081 -0.000315138)
(0.0421708 -0.000557379 4.4685e-05)
(0.0220181 -0.00152057 -0.000543048)
(0.0449269 -0.00122795 0.00142924)
(0.0180199 -0.00435679 -0.00187216)
(0.0491216 -7.31162e-05 0.00357436)
(0.00874404 -0.0115552 -0.00559729)
(0.017274 -0.000371932 -0.000264847)
(0.0356178 -0.000185577 -0.000346121)
(0.0157321 -0.000318723 -0.000375192)
(0.0355098 -0.00013566 0.000616096)
(0.0122633 -0.000199127 -0.000379541)
(0.0330682 5.06095e-05 0.00237305)
(0.00543886 0.000143238 -0.000281197)
(0.0250347 -0.000400848 0.00401151)
(-1.17219e-07 1.12544e-08 -7.66918e-09)
(0.0221602 0.000623856 -7.34199e-05)
(0.039511 0.000757323 -0.000136332)
(0.0225726 0.000853089 0.000316874)
(0.0418549 0.000741035 0.000569652)
(0.0215547 0.00227292 0.000934589)
(0.0452788 0.000787057 0.00189733)
(0.0179889 0.0056767 0.00116202)
(0.0520704 -0.00204863 0.00298781)
(0.00959316 0.0155579 -0.00105369)
(0.0280917 -0.000555359 -0.000178882)
(0.0430839 -0.000458132 -0.000226642)
(0.0287654 -0.00120932 9.22261e-05)
(0.045218 -0.00101557 0.000270993)
(0.0280103 -0.00164343 0.000419099)
(0.0482258 -0.00120675 0.00118231)
(0.0248332 -0.00199372 0.000998846)
(0.0550202 -0.00133614 0.00285194)
(0.0142351 2.99249e-05 -0.0125996)
(0.00626209 8.32836e-05 -0.000426857)
(0.0322595 0.00020005 -0.0003213)
(0.00513008 0.00011533 -0.000556269)
(0.0335472 2.13607e-05 0.000639672)
(0.00410574 7.22412e-05 -0.000890302)
(0.0347036 -0.000229682 0.00242434)
(0.00380133 -1.45981e-05 -0.00196034)
(0.0360701 -0.00104125 0.00647849)
(0.00507184 -0.000624482 -0.00948977)
(0.00301214 -5.13486e-05 -0.000344385)
(0.0300096 0.000305688 0.000239767)
(0.00104487 1.84361e-05 -0.000199475)
(0.0298688 0.000215738 0.000776083)
(0.000104833 9.79299e-06 -3.19299e-05)
(0.0285292 -0.000286805 0.00165256)
(0.000498131 0.000156782 -0.000182661)
(0.0242299 -0.00283838 0.00279814)
(0.00401632 0.00360389 -0.00130888)
(0.00943442 0.000399542 -0.000817928)
(0.0335973 0.00071241 -0.000648435)
(0.00941478 0.000745118 -0.00118685)
(0.0361117 2.83e-05 0.000386771)
(0.00997756 0.00188772 -0.00209876)
(0.0402162 -0.00118141 0.00206183)
(0.0108166 0.0052803 -0.00443553)
(0.0467983 -0.00458205 0.00527589)
(0.00751799 0.0188581 -0.0137464)
(0.0199921 -0.00051168 -0.00108026)
(0.0377538 -0.000410799 -0.000796885)
(0.0198305 -0.00116695 -0.00142333)
(0.0395806 -0.00105621 -0.000491882)
(0.0184624 -0.00172633 -0.00213949)
(0.0428308 -0.00148326 0.000482034)
(0.0153885 -0.00170954 -0.00287901)
(0.0514714 -0.00095436 0.00350251)
(0.00911077 0.00298772 -0.0178986)
(0.00262177 -0.000226788 -0.000572352)
(0.0300293 -7.35758e-05 -9.89456e-05)
(0.00179547 -0.000239384 -0.000552288)
(0.0301289 -0.000311062 0.000437401)
(0.00188652 -0.000487781 -0.000919908)
(0.0296771 -0.000514885 0.00135171)
(0.00283966 -0.00110068 -0.00200239)
(0.0271026 0.000801979 0.0041612)
(0.00726941 -0.00343282 -0.00761762)
(1.21046e-08 -2.20729e-09 4.39211e-10)
(0.0278899 -0.000175208 0.000452362)
(1.2406e-08 -2.38315e-09 4.54276e-10)
(0.0276268 0.000117053 0.000771799)
(1.15362e-08 -2.13001e-09 -2.66066e-09)
(0.0273323 0.000619603 0.00209562)
(1.0892e-08 9.95654e-11 -6.40615e-09)
(0.0237799 0.000301185 0.00304446)
(0.00318336 0.000361823 -0.000460775)
(0.00231479 0.0001969 -0.000167745)
(0.0301247 -9.47788e-05 -0.00013602)
(0.00106921 0.000149988 -0.000130704)
(0.0308972 -0.00022891 0.000379378)
(0.00226627 0.000651895 -0.000504103)
(0.0319679 -0.000263369 0.00124886)
(0.00593035 0.00331887 -0.00226405)
(0.0311119 -0.00216377 0.00325081)
(0.0102586 0.0137945 -0.00719467)
(0.0151153 -3.02534e-06 -0.00089874)
(0.0343368 -6.30313e-05 -0.000477115)
(0.0143526 -0.000232059 -0.00112768)
(0.0354505 -0.00098735 -8.62204e-05)
(0.0127423 -5.68216e-05 -0.00176679)
(0.0376124 -0.0014606 0.000616291)
(0.0108733 0.000907219 -0.0028861)
(0.0442589 -0.00176534 0.00255472)
(0.00708658 0.00576 -0.00591035)
)
;

boundaryField
{
    inlet
    {
        type            fixedValue;
        value           nonuniform 0();
    }
    outlet
    {
        type            zeroGradient;
    }
    wall
    {
        type            fixedValue;
        value           uniform (0 0 0);
    }
    procBoundary3to1
    {
        type            processor;
        value           nonuniform List<vector> 
27
(
(0.0202815 0.000183979 -0.000811978)
(0.0375146 0.000277274 -0.000875463)
(0.0200444 0.000501617 -0.00112623)
(0.0391866 0.00060947 -0.000187801)
(0.0189599 0.00022397 -0.00216752)
(0.0419374 0.000730354 0.00109262)
(0.0170523 -0.00101677 -0.00463516)
(0.04902 0.00136235 0.00473086)
(0.0103446 -0.00422663 -0.011573)
(0.00276142 0.000138952 -0.000124977)
(0.0299736 0.000286007 0.000238826)
(0.000443658 4.1568e-05 -3.40183e-05)
(0.0300443 0.000455845 0.000699101)
(1.34025e-08 -2.1422e-09 -2.40527e-09)
(0.0289397 0.000312146 0.00171577)
(0.0016457 8.99312e-05 -0.000607416)
(0.0262333 0.000167304 0.00417981)
(0.00857752 -0.00033719 -0.00973421)
(0.00318731 -0.000152679 -0.000670486)
(0.0297516 -2.69547e-05 0.00010053)
(0.00257474 -0.000206271 -0.000828676)
(0.0302288 0.000456429 1.79433e-05)
(0.00272027 -0.000501358 -0.00125465)
(0.0301546 0.000854807 0.000694679)
(0.00431796 -0.00183004 -0.00260745)
(0.0282538 0.0028571 0.00287073)
(0.00872372 -0.00739327 -0.0049317)
)
;
    }
    procBoundary3to2
    {
        type            processor;
        value           nonuniform List<vector> 
12
(
(0.0376929 -0.000199994 -0.000826653)
(0.0346994 -0.000145375 -0.000786534)
(0.0373789 0.000737385 -0.000543173)
(0.0407053 -2.67245e-05 -0.000506527)
(0.0310581 0.000117786 -0.000661722)
(0.0296113 0.000144593 -0.000504871)
(0.0319822 0.000931433 -0.00111428)
(0.0361136 8.52379e-05 -0.00114219)
(0.0295611 -0.000319293 -0.000551803)
(0.0280352 -0.000352356 -8.5624e-05)
(0.0294313 0.000339679 -0.000255706)
(0.0333936 0.000313474 -0.0006522)
)
;
    }
    procBoundary3to7
    {
        type            processor;
        value           nonuniform List<vector> 
36
(
(1.35034e-08 1.11864e-09 -9.62703e-10)
(0.0285217 0.000306362 -3.43956e-05)
(2.48519e-08 4.02867e-09 -4.67665e-09)
(0.0284113 0.000468067 3.04836e-05)
(1.26678e-08 1.49806e-09 -4.03155e-09)
(0.0280189 0.000826744 0.00075688)
(1.04847e-08 2.73163e-09 -7.33544e-09)
(0.0237956 -0.00118597 0.00343742)
(0.00349181 0.00124587 -0.00141161)
(1.32934e-08 4.77195e-10 -3.36098e-11)
(0.0282076 0.000172994 -8.43677e-05)
(1.3152e-08 4.35922e-10 1.07635e-10)
(0.0275331 6.81385e-05 0.000286494)
(0.000844671 0.000281327 -9.26919e-05)
(0.0267334 -0.00027413 0.000942694)
(0.00474848 0.00257186 -0.000319008)
(0.0242052 -0.00248678 0.00169694)
(0.0101276 0.0100964 0.00130775)
(0.00726814 0.000683667 -0.000659453)
(0.0316864 0.000334612 -0.000185485)
(0.00715301 0.000977288 -0.00106412)
(0.0330586 -0.000167834 -0.000583575)
(0.00739034 0.00182476 -0.00193506)
(0.0349985 -0.00187451 -0.000572643)
(0.00749173 0.00360843 -0.00354055)
(0.03716 -0.00506308 0.0018081)
(0.00546804 0.00780973 -0.00485188)
(0.0155852 -0.000404171 -0.00118051)
(0.0347219 -0.000306745 -0.000945003)
(0.0150109 -0.000646591 -0.00163331)
(0.0356777 -0.000664662 -0.000855237)
(0.0136223 -0.000847304 -0.00254395)
(0.0369655 -0.00072444 -0.000263787)
(0.0106818 -0.000812887 -0.00429417)
(0.0384948 -5.77602e-05 0.00234257)
(0.00551234 -0.000465327 -0.0074507)
)
;
    }
}


// ************************************************************************* //
