/*--------------------------------*- C++ -*----------------------------------*\
| =========                 |                                                 |
| \\      /  F ield         | OpenFOAM: The Open Source CFD Toolbox           |
|  \\    /   O peration     | Version:  4.x                                   |
|   \\  /    A nd           | Web:      www.OpenFOAM.org                      |
|    \\/     M anipulation  |                                                 |
\*---------------------------------------------------------------------------*/
FoamFile
{
    version     2.0;
    format      ascii;
    class       volScalarField;
    location    "8";
    object      Cs;
}
// * * * * * * * * * * * * * * * * * * * * * * * * * * * * * * * * * * * * * //

dimensions      [1 -3 0 0 0 0 0];

internalField   nonuniform List<scalar> 
132
(
334.997
334.987
334.965
334.926
334.869
334.794
334.706
334.615
334.537
334.998
334.988
334.963
334.918
334.849
334.758
334.659
334.572
334.533
334.998
334.987
334.958
334.903
334.818
334.713
334.617
334.568
334.595
334.998
334.987
334.956
334.999
334.992
334.975
334.941
334.887
334.819
334.742
334.671
334.617
334.999
334.992
334.97
334.925
334.858
334.783
334.72
334.698
334.722
334.999
334.99
334.964
334.91
334.833
334.764
334.723
334.745
334.807
334.999
334.99
334.961
334.9
334.817
334.999
334.995
334.983
334.959
334.919
334.87
334.812
334.761
334.718
334.999
334.994
334.979
334.946
334.898
334.851
334.816
334.818
334.851
334.999
334.994
334.975
334.936
334.884
334.843
334.825
334.852
334.902
334.999
334.993
334.974
334.932
334.877
334.836
334.817
335
334.997
334.99
334.977
334.955
334.927
334.891
334.858
334.826
335
334.996
334.987
334.967
334.939
334.912
334.893
334.897
334.92
335
334.996
334.984
334.96
334.929
334.904
334.894
334.911
334.945
334.999
334.995
334.982
334.955
334.92
334.893
334.879
334.89
334.917
)
;

boundaryField
{
    inlet
    {
        type            calculated;
        value           uniform 335;
    }
    outlet
    {
        type            calculated;
        value           nonuniform 0();
    }
    wall
    {
        type            calculated;
        value           nonuniform List<scalar> 
66
(
334.997
334.998
334.998
334.998
334.987
334.988
334.987
334.987
334.965
334.963
334.958
334.956
334.926
334.918
334.903
334.869
334.849
334.818
334.794
334.758
334.713
334.706
334.659
334.617
334.615
334.572
334.568
334.537
334.533
334.595
334.997
334.999
334.999
335
334.987
334.992
334.995
334.997
334.965
334.975
334.983
334.99
334.926
334.941
334.959
334.977
334.869
334.887
334.919
334.955
334.794
334.819
334.87
334.927
334.706
334.742
334.812
334.891
334.615
334.671
334.761
334.858
334.537
334.617
334.718
334.826
)
;
    }
    procBoundary0to1
    {
        type            processor;
        value           nonuniform List<scalar> 
12
(
334.488
334.558
334.698
334.587
334.803
334.905
334.697
334.916
334.97
334.807
334.964
334.992
)
;
    }
    procBoundary0to2
    {
        type            processor;
        value           nonuniform List<scalar> 
44
(
334.897
334.806
334.696
334.607
334.579
334.631
334.998
334.987
334.897
334.958
334.897
334.806
334.746
334.708
334.733
334.795
334.999
334.991
334.967
334.915
334.746
334.837
334.746
334.708
334.839
334.881
334.999
334.994
334.978
334.943
334.894
334.851
334.839
334.827
334.839
334.881
335
334.996
334.986
334.966
334.938
334.915
334.903
334.915
)
;
    }
    procBoundary0to4
    {
        type            processor;
        value           nonuniform List<scalar> 
36
(
335
334.998
334.993
334.983
334.967
334.948
334.927
334.908
334.891
335
334.997
334.989
334.972
334.949
334.93
334.924
334.939
334.975
335
334.997
334.988
334.969
334.944
334.926
334.922
334.939
334.972
335
334.997
334.987
334.968
334.942
334.922
334.916
334.932
334.964
)
;
    }
    procBoundary0to6
    {
        type            processor;
        value           uniform 334.942;
    }
    procBoundary0to7
    {
        type            processor;
        value           uniform 334.956;
    }
}


// ************************************************************************* //
