/*--------------------------------*- C++ -*----------------------------------*\
| =========                 |                                                 |
| \\      /  F ield         | OpenFOAM: The Open Source CFD Toolbox           |
|  \\    /   O peration     | Version:  4.x                                   |
|   \\  /    A nd           | Web:      www.OpenFOAM.org                      |
|    \\/     M anipulation  |                                                 |
\*---------------------------------------------------------------------------*/
FoamFile
{
    version     2.0;
    format      ascii;
    class       volVectorField;
    location    "8";
    object      GField;
}
// * * * * * * * * * * * * * * * * * * * * * * * * * * * * * * * * * * * * * //

dimensions      [1 -2 -1 0 0 0 0];

internalField   nonuniform List<vector> 
132
(
(98.7524 -2.55937 -5.68014)
(57.7055 -1.64658 -4.4569)
(113.787 -3.20572 -6.71643)
(81.9382 -1.89377 -4.47029)
(128.652 -3.29123 -4.01279)
(98.2289 -2.4592 -1.00621)
(137.857 -4.57958 2.08614)
(102.589 -4.7657 4.61706)
(139.894 -7.08617 8.8347)
(98.5521 -3.21446 -6.2207)
(53.8634 -2.05655 -4.47464)
(109.661 -3.69881 -7.25443)
(72.5669 -2.05509 -4.51647)
(120.767 -3.87398 -4.30195)
(81.5205 -2.80755 -0.616174)
(123.146 -6.28569 2.58414)
(74.0811 -5.70822 4.04171)
(116.035 -9.25956 6.53589)
(98.6331 -2.69986 -6.58757)
(51.9394 -1.78433 -4.25965)
(107.501 -3.39991 -7.03453)
(66.5397 -2.24774 -3.79749)
(114.467 -3.49345 -2.63883)
(67.152 -2.39495 0.57278)
(111.86 -4.26484 4.53191)
(48.819 -2.48004 3.60288)
(101.903 -3.65069 5.24053)
(98.4742 -1.12919 -7.07084)
(50.6924 -0.19575 -4.37118)
(107.086 -0.273898 -7.3609)
(96.0491 -3.01237 -11.1632)
(47.4565 -1.64426 -7.60202)
(101.163 -3.77359 -11.7933)
(56.6565 -2.0224 -6.87837)
(106.095 -4.20424 -6.48033)
(63.7941 -2.36486 -2.10278)
(111.216 -4.51418 2.87536)
(69.7152 -3.33088 5.23713)
(117.697 -4.86869 12.8524)
(95.8469 -3.94361 -11.9708)
(41.2513 -1.82056 -7.24487)
(97.0119 -4.33762 -12.371)
(41.6381 -1.79353 -5.5875)
(95.8115 -4.14217 -5.68864)
(36.8278 -1.74916 -0.784343)
(95.1087 -4.44594 3.34163)
(31.7311 -1.9227 2.48372)
(96.7035 -4.64918 6.61854)
(94.6074 -3.32928 -12.1173)
(38.3483 -1.45288 -6.74155)
(94.3574 -3.56924 -12.0328)
(34.8869 -1.48554 -4.57292)
(91.7379 -2.7441 -3.13057)
(27.6272 -1.08824 0.179098)
(91.3326 -1.55419 5.83794)
(22.0825 -0.696336 1.70917)
(93.6249 -0.50576 4.77139)
(93.88 -0.692834 -12.5202)
(36.8588 -0.307124 -7.02187)
(92.819 -0.492597 -12.1028)
(30.881 -0.0716699 -4.06697)
(88.6392 0.129888 -2.49263)
(93.8407 -3.36403 -8.67826)
(43.1138 -1.8863 -5.8409)
(95.4335 -4.23942 -8.65249)
(46.6655 -2.05725 -4.89047)
(97.3052 -4.38628 -3.95118)
(50.6532 -2.04924 -1.04332)
(100.758 -4.17968 3.61131)
(56.7196 -2.16893 4.6856)
(107.531 -3.37552 11.9067)
(93.3968 -4.30235 -9.33814)
(35.9348 -2.00101 -5.4319)
(90.8646 -4.91338 -8.4976)
(29.4688 -1.75256 -3.00878)
(87.8215 -3.7921 -1.7975)
(22.3104 -1.02527 -0.0397682)
(86.9682 -2.76193 3.52847)
(18.2965 -0.84173 1.28614)
(88.9822 -2.34805 3.58449)
(91.8709 -3.42103 -8.9567)
(32.8532 -1.67859 -5.06092)
(87.6763 -3.59065 -7.95638)
(21.0603 -1.07071 -2.04069)
(83.9342 -2.01835 -0.421763)
(13.5226 -0.573912 0.339555)
(84.2905 -0.973352 4.23172)
(13.0963 -0.612312 0.748931)
(86.6253 -0.388911 2.10385)
(91.4721 -0.156467 -9.07273)
(30.7461 0.0764322 -5.11074)
(86.1566 0.139525 -7.75578)
(17.7545 0.0765986 -1.61759)
(82.5929 0.175788 0.547557)
(10.7843 -0.0781383 0.291175)
(82.9042 -0.0356408 4.44223)
(93.2829 -3.71827 -6.71962)
(44.0171 -2.16407 -4.91863)
(95.2855 -4.35689 -6.93344)
(48.003 -2.0171 -4.24594)
(97.488 -3.83557 -3.37552)
(51.9535 -1.93796 -1.48469)
(101.196 -3.73209 2.26213)
(58.7136 -1.40787 2.72149)
(107.78 -2.50485 9.07883)
(92.4549 -4.37435 -7.33987)
(35.5548 -2.19299 -4.39102)
(89.5139 -4.75583 -7.03187)
(29.2757 -1.56311 -2.67234)
(87.7002 -3.47519 -1.68833)
(25.2435 -0.888242 -0.271819)
(87.6106 -2.28672 2.94114)
(22.9357 -0.333256 0.327345)
(89.5506 -1.08583 2.6435)
(91.5058 -3.22384 -6.91528)
(33.8742 -1.78707 -4.0476)
(87.1933 -3.51547 -5.60102)
(23.8599 -1.11567 -1.78438)
(85.1702 -1.89335 -0.299141)
(18.2358 -0.61923 -0.0330158)
(85.6016 -0.32548 2.27032)
(16.8084 -0.48817 -0.087944)
(87.5102 0.165406 1.75705)
(91.5436 -1.00761 -6.55243)
(32.2357 -0.211894 -3.99875)
(86.0228 -0.354461 -5.44609)
(20.9791 0.0968553 -1.75995)
(84.2823 0.216149 -0.126896)
(17.3282 0.0433014 -0.217312)
(84.4778 0.0762573 3.21914)
(18.4489 -0.012168 -0.0973376)
(85.6517 0.26631 2.3743)
)
;

boundaryField
{
    inlet
    {
        type            calculated;
        value           uniform (67 0 0);
    }
    outlet
    {
        type            calculated;
        value           nonuniform 0();
    }
    wall
    {
        type            calculated;
        value           uniform (0 0 0);
    }
    procBoundary0to1
    {
        type            processor;
        value           nonuniform List<vector> 
12
(
(95.6801 -6.32787 9.45604)
(56.2413 -5.73244 3.80232)
(26.5755 -1.62515 0.879702)
(74.3249 -3.475 11.2769)
(28.7286 -1.68066 0.924634)
(18.1884 -0.430445 -1.23838)
(64.3379 -1.64612 10.6351)
(17.6495 -0.896288 0.11476)
(11.7814 -0.647849 -0.507997)
(66.5775 -1.00862 8.18772)
(21.7098 -0.158581 -0.706425)
(15.6077 -1.03624 -1.17435)
)
;
    }
    procBoundary0to2
    {
        type            processor;
        value           nonuniform List<vector> 
44
(
(63.2331 -0.100988 -3.77515)
(111.409 0.244232 -2.40619)
(60.544 0.235562 0.880374)
(106.593 0.811799 5.49131)
(40.4243 0.757197 3.06127)
(99.3678 1.87018 5.43913)
(96.1469 1.32103 -5.90213)
(50.2879 1.12948 -4.27594)
(63.2331 -0.100988 -3.77515)
(105.462 2.49583 -7.24066)
(63.2331 -0.100988 -3.77515)
(111.409 0.244232 -2.40619)
(22.0738 0.0315597 0.243682)
(88.1489 0.249937 5.92827)
(19.416 0.126828 1.25739)
(90.8101 0.827007 4.37409)
(94.0703 1.82283 -11.1146)
(39.0484 0.845495 -6.62631)
(93.4849 2.30543 -11.6921)
(34.9844 1.42471 -4.49445)
(22.0738 0.0315597 0.243682)
(91.0407 2.36047 -3.36452)
(22.0738 0.0315597 0.243682)
(88.1489 0.249937 5.92827)
(10.4923 0.0237508 0.600774)
(84.4043 0.386078 2.13339)
(92.0188 2.51416 -9.26428)
(34.8096 1.21627 -5.28114)
(88.3062 2.45008 -8.15805)
(24.9626 1.04442 -2.39951)
(85.3575 1.80669 -0.923285)
(18.5762 0.655593 0.34749)
(10.4923 0.0237508 0.600774)
(85.5266 0.739284 4.16035)
(10.4923 0.0237508 0.600774)
(84.4043 0.386078 2.13339)
(91.1054 1.78419 -7.77667)
(32.4678 1.14179 -3.90013)
(86.1605 2.09919 -6.21405)
(22.4244 0.791493 -2.02933)
(84.3849 1.02822 -1.07951)
(17.9481 0.57011 -0.0923529)
(85.3306 0.255721 2.23437)
(17.4957 0.473216 -0.146179)
)
;
    }
    procBoundary0to4
    {
        type            processor;
        value           nonuniform List<vector> 
36
(
(92.6815 -4.1131 -4.13834)
(43.2842 -2.38496 -3.07915)
(93.0903 -5.18342 -4.25856)
(45.259 -2.47524 -2.80425)
(93.9552 -4.40715 -1.65161)
(47.2179 -1.78454 -0.923498)
(95.2332 -2.95671 1.39561)
(49.6663 -1.40253 1.11128)
(98.2892 -1.73911 5.77718)
(91.225 -4.59517 -3.85999)
(33.1252 -2.09235 -2.32091)
(86.4116 -4.5634 -3.51351)
(20.4659 -1.21073 -1.26264)
(82.6543 -2.8884 -0.552942)
(11.5632 -0.473944 -0.153086)
(81.5206 -1.93675 1.20522)
(6.90299 -0.28916 -0.143272)
(81.4604 -0.387206 0.542327)
(90.6342 -2.69241 -3.63032)
(32.03 -1.63364 -2.13523)
(84.7954 -2.45458 -2.67077)
(19.8274 -1.05988 -0.834263)
(81.9759 -1.61249 0.737447)
(12.5457 -0.779862 0.0849628)
(81.1803 -0.970075 2.07795)
(6.78339 -0.45615 -0.0425189)
(80.5782 -0.339681 0.381284)
(90.7849 -1.11165 -3.76145)
(31.424 0.0212382 -1.89971)
(83.6773 -0.484437 -2.42734)
(18.3107 -0.143347 -0.957904)
(79.9406 -0.211359 0.434296)
(10.0601 -0.0165094 -0.00312011)
(77.7574 0.230873 1.44615)
(4.96505 0.0101496 -0.097194)
(76.8059 -0.0790175 0.569634)
)
;
    }
    procBoundary0to6
    {
        type            processor;
        value           uniform (87.6667 0.677415 1.48823);
    }
    procBoundary0to7
    {
        type            processor;
        value           uniform (17.9181 0.0533999 -1.82904);
    }
}


// ************************************************************************* //
