/*--------------------------------*- C++ -*----------------------------------*\
| =========                 |                                                 |
| \\      /  F ield         | OpenFOAM: The Open Source CFD Toolbox           |
|  \\    /   O peration     | Version:  4.x                                   |
|   \\  /    A nd           | Web:      www.OpenFOAM.org                      |
|    \\/     M anipulation  |                                                 |
\*---------------------------------------------------------------------------*/
FoamFile
{
    version     2.0;
    format      ascii;
    class       volScalarField;
    location    "8";
    object      particleRelTemp;
}
// * * * * * * * * * * * * * * * * * * * * * * * * * * * * * * * * * * * * * //

dimensions      [0 0 0 0 0 0 0];

internalField   nonuniform List<scalar> 
132
(
-2.07826e-07
-1.6682e-07
-1.24422e-07
-9.36123e-08
-9.8651e-08
-1.00407e-07
-8.88688e-08
-7.20404e-08
-4.8068e-08
-2.00388e-07
-1.60598e-07
-1.19974e-07
-9.33546e-08
-6.94503e-08
-5.99405e-08
-3.37801e-08
-2.5849e-08
-1.42406e-08
-1.93476e-07
-1.60949e-07
-1.25351e-07
-8.82571e-08
-5.95002e-08
-3.22782e-08
-8.84145e-09
8.93711e-09
1.28941e-08
-2.16798e-07
-1.69611e-07
-1.53134e-07
-2.10845e-07
-1.64983e-07
-1.2179e-07
-8.76187e-08
-7.04267e-08
-5.55746e-08
-5.63748e-08
-3.67316e-08
-3.20295e-08
-2.06757e-07
-1.61382e-07
-1.09761e-07
-6.99165e-08
-4.84754e-08
-2.74459e-08
-2.78497e-09
9.6802e-09
1.44664e-08
-2.05496e-07
-1.5467e-07
-1.05792e-07
-6.65808e-08
-2.84711e-08
-8.41008e-09
2.23067e-08
4.3104e-08
4.96087e-08
-2.02094e-07
-1.57743e-07
-1.0736e-07
-5.71555e-08
-2.79141e-08
-2.05517e-07
-1.71195e-07
-1.22597e-07
-7.8337e-08
-5.02222e-08
-2.03931e-08
-1.13408e-08
-7.75388e-09
-6.26216e-09
-2.00758e-07
-1.56042e-07
-1.05101e-07
-6.15399e-08
-2.24628e-08
8.45465e-09
2.46461e-08
3.92391e-08
4.01316e-08
-2.01685e-07
-1.55299e-07
-9.65331e-08
-4.47426e-08
-8.47163e-10
4.31884e-08
6.88099e-08
8.80223e-08
8.0381e-08
-1.99791e-07
-1.45942e-07
-9.34656e-08
-4.82574e-08
1.96509e-09
3.56969e-08
8.23313e-08
-2.1297e-07
-1.66749e-07
-1.29609e-07
-8.60139e-08
-4.83831e-08
-1.56235e-08
-5.78191e-09
6.22431e-09
8.33269e-09
-2.05989e-07
-1.64696e-07
-1.17401e-07
-6.07935e-08
-1.65842e-08
2.49391e-08
4.53814e-08
4.85111e-08
5.61077e-08
-1.88114e-07
-1.49317e-07
-1.04493e-07
-3.19621e-08
8.18231e-09
5.75974e-08
8.76783e-08
1.02184e-07
8.85831e-08
-1.99696e-07
-1.55977e-07
-9.90715e-08
-3.4971e-08
1.35777e-08
5.64364e-08
9.55555e-08
1.08335e-07
1.07746e-07
)
;

boundaryField
{
    inlet
    {
        type            calculated;
        value           nonuniform List<scalar> 
16
(
-2.07826e-07
-2.00388e-07
-1.93476e-07
-2.16798e-07
-2.10845e-07
-2.06757e-07
-2.05496e-07
-2.02094e-07
-2.05517e-07
-2.00758e-07
-2.01685e-07
-1.99791e-07
-2.1297e-07
-2.05989e-07
-1.88114e-07
-1.99696e-07
)
;
    }
    outlet
    {
        type            calculated;
        value           nonuniform 0();
    }
    wall
    {
        type            calculated;
        value           nonuniform List<scalar> 
66
(
-2.07826e-07
-2.00388e-07
-1.93476e-07
-2.16798e-07
-1.6682e-07
-1.60598e-07
-1.60949e-07
-1.69611e-07
-1.24422e-07
-1.19974e-07
-1.25351e-07
-1.53134e-07
-9.36123e-08
-9.33546e-08
-8.82571e-08
-9.8651e-08
-6.94503e-08
-5.95002e-08
-1.00407e-07
-5.99405e-08
-3.22782e-08
-8.88688e-08
-3.37801e-08
-8.84145e-09
-7.20404e-08
-2.5849e-08
8.93711e-09
-4.8068e-08
-1.42406e-08
1.28941e-08
-2.07826e-07
-2.10845e-07
-2.05517e-07
-2.1297e-07
-1.6682e-07
-1.64983e-07
-1.71195e-07
-1.66749e-07
-1.24422e-07
-1.2179e-07
-1.22597e-07
-1.29609e-07
-9.36123e-08
-8.76187e-08
-7.8337e-08
-8.60139e-08
-9.8651e-08
-7.04267e-08
-5.02222e-08
-4.83831e-08
-1.00407e-07
-5.55746e-08
-2.03931e-08
-1.56235e-08
-8.88688e-08
-5.63748e-08
-1.13408e-08
-5.78191e-09
-7.20404e-08
-3.67316e-08
-7.75388e-09
6.22431e-09
-4.8068e-08
-3.20295e-08
-6.26216e-09
8.33269e-09
)
;
    }
    procBoundary0to1
    {
        type            processor;
        value           nonuniform List<scalar> 
12
(
-4.67213e-08
-1.66044e-08
1.75799e-08
-3.30228e-08
-7.6771e-09
5.55072e-08
-1.62381e-08
3.02411e-08
7.62012e-08
-5.33207e-09
3.64291e-08
9.23183e-08
)
;
    }
    procBoundary0to2
    {
        type            processor;
        value           nonuniform List<scalar> 
44
(
-1.00762e-07
-6.80278e-08
-2.03981e-08
8.87292e-10
2.63697e-08
2.26925e-08
-2.10478e-07
-1.78086e-07
-1.00762e-07
-1.46316e-07
-1.00762e-07
-6.80278e-08
5.37407e-09
3.7889e-08
5.11585e-08
5.98688e-08
-2.1318e-07
-1.75129e-07
-1.27979e-07
-8.47257e-08
5.37407e-09
-5.08197e-08
5.37407e-09
3.7889e-08
9.24128e-08
9.43905e-08
-2.02466e-07
-1.65892e-07
-1.12083e-07
-6.15912e-08
-1.5889e-08
2.64891e-08
9.24128e-08
4.93843e-08
9.24128e-08
9.43905e-08
-2.00572e-07
-1.4872e-07
-9.94355e-08
-5.38729e-08
-5.82741e-09
3.71322e-08
6.62163e-08
8.63879e-08
)
;
    }
    procBoundary0to4
    {
        type            processor;
        value           nonuniform List<scalar> 
36
(
-2.09845e-07
-1.80017e-07
-1.39136e-07
-9.66784e-08
-6.52865e-08
-3.87608e-08
-1.37346e-08
-5.17662e-09
-1.48206e-08
-2.05587e-07
-1.70775e-07
-1.19652e-07
-7.36231e-08
-2.87278e-08
2.39255e-09
2.28635e-08
3.95893e-08
3.96931e-08
-2.03955e-07
-1.58964e-07
-9.87777e-08
-5.14156e-08
-1.0946e-09
3.54974e-08
6.5332e-08
7.82079e-08
7.32119e-08
-2.03713e-07
-1.60648e-07
-1.01096e-07
-4.91561e-08
1.0785e-08
5.0018e-08
7.79835e-08
8.72938e-08
9.59704e-08
)
;
    }
    procBoundary0to6
    {
        type            processor;
        value           uniform 8.87838e-08;
    }
    procBoundary0to7
    {
        type            processor;
        value           uniform 1.00351e-07;
    }
}


// ************************************************************************* //
