/*--------------------------------*- C++ -*----------------------------------*\
| =========                 |                                                 |
| \\      /  F ield         | OpenFOAM: The Open Source CFD Toolbox           |
|  \\    /   O peration     | Version:  4.x                                   |
|   \\  /    A nd           | Web:      www.OpenFOAM.org                      |
|    \\/     M anipulation  |                                                 |
\*---------------------------------------------------------------------------*/
FoamFile
{
    version     2.0;
    format      ascii;
    class       volScalarField;
    location    "8";
    object      Qsource;
}
// * * * * * * * * * * * * * * * * * * * * * * * * * * * * * * * * * * * * * //

dimensions      [1 -1 -3 0 0 0 0];

internalField   nonuniform List<scalar> 
132
(
3.77673e+09
3.5763e+09
3.72698e+09
3.06279e+09
6.50213e+09
6.4355e+09
8.43776e+09
5.81711e+09
2.03617e+09
4.62571e+09
5.08344e+09
6.59095e+09
6.42115e+09
4.89773e+09
7.60811e+09
6.10616e+09
6.04883e+09
6.37541e+09
3.09553e+09
6.43203e+09
6.68227e+09
5.83883e+09
6.54845e+09
5.53898e+09
4.84878e+09
4.97844e+09
9.26987e+09
2.94765e+09
5.06332e+09
4.41901e+09
5.05466e+09
7.49622e+09
9.47561e+09
8.32874e+09
8.62229e+09
8.26211e+09
8.81795e+09
7.58677e+09
8.28495e+09
4.94781e+09
9.47524e+09
7.97136e+09
8.56391e+09
9.56303e+09
8.59091e+09
8.36589e+09
9.06299e+09
8.51406e+09
5.26347e+09
9.49795e+09
8.36915e+09
7.5292e+09
8.11961e+09
7.56468e+09
1.02342e+10
6.76091e+09
6.13298e+09
7.91597e+09
7.05262e+09
7.70602e+09
5.26789e+09
1.13024e+10
6.34196e+09
7.40771e+09
8.86604e+09
7.48416e+09
8.20384e+09
6.13234e+09
8.82124e+09
7.6371e+09
6.33297e+09
6.19886e+09
8.24409e+09
8.27627e+09
6.32389e+09
9.08116e+09
6.56524e+09
9.21193e+09
9.94092e+09
7.65714e+09
6.657e+09
7.17616e+09
7.96551e+09
9.12903e+09
9.56727e+09
7.90856e+09
9.02705e+09
6.41988e+09
5.36296e+09
6.84355e+09
8.61495e+09
9.38807e+09
8.59745e+09
9.91124e+09
7.87374e+09
8.59984e+09
5.10736e+09
5.45475e+09
7.5088e+09
5.67773e+09
7.82631e+09
8.71724e+09
6.73626e+09
5.01862e+09
7.03962e+09
5.09754e+09
9.5585e+09
8.98124e+09
7.98699e+09
7.08892e+09
6.26439e+09
1.03384e+10
7.35907e+09
6.96147e+09
5.1425e+09
5.60962e+09
8.93361e+09
6.14858e+09
8.58397e+09
8.61357e+09
8.24342e+09
5.22774e+09
9.46296e+09
4.79169e+09
6.71052e+09
9.52453e+09
1.0284e+10
5.34496e+09
9.93065e+09
8.53359e+09
5.7516e+09
2.67581e+09
)
;

boundaryField
{
    inlet
    {
        type            calculated;
        value           uniform 0;
    }
    outlet
    {
        type            calculated;
        value           nonuniform 0();
    }
    wall
    {
        type            calculated;
        value           uniform 0;
    }
    procBoundary0to1
    {
        type            processor;
        value           nonuniform List<scalar> 
12
(
5.91455e+09
4.77183e+09
3.87404e+09
7.99865e+09
9.25045e+09
8.89598e+09
8.03451e+09
9.04132e+09
8.37464e+09
7.56669e+09
8.19357e+09
6.15205e+09
)
;
    }
    procBoundary0to2
    {
        type            processor;
        value           nonuniform List<scalar> 
44
(
7.83835e+09
6.50153e+09
3.59382e+09
6.65024e+09
3.05602e+09
3.67605e+09
6.61134e+09
7.50138e+09
7.83835e+09
7.05615e+09
7.83835e+09
6.50153e+09
9.61308e+09
1.19494e+10
6.3456e+09
1.10422e+10
4.70601e+09
7.98319e+09
9.57979e+09
9.13925e+09
9.61308e+09
8.93953e+09
9.61308e+09
1.19494e+10
7.97834e+09
9.13585e+09
6.80816e+09
5.73682e+09
6.66755e+09
6.81191e+09
6.63626e+09
7.68443e+09
7.97834e+09
9.75304e+09
7.97834e+09
9.13585e+09
4.85346e+09
9.45026e+09
1.01577e+10
7.11828e+09
7.69554e+09
6.70904e+09
7.545e+09
7.97883e+09
)
;
    }
    procBoundary0to4
    {
        type            processor;
        value           nonuniform List<scalar> 
36
(
5.67349e+09
7.54951e+09
9.11126e+09
6.39206e+09
7.83441e+09
6.4137e+09
9.58743e+09
7.36037e+09
1.04152e+10
6.96257e+09
7.23706e+09
9.12239e+09
9.71953e+09
9.88089e+09
8.28737e+09
7.88858e+09
5.5148e+09
1.09963e+10
6.62857e+09
1.0226e+10
7.90241e+09
9.36055e+09
8.35293e+09
6.2483e+09
7.19793e+09
1.03222e+10
6.63645e+09
3.43805e+09
6.69726e+09
9.26081e+09
5.66408e+09
8.69224e+09
6.32238e+09
1.12929e+10
6.07488e+09
7.02379e+09
)
;
    }
    procBoundary0to6
    {
        type            processor;
        value           uniform 8.183e+09;
    }
    procBoundary0to7
    {
        type            processor;
        value           uniform 1.0637e+10;
    }
}


// ************************************************************************* //
