/*--------------------------------*- C++ -*----------------------------------*\
| =========                 |                                                 |
| \\      /  F ield         | OpenFOAM: The Open Source CFD Toolbox           |
|  \\    /   O peration     | Version:  4.x                                   |
|   \\  /    A nd           | Web:      www.OpenFOAM.org                      |
|    \\/     M anipulation  |                                                 |
\*---------------------------------------------------------------------------*/
FoamFile
{
    version     2.0;
    format      ascii;
    class       volScalarField;
    location    "8";
    object      SPartFluid;
}
// * * * * * * * * * * * * * * * * * * * * * * * * * * * * * * * * * * * * * //

dimensions      [1 -3 -1 0 0 0 0];

internalField   nonuniform List<scalar> 
132
(
4.02998e-65
3.64234e-65
3.09976e-65
2.86722e-65
3.79721e-65
4.02963e-65
4.8821e-65
3.48714e-65
1.70476e-65
4.88245e-65
4.64979e-65
4.64966e-65
5.11449e-65
3.17711e-65
5.81178e-65
4.26196e-65
4.64935e-65
4.26181e-65
2.71246e-65
5.34726e-65
4.72718e-65
4.72701e-65
4.26197e-65
4.33936e-65
3.25445e-65
4.18428e-65
7.20625e-65
2.8675e-65
4.41735e-65
3.25485e-65
4.18498e-65
6.66471e-65
8.05942e-65
7.05177e-65
6.81923e-65
7.12911e-65
6.27672e-65
6.43159e-65
6.19914e-65
5.42493e-65
7.98214e-65
6.27699e-65
7.20663e-65
7.28395e-65
7.12887e-65
6.50885e-65
7.74855e-65
6.74121e-65
5.88995e-65
8.13711e-65
6.81937e-65
6.27668e-65
6.66393e-65
6.58635e-65
8.29086e-65
6.04373e-65
4.95894e-65
8.05991e-65
6.12225e-65
6.12195e-65
4.57187e-65
9.14355e-65
5.96745e-65
6.81978e-65
7.28447e-65
6.81924e-65
6.58669e-65
5.19171e-65
7.05136e-65
6.89637e-65
4.72674e-65
6.43242e-65
7.05221e-65
6.74192e-65
5.57927e-65
7.36133e-65
5.73391e-65
7.36098e-65
8.83317e-65
6.2762e-65
7.6724e-65
6.27721e-65
6.58687e-65
8.21381e-65
7.8261e-65
7.3609e-65
7.43822e-65
6.19841e-65
4.57139e-65
7.2849e-65
7.59457e-65
7.67171e-65
7.98138e-65
8.36847e-65
7.12847e-65
7.12821e-65
4.5725e-65
4.88231e-65
5.73464e-65
5.34693e-65
6.1217e-65
7.7488e-65
4.80423e-65
4.1068e-65
4.95918e-65
5.50245e-65
8.13715e-65
7.28441e-65
6.74166e-65
5.81153e-65
5.65635e-65
8.36822e-65
6.58604e-65
5.50126e-65
4.57242e-65
4.95969e-65
7.28432e-65
5.73414e-65
7.28364e-65
8.05815e-65
6.7408e-65
5.11364e-65
8.05794e-65
5.26993e-65
5.8897e-65
7.82673e-65
9.22116e-65
4.41668e-65
9.2204e-65
7.12816e-65
5.42353e-65
2.32432e-65
)
;

boundaryField
{
    inlet
    {
        type            calculated;
        value           uniform 0;
    }
    outlet
    {
        type            calculated;
        value           nonuniform 0();
    }
    wall
    {
        type            calculated;
        value           uniform 0;
    }
    procBoundary0to1
    {
        type            processor;
        value           nonuniform List<scalar> 
12
(
3.71959e-65
3.64195e-65
3.48686e-65
6.43162e-65
7.51622e-65
8.1357e-65
7.0514e-65
7.6709e-65
7.90308e-65
6.58639e-65
7.05102e-65
5.73356e-65
)
;
    }
    procBoundary0to2
    {
        type            processor;
        value           nonuniform List<scalar> 
44
(
6.50942e-65
4.88199e-65
2.55706e-65
4.8817e-65
2.24705e-65
2.63449e-65
5.73497e-65
6.50981e-65
6.50942e-65
5.11473e-65
6.50942e-65
4.88199e-65
8.44591e-65
9.76295e-65
5.73372e-65
9.37536e-65
5.42495e-65
6.81976e-65
7.67191e-65
7.74914e-65
8.44591e-65
7.0515e-65
8.44591e-65
9.76295e-65
7.59303e-65
7.98047e-65
7.28492e-65
4.9598e-65
5.50199e-65
6.12171e-65
5.57905e-65
7.12855e-65
7.59303e-65
8.36817e-65
7.59303e-65
7.98047e-65
4.80492e-65
8.13706e-65
8.36921e-65
6.50914e-65
6.43138e-65
6.27616e-65
6.27602e-65
7.74805e-65
)
;
    }
    procBoundary0to4
    {
        type            processor;
        value           nonuniform List<scalar> 
36
(
5.19247e-65
7.3623e-65
7.51708e-65
5.5795e-65
5.96676e-65
5.6567e-65
7.5938e-65
6.74137e-65
8.91108e-65
7.74992e-65
6.35476e-65
7.28439e-65
8.52401e-65
8.21371e-65
7.51614e-65
6.35373e-65
5.42382e-65
9.06557e-65
6.97489e-65
8.75709e-65
6.43192e-65
8.52388e-65
6.97374e-65
5.96624e-65
6.12106e-65
9.68515e-65
5.65613e-65
4.33992e-65
5.73472e-65
7.59427e-65
5.19177e-65
7.36111e-65
6.04369e-65
9.53019e-65
5.96601e-65
5.96598e-65
)
;
    }
    procBoundary0to6
    {
        type            processor;
        value           uniform 6.74079e-65;
    }
    procBoundary0to7
    {
        type            processor;
        value           uniform 9.91739e-65;
    }
}


// ************************************************************************* //
