/*--------------------------------*- C++ -*----------------------------------*\
| =========                 |                                                 |
| \\      /  F ield         | OpenFOAM: The Open Source CFD Toolbox           |
|  \\    /   O peration     | Version:  4.x                                   |
|   \\  /    A nd           | Web:      www.OpenFOAM.org                      |
|    \\/     M anipulation  |                                                 |
\*---------------------------------------------------------------------------*/
FoamFile
{
    version     2.0;
    format      ascii;
    class       surfaceScalarField;
    location    "60";
    object      phi;
}
// * * * * * * * * * * * * * * * * * * * * * * * * * * * * * * * * * * * * * //

dimensions      [0 3 -1 0 0 0 0];

internalField   nonuniform List<scalar> 
259
(
6.08607e-06
4.08313e-07
2.62276e-07
5.14862e-06
2.42328e-08
2.76312e-07
4.80064e-06
2.63507e-07
2.93472e-07
3.30274e-06
-6.20242e-08
6.22932e-07
3.74716e-06
4.12498e-07
1.61021e-07
-5.97944e-08
1.45326e-06
5.46752e-06
-1.55913e-08
8.65937e-09
5.62599e-06
2.42395e-07
1.00523e-07
5.25129e-06
-2.30276e-08
2.493e-08
5.5623e-06
1.53787e-07
2.95336e-07
4.63289e-06
-6.59204e-08
1.4093e-07
5.70374e-06
2.68744e-07
5.15731e-07
-1.06883e-07
4.1807e-07
4.85636e-06
2.98829e-08
4.70094e-06
1.24573e-12
4.77311e-06
8.3121e-08
4.5433e-06
1.77377e-08
4.62582e-06
2.17202e-07
3.93311e-06
1.61663e-07
5.33987e-06
9.99071e-08
2.65844e-07
9.15693e-06
-1.21427e-07
-2.13704e-08
9.1795e-06
-5.86909e-08
1.5202e-07
9.26974e-06
-1.16468e-07
1.0377e-07
9.18708e-06
1.1786e-07
2.27073e-07
9.35107e-06
-2.19012e-07
3.31339e-07
9.0789e-06
4.70801e-07
9.48361e-08
9.63065e-06
-7.34273e-07
8.0546e-07
9.24043e-06
1.07759e-06
-5.26356e-07
-3.09139e-06
2.34996e-06
6.28765e-06
-8.33701e-08
-6.1112e-10
6.09811e-06
3.03435e-08
9.63188e-08
6.03141e-06
-6.88961e-08
2.77896e-08
6.13104e-06
1.17673e-07
1.07926e-09
5.95303e-06
-1.14283e-07
9.82127e-08
6.5323e-06
3.45185e-07
-1.58319e-07
6.08039e-06
-5.72196e-07
4.30757e-07
7.33597e-06
1.07781e-06
-7.4006e-07
-2.50642e-06
2.38943e-06
5.2771e-06
-1.90109e-13
5.10549e-09
5.34029e-06
-8.65258e-09
5.68784e-09
5.2714e-06
2.65296e-13
5.44351e-06
4.75839e-08
5.34883e-06
1.63379e-08
5.88054e-06
1.97624e-08
5.39353e-06
2.63312e-07
6.30147e-06
-4.4689e-07
1.84959e-06
5.12511e-06
3.39751e-08
3.89099e-09
8.66229e-06
-3.75302e-08
6.55805e-08
8.62928e-06
2.07211e-08
1.64311e-07
8.61509e-06
-1.0082e-08
1.28042e-07
8.5831e-06
1.40767e-07
1.183e-07
8.57226e-06
-2.41383e-08
3.66316e-07
8.29651e-06
3.95424e-07
-2.48361e-08
8.25871e-06
-1.38214e-07
9.81469e-07
7.62819e-06
8.80105e-07
-7.75936e-07
-8.728e-07
3.23437e-06
7.05903e-06
-7.55599e-08
5.53529e-08
6.97636e-06
4.74827e-08
1.52221e-07
6.99941e-06
-8.88617e-08
8.35276e-08
6.97177e-06
1.79394e-07
-9.91259e-09
6.99176e-06
-1.3728e-07
1.91362e-07
7.13562e-06
3.90554e-07
-2.97303e-07
7.21097e-06
-3.05552e-07
5.22742e-07
7.53449e-06
9.0336e-07
-1.08684e-06
-1.46554e-06
1.86476e-06
5.46393e-06
-1.86389e-08
7.09016e-08
5.38762e-06
8.29367e-08
4.65424e-08
5.20422e-06
-8.9754e-09
1.03516e-07
5.27854e-06
1.314e-07
2.12589e-08
4.91266e-06
2.63539e-07
5.35923e-06
-2.05199e-07
4.66375e-06
7.22957e-07
6.02855e-06
-1.0058e-06
2.92573e-06
5.88034e-06
6.52545e-08
5.87166e-06
3.12893e-08
5.8495e-06
6.9403e-08
-9.77317e-08
1.10926e-05
-1.68008e-07
1.13842e-05
-1.27351e-07
1.17126e-05
-2.00309e-07
1.18665e-05
-3.56049e-08
1.25928e-05
-3.59983e-07
1.24112e-05
1.5676e-07
1.41895e-05
-7.96811e-07
1.26557e-05
7.57861e-07
-2.35747e-06
9.8172e-06
-2.46796e-07
1.00089e-05
-1.66833e-07
1.02273e-05
-3.3519e-07
1.02519e-05
-7.00891e-08
1.05694e-05
-4.86109e-07
1.02568e-05
1.7207e-07
1.07874e-05
-8.04738e-07
9.59508e-06
8.63371e-07
-1.53431e-06
8.76011e-06
-1.96637e-07
8.79077e-06
-1.50953e-07
8.84994e-06
-2.90845e-07
8.94247e-06
-1.41359e-07
9.179e-06
-4.591e-07
9.16418e-06
-1.83046e-08
9.98139e-06
9.31358e-06
8.93061e-06
8.96934e-06
9.03704e-06
8.99239e-06
9.20463e-06
)
;

boundaryField
{
    inlet
    {
        type            calculated;
        value           nonuniform 0();
    }
    outlet
    {
        type            calculated;
        value           nonuniform List<scalar> 
12
(
7.00243e-07
2.87179e-06
3.42359e-06
1.14351e-05
4.77963e-06
3.01015e-06
7.61657e-06
8.65191e-06
4.07532e-06
1.82475e-05
1.06367e-05
1.23914e-05
)
;
    }
    wall
    {
        type            calculated;
        value           nonuniform List<scalar> 
66
(
0
0
0
0
0
0
0
0
0
0
0
3.08149e-33
0
0
0
0
0
1.54074e-33
0
-3.08149e-33
0
0
0
0
0
0
0
0
0
0
0
0
0
0
0
0
0
0
0
0
0
0
0
0
0
0
0
0
0
0
0
0
0
0
0
0
0
0
0
0
0
0
0
0
0
0
)
;
    }
    procBoundary5to1
    {
        type            processor;
        value           nonuniform List<scalar> 
32
(
1.87617e-07
6.36914e-07
-2.09005e-07
9.36989e-07
-1.01793e-06
1.65345e-06
2.2494e-07
-9.30695e-08
3.97028e-07
-4.96632e-07
7.92381e-07
-1.44282e-06
2.46096e-06
-4.38271e-08
8.0635e-08
-5.11654e-08
1.65088e-07
-2.22149e-07
4.54279e-07
-7.10808e-07
1.22559e-06
4.76974e-08
-1.15905e-07
-6.94428e-06
-7.06584e-08
-7.75358e-08
1.97273e-08
-5.61487e-06
-2.14742e-07
4.1917e-09
-4.79478e-06
-7.57838e-13
)
;
    }
    procBoundary5to4
    {
        type            processor;
        value           nonuniform List<scalar> 
12
(
-9.06183e-06
-6.34483e-06
-5.36558e-06
-5.22067e-06
-8.71171e-06
-7.07696e-06
-5.58665e-06
-5.91424e-06
-1.0859e-05
-9.68306e-06
-8.73937e-06
-8.87149e-06
)
;
    }
    procBoundary5to7
    {
        type            processor;
        value           nonuniform List<scalar> 
44
(
1.67106e-07
5.9196e-08
1.38262e-07
2.39603e-08
7.62118e-08
1.08508e-08
-5.27112e-07
3.17954e-07
6.15913e-08
2.23493e-08
-3.71686e-13
-1.89001e-08
-1.82057e-08
1.09208e-08
-1.86836e-07
7.1666e-07
-7.98844e-07
-1.06397e-12
5.18763e-06
-9.74127e-08
-4.59488e-08
-7.74349e-08
-1.86001e-08
1.68944e-07
-6.97146e-08
9.74642e-08
-5.88461e-07
-1.60182e-08
6.42113e-08
-1.02638e-08
6.16019e-06
-4.12661e-09
-2.06449e-07
1.60862e-07
-8.98988e-07
5.2538e-07
-1.68638e-06
-1.90505e-07
-1.58393e-07
-2.89147e-07
-1.94437e-07
-4.64888e-07
9.17298e-06
-1.4752e-07
)
;
    }
}


// ************************************************************************* //
