/*--------------------------------*- C++ -*----------------------------------*\
| =========                 |                                                 |
| \\      /  F ield         | OpenFOAM: The Open Source CFD Toolbox           |
|  \\    /   O peration     | Version:  4.x                                   |
|   \\  /    A nd           | Web:      www.OpenFOAM.org                      |
|    \\/     M anipulation  |                                                 |
\*---------------------------------------------------------------------------*/
FoamFile
{
    version     2.0;
    format      ascii;
    class       volScalarField;
    location    "60";
    object      QPartFluid;
}
// * * * * * * * * * * * * * * * * * * * * * * * * * * * * * * * * * * * * * //

dimensions      [1 -1 -3 0 0 0 0];

internalField   nonuniform List<scalar> 
114
(
7.86403e+09
7.23641e+09
7.04413e+09
5.72636e+09
7.89414e+09
5.85853e+09
7.2758e+09
7.05485e+09
5.91573e+09
8.28322e+09
8.48366e+09
1.0134e+10
6.52484e+09
9.96141e+09
6.15534e+09
8.72359e+09
5.8919e+09
5.31969e+09
7.14728e+09
6.26246e+09
6.66166e+09
6.6512e+09
5.70078e+09
7.5745e+09
6.38633e+09
6.60308e+09
8.39749e+09
7.28877e+09
6.8359e+09
4.92204e+09
8.21532e+09
8.25372e+09
9.36041e+09
8.95464e+09
8.91277e+09
1.01983e+10
5.48375e+09
1.07238e+10
6.41566e+09
8.52233e+09
5.51422e+09
7.30095e+09
9.11885e+09
6.18762e+09
8.42828e+09
7.61269e+09
8.11153e+09
4.47995e+09
1.03784e+10
5.08097e+09
7.26161e+09
9.55317e+09
7.35836e+09
8.59312e+09
7.61974e+09
8.07806e+09
6.76012e+09
8.83776e+09
5.2151e+09
6.11592e+09
1.09158e+10
7.22192e+09
9.14239e+09
8.35517e+09
9.23926e+09
1.08429e+10
8.79956e+09
4.83812e+09
7.39446e+09
7.78293e+09
8.01616e+09
7.39464e+09
1.13733e+10
9.25871e+09
9.0043e+09
1.09611e+10
8.16366e+09
5.22994e+09
1.17588e+10
9.58653e+09
1.00038e+10
2.48885e+09
6.87252e+09
4.52629e+09
7.72687e+09
6.06336e+09
5.85526e+09
7.16382e+09
7.92662e+09
4.99679e+09
6.97406e+09
8.22955e+09
4.85678e+09
6.9416e+09
8.20461e+09
7.714e+09
5.48623e+09
9.04866e+09
5.35047e+09
6.06397e+09
7.315e+09
8.5189e+09
7.85798e+09
6.24401e+09
9.4561e+09
7.00543e+09
8.16701e+09
6.36864e+09
7.22585e+09
6.50229e+09
7.37195e+09
6.76861e+09
1.04587e+10
8.56583e+09
)
;

boundaryField
{
    inlet
    {
        type            calculated;
        value           nonuniform 0();
    }
    outlet
    {
        type            calculated;
        value           uniform 0;
    }
    wall
    {
        type            calculated;
        value           uniform 0;
    }
    procBoundary5to1
    {
        type            processor;
        value           nonuniform List<scalar> 
32
(
9.60047e+09
6.07811e+09
9.98547e+09
7.20562e+09
7.38113e+09
3.18148e+09
6.48952e+09
8.09963e+09
8.17917e+09
9.08457e+09
7.62458e+09
9.45469e+09
3.70179e+09
7.77162e+09
5.46274e+09
1.1134e+10
8.8725e+09
1.09009e+10
7.69705e+09
9.71243e+09
3.39339e+09
6.46463e+09
5.53123e+09
7.57567e+09
7.57567e+09
7.57567e+09
7.85721e+09
1.22063e+10
1.22063e+10
1.22063e+10
5.90307e+09
5.90307e+09
)
;
    }
    procBoundary5to4
    {
        type            processor;
        value           nonuniform List<scalar> 
12
(
9.65698e+09
1.11177e+10
6.75045e+09
7.0924e+09
9.58679e+09
1.05049e+10
8.62703e+09
8.14746e+09
8.20856e+09
8.58685e+09
7.04362e+09
7.09523e+09
)
;
    }
    procBoundary5to7
    {
        type            processor;
        value           nonuniform List<scalar> 
44
(
9.19949e+09
6.50374e+09
8.00427e+09
1.1441e+10
1.25754e+10
8.02545e+09
6.55511e+09
6.16762e+09
1.02034e+10
9.19949e+09
6.56395e+09
8.64766e+09
6.68657e+09
8.21483e+09
8.82125e+09
9.88093e+09
6.0473e+09
3.85952e+09
6.56395e+09
1.0107e+10
6.56395e+09
8.64766e+09
5.04275e+09
7.3025e+09
8.22911e+09
7.67642e+09
4.64941e+09
8.5716e+09
9.15993e+09
7.08587e+09
5.04275e+09
6.53147e+09
5.04275e+09
7.3025e+09
5.91256e+09
8.11705e+09
4.88948e+09
7.28106e+09
6.99312e+09
7.47418e+09
8.6033e+09
5.07566e+09
5.91256e+09
4.87429e+09
)
;
    }
}


// ************************************************************************* //
