/*--------------------------------*- C++ -*----------------------------------*\
| =========                 |                                                 |
| \\      /  F ield         | OpenFOAM: The Open Source CFD Toolbox           |
|  \\    /   O peration     | Version:  4.x                                   |
|   \\  /    A nd           | Web:      www.OpenFOAM.org                      |
|    \\/     M anipulation  |                                                 |
\*---------------------------------------------------------------------------*/
FoamFile
{
    version     2.0;
    format      ascii;
    class       volScalarField;
    location    "60";
    object      Qsource;
}
// * * * * * * * * * * * * * * * * * * * * * * * * * * * * * * * * * * * * * //

dimensions      [1 -1 -3 0 0 0 0];

internalField   nonuniform List<scalar> 
114
(
8.65376e+09
7.34818e+09
7.74423e+09
5.72637e+09
8.42559e+09
5.93881e+09
7.2758e+09
7.05485e+09
5.91573e+09
8.28322e+09
8.48366e+09
1.0134e+10
6.52484e+09
9.96141e+09
6.15534e+09
8.72359e+09
5.8919e+09
5.31969e+09
7.14728e+09
6.26246e+09
6.66166e+09
7.10215e+09
6.59611e+09
8.0117e+09
7.3077e+09
7.01098e+09
9.35544e+09
7.6486e+09
7.87628e+09
5.31571e+09
8.21532e+09
8.25372e+09
9.36041e+09
8.95464e+09
8.91277e+09
1.01983e+10
5.48375e+09
1.07238e+10
6.41566e+09
8.52233e+09
5.51422e+09
7.30095e+09
9.11885e+09
6.18762e+09
8.42828e+09
7.61269e+09
8.11153e+09
4.47995e+09
1.03784e+10
5.08097e+09
7.68751e+09
1.04143e+10
7.76265e+09
9.46846e+09
7.99892e+09
8.97077e+09
7.07704e+09
9.74882e+09
5.46533e+09
6.11592e+09
1.09158e+10
7.22192e+09
9.14239e+09
8.35517e+09
9.23926e+09
1.08429e+10
8.79956e+09
4.83812e+09
7.39446e+09
7.78293e+09
8.01616e+09
7.39464e+09
1.13733e+10
9.25871e+09
9.0043e+09
1.09611e+10
8.16366e+09
5.22994e+09
1.17588e+10
9.58653e+09
1.00038e+10
3.71427e+09
8.80646e+09
5.7912e+09
9.76233e+09
7.33029e+09
8.08099e+09
8.35888e+09
1.05628e+10
6.04863e+09
7.48719e+09
9.14509e+09
5.3782e+09
7.89653e+09
8.71092e+09
8.7219e+09
5.9359e+09
1.01392e+10
5.68793e+09
6.49812e+09
8.1802e+09
8.94056e+09
8.74516e+09
6.65979e+09
1.03877e+10
7.40568e+09
9.21182e+09
6.73168e+09
7.66857e+09
7.37946e+09
7.80342e+09
7.66887e+09
1.08659e+10
9.50767e+09
)
;

boundaryField
{
    inlet
    {
        type            calculated;
        value           nonuniform 0();
    }
    outlet
    {
        type            calculated;
        value           uniform 0;
    }
    wall
    {
        type            calculated;
        value           uniform 0;
    }
    procBoundary5to1
    {
        type            processor;
        value           nonuniform List<scalar> 
32
(
1.05618e+10
6.52575e+09
1.09753e+10
7.5862e+09
8.40239e+09
3.53809e+09
6.48952e+09
8.09963e+09
8.17917e+09
9.08457e+09
7.62458e+09
9.45469e+09
3.70179e+09
7.77162e+09
5.46274e+09
1.1134e+10
8.8725e+09
1.09009e+10
7.69705e+09
9.71243e+09
3.39339e+09
6.84926e+09
6.37237e+09
7.85238e+09
7.85238e+09
7.85238e+09
7.85721e+09
1.22063e+10
1.22063e+10
1.22063e+10
5.90307e+09
5.90307e+09
)
;
    }
    procBoundary5to4
    {
        type            processor;
        value           nonuniform List<scalar> 
12
(
1.05285e+10
1.11177e+10
6.75045e+09
7.0924e+09
1.04404e+10
1.05049e+10
8.62703e+09
8.14746e+09
1.0066e+10
9.47475e+09
7.89373e+09
7.9529e+09
)
;
    }
    procBoundary5to7
    {
        type            processor;
        value           nonuniform List<scalar> 
44
(
9.19949e+09
6.50374e+09
8.00427e+09
1.1441e+10
1.25754e+10
8.02545e+09
6.55511e+09
6.16762e+09
1.02034e+10
9.19949e+09
6.56395e+09
8.64766e+09
6.68657e+09
8.21483e+09
8.82125e+09
9.88093e+09
6.0473e+09
3.85952e+09
6.56395e+09
1.0107e+10
6.56395e+09
8.64766e+09
5.04275e+09
7.3025e+09
8.22911e+09
7.67642e+09
4.64941e+09
8.5716e+09
9.15993e+09
7.08587e+09
5.04275e+09
6.53147e+09
5.04275e+09
7.3025e+09
6.30512e+09
9.15729e+09
5.28009e+09
7.63943e+09
7.81484e+09
7.7866e+09
9.41212e+09
5.33673e+09
6.30512e+09
5.6612e+09
)
;
    }
}


// ************************************************************************* //
