/*--------------------------------*- C++ -*----------------------------------*\
| =========                 |                                                 |
| \\      /  F ield         | OpenFOAM: The Open Source CFD Toolbox           |
|  \\    /   O peration     | Version:  4.x                                   |
|   \\  /    A nd           | Web:      www.OpenFOAM.org                      |
|    \\/     M anipulation  |                                                 |
\*---------------------------------------------------------------------------*/
FoamFile
{
    version     2.0;
    format      ascii;
    class       volVectorField;
    location    "31";
    object      ddtUrel;
}
// * * * * * * * * * * * * * * * * * * * * * * * * * * * * * * * * * * * * * //

dimensions      [0 1 -2 0 0 0 0];

internalField   nonuniform List<vector> 
87
(
(-7.95853e-08 -6.12684e-09 -2.80895e-09)
(-2.04297e-07 1.90445e-09 -1.361e-11)
(-7.01413e-08 4.04223e-09 -2.1145e-09)
(-2.99364e-08 1.79377e-09 -2.67575e-09)
(-1.9196e-08 -1.58898e-10 -5.09099e-09)
(-1.40797e-08 6.01188e-11 -4.31388e-09)
(-1.04241e-08 2.47376e-09 1.21767e-10)
(1.18248e-08 6.46676e-09 9.44588e-09)
(3.50596e-08 5.13634e-09 9.53612e-09)
(-4.95094e-08 -1.34979e-08 -6.13715e-09)
(-7.01399e-08 -2.78385e-09 -3.61324e-09)
(-4.05229e-08 1.68154e-10 -3.06797e-09)
(-2.50627e-08 1.20294e-09 -2.54263e-09)
(-1.77783e-08 -1.06042e-09 -4.00384e-09)
(-1.80058e-08 -6.38714e-10 -4.21677e-09)
(-2.00138e-08 1.83214e-09 -2.8586e-09)
(-1.67092e-08 2.84972e-09 -1.49189e-10)
(-9.66892e-09 1.60125e-09 -3.08738e-10)
(-4.68009e-08 -2.40942e-08 -1.42258e-08)
(-3.66132e-08 -9.22225e-09 -5.37745e-09)
(-2.35549e-08 -3.29622e-09 -3.22869e-09)
(-2.17212e-08 -1.09933e-09 -2.91211e-09)
(-1.9385e-08 -4.61775e-10 -4.00585e-09)
(-1.82762e-08 2.23437e-10 -4.42579e-09)
(-2.75186e-08 1.27185e-09 -4.72776e-09)
(-3.55926e-08 1.59023e-09 -5.97139e-09)
(-4.20816e-08 7.63445e-10 -8.59832e-09)
(-3.85037e-08 -5.48555e-09 -2.2143e-09)
(-6.15139e-08 -1.74526e-09 -9.34669e-10)
(-3.27493e-08 5.40077e-10 -8.9203e-10)
(-1.8326e-08 5.60523e-10 -2.16095e-09)
(-1.2107e-08 -1.16836e-10 -4.18857e-09)
(-8.84702e-09 2.01461e-10 -4.13024e-09)
(-1.19128e-08 1.47679e-09 -1.40203e-09)
(-8.46674e-09 2.80179e-09 1.41109e-09)
(1.16613e-10 2.82679e-09 2.16324e-09)
(-2.76327e-08 -1.09142e-08 -4.54375e-09)
(-3.3759e-08 -4.96658e-09 -3.29634e-09)
(-2.15842e-08 -1.60508e-09 -1.91304e-09)
(-1.60461e-08 2.85688e-10 -2.79221e-09)
(-1.29032e-08 -8.16079e-10 -4.23489e-09)
(-1.2616e-08 -1.4998e-10 -3.92392e-09)
(-1.90993e-08 1.53528e-09 -2.74395e-09)
(-2.19903e-08 2.10112e-09 -1.45145e-09)
(-1.58947e-08 2.11012e-09 -1.224e-09)
(-2.35482e-08 -1.72552e-08 -7.08485e-09)
(-2.03218e-08 -8.24347e-09 -6.05521e-09)
(-1.35609e-08 -4.86846e-09 -5.23351e-09)
(-1.4482e-08 -2.0204e-09 -3.93775e-09)
(-1.42414e-08 -4.90321e-10 -4.45975e-09)
(-1.49845e-08 9.11418e-10 -3.8543e-09)
(-2.68588e-08 1.87941e-09 -3.75989e-09)
(-3.64509e-08 2.04098e-09 -5.00292e-09)
(-3.42604e-08 1.83423e-09 -5.89765e-09)
(-1.38168e-08 -4.60747e-09 -1.82429e-09)
(-1.98263e-08 -3.00492e-09 -8.33456e-10)
(-1.18513e-08 -6.44826e-10 -7.82918e-10)
(-7.04578e-09 -2.73777e-10 -1.30032e-09)
(-5.73448e-09 -4.1738e-10 -2.45974e-09)
(-6.28572e-09 6.54331e-11 -2.6074e-09)
(-1.20969e-08 1.02102e-09 -1.40672e-09)
(-1.45596e-08 1.73683e-09 -7.661e-10)
(-9.1633e-09 2.08549e-09 3.18255e-10)
(-1.20412e-08 -6.94672e-09 -3.54367e-09)
(-1.26904e-08 -5.26583e-09 -2.16678e-09)
(-7.34984e-09 -3.29953e-09 -1.9139e-09)
(-7.60622e-09 -7.91766e-10 -2.01125e-09)
(-6.00437e-09 -1.42986e-09 -2.23008e-09)
(-7.90027e-09 2.03872e-12 -2.80253e-09)
(-1.75849e-08 1.38318e-09 -2.22477e-09)
(-2.30748e-08 1.72971e-09 -1.52e-09)
(-1.74469e-08 1.95439e-09 -1.0763e-09)
(-1.16583e-08 -1.14561e-08 -5.77255e-09)
(-1.16281e-08 -5.65312e-09 -4.52092e-09)
(-2.17197e-09 -1.22384e-09 -4.05771e-09)
(-4.88537e-09 -1.83216e-09 -3.02299e-09)
(-6.11931e-09 -2.70078e-09 -2.72309e-09)
(-9.50408e-09 4.12019e-10 -2.80067e-09)
(-2.205e-08 1.15663e-09 -3.40678e-09)
(-2.99571e-08 1.25615e-09 -3.58842e-09)
(-2.69426e-08 1.67325e-09 -2.76675e-09)
(-3.15947e-09 -4.07178e-09 -1.6228e-09)
(-2.49453e-09 -3.08278e-09 6.08887e-11)
(6.03338e-10 -1.70334e-09 1.47602e-11)
(-9.7987e-10 -5.48016e-09 -2.53175e-09)
(-2.0316e-09 -5.06871e-09 -3.40258e-10)
(-1.54088e-09 -7.34709e-09 -4.66873e-09)
)
;

boundaryField
{
    inlet
    {
        type            calculated;
        value           nonuniform 0();
    }
    outlet
    {
        type            calculated;
        value           nonuniform List<vector> 9((2.81394e-08 -1.00529e-08 -2.98742e-08) (9.31622e-09 -1.16321e-08 -6.70289e-09) (2.44963e-09 -1.06692e-08 -1.54608e-08) (2.22407e-09 2.92071e-11 -2.23356e-09) (-1.24201e-09 -1.02358e-09 -4.32692e-09) (-1.43645e-09 -2.48964e-10 -2.73113e-09) (3.80131e-09 1.9469e-10 1.11604e-09) (1.36614e-09 2.17291e-09 -2.14622e-09) (2.95971e-09 3.96605e-10 -3.71007e-09));
    }
    wall
    {
        type            calculated;
        value           nonuniform List<vector> 
57
(
(-9.76555e-08 9.12099e-09 1.49356e-08)
(-1.33013e-08 3.20461e-09 1.48134e-08)
(-6.57879e-08 -1.27981e-08 3.48315e-09)
(-2.08249e-06 5.20945e-08 3.34647e-08)
(-1.02162e-07 3.69403e-08 -4.30942e-09)
(-4.05184e-08 1.44733e-08 1.93726e-08)
(6.88976e-09 3.66386e-08 -3.77756e-09)
(-3.86682e-08 1.51146e-08 -1.32819e-08)
(2.14143e-08 1.41779e-08 1.03148e-08)
(6.3373e-09 7.61412e-09 2.14827e-10)
(-1.44357e-09 1.68086e-08 6.97003e-09)
(-2.48049e-08 6.41845e-09 1.7576e-08)
(-7.06195e-08 -6.72784e-09 -2.28744e-08)
(3.9089e-08 -1.25982e-08 -3.99574e-09)
(-2.23763e-08 -5.90459e-09 -4.65373e-09)
(-3.60646e-08 -6.77078e-09 -1.57597e-08)
(-5.08231e-08 -1.46489e-08 -7.50416e-09)
(1.17942e-08 -7.50268e-09 -6.86508e-09)
(-2.18714e-08 4.41152e-09 -2.31229e-09)
(-4.21161e-08 5.63478e-09 -1.15331e-08)
(-3.53938e-08 -7.57092e-09 -1.2329e-08)
(2.73036e-07 4.51505e-08 1.01469e-07)
(1.72664e-09 6.53523e-09 3.22504e-09)
(-6.20603e-09 6.0161e-10 -1.45648e-09)
(3.95563e-07 8.39034e-09 3.52096e-08)
(1.7957e-09 -1.83918e-08 -6.08107e-09)
(1.17777e-08 -1.41698e-08 -1.96711e-08)
(-7.04537e-08 5.0723e-09 1.75485e-08)
(-3.404e-08 -1.05494e-09 1.55885e-08)
(-3.67317e-09 -4.36964e-09 4.05734e-09)
(1.21407e-08 1.18642e-09 -4.75285e-09)
(-3.58049e-06 1.78949e-08 5.58837e-08)
(1.74434e-09 1.52923e-09 1.09806e-08)
(-1.34169e-08 -1.36237e-09 4.73011e-09)
(2.04878e-08 -2.82359e-09 6.47906e-09)
(9.74147e-08 3.9204e-08 -1.9032e-09)
(3.80897e-08 5.18695e-09 1.16104e-08)
(2.05023e-08 1.45005e-08 5.90031e-09)
(1.54226e-08 -1.28811e-09 4.84643e-09)
(1.76707e-08 8.76583e-09 8.40744e-10)
(1.94838e-09 2.38082e-09 1.31144e-09)
(6.58088e-09 -7.97223e-12 2.27779e-09)
(-2.81166e-08 -3.70841e-09 -2.00269e-08)
(-8.63209e-10 -1.11611e-10 -1.61585e-08)
(-6.11988e-09 -3.64956e-09 -4.0635e-09)
(4.17653e-09 -8.71659e-09 -2.15657e-08)
(3.01704e-08 -2.30788e-09 -1.61159e-08)
(5.61383e-09 1.28266e-09 -4.11341e-09)
(-2.58143e-08 4.94694e-09 -1.79035e-09)
(-2.80967e-08 -5.46567e-10 3.2919e-10)
(-3.08111e-08 1.50066e-10 1.03565e-09)
(1.30982e-07 4.58351e-08 9.50827e-08)
(-3.632e-08 2.55798e-09 -1.62096e-09)
(-5.72047e-08 2.02367e-09 -4.65605e-09)
(3.7005e-07 1.89075e-08 5.1379e-08)
(1.3107e-09 1.05345e-09 -4.7592e-09)
(-8.15452e-11 2.70126e-11 3.16607e-09)
)
;
    }
    procBoundary1to0
    {
        type            processor;
        value           nonuniform List<vector> 
12
(
(-3.23254e-08 -1.09109e-08 -6.7313e-09)
(-3.10951e-08 -1.85111e-08 -1.27211e-08)
(-6.40082e-08 -3.96737e-08 -3.18314e-08)
(-1.45085e-08 -7.79083e-09 -4.26204e-09)
(-1.56565e-08 -1.23683e-08 -7.52768e-09)
(-2.45279e-08 -2.18614e-08 -1.55511e-08)
(-4.07533e-09 -5.44019e-09 -2.62417e-09)
(-3.27252e-09 -8.02246e-09 -4.73445e-09)
(-5.79467e-09 -1.2606e-08 -8.75578e-09)
(3.46014e-10 -3.48986e-09 -1.57537e-09)
(2.54652e-09 -5.01665e-09 -3.35395e-09)
(2.5148e-09 -6.95464e-09 -5.34808e-09)
)
;
    }
    procBoundary1to3
    {
        type            processor;
        value           nonuniform List<vector> 
27
(
(-6.48541e-08 -3.62191e-08 -2.59101e-08)
(-2.6514e-08 -1.42728e-08 -9.87924e-09)
(-1.70243e-08 -6.49944e-09 -6.38527e-09)
(-1.94429e-08 -3.5844e-09 -5.46686e-09)
(-1.61305e-08 1.63066e-09 -3.74135e-09)
(-1.76163e-08 2.5193e-09 -4.14822e-09)
(-3.42787e-08 2.45408e-09 -6.177e-09)
(-5.34332e-08 1.8538e-09 -1.09694e-08)
(-1.09049e-07 1.07008e-10 -2.0814e-08)
(-2.47603e-08 -2.14488e-08 -1.35295e-08)
(-1.38505e-08 -1.09767e-08 -7.43474e-09)
(-7.81157e-09 -7.13326e-09 -1.67041e-09)
(-1.08731e-08 -3.5727e-09 -4.08655e-09)
(-1.1965e-08 8.07302e-10 -5.48621e-09)
(-1.54032e-08 2.09472e-09 -3.69471e-09)
(-3.00653e-08 2.68976e-09 -5.99116e-09)
(-4.51413e-08 2.50798e-09 -8.9703e-09)
(-5.8806e-08 2.98868e-09 -1.26997e-08)
(-9.75443e-09 -1.3305e-08 -8.36591e-09)
(-3.25435e-09 -7.0098e-09 -6.257e-09)
(-9.40742e-10 -4.62435e-09 -4.28265e-09)
(-8.52394e-09 -2.14331e-09 -2.60001e-09)
(-5.94851e-09 -9.62953e-11 -2.64897e-09)
(-1.06024e-08 1.24798e-09 -3.36209e-09)
(-2.5386e-08 2.16771e-09 -4.35737e-09)
(-3.34805e-08 2.05808e-09 -5.59252e-09)
(-3.31245e-08 2.21143e-09 -5.69612e-09)
)
;
    }
    procBoundary1to5
    {
        type            processor;
        value           nonuniform List<vector> 
32
(
(-8.83938e-10 -1.01369e-09 -4.90687e-10)
(-2.09917e-09 -4.19642e-10 -9.27501e-10)
(-4.87416e-09 -3.77469e-10 -9.99702e-10)
(-1.1206e-08 9.3226e-11 -5.21395e-10)
(-1.42343e-08 9.94114e-10 -2.76574e-10)
(-1.0681e-08 1.51435e-09 1.17142e-10)
(3.82039e-10 -3.12066e-09 -1.15654e-10)
(-5.99284e-10 -1.31267e-09 -4.57064e-10)
(-2.68437e-09 -1.39737e-09 -1.09912e-09)
(-6.15376e-09 -4.16327e-10 -1.55335e-09)
(-1.48012e-08 2.82071e-10 -1.71444e-09)
(-1.88714e-08 1.08831e-09 -1.0752e-09)
(-1.63101e-08 1.70313e-09 -2.04307e-10)
(-2.15186e-09 -5.24839e-09 -1.18626e-09)
(2.33246e-09 -3.28526e-09 -9.22662e-10)
(4.62252e-10 -1.82934e-09 -8.90987e-10)
(-3.35262e-09 -1.54556e-09 -8.61844e-10)
(-9.06987e-09 1.67521e-10 -1.62451e-09)
(-1.85738e-08 9.68461e-10 -1.996e-09)
(-2.28023e-08 9.48495e-10 -2.04277e-09)
(-1.97909e-08 1.96685e-09 -1.36167e-09)
(1.08825e-09 -2.66341e-09 7.29954e-11)
(2.23278e-09 -2.76206e-09 8.64361e-10)
(-8.83938e-10 -1.01369e-09 -4.90687e-10)
(3.82039e-10 -3.12066e-09 -1.15654e-10)
(3.41969e-09 -1.58917e-09 1.11035e-09)
(3.62343e-09 -3.65726e-09 -7.03502e-10)
(3.82039e-10 -3.12066e-09 -1.15654e-10)
(-2.15186e-09 -5.24839e-09 -1.18626e-09)
(2.69492e-09 -3.73873e-09 3.40412e-10)
(-2.15186e-09 -5.24839e-09 -1.18626e-09)
(5.03959e-09 -4.97426e-09 -1.46256e-09)
)
;
    }
    procBoundary1to7
    {
        type            processor;
        value           uniform (2.19864e-09 -7.08025e-09 -4.03278e-09);
    }
}


// ************************************************************************* //
