/*--------------------------------*- C++ -*----------------------------------*\
| =========                 |                                                 |
| \\      /  F ield         | OpenFOAM: The Open Source CFD Toolbox           |
|  \\    /   O peration     | Version:  4.x                                   |
|   \\  /    A nd           | Web:      www.OpenFOAM.org                      |
|    \\/     M anipulation  |                                                 |
\*---------------------------------------------------------------------------*/
FoamFile
{
    version     2.0;
    format      ascii;
    class       surfaceScalarField;
    location    "31";
    object      phi;
}
// * * * * * * * * * * * * * * * * * * * * * * * * * * * * * * * * * * * * * //

dimensions      [0 3 -1 0 0 0 0];

internalField   nonuniform List<scalar> 
192
(
1.42033e-05
2.76853e-08
-2.17629e-07
1.44379e-05
-9.51908e-09
-2.2511e-07
1.47471e-05
1.60976e-08
-3.25291e-07
1.47662e-05
9.44285e-08
-1.13532e-07
1.53877e-05
-1.03418e-07
-5.18084e-07
1.48571e-05
2.64946e-07
2.65631e-07
1.64783e-05
-5.76923e-07
-1.04429e-06
1.43667e-05
7.98374e-07
1.31329e-06
-2.01743e-06
-3.45506e-06
1.29472e-05
-4.57647e-08
-1.75578e-07
1.31549e-05
-4.06235e-08
-1.76665e-07
1.33753e-05
-2.08462e-08
-1.83389e-07
1.33221e-05
9.58127e-08
5.17469e-08
1.36982e-05
-2.09457e-07
-2.70054e-07
1.30602e-05
2.71948e-07
6.31042e-07
1.39737e-05
-8.71148e-07
-6.19335e-07
1.21243e-05
9.24751e-07
1.72304e-06
-2.62092e-06
-1.25387e-06
1.15181e-05
-1.58985e-07
1.15593e-05
-1.18174e-07
1.16491e-05
-1.83097e-07
1.15031e-05
1.52541e-07
1.17506e-05
-3.32058e-07
1.13204e-05
6.80707e-07
1.19553e-05
-7.89164e-07
1.08554e-05
1.81146e-06
-3.32724e-06
1.07146e-05
3.88724e-08
-3.60395e-07
1.0839e-05
-4.355e-08
-3.06023e-07
1.09325e-05
7.08265e-08
-4.89537e-07
1.08905e-05
1.41088e-07
-2.1264e-07
1.11298e-05
-6.70647e-09
-7.5072e-07
1.07806e-05
4.5195e-07
1.62899e-07
1.14875e-05
-3.79968e-07
-1.3712e-06
1.03111e-05
1.04103e-06
1.44864e-06
-1.7346e-06
-3.0118e-06
8.62558e-06
-1.81281e-09
-2.20841e-07
8.68871e-06
-9.68181e-08
-1.86527e-07
8.81208e-06
-8.25512e-09
-2.27681e-07
8.78638e-06
1.17593e-07
1.00942e-07
9.01381e-06
-1.14951e-07
-3.8924e-07
9.01625e-06
4.37264e-07
6.43291e-07
9.30587e-06
-4.43378e-07
-8.45549e-07
9.05431e-06
1.21997e-06
1.79565e-06
-2.29283e-06
-1.58557e-06
6.6362e-06
-8.97804e-08
6.24058e-06
1.03757e-07
6.08697e-06
-8.72529e-08
5.93747e-06
3.09816e-07
5.60919e-06
-1.648e-07
5.94072e-06
7.41983e-07
5.19185e-06
-5.23395e-07
6.71389e-06
1.61227e-06
-2.25073e-06
9.84045e-06
-2.14544e-08
-3.8589e-07
9.76458e-06
5.11049e-08
-2.81258e-07
9.77971e-06
-2.05608e-08
-4.84103e-07
9.5499e-06
2.24009e-07
9.67e-06
-1.70196e-07
9.30679e-06
4.5579e-07
9.55154e-06
-5.69174e-07
8.95233e-06
9.64791e-07
-1.5247e-06
7.31463e-06
-6.77659e-08
-2.18505e-07
7.33295e-06
4.85709e-08
-2.02313e-07
7.412e-06
-1.06717e-07
7.52382e-06
1.63589e-07
7.56679e-06
-2.78686e-07
7.85741e-06
3.01522e-07
7.94202e-06
-8.75402e-07
8.0129e-06
1.16462e-06
-2.71317e-06
5.68738e-06
-4.71543e-08
5.81365e-06
5.71267e-06
6.0345e-06
5.85887e-06
6.46593e-06
6.00586e-06
7.19939e-06
8.74715e-06
-1.04127e-07
8.41985e-06
4.12714e-08
6.10502e-06
-9.51907e-08
)
;

boundaryField
{
    inlet
    {
        type            calculated;
        value           nonuniform 0();
    }
    outlet
    {
        type            calculated;
        value           nonuniform List<scalar> 9(1.98391e-05 1.39817e-05 1.35933e-05 1.16025e-05 9.94424e-06 3.92101e-06 8.91149e-06 8.84535e-06 4.68916e-06);
    }
    wall
    {
        type            calculated;
        value           nonuniform List<scalar> 
57
(
0
0
0
0
0
0
0
0
0
0
0
0
0
0
0
0
0
0
0
0
0
0
0
0
0
0
0
0
0
0
0
0
0
0
0
0
0
9.86076e-32
0
0
0
0
0
1.2326e-32
0
0
0
0
0
0
0
0
0
0
0
0
0
)
;
    }
    procBoundary1to0
    {
        type            processor;
        value           nonuniform List<scalar> 
12
(
-1.40133e-05
-1.26981e-05
-1.13938e-05
-1.06107e-05
-8.53963e-06
-6.74489e-06
-9.7935e-06
-7.27065e-06
-5.7797e-06
-8.91994e-06
-6.28305e-06
-5.05306e-06
)
;
    }
    procBoundary1to3
    {
        type            processor;
        value           nonuniform List<scalar> 
27
(
-1.10514e-08
3.63701e-08
7.24628e-08
8.92239e-08
-1.24856e-07
2.14398e-08
-7.16895e-07
2.1315e-07
-2.03157e-06
3.76722e-08
7.68736e-08
4.95098e-08
1.0982e-07
4.60666e-08
4.44605e-08
3.97241e-08
-1.02877e-07
-5.76464e-07
-1.80646e-08
-2.33452e-08
-2.73161e-08
2.35708e-09
-1.00764e-07
-2.56536e-08
-4.29149e-07
4.63453e-07
-1.48402e-06
)
;
    }
    procBoundary1to5
    {
        type            processor;
        value           nonuniform List<scalar> 
32
(
-2.06844e-07
-7.00623e-07
7.03163e-08
-1.04677e-06
1.08306e-06
-1.44626e-06
-2.20583e-07
4.9545e-08
-3.23716e-07
5.06934e-07
-6.23929e-07
1.52494e-06
-1.22954e-06
4.93947e-08
-6.56702e-08
1.49219e-07
-1.67098e-07
4.62106e-07
-5.09586e-07
1.11991e-06
-9.69645e-07
-1.0898e-07
4.76944e-09
7.9882e-06
-1.51071e-08
-3.73446e-08
-4.94114e-08
5.83818e-06
1.0952e-07
-3.72576e-09
4.91072e-06
2.63299e-12
)
;
    }
    procBoundary1to7
    {
        type            processor;
        value           uniform -1.95461e-13;
    }
}


// ************************************************************************* //
