/*--------------------------------*- C++ -*----------------------------------*\
| =========                 |                                                 |
| \\      /  F ield         | OpenFOAM: The Open Source CFD Toolbox           |
|  \\    /   O peration     | Version:  4.x                                   |
|   \\  /    A nd           | Web:      www.OpenFOAM.org                      |
|    \\/     M anipulation  |                                                 |
\*---------------------------------------------------------------------------*/
FoamFile
{
    version     2.0;
    format      ascii;
    class       volVectorField;
    location    "31";
    object      U;
}
// * * * * * * * * * * * * * * * * * * * * * * * * * * * * * * * * * * * * * //

dimensions      [0 1 -1 0 0 0 0];

internalField   nonuniform List<vector> 
87
(
(0.0281168 0.000332173 -0.000688803)
(0.0430019 0.000218187 -0.000721487)
(0.0288816 0.000308011 -0.00107708)
(0.0456424 0.000313765 -0.00056141)
(0.0283127 7.0301e-05 -0.00178746)
(0.0500244 0.00035309 0.000302903)
(0.0248773 -0.000873294 -0.00334367)
(0.0597909 0.000887938 0.0030532)
(0.0126672 -0.00430998 -0.010249)
(0.0244365 -0.000193163 -0.000595707)
(0.0405045 -0.000266829 -0.000644839)
(0.0250355 -0.00022675 -0.000715729)
(0.0428387 0.000176145 -0.000303379)
(0.0239993 -0.000608153 -0.000967623)
(0.0460534 0.00103333 0.00100733)
(0.0200492 -0.00216621 -0.00192579)
(0.051996 0.00330185 0.0037143)
(0.00910235 -0.00620038 -0.00340772)
(0.0207352 -4.03189e-05 -0.000596439)
(0.0377771 5.92293e-05 -0.000814684)
(0.0204824 0.000121496 -0.000837345)
(0.0393769 0.000324956 -0.000222645)
(0.0189047 -0.000483357 -0.00173776)
(0.0414494 0.000388331 0.00118743)
(0.0157657 -0.00242757 -0.00378903)
(0.0460014 0.00155056 0.00479449)
(0.00880019 -0.00749061 -0.00965785)
(0.0184504 0.000297484 -0.000430384)
(0.0364012 0.000176127 -0.000443847)
(0.0184716 0.000456532 -0.000607703)
(0.0380535 0.000369595 -2.75894e-05)
(0.0175803 0.000568281 -0.00091416)
(0.0406239 0.000691483 0.00110645)
(0.015001 0.000156405 -0.00218161)
(0.04555 0.000875574 0.0039085)
(0.00748313 -0.00178196 -0.00788853)
(0.0112811 -9.60956e-05 -0.000311559)
(0.0331334 -0.000405876 -0.000268103)
(0.0109435 -8.6292e-05 -0.000236965)
(0.0349398 0.000378855 0.000585804)
(0.010059 -0.000610527 -0.000444897)
(0.0372731 0.00172628 0.00234358)
(0.00915394 -0.00221077 -0.00136642)
(0.0401197 0.00472526 0.00545331)
(0.00651193 -0.00743904 -0.00316969)
(0.00411881 8.75082e-05 -0.000231957)
(0.030487 -0.000103066 0.000205209)
(0.00138329 4.55719e-05 -0.000122827)
(0.0305945 0.000246579 0.00104034)
(-6.07659e-09 -4.21834e-09 -6.97231e-09)
(0.0295777 0.000612132 0.00243834)
(0.000997712 -0.000166954 -0.0003649)
(0.0269226 0.00184235 0.00486924)
(0.00779647 -0.00473154 -0.00785931)
(0.0161941 0.00015374 -0.00148552)
(0.0352157 0.000143776 -0.00118303)
(0.0152732 0.000310933 -0.00202128)
(0.0366067 0.000561744 -0.00112543)
(0.0132808 3.45299e-05 -0.00314339)
(0.0385108 0.00104111 -0.000238203)
(0.0104325 -0.000678996 -0.00529889)
(0.0406033 0.00189126 0.00391851)
(0.00588788 -0.00200116 -0.00824795)
(0.00691046 -0.00027101 -0.000868256)
(0.0316668 0.000130281 -0.000730601)
(0.00633754 -0.000423586 -0.000988612)
(0.0330487 0.000651614 -5.13059e-05)
(0.00614346 -0.000963142 -0.00167045)
(0.0345149 0.00144945 0.0011219)
(0.0067105 -0.00243562 -0.0032509)
(0.0360313 0.00336116 0.0042771)
(0.00578618 -0.00620235 -0.00534637)
(0.00104071 -9.14285e-05 -0.000252682)
(0.0292434 0.000131623 0.000350384)
(0.00101783 -0.000148802 -0.000351453)
(0.0297814 0.00023623 0.00062771)
(0.00192087 -0.000553598 -0.000909848)
(0.029877 0.000198725 0.00159187)
(0.00419756 -0.00235994 -0.00252267)
(0.0283979 0.00301312 0.00394167)
(0.00928908 -0.00843248 -0.00423858)
(0.0137497 -5.32846e-05 -0.000575213)
(0.0326092 4.38706e-05 -0.000321805)
(0.0115047 0.000223966 -0.000590493)
(0.00366664 -0.000515837 -0.00030213)
(0.029278 0.000182661 -0.000364487)
(2.58088e-09 -1.02047e-09 4.63147e-09)
)
;

boundaryField
{
    inlet
    {
        type            fixedValue;
        value           nonuniform 0();
    }
    outlet
    {
        type            zeroGradient;
    }
    wall
    {
        type            fixedValue;
        value           uniform (0 0 0);
    }
    procBoundary1to0
    {
        type            processor;
        value           nonuniform List<vector> 
12
(
(0.0406233 -8.98264e-05 -0.000960758)
(0.0384552 -0.000698507 -0.00094475)
(0.0363877 -0.000360477 -0.0010104)
(0.0350421 -0.000131771 -0.000818186)
(0.0320603 -0.000762614 -0.000866968)
(0.0301582 -0.000275218 -0.000544753)
(0.0340129 -0.000295827 -0.00118426)
(0.0306847 -0.000496469 -0.0010051)
(0.0287617 -0.000167118 -6.86986e-05)
(0.0325677 -0.000316178 -0.00071126)
(0.0290904 -0.000293424 -0.000677459)
(0.0265907 0.000131005 -0.000240464)
)
;
    }
    procBoundary1to3
    {
        type            processor;
        value           nonuniform List<vector> 
27
(
(0.0216687 -1.86591e-05 -0.000195347)
(0.0386293 0.000130028 -0.000586197)
(0.0218234 0.000257539 -0.000267383)
(0.0400199 0.000143347 -1.86142e-05)
(0.0203154 -0.000171131 -0.000298431)
(0.0404732 -0.000272357 0.00150549)
(0.0153965 -0.00134603 -0.000815736)
(0.039158 -0.000425185 0.00379468)
(0.00536294 -0.00314262 -0.00165786)
(0.00607138 0.000110776 -0.000647037)
(0.0312787 0.000514795 -0.000225068)
(0.00417012 0.00021807 -0.000647308)
(0.0318248 0.000343858 0.000715547)
(0.00248885 0.000245656 -0.000647969)
(0.0317348 -0.00036814 0.00245887)
(0.00192406 0.000369957 -0.00089824)
(0.0307255 -0.00237837 0.0071538)
(0.00370886 0.00165849 -0.0035194)
(0.000276125 -6.27055e-06 -8.95053e-05)
(0.028382 -0.000261059 0.000262053)
(-4.12108e-09 2.26222e-10 4.84543e-09)
(0.0279852 -0.000223492 0.000871502)
(-2.80769e-09 -2.06487e-09 -7.16758e-09)
(0.0271951 -0.000337724 0.00179625)
(2.3756e-08 -1.28867e-09 -3.2289e-08)
(0.0242788 -0.000474416 0.00496607)
(0.00700649 0.000429113 -0.00307137)
)
;
    }
    procBoundary1to5
    {
        type            processor;
        value           nonuniform List<vector> 
32
(
(0.0314679 0.00055415 5.45487e-06)
(0.00757234 0.000196851 -0.000647717)
(0.0283889 0.000531861 0.000625139)
(0.00341005 0.000235397 -0.000391832)
(0.0220935 -0.000512558 0.00197632)
(0.00466113 0.000891541 0.000564821)
(0.00158542 -0.000311509 -0.000195365)
(0.0291184 0.000812336 0.000324986)
(0.000405257 -0.000112296 -7.98916e-05)
(0.0286705 0.00185803 0.00166634)
(0.000460961 -0.000145206 -0.000146592)
(0.0259749 0.00343549 0.00411602)
(0.0027411 -0.000547209 -0.00128039)
(0.0264682 0.000420057 -8.22305e-05)
(-4.05041e-10 -8.90589e-10 4.30865e-09)
(0.0262517 0.000425315 0.000192368)
(-3.35241e-10 -1.2215e-09 -2.14868e-09)
(0.0255677 0.000156996 0.000950777)
(0.00132687 -0.000263385 -0.000255433)
(0.0232601 0.000831797 0.0022059)
(0.00922009 -0.00124396 -0.000995454)
(0.0140951 -0.000303439 -1.92081e-05)
(0.0339542 -0.000289159 0.000348089)
(0.0314679 0.00055415 5.45487e-06)
(0.00158542 -0.000311509 -0.000195365)
(0.0135031 -0.000455356 0.000378987)
(0.0024334 -0.000286668 2.88812e-05)
(0.00158542 -0.000311509 -0.000195365)
(0.0264682 0.000420057 -8.22305e-05)
(0.0297358 2.58998e-05 0.000343007)
(0.0264682 0.000420057 -8.22305e-05)
(3.69746e-09 -1.44051e-09 5.55317e-09)
)
;
    }
    procBoundary1to7
    {
        type            processor;
        value           uniform (1.78929e-09 -2.10095e-10 4.42225e-09);
    }
}


// ************************************************************************* //
