/*--------------------------------*- C++ -*----------------------------------*\
| =========                 |                                                 |
| \\      /  F ield         | OpenFOAM: The Open Source CFD Toolbox           |
|  \\    /   O peration     | Version:  4.x                                   |
|   \\  /    A nd           | Web:      www.OpenFOAM.org                      |
|    \\/     M anipulation  |                                                 |
\*---------------------------------------------------------------------------*/
FoamFile
{
    version     2.0;
    format      ascii;
    class       volScalarField;
    location    "8.5";
    object      nu;
}
// * * * * * * * * * * * * * * * * * * * * * * * * * * * * * * * * * * * * * //

dimensions      [0 2 -1 0 0 0 0];

internalField   nonuniform List<scalar> 
87
(
1.00142e-06
1.0015e-06
1.00146e-06
1.00131e-06
1.00108e-06
1.00086e-06
1.00058e-06
1.00046e-06
9.79693e-07
1.00133e-06
1.00114e-06
1.00081e-06
1.00041e-06
1.00005e-06
9.99787e-07
9.99628e-07
9.9961e-07
9.99203e-07
1.001e-06
1.00063e-06
1.00021e-06
9.99861e-07
9.99612e-07
9.9947e-07
9.99443e-07
9.99489e-07
9.99265e-07
1.00118e-06
1.00123e-06
1.00118e-06
1.00108e-06
1.00087e-06
1.00069e-06
1.0004e-06
1.00026e-06
9.93771e-07
1.00067e-06
1.0004e-06
1.00009e-06
9.99827e-07
9.99613e-07
9.99469e-07
9.99391e-07
9.99459e-07
9.98871e-07
1.00037e-06
1.00008e-06
9.99812e-07
9.9959e-07
9.99433e-07
9.99346e-07
9.99325e-07
9.99372e-07
9.99147e-07
1.00088e-06
1.00093e-06
1.00089e-06
1.00083e-06
1.00067e-06
1.00054e-06
1.0003e-06
1.00018e-06
9.966e-07
1.00031e-06
1.0001e-06
9.99878e-07
9.99711e-07
9.99553e-07
9.99497e-07
9.99415e-07
9.99475e-07
9.98876e-07
1.00015e-06
9.9994e-07
9.99734e-07
9.99561e-07
9.99431e-07
9.99367e-07
9.99356e-07
9.99395e-07
9.99107e-07
1.00056e-06
1.00061e-06
1.00061e-06
1.00015e-06
9.99999e-07
1.00006e-06
)
;

boundaryField
{
    inlet
    {
        type            calculated;
        value           nonuniform 0();
    }
    outlet
    {
        type            calculated;
        value           uniform 1e-06;
    }
    wall
    {
        type            calculated;
        value           nonuniform List<scalar> 
57
(
1.00142e-06
1.00133e-06
1.001e-06
1.0015e-06
1.00114e-06
1.00063e-06
1.00146e-06
1.00081e-06
1.00021e-06
1.00131e-06
1.00041e-06
9.99861e-07
1.00108e-06
1.00005e-06
9.99612e-07
1.00086e-06
9.99787e-07
9.9947e-07
1.00058e-06
9.99628e-07
9.99443e-07
1.00046e-06
9.9961e-07
9.99489e-07
9.79693e-07
9.99203e-07
9.99265e-07
1.00142e-06
1.00118e-06
1.00088e-06
1.00056e-06
1.0015e-06
1.00123e-06
1.00093e-06
1.00061e-06
1.00146e-06
1.00118e-06
1.00089e-06
1.00061e-06
1.00131e-06
1.00108e-06
1.00083e-06
1.00108e-06
1.00087e-06
1.00067e-06
1.00086e-06
1.00069e-06
1.00054e-06
1.00058e-06
1.0004e-06
1.0003e-06
1.00046e-06
1.00026e-06
1.00018e-06
9.79693e-07
9.93771e-07
9.966e-07
)
;
    }
    procBoundary1to0
    {
        type            processor;
        value           nonuniform List<scalar> 
12
(
1.00123e-06
1.00131e-06
1.00122e-06
1.00106e-06
1.00086e-06
1.00065e-06
1.00079e-06
1.00048e-06
1.00034e-06
1.00049e-06
1.00026e-06
1.00019e-06
)
;
    }
    procBoundary1to3
    {
        type            processor;
        value           nonuniform List<scalar> 
27
(
1.00087e-06
1.0005e-06
1.00013e-06
9.9982e-07
9.99607e-07
9.99479e-07
9.9942e-07
9.9941e-07
9.96582e-07
1.00043e-06
1.00016e-06
9.99904e-07
9.9968e-07
9.99515e-07
9.99403e-07
9.99357e-07
9.99355e-07
9.98993e-07
1.00024e-06
1.00007e-06
9.9992e-07
9.99761e-07
9.99621e-07
9.99505e-07
9.99453e-07
9.99447e-07
9.99497e-07
)
;
    }
    procBoundary1to5
    {
        type            processor;
        value           nonuniform List<scalar> 
32
(
1.00059e-06
1.0005e-06
1.00043e-06
1.00025e-06
1.00017e-06
9.98827e-07
9.99841e-07
9.99734e-07
9.99601e-07
9.99582e-07
9.99507e-07
9.99567e-07
9.99337e-07
9.99915e-07
9.99761e-07
9.99622e-07
9.9951e-07
9.99442e-07
9.99436e-07
9.9947e-07
9.99446e-07
1.00034e-06
1.00036e-06
1.00059e-06
9.99841e-07
1.00034e-06
9.9995e-07
9.99841e-07
9.99915e-07
9.998e-07
9.99915e-07
9.99986e-07
)
;
    }
    procBoundary1to7
    {
        type            processor;
        value           uniform 1.00017e-06;
    }
}


// ************************************************************************* //
