/*--------------------------------*- C++ -*----------------------------------*\
| =========                 |                                                 |
| \\      /  F ield         | OpenFOAM: The Open Source CFD Toolbox           |
|  \\    /   O peration     | Version:  4.x                                   |
|   \\  /    A nd           | Web:      www.OpenFOAM.org                      |
|    \\/     M anipulation  |                                                 |
\*---------------------------------------------------------------------------*/
FoamFile
{
    version     2.0;
    format      ascii;
    class       volScalarField;
    location    "8.5";
    object      p_rgh;
}
// * * * * * * * * * * * * * * * * * * * * * * * * * * * * * * * * * * * * * //

dimensions      [1 -1 -2 0 0 0 0];

internalField   nonuniform List<scalar> 
87
(
27.3715
77.7735
9.74838
71.0307
-11.3843
63.5595
-34.5324
58.3501
-177.147
27.6724
76.7258
7.30784
66.5963
-15.0874
57.4629
-35.7051
51.3397
-54.9333
26.2073
74.9029
4.22973
64.4451
-17.5082
56.5945
-36.6576
51.2631
-53.6153
25.3031
75.1305
7.12158
68.6511
-14.0298
62.2765
-38.472
58.2932
-94.1128
23.9393
72.413
3.71088
63.7981
-17.0889
56.3386
-37.1381
50.9498
-56.6052
23.1189
71.4876
2.70075
63.5752
-17.3772
57.297
-36.3346
51.6392
-57.7441
24.356
73.1589
6.33301
66.4084
-13.7672
60.1969
-36.4626
56.1164
-74.3745
23.5298
71.6482
4.63141
63.6964
-14.7288
56.2701
-33.8717
50.4538
-52.3469
23.8226
71.7192
5.22989
64.0358
-13.4918
57.1482
-31.3627
52.1603
-44.3343
22.7875
71.5929
4.07809
22.8702
71.5281
22.9771
)
;

boundaryField
{
    inlet
    {
        type            fixedFluxPressure;
        gradient        nonuniform 0();
        value           nonuniform 0();
    }
    outlet
    {
        type            fixedValue;
        value           uniform 0;
    }
    wall
    {
        type            fixedFluxPressure;
        gradient        nonuniform List<scalar> 
57
(
-0.000688794
-0.000828017
-0.00134336
-0.000958383
-0.000594605
-0.000337534
-0.000478974
-0.000937647
-0.00147537
2.45793e-05
-4.50645e-05
-6.12315e-06
-0.000271118
0.000435099
0.00117458
-8.66101e-05
-0.000169676
7.95807e-06
-0.000457772
-0.00091097
-0.00250601
-0.00174455
-0.000806201
-0.000761046
-0.00383527
-0.00369163
-0.00196151
-0.000279054
-0.000248453
2.72389e-05
8.13079e-05
-0.010077
-8.22608e-05
8.66227e-06
0.000191966
-5.20985e-05
-9.52707e-05
6.14193e-05
6.02085e-05
-6.48118e-05
-8.97326e-05
-0.000125725
-0.000270135
-9.11776e-05
-0.000220988
-0.000198816
2.87736e-05
-3.47755e-05
-0.000153499
6.67256e-05
5.83867e-05
0.0010641
5.62748e-06
1.85323e-05
-9.60938e-05
-5.44188e-05
0.000172286
)
;
        value           nonuniform List<scalar> 
57
(
27.3715
27.6724
26.2073
77.7735
76.7258
74.9029
9.74837
7.30783
4.22971
71.0307
66.5963
64.4451
-11.3843
-15.0874
-17.5081
63.5595
57.4629
56.5945
-34.5324
-35.7051
-36.6576
58.3501
51.3397
51.2631
-177.147
-54.9333
-53.6153
27.3715
25.3031
24.356
22.7875
77.7734
75.1305
73.1589
71.5929
9.74838
7.12158
6.33301
4.07809
71.0307
68.6511
66.4084
-11.3843
-14.0298
-13.7672
63.5595
62.2765
60.1969
-34.5324
-38.472
-36.4626
58.3502
58.2932
56.1164
-177.147
-94.1128
-74.3745
)
;
    }
    procBoundary1to0
    {
        type            processor;
        value           nonuniform List<scalar> 
12
(
82.6512
83.7503
84.1068
80.7991
80.7625
80.4113
79.5741
79.5785
79.5955
78.627
79.0884
79.1122
)
;
    }
    procBoundary1to3
    {
        type            processor;
        value           nonuniform List<scalar> 
27
(
26.078
73.5433
4.09436
63.3226
-17.2782
55.6342
-38.1019
50.9156
-77.1868
23.6569
71.6359
3.43079
62.978
-16.6258
55.7138
-35.7751
49.9899
-54.3566
24.4234
71.5763
5.76985
63.4108
-13.0759
56.0875
-31.5671
49.6864
-49.7859
)
;
    }
    procBoundary1to5
    {
        type            processor;
        value           nonuniform List<scalar> 
32
(
64.9404
-16.5634
59.4335
-40.7786
57.5239
-72.6638
3.96011
64.0717
-15.3437
57.1514
-34.9283
51.9565
-52.313
71.6387
4.36574
64.5325
-14.6114
58.4398
-33.4248
54.0955
-51.4225
23.3248
71.2156
64.9404
3.96011
5.28891
24.2826
3.96011
71.6387
72.0053
71.6387
25.0548
)
;
    }
    procBoundary1to7
    {
        type            processor;
        value           uniform 24.0206;
    }
}


// ************************************************************************* //
