/*--------------------------------*- C++ -*----------------------------------*\
| =========                 |                                                 |
| \\      /  F ield         | OpenFOAM: The Open Source CFD Toolbox           |
|  \\    /   O peration     | Version:  4.x                                   |
|   \\  /    A nd           | Web:      www.OpenFOAM.org                      |
|    \\/     M anipulation  |                                                 |
\*---------------------------------------------------------------------------*/
FoamFile
{
    version     2.0;
    format      ascii;
    class       volScalarField;
    location    "8.5";
    object      Qsource;
}
// * * * * * * * * * * * * * * * * * * * * * * * * * * * * * * * * * * * * * //

dimensions      [1 -1 -3 0 0 0 0];

internalField   nonuniform List<scalar> 
87
(
5.99358e+09
9.10196e+09
5.59753e+09
8.39036e+09
4.79002e+09
7.47001e+09
6.14355e+09
8.36248e+09
5.7914e+09
4.8631e+09
5.07875e+09
5.61572e+09
6.21509e+09
4.60578e+09
6.82561e+09
7.05687e+09
6.43815e+09
4.38259e+09
3.93881e+09
7.27988e+09
5.35775e+09
9.29033e+09
5.57615e+09
6.01726e+09
4.87638e+09
6.05784e+09
4.10504e+09
8.00048e+09
7.62635e+09
7.01601e+09
8.71816e+09
7.1592e+09
9.08237e+09
9.81228e+09
1.07663e+10
7.5328e+09
9.29374e+09
6.50263e+09
7.5014e+09
9.08124e+09
8.45684e+09
7.40426e+09
8.95764e+09
9.92496e+09
5.22888e+09
8.92146e+09
8.19942e+09
6.88507e+09
6.53817e+09
5.64779e+09
8.80513e+09
8.67616e+09
1.2334e+10
3.80586e+09
7.97329e+09
8.12836e+09
9.28977e+09
1.08838e+10
7.29795e+09
1.13456e+10
9.00159e+09
9.67465e+09
4.48201e+09
9.01744e+09
8.88517e+09
6.44095e+09
8.01905e+09
8.27436e+09
9.09759e+09
7.80631e+09
9.25352e+09
4.26926e+09
8.33471e+09
7.82405e+09
5.47945e+09
1.11048e+10
8.75422e+09
1.05275e+10
7.18774e+09
9.30801e+09
3.03255e+09
7.5041e+09
6.81819e+09
9.33132e+09
8.17342e+09
1.25584e+10
6.14352e+09
)
;

boundaryField
{
    inlet
    {
        type            calculated;
        value           nonuniform 0();
    }
    outlet
    {
        type            calculated;
        value           uniform 0;
    }
    wall
    {
        type            calculated;
        value           uniform 0;
    }
    procBoundary1to0
    {
        type            processor;
        value           nonuniform List<scalar> 
12
(
2.04571e+09
6.43896e+09
9.35769e+09
8.27854e+09
8.5425e+09
6.15422e+09
6.30269e+09
7.63432e+09
5.35184e+09
7.00498e+09
6.94753e+09
9.45035e+09
)
;
    }
    procBoundary1to3
    {
        type            processor;
        value           nonuniform List<scalar> 
27
(
7.61361e+09
4.36192e+09
6.10497e+09
3.85305e+09
4.54381e+09
4.52377e+09
5.5566e+09
5.56059e+09
4.3278e+09
8.1988e+09
7.82993e+09
9.86431e+09
1.02634e+10
8.44603e+09
7.72513e+09
6.83223e+09
8.11812e+09
8.12134e+09
8.40483e+09
1.08672e+10
9.54063e+09
1.03555e+10
6.73327e+09
7.8172e+09
9.20321e+09
7.93267e+09
6.9401e+09
)
;
    }
    procBoundary1to5
    {
        type            processor;
        value           nonuniform List<scalar> 
32
(
9.66927e+09
9.19811e+09
9.44223e+09
7.75186e+09
1.12954e+10
8.52976e+09
7.82678e+09
7.41728e+09
6.53466e+09
8.79742e+09
9.44629e+09
1.10519e+10
7.53445e+09
1.02386e+10
6.44802e+09
8.90728e+09
6.27802e+09
5.46276e+09
7.37151e+09
6.62955e+09
6.69696e+09
7.17656e+09
6.70195e+09
9.66927e+09
7.82678e+09
8.48968e+09
8.14774e+09
7.82678e+09
1.02386e+10
8.23348e+09
1.02386e+10
8.5339e+09
)
;
    }
    procBoundary1to7
    {
        type            processor;
        value           uniform 1.06141e+10;
    }
}


// ************************************************************************* //
