/*--------------------------------*- C++ -*----------------------------------*\
| =========                 |                                                 |
| \\      /  F ield         | OpenFOAM: The Open Source CFD Toolbox           |
|  \\    /   O peration     | Version:  4.x                                   |
|   \\  /    A nd           | Web:      www.OpenFOAM.org                      |
|    \\/     M anipulation  |                                                 |
\*---------------------------------------------------------------------------*/
FoamFile
{
    version     2.0;
    format      ascii;
    class       volScalarField;
    location    "8.5";
    object      Sm;
}
// * * * * * * * * * * * * * * * * * * * * * * * * * * * * * * * * * * * * * //

dimensions      [1 -3 -1 0 0 0 0];

internalField   nonuniform List<scalar> 
87
(
3.71967e-65
5.88957e-65
3.79721e-65
5.11464e-65
3.25477e-65
4.88206e-65
4.417e-65
5.03681e-65
4.80428e-65
3.64205e-65
3.25466e-65
4.64945e-65
4.1845e-65
3.71948e-65
5.03682e-65
6.58635e-65
4.57159e-65
3.95168e-65
3.48697e-65
5.50172e-65
5.50164e-65
7.43883e-65
5.50152e-65
4.33928e-65
4.95892e-65
4.57144e-65
4.49385e-65
6.43177e-65
5.6569e-65
5.34693e-65
6.19935e-65
5.81181e-65
6.58661e-65
8.36866e-65
7.28368e-65
6.35373e-65
7.51645e-65
5.03673e-65
6.43157e-65
6.97395e-65
6.97388e-65
5.65644e-65
7.51597e-65
7.59306e-65
5.50084e-65
8.13601e-65
6.58637e-65
6.19892e-65
5.26904e-65
5.26894e-65
7.3608e-65
8.058e-65
1.03045e-64
4.88087e-65
7.05159e-65
5.81178e-65
7.67152e-65
7.90397e-65
5.81168e-65
8.44609e-65
7.0512e-65
5.73387e-65
4.18398e-65
7.67117e-65
7.05135e-65
5.65659e-65
6.12148e-65
6.97367e-65
6.97356e-65
6.58584e-65
7.20549e-65
4.41602e-65
7.90341e-65
6.35374e-65
5.114e-65
9.06566e-65
8.29065e-65
8.75529e-65
6.81799e-65
7.90244e-65
3.48622e-65
6.58657e-65
5.26934e-65
8.05895e-65
7.05126e-65
9.99578e-65
5.7338e-65
)
;

boundaryField
{
    inlet
    {
        type            calculated;
        value           nonuniform 0();
    }
    outlet
    {
        type            calculated;
        value           uniform 0;
    }
    wall
    {
        type            calculated;
        value           uniform 0;
    }
    procBoundary1to0
    {
        type            processor;
        value           nonuniform List<scalar> 
12
(
1.70481e-65
4.26195e-65
7.2065e-65
6.1993e-65
6.74145e-65
4.95915e-65
4.72688e-65
6.27644e-65
4.5716e-65
4.95934e-65
5.50148e-65
8.05832e-65
)
;
    }
    procBoundary1to3
    {
        type            processor;
        value           nonuniform List<scalar> 
27
(
6.97385e-65
3.25449e-65
5.81154e-65
2.55712e-65
4.10678e-65
3.02198e-65
4.72647e-65
3.87416e-65
4.57136e-65
7.51609e-65
6.27626e-65
8.9883e-65
8.52336e-65
7.59339e-65
6.2761e-65
6.04338e-65
6.43056e-65
9.06463e-65
7.67088e-65
8.98812e-65
8.83314e-65
8.52319e-65
6.12107e-65
6.27588e-65
8.52253e-65
6.8177e-65
7.74722e-65
)
;
    }
    procBoundary1to5
    {
        type            processor;
        value           nonuniform List<scalar> 
32
(
6.81911e-65
8.05884e-65
6.35401e-65
6.74126e-65
7.59352e-65
8.44558e-65
6.81882e-65
5.65652e-65
5.81141e-65
6.66358e-65
8.21297e-65
8.52269e-65
7.90259e-65
8.44575e-65
6.04379e-65
7.43842e-65
5.8112e-65
4.57138e-65
6.97303e-65
5.73317e-65
8.67685e-65
6.27667e-65
4.88194e-65
6.81911e-65
6.81882e-65
6.97408e-65
7.12883e-65
6.81882e-65
8.44575e-65
6.81894e-65
8.44575e-65
8.21341e-65
)
;
    }
    procBoundary1to7
    {
        type            processor;
        value           uniform 9.91783e-65;
    }
}


// ************************************************************************* //
