/*--------------------------------*- C++ -*----------------------------------*\
| =========                 |                                                 |
| \\      /  F ield         | OpenFOAM: The Open Source CFD Toolbox           |
|  \\    /   O peration     | Version:  4.x                                   |
|   \\  /    A nd           | Web:      www.OpenFOAM.org                      |
|    \\/     M anipulation  |                                                 |
\*---------------------------------------------------------------------------*/
FoamFile
{
    version     2.0;
    format      ascii;
    class       volScalarField;
    location    "24.5";
    object      QPartFluid;
}
// * * * * * * * * * * * * * * * * * * * * * * * * * * * * * * * * * * * * * //

dimensions      [1 -1 -3 0 0 0 0];

internalField   nonuniform List<scalar> 
114
(
7.1655e+09
5.57133e+09
3.07096e+09
5.97613e+09
2.82617e+09
3.03766e+09
5.78304e+09
6.95102e+09
6.09848e+09
4.41681e+09
7.32893e+09
5.03993e+09
7.02311e+09
6.83844e+09
4.50519e+09
3.85128e+09
6.19394e+09
5.08363e+09
5.42426e+09
5.78397e+09
5.26772e+09
6.77172e+09
5.44573e+09
6.50193e+09
3.95696e+09
4.01316e+09
5.12788e+09
4.57069e+09
3.9431e+09
4.1241e+09
3.0545e+09
5.35532e+09
3.96534e+09
9.88999e+09
1.22093e+10
6.64669e+09
1.12098e+10
4.7088e+09
7.9765e+09
9.57556e+09
9.25282e+09
8.87603e+09
7.1559e+09
1.12094e+10
8.87452e+09
6.44863e+09
5.82711e+09
1.0056e+10
1.06144e+10
9.21195e+09
9.41102e+09
8.89451e+09
9.14487e+09
8.93134e+09
7.68583e+09
5.04003e+09
5.41989e+09
8.31742e+09
6.04073e+09
7.5613e+09
6.5723e+09
6.69669e+09
7.12834e+09
4.79684e+09
7.88568e+09
9.15881e+09
6.83601e+09
5.76759e+09
6.73715e+09
6.84312e+09
6.75409e+09
7.79821e+09
9.84445e+09
7.28959e+09
5.74679e+09
4.96498e+09
6.99018e+09
9.04669e+09
1.05262e+10
9.14327e+09
7.08071e+09
9.43048e+09
8.51949e+09
1.02047e+10
4.97566e+09
7.63348e+09
6.93832e+09
7.52558e+09
4.76148e+09
6.85006e+09
9.6389e+09
5.40094e+09
7.69658e+09
4.87368e+09
9.54232e+09
1.02905e+10
7.36814e+09
8.25533e+09
6.41427e+09
7.5968e+09
7.92724e+09
5.84947e+09
7.95538e+09
1.04859e+10
6.64569e+09
9.0662e+09
7.72054e+09
1.02745e+10
4.23435e+09
6.34482e+09
7.46798e+09
7.2899e+09
6.7087e+09
6.53646e+09
)
;

boundaryField
{
    inlet
    {
        type            calculated;
        value           uniform 0;
    }
    outlet
    {
        type            calculated;
        value           nonuniform 0();
    }
    wall
    {
        type            calculated;
        value           uniform 0;
    }
    procBoundary2to0
    {
        type            processor;
        value           nonuniform List<scalar> 
44
(
5.10407e+09
5.55275e+09
4.93529e+09
3.99833e+09
5.22606e+09
8.52e+09
2.95054e+09
4.54355e+09
3.49568e+09
3.49568e+09
5.52892e+09
1.12808e+10
7.70356e+09
1.05196e+10
6.99416e+09
6.33974e+09
7.92419e+09
7.07408e+09
7.75406e+09
5.52892e+09
1.12808e+10
1.12808e+10
7.99144e+09
8.63701e+09
6.27332e+09
5.32766e+09
6.87285e+09
8.69015e+09
9.50863e+09
8.97568e+09
9.89521e+09
7.99144e+09
8.63701e+09
8.63701e+09
5.53776e+09
2.59234e+09
4.81384e+09
6.76696e+09
9.62489e+09
1.04462e+10
5.47393e+09
9.86319e+09
8.47258e+09
5.53776e+09
)
;
    }
    procBoundary2to3
    {
        type            processor;
        value           nonuniform List<scalar> 
12
(
8.61642e+09
6.40316e+09
6.66683e+09
4.36519e+09
8.62431e+09
7.8377e+09
1.27538e+10
8.45669e+09
8.09013e+09
9.61526e+09
6.03576e+09
8.8107e+09
)
;
    }
    procBoundary2to6
    {
        type            processor;
        value           nonuniform List<scalar> 
32
(
8.10405e+09
6.76739e+09
8.86769e+09
5.65914e+09
6.23554e+09
5.58763e+09
9.93128e+09
8.98614e+09
6.07798e+09
8.10825e+09
1.1081e+10
6.22156e+09
8.68875e+09
8.10405e+09
6.76739e+09
6.65697e+09
6.27371e+09
9.26542e+09
8.14058e+09
1.02733e+10
8.81429e+09
8.80765e+09
6.76739e+09
5.65914e+09
8.70208e+09
4.64258e+09
7.63535e+09
5.92586e+09
6.18293e+09
8.64896e+09
5.65914e+09
9.52594e+09
)
;
    }
}


// ************************************************************************* //
