/*--------------------------------*- C++ -*----------------------------------*\
| =========                 |                                                 |
| \\      /  F ield         | OpenFOAM: The Open Source CFD Toolbox           |
|  \\    /   O peration     | Version:  4.x                                   |
|   \\  /    A nd           | Web:      www.OpenFOAM.org                      |
|    \\/     M anipulation  |                                                 |
\*---------------------------------------------------------------------------*/
FoamFile
{
    version     2.0;
    format      ascii;
    class       volScalarField;
    location    "24.5";
    object      QPartFluidCoeff;
}
// * * * * * * * * * * * * * * * * * * * * * * * * * * * * * * * * * * * * * //

dimensions      [1 -1 -3 -1 0 0 0];

internalField   nonuniform List<scalar> 
114
(
-2.3885e+07
-1.85711e+07
-1.02365e+07
-1.99204e+07
-9.42056e+06
-1.01255e+07
-1.92768e+07
-2.31701e+07
-2.03283e+07
-1.47227e+07
-2.44298e+07
-1.67998e+07
-2.34104e+07
-2.27948e+07
-1.50173e+07
-1.28376e+07
-2.06465e+07
-1.69454e+07
-1.80809e+07
-1.92799e+07
-1.75591e+07
-2.25724e+07
-1.81524e+07
-2.16731e+07
-1.31899e+07
-1.33772e+07
-1.70929e+07
-1.52356e+07
-1.31437e+07
-1.3747e+07
-1.01817e+07
-1.78511e+07
-1.32178e+07
-3.29666e+07
-4.06977e+07
-2.21556e+07
-3.73658e+07
-1.5696e+07
-2.65883e+07
-3.19185e+07
-3.08427e+07
-2.95868e+07
-2.3853e+07
-3.73646e+07
-2.95817e+07
-2.14954e+07
-1.94237e+07
-3.35199e+07
-3.53813e+07
-3.07065e+07
-3.13701e+07
-2.96484e+07
-3.04829e+07
-2.97711e+07
-2.56194e+07
-1.68001e+07
-1.80663e+07
-2.77247e+07
-2.01358e+07
-2.52043e+07
-2.19077e+07
-2.23223e+07
-2.37611e+07
-1.59895e+07
-2.62856e+07
-3.05294e+07
-2.27867e+07
-1.92253e+07
-2.24572e+07
-2.28104e+07
-2.25136e+07
-2.5994e+07
-3.28148e+07
-2.42986e+07
-1.9156e+07
-1.65499e+07
-2.33006e+07
-3.01556e+07
-3.50875e+07
-3.04776e+07
-2.36024e+07
-3.14349e+07
-2.83983e+07
-3.40156e+07
-1.65855e+07
-2.54449e+07
-2.31277e+07
-2.50853e+07
-1.58716e+07
-2.28335e+07
-3.21297e+07
-1.80031e+07
-2.56553e+07
-1.62456e+07
-3.18077e+07
-3.43018e+07
-2.45605e+07
-2.75178e+07
-2.13809e+07
-2.53227e+07
-2.64241e+07
-1.94982e+07
-2.65179e+07
-3.49529e+07
-2.21523e+07
-3.02207e+07
-2.57351e+07
-3.42483e+07
-1.41145e+07
-2.11494e+07
-2.48933e+07
-2.42997e+07
-2.23623e+07
-2.17882e+07
)
;

boundaryField
{
    inlet
    {
        type            calculated;
        value           uniform 0;
    }
    outlet
    {
        type            calculated;
        value           nonuniform 0();
    }
    wall
    {
        type            calculated;
        value           uniform 0;
    }
    procBoundary2to0
    {
        type            processor;
        value           nonuniform List<scalar> 
44
(
385.795
419.709
373.037
302.217
395.016
643.991
223.019
343.428
264.224
264.224
417.908
852.666
582.28
795.134
528.659
479.194
598.956
534.7
586.097
417.908
852.666
852.666
604.039
652.835
474.174
402.696
519.489
656.852
718.717
678.434
747.937
604.039
652.835
652.835
418.576
195.944
363.858
511.486
727.505
789.586
413.751
745.517
640.406
418.576
)
;
    }
    procBoundary2to3
    {
        type            processor;
        value           nonuniform List<scalar> 
12
(
651.279
483.988
503.918
329.946
651.876
592.419
964.008
639.206
611.499
726.777
456.218
665.964
)
;
    }
    procBoundary2to6
    {
        type            processor;
        value           nonuniform List<scalar> 
32
(
612.551
511.518
670.272
427.751
471.319
422.345
750.664
679.224
459.409
612.868
837.563
470.261
656.746
612.551
511.518
503.172
474.203
700.334
615.312
776.512
666.235
665.733
511.518
427.751
657.754
350.913
577.124
447.911
467.342
653.738
427.751
720.026
)
;
    }
}


// ************************************************************************* //
