/*--------------------------------*- C++ -*----------------------------------*\
| =========                 |                                                 |
| \\      /  F ield         | OpenFOAM: The Open Source CFD Toolbox           |
|  \\    /   O peration     | Version:  4.x                                   |
|   \\  /    A nd           | Web:      www.OpenFOAM.org                      |
|    \\/     M anipulation  |                                                 |
\*---------------------------------------------------------------------------*/
FoamFile
{
    version     2.0;
    format      ascii;
    class       volScalarField;
    location    "24.5";
    object      Qsource;
}
// * * * * * * * * * * * * * * * * * * * * * * * * * * * * * * * * * * * * * //

dimensions      [1 -1 -3 0 0 0 0];

internalField   nonuniform List<scalar> 
114
(
7.71389e+09
6.48425e+09
3.68543e+09
6.92654e+09
3.4887e+09
4.02603e+09
6.60801e+09
7.40216e+09
6.95697e+09
4.93268e+09
8.21533e+09
5.60116e+09
7.93675e+09
7.43131e+09
5.4479e+09
4.68293e+09
6.66259e+09
5.95811e+09
5.97715e+09
6.69822e+09
5.87902e+09
7.7183e+09
6.09524e+09
7.47638e+09
5.62436e+09
5.02105e+09
6.92379e+09
5.80642e+09
5.86986e+09
5.54198e+09
5.09827e+09
6.90346e+09
6.09372e+09
9.88999e+09
1.22093e+10
6.64669e+09
1.12098e+10
4.7088e+09
7.9765e+09
9.57556e+09
9.25282e+09
8.87603e+09
7.1559e+09
1.12094e+10
8.87452e+09
6.44863e+09
5.82711e+09
1.0056e+10
1.06144e+10
9.21195e+09
9.41102e+09
8.89451e+09
9.14487e+09
8.93134e+09
7.68583e+09
5.86151e+09
5.88569e+09
9.17286e+09
6.56705e+09
8.45109e+09
7.14696e+09
7.61802e+09
7.73556e+09
5.74893e+09
7.88568e+09
9.15881e+09
6.83601e+09
5.76759e+09
6.73715e+09
6.84312e+09
6.75409e+09
7.79821e+09
9.84445e+09
7.28959e+09
5.74679e+09
4.96498e+09
6.99018e+09
9.04669e+09
1.05262e+10
9.14327e+09
7.08071e+09
9.43048e+09
8.51949e+09
1.02047e+10
5.78973e+09
8.0694e+09
7.76614e+09
7.98973e+09
5.60627e+09
7.33965e+09
1.04909e+10
5.90072e+09
8.56268e+09
4.87368e+09
9.54232e+09
1.02905e+10
7.36814e+09
8.25533e+09
6.41427e+09
7.5968e+09
7.92724e+09
5.84947e+09
7.95538e+09
1.04859e+10
6.64569e+09
9.0662e+09
7.72054e+09
1.02745e+10
5.04166e+09
6.78737e+09
8.28941e+09
7.75705e+09
7.5458e+09
7.02559e+09
)
;

boundaryField
{
    inlet
    {
        type            calculated;
        value           uniform 0;
    }
    outlet
    {
        type            calculated;
        value           nonuniform 0();
    }
    wall
    {
        type            calculated;
        value           uniform 0;
    }
    procBoundary2to0
    {
        type            processor;
        value           nonuniform List<scalar> 
44
(
5.64861e+09
6.46512e+09
5.53703e+09
4.94383e+09
5.86439e+09
9.47989e+09
3.78865e+09
5.01323e+09
4.37427e+09
4.37427e+09
5.52892e+09
1.12808e+10
7.70356e+09
1.05196e+10
6.99416e+09
6.33974e+09
7.92419e+09
7.07408e+09
7.75406e+09
5.52892e+09
1.12808e+10
1.12808e+10
7.99144e+09
8.63701e+09
6.27332e+09
5.32766e+09
6.87285e+09
8.69015e+09
9.50863e+09
8.97568e+09
9.89521e+09
7.99144e+09
8.63701e+09
8.63701e+09
5.53776e+09
2.59234e+09
4.81384e+09
6.76696e+09
9.62489e+09
1.04462e+10
5.47393e+09
9.86319e+09
8.47258e+09
5.53776e+09
)
;
    }
    procBoundary2to3
    {
        type            processor;
        value           nonuniform List<scalar> 
12
(
9.3063e+09
7.01922e+09
7.34117e+09
6.00069e+09
8.62431e+09
7.8377e+09
1.27538e+10
9.08392e+09
8.09013e+09
9.61526e+09
6.03576e+09
9.3089e+09
)
;
    }
    procBoundary2to6
    {
        type            processor;
        value           nonuniform List<scalar> 
32
(
8.10405e+09
6.76739e+09
8.86769e+09
6.51471e+09
6.7459e+09
6.46441e+09
9.93128e+09
8.98614e+09
6.07798e+09
8.10825e+09
1.1081e+10
6.22156e+09
8.68875e+09
8.10405e+09
6.76739e+09
6.65697e+09
6.27371e+09
9.26542e+09
8.14058e+09
1.02733e+10
8.81429e+09
8.80765e+09
6.76739e+09
6.51471e+09
8.70208e+09
5.44925e+09
8.06759e+09
6.73628e+09
6.62428e+09
9.45572e+09
6.51471e+09
9.95817e+09
)
;
    }
}


// ************************************************************************* //
