/*--------------------------------*- C++ -*----------------------------------*\
| =========                 |                                                 |
| \\      /  F ield         | OpenFOAM: The Open Source CFD Toolbox           |
|  \\    /   O peration     | Version:  4.x                                   |
|   \\  /    A nd           | Web:      www.OpenFOAM.org                      |
|    \\/     M anipulation  |                                                 |
\*---------------------------------------------------------------------------*/
FoamFile
{
    version     2.0;
    format      ascii;
    class       volVectorField;
    location    "24.5";
    object      U;
}
// * * * * * * * * * * * * * * * * * * * * * * * * * * * * * * * * * * * * * //

dimensions      [0 1 -1 0 0 0 0];

internalField   nonuniform List<vector> 
114
(
(0.0175701 -0.00014553 -0.000765601)
(0.0332504 -0.000147906 -0.00141752)
(0.0201839 -0.000136517 -0.000705595)
(0.0350319 -0.000114431 -0.00110031)
(0.0221785 4.13524e-05 -0.000448546)
(0.03674 0.00011773 -0.000779336)
(0.0289922 0.00013248 -0.00111661)
(0.0137189 8.13777e-05 -0.000670877)
(0.0306621 0.000267425 -0.0012663)
(0.0162413 0.000165256 -0.000581191)
(0.032171 0.000161561 -0.000991042)
(0.0181298 -3.77791e-05 -0.000437657)
(0.0335724 -7.77861e-05 -0.000770585)
(0.0195448 -0.000264972 -0.00012)
(0.0347955 -0.000168797 -0.00049896)
(0.0291325 0.000886716 -0.00123651)
(0.0143428 0.000447306 -0.000719032)
(0.0313336 0.000876986 -0.00131391)
(0.0177035 0.000505963 -0.000613412)
(0.0332065 0.000811842 -0.00102461)
(0.0201033 0.000350785 -0.000445997)
(0.0348757 0.000578926 -0.000772597)
(0.0217987 9.0103e-05 -0.000255403)
(0.0363135 0.000357321 -0.00061536)
(0.0291579 0.000600256 -0.00100121)
(0.015598 0.00035398 -0.000617043)
(0.0322743 0.00064052 -0.00102781)
(0.0202428 0.000368308 -0.00054441)
(0.0351584 0.000604226 -0.000792148)
(0.0239874 0.000261534 -0.000379977)
(0.0378845 0.000464226 -0.000543651)
(0.0269719 5.46667e-05 -0.000124962)
(0.0401242 0.000281058 -0.000370394)
(0.00961552 -2.32224e-05 -0.00091556)
(0.0291203 7.68675e-05 -0.00179636)
(0.0083162 4.70107e-05 -0.00077487)
(0.0294051 0.000339552 -0.00119487)
(0.0288452 0.000342017 -0.00243561)
(0.011851 8.05926e-05 -0.00131437)
(0.0290994 0.000366928 -0.0026911)
(0.010929 0.000215821 -0.00115039)
(0.0290512 0.000473824 -0.00220137)
(0.00983003 8.87394e-05 -0.000998072)
(0.0293292 0.000155575 -0.00172691)
(0.00871137 -9.23389e-05 -0.000859492)
(0.0297179 -3.684e-05 -0.00128289)
(0.028945 0.000997471 -0.0024364)
(0.0123057 0.000498584 -0.00140281)
(0.029491 0.00108685 -0.00272827)
(0.0120833 0.000457599 -0.00123448)
(0.0297166 0.000969381 -0.00223308)
(0.0116267 0.000301011 -0.00105394)
(0.0300321 0.000757798 -0.00187961)
(0.0106525 3.36747e-05 -0.000944173)
(0.0303118 0.00047486 -0.00148212)
(0.0290192 0.000823418 -0.00220597)
(0.0143211 0.000472059 -0.00139845)
(0.0309411 0.000916821 -0.00238941)
(0.0168591 0.000437918 -0.0014295)
(0.0326012 0.000839319 -0.0020525)
(0.0188495 0.000331588 -0.00146636)
(0.0341328 0.000710189 -0.0017493)
(0.0202973 0.000204904 -0.00133488)
(0.0355937 0.00058236 -0.00152402)
(0.00224842 -4.15081e-05 -0.00032831)
(0.0272201 -4.29913e-05 -0.000654335)
(0.0287929 0.000574391 -0.00193606)
(0.0109184 0.000199194 -0.00101305)
(0.0281199 0.000519695 -0.00174775)
(0.00833645 0.000145379 -0.000631715)
(0.0276114 0.000379664 -0.00113332)
(0.00582265 -1.30296e-06 -0.000388084)
(0.0274208 -7.43376e-05 -0.000711588)
(0.00344507 -5.1776e-05 -0.000304566)
(0.0271923 -0.000246697 -0.000452886)
(0.0288979 0.00113375 -0.00189055)
(0.0113714 0.00050103 -0.00103545)
(0.0286212 0.00126192 -0.00180107)
(0.00936807 0.000453623 -0.000781259)
(0.0281367 0.00111722 -0.0012698)
(0.0072443 0.000267762 -0.000551326)
(0.0278489 0.000818557 -0.000740823)
(0.00470333 0.00014436 -0.000361384)
(0.027638 0.000486216 -0.00024178)
(0.0290494 0.000852557 -0.00173612)
(0.0134335 0.000519284 -0.00109018)
(0.0301178 0.00110328 -0.00174707)
(0.0146763 0.000515411 -0.00107424)
(0.0309505 0.00100473 -0.00136169)
(0.0157429 0.000338484 -0.000932936)
(0.0316922 0.00089648 -0.000939773)
(0.0161488 0.000323274 -0.000914537)
(0.0323348 0.000692207 -0.000728818)
(0.0286671 0.000542777 -0.00169561)
(0.0108121 0.000345408 -0.00080223)
(0.0280749 0.000778294 -0.00148342)
(0.00849473 0.000295062 -0.000659382)
(0.0278005 0.000631418 -0.00104447)
(0.00691721 0.000286005 -0.000478971)
(0.0278998 0.000502726 -0.000604362)
(0.0056538 0.00031283 -0.000565047)
(0.028735 0.0012157 -0.00146789)
(0.0115699 0.000585051 -0.000786872)
(0.0284747 0.0011851 -0.00132457)
(0.00995664 0.000382626 -0.000713515)
(0.0282484 0.000939534 -0.001059)
(0.00862865 0.00026419 -0.000568496)
(0.0283793 0.000782742 -0.000671416)
(0.0290149 0.000992164 -0.00133863)
(0.0138162 0.000567954 -0.000900597)
(0.0301449 0.00107204 -0.00142057)
(0.0149613 0.000512491 -0.00107922)
(0.0310483 0.00094581 -0.00135104)
(0.0159227 0.00048061 -0.000907953)
)
;

boundaryField
{
    inlet
    {
        type            fixedValue;
        value           uniform (0.01 0 0);
    }
    outlet
    {
        type            zeroGradient;
    }
    wall
    {
        type            fixedValue;
        value           uniform (0 0 0);
    }
    procBoundary2to0
    {
        type            processor;
        value           nonuniform List<vector> 
44
(
(0.0172954 -0.000451657 -0.000665708)
(0.0330038 -0.000546098 -0.00115539)
(0.0196493 -0.000217158 -0.000574353)
(0.0345503 -0.000422613 -0.000986883)
(0.0211988 -0.000134563 -0.000199185)
(0.0355355 -0.000379619 -0.000729018)
(0.0292365 -0.000407033 -0.00147381)
(0.0142899 -0.000133011 -0.000741219)
(0.0313283 -0.000240393 -0.00144955)
(0.0313283 -0.000240393 -0.00144955)
(0.0110898 -6.41447e-05 -0.00122855)
(0.0291265 -6.24917e-07 -0.00243576)
(0.0100639 -0.000182956 -0.000908179)
(0.029367 -0.000531409 -0.00170338)
(0.00835328 -5.54635e-05 -0.000654358)
(0.0294042 -0.00048199 -0.00102843)
(0.0287956 -0.000228349 -0.00284604)
(0.011775 -0.00012882 -0.00149071)
(0.0290594 -0.00022153 -0.00299315)
(0.0110898 -6.41447e-05 -0.00122855)
(0.0291265 -6.24917e-07 -0.00243576)
(0.0291265 -6.24917e-07 -0.00243576)
(0.00392071 -8.27588e-05 -0.000431254)
(0.0271928 -7.3294e-05 -0.00096883)
(0.00179918 -4.51512e-05 -0.000221969)
(0.0266792 -0.000264846 -0.000313861)
(0.0286906 -0.000130307 -0.00206299)
(0.0100837 -5.14303e-05 -0.00117996)
(0.027843 -6.68652e-05 -0.00216041)
(0.00672128 -4.422e-05 -0.000665792)
(0.0273149 -1.14919e-05 -0.0013499)
(0.00392071 -8.27588e-05 -0.000431254)
(0.0271928 -7.3294e-05 -0.00096883)
(0.0271928 -7.3294e-05 -0.00096883)
(0.00276575 0.000111199 -0.000346629)
(0.0263032 0.000325643 -0.000406731)
(0.0286951 -0.000260306 -0.00134151)
(0.0105099 -3.97046e-05 -0.000859618)
(0.0278154 -1.82589e-05 -0.00134563)
(0.00717113 8.00328e-05 -0.000603775)
(0.0271582 0.000175481 -0.00103687)
(0.00471855 0.000102461 -0.000473256)
(0.0269326 0.000164432 -0.000828957)
(0.00276575 0.000111199 -0.000346629)
)
;
    }
    procBoundary2to3
    {
        type            processor;
        value           nonuniform List<vector> 
12
(
(0.0237856 3.927e-05 -0.000200484)
(0.0206634 -0.000298403 0.000167017)
(0.0231316 0.000185102 -0.000151874)
(0.0291806 -7.27309e-05 -5.81436e-06)
(0.00728933 0.00012188 -0.000747664)
(0.00803546 -0.000153323 -0.000892811)
(0.00927707 -1.48209e-06 -0.000894635)
(0.0214183 0.000155332 -0.00149133)
(0.000946602 -5.08103e-06 -0.00021365)
(0.00111127 -1.05357e-05 -0.000118352)
(0.00218229 0.000107981 -0.000188321)
(0.0163264 0.000299982 -0.000955404)
)
;
    }
    procBoundary2to6
    {
        type            processor;
        value           nonuniform List<vector> 
32
(
(0.0280015 0.000640879 5.35354e-05)
(0.00769395 0.000204303 -0.000602119)
(0.0286337 0.000630077 -0.000389653)
(0.0320253 0.000781329 -0.000929319)
(0.0167569 0.000375178 -0.00112204)
(0.0330726 0.000499507 -0.000851637)
(0.0285871 0.000436893 -0.000738858)
(0.0097596 0.000300485 -0.000327954)
(0.0270403 0.000553676 -0.000696347)
(0.00557336 0.000161774 -0.00029002)
(0.0263294 0.000396769 -0.000570344)
(0.002208 7.28911e-05 -0.000157367)
(0.0257322 0.000152227 -0.00041936)
(0.0280015 0.000640879 5.35354e-05)
(0.00769395 0.000204303 -0.000602119)
(2.01375e-05 5.54704e-07 -1.76737e-06)
(0.0287779 0.00150527 -0.000550627)
(0.0108234 0.000563663 -0.000351776)
(0.0279794 0.00144227 -0.000554613)
(0.00806118 0.000411977 -0.000388822)
(0.0273888 0.00101423 -0.000491516)
(0.00551897 0.000264594 -0.000336008)
(0.00769395 0.000204303 -0.000602119)
(0.0320253 0.000781329 -0.000929319)
(0.026847 0.000737532 -0.000482907)
(0.0291275 0.00101435 -0.000618984)
(0.0135189 0.000553141 -0.000461534)
(0.029746 0.00111347 -0.000710427)
(0.0140413 0.000457763 -0.000697418)
(0.0301183 0.000865437 -0.000740922)
(0.0320253 0.000781329 -0.000929319)
(0.0138615 0.000378516 -0.000758467)
)
;
    }
}


// ************************************************************************* //
