/*--------------------------------*- C++ -*----------------------------------*\
| =========                 |                                                 |
| \\      /  F ield         | OpenFOAM: The Open Source CFD Toolbox           |
|  \\    /   O peration     | Version:  4.x                                   |
|   \\  /    A nd           | Web:      www.OpenFOAM.org                      |
|    \\/     M anipulation  |                                                 |
\*---------------------------------------------------------------------------*/
FoamFile
{
    version     2.0;
    format      ascii;
    class       volScalarField;
    location    "3.5";
    object      Cs;
}
// * * * * * * * * * * * * * * * * * * * * * * * * * * * * * * * * * * * * * //

dimensions      [1 -3 0 0 0 0 0];

internalField   nonuniform List<scalar> 
108
(
335.094
335.185
335.232
335.232
335.2
335.159
335.114
335.087
335.059
335.056
335.16
335.235
335.268
335.263
335.252
335.215
335.199
335.212
334.983
335.091
335.189
335.252
335.279
335.284
335.267
335.235
335.347
334.716
334.816
334.905
334.988
335.05
335.089
335.119
335.117
337.423
335.145
335.21
335.258
335.258
335.236
335.211
335.164
335.125
335.23
335.111
335.187
335.251
335.279
335.277
335.26
335.22
335.181
335.162
335.065
335.144
335.22
335.271
335.289
335.281
335.265
335.229
335.188
334.798
334.867
334.939
334.997
335.051
335.079
335.109
335.135
335.213
335.061
335.114
335.183
335.234
335.272
335.259
335.212
335.169
335.329
335.1
335.15
335.202
335.249
335.281
335.277
335.245
335.201
335.301
335.076
335.137
335.192
335.237
335.271
335.264
335.251
335.217
335.422
334.847
334.894
334.944
334.994
335.046
335.071
335.104
335.115
337.554
)
;

boundaryField
{
    inlet
    {
        type            calculated;
        value           nonuniform 0();
    }
    outlet
    {
        type            calculated;
        value           uniform 335;
    }
    wall
    {
        type            calculated;
        value           nonuniform List<scalar> 
63
(
335.094
335.056
334.983
334.716
335.185
335.16
335.091
334.816
335.232
335.235
335.189
334.905
335.232
335.268
335.252
334.988
335.2
335.263
335.279
335.05
335.159
335.252
335.284
335.089
335.114
335.215
335.267
335.119
335.087
335.199
335.235
335.117
335.059
335.212
335.347
337.423
334.716
334.798
334.847
334.816
334.867
334.894
334.905
334.939
334.944
334.988
334.997
334.994
335.05
335.051
335.046
335.089
335.079
335.071
335.119
335.109
335.104
335.117
335.135
335.115
337.423
335.213
337.554
)
;
    }
    procBoundary3to1
    {
        type            processor;
        value           nonuniform List<scalar> 
27
(
335.095
335.201
335.247
335.237
335.19
335.135
335.079
335.036
335.012
335.18
335.24
335.267
335.261
335.237
335.204
335.158
335.118
335.076
335.176
335.227
335.251
335.244
335.225
335.198
335.177
335.151
335.217
)
;
    }
    procBoundary3to2
    {
        type            processor;
        value           nonuniform List<scalar> 
12
(
334.972
334.945
334.868
334.619
335.062
335.028
334.985
334.733
335.015
335.052
335.019
334.803
)
;
    }
    procBoundary3to7
    {
        type            processor;
        value           nonuniform List<scalar> 
36
(
335.073
335.107
335.134
335.173
335.209
335.209
335.129
335.095
335.037
335.098
335.131
335.163
335.202
335.236
335.233
335.192
335.153
335.107
335.096
335.173
335.197
335.196
335.233
335.217
335.205
335.177
335.209
334.901
334.943
334.966
334.986
335.011
335.036
335.072
335.082
338.04
)
;
    }
}


// ************************************************************************* //
