/*--------------------------------*- C++ -*----------------------------------*\
| =========                 |                                                 |
| \\      /  F ield         | OpenFOAM: The Open Source CFD Toolbox           |
|  \\    /   O peration     | Version:  4.x                                   |
|   \\  /    A nd           | Web:      www.OpenFOAM.org                      |
|    \\/     M anipulation  |                                                 |
\*---------------------------------------------------------------------------*/
FoamFile
{
    version     2.0;
    format      ascii;
    class       volScalarField;
    location    "3.5";
    object      Ksl;
}
// * * * * * * * * * * * * * * * * * * * * * * * * * * * * * * * * * * * * * //

dimensions      [1 -3 -1 0 0 0 0];

internalField   nonuniform List<scalar> 
108
(
23288.5
3343.85
273521
3378.63
1.34605e+06
3528.75
19982
3752.35
5143.35
21757.2
3387.69
20760.5
3094.29
17101.9
2802.96
9223.1
2179.23
3938.31
28587.3
3322.33
31124.8
3021.37
23006.5
2812.35
10137.9
2245.74
3879.25
5677.34
2784.67
5958.57
2586.27
5466.57
2192.33
4407.53
1535.14
2822.75
11913.4
4481.82
267709
4397.63
222371
4220.84
36861.7
4071.9
5865.48
89559.6
3653.22
50363.4
3580.72
44581
3534.43
14878.2
3749.49
5486.77
26646.7
3657.86
27426
3697.17
2.69857e+07
3840.89
76501
4217.21
22553.9
5243.53
2825.8
5580.84
2752.14
6562.78
2752.25
7460.27
3044.65
5814.56
30284.8
5011.08
48124.3
4279.18
271787
3791.82
12299.9
3302.65
4060.51
43624.8
3744.36
124089
3514.94
56627.3
3188.69
8264.59
2733.46
3482.11
30177.2
3826.31
1.12105e+06
3293.83
239232
3178.15
16026.6
2243.22
3597.87
4886.25
2779.58
5000.31
2624.23
5612.44
2377.15
5120.72
1782.44
4487.65
)
;

boundaryField
{
    inlet
    {
        type            zeroGradient;
    }
    outlet
    {
        type            zeroGradient;
    }
    wall
    {
        type            zeroGradient;
    }
    procBoundary3to1
    {
        type            processor;
        value           nonuniform List<scalar> 
27
(
32824.7
3836.3
124365
3730.81
186906
3487.45
249068
3480.37
24183
105049
3897.76
133068
3724.03
89425.9
3483.07
23105.5
3533.33
7688.76
65330.7
4082.82
228678
3804.23
57264.6
3479.85
8846.16
2966.67
3620.41
)
;
    }
    procBoundary3to2
    {
        type            processor;
        value           nonuniform List<scalar> 
12
(
4128.9
3591.5
3528.79
2892.23
4662.87
3766.98
3731.44
2935.85
3836.22
3860.55
4077.48
2944
)
;
    }
    procBoundary3to7
    {
        type            processor;
        value           nonuniform List<scalar> 
36
(
15385.2
3916.53
15542.4
4454.4
33928.6
4164.94
2953.89
3587.48
1550.59
65142.3
3665.29
15002.5
3436.07
13583.7
3106.27
4939.43
3278.72
2399.06
13343.7
6077.34
7313.16
4486.37
61741.9
3495.66
9014.82
2545.61
2089.68
4343.83
2646.57
4077.93
2404.74
4293.11
2203.08
4250.61
1555.21
2100.93
)
;
    }
}


// ************************************************************************* //
