/*--------------------------------*- C++ -*----------------------------------*\
| =========                 |                                                 |
| \\      /  F ield         | OpenFOAM: The Open Source CFD Toolbox           |
|  \\    /   O peration     | Version:  4.x                                   |
|   \\  /    A nd           | Web:      www.OpenFOAM.org                      |
|    \\/     M anipulation  |                                                 |
\*---------------------------------------------------------------------------*/
FoamFile
{
    version     2.0;
    format      ascii;
    class       volScalarField;
    location    "3.5";
    object      QWallFluid;
}
// * * * * * * * * * * * * * * * * * * * * * * * * * * * * * * * * * * * * * //

dimensions      [1 -1 -3 0 0 0 0];

internalField   nonuniform List<scalar> 
108
(
1.88227e+08
8.88298e+08
2.52156e+07
8.68313e+08
7.76375e+06
8.21904e+08
2.00722e+08
7.56453e+08
5.75135e+08
1.99269e+08
8.85286e+08
2.0559e+08
9.40122e+08
2.36254e+08
1.00845e+09
3.79203e+08
1.18956e+09
7.23553e+08
1.6212e+08
9.11057e+08
1.50577e+08
9.76305e+08
1.89715e+08
1.02606e+09
3.59027e+08
1.19362e+09
7.54608e+08
1.18715e+09
2.10356e+09
1.13863e+09
2.21647e+09
1.20744e+09
2.50991e+09
1.41172e+09
3.2283e+09
1.98351e+09
0
0
0
0
0
0
0
0
0
0
0
0
0
0
0
0
0
0
0
0
0
0
0
0
0
0
0
6.39001e+08
1.05398e+09
6.04349e+08
1.06996e+09
5.26031e+08
1.06184e+09
4.65952e+08
9.47172e+08
5.51771e+08
0
0
0
0
0
0
0
0
0
0
0
0
0
0
0
0
0
0
0
0
0
0
0
0
0
0
0
6.80234e+08
1.07273e+09
6.61692e+08
1.10911e+09
5.99837e+08
1.19728e+09
6.37288e+08
1.49005e+09
6.92371e+08
)
;

boundaryField
{
    inlet
    {
        type            calculated;
        value           nonuniform 0();
    }
    outlet
    {
        type            calculated;
        value           uniform 0;
    }
    wall
    {
        type            calculated;
        value           uniform 0;
    }
    procBoundary3to1
    {
        type            processor;
        value           nonuniform List<scalar> 
27
(
1.43963e+08
8.03993e+08
4.83e+07
8.0576e+08
3.44807e+07
8.31007e+08
2.64039e+07
8.07353e+08
1.66908e+08
0
0
0
0
0
0
0
0
0
0
0
0
0
0
0
0
0
0
)
;
    }
    procBoundary3to2
    {
        type            processor;
        value           nonuniform List<scalar> 
12
(
7.57579e+08
8.50043e+08
8.73306e+08
2.0633e+09
0
0
0
1.02441e+09
0
0
0
1.02999e+09
)
;
    }
    procBoundary3to7
    {
        type            processor;
        value           nonuniform List<scalar> 
36
(
0
0
0
0
0
0
0
0
0
0
0
0
0
0
0
0
0
0
0
0
0
0
0
0
0
0
0
7.51351e+08
1.1126e+09
7.77705e+08
1.18313e+09
7.4119e+08
1.26682e+09
7.38317e+08
1.67779e+09
1.27202e+09
)
;
    }
}


// ************************************************************************* //
