/*--------------------------------*- C++ -*----------------------------------*\
| =========                 |                                                 |
| \\      /  F ield         | OpenFOAM: The Open Source CFD Toolbox           |
|  \\    /   O peration     | Version:  4.x                                   |
|   \\  /    A nd           | Web:      www.OpenFOAM.org                      |
|    \\/     M anipulation  |                                                 |
\*---------------------------------------------------------------------------*/
FoamFile
{
    version     2.0;
    format      ascii;
    class       volScalarField;
    location    "3.5";
    object      thCond;
}
// * * * * * * * * * * * * * * * * * * * * * * * * * * * * * * * * * * * * * //

dimensions      [1 1 -3 -1 0 0 0];

internalField   nonuniform List<scalar> 
108
(
192.029
192.157
191.93
192.094
191.979
192.013
191.707
191.688
191.628
192.065
191.756
191.945
191.944
191.825
191.875
191.54
191.504
191.482
192.135
191.987
192.085
192.029
191.868
191.85
191.582
191.52
191.652
192.441
192.4
192.222
191.907
191.934
191.852
191.899
191.636
191.746
191.205
191.215
190.905
190.874
190.945
190.973
190.817
190.75
190.596
191.274
191.176
190.978
190.99
190.997
190.923
190.619
190.658
190.664
191.086
191.148
191.086
190.989
191.004
190.869
190.782
190.697
190.687
191.477
191.57
191.391
191.22
190.981
191.067
190.929
190.852
190.971
190.515
190.346
190.283
190.16
190.284
190.177
189.962
190.088
190.096
190.526
190.591
190.39
190.595
190.502
190.137
190.009
189.929
190.147
190.818
190.561
190.463
190.595
190.412
190.138
190.142
190.09
190.255
190.925
191.106
190.863
190.734
190.579
190.329
190.281
190.13
190.144
)
;

boundaryField
{
    inlet
    {
        type            zeroGradient;
    }
    outlet
    {
        type            zeroGradient;
    }
    wall
    {
        type            zeroGradient;
    }
    procBoundary3to1
    {
        type            processor;
        value           nonuniform List<scalar> 
27
(
192.473
192.314
192.286
191.832
191.883
191.86
191.644
191.672
191.843
191.414
191.471
191.437
191.212
191.164
190.903
190.678
190.562
191.143
190.751
190.735
190.755
190.301
190.244
190.115
190.142
190.17
190.682
)
;
    }
    procBoundary3to2
    {
        type            processor;
        value           nonuniform List<scalar> 
12
(
192.572
192.492
192.69
192.918
191.351
191.637
191.664
192.05
190.836
191.007
190.877
191.206
)
;
    }
    procBoundary3to7
    {
        type            processor;
        value           nonuniform List<scalar> 
36
(
190.016
189.968
190.023
189.855
189.476
189.41
189.523
189.746
189.557
190.184
189.867
189.952
189.947
189.67
189.732
189.604
189.679
189.585
190.536
190.145
190.12
190.045
189.814
189.632
189.608
189.688
189.653
190.771
190.343
190.095
190.234
189.979
189.865
189.716
189.934
190.195
)
;
    }
}


// ************************************************************************* //
