/*--------------------------------*- C++ -*----------------------------------*\
| =========                 |                                                 |
| \\      /  F ield         | OpenFOAM: The Open Source CFD Toolbox           |
|  \\    /   O peration     | Version:  4.x                                   |
|   \\  /    A nd           | Web:      www.OpenFOAM.org                      |
|    \\/     M anipulation  |                                                 |
\*---------------------------------------------------------------------------*/
FoamFile
{
    version     2.0;
    format      ascii;
    class       volVectorField;
    location    "28";
    object      ddtUrel;
}
// * * * * * * * * * * * * * * * * * * * * * * * * * * * * * * * * * * * * * //

dimensions      [0 1 -2 0 0 0 0];

internalField   nonuniform List<vector> 
108
(
(-9.42986e-07 -7.21648e-07 -6.19696e-07)
(-1.0493e-07 -2.896e-07 -3.02086e-07)
(7.62912e-08 -1.60308e-07 -2.26274e-07)
(-2.17316e-08 -8.31062e-08 -1.85042e-07)
(-3.04785e-09 3.09142e-08 -1.26342e-07)
(-4.89167e-08 5.1025e-08 -1.04995e-07)
(-3.0457e-07 5.36403e-08 -1.05475e-07)
(-4.38578e-07 4.42005e-08 -1.29113e-07)
(-3.99793e-07 3.08736e-08 -1.01496e-07)
(-2.57018e-07 -4.08372e-07 -4.23611e-07)
(6.45682e-08 -2.28562e-07 -2.69583e-07)
(1.5558e-07 -1.61171e-07 -2.21593e-07)
(8.98598e-08 -8.18589e-08 -1.71343e-07)
(6.30484e-08 4.00016e-08 -1.25688e-07)
(-4.78139e-08 8.01409e-08 -1.13936e-07)
(-3.25525e-07 7.38879e-08 -1.29282e-07)
(-5.0659e-07 3.7497e-08 -1.60836e-07)
(-4.01789e-07 4.03244e-08 -1.28207e-07)
(1.52813e-07 -2.11478e-07 -2.72464e-07)
(2.39085e-07 -1.40845e-07 -2.30312e-07)
(2.4229e-07 -1.0449e-07 -2.21382e-07)
(1.89759e-07 -6.13436e-08 -1.75796e-07)
(1.42899e-07 1.79392e-08 -1.43893e-07)
(-3.72334e-08 6.44014e-08 -1.43742e-07)
(-3.1185e-07 5.29564e-08 -1.49403e-07)
(-5.13019e-07 4.28263e-08 -1.64201e-07)
(-3.55964e-07 5.38318e-08 -1.43762e-07)
(3.16498e-07 -1.06326e-07 -2.08008e-07)
(3.61438e-07 -9.49359e-08 -2.08227e-07)
(2.5625e-07 -3.75636e-08 -2.13768e-07)
(2.65761e-07 -3.65487e-08 -1.77173e-07)
(2.00019e-07 1.636e-09 -1.58456e-07)
(3.30347e-09 3.36168e-08 -1.38403e-07)
(-2.21859e-07 2.80094e-08 -1.27556e-07)
(-3.7141e-07 4.00761e-08 -1.49183e-07)
(-2.05438e-07 2.84212e-08 -1.66134e-07)
(-1.9979e-07 -4.22643e-07 -3.6925e-07)
(6.37652e-08 -2.1534e-07 -2.4839e-07)
(1.84531e-07 -1.45571e-07 -1.26142e-07)
(1.00467e-07 -7.20972e-08 -1.53498e-07)
(5.63637e-08 1.71e-08 -1.58438e-07)
(-1.7767e-08 4.25832e-08 -9.51294e-08)
(-2.71287e-07 5.46375e-08 -1.05453e-07)
(-4.4566e-07 4.61526e-08 -1.11848e-07)
(-3.74032e-07 4.18834e-08 -8.3486e-08)
(4.78531e-08 -2.92485e-07 -2.98956e-07)
(1.60972e-07 -1.88904e-07 -2.59878e-07)
(2.2867e-07 -1.31116e-07 -2.0186e-07)
(1.8468e-07 -6.60678e-08 -1.43466e-07)
(1.07931e-07 2.88619e-08 -1.25068e-07)
(-2.16926e-10 6.5524e-08 -1.08063e-07)
(-2.78041e-07 7.0119e-08 -1.00908e-07)
(-4.44984e-07 4.33488e-08 -1.22893e-07)
(-3.62635e-07 3.7597e-08 -9.42257e-08)
(2.60332e-07 -1.67323e-07 -2.33998e-07)
(3.03329e-07 -1.32705e-07 -2.19707e-07)
(3.19376e-07 -8.94015e-08 -1.80622e-07)
(2.69418e-07 -5.32008e-08 -1.54156e-07)
(1.79267e-07 9.7387e-09 -1.33247e-07)
(2.65967e-08 4.70941e-08 -1.24499e-07)
(-2.6913e-07 4.41946e-08 -9.85431e-08)
(-4.34279e-07 3.89195e-08 -1.18356e-07)
(-3.27581e-07 3.81873e-08 -1.02183e-07)
(3.42678e-07 -1.00254e-07 -1.99837e-07)
(4.17311e-07 -9.44506e-08 -2.06872e-07)
(3.68838e-07 -6.42779e-08 -1.83518e-07)
(3.27305e-07 -3.66401e-08 -1.50766e-07)
(1.98259e-07 -1.03141e-09 -1.20272e-07)
(3.58966e-08 2.66216e-08 -1.15376e-07)
(-1.85845e-07 2.79051e-08 -9.13946e-08)
(-3.34158e-07 3.6629e-08 -1.02471e-07)
(-2.74351e-07 3.49036e-08 -9.28259e-08)
(3.17628e-08 -2.56209e-07 -2.59801e-07)
(1.91754e-07 -1.3043e-07 -2.1828e-07)
(2.4401e-07 -8.43938e-08 -1.70118e-07)
(8.44789e-08 -3.75044e-08 -1.1826e-07)
(1.20195e-07 2.02669e-09 -9.64167e-08)
(1.34695e-08 2.70612e-08 -8.52602e-08)
(-2.79023e-07 4.35691e-08 -7.73518e-08)
(-4.09452e-07 3.89242e-08 -7.12209e-08)
(-3.35682e-07 4.09143e-08 -4.79109e-08)
(1.81956e-07 -1.69744e-07 -2.39034e-07)
(1.88303e-07 -1.41242e-07 -2.22176e-07)
(2.67066e-07 -1.60318e-07 -1.80307e-07)
(2.21103e-07 -4.5231e-08 -1.21187e-07)
(1.14718e-07 3.27457e-08 -9.22329e-08)
(4.8211e-08 3.12626e-08 -8.15714e-08)
(-2.44232e-07 7.70381e-08 -7.48698e-08)
(-4.03078e-07 4.25698e-08 -6.51908e-08)
(-3.27247e-07 3.15638e-08 -4.2582e-08)
(3.05635e-07 -1.37475e-07 -1.92714e-07)
(3.271e-07 -9.53969e-08 -1.96405e-07)
(3.22882e-07 -7.46151e-08 -1.7109e-07)
(2.66709e-07 -2.89972e-08 -1.27775e-07)
(1.7118e-07 9.55571e-09 -9.69899e-08)
(8.40063e-08 2.30127e-08 -8.84812e-08)
(-2.2063e-07 3.52121e-08 -7.76266e-08)
(-3.69993e-07 3.39747e-08 -5.72964e-08)
(-2.84243e-07 3.91257e-08 -3.90266e-08)
(3.62639e-07 -9.10876e-08 -1.78646e-07)
(4.28475e-07 -7.67871e-08 -1.8623e-07)
(4.04023e-07 -7.56476e-08 -1.71631e-07)
(3.23641e-07 -3.8228e-08 -1.30793e-07)
(2.18229e-07 1.04695e-08 -9.79547e-08)
(7.26808e-08 1.25523e-08 -8.79682e-08)
(-1.54024e-07 1.49106e-08 -6.84899e-08)
(-3.1319e-07 3.91148e-08 -4.46777e-08)
(-2.65021e-07 3.8418e-08 -3.09991e-08)
)
;

boundaryField
{
    inlet
    {
        type            calculated;
        value           nonuniform 0();
    }
    outlet
    {
        type            calculated;
        value           nonuniform List<vector> 
12
(
(1.54559e-08 -6.72393e-08 -7.63617e-08)
(4.99996e-08 9.53505e-08 -1.1831e-07)
(8.20859e-08 2.29968e-07 -1.96465e-07)
(9.91325e-07 -7.35915e-08 -5.6569e-07)
(4.00672e-08 8.18566e-08 -1.15347e-07)
(3.82462e-08 4.57437e-08 -1.21656e-07)
(6.47843e-08 1.23731e-08 -6.32692e-08)
(8.3029e-08 2.19825e-10 5.24024e-08)
(8.97678e-08 2.88937e-08 -1.01798e-07)
(4.87994e-08 3.46352e-08 3.44195e-08)
(4.25722e-08 -7.20691e-09 -1.75662e-09)
(9.08101e-09 -2.28372e-08 4.93017e-08)
)
;
    }
    wall
    {
        type            calculated;
        value           nonuniform List<vector> 
63
(
(-6.20857e-07 1.95129e-07 8.45804e-09)
(8.00297e-07 2.12363e-07 -2.82401e-07)
(8.50264e-07 -3.02111e-08 -8.05195e-08)
(9.71571e-07 8.29643e-08 4.37908e-08)
(8.68421e-07 2.6783e-07 -3.66067e-08)
(4.69228e-07 5.0099e-09 -1.37851e-07)
(3.41925e-07 1.83207e-07 -2.00967e-07)
(7.39826e-07 -6.98605e-08 -1.95761e-07)
(3.18407e-07 -2.90606e-07 -6.29702e-07)
(4.65618e-07 -4.11955e-07 -1.93337e-07)
(1.82111e-07 -2.79549e-07 -4.84819e-07)
(-1.32945e-06 3.55158e-07 -2.97056e-07)
(-1.83036e-06 -4.16433e-07 -1.31141e-07)
(-4.47295e-07 -2.45778e-07 -1.51116e-07)
(-2.43429e-07 -2.5212e-07 -1.83723e-07)
(1.59574e-07 -9.3236e-08 -1.85957e-07)
(-2.05965e-08 5.0581e-07 2.10369e-07)
(3.48369e-07 5.00269e-07 1.62628e-08)
(5.37654e-07 1.37523e-07 -1.28219e-07)
(5.34649e-07 -6.37711e-08 -3.80198e-07)
(4.87669e-07 1.32821e-07 -4.12684e-08)
(3.86341e-07 3.69947e-07 4.29471e-08)
(-3.88968e-07 4.14967e-07 -1.69565e-07)
(-3.11816e-07 1.06492e-07 -1.91118e-07)
(-7.11954e-07 1.02364e-07 2.52318e-08)
(-1.07397e-06 3.29186e-07 -2.50378e-07)
(-1.08489e-06 1.0083e-09 -4.7077e-07)
(-7.56768e-08 -8.07864e-08 -9.03559e-09)
(-1.44028e-06 1.24915e-07 -2.71668e-07)
(-2.52713e-06 -1.37507e-07 -5.14413e-07)
(-2.61074e-06 5.01068e-08 -3.967e-07)
(-1.376e-06 1.13493e-07 -2.17515e-07)
(-3.09019e-07 -6.41945e-08 -3.79552e-08)
(-3.14094e-07 7.5023e-08 -1.89313e-07)
(-1.72656e-07 1.78579e-07 -1.98313e-07)
(8.91988e-07 -6.41187e-08 -5.71753e-07)
(7.05368e-07 7.39442e-08 6.40228e-08)
(6.13224e-07 -2.76476e-08 -1.21915e-07)
(7.96756e-07 1.89988e-08 -1.7107e-07)
(1.36767e-06 -4.59027e-08 -1.33878e-07)
(1.53752e-06 -1.22319e-07 -2.9745e-07)
(1.32975e-06 1.10113e-07 -2.12112e-07)
(-1.24976e-06 3.83608e-07 -3.62573e-07)
(1.09848e-06 4.4303e-08 -9.92505e-08)
(1.25576e-06 -3.29138e-07 -3.34843e-07)
(7.92885e-07 -1.17423e-07 -1.70255e-07)
(9.61959e-07 -3.24319e-08 -1.68374e-07)
(4.05309e-07 -1.04944e-07 -1.58555e-07)
(6.55568e-07 -5.73082e-08 -3.24125e-07)
(5.66809e-07 -1.08756e-09 6.83044e-09)
(2.9562e-07 3.2182e-07 -6.8068e-08)
(3.27382e-08 6.67708e-08 -2.28203e-07)
(4.69166e-07 5.6103e-08 -1.75329e-07)
(3.53294e-07 -4.97436e-08 -1.48679e-07)
(-4.74163e-07 -5.27925e-08 -5.1792e-08)
(-2.88046e-07 2.05399e-08 6.77547e-08)
(-3.97251e-07 -8.4096e-08 -4.61916e-08)
(-1.28027e-06 1.11478e-07 -2.32629e-07)
(-7.15153e-07 2.47567e-08 -2.0521e-07)
(-9.60432e-07 8.09832e-08 5.13132e-08)
(2.32055e-06 4.47402e-07 -2.19911e-06)
(-5.6339e-08 1.69879e-08 9.42886e-09)
(-8.47254e-08 -6.08998e-09 7.40249e-08)
)
;
    }
    procBoundary3to1
    {
        type            processor;
        value           nonuniform List<vector> 
27
(
(-4.15467e-07 -4.8426e-07 -3.93228e-07)
(-5.80886e-08 -1.95579e-07 -2.19195e-07)
(1.05397e-07 -9.27808e-08 -1.64711e-07)
(-7.7009e-09 -3.4904e-08 -1.35185e-07)
(-6.67051e-08 -1.38466e-08 -1.34927e-07)
(-1.15243e-07 3.62183e-09 -1.21737e-07)
(-3.18908e-07 2.25887e-08 -1.02998e-07)
(-4.72054e-07 1.89397e-08 -1.01138e-07)
(-3.64533e-07 1.91996e-08 -8.38137e-08)
(-7.6187e-08 -3.41992e-07 -2.45839e-07)
(7.02894e-08 -1.64925e-07 -2.25622e-07)
(1.63315e-07 -1.02881e-07 -1.98407e-07)
(6.82746e-08 -4.49576e-08 -1.51352e-07)
(1.08144e-08 -1.29785e-08 -1.41092e-07)
(-4.93495e-08 1.5723e-08 -1.07676e-07)
(-3.05173e-07 3.20583e-08 -8.3038e-08)
(-4.81728e-07 2.91057e-08 -7.99678e-08)
(-3.66216e-07 2.77305e-08 -6.63625e-08)
(3.98661e-08 -2.19421e-07 -2.10583e-07)
(8.46984e-08 -1.04003e-07 -1.84394e-07)
(2.64249e-07 -1.97863e-08 -1.6492e-07)
(1.75539e-07 -3.43757e-08 -1.27362e-07)
(1.13665e-07 -5.38409e-08 -1.01532e-07)
(1.27186e-08 6.65466e-09 -8.23219e-08)
(-2.62593e-07 1.91334e-08 -7.34241e-08)
(-4.258e-07 1.89428e-08 -5.69477e-08)
(-3.53668e-07 2.7281e-08 -2.86718e-08)
)
;
    }
    procBoundary3to2
    {
        type            processor;
        value           nonuniform List<vector> 
12
(
(-3.95892e-06 -2.15274e-06 -1.88687e-06)
(-8.97119e-07 -7.14303e-07 -7.22963e-07)
(-9.06191e-09 -2.81325e-07 -3.46513e-07)
(2.39094e-07 -1.43826e-07 -2.23541e-07)
(-7.56427e-07 -6.92379e-07 -6.42899e-07)
(-1.84449e-07 -3.87455e-07 -4.08839e-07)
(1.42588e-07 -1.98384e-07 -2.62988e-07)
(2.54925e-07 -1.23144e-07 -2.0016e-07)
(2.22564e-08 -2.88356e-07 -3.04771e-07)
(1.41997e-07 -2.01155e-07 -2.58087e-07)
(2.72359e-07 -1.31364e-07 -1.96234e-07)
(3.05739e-07 -1.00865e-07 -1.64865e-07)
)
;
    }
    procBoundary3to7
    {
        type            processor;
        value           nonuniform List<vector> 
36
(
(2.11043e-07 -1.29352e-07 -1.61491e-07)
(1.93657e-07 -8.66741e-08 -1.39437e-07)
(2.56878e-07 -6.31482e-08 -1.6533e-07)
(2.25419e-07 -2.89061e-08 -9.00515e-08)
(1.34042e-07 1.86137e-09 -3.86527e-08)
(-1.22463e-08 1.6989e-08 -5.71669e-08)
(-2.57169e-07 4.32829e-08 -3.45203e-08)
(-3.57804e-07 3.73988e-08 -2.64721e-08)
(-3.0955e-07 4.03277e-08 -7.4453e-09)
(2.58179e-07 -1.06178e-07 -1.79428e-07)
(2.61875e-07 -7.5916e-08 -1.36905e-07)
(2.86937e-07 -6.61986e-08 -1.24524e-07)
(2.65841e-07 -3.7625e-08 -9.56476e-08)
(1.39516e-07 9.8861e-09 -6.62846e-08)
(3.30253e-08 2.07935e-08 -5.48629e-08)
(-2.36101e-07 4.63551e-08 -4.28396e-08)
(-3.58581e-07 5.94423e-08 -2.58575e-08)
(-2.73688e-07 5.62249e-08 -3.65704e-09)
(3.26523e-07 -7.48897e-08 -1.46409e-07)
(3.25983e-07 -6.04603e-08 -1.44456e-07)
(3.26236e-07 -4.70674e-08 -1.37787e-07)
(2.83009e-07 -3.44013e-08 -8.99334e-08)
(1.51616e-07 6.71771e-09 -6.02229e-08)
(4.56975e-08 2.27627e-08 -5.89204e-08)
(-1.98802e-07 3.26607e-08 -5.98541e-08)
(-3.33225e-07 5.64757e-08 -1.84755e-08)
(-2.66006e-07 6.03232e-08 6.76004e-09)
(3.32831e-07 -6.05146e-08 -1.47446e-07)
(3.7002e-07 -5.20545e-08 -1.46836e-07)
(3.58947e-07 -4.61392e-08 -1.30515e-07)
(3.01043e-07 -3.32373e-08 -9.37556e-08)
(1.87814e-07 7.12776e-09 -7.31545e-08)
(5.54962e-08 2.44729e-08 -5.75324e-08)
(-1.72197e-07 4.08858e-08 -4.3669e-08)
(-2.99385e-07 5.63138e-08 -6.48843e-09)
(-2.79223e-07 6.63513e-08 9.6562e-09)
)
;
    }
}


// ************************************************************************* //
