/*--------------------------------*- C++ -*----------------------------------*\
| =========                 |                                                 |
| \\      /  F ield         | OpenFOAM: The Open Source CFD Toolbox           |
|  \\    /   O peration     | Version:  4.x                                   |
|   \\  /    A nd           | Web:      www.OpenFOAM.org                      |
|    \\/     M anipulation  |                                                 |
\*---------------------------------------------------------------------------*/
FoamFile
{
    version     2.0;
    format      ascii;
    class       volScalarField;
    location    "28";
    object      KslPrev;
}
// * * * * * * * * * * * * * * * * * * * * * * * * * * * * * * * * * * * * * //

dimensions      [1 -3 -1 0 0 0 0];

internalField   nonuniform List<scalar> 
108
(
5106.41
2829.91
4863.17
2682.91
4856.61
2587.18
6058.67
2573.84
17773.6
5867.91
3018.45
5878.12
2890.63
6219.94
2831.97
7945.07
2797.81
15517.2
4984.74
2825.41
4944.76
2704.14
5140.07
2573.31
6053.51
2317.15
8521.19
3766.12
2489.76
3735.25
2402.77
3835.06
2220.11
4183.62
1848.27
4663.43
16808.7
3489.08
31538.8
3419.31
43165.1
3294.94
38502.5
3012.27
14849.3
17531.9
3540.14
21475.8
3446.06
25809.6
3375.47
28000
3300.13
18073
13414.4
3403
14575.2
3241.02
16760.7
2971.48
14481.1
2503.34
5681.59
5360.57
2882.49
5381.58
2764.63
5649.55
2512.88
6291.51
1961.04
4669.49
1e+10
4000.33
1e+10
3955.7
1e+10
3934.08
77668.4
3966.52
9691.91
40739.4
3731.46
136219
3654.08
1.20296e+07
3598.81
414821
3457.91
25470.6
76837.2
3678.66
9.94414e+09
3622.1
1.33774e+08
3639.72
37631.1
3760.43
7566.54
7138.19
3106.95
7140.85
2968.47
7340.29
2761.49
7448.6
2266.32
6626.22
)
;

boundaryField
{
    inlet
    {
        type            zeroGradient;
    }
    outlet
    {
        type            zeroGradient;
    }
    wall
    {
        type            zeroGradient;
    }
    procBoundary3to1
    {
        type            processor;
        value           uniform 0;
    }
    procBoundary3to2
    {
        type            processor;
        value           uniform 0;
    }
    procBoundary3to7
    {
        type            processor;
        value           uniform 0;
    }
}


// ************************************************************************* //
