/*--------------------------------*- C++ -*----------------------------------*\
| =========                 |                                                 |
| \\      /  F ield         | OpenFOAM: The Open Source CFD Toolbox           |
|  \\    /   O peration     | Version:  4.x                                   |
|   \\  /    A nd           | Web:      www.OpenFOAM.org                      |
|    \\/     M anipulation  |                                                 |
\*---------------------------------------------------------------------------*/
FoamFile
{
    version     2.0;
    format      ascii;
    class       volScalarField;
    location    "28";
    object      p_rgh;
}
// * * * * * * * * * * * * * * * * * * * * * * * * * * * * * * * * * * * * * //

dimensions      [1 -1 -2 0 0 0 0];

internalField   nonuniform List<scalar> 
108
(
19.2884
74.9894
-0.255176
68.9806
-20.3588
64.6033
-40.5602
62.4524
-69.3204
19.829
75.1025
0.109592
69.0514
-19.8039
64.1952
-40.1147
61.0114
-87.7444
19.3309
75.0366
-0.644535
69.1448
-21.0522
64.7355
-42.9533
62.9003
-79.2122
19.6076
75.0693
0.0679203
69.2444
-21.3161
64.8078
-44.6685
64.0636
-198.046
19.0101
75.5683
-0.296191
69.2707
-20.0275
64.127
-39.0012
60.9374
-56.0202
19.803
75.3502
0.335364
69.0144
-19.2461
63.5013
-38.5187
59.0462
-54.5584
19.1807
75.2431
-0.920421
69.0785
-21.857
63.971
-43.8253
61.4264
-64.6179
19.6191
75.1465
-0.199976
69.1333
-21.5078
64.285
-45.1057
62.6881
-69.8788
20.9836
75.1917
2.5169
68.9416
-15.7566
63.3932
-33.4459
57.6364
-49.6255
20.9593
75.4047
2.16671
68.9804
-16.3984
63.397
-35.1898
58.6619
-53.0531
20.1733
75.3112
0.897159
68.8238
-18.262
62.8453
-37.4659
57.733
-53.4493
20.0726
75.2083
0.618843
68.9282
-19.8588
63.5027
-42.2228
60.5061
-66.9148
)
;

boundaryField
{
    inlet
    {
        type            fixedFluxPressure;
        gradient        nonuniform 0();
        value           nonuniform 0();
    }
    outlet
    {
        type            fixedValue;
        value           uniform 0;
    }
    wall
    {
        type            fixedFluxPressure;
        gradient        nonuniform List<scalar> 
63
(
0.000161945
0.000187662
0.000106062
4.96598e-05
9.57691e-05
8.68995e-05
5.01236e-05
4.03575e-05
0.000220882
0.000136806
6.36502e-05
5.95673e-05
7.12878e-05
4.38823e-05
2.51729e-06
-7.81209e-07
0.000202699
0.000171914
8.82153e-05
4.61042e-05
9.74839e-05
8.24006e-05
2.77779e-06
9.00028e-06
0.000459948
0.000933131
8.72856e-05
1.109e-05
0.000280061
0.000387328
4.78474e-05
1.51816e-05
0.00264234
0.0061878
-5.04358e-05
0.000472913
3.25818e-05
1.53837e-05
-7.12216e-05
2.56858e-06
-1.48312e-05
-1.07717e-05
9.00803e-05
-4.39878e-05
-6.36812e-05
4.21282e-07
-7.69517e-06
2.46018e-06
2.63729e-05
-1.36741e-05
-3.48091e-05
-7.5966e-06
-9.78431e-06
-1.21993e-05
0.000160485
4.31927e-05
3.27263e-06
4.44249e-05
4.43451e-06
1.45361e-05
0.0142349
3.49336e-05
-2.23827e-05
)
;
        value           nonuniform List<scalar> 
63
(
19.2884
19.829
19.3309
19.6076
74.9894
75.1025
75.0366
75.0693
-0.255173
0.109594
-0.644534
0.0679211
68.9806
69.0514
69.1448
69.2444
-20.3588
-19.8039
-21.0522
-21.3161
64.6033
64.1952
64.7355
64.8078
-40.5602
-40.1147
-42.9533
-44.6685
62.4524
61.0114
62.9003
64.0636
-69.3204
-87.7444
-79.2122
-198.046
19.6076
19.6191
20.0726
75.0693
75.1465
75.2083
0.0679216
-0.199977
0.618842
69.2444
69.1333
68.9282
-21.3161
-21.5078
-19.8588
64.8078
64.285
63.5027
-44.6685
-45.1057
-42.2228
64.0636
62.6881
60.5061
-198.045
-69.8788
-66.9148
)
;
    }
    procBoundary3to1
    {
        type            processor;
        value           nonuniform List<scalar> 
27
(
19.7661
75.2522
0.574042
69.1781
-19.7089
64.1474
-40.4107
60.8631
-62.6223
19.8921
75.644
0.973842
69.2149
-17.7266
63.5097
-35.261
57.9374
-50.2354
20.8377
75.3174
2.42421
68.9106
-16.1092
63.0243
-34.5494
58.112
-51.6981
)
;
    }
    procBoundary3to2
    {
        type            processor;
        value           nonuniform List<scalar> 
12
(
81.7288
81.854
81.7791
81.5949
82.1748
82.2033
82.1476
81.8523
82.07
82.2949
82.3583
82.1196
)
;
    }
    procBoundary3to7
    {
        type            processor;
        value           nonuniform List<scalar> 
36
(
23.2704
75.4182
4.94659
68.9244
-13.5444
63.0708
-32.3568
57.1067
-49.5653
22.1932
75.3084
3.79472
68.545
-14.2412
61.8038
-31.9806
55.1153
-47.983
20.7422
75.2546
1.48471
68.7395
-18.1253
63.1066
-38.6204
59.1901
-59.6161
20.7367
75.223
1.43378
68.8811
-18.2743
63.3919
-38.7456
59.5991
-58.5151
)
;
    }
}


// ************************************************************************* //
