/*--------------------------------*- C++ -*----------------------------------*\
| =========                 |                                                 |
| \\      /  F ield         | OpenFOAM: The Open Source CFD Toolbox           |
|  \\    /   O peration     | Version:  4.x                                   |
|   \\  /    A nd           | Web:      www.OpenFOAM.org                      |
|    \\/     M anipulation  |                                                 |
\*---------------------------------------------------------------------------*/
FoamFile
{
    version     2.0;
    format      ascii;
    class       volScalarField;
    location    "28";
    object      particleRelTemp;
}
// * * * * * * * * * * * * * * * * * * * * * * * * * * * * * * * * * * * * * //

dimensions      [0 0 0 0 0 0 0];

internalField   nonuniform List<scalar> 
108
(
1.04671e-08
1.07732e-08
9.33779e-09
7.61353e-09
4.65117e-09
1.84659e-09
-5.51031e-11
-2.37063e-09
-1.8005e-09
7.47566e-09
7.61032e-09
7.35215e-09
4.8163e-09
2.28029e-09
-5.19668e-10
-1.73012e-09
-2.77211e-09
-2.93531e-09
2.81612e-09
2.87099e-09
2.93662e-09
1.19464e-09
-5.49468e-10
-3.16085e-09
-3.79376e-09
-5.13214e-09
-5.00374e-09
-1.17577e-09
-1.11221e-09
-3.03993e-09
-2.34809e-09
-3.02345e-09
-5.16974e-09
-6.80694e-09
-7.05907e-09
-7.48987e-09
1.30288e-08
1.41657e-08
1.2277e-08
9.7924e-09
6.6574e-09
3.86961e-09
1.62657e-09
-1.70605e-10
-6.15839e-10
1.01064e-08
1.0519e-08
9.98363e-09
7.59879e-09
4.46064e-09
2.4307e-09
1.99175e-11
-1.29504e-09
-1.70284e-09
5.20449e-09
5.81643e-09
5.29251e-09
3.47023e-09
1.18977e-09
-9.96368e-10
-2.39921e-09
-3.40392e-09
-3.61296e-09
1.80435e-09
1.40268e-09
7.24443e-10
3.96809e-12
-1.20226e-09
-3.68068e-09
-4.44335e-09
-5.36499e-09
-5.623e-09
1.4925e-08
1.57374e-08
1.43581e-08
1.2021e-08
8.47518e-09
5.48677e-09
3.04399e-09
1.46963e-09
1.08278e-09
1.21381e-08
1.28307e-08
1.16202e-08
9.1812e-09
6.80201e-09
3.84977e-09
1.59827e-09
9.3043e-11
-4.96903e-10
7.45597e-09
7.43728e-09
7.34856e-09
6.11881e-09
3.8909e-09
1.37125e-09
-6.26618e-10
-1.78052e-09
-2.47391e-09
3.75033e-09
3.14746e-09
3.11452e-09
1.89101e-09
8.84705e-10
-1.48627e-09
-3.07873e-09
-3.65721e-09
-3.58794e-09
)
;

boundaryField
{
    inlet
    {
        type            calculated;
        value           nonuniform 0();
    }
    outlet
    {
        type            calculated;
        value           nonuniform List<scalar> 
12
(
-1.8005e-09
-2.93531e-09
-5.00374e-09
-7.48987e-09
-6.15839e-10
-1.70284e-09
-3.61296e-09
-5.623e-09
1.08278e-09
-4.96903e-10
-2.47391e-09
-3.58794e-09
)
;
    }
    wall
    {
        type            calculated;
        value           nonuniform List<scalar> 
63
(
1.04671e-08
7.47566e-09
2.81612e-09
-1.17577e-09
1.07732e-08
7.61032e-09
2.87099e-09
-1.11221e-09
9.33779e-09
7.35215e-09
2.93662e-09
-3.03993e-09
7.61353e-09
4.8163e-09
1.19464e-09
-2.34809e-09
4.65117e-09
2.28029e-09
-5.49468e-10
-3.02345e-09
1.84659e-09
-5.19668e-10
-3.16085e-09
-5.16974e-09
-5.51031e-11
-1.73012e-09
-3.79376e-09
-6.80694e-09
-2.37063e-09
-2.77211e-09
-5.13214e-09
-7.05907e-09
-1.8005e-09
-2.93531e-09
-5.00374e-09
-7.48987e-09
-1.17577e-09
1.80435e-09
3.75033e-09
-1.11221e-09
1.40268e-09
3.14746e-09
-3.03993e-09
7.24443e-10
3.11452e-09
-2.34809e-09
3.96809e-12
1.89101e-09
-3.02345e-09
-1.20226e-09
8.84705e-10
-5.16974e-09
-3.68068e-09
-1.48627e-09
-6.80694e-09
-4.44335e-09
-3.07873e-09
-7.05907e-09
-5.36499e-09
-3.65721e-09
-7.48987e-09
-5.623e-09
-3.58794e-09
)
;
    }
    procBoundary3to1
    {
        type            processor;
        value           nonuniform List<scalar> 
27
(
1.09384e-08
1.03713e-08
9.41185e-09
7.37075e-09
4.50183e-09
1.74637e-09
-5.87693e-10
-2.58489e-09
-2.46982e-09
1.41709e-08
1.32919e-08
1.20766e-08
9.59747e-09
6.43963e-09
3.93962e-09
1.6079e-09
2.52649e-10
-1.73894e-10
1.541e-08
1.56533e-08
1.45478e-08
1.24312e-08
9.10357e-09
5.59908e-09
2.71866e-09
1.87447e-09
1.14966e-09
)
;
    }
    procBoundary3to2
    {
        type            processor;
        value           nonuniform List<scalar> 
12
(
8.34087e-09
6.1856e-09
2.75854e-09
-1.34507e-09
1.16902e-08
9.3159e-09
4.97967e-09
4.30594e-10
1.40432e-08
1.03951e-08
6.40296e-09
2.84428e-09
)
;
    }
    procBoundary3to7
    {
        type            processor;
        value           nonuniform List<scalar> 
36
(
1.38878e-08
1.41988e-08
1.34066e-08
1.06386e-08
7.90003e-09
4.98228e-09
2.93569e-09
1.68861e-09
1.26484e-09
1.11743e-08
1.2139e-08
1.09518e-08
9.40863e-09
6.80149e-09
4.06244e-09
1.88557e-09
4.3392e-10
1.96849e-10
6.85302e-09
7.55219e-09
6.88169e-09
5.70387e-09
4.04108e-09
1.11941e-09
-3.90751e-10
-1.19364e-09
-1.64162e-09
3.72748e-09
3.68547e-09
3.67987e-09
2.25622e-09
1.3925e-09
-1.05398e-09
-2.37072e-09
-3.47134e-09
-3.37175e-09
)
;
    }
}


// ************************************************************************* //
