/*--------------------------------*- C++ -*----------------------------------*\
| =========                 |                                                 |
| \\      /  F ield         | OpenFOAM: The Open Source CFD Toolbox           |
|  \\    /   O peration     | Version:  4.x                                   |
|   \\  /    A nd           | Web:      www.OpenFOAM.org                      |
|    \\/     M anipulation  |                                                 |
\*---------------------------------------------------------------------------*/
FoamFile
{
    version     2.0;
    format      ascii;
    class       volScalarField;
    location    "28";
    object      QWallFluidCoeff;
}
// * * * * * * * * * * * * * * * * * * * * * * * * * * * * * * * * * * * * * //

dimensions      [1 -1 -3 -1 0 0 0];

internalField   nonuniform List<scalar> 
108
(
-2.12204e+06
-3.40572e+06
-2.19719e+06
-3.54336e+06
-2.18755e+06
-3.60248e+06
-1.78617e+06
-3.4803e+06
-721582
-1.89638e+06
-3.23383e+06
-1.89123e+06
-3.33694e+06
-1.79621e+06
-3.37491e+06
-1.43908e+06
-3.25473e+06
-804081
-2.15831e+06
-3.41013e+06
-2.17141e+06
-3.54446e+06
-2.10837e+06
-3.67858e+06
-1.80577e+06
-3.83951e+06
-1.31386e+06
-5.32651e+06
-7.47382e+06
-5.42646e+06
-7.72354e+06
-5.2963e+06
-8.19076e+06
-4.83868e+06
-9.09198e+06
-4.33588e+06
0
0
0
0
0
0
0
0
0
0
0
0
0
0
0
0
0
0
0
0
0
0
0
0
0
0
0
-1.99518e+06
-3.31425e+06
-2.00039e+06
-3.44657e+06
-1.92803e+06
-3.71648e+06
-1.73045e+06
-4.3609e+06
-2.10085e+06
0
0
0
0
0
0
0
0
0
0
0
0
0
0
0
0
0
0
0
0
0
0
0
0
0
0
0
-1.55396e+06
-3.05206e+06
-1.5555e+06
-3.15366e+06
-1.52264e+06
-3.33131e+06
-1.47324e+06
-3.78825e+06
-1.54856e+06
)
;

boundaryField
{
    inlet
    {
        type            calculated;
        value           nonuniform 0();
    }
    outlet
    {
        type            calculated;
        value           uniform 0;
    }
    wall
    {
        type            calculated;
        value           uniform 0;
    }
    procBoundary3to1
    {
        type            processor;
        value           uniform 0;
    }
    procBoundary3to2
    {
        type            processor;
        value           uniform 0;
    }
    procBoundary3to7
    {
        type            processor;
        value           uniform 0;
    }
}


// ************************************************************************* //
