/*--------------------------------*- C++ -*----------------------------------*\
| =========                 |                                                 |
| \\      /  F ield         | OpenFOAM: The Open Source CFD Toolbox           |
|  \\    /   O peration     | Version:  4.x                                   |
|   \\  /    A nd           | Web:      www.OpenFOAM.org                      |
|    \\/     M anipulation  |                                                 |
\*---------------------------------------------------------------------------*/
FoamFile
{
    version     2.0;
    format      ascii;
    class       volScalarField;
    location    "28";
    object      SPartFluid;
}
// * * * * * * * * * * * * * * * * * * * * * * * * * * * * * * * * * * * * * //

dimensions      [1 -3 -1 0 0 0 0];

internalField   nonuniform List<scalar> 
108
(
6.97496e-65
3.25498e-65
5.73498e-65
2.5575e-65
4.1075e-65
3.02251e-65
4.72752e-65
4.57253e-65
3.87502e-65
5.19248e-65
7.43998e-65
4.10749e-65
4.65e-65
5.42501e-65
3.87502e-65
5.50253e-65
5.11503e-65
5.27003e-65
5.5025e-65
5.50251e-65
6.2e-65
3.72001e-65
4.88252e-65
3.72002e-65
5.73504e-65
5.27004e-65
4.03003e-65
4.65002e-65
3.87502e-65
3.79752e-65
5.89004e-65
4.80503e-65
4.65004e-65
3.17753e-65
5.65756e-65
4.10754e-65
7.51744e-65
6.27744e-65
9.06743e-65
8.52496e-65
7.59497e-65
6.2775e-65
6.04501e-65
6.58752e-65
8.91253e-65
6.66496e-65
6.19996e-65
7.51746e-65
7.28498e-65
6.81999e-65
6.2775e-65
8.60252e-65
7.05253e-65
6.97503e-65
1.0385e-64
7.51749e-65
7.43999e-65
8.4475e-65
6.82002e-65
7.36253e-65
6.58753e-65
7.20754e-65
7.90504e-65
7.75001e-65
5.65751e-65
6.66502e-65
6.20002e-65
8.06003e-65
5.65753e-65
6.74254e-65
6.82005e-65
5.65754e-65
7.67242e-65
9.06741e-65
8.75742e-65
8.52494e-65
6.12247e-65
6.27749e-65
8.525e-65
7.13001e-65
7.44002e-65
9.06743e-65
5.03746e-65
7.74994e-65
4.33998e-65
4.64999e-65
7.905e-65
7.28501e-65
8.83502e-65
6.12252e-65
5.11499e-65
8.13747e-65
8.21497e-65
5.81248e-65
6.82e-65
7.98252e-65
6.66502e-65
7.20753e-65
5.42503e-65
8.525e-65
4.03e-65
5.42501e-65
6.12251e-65
5.58002e-65
7.13003e-65
6.20004e-65
7.90505e-65
8.52505e-65
)
;

boundaryField
{
    inlet
    {
        type            calculated;
        value           nonuniform 0();
    }
    outlet
    {
        type            calculated;
        value           uniform 0;
    }
    wall
    {
        type            calculated;
        value           uniform 0;
    }
    procBoundary3to1
    {
        type            processor;
        value           nonuniform List<scalar> 
27
(
3.48748e-65
5.57998e-65
5.73498e-65
7.12998e-65
5.5025e-65
4.34001e-65
4.96002e-65
4.57253e-65
4.49502e-65
7.12994e-65
6.58745e-65
6.19995e-65
5.26997e-65
5.26998e-65
7.3625e-65
8.06001e-65
1.03075e-64
4.88251e-65
8.91241e-65
6.35493e-65
5.11495e-65
9.06743e-65
8.29246e-65
8.75748e-65
6.82e-65
7.90501e-65
3.48751e-65
)
;
    }
    procBoundary3to2
    {
        type            processor;
        value           nonuniform List<scalar> 
12
(
4.10749e-65
3.9525e-65
5.27001e-65
3.10002e-65
9.22244e-65
5.19248e-65
5.96749e-65
4.26251e-65
8.13743e-65
4.88247e-65
8.36998e-65
6.66501e-65
)
;
    }
    procBoundary3to7
    {
        type            processor;
        value           nonuniform List<scalar> 
36
(
9.91991e-65
7.82743e-65
6.43245e-65
6.74246e-65
1.03075e-64
1.0385e-64
7.9825e-65
5.65751e-65
8.37001e-65
7.67245e-65
9.45493e-65
7.28495e-65
6.89747e-65
8.29248e-65
5.6575e-65
7.51751e-65
6.35502e-65
8.06002e-65
4.80499e-65
7.43998e-65
6.12249e-65
7.12999e-65
7.44e-65
8.06001e-65
7.51752e-65
7.20753e-65
8.60254e-65
6.51e-65
6.58751e-65
8.68e-65
5.50251e-65
7.28502e-65
6.74253e-65
7.90504e-65
5.89004e-65
4.34003e-65
)
;
    }
}


// ************************************************************************* //
