/*--------------------------------*- C++ -*----------------------------------*\
| =========                 |                                                 |
| \\      /  F ield         | OpenFOAM: The Open Source CFD Toolbox           |
|  \\    /   O peration     | Version:  4.x                                   |
|   \\  /    A nd           | Web:      www.OpenFOAM.org                      |
|    \\/     M anipulation  |                                                 |
\*---------------------------------------------------------------------------*/
FoamFile
{
    version     2.0;
    format      ascii;
    class       volVectorField;
    location    "10.5";
    object      impParticleForces;
}
// * * * * * * * * * * * * * * * * * * * * * * * * * * * * * * * * * * * * * //

dimensions      [1 1 -2 0 0 0 0];

internalField   nonuniform List<vector> 
114
(
(0.00237224 -3.60582e-06 -9.6062e-05)
(0.00240504 -3.31187e-06 -7.95663e-05)
(0.00239851 -2.97618e-06 -5.72063e-05)
(0.00242074 -2.56759e-06 -3.44818e-05)
(0.00238451 -1.91899e-06 -1.44488e-05)
(0.00238237 -1.08421e-06 1.50668e-07)
(0.00227192 5.81518e-06 -0.000111401)
(0.00230373 6.68255e-06 -0.000112078)
(0.00234868 7.65593e-06 -0.000107777)
(0.00237208 8.03691e-06 -9.62284e-05)
(0.00241355 8.45541e-06 -8.06557e-05)
(0.00240322 8.00864e-06 -5.82118e-05)
(0.00242684 8.32937e-06 -3.56125e-05)
(0.00240241 8.42876e-06 -1.48806e-05)
(0.00238854 8.83791e-06 -1.29413e-07)
(0.00224639 1.37656e-05 -0.000108741)
(0.0022832 1.49181e-05 -0.000109859)
(0.00232501 1.58564e-05 -0.000105799)
(0.00235503 1.61403e-05 -9.51305e-05)
(0.00239485 1.64768e-05 -8.03336e-05)
(0.00239305 1.57895e-05 -5.95808e-05)
(0.00239164 1.54326e-05 -3.71442e-05)
(0.00240387 1.58825e-05 -1.62542e-05)
(0.00239722 1.64516e-05 -5.28686e-07)
(0.00220893 1.68911e-05 -0.000105188)
(0.0022335 1.77702e-05 -0.000105007)
(0.00228675 1.90137e-05 -0.00010179)
(0.0023068 1.89716e-05 -9.12815e-05)
(0.00233959 1.90794e-05 -7.72876e-05)
(0.00234638 1.84276e-05 -5.82783e-05)
(0.00234884 1.82193e-05 -3.76464e-05)
(0.00236734 1.8718e-05 -1.81212e-05)
(0.00237896 1.96078e-05 -2.22652e-06)
(0.0024518 -3.43414e-06 -5.73784e-05)
(0.00247489 -3.14906e-06 -3.31965e-05)
(0.00241831 -2.35842e-06 -1.31393e-05)
(0.00243448 -1.6975e-06 1.98734e-06)
(0.0022958 6.51526e-06 -0.000111787)
(0.00234668 7.6227e-06 -0.000114406)
(0.00241042 8.93567e-06 -0.000112646)
(0.00242252 9.2416e-06 -9.91632e-05)
(0.00245483 9.51854e-06 -8.23383e-05)
(0.0024351 8.49554e-06 -5.80014e-05)
(0.00246875 8.51656e-06 -3.46679e-05)
(0.00242874 8.1388e-06 -1.39926e-05)
(0.00242382 8.30969e-06 7.40304e-07)
(0.00228066 1.53144e-05 -0.000110328)
(0.0023376 1.71988e-05 -0.000113628)
(0.00240748 1.91554e-05 -0.000112633)
(0.00241394 1.86193e-05 -9.90577e-05)
(0.00243871 1.85216e-05 -8.25677e-05)
(0.00243333 1.73284e-05 -6.02941e-05)
(0.00245125 1.70122e-05 -3.73647e-05)
(0.00243128 1.62142e-05 -1.60102e-05)
(0.00244418 1.66885e-05 8.22361e-07)
(0.00223258 1.83098e-05 -0.000105509)
(0.00227369 1.98039e-05 -0.000106916)
(0.00234509 2.19037e-05 -0.000106149)
(0.00234475 2.10751e-05 -9.33776e-05)
(0.00236698 2.07712e-05 -7.83292e-05)
(0.00237826 1.99423e-05 -5.91645e-05)
(0.00239135 1.95919e-05 -3.80687e-05)
(0.00238854 1.90785e-05 -1.80204e-05)
(0.00239072 1.90283e-05 -1.88809e-06)
(0.00238942 -3.11336e-06 -1.29806e-05)
(0.00240076 -2.74104e-06 -1.41806e-06)
(0.00231516 7.36827e-06 -0.000105652)
(0.00234694 8.21479e-06 -0.000106178)
(0.0023989 9.31368e-06 -0.000103133)
(0.00240183 9.21921e-06 -8.99354e-05)
(0.00241949 8.92561e-06 -7.30416e-05)
(0.00240559 7.87322e-06 -5.14977e-05)
(0.00242874 7.41739e-06 -3.07358e-05)
(0.00239675 6.67417e-06 -1.37368e-05)
(0.00240315 6.45404e-06 -1.92368e-06)
(0.00228541 1.6212e-05 -0.000102993)
(0.00233139 1.79679e-05 -0.000104975)
(0.00240012 2.0185e-05 -0.000103874)
(0.00240555 1.94995e-05 -9.16459e-05)
(0.00241855 1.87351e-05 -7.47167e-05)
(0.00239743 1.66251e-05 -5.35159e-05)
(0.00242989 1.62561e-05 -3.32702e-05)
(0.00240665 1.46093e-05 -1.52943e-05)
(0.00243261 1.43415e-05 -1.00939e-06)
(0.00224572 1.96248e-05 -9.95636e-05)
(0.00228627 2.13811e-05 -0.000100953)
(0.00234062 2.31208e-05 -9.85748e-05)
(0.00234898 2.24244e-05 -8.77766e-05)
(0.0023479 2.09971e-05 -7.14309e-05)
(0.00236061 1.9949e-05 -5.37223e-05)
(0.00239238 1.96252e-05 -3.50536e-05)
(0.00237014 1.76309e-05 -1.7132e-05)
(0.00239511 1.71297e-05 -2.646e-06)
(0.0023133 7.69221e-06 -9.19921e-05)
(0.00236131 8.77333e-06 -9.2869e-05)
(0.00240664 9.76799e-06 -8.93174e-05)
(0.00238612 8.90517e-06 -7.62413e-05)
(0.00239976 8.24872e-06 -6.1365e-05)
(0.00237552 6.95128e-06 -4.33168e-05)
(0.00239375 6.07834e-06 -2.64994e-05)
(0.00236534 4.99924e-06 -1.3753e-05)
(0.00228682 1.68931e-05 -9.02166e-05)
(0.0023325 1.87173e-05 -9.14652e-05)
(0.00239388 2.07211e-05 -8.922e-05)
(0.0023748 1.87682e-05 -7.69974e-05)
(0.0024002 1.8177e-05 -6.33492e-05)
(0.00237383 1.56799e-05 -4.55005e-05)
(0.00239944 1.46679e-05 -2.90408e-05)
(0.00223549 2.00017e-05 -8.70388e-05)
(0.00227597 2.174e-05 -8.79559e-05)
(0.00233513 2.36811e-05 -8.59434e-05)
(0.00233342 2.23398e-05 -7.57124e-05)
(0.00235503 2.15628e-05 -6.2783e-05)
(0.00234022 1.91689e-05 -4.63176e-05)
)
;

boundaryField
{
    inlet
    {
        type            zeroGradient;
    }
    outlet
    {
        type            zeroGradient;
    }
    wall
    {
        type            zeroGradient;
    }
    procBoundary2to0
    {
        type            processor;
        value           nonuniform List<vector> 
44
(
(0.0023645 -1.51014e-05 -9.50016e-05)
(0.00241247 -1.48994e-05 -7.9772e-05)
(0.00240664 -1.39081e-05 -5.78227e-05)
(0.00241185 -1.32869e-05 -3.51077e-05)
(0.00239721 -1.2321e-05 -1.41272e-05)
(0.00242272 -1.15877e-05 2.43168e-06)
(0.00226352 -4.98599e-06 -0.000111327)
(0.00228886 -4.74897e-06 -0.000111034)
(0.00232786 -4.26051e-06 -0.000106231)
(0.00232786 -4.26051e-06 -0.000106231)
(0.00240576 -4.00583e-06 -9.70082e-05)
(0.00246625 -3.39964e-06 -8.20578e-05)
(0.00244547 -1.51312e-05 -5.76962e-05)
(0.00247034 -1.46745e-05 -3.39574e-05)
(0.00242199 -1.30539e-05 -1.35331e-05)
(0.00243006 -1.19461e-05 2.07175e-06)
(0.00231685 -5.2352e-06 -0.000114488)
(0.00234468 -5.03088e-06 -0.000114608)
(0.00239733 -4.75099e-06 -0.000111656)
(0.00240576 -4.00583e-06 -9.70082e-05)
(0.00246625 -3.39964e-06 -8.20578e-05)
(0.00246625 -3.39964e-06 -8.20578e-05)
(0.00241877 -3.66279e-06 -5.08499e-05)
(0.00243212 -3.47358e-06 -2.91452e-05)
(0.00238948 -1.28121e-05 -1.30502e-05)
(0.00239707 -1.19916e-05 -7.79913e-07)
(0.00232577 -5.19068e-06 -0.000106867)
(0.00236069 -5.16237e-06 -0.000107856)
(0.0024144 -4.90241e-06 -0.000104378)
(0.00241065 -4.25946e-06 -8.98072e-05)
(0.00244012 -3.89304e-06 -7.28819e-05)
(0.00241877 -3.66279e-06 -5.08499e-05)
(0.00243212 -3.47358e-06 -2.91452e-05)
(0.00243212 -3.47358e-06 -2.91452e-05)
(0.0023551 -3.95013e-06 -1.27735e-05)
(0.00235814 -3.97794e-06 -4.85704e-06)
(0.00230707 -5.42805e-06 -9.1614e-05)
(0.00235139 -5.40525e-06 -9.23051e-05)
(0.00241044 -5.35441e-06 -8.89614e-05)
(0.00240047 -4.64584e-06 -7.61706e-05)
(0.00239917 -4.41487e-06 -6.00465e-05)
(0.00239028 -4.12743e-06 -4.21811e-05)
(0.00240129 -4.04907e-06 -2.49643e-05)
(0.0023551 -3.95013e-06 -1.27735e-05)
)
;
    }
    procBoundary2to3
    {
        type            processor;
        value           nonuniform List<vector> 
12
(
(0.00239993 3.29686e-07 7.05584e-06)
(0.00240816 1.01164e-05 7.65997e-06)
(0.00241914 1.81711e-05 9.28426e-06)
(0.00237073 2.02278e-05 7.09255e-06)
(0.00242499 -8.58955e-07 5.72075e-06)
(0.00243566 8.94562e-06 6.82321e-06)
(0.00247624 1.80608e-05 1.06829e-05)
(0.00241951 2.0171e-05 8.85907e-06)
(0.00240996 -2.35919e-06 8.72273e-07)
(0.00242034 6.39524e-06 1.76461e-06)
(0.00243432 1.33999e-05 4.41908e-06)
(0.00239712 1.61062e-05 4.33319e-06)
)
;
    }
    procBoundary2to6
    {
        type            processor;
        value           nonuniform List<vector> 
32
(
(0.00238886 4.38733e-06 -5.04149e-06)
(0.00237146 1.22668e-05 -1.52848e-05)
(0.00240352 1.10841e-05 -5.01842e-06)
(0.00234931 1.75165e-05 -3.03795e-05)
(0.00234274 1.52804e-05 -1.65086e-05)
(0.00236178 1.36221e-05 -6.21983e-06)
(0.00232955 8.28869e-06 -7.5994e-05)
(0.0023541 8.59611e-06 -7.45806e-05)
(0.00237252 8.92936e-06 -6.94224e-05)
(0.00236729 8.14709e-06 -5.97559e-05)
(0.00239018 7.58008e-06 -4.81231e-05)
(0.00235479 6.03845e-06 -3.40276e-05)
(0.00237632 5.03461e-06 -2.1138e-05)
(0.00238886 4.38733e-06 -5.04149e-06)
(0.00237146 1.22668e-05 -1.52848e-05)
(0.00234401 3.49296e-06 -1.21979e-05)
(0.00229546 1.78744e-05 -7.48523e-05)
(0.00233097 1.90933e-05 -7.42623e-05)
(0.00236416 1.98362e-05 -7.00027e-05)
(0.00236428 1.83597e-05 -6.11086e-05)
(0.0023849 1.73636e-05 -5.00102e-05)
(0.00236152 1.48097e-05 -3.64777e-05)
(0.00237146 1.22668e-05 -1.52848e-05)
(0.00234931 1.75165e-05 -3.03795e-05)
(0.00237927 1.3179e-05 -2.34414e-05)
(0.00224099 2.07126e-05 -7.31558e-05)
(0.00227396 2.21113e-05 -7.28549e-05)
(0.00229953 2.24103e-05 -6.87705e-05)
(0.0023102 2.13873e-05 -6.10088e-05)
(0.00234662 2.09458e-05 -5.07807e-05)
(0.00234931 1.75165e-05 -3.03795e-05)
(0.00234229 1.87376e-05 -3.83282e-05)
)
;
    }
}


// ************************************************************************* //
