/*--------------------------------*- C++ -*----------------------------------*\
| =========                 |                                                 |
| \\      /  F ield         | OpenFOAM: The Open Source CFD Toolbox           |
|  \\    /   O peration     | Version:  4.x                                   |
|   \\  /    A nd           | Web:      www.OpenFOAM.org                      |
|    \\/     M anipulation  |                                                 |
\*---------------------------------------------------------------------------*/
FoamFile
{
    version     2.0;
    format      ascii;
    class       volScalarField;
    location    "10.5";
    object      magGField;
}
// * * * * * * * * * * * * * * * * * * * * * * * * * * * * * * * * * * * * * //

dimensions      [1 -2 -1 0 0 0 0];

internalField   nonuniform List<scalar> 
114
(
63.7483
112.524
72.4326
115.116
65.8601
110.041
95.8168
48.5715
103.533
62.2658
111.073
71.4046
115.485
68.5089
113.289
97.1579
50.7941
106.792
67.5902
116.638
80.3709
124.125
83.1358
123.257
97.1686
54.9999
109.747
75.4762
123.788
93.8306
136.876
106.088
144.263
26.0728
87.0374
19.7065
89.4382
94.3712
39.8028
94.3937
36.6889
92.2494
30.6964
89.8934
23.8009
92.2663
95.1504
41.2875
95.9635
40.6878
95.3468
37.3422
93.395
30.4602
94.1375
95.471
48.4962
101.379
57.7892
106.963
65.1773
111.48
69.397
116.395
4.24444
82.1266
92.4384
35.5459
89.1628
25.7222
85.598
16.4078
83.7826
11.188
85.5047
93.6136
36.4863
90.5879
27.9208
87.1004
19.0823
84.5799
11.8514
85.5247
94.243
43.8949
96.2994
47.3834
98.2594
50.0766
98.457
51.3631
101.372
91.3993
33.582
87.0139
24.0956
85.0285
17.896
85.234
15.497
91.7738
35.6929
88.4457
27.7387
86.1675
20.7805
85.5029
93.1977
44.1154
94.9182
46.8355
96.6181
49.1815
)
;

boundaryField
{
    inlet
    {
        type            calculated;
        value           uniform 67;
    }
    outlet
    {
        type            calculated;
        value           nonuniform 0();
    }
    wall
    {
        type            calculated;
        value           uniform 0;
    }
    procBoundary2to0
    {
        type            processor;
        value           nonuniform List<scalar> 
44
(
64.7208
113.941
74.195
118.375
69.6807
112.272
97.8755
49.8738
105.625
105.625
35.109
90.3647
31.2583
90.8295
23.8552
92.9603
94.1206
38.9062
94.2991
35.109
90.3647
90.3647
7.53705
80.9667
5.46171
84.097
91.8783
31.7713
87.0001
18.2613
82.2373
7.53705
80.9667
80.9667
16.8959
85.3335
91.6974
33.4669
86.6803
22.3916
84.6796
17.1655
84.547
16.8959
)
;
    }
    procBoundary2to3
    {
        type            processor;
        value           nonuniform List<scalar> 
12
(
45.9194
52.9301
70.7373
107.938
19.0717
20.8585
24.4462
73.0518
4.67718
10.6824
10.6201
55.8576
)
;
    }
    procBoundary2to6
    {
        type            processor;
        value           nonuniform List<scalar> 
32
(
86.9871
17.3418
87.0054
98.7901
52.2502
102.513
88.8532
30.7182
83.8434
17.3624
80.3294
8.01734
79.3273
86.9871
17.3418
2.94539
91.0255
33.3469
86.5906
22.8529
83.0602
13.9523
17.3418
98.7901
81.2833
92.8986
43.0839
93.3256
44.4553
92.808
98.7901
43.9256
)
;
    }
}


// ************************************************************************* //
