/*--------------------------------*- C++ -*----------------------------------*\
| =========                 |                                                 |
| \\      /  F ield         | OpenFOAM: The Open Source CFD Toolbox           |
|  \\    /   O peration     | Version:  4.x                                   |
|   \\  /    A nd           | Web:      www.OpenFOAM.org                      |
|    \\/     M anipulation  |                                                 |
\*---------------------------------------------------------------------------*/
FoamFile
{
    version     2.0;
    format      ascii;
    class       volScalarField;
    location    "10.5";
    object      nu;
}
// * * * * * * * * * * * * * * * * * * * * * * * * * * * * * * * * * * * * * //

dimensions      [0 2 -1 0 0 0 0];

internalField   nonuniform List<scalar> 
114
(
1.00008e-06
1.00017e-06
1.00032e-06
1.00053e-06
1.00077e-06
1.00097e-06
1e-06
1.00001e-06
1.00003e-06
1.00007e-06
1.00016e-06
1.0003e-06
1.0005e-06
1.00075e-06
1.00098e-06
1e-06
1.00001e-06
1.00003e-06
1.00007e-06
1.00015e-06
1.00027e-06
1.00044e-06
1.00066e-06
1.0009e-06
1e-06
1.00001e-06
1.00002e-06
1.00005e-06
1.00011e-06
1.00019e-06
1.00031e-06
1.00047e-06
1.00065e-06
1.00041e-06
1.00061e-06
1.00075e-06
1.00078e-06
1e-06
1e-06
1.00002e-06
1.00007e-06
1.00018e-06
1.00035e-06
1.00055e-06
1.00071e-06
1.00079e-06
1e-06
1e-06
1.00002e-06
1.00007e-06
1.00016e-06
1.00031e-06
1.00051e-06
1.00069e-06
1.00082e-06
1e-06
1e-06
1.00002e-06
1.00004e-06
1.0001e-06
1.00019e-06
1.00032e-06
1.00047e-06
1.00064e-06
1.00049e-06
1.00048e-06
1e-06
1e-06
1.00002e-06
1.00006e-06
1.00014e-06
1.00025e-06
1.00038e-06
1.00045e-06
1.00047e-06
1e-06
1e-06
1.00001e-06
1.00005e-06
1.00012e-06
1.00024e-06
1.00037e-06
1.00047e-06
1.00052e-06
1e-06
1e-06
1.00001e-06
1.00003e-06
1.00007e-06
1.00014e-06
1.00024e-06
1.00036e-06
1.00049e-06
1e-06
1e-06
1.00001e-06
1.00004e-06
1.00008e-06
1.00015e-06
1.00022e-06
1.00025e-06
1e-06
1e-06
1.00001e-06
1.00003e-06
1.00008e-06
1.00014e-06
1.00022e-06
1e-06
1e-06
1.00001e-06
1.00002e-06
1.00005e-06
1.00008e-06
)
;

boundaryField
{
    inlet
    {
        type            calculated;
        value           uniform 1e-06;
    }
    outlet
    {
        type            calculated;
        value           nonuniform 0();
    }
    wall
    {
        type            calculated;
        value           nonuniform List<scalar> 
66
(
1e-06
1e-06
1e-06
1.00001e-06
1.00001e-06
1.00001e-06
1.00003e-06
1.00003e-06
1.00002e-06
1.00008e-06
1.00007e-06
1.00007e-06
1.00005e-06
1.00017e-06
1.00016e-06
1.00015e-06
1.00011e-06
1.00032e-06
1.0003e-06
1.00027e-06
1.00019e-06
1.00053e-06
1.0005e-06
1.00044e-06
1.00031e-06
1.00077e-06
1.00075e-06
1.00066e-06
1.00047e-06
1.00097e-06
1.00098e-06
1.0009e-06
1.00065e-06
1e-06
1e-06
1e-06
1e-06
1.00001e-06
1e-06
1e-06
1e-06
1.00002e-06
1.00002e-06
1.00001e-06
1.00001e-06
1.00005e-06
1.00004e-06
1.00003e-06
1.00002e-06
1.00011e-06
1.0001e-06
1.00007e-06
1.00005e-06
1.00019e-06
1.00019e-06
1.00014e-06
1.00008e-06
1.00031e-06
1.00032e-06
1.00024e-06
1.00047e-06
1.00047e-06
1.00036e-06
1.00065e-06
1.00064e-06
1.00049e-06
)
;
    }
    procBoundary2to0
    {
        type            processor;
        value           nonuniform List<scalar> 
44
(
1.00007e-06
1.00016e-06
1.00029e-06
1.00049e-06
1.00072e-06
1.00095e-06
1e-06
1.00001e-06
1.00003e-06
1.00003e-06
1.00009e-06
1.00022e-06
1.00036e-06
1.00055e-06
1.00069e-06
1.00074e-06
1e-06
1.00001e-06
1.00003e-06
1.00009e-06
1.00022e-06
1.00022e-06
1.00031e-06
1.00044e-06
1.00046e-06
1.00045e-06
1e-06
1e-06
1.00002e-06
1.00007e-06
1.00017e-06
1.00031e-06
1.00044e-06
1.00044e-06
1.00032e-06
1.00032e-06
1e-06
1e-06
1.00001e-06
1.00005e-06
1.00011e-06
1.00019e-06
1.00027e-06
1.00032e-06
)
;
    }
    procBoundary2to3
    {
        type            processor;
        value           nonuniform List<scalar> 
12
(
1.00103e-06
1.00111e-06
1.00109e-06
1.00085e-06
1.00068e-06
1.00073e-06
1.00083e-06
1.0008e-06
1.00038e-06
1.00038e-06
1.00046e-06
1.00062e-06
)
;
    }
    procBoundary2to6
    {
        type            processor;
        value           nonuniform List<scalar> 
32
(
1.00025e-06
1.00028e-06
1.0003e-06
1.00014e-06
1.00021e-06
1.0003e-06
1e-06
1e-06
1.00001e-06
1.00004e-06
1.00008e-06
1.00014e-06
1.00018e-06
1.00025e-06
1.00028e-06
1.00019e-06
1e-06
1e-06
1.00001e-06
1.00003e-06
1.00007e-06
1.00012e-06
1.00028e-06
1.00014e-06
1.00017e-06
1e-06
1e-06
1.00001e-06
1.00002e-06
1.00004e-06
1.00014e-06
1.00007e-06
)
;
    }
}


// ************************************************************************* //
