/*--------------------------------*- C++ -*----------------------------------*\
| =========                 |                                                 |
| \\      /  F ield         | OpenFOAM: The Open Source CFD Toolbox           |
|  \\    /   O peration     | Version:  4.x                                   |
|   \\  /    A nd           | Web:      www.OpenFOAM.org                      |
|    \\/     M anipulation  |                                                 |
\*---------------------------------------------------------------------------*/
FoamFile
{
    version     2.0;
    format      ascii;
    class       volScalarField;
    location    "10.5";
    object      QWallFluid;
}
// * * * * * * * * * * * * * * * * * * * * * * * * * * * * * * * * * * * * * //

dimensions      [1 -1 -3 0 0 0 0];

internalField   nonuniform List<scalar> 
114
(
5.94831e+08
9.37159e+08
6.58819e+08
9.54391e+08
6.10543e+08
9.20582e+08
8.24085e+08
4.78546e+08
8.76764e+08
5.83739e+08
9.27482e+08
6.51328e+08
9.56838e+08
6.3011e+08
9.42256e+08
8.33299e+08
4.95986e+08
8.98775e+08
6.23341e+08
9.64475e+08
7.15975e+08
1.01369e+09
7.35613e+08
1.00802e+09
1.66675e+09
1.05715e+09
1.83722e+09
1.36175e+09
2.02297e+09
1.62078e+09
2.19236e+09
1.78806e+09
2.28651e+09
0
0
0
0
0
0
0
0
0
0
0
0
0
0
0
0
0
0
0
0
0
0
8.21705e+08
4.77953e+08
8.62137e+08
5.49915e+08
8.99923e+08
6.05475e+08
9.302e+08
6.36636e+08
9.6287e+08
0
0
0
0
0
0
0
0
0
0
0
0
0
0
0
0
0
0
0
0
8.13238e+08
4.41316e+08
8.27404e+08
4.69159e+08
8.40849e+08
4.90373e+08
8.42202e+08
5.00426e+08
8.62091e+08
0
0
0
0
0
0
0
0
0
0
0
0
0
0
0
8.06015e+08
4.43089e+08
8.17896e+08
4.64813e+08
8.29593e+08
4.83348e+08
)
;

boundaryField
{
    inlet
    {
        type            calculated;
        value           uniform 0;
    }
    outlet
    {
        type            calculated;
        value           nonuniform 0();
    }
    wall
    {
        type            calculated;
        value           uniform 0;
    }
    procBoundary2to0
    {
        type            processor;
        value           nonuniform List<scalar> 
44
(
6.02079e+08
9.46591e+08
6.71612e+08
9.75949e+08
6.38717e+08
9.35482e+08
0
4.88784e+08
8.90908e+08
8.90908e+08
0
0
0
0
0
0
0
0
0
0
0
0
0
0
0
0
0
0
0
0
0
0
0
0
0
0
0
0
0
0
0
0
0
0
)
;
    }
    procBoundary2to3
    {
        type            processor;
        value           nonuniform List<scalar> 
12
(
4.57526e+08
5.12602e+08
6.46454e+08
1.81296e+09
0
0
0
6.6332e+08
0
0
0
5.35161e+08
)
;
    }
    procBoundary2to6
    {
        type            processor;
        value           nonuniform List<scalar> 
32
(
0
0
0
8.4448e+08
5.07328e+08
8.69846e+08
0
0
0
0
0
0
0
0
0
0
0
0
0
0
0
0
0
8.4448e+08
0
8.03944e+08
4.34781e+08
8.06899e+08
4.45818e+08
8.03317e+08
8.4448e+08
4.41563e+08
)
;
    }
}


// ************************************************************************* //
