/*--------------------------------*- C++ -*----------------------------------*\
| =========                 |                                                 |
| \\      /  F ield         | OpenFOAM: The Open Source CFD Toolbox           |
|  \\    /   O peration     | Version:  4.x                                   |
|   \\  /    A nd           | Web:      www.OpenFOAM.org                      |
|    \\/     M anipulation  |                                                 |
\*---------------------------------------------------------------------------*/
FoamFile
{
    version     2.0;
    format      ascii;
    class       volScalarField;
    location    "10.5";
    object      rho;
}
// * * * * * * * * * * * * * * * * * * * * * * * * * * * * * * * * * * * * * //

dimensions      [1 -3 0 0 0 0 0];

internalField   nonuniform List<scalar> 
114
(
6699.5
6698.86
6697.86
6696.47
6694.82
6693.48
6699.99
6699.95
6699.82
6699.51
6698.92
6697.97
6696.63
6694.99
6693.46
6699.99
6699.95
6699.83
6699.55
6699.02
6698.21
6697.04
6695.57
6693.99
6699.99
6699.95
6699.85
6699.64
6699.26
6698.7
6697.9
6696.88
6695.62
6697.27
6695.92
6695
6694.75
6700
6699.97
6699.85
6699.5
6698.79
6697.64
6696.32
6695.24
6694.69
6700
6699.97
6699.86
6699.56
6698.93
6697.91
6696.6
6695.36
6694.51
6700
6699.97
6699.89
6699.71
6699.33
6698.75
6697.89
6696.85
6695.71
6696.7
6696.76
6700
6699.98
6699.89
6699.63
6699.09
6698.31
6697.46
6696.97
6696.85
6700
6699.98
6699.9
6699.66
6699.18
6698.41
6697.52
6696.84
6696.5
6700
6699.98
6699.93
6699.79
6699.5
6699.05
6698.38
6697.59
6696.69
6700
6699.99
6699.93
6699.76
6699.44
6699
6698.55
6698.31
6700
6699.99
6699.93
6699.78
6699.48
6699.03
6698.51
6700
6699.99
6699.95
6699.87
6699.7
6699.44
)
;

boundaryField
{
    inlet
    {
        type            calculated;
        value           uniform 6700;
    }
    outlet
    {
        type            calculated;
        value           nonuniform 0();
    }
    wall
    {
        type            calculated;
        value           nonuniform List<scalar> 
66
(
6699.99
6699.99
6699.99
6699.95
6699.95
6699.95
6699.82
6699.83
6699.85
6699.5
6699.51
6699.55
6699.64
6698.86
6698.92
6699.02
6699.26
6697.86
6697.97
6698.21
6698.7
6696.47
6696.63
6697.04
6697.9
6694.82
6694.99
6695.57
6696.88
6693.48
6693.46
6693.99
6695.62
6699.99
6700
6700
6700
6699.95
6699.97
6699.98
6699.99
6699.85
6699.89
6699.93
6699.95
6699.64
6699.71
6699.79
6699.87
6699.26
6699.33
6699.5
6699.7
6698.7
6698.75
6699.05
6699.44
6697.9
6697.89
6698.38
6696.88
6696.85
6697.59
6695.62
6695.71
6696.69
)
;
    }
    procBoundary2to0
    {
        type            processor;
        value           nonuniform List<scalar> 
44
(
6699.52
6698.95
6698.04
6696.74
6695.15
6693.67
6699.99
6699.95
6699.82
6699.82
6699.39
6698.55
6697.6
6696.33
6695.38
6695.02
6700
6699.96
6699.82
6699.39
6698.55
6698.55
6697.94
6697.06
6696.9
6697
6700
6699.97
6699.86
6699.51
6698.84
6697.94
6697.06
6697.06
6697.88
6697.87
6700
6699.98
6699.91
6699.69
6699.27
6698.72
6698.16
6697.88
)
;
    }
    procBoundary2to3
    {
        type            processor;
        value           nonuniform List<scalar> 
12
(
6693.09
6692.6
6692.7
6694.3
6695.47
6695.1
6694.46
6694.64
6697.47
6697.43
6696.95
6695.88
)
;
    }
    procBoundary2to6
    {
        type            processor;
        value           nonuniform List<scalar> 
32
(
6698.31
6698.15
6698.02
6699.05
6698.6
6698.02
6700
6699.99
6699.93
6699.75
6699.44
6699.05
6698.77
6698.31
6698.15
6698.76
6700
6699.99
6699.94
6699.81
6699.56
6699.22
6698.15
6699.05
6698.89
6700
6699.99
6699.96
6699.89
6699.76
6699.05
6699.55
)
;
    }
}


// ************************************************************************* //
