/*--------------------------------*- C++ -*----------------------------------*\
| =========                 |                                                 |
| \\      /  F ield         | OpenFOAM: The Open Source CFD Toolbox           |
|  \\    /   O peration     | Version:  4.x                                   |
|   \\  /    A nd           | Web:      www.OpenFOAM.org                      |
|    \\/     M anipulation  |                                                 |
\*---------------------------------------------------------------------------*/
FoamFile
{
    version     2.0;
    format      ascii;
    class       volScalarField;
    location    "10.5";
    object      SPartFluid;
}
// * * * * * * * * * * * * * * * * * * * * * * * * * * * * * * * * * * * * * //

dimensions      [1 -3 -1 0 0 0 0];

internalField   nonuniform List<scalar> 
114
(
6.50991e-65
4.88241e-65
2.5574e-65
4.8823e-65
2.24738e-65
2.63485e-65
5.73505e-65
6.51002e-65
5.11498e-65
3.79745e-65
6.19987e-65
4.41736e-65
6.19976e-65
6.12222e-65
3.95233e-65
4.03005e-65
5.65753e-65
2.78999e-65
5.26995e-65
3.87494e-65
5.19238e-65
2.78992e-65
4.64984e-65
3.09988e-65
4.41755e-65
4.26254e-65
3.87502e-65
4.5725e-65
3.33249e-65
3.79747e-65
2.71247e-65
4.49492e-65
3.09995e-65
8.44711e-65
9.76445e-65
5.73463e-65
9.37684e-65
5.42504e-65
6.82001e-65
7.67242e-65
7.74984e-65
7.05229e-65
6.27723e-65
8.98954e-65
7.59453e-65
5.19219e-65
6.04506e-65
8.60253e-65
8.29246e-65
7.59489e-65
7.36233e-65
7.36228e-65
7.05222e-65
7.12968e-65
6.27719e-65
5.89006e-65
5.19253e-65
6.975e-65
5.81245e-65
6.8974e-65
5.88988e-65
5.88985e-65
6.50979e-65
4.26236e-65
7.59439e-65
7.98184e-65
7.28505e-65
4.96e-65
5.50242e-65
6.12234e-65
5.57978e-65
7.12963e-65
8.36949e-65
6.58703e-65
4.88213e-65
5.34755e-65
6.04501e-65
7.12993e-65
9.06732e-65
7.28476e-65
6.43222e-65
7.51712e-65
7.43959e-65
8.36946e-65
5.34755e-65
7.51753e-65
6.04499e-65
6.9749e-65
4.64991e-65
6.50981e-65
8.29222e-65
4.95979e-65
8.91208e-65
4.80503e-65
8.13747e-65
8.36987e-65
6.50983e-65
6.43224e-65
6.27715e-65
6.27708e-65
7.74938e-65
6.89756e-65
6.8975e-65
8.36992e-65
5.81238e-65
7.20725e-65
6.89717e-65
8.36956e-65
5.27005e-65
6.51002e-65
6.27747e-65
7.12989e-65
5.50237e-65
6.35478e-65
)
;

boundaryField
{
    inlet
    {
        type            calculated;
        value           uniform 0;
    }
    outlet
    {
        type            calculated;
        value           nonuniform 0();
    }
    wall
    {
        type            calculated;
        value           uniform 0;
    }
    procBoundary2to0
    {
        type            processor;
        value           nonuniform List<scalar> 
44
(
4.72742e-65
4.26239e-65
4.33986e-65
3.25486e-65
4.18481e-65
7.20714e-65
2.86753e-65
4.41751e-65
3.25499e-65
3.25499e-65
4.57237e-65
9.14468e-65
6.58722e-65
8.29206e-65
6.04463e-65
4.95967e-65
8.06006e-65
6.1225e-65
6.12242e-65
4.57237e-65
9.14468e-65
9.14468e-65
7.12961e-65
7.12948e-65
6.1995e-65
4.57214e-65
7.28505e-65
7.59496e-65
7.67237e-65
7.98227e-65
8.36964e-65
7.12961e-65
7.12948e-65
7.12948e-65
5.42455e-65
2.32477e-65
5.27004e-65
5.88998e-65
7.82737e-65
9.22222e-65
4.41731e-65
9.22194e-65
7.12946e-65
5.42455e-65
)
;
    }
    procBoundary2to3
    {
        type            processor;
        value           nonuniform List<scalar> 
12
(
6.97456e-65
5.03723e-65
5.50227e-65
4.6499e-65
7.51692e-65
6.50955e-65
1.03845e-64
7.74968e-65
7.6718e-65
8.98925e-65
5.65712e-65
5.7347e-65
)
;
    }
    procBoundary2to6
    {
        type            processor;
        value           nonuniform List<scalar> 
32
(
6.74192e-65
6.04464e-65
7.1295e-65
5.11481e-65
5.81223e-65
4.95975e-65
1.03851e-64
7.59499e-65
4.95993e-65
7.43978e-65
9.37709e-65
6.12215e-65
7.36203e-65
6.74192e-65
6.04464e-65
6.50951e-65
5.81254e-65
7.90501e-65
6.43243e-65
8.5248e-65
7.36225e-65
7.82715e-65
6.04464e-65
5.11481e-65
7.05211e-65
4.96005e-65
7.20752e-65
5.42499e-65
6.1224e-65
7.59483e-65
5.11481e-65
8.7572e-65
)
;
    }
}


// ************************************************************************* //
