/*--------------------------------*- C++ -*----------------------------------*\
| =========                 |                                                 |
| \\      /  F ield         | OpenFOAM: The Open Source CFD Toolbox           |
|  \\    /   O peration     | Version:  4.x                                   |
|   \\  /    A nd           | Web:      www.OpenFOAM.org                      |
|    \\/     M anipulation  |                                                 |
\*---------------------------------------------------------------------------*/
FoamFile
{
    version     2.0;
    format      ascii;
    class       volVectorField;
    location    "24.5";
    object      impParticleForces;
}
// * * * * * * * * * * * * * * * * * * * * * * * * * * * * * * * * * * * * * //

dimensions      [1 1 -2 0 0 0 0];

internalField   nonuniform List<vector> 
132
(
(0.0022461 -2.24735e-05 -9.09803e-05)
(0.0022619 -2.24465e-05 -9.09488e-05)
(0.00230367 -2.18389e-05 -8.98841e-05)
(0.00232296 -1.95014e-05 -8.58609e-05)
(0.00236663 -1.63837e-05 -8.11546e-05)
(0.00239813 -1.14182e-05 -7.46611e-05)
(0.00243624 -4.3781e-06 -6.76444e-05)
(0.0024139 7.58212e-06 -5.80769e-05)
(0.00241118 2.84147e-05 -4.81555e-05)
(0.00226731 -2.0229e-05 -9.2903e-05)
(0.0022994 -2.06371e-05 -9.39779e-05)
(0.00234687 -2.03257e-05 -9.33058e-05)
(0.00236656 -1.80091e-05 -8.90827e-05)
(0.00240378 -1.50831e-05 -8.40627e-05)
(0.00243525 -1.07051e-05 -7.72989e-05)
(0.00245334 -4.55789e-06 -6.92738e-05)
(0.00245173 4.67848e-06 -5.96912e-05)
(0.00247168 1.83263e-05 -4.99691e-05)
(0.00228223 -1.40985e-05 -9.44638e-05)
(0.00232056 -1.44909e-05 -9.60254e-05)
(0.00236591 -1.40391e-05 -9.52176e-05)
(0.00238586 -1.20731e-05 -9.07697e-05)
(0.00243524 -9.96713e-06 -8.61471e-05)
(0.00243465 -6.23222e-06 -7.80645e-05)
(0.00245215 -1.75899e-06 -6.99155e-05)
(0.00245051 4.61463e-06 -5.98826e-05)
(0.00248454 1.25304e-05 -5.05466e-05)
(0.00229063 -5.1642e-06 -9.48588e-05)
(0.00231446 -4.8332e-06 -9.56369e-05)
(0.00235217 -4.04705e-06 -9.46266e-05)
(0.0022763 -2.4047e-05 -9.07949e-05)
(0.00231047 -2.47468e-05 -9.21026e-05)
(0.00235629 -2.44261e-05 -9.15947e-05)
(0.00238098 -2.21102e-05 -8.74058e-05)
(0.00242004 -1.91274e-05 -8.2566e-05)
(0.00243384 -1.40884e-05 -7.5373e-05)
(0.00246704 -7.71927e-06 -6.86917e-05)
(0.00244142 2.34639e-06 -5.89012e-05)
(0.00245383 1.65537e-05 -4.9536e-05)
(0.00230576 -2.19991e-05 -9.32736e-05)
(0.00236294 -2.3395e-05 -9.63872e-05)
(0.00240832 -2.32257e-05 -9.5953e-05)
(0.00242894 -2.08203e-05 -9.11937e-05)
(0.00248208 -1.84768e-05 -8.68949e-05)
(0.00248169 -1.33689e-05 -7.84808e-05)
(0.00251145 -7.96568e-06 -7.11265e-05)
(0.00249006 4.95552e-07 -6.09586e-05)
(0.00250347 1.09202e-05 -5.09763e-05)
(0.00232653 -1.53356e-05 -9.5322e-05)
(0.00237957 -1.63201e-05 -9.82655e-05)
(0.00242523 -1.59922e-05 -9.78725e-05)
(0.00244251 -1.39707e-05 -9.26499e-05)
(0.00248446 -1.17615e-05 -8.76483e-05)
(0.00248392 -8.03758e-06 -7.91774e-05)
(0.00251853 -4.04425e-06 -7.16862e-05)
(0.00247372 2.15739e-06 -6.01386e-05)
(0.00248472 8.8789e-06 -5.00491e-05)
(0.00234709 -5.43308e-06 -9.69534e-05)
(0.00237487 -5.19183e-06 -9.80535e-05)
(0.00242867 -4.61041e-06 -9.86804e-05)
(0.00243889 -3.18666e-06 -9.28193e-05)
(0.00250169 -1.63823e-06 -8.94231e-05)
(0.00229051 -2.57576e-05 -8.4759e-05)
(0.0023231 -2.6539e-05 -8.59495e-05)
(0.00237434 -2.66062e-05 -8.57522e-05)
(0.00238422 -2.40784e-05 -8.12774e-05)
(0.00241971 -2.13439e-05 -7.66619e-05)
(0.00242018 -1.65918e-05 -6.97696e-05)
(0.00244827 -1.1495e-05 -6.33976e-05)
(0.00242164 -3.78446e-06 -5.46558e-05)
(0.00242168 5.19154e-06 -4.55531e-05)
(0.00233019 -2.39472e-05 -8.76404e-05)
(0.00237583 -2.52268e-05 -8.98126e-05)
(0.00242211 -2.53064e-05 -8.93635e-05)
(0.00243181 -2.27287e-05 -8.45161e-05)
(0.0024748 -2.04669e-05 -8.00021e-05)
(0.00245988 -1.54085e-05 -7.20208e-05)
(0.00249511 -1.12363e-05 -6.55284e-05)
(0.00246439 -4.32286e-06 -5.62553e-05)
(0.00246814 3.0008e-06 -4.68965e-05)
(0.00234929 -1.65598e-05 -8.90884e-05)
(0.00238822 -1.72966e-05 -9.11231e-05)
(0.00244214 -1.75074e-05 -9.12751e-05)
(0.00245438 -1.55173e-05 -8.63657e-05)
(0.00249164 -1.35196e-05 -8.12499e-05)
(0.0024661 -9.49098e-06 -7.23992e-05)
(0.00248684 -5.97959e-06 -6.48088e-05)
(0.00243257 -7.08508e-07 -5.43754e-05)
(0.00243304 4.34126e-06 -4.49082e-05)
(0.00236126 -5.37339e-06 -9.00718e-05)
(0.00239803 -5.27459e-06 -9.20578e-05)
(0.00245552 -4.70955e-06 -9.25016e-05)
(0.00245573 -3.39829e-06 -8.6829e-05)
(0.00248651 -2.02576e-06 -8.15271e-05)
(0.0024667 -2.34453e-07 -7.28843e-05)
(0.00248087 1.884e-06 -6.50216e-05)
(0.00228387 -2.67643e-05 -7.35416e-05)
(0.00231621 -2.76287e-05 -7.4373e-05)
(0.00237219 -2.80736e-05 -7.43795e-05)
(0.00237225 -2.5304e-05 -7.01975e-05)
(0.00240794 -2.28927e-05 -6.64022e-05)
(0.0024083 -1.88779e-05 -6.08507e-05)
(0.00242316 -1.46621e-05 -5.46053e-05)
(0.00239106 -8.82574e-06 -4.67496e-05)
(0.00240504 -3.54312e-06 -3.88623e-05)
(0.00232791 -2.49347e-05 -7.57685e-05)
(0.00238143 -2.6736e-05 -7.76498e-05)
(0.00243135 -2.71048e-05 -7.72228e-05)
(0.00243222 -2.42839e-05 -7.29444e-05)
(0.00244823 -2.14106e-05 -6.80451e-05)
(0.00243477 -1.71646e-05 -6.16012e-05)
(0.0024658 -1.38735e-05 -5.57803e-05)
(0.00241964 -8.26679e-06 -4.73233e-05)
(0.00242971 -3.64397e-06 -3.90891e-05)
(0.00234809 -1.73792e-05 -7.68369e-05)
(0.00238523 -1.80361e-05 -7.79125e-05)
(0.0024482 -1.85772e-05 -7.81483e-05)
(0.00243603 -1.61149e-05 -7.3182e-05)
(0.00245891 -1.42026e-05 -6.83859e-05)
(0.00243904 -1.07558e-05 -6.14798e-05)
(0.0024497 -7.63266e-06 -5.47055e-05)
(0.00239447 -3.47446e-06 -4.58726e-05)
(0.00240625 -1.92273e-07 -3.75441e-05)
(0.00234705 -5.46861e-06 -7.67677e-05)
(0.00239405 -5.35175e-06 -7.8472e-05)
(0.00245763 -4.94701e-06 -7.87623e-05)
(0.00245039 -3.59669e-06 -7.41529e-05)
(0.00244908 -2.3399e-06 -6.82872e-05)
(0.00243734 -7.05053e-07 -6.17539e-05)
(0.00244193 1.17324e-06 -5.47896e-05)
(0.00238461 3.34414e-06 -4.58942e-05)
(0.00237383 5.65667e-06 -3.73769e-05)
)
;

boundaryField
{
    inlet
    {
        type            zeroGradient;
    }
    outlet
    {
        type            zeroGradient;
    }
    wall
    {
        type            zeroGradient;
    }
    procBoundary0to1
    {
        type            processor;
        value           nonuniform List<vector> 
12
(
(0.00243706 7.26012e-05 -3.73211e-05)
(0.00247186 3.99458e-05 -3.87766e-05)
(0.0024726 2.29799e-05 -3.93097e-05)
(0.00245759 3.82892e-05 -3.91899e-05)
(0.00250199 2.48437e-05 -4.00131e-05)
(0.00248626 1.67359e-05 -3.91317e-05)
(0.00241402 1.59188e-05 -3.59148e-05)
(0.00244397 1.14208e-05 -3.60643e-05)
(0.00242925 9.724e-06 -3.46593e-05)
(0.0023828 2.24887e-06 -2.9752e-05)
(0.00241212 1.38874e-06 -2.97768e-05)
(0.00238468 3.68157e-06 -2.83711e-05)
)
;
    }
    procBoundary0to2
    {
        type            processor;
        value           nonuniform List<vector> 
44
(
(0.00239421 -2.8081e-06 -9.16173e-05)
(0.0024303 -1.35452e-06 -8.63968e-05)
(0.00243096 6.84303e-07 -7.83776e-05)
(0.00246451 3.32702e-06 -7.07655e-05)
(0.00243875 7.09454e-06 -6.00822e-05)
(0.00244948 1.16816e-05 -5.02304e-05)
(0.00229773 4.58481e-06 -9.43901e-05)
(0.0023275 5.36424e-06 -9.5824e-05)
(0.00239421 -2.8081e-06 -9.16173e-05)
(0.0023711 6.31262e-06 -9.50297e-05)
(0.00239421 -2.8081e-06 -9.16173e-05)
(0.0024303 -1.35452e-06 -8.63968e-05)
(0.00249348 8.61106e-08 -8.02288e-05)
(0.00252615 2.60306e-06 -7.27352e-05)
(0.00247235 6.13801e-06 -6.0454e-05)
(0.00249235 1.01105e-05 -5.0858e-05)
(0.00232494 5.36542e-06 -9.42839e-05)
(0.00237512 6.29264e-06 -9.72396e-05)
(0.00243896 7.5278e-06 -9.84665e-05)
(0.00245172 8.13482e-06 -9.32229e-05)
(0.00249348 8.61106e-08 -8.02288e-05)
(0.00248581 8.84596e-06 -8.79181e-05)
(0.00249348 8.61106e-08 -8.02288e-05)
(0.00252615 2.60306e-06 -7.27352e-05)
(0.00243223 4.753e-06 -5.4674e-05)
(0.00243512 7.92096e-06 -4.53153e-05)
(0.00234965 6.34942e-06 -8.86106e-05)
(0.00238276 7.16936e-06 -9.00828e-05)
(0.00243763 8.38431e-06 -9.0542e-05)
(0.00244311 8.72207e-06 -8.56208e-05)
(0.00246382 9.1226e-06 -8.00195e-05)
(0.00245197 9.08834e-06 -7.2065e-05)
(0.00243223 4.753e-06 -5.4674e-05)
(0.00247642 9.87925e-06 -6.50047e-05)
(0.00243223 4.753e-06 -5.4674e-05)
(0.00243512 7.92096e-06 -4.53153e-05)
(0.00235264 7.01009e-06 -7.66971e-05)
(0.00240371 8.1207e-06 -7.83848e-05)
(0.00245342 9.42511e-06 -7.84466e-05)
(0.00243585 9.15101e-06 -7.34047e-05)
(0.00245143 9.46425e-06 -6.85365e-05)
(0.00242282 9.1985e-06 -6.14287e-05)
(0.00243693 9.88324e-06 -5.50144e-05)
(0.00239745 1.04023e-05 -4.69308e-05)
)
;
    }
    procBoundary0to4
    {
        type            processor;
        value           nonuniform List<vector> 
36
(
(0.0022799 -2.74049e-05 -6.07504e-05)
(0.00230885 -2.81835e-05 -6.09933e-05)
(0.00236492 -2.88266e-05 -6.04336e-05)
(0.00237364 -2.65032e-05 -5.77211e-05)
(0.00240266 -2.41701e-05 -5.43541e-05)
(0.00238538 -2.01089e-05 -4.95491e-05)
(0.00241026 -1.70721e-05 -4.43237e-05)
(0.00237791 -1.27191e-05 -3.75567e-05)
(0.00239205 -9.64256e-06 -3.02525e-05)
(0.0023283 -2.57096e-05 -6.17907e-05)
(0.00236519 -2.68783e-05 -6.20371e-05)
(0.00242611 -2.79203e-05 -6.15492e-05)
(0.00242978 -2.53276e-05 -5.87481e-05)
(0.00244596 -2.26827e-05 -5.48612e-05)
(0.00241873 -1.84379e-05 -4.96398e-05)
(0.00243261 -1.5373e-05 -4.42181e-05)
(0.00239267 -1.11334e-05 -3.72723e-05)
(0.00242126 -8.53705e-06 -3.02213e-05)
(0.00234967 -1.79566e-05 -6.23299e-05)
(0.00239831 -1.91918e-05 -6.29724e-05)
(0.00244086 -1.92963e-05 -6.16522e-05)
(0.00243371 -1.7083e-05 -5.84403e-05)
(0.00244395 -1.49919e-05 -5.40837e-05)
(0.0024091 -1.16138e-05 -4.86661e-05)
(0.00241829 -9.01719e-06 -4.29983e-05)
(0.0023879 -6.15727e-06 -3.64314e-05)
(0.00238456 -3.4951e-06 -2.90035e-05)
(0.00233818 -5.51896e-06 -6.19876e-05)
(0.00239047 -5.8338e-06 -6.23209e-05)
(0.0024407 -5.31416e-06 -6.13836e-05)
(0.00242177 -4.35654e-06 -5.79451e-05)
(0.00244104 -3.38234e-06 -5.39759e-05)
(0.00240818 -1.76313e-06 -4.87255e-05)
(0.0024259 -2.12005e-07 -4.32313e-05)
(0.00236575 1.47489e-06 -3.64891e-05)
(0.00236726 3.23653e-06 -2.96692e-05)
)
;
    }
    procBoundary0to6
    {
        type            processor;
        value           uniform (0.00240602 1.17682e-05 -3.89278e-05);
    }
    procBoundary0to7
    {
        type            processor;
        value           uniform (0.00238081 8.03914e-06 -2.88516e-05);
    }
}


// ************************************************************************* //
