/*--------------------------------*- C++ -*----------------------------------*\
  =========                 |
  \\      /  F ield         | OpenFOAM: The Open Source CFD Toolbox
   \\    /   O peration     | Website:  https://openfoam.org
    \\  /    A nd           | Version:  4.x
     \\/     M anipulation  |
\*---------------------------------------------------------------------------*/
FoamFile
{
    version     2.0;
    format      ascii;
    class       vectorField;
    location    0;
    object      v;
}
// * * * * * * * * * * * * * * * * * * * * * * * * * * * * * * * * * * * * * //

407
(
( -5.16773e-06 -2.7422e-07 1.10116e-07 )  
( -4.95375e-06 1.13359e-07 1.67724e-07 )  
( -4.03232e-06 6.78881e-07 -3.44237e-08 )  
( -4.58899e-06 -2.31686e-07 1.40837e-07 )  
( -4.33063e-06 -3.69912e-07 2.51688e-07 )  
( -5.30284e-06 -2.28075e-07 4.90599e-08 )  
( -5.02065e-06 -1.00261e-07 1.9212e-07 )  
( -4.75927e-06 -2.89821e-07 1.20788e-07 )  
( -1.59857e-06 8.56226e-08 -2.81875e-07 )  
( -4.00602e-06 2.66169e-08 -1.06433e-07 )  
( -2.37749e-06 -9.35662e-08 -2.14589e-07 )  
( -3.74531e-06 -1.30388e-07 -2.1362e-07 )  
( -3.1836e-06 4.51395e-08 -1.50319e-07 )  
( -3.91542e-06 2.78277e-07 1.09797e-07 )  
( -3.58903e-06 -1.38889e-08 -1.05903e-07 )  
( -5.15306e-06 -5.2937e-08 1.15495e-07 )  
( -1.06912e-06 2.39612e-07 -3.07839e-07 )  
( -5.20888e-06 -1.80567e-07 1.51535e-07 )  
( -5.31311e-07 5.79603e-08 -1.58539e-07 )  
( -4.1584e-06 -1.27631e-07 -3.17203e-08 )  
( -4.72889e-07 1.78982e-07 -2.77597e-07 )  
( -4.86402e-06 -1.55475e-07 6.19357e-08 )  
( -2.91852e-06 -7.18466e-08 -3.44366e-07 )  
( -5.43641e-06 -8.1999e-08 1.46933e-07 )  
( -2.50495e-06 -1.82773e-08 -2.3995e-07 )  
( -1.68927e-06 -6.84543e-09 -2.92486e-07 )  
( -4.47317e-06 9.36351e-08 -6.18747e-08 )  
( -4.41985e-06 5.14359e-08 1.27595e-07 )  
( -4.12641e-06 -6.72335e-08 -1.48519e-07 )  
( -5.06135e-07 9.06772e-08 -1.6003e-07 )  
( -3.2763e-06 -3.57935e-08 2.65187e-07 )  
( -1.62543e-06 -7.02472e-07 -1.98024e-07 )  
( -2.76138e-06 -3.46802e-07 -4.07062e-07 )  
( -3.80967e-06 -2.71799e-07 -1.47133e-07 )  
( -4.90924e-06 1.27058e-08 2.89011e-07 )  
( -4.89642e-06 -2.84926e-07 -1.151e-08 )  
( -5.4193e-06 -2.16411e-07 2.07189e-07 )  
( -3.24515e-06 -4.30352e-07 -4.2338e-07 )  
( -5.76899e-06 -4.35551e-08 2.5072e-07 )  
( -4.48849e-06 -2.84807e-08 -4.53857e-07 )  
( -2.79841e-06 -1.85465e-07 -6.31208e-07 )  
( -2.4007e-06 -2.05679e-07 -3.41532e-07 )  
( -1.14086e-06 1.66607e-07 -2.71781e-07 )  
( -3.25551e-06 -4.10438e-07 -8.67334e-08 )  
( -4.22923e-06 -1.16802e-07 4.95763e-08 )  
( -3.0872e-06 -5.71127e-07 -4.38935e-07 )  
( -4.5907e-06 -3.90661e-08 2.12985e-07 )  
( -5.09034e-06 -2.87312e-07 1.11378e-07 )  
( -4.65177e-06 -1.57514e-07 2.66226e-08 )  
( -3.03145e-06 2.50866e-07 -2.5355e-07 )  
( -1.79288e-06 -2.84158e-07 -1.54954e-07 )  
( -5.0696e-06 -2.55278e-07 1.00148e-07 )  
( -3.09243e-06 1.08144e-07 1.60568e-07 )  
( -3.63308e-06 -2.21811e-07 -2.05776e-07 )  
( -2.88927e-06 -3.37675e-07 -3.3744e-07 )  
( -2.10492e-06 -5.03339e-07 -2.08977e-07 )  
( -4.80676e-06 -3.91098e-07 4.23522e-08 )  
( -3.645e-06 -5.64484e-07 -1.87582e-07 )  
( -4.81163e-06 -1.31059e-07 2.28527e-07 )  
( -4.56247e-06 -2.58707e-07 1.90124e-08 )  
( -3.36128e-06 -4.69938e-07 -8.98705e-07 )  
( -4.88401e-06 -1.38157e-07 2.51319e-07 )  
( -3.64043e-06 -1.72826e-07 -1.60152e-07 )  
( -4.41638e-06 3.89439e-08 4.50104e-08 )  
( -5.59986e-07 -1.12526e-07 -1.00992e-07 )  
( -2.38115e-06 -2.80761e-07 -2.23248e-07 )  
( -3.3907e-06 2.85249e-07 9.12885e-08 )  
( -1.00591e-06 -3.06094e-08 3.81658e-08 )  
( -4.91299e-07 -2.01642e-07 -1.66589e-07 )  
( -4.98974e-06 -1.61709e-07 2.67105e-08 )  
( -5.25332e-06 1.10869e-07 2.26082e-07 )  
( -2.11857e-06 -2.13596e-07 -1.78222e-07 )  
( -2.65458e-06 -9.95451e-07 -1.9412e-07 )  
( -1.87778e-06 -6.10922e-08 -3.80633e-07 )  
( -1.29077e-06 -2.76478e-08 -7.50748e-08 )  
( -4.20777e-06 -4.41574e-07 -1.31431e-07 )  
( -4.1307e-06 7.24424e-08 1.04124e-07 )  
( -4.82392e-06 -4.911e-08 -5.16536e-08 )  
( -1.42585e-06 8.78916e-08 -3.02564e-07 )  
( -4.14617e-06 -5.25517e-08 9.64541e-10 )  
( -4.36981e-06 -1.30426e-07 1.06066e-07 )  
( -3.29577e-06 -2.00157e-07 -2.71654e-07 )  
( -4.66552e-07 1.77372e-07 -3.13904e-07 )  
( -4.28697e-06 1.43485e-07 -6.87732e-08 )  
( -5.23861e-06 -1.45145e-07 1.98281e-07 )  
( -2.00143e-06 1.85972e-07 -2.7394e-07 )  
( -2.2518e-06 -1.29506e-07 -4.08092e-07 )  
( -3.40782e-06 -6.57107e-08 1.31757e-07 )  
( -3.81398e-06 1.24157e-07 -2.6743e-08 )  
( -1.74179e-06 1.4788e-07 2.31465e-07 )  
( -1.49331e-06 -3.08803e-07 -2.53769e-07 )  
( -1.14345e-06 1.03022e-07 -3.12551e-07 )  
( -4.56101e-06 -9.89404e-08 2.76427e-07 )  
( -5.52199e-06 -5.49437e-08 1.50109e-07 )  
( -3.70813e-06 -1.63892e-07 -1.61396e-07 )  
( -2.08937e-06 1.58641e-07 1.31848e-07 )  
( -2.92608e-06 -6.27163e-07 -2.79189e-07 )  
( -4.7664e-06 -2.9543e-07 1.39517e-07 )  
( -2.37363e-06 -3.22869e-07 -3.23991e-07 )  
( -2.87289e-06 -4.06265e-07 -2.8013e-07 )  
( -2.00317e-06 -9.11791e-08 -1.7458e-07 )  
( -3.26954e-07 -5.44054e-08 -1.02721e-07 )  
( -2.37267e-06 -1.43526e-07 -2.94598e-07 )  
( -2.50271e-06 -1.42174e-07 -4.29534e-07 )  
( -3.51115e-07 1.54101e-07 -2.27461e-07 )  
( -3.54516e-06 3.69791e-08 -2.26563e-07 )  
( -1.97253e-06 1.88762e-07 -1.49672e-08 )  
( -3.30129e-06 -5.37883e-07 -7.58593e-08 )  
( -1.29594e-06 -1.50117e-07 -3.23993e-07 )  
( -4.13786e-06 -3.19815e-07 -3.53408e-08 )  
( -3.91205e-06 1.06472e-07 6.41435e-07 )  
( -4.5036e-06 -8.398e-08 9.09393e-08 )  
( -5.00143e-06 -3.8974e-08 9.81614e-08 )  
( -4.9364e-06 -1.30976e-07 1.05149e-07 )  
( -2.82097e-06 -2.1378e-07 -1.85287e-07 )  
( -3.81071e-06 -8.0035e-08 -8.1016e-08 )  
( -3.82353e-06 -1.26387e-07 -3.2223e-07 )  
( -1.05172e-06 -4.60581e-07 -1.94969e-07 )  
( -4.03789e-06 -1.63904e-07 2.60223e-08 )  
( -4.04465e-06 -3.36163e-08 2.25269e-07 )  
( -5.04462e-06 -2.19397e-07 -1.90293e-08 )  
( -4.63232e-06 -2.50323e-07 2.05e-07 )  
( -5.00682e-06 -1.01361e-07 1.89126e-07 )  
( -3.46476e-06 -2.53827e-07 -2.22488e-07 )  
( -3.15362e-06 -3.51927e-07 -3.26805e-07 )  
( -1.51675e-06 -4.62216e-07 -1.64368e-07 )  
( -4.66494e-06 -3.57917e-07 5.4346e-08 )  
( -1.02866e-06 7.11786e-08 -1.92282e-07 )  
( -5.68498e-06 4.62803e-07 3.05222e-07 )  
( -2.51265e-06 -1.20398e-07 -3.12589e-07 )  
( -3.22493e-06 -8.07496e-07 -4.78999e-07 )  
( -1.44103e-06 -2.97429e-07 -3.47526e-07 )  
( -5.32677e-06 -7.13381e-08 1.2219e-07 )  
( -2.56162e-06 2.00517e-07 -2.81599e-07 )  
( -3.06239e-07 1.52116e-07 -2.90168e-07 )  
( -1.61896e-06 -3.64917e-08 -6.90007e-08 )  
( 1.67265e-06 8.05279e-07 -1.38789e-07 )  
( -3.12271e-06 -3.89816e-07 -4.11374e-07 )  
( -3.9706e-06 -2.13736e-07 -6.4218e-08 )  
( -2.49362e-06 2.67604e-07 -3.26117e-07 )  
( -5.33092e-06 -1.86764e-07 1.18073e-07 )  
( -3.38729e-06 -2.11641e-07 -1.76757e-07 )  
( -4.05477e-06 -3.28647e-07 4.08832e-07 )  
( -4.11888e-06 -3.72709e-07 -1.60999e-07 )  
( -3.26842e-07 5.14237e-08 -2.29979e-07 )  
( -1.2735e-06 -3.64808e-07 -2.165e-07 )  
( -1.96691e-06 -1.42714e-07 -3.62462e-07 )  
( -5.67263e-06 -1.16911e-07 2.22679e-07 )  
( -1.95843e-06 7.41391e-08 -2.86435e-07 )  
( -5.19448e-06 -1.57336e-07 1.03809e-07 )  
( -1.58638e-06 -6.67503e-07 -3.97329e-07 )  
( -2.15997e-06 -2.49816e-07 -5.26759e-07 )  
( -2.26061e-06 -4.20433e-07 -3.55256e-07 )  
( -4.03685e-06 -9.72054e-08 7.19848e-08 )  
( -4.38121e-06 -4.36255e-07 2.43187e-08 )  
( -2.30663e-06 2.26274e-07 -2.85232e-07 )  
( -2.62511e-06 -1.0105e-07 1.04936e-07 )  
( -5.68454e-06 -1.42471e-07 2.21239e-07 )  
( -4.31622e-07 -7.41876e-08 -1.48136e-08 )  
( -1.60054e-06 -2.77219e-07 -3.36661e-07 )  
( -3.02713e-06 -2.70073e-07 3.61246e-08 )  
( -1.37943e-07 -1.84677e-07 -4.89079e-08 )  
( -5.71734e-06 -2.07811e-07 1.74221e-07 )  
( -5.18041e-06 -2.08758e-07 2.59322e-08 )  
( -4.00427e-06 1.28201e-07 4.17167e-08 )  
( -4.62259e-06 -3.31304e-07 -4.67999e-08 )  
( -5.06946e-06 -3.24851e-07 6.50977e-08 )  
( -2.17708e-06 7.63802e-09 1.97092e-07 )  
( -1.45999e-06 -3.52389e-07 2.12282e-08 )  
( -4.44442e-06 1.29531e-07 4.9324e-08 )  
( -3.5684e-07 -7.59543e-08 -7.87629e-08 )  
( -4.81172e-06 -1.47766e-07 -5.83715e-08 )  
( -1.18759e-06 -7.00916e-08 -1.14291e-07 )  
( -4.39953e-06 -8.40257e-08 2.8736e-07 )  
( -1.82996e-06 -1.40963e-07 -6.06647e-08 )  
( -4.26719e-06 -1.45176e-07 -2.48354e-09 )  
( -2.57146e-06 3.97034e-07 -3.85385e-08 )  
( -4.27655e-06 -2.31565e-07 1.23383e-07 )  
( -7.73635e-07 6.58232e-09 -3.39079e-07 )  
( -3.71923e-06 2.6623e-07 4.32681e-07 )  
( -2.56549e-06 -1.76639e-08 -9.14394e-08 )  
( -2.76447e-06 -4.37076e-07 -4.61961e-07 )  
( -1.52973e-06 3.36806e-07 -5.48834e-08 )  
( -3.84657e-07 -9.41148e-08 -2.71682e-08 )  
( -1.6418e-06 -5.62167e-08 -2.18178e-07 )  
( -1.10069e-06 -4.35629e-07 -1.94109e-07 )  
( -2.8017e-06 -9.7417e-08 -3.0267e-07 )  
( -4.17492e-06 -2.29539e-07 -5.31153e-08 )  
( -2.07731e-06 -9.84746e-07 -2.48889e-07 )  
( -7.26313e-07 -1.22853e-07 -1.58394e-07 )  
( -4.18446e-06 -1.58835e-07 2.97277e-07 )  
( -2.60023e-06 -2.35565e-07 -3.27897e-07 )  
( -3.05963e-07 -1.84967e-07 -1.52302e-07 )  
( -2.17029e-06 1.38444e-08 -4.6789e-07 )  
( -1.64145e-06 1.4751e-07 -1.22745e-07 )  
( -3.14684e-06 -1.77078e-07 -3.56761e-07 )  
( -2.67197e-06 -3.25735e-07 -3.22611e-07 )  
( -1.22109e-06 4.47164e-08 -2.82088e-07 )  
( -3.08591e-06 3.97744e-07 -2.21436e-07 )  
( -2.31817e-06 -5.69384e-08 -5.12044e-07 )  
( -4.4027e-06 -2.40625e-07 -3.44179e-08 )  
( -3.76039e-06 -2.31712e-07 3.27112e-07 )  
( -2.54084e-06 -3.80702e-07 -2.04504e-07 )  
( -3.37808e-06 3.74388e-08 9.7835e-08 )  
( -1.15392e-07 -2.31662e-08 -2.19243e-08 )  
( -2.63356e-06 -1.13854e-07 -4.36287e-07 )  
( -6.26312e-07 -1.03178e-07 -1.41244e-07 )  
( -2.69804e-06 -2.82686e-07 -2.51385e-07 )  
( -3.98098e-06 2.73118e-07 2.57849e-07 )  
( -1.9819e-06 -1.36577e-07 -2.82734e-07 )  
( -1.88528e-06 -1.38784e-07 -2.44691e-07 )  
( -2.64586e-06 -2.32244e-07 -3.01514e-07 )  
( -2.2693e-06 -6.4911e-08 -6.52747e-09 )  
( -3.87702e-06 2.83277e-07 5.97485e-07 )  
( -3.18379e-06 -4.95946e-07 1.48552e-07 )  
( -3.15554e-06 -2.2101e-07 3.96221e-07 )  
( -6.41961e-07 -1.58191e-07 -1.7628e-07 )  
( -2.28282e-06 -5.00781e-08 -1.06449e-07 )  
( -1.04703e-06 -2.1369e-08 -3.70519e-07 )  
( -2.48501e-07 8.91738e-08 -9.69973e-09 )  
( -1.43093e-06 3.0868e-08 -2.24599e-07 )  
( -2.82014e-06 1.6982e-08 8.05423e-07 )  
( -3.75787e-06 -1.20455e-06 -3.44655e-07 )  
( -3.73156e-07 1.02527e-07 -5.96061e-08 )  
( -2.74222e-06 -5.15666e-07 -5.54208e-07 )  
( -7.34324e-07 -8.92797e-08 -2.01848e-07 )  
( -2.44988e-06 -4.86475e-07 -2.6943e-07 )  
( -1.02575e-06 4.44335e-08 -8.6851e-08 )  
( -1.30468e-06 1.69892e-07 -3.8447e-07 )  
( -3.1051e-06 -1.63645e-07 -2.51709e-07 )  
( -3.57946e-07 -3.42013e-08 -1.73474e-07 )  
( -1.12921e-06 4.63168e-09 -4.86017e-08 )  
( -2.62858e-06 2.39012e-07 -3.48667e-08 )  
( -8.0314e-07 5.52193e-08 -2.52377e-07 )  
( -4.4411e-06 1.1094e-07 3.85023e-08 )  
( -2.44141e-06 2.88737e-08 2.3556e-07 )  
( -3.86793e-06 -5.41572e-07 9.64373e-08 )  
( -4.53683e-06 -2.16918e-07 1.05374e-07 )  
( -1.21941e-06 6.32858e-08 -1.39093e-07 )  
( -1.7904e-06 1.23465e-08 -3.17673e-07 )  
( -3.45569e-06 -2.22075e-08 7.81963e-08 )  
( -1.95774e-06 -1.47265e-07 -1.68931e-07 )  
( -3.95187e-06 5.69076e-07 2.72842e-08 )  
( -2.86425e-06 -5.32075e-07 -3.18346e-07 )  
( -4.19768e-06 -2.41568e-07 7.52255e-08 )  
( -3.18309e-06 -2.26887e-07 -2.83411e-07 )  
( -1.34051e-06 3.54712e-08 -7.5083e-08 )  
( -3.08184e-07 -9.46375e-08 -1.46989e-07 )  
( -3.45546e-07 9.23769e-09 -1.75727e-07 )  
( -1.25471e-06 8.76424e-08 -2.26007e-07 )  
( -2.61771e-06 -3.89072e-07 -3.63363e-07 )  
( -1.96497e-06 -3.704e-07 1.94159e-08 )  
( -3.0963e-06 -1.7276e-07 -2.56976e-07 )  
( -3.56479e-06 2.80253e-08 -1.78168e-07 )  
( -2.42884e-06 -2.15293e-07 -3.53136e-07 )  
( -6.57531e-07 -3.31178e-07 -2.26563e-07 )  
( -1.93629e-06 2.7949e-08 -1.91079e-07 )  
( -1.99129e-06 -2.82986e-07 -2.21227e-07 )  
( -1.29888e-06 -4.08827e-07 -1.01281e-07 )  
( -3.09094e-06 -6.59713e-08 -2.58624e-07 )  
( -4.63813e-06 6.50976e-08 1.40905e-07 )  
( -4.26586e-06 3.45745e-07 6.35335e-07 )  
( -3.18988e-06 -3.48188e-07 -2.96325e-07 )  
( -1.11612e-06 2.25971e-07 -2.9306e-08 )  
( -1.77787e-06 -9.06654e-08 -2.97135e-07 )  
( -7.96209e-08 -9.55599e-08 -2.05597e-08 )  
( -2.81985e-06 4.14799e-08 -6.70946e-08 )  
( -3.37399e-07 -1.29398e-07 -6.84989e-08 )  
( -3.76301e-06 -9.61291e-08 3.29211e-07 )  
( -2.3724e-06 -2.14073e-07 -2.96498e-07 )  
( -2.5972e-06 -1.64428e-07 -9.20936e-08 )  
( -3.7333e-07 -1.08783e-07 -7.66099e-08 )  
( -1.88553e-06 -8.25634e-09 2.96515e-07 )  
( -2.5314e-06 -3.0452e-07 1.94263e-07 )  
( -2.73336e-06 -4.23254e-07 5.11016e-07 )  
( -3.62395e-06 -3.87666e-07 1.87971e-09 )  
( -2.14283e-06 -1.80369e-07 -6.93401e-07 )  
( -1.23467e-06 1.01373e-07 -2.25628e-07 )  
( -1.14504e-06 4.56854e-08 -4.00821e-07 )  
( -2.98495e-06 -7.33926e-07 -4.44604e-07 )  
( -3.12283e-07 1.44843e-07 -1.33654e-07 )  
( -1.82537e-06 6.78806e-08 -2.48663e-07 )  
( -2.19126e-06 -2.36576e-07 -1.72711e-07 )  
( -2.93274e-06 -7.84713e-07 -6.28455e-07 )  
( -2.82746e-06 1.46858e-07 1.05785e-07 )  
( -1.89753e-06 -1.57856e-07 -5.04805e-07 )  
( -9.74755e-07 4.87429e-08 -2.26776e-07 )  
( -3.26423e-06 -3.04632e-07 -4.79992e-07 )  
( -3.18e-06 -5.62338e-07 -1.75054e-07 )  
( -4.06676e-06 3.03708e-07 2.45762e-07 )  
( -8.14409e-07 -2.59546e-07 -1.25894e-07 )  
( -3.83351e-06 -1.06969e-07 -3.89081e-07 )  
( -3.07052e-07 -1.94988e-07 -1.15906e-07 )  
( -6.52439e-07 -4.14352e-08 -1.45132e-07 )  
( -3.09721e-06 3.11287e-09 -1.95259e-07 )  
( -2.11641e-06 -3.16814e-07 -1.17638e-07 )  
( -5.33779e-07 2.21092e-08 2.43193e-09 )  
( -2.73809e-06 -4.17346e-07 -2.88799e-07 )  
( -3.80107e-06 -1.88717e-07 1.23301e-07 )  
( -6.30125e-07 -1.50411e-07 -1.98859e-07 )  
( -5.53539e-07 -1.17822e-07 -1.48976e-07 )  
( -2.15651e-06 -1.18519e-07 -3.43655e-07 )  
( -4.02571e-06 3.45214e-07 2.5074e-07 )  
( -1.96212e-06 -7.82213e-08 -4.90181e-07 )  
( -1.32095e-06 -5.09581e-07 -3.61208e-07 )  
( -3.19851e-06 6.75918e-08 4.67255e-07 )  
( -9.12211e-07 -2.51545e-07 -3.92216e-07 )  
( -2.56478e-06 -2.77094e-07 -1.88888e-07 )  
( -8.87553e-07 -2.39611e-08 -1.76737e-07 )  
( -2.57583e-06 -1.97545e-07 -1.66757e-07 )  
( -3.17588e-06 -2.49959e-07 -2.70725e-07 )  
( -3.86691e-06 -7.26864e-07 -2.23892e-07 )  
( -4.11384e-07 9.98e-09 -1.00811e-07 )  
( -6.58683e-07 -7.32781e-08 -1.0065e-07 )  
( -4.60197e-06 -5.1461e-08 5.22763e-08 )  
( -3.53095e-06 -6.70839e-08 -9.134e-08 )  
( -1.67242e-06 9.98136e-09 1.84382e-07 )  
( -1.23692e-06 4.60585e-08 -5.9854e-08 )  
( -1.90079e-06 -1.27669e-07 -2.48866e-07 )  
( -3.07678e-06 -1.6889e-07 2.15291e-07 )  
( -1.18055e-06 -1.65208e-07 -3.65905e-07 )  
( -1.03387e-06 -7.8018e-08 -2.02237e-07 )  
( -8.7525e-07 -8.6706e-08 -1.44618e-07 )  
( -4.50356e-06 -2.052e-07 2.09677e-07 )  
( -3.13511e-06 8.83043e-08 -2.39437e-07 )  
( -1.78985e-06 2.43145e-07 1.40722e-07 )  
( -4.52894e-06 -2.41725e-07 3.6316e-09 )  
( -2.58229e-07 -3.4475e-08 -5.71565e-08 )  
( -1.89214e-06 -1.35189e-07 -1.89462e-07 )  
( -2.7104e-06 -2.28387e-07 -1.35474e-07 )  
( -3.27837e-06 -6.56489e-07 2.35483e-07 )  
( -1.9844e-06 -1.91601e-07 2.00593e-07 )  
( -2.39626e-06 -4.03504e-07 -2.78956e-07 )  
( -2.88737e-07 5.20266e-08 -9.53915e-08 )  
( -1.04781e-06 -1.73337e-07 -4.82552e-07 )  
( -8.78257e-07 -1.36423e-07 -2.04695e-07 )  
( -2.15223e-06 2.57486e-08 -7.43943e-08 )  
( -1.58339e-06 -1.67101e-07 -1.61004e-07 )  
( -1.01528e-06 -1.73831e-08 -2.00501e-07 )  
( -1.5736e-06 -9.37524e-08 -1.58244e-07 )  
( -1.6968e-06 1.2901e-07 -3.73363e-07 )  
( -7.2239e-07 -1.09248e-07 -2.31032e-07 )  
( -5.41283e-07 -1.00689e-07 -1.30789e-07 )  
( -2.62178e-07 -7.50223e-08 -8.88328e-08 )  
( -1.798e-06 -3.27118e-07 -7.96903e-08 )  
( -1.42243e-06 -1.72913e-07 3.96737e-08 )  
( -2.25463e-06 -6.30761e-07 6.90189e-09 )  
( -2.08397e-06 -1.53515e-07 -4.42599e-08 )  
( -1.44244e-06 -1.91995e-07 -3.82856e-07 )  
( -1.19604e-07 1.34445e-08 -1.3016e-07 )  
( -5.04124e-07 4.40202e-08 -9.33466e-11 )  
( -2.52704e-06 -4.5722e-07 3.30848e-07 )  
( -1.18135e-06 6.07005e-08 -3.75443e-07 )  
( -3.42467e-06 -1.76577e-07 1.20207e-07 )  
( -2.07587e-06 -2.62291e-07 -2.81441e-07 )  
( -2.61585e-06 -8.45647e-07 1.18738e-07 )  
( -1.15292e-06 -1.18358e-07 -7.06345e-07 )  
( -1.5564e-06 -1.21528e-07 3.66578e-08 )  
( -3.34893e-07 -1.06607e-07 -4.58001e-08 )  
( -1.30941e-07 -4.88945e-08 -4.87432e-08 )  
( -8.42519e-07 3.85529e-08 -3.13085e-08 )  
( -1.83507e-06 -1.197e-08 -5.4132e-07 )  
( -6.44558e-07 2.47293e-08 -7.5252e-08 )  
( -1.56208e-06 -1.69654e-07 -1.37943e-07 )  
( -2.51409e-06 -2.00493e-07 -4.12436e-07 )  
( -1.5085e-06 -1.45176e-07 -6.3678e-07 )  
( -6.16185e-07 -2.66313e-07 -2.12312e-07 )  
( -1.22989e-06 4.82164e-07 2.34967e-07 )  
( -8.95606e-07 -3.50235e-08 -4.43755e-08 )  
( -2.48878e-06 -7.26098e-07 -2.93253e-07 )  
( -1.25312e-07 6.06666e-08 -8.24669e-08 )  
( -1.03544e-06 -2.16749e-07 5.49046e-08 )  
( -7.35423e-07 -1.0675e-07 -1.36767e-07 )  
( -6.12203e-07 1.53069e-07 1.63229e-07 )  
( -2.2607e-06 -2.73085e-07 3.72752e-08 )  
( -8.32633e-07 -4.76961e-07 1.94806e-07 )  
( -1.76895e-06 -1.05183e-07 9.01152e-08 )  
( -3.76197e-07 4.07293e-08 -6.60089e-08 )  
( -1.39445e-06 -2.33505e-07 3.97403e-09 )  
( -1.24187e-06 9.01203e-08 1.83673e-07 )  
( -1.03193e-06 -3.12465e-07 -1.23323e-07 )  
( -6.27662e-07 1.03082e-07 1.92582e-09 )  
( -1.8354e-06 -1.05115e-07 7.99853e-08 )  
( -1.78857e-06 -5.08508e-07 -2.10705e-08 )  
( -6.58881e-07 -7.54167e-08 -5.78336e-08 )  
( -3.66791e-07 -1.15315e-07 -7.77105e-08 )  
( -1.46746e-06 -1.73222e-07 1.23882e-07 )  
( -1.28627e-06 -1.78366e-07 -3.24518e-07 )  
( -1.94957e-06 -3.34791e-07 1.118e-07 )  
( -1.43763e-07 7.0129e-08 -2.98266e-08 )  
( -3.62511e-08 -3.79282e-08 7.95057e-09 )  
( -6.21597e-07 7.1338e-08 -9.57784e-08 )  
( -1.06253e-06 -1.07092e-07 -1.92506e-07 )  
( -1.00916e-06 -6.95366e-08 -1.57549e-07 )  
( -1.41405e-06 -2.17283e-07 9.61377e-08 )  
( -1.40123e-07 -1.06251e-08 -3.84757e-08 )  
( -7.69992e-07 -1.131e-07 -2.91942e-07 )  
( -1.10381e-06 -3.1801e-07 -1.3869e-07 )  
( -3.55968e-07 1.26072e-07 -1.53382e-08 )  
( -1.21164e-06 -5.59461e-08 -2.55299e-07 )  
( -1.95786e-07 3.48232e-07 5.0101e-08 )  
( -1.11984e-06 -1.26763e-07 -6.02967e-08 )  
( -1.48469e-07 -4.76372e-09 1.15427e-08 )  
( -1.22194e-06 -2.02942e-08 -1.5778e-07 )  
( -1.77238e-06 -1.4775e-07 -1.28312e-07 )  
( -1.44298e-06 -7.027e-08 1.66433e-08 )  
( -4.29481e-07 -1.03802e-07 1.17855e-08 )  
)
