/*--------------------------------*- C++ -*----------------------------------*\
| =========                 |                                                 |
| \\      /  F ield         | OpenFOAM: The Open Source CFD Toolbox           |
|  \\    /   O peration     | Version:  4.x                                   |
|   \\  /    A nd           | Web:      www.OpenFOAM.org                      |
|    \\/     M anipulation  |                                                 |
\*---------------------------------------------------------------------------*/
FoamFile
{
    version     2.0;
    format      ascii;
    class       volScalarField;
    location    "1";
    object      nu;
}
// * * * * * * * * * * * * * * * * * * * * * * * * * * * * * * * * * * * * * //

dimensions      [0 2 -1 0 0 0 0];

internalField   nonuniform List<scalar> 
114
(
9.998e-07
9.99772e-07
9.99761e-07
9.99721e-07
9.99698e-07
9.93554e-07
9.99327e-07
9.99228e-07
9.99278e-07
9.99361e-07
9.99428e-07
9.99593e-07
9.99578e-07
9.99293e-07
9.9921e-07
9.99235e-07
9.99342e-07
9.99499e-07
9.99627e-07
9.99693e-07
9.99787e-07
1.00001e-06
9.99937e-07
9.99887e-07
9.99856e-07
9.99857e-07
9.99845e-07
9.99805e-07
9.99731e-07
9.99189e-07
9.99485e-07
9.99362e-07
9.99321e-07
9.99316e-07
9.99396e-07
9.9948e-07
9.99577e-07
9.99654e-07
9.99691e-07
9.99448e-07
9.99321e-07
9.9926e-07
9.99277e-07
9.99362e-07
9.99496e-07
9.99643e-07
9.99736e-07
9.99958e-07
9.99655e-07
9.99523e-07
1.00005e-06
1.00001e-06
9.99969e-07
9.99932e-07
9.99883e-07
9.99811e-07
9.99701e-07
9.99616e-07
9.99452e-07
9.99542e-07
9.99466e-07
9.99474e-07
9.99508e-07
9.99525e-07
9.99544e-07
9.99583e-07
9.99634e-07
9.99844e-07
9.99565e-07
9.99454e-07
9.99385e-07
9.99364e-07
9.99384e-07
9.99458e-07
9.99584e-07
9.99684e-07
9.99842e-07
9.99738e-07
9.99537e-07
9.99412e-07
9.99335e-07
1.00018e-06
1.00016e-06
1.00014e-06
1.0001e-06
1.00005e-06
9.99983e-07
9.99886e-07
9.99807e-07
9.97835e-07
1.00005e-06
1.00002e-06
9.99989e-07
9.99922e-07
9.99811e-07
9.99679e-07
9.99548e-07
9.99617e-07
9.99826e-07
9.99999e-07
9.99939e-07
9.99903e-07
9.99888e-07
9.99882e-07
9.9985e-07
9.99787e-07
9.99705e-07
9.99406e-07
1.00005e-06
9.99984e-07
9.99935e-07
9.99891e-07
9.99856e-07
9.99833e-07
)
;

boundaryField
{
    inlet
    {
        type            calculated;
        value           nonuniform 0();
    }
    outlet
    {
        type            calculated;
        value           uniform 1e-06;
    }
    wall
    {
        type            calculated;
        value           nonuniform List<scalar> 
66
(
1.00018e-06
1.00005e-06
9.99999e-07
1.00005e-06
1.00016e-06
1.00002e-06
9.99939e-07
9.99984e-07
1.00014e-06
9.99989e-07
9.99903e-07
9.99935e-07
1.0001e-06
9.99922e-07
9.99888e-07
9.99891e-07
1.00005e-06
9.99811e-07
9.99882e-07
9.99856e-07
9.99983e-07
9.99679e-07
9.9985e-07
9.99833e-07
9.99886e-07
9.99548e-07
9.99787e-07
9.99807e-07
9.99617e-07
9.99705e-07
9.97835e-07
9.99826e-07
9.99406e-07
1.00001e-06
1.00005e-06
1.00018e-06
9.99937e-07
1.00001e-06
1.00016e-06
9.99887e-07
9.99969e-07
1.00014e-06
9.998e-07
9.99856e-07
9.99932e-07
1.0001e-06
9.99772e-07
9.99857e-07
9.99883e-07
1.00005e-06
9.99761e-07
9.99845e-07
9.99811e-07
9.99983e-07
9.99721e-07
9.99805e-07
9.99701e-07
9.99886e-07
9.99698e-07
9.99731e-07
9.99616e-07
9.99807e-07
9.93554e-07
9.99189e-07
9.99452e-07
9.97835e-07
)
;
    }
    procBoundary5to1
    {
        type            processor;
        value           nonuniform List<scalar> 
32
(
9.99776e-07
9.99778e-07
9.99739e-07
9.99624e-07
9.99558e-07
9.95195e-07
9.99164e-07
9.9916e-07
9.99194e-07
9.9927e-07
9.99345e-07
9.99504e-07
9.99436e-07
9.99205e-07
9.99213e-07
9.99283e-07
9.99373e-07
9.99465e-07
9.99528e-07
9.99579e-07
9.99718e-07
1.00003e-06
9.99936e-07
9.99864e-07
9.99864e-07
9.99864e-07
9.99484e-07
9.99385e-07
9.99385e-07
9.99385e-07
9.99428e-07
9.99428e-07
)
;
    }
    procBoundary5to4
    {
        type            processor;
        value           nonuniform List<scalar> 
12
(
1.00009e-06
9.99682e-07
9.99623e-07
9.99716e-07
1.00011e-06
9.99699e-07
9.99692e-07
9.99755e-07
1.00021e-06
1.0001e-06
1.00007e-06
1.0001e-06
)
;
    }
    procBoundary5to7
    {
        type            processor;
        value           nonuniform List<scalar> 
44
(
9.99656e-07
9.99515e-07
9.99414e-07
9.99231e-07
9.99217e-07
9.99371e-07
9.99617e-07
9.97279e-07
9.99672e-07
9.99656e-07
9.99351e-07
9.99266e-07
9.99314e-07
9.99473e-07
9.99658e-07
9.99842e-07
1.00004e-06
9.99519e-07
9.99351e-07
9.99356e-07
9.99351e-07
9.99266e-07
9.99362e-07
9.99455e-07
9.99603e-07
9.99769e-07
1.00001e-06
9.99608e-07
9.99427e-07
9.99339e-07
9.99362e-07
9.99352e-07
9.99362e-07
9.99455e-07
9.99799e-07
9.99797e-07
9.97988e-07
9.99998e-07
9.99918e-07
9.99861e-07
9.99825e-07
9.99751e-07
9.99799e-07
9.99585e-07
)
;
    }
}


// ************************************************************************* //
