/*--------------------------------*- C++ -*----------------------------------*\
| =========                 |                                                 |
| \\      /  F ield         | OpenFOAM: The Open Source CFD Toolbox           |
|  \\    /   O peration     | Version:  4.x                                   |
|   \\  /    A nd           | Web:      www.OpenFOAM.org                      |
|    \\/     M anipulation  |                                                 |
\*---------------------------------------------------------------------------*/
FoamFile
{
    version     2.0;
    format      ascii;
    class       volScalarField;
    location    "1";
    object      rho;
}
// * * * * * * * * * * * * * * * * * * * * * * * * * * * * * * * * * * * * * //

dimensions      [1 -3 0 0 0 0 0];

internalField   nonuniform List<scalar> 
114
(
6701.34
6701.52
6701.6
6701.87
6702.03
6743.47
6704.51
6705.17
6704.84
6704.29
6703.83
6702.73
6702.83
6704.74
6705.3
6705.13
6704.41
6703.36
6702.5
6702.06
6701.43
6699.91
6700.42
6700.75
6700.97
6700.96
6701.04
6701.3
6701.8
6705.44
6703.45
6704.28
6704.55
6704.59
6704.05
6703.48
6702.84
6702.32
6702.07
6703.7
6704.55
6704.96
6704.85
6704.28
6703.38
6702.4
6701.77
6700.28
6702.31
6703.19
6699.64
6699.97
6700.21
6700.46
6700.78
6701.27
6702
6702.58
6703.67
6703.07
6703.58
6703.52
6703.3
6703.19
6703.05
6702.8
6702.46
6701.05
6702.91
6703.66
6704.13
6704.26
6704.13
6703.63
6702.79
6702.12
6701.06
6701.76
6703.1
6703.94
6704.46
6698.77
6698.91
6699.08
6699.3
6699.64
6700.11
6700.76
6701.29
6714.54
6699.66
6699.88
6700.08
6700.52
6701.27
6702.15
6703.03
6702.56
6701.16
6700
6700.41
6700.65
6700.75
6700.79
6701.01
6701.43
6701.97
6703.98
6699.7
6700.11
6700.44
6700.73
6700.97
6701.12
)
;

boundaryField
{
    inlet
    {
        type            calculated;
        value           nonuniform 0();
    }
    outlet
    {
        type            calculated;
        value           uniform 6700;
    }
    wall
    {
        type            calculated;
        value           nonuniform List<scalar> 
66
(
6698.77
6699.66
6700
6699.7
6698.91
6699.88
6700.41
6700.11
6699.08
6700.08
6700.65
6700.44
6699.3
6700.52
6700.75
6700.73
6699.64
6701.27
6700.79
6700.97
6700.11
6702.15
6701.01
6701.12
6700.76
6703.03
6701.43
6701.29
6702.56
6701.97
6714.54
6701.16
6703.98
6699.91
6699.64
6698.77
6700.42
6699.97
6698.91
6700.75
6700.21
6699.08
6701.34
6700.97
6700.46
6699.3
6701.52
6700.96
6700.78
6699.64
6701.6
6701.04
6701.27
6700.11
6701.87
6701.3
6702
6700.76
6702.03
6701.8
6702.58
6701.29
6743.47
6705.44
6703.67
6714.54
)
;
    }
    procBoundary5to1
    {
        type            processor;
        value           nonuniform List<scalar> 
32
(
6701.5
6701.48
6701.75
6702.52
6702.96
6732.35
6705.61
6705.63
6705.41
6704.89
6704.39
6703.33
6703.78
6705.33
6705.28
6704.81
6704.2
6703.59
6703.16
6702.82
6701.89
6699.79
6700.43
6700.91
6700.91
6700.91
6703.46
6704.12
6704.12
6704.12
6703.83
6703.83
)
;
    }
    procBoundary5to4
    {
        type            processor;
        value           nonuniform List<scalar> 
12
(
6699.43
6702.13
6702.53
6701.91
6699.29
6702.02
6702.06
6701.64
6698.63
6699.35
6699.55
6699.36
)
;
    }
    procBoundary5to7
    {
        type            processor;
        value           nonuniform List<scalar> 
44
(
6702.31
6703.25
6703.93
6705.16
6705.25
6704.21
6702.57
6718.28
6702.2
6702.31
6704.35
6704.92
6704.6
6703.53
6702.29
6701.06
6699.75
6703.22
6704.35
6704.31
6704.35
6704.92
6704.28
6703.65
6702.66
6701.55
6699.93
6702.63
6703.84
6704.43
6704.28
6704.35
6704.28
6703.65
6701.35
6701.36
6713.51
6700.02
6700.55
6700.93
6701.17
6701.67
6701.35
6702.78
)
;
    }
}


// ************************************************************************* //
