/*--------------------------------*- C++ -*----------------------------------*\
| =========                 |                                                 |
| \\      /  F ield         | OpenFOAM: The Open Source CFD Toolbox           |
|  \\    /   O peration     | Version:  4.x                                   |
|   \\  /    A nd           | Web:      www.OpenFOAM.org                      |
|    \\/     M anipulation  |                                                 |
\*---------------------------------------------------------------------------*/
FoamFile
{
    version     2.0;
    format      ascii;
    class       volScalarField;
    location    "1";
    object      T;
}
// * * * * * * * * * * * * * * * * * * * * * * * * * * * * * * * * * * * * * //

dimensions      [0 0 0 1 0 0 0];

internalField   nonuniform List<scalar> 
114
(
300.005
300.003
300.001
299.996
299.989
299.976
300.011
300.009
300.006
299.998
299.987
299.973
299.95
300.012
300.014
300.01
300.005
299.992
299.975
299.956
299.937
300.001
300.001
300.004
300.003
300.003
300.001
299.997
299.991
299.98
300.002
300.005
300.007
300.006
300.004
299.997
299.991
299.976
299.957
300.004
300.011
300.011
300.009
300.002
299.992
299.977
299.958
299.936
300.001
300.011
299.999
300
300.002
300.002
300.002
300
299.997
299.99
299.979
300
300.002
300.003
300.004
300.002
299.998
299.991
299.983
299.962
300
300.004
300.006
300.006
300.002
299.996
299.986
299.973
299.956
299.998
300.003
300.006
300.007
299.999
299.999
300
300
300
300
299.998
299.995
299.987
299.999
300
300.001
300.001
300.001
299.999
299.995
299.988
299.979
299.998
300
300.002
300.002
300.002
299.999
299.994
299.986
299.977
299.997
299.999
300.002
300.003
300.002
299.998
)
;

boundaryField
{
    inlet
    {
        type            fixedValue;
        value           nonuniform 0();
    }
    outlet
    {
        type            zeroGradient;
    }
    wall
    {
        type            zeroGradient;
    }
    procBoundary5to1
    {
        type            processor;
        value           nonuniform List<scalar> 
32
(
300.005
300.003
299.998
299.993
299.986
299.974
300.012
300.009
300.003
299.994
299.98
299.968
299.945
300.014
300.013
300.01
300.001
299.985
299.966
299.955
299.937
300.003
300.003
300.005
300.005
300.005
300.006
300.009
300.009
300.009
300.007
300.007
)
;
    }
    procBoundary5to4
    {
        type            processor;
        value           nonuniform List<scalar> 
12
(
299.999
300
299.999
299.999
299.998
299.998
299.997
299.996
299.998
299.997
299.997
299.996
)
;
    }
    procBoundary5to7
    {
        type            processor;
        value           nonuniform List<scalar> 
44
(
300.012
300.015
300.013
300.003
299.988
299.969
299.949
299.935
300.005
300.012
300.013
300.01
300.003
299.99
299.973
299.954
299.937
300.001
300.013
300.006
300.013
300.01
300.005
299.996
299.981
299.974
299.944
299.998
300.003
300.005
300.005
300.006
300.005
299.996
299.993
299.984
299.973
299.997
299.999
300.002
300.002
300.002
299.993
299.998
)
;
    }
}


// ************************************************************************* //
