/*--------------------------------*- C++ -*----------------------------------*\
| =========                 |                                                 |
| \\      /  F ield         | OpenFOAM: The Open Source CFD Toolbox           |
|  \\    /   O peration     | Version:  4.x                                   |
|   \\  /    A nd           | Web:      www.OpenFOAM.org                      |
|    \\/     M anipulation  |                                                 |
\*---------------------------------------------------------------------------*/
FoamFile
{
    version     2.0;
    format      ascii;
    class       volScalarField;
    location    "1";
    object      thCond;
}
// * * * * * * * * * * * * * * * * * * * * * * * * * * * * * * * * * * * * * //

dimensions      [1 1 -3 -1 0 0 0];

internalField   nonuniform List<scalar> 
114
(
190.25
190.031
190.005
189.912
189.869
189.864
190.309
190.285
190.098
189.93
189.733
189.682
189.803
190.164
190.245
190.003
189.991
189.921
189.726
189.807
189.679
190.405
190.446
190.111
190.098
189.865
189.734
189.698
189.825
189.82
190.199
190.124
189.899
189.862
189.579
189.533
189.657
189.482
189.661
190.048
190.213
189.885
189.699
189.636
189.521
189.448
189.473
189.624
189.9
190.089
190.142
190.034
190.02
189.835
189.741
189.655
189.587
189.626
189.756
190.177
189.93
189.959
189.762
189.541
189.488
189.376
189.516
189.705
189.997
189.964
189.734
189.663
189.255
189.344
189.263
189.267
189.358
190.211
189.71
189.493
189.501
190.73
190.289
190.359
189.952
189.893
189.915
189.722
189.752
189.849
190.321
190.14
190.25
189.957
189.636
189.654
189.781
189.626
189.755
190.161
190.047
189.671
189.709
189.461
189.37
189.514
189.501
189.55
190.079
190.005
189.665
189.628
189.239
189.37
)
;

boundaryField
{
    inlet
    {
        type            zeroGradient;
    }
    outlet
    {
        type            zeroGradient;
    }
    wall
    {
        type            zeroGradient;
    }
    procBoundary5to1
    {
        type            processor;
        value           nonuniform List<scalar> 
32
(
190.663
190.662
190.298
190.316
190.547
190.882
190.96
190.712
190.541
190.317
190.257
190.311
190.774
190.832
190.786
190.353
190.261
190.091
190.109
190.136
190.641
190.82
190.716
190.31
190.31
190.31
190.541
190.185
190.185
190.185
190.451
190.451
)
;
    }
    procBoundary5to4
    {
        type            processor;
        value           nonuniform List<scalar> 
12
(
190.298
190.172
190.322
190.329
190.257
190.101
190.141
190.155
190.318
190.171
190.216
190.247
)
;
    }
    procBoundary5to7
    {
        type            processor;
        value           nonuniform List<scalar> 
44
(
190.013
190.088
189.845
189.477
189.411
189.482
189.712
189.528
190.109
190.013
189.847
189.605
189.544
189.428
189.256
189.304
189.43
190.271
189.847
189.801
189.847
189.605
189.54
189.49
189.348
189.436
189.543
189.967
189.796
189.666
189.54
189.722
189.54
189.49
189.584
189.571
189.661
190.083
189.994
189.677
189.634
189.7
189.584
189.832
)
;
    }
}


// ************************************************************************* //
