/*--------------------------------*- C++ -*----------------------------------*\
| =========                 |                                                 |
| \\      /  F ield         | OpenFOAM: The Open Source CFD Toolbox           |
|  \\    /   O peration     | Version:  4.x                                   |
|   \\  /    A nd           | Web:      www.OpenFOAM.org                      |
|    \\/     M anipulation  |                                                 |
\*---------------------------------------------------------------------------*/
FoamFile
{
    version     2.0;
    format      ascii;
    class       volScalarField;
    location    "37.5";
    object      QPartFluidCoeff;
}
// * * * * * * * * * * * * * * * * * * * * * * * * * * * * * * * * * * * * * //

dimensions      [1 -1 -3 -1 0 0 0];

internalField   nonuniform List<scalar> 
132
(
-1.72795e+07
-1.41909e+07
-1.23327e+07
-9.8814e+06
-1.43988e+07
-1.49592e+07
-1.96004e+07
-1.3129e+07
-6.72612e+06
-1.54999e+07
-1.70067e+07
-1.84207e+07
-1.86556e+07
-1.2808e+07
-2.23942e+07
-1.77235e+07
-1.93103e+07
-1.74887e+07
-1.03873e+07
-1.95833e+07
-1.9158e+07
-1.68949e+07
-1.85597e+07
-1.63204e+07
-1.32822e+07
-1.72684e+07
-2.83833e+07
-9.93231e+06
-1.51072e+07
-1.16957e+07
-1.42242e+07
-2.32498e+07
-2.87898e+07
-2.52441e+07
-2.58203e+07
-2.53331e+07
-2.37383e+07
-2.2578e+07
-2.42008e+07
-1.66093e+07
-3.15329e+07
-2.67307e+07
-2.83521e+07
-3.20309e+07
-2.87426e+07
-3.06951e+07
-3.0715e+07
-2.99506e+07
-1.76691e+07
-3.15152e+07
-2.80375e+07
-2.51269e+07
-3.02664e+07
-2.25534e+07
-3.50862e+07
-2.30815e+07
-2.1172e+07
-2.65542e+07
-2.34507e+07
-2.59957e+07
-1.83656e+07
-3.77451e+07
-1.86192e+07
-2.32365e+07
-2.71297e+07
-2.32324e+07
-2.4975e+07
-1.89131e+07
-2.68645e+07
-2.35559e+07
-1.80559e+07
-2.08287e+07
-2.76066e+07
-2.66419e+07
-2.30689e+07
-3.09482e+07
-2.24152e+07
-3.15094e+07
-3.38939e+07
-3.38287e+07
-2.23605e+07
-2.40289e+07
-2.69801e+07
-3.10253e+07
-3.28034e+07
-2.69214e+07
-3.073e+07
-2.15121e+07
-1.79763e+07
-2.30232e+07
-2.88662e+07
-3.18963e+07
-2.98701e+07
-3.3182e+07
-2.66474e+07
-2.91282e+07
-1.45122e+07
-1.66312e+07
-2.25636e+07
-1.72934e+07
-2.36209e+07
-2.59307e+07
-1.96855e+07
-1.44614e+07
-2.01509e+07
-1.71228e+07
-3.19959e+07
-3.03212e+07
-2.69786e+07
-2.40211e+07
-2.21622e+07
-3.47995e+07
-2.40263e+07
-2.31021e+07
-1.72896e+07
-1.86276e+07
-3.01459e+07
-2.03807e+07
-2.89587e+07
-2.80296e+07
-2.7409e+07
-1.64075e+07
-3.10933e+07
-1.60836e+07
-2.23758e+07
-3.26748e+07
-3.38608e+07
-1.82381e+07
-3.21987e+07
-2.82775e+07
-1.79997e+07
-8.6405e+06
)
;

boundaryField
{
    inlet
    {
        type            calculated;
        value           uniform 0;
    }
    outlet
    {
        type            calculated;
        value           nonuniform 0();
    }
    wall
    {
        type            calculated;
        value           uniform 0;
    }
    procBoundary0to1
    {
        type            processor;
        value           nonuniform List<scalar> 
12
(
324.885
342.724
298.409
561.505
682.627
601.342
538.353
489.165
719.3
490.595
593.75
444.373
)
;
    }
    procBoundary0to2
    {
        type            processor;
        value           nonuniform List<scalar> 
44
(
539.139
422.671
230.827
451.297
274.902
347.709
439.459
523.972
539.139
463.477
539.139
422.671
743.978
929.529
498.89
848.444
357.619
600.236
725.356
694.746
743.978
672.269
743.978
929.529
601.258
698.246
518.626
434.383
510.508
521.061
512.217
586.19
601.258
744.004
601.258
698.246
370.188
716.772
778.236
541.236
622.294
473.734
572.063
565.521
)
;
    }
    procBoundary0to4
    {
        type            processor;
        value           nonuniform List<scalar> 
36
(
372.216
537.358
636.991
452.115
541.147
453.194
676.336
519.948
729.754
530.514
551.608
709.818
759.278
765.102
649.817
615.787
436.779
840.38
505.532
776.844
628.673
707.562
613.837
476.641
552.198
778.475
509.74
261.261
508.506
709.686
430.374
663.472
501.897
831.204
451.683
532.895
)
;
    }
    procBoundary0to6
    {
        type            processor;
        value           uniform 610.291;
    }
    procBoundary0to7
    {
        type            processor;
        value           uniform 753.708;
    }
}


// ************************************************************************* //
