/*--------------------------------*- C++ -*----------------------------------*\
| =========                 |                                                 |
| \\      /  F ield         | OpenFOAM: The Open Source CFD Toolbox           |
|  \\    /   O peration     | Version:  4.x                                   |
|   \\  /    A nd           | Web:      www.OpenFOAM.org                      |
|    \\/     M anipulation  |                                                 |
\*---------------------------------------------------------------------------*/
FoamFile
{
    version     2.0;
    format      ascii;
    class       volScalarField;
    location    "37.5";
    object      Qsource;
}
// * * * * * * * * * * * * * * * * * * * * * * * * * * * * * * * * * * * * * //

dimensions      [1 -1 -3 0 0 0 0];

internalField   nonuniform List<scalar> 
132
(
6.89345e+09
5.2218e+09
5.54912e+09
4.1791e+09
6.29301e+09
5.87878e+09
7.95389e+09
5.45956e+09
4.19991e+09
5.50792e+09
5.56277e+09
6.4336e+09
6.15347e+09
4.79944e+09
7.34625e+09
6.31398e+09
6.47344e+09
6.28082e+09
3.11618e+09
6.32237e+09
6.64332e+09
5.59433e+09
6.49759e+09
5.47813e+09
4.94478e+09
5.79492e+09
9.48847e+09
3.8396e+09
4.98063e+09
4.40765e+09
5.11497e+09
7.40367e+09
9.50896e+09
8.05337e+09
8.64295e+09
8.11878e+09
8.04163e+09
7.31677e+09
8.2009e+09
4.9828e+09
9.45988e+09
8.0192e+09
8.50563e+09
9.60928e+09
8.62279e+09
9.20853e+09
9.2145e+09
8.98518e+09
5.30074e+09
9.45456e+09
8.41125e+09
7.53807e+09
9.07991e+09
6.76602e+09
1.05259e+10
6.92444e+09
6.3516e+09
7.96627e+09
7.03521e+09
7.7987e+09
5.50967e+09
1.13235e+10
6.42077e+09
7.38929e+09
8.99108e+09
7.42544e+09
8.36624e+09
6.1627e+09
8.95528e+09
7.57636e+09
6.33809e+09
6.24862e+09
8.28197e+09
7.99257e+09
6.92066e+09
9.28446e+09
6.72457e+09
9.45283e+09
1.01682e+10
1.01486e+10
6.70816e+09
7.20867e+09
8.09403e+09
9.3076e+09
9.84102e+09
8.07643e+09
9.21901e+09
6.45363e+09
5.39289e+09
6.90696e+09
8.65985e+09
9.56888e+09
8.96104e+09
9.9546e+09
7.99421e+09
8.73846e+09
5.18698e+09
5.40326e+09
7.61449e+09
5.62752e+09
7.94154e+09
8.22816e+09
6.76819e+09
4.78394e+09
6.9092e+09
5.13684e+09
9.59876e+09
9.09636e+09
8.09359e+09
7.20632e+09
6.64865e+09
1.04398e+10
7.20788e+09
6.93063e+09
5.18688e+09
5.58827e+09
9.04378e+09
6.11421e+09
8.6876e+09
8.40889e+09
8.22271e+09
4.92226e+09
9.32798e+09
4.82509e+09
6.71274e+09
9.80245e+09
1.01582e+10
5.47142e+09
9.65962e+09
8.48324e+09
5.39992e+09
2.59215e+09
)
;

boundaryField
{
    inlet
    {
        type            calculated;
        value           uniform 0;
    }
    outlet
    {
        type            calculated;
        value           nonuniform 0();
    }
    wall
    {
        type            calculated;
        value           uniform 0;
    }
    procBoundary0to1
    {
        type            processor;
        value           nonuniform List<scalar> 
12
(
5.90984e+09
5.24659e+09
4.56757e+09
7.98188e+09
9.03116e+09
7.95576e+09
7.64062e+09
6.47165e+09
9.51634e+09
6.89365e+09
7.85531e+09
5.87906e+09
)
;
    }
    procBoundary0to2
    {
        type            processor;
        value           nonuniform List<scalar> 
44
(
7.66192e+09
6.52329e+09
3.64632e+09
6.93627e+09
4.2682e+09
5.59842e+09
6.66055e+09
7.35904e+09
7.66192e+09
7.00915e+09
7.66192e+09
6.52329e+09
9.84283e+09
1.22977e+10
6.60031e+09
1.12249e+10
4.7313e+09
7.94113e+09
9.59646e+09
9.19149e+09
9.84283e+09
8.89412e+09
9.84283e+09
1.22977e+10
7.95465e+09
9.23779e+09
6.86142e+09
5.74688e+09
6.75402e+09
6.89364e+09
6.77663e+09
7.7553e+09
7.95465e+09
9.84317e+09
7.95465e+09
9.23779e+09
4.89759e+09
9.4829e+09
1.02961e+10
7.16056e+09
8.23295e+09
6.26751e+09
7.56839e+09
7.48184e+09
)
;
    }
    procBoundary0to4
    {
        type            processor;
        value           nonuniform List<scalar> 
36
(
5.75117e+09
7.52726e+09
9.26356e+09
6.42163e+09
8.00805e+09
6.45094e+09
9.80771e+09
7.33809e+09
1.05269e+10
7.0187e+09
7.29778e+09
9.39089e+09
1.00452e+10
1.01223e+10
8.59707e+09
8.14686e+09
5.77858e+09
1.11182e+10
6.68819e+09
1.02776e+10
8.31734e+09
9.36105e+09
8.12107e+09
6.30596e+09
7.30558e+09
1.02992e+10
6.74386e+09
3.45649e+09
6.72753e+09
9.38915e+09
5.69385e+09
8.77773e+09
6.64009e+09
1.09968e+10
5.97577e+09
7.0502e+09
)
;
    }
    procBoundary0to6
    {
        type            processor;
        value           uniform 8.07416e+09;
    }
    procBoundary0to7
    {
        type            processor;
        value           uniform 9.97155e+09;
    }
}


// ************************************************************************* //
