/*--------------------------------*- C++ -*----------------------------------*\
| =========                 |                                                 |
| \\      /  F ield         | OpenFOAM: The Open Source CFD Toolbox           |
|  \\    /   O peration     | Version:  4.x                                   |
|   \\  /    A nd           | Web:      www.OpenFOAM.org                      |
|    \\/     M anipulation  |                                                 |
\*---------------------------------------------------------------------------*/
FoamFile
{
    version     2.0;
    format      ascii;
    class       volVectorField;
    location    "37.5";
    object      UsPrev;
}
// * * * * * * * * * * * * * * * * * * * * * * * * * * * * * * * * * * * * * //

dimensions      [0 1 -1 0 0 0 0];

internalField   nonuniform List<vector> 
132
(
(5.27963e-10 -1.87631e-10 -2.20018e-10)
(4.81345e-10 -3.30048e-10 -3.98656e-10)
(-3.07928e-09 5.14769e-09 -1.01318e-09)
(-1.61493e-09 1.35558e-09 1.59176e-09)
(1.19181e-09 1.39285e-09 1.29126e-09)
(5.37476e-10 4.13382e-10 1.17048e-09)
(-6.38546e-11 6.32802e-10 1.35287e-09)
(-1.23724e-09 3.37031e-10 1.71694e-10)
(-1.51903e-09 1.02037e-10 4.51564e-10)
(2.58918e-10 -4.76636e-10 -2.03282e-10)
(-2.9405e-10 -6.71162e-10 5.1848e-11)
(-1.69338e-09 -1.34767e-09 6.53798e-11)
(-1.20613e-09 1.0213e-09 1.17566e-09)
(-1.75017e-10 2.68197e-10 1.7187e-09)
(-4.5073e-11 1.46801e-10 1.75744e-09)
(4.76634e-10 -2.16526e-10 2.3717e-09)
(5.73951e-11 -1.64347e-10 2.87107e-09)
(5.21101e-10 -2.84553e-09 4.81818e-09)
(2.99984e-10 -2.12988e-10 1.13305e-10)
(-9.11982e-11 -3.95363e-10 5.15556e-10)
(-4.30055e-10 -6.10356e-10 9.06109e-10)
(-2.57843e-10 3.01531e-10 1.17472e-09)
(1.12871e-10 1.97857e-10 1.66264e-09)
(-7.75807e-10 3.59104e-10 2.41141e-09)
(3.15074e-10 -4.49304e-10 2.86023e-09)
(-6.75427e-10 -1.25079e-09 3.49088e-09)
(6.02964e-10 -2.09246e-09 3.83992e-09)
(3.05163e-10 -4.62217e-10 2.61571e-10)
(3.3829e-10 -2.70843e-10 7.41226e-10)
(4.76207e-10 -5.5355e-10 8.86472e-10)
(3.99354e-10 -9.39883e-11 -3.86927e-10)
(-4.05829e-10 -2.20141e-10 -6.78371e-10)
(-1.11438e-09 -6.53019e-11 -8.28512e-10)
(-1.71863e-09 5.83795e-10 2.10979e-09)
(-9.8542e-11 2.80885e-10 1.70325e-09)
(1.43506e-10 4.37457e-12 1.42736e-09)
(-1.02154e-10 -8.21302e-11 1.41912e-09)
(-6.70833e-10 5.66112e-11 -1.15666e-10)
(-3.04226e-09 -1.88567e-09 4.06185e-09)
(2.19894e-10 -2.895e-10 -1.87762e-10)
(-2.05865e-10 -5.83214e-10 -1.30046e-10)
(-4.56103e-10 -1.01657e-09 5.28149e-10)
(-1.11192e-09 4.11428e-10 1.52419e-09)
(-2.41436e-11 1.81575e-10 2.02283e-09)
(1.21745e-10 -1.39324e-10 1.95886e-09)
(3.45434e-11 -2.69393e-10 2.40627e-09)
(-6.00208e-10 -6.48386e-10 2.87931e-09)
(-2.09666e-09 8.27861e-11 6.15608e-09)
(3.66563e-10 -2.047e-10 1.10964e-10)
(-1.35322e-11 -4.05072e-10 4.96584e-10)
(3.88323e-11 -3.74159e-10 9.28393e-10)
(6.79883e-11 -1.3521e-10 1.39127e-09)
(3.27176e-10 -1.39021e-10 1.95567e-09)
(-4.91138e-11 -3.71207e-10 2.23454e-09)
(3.21815e-10 -4.51116e-10 3.17578e-09)
(4.58908e-11 -9.00844e-10 3.76433e-09)
(4.08209e-10 -7.07217e-10 4.54266e-09)
(2.7454e-10 -3.06429e-10 3.60512e-10)
(3.24182e-10 -4.02843e-10 8.12502e-10)
(5.55892e-10 -2.52825e-10 1.08231e-09)
(6.58752e-10 -5.28301e-10 1.64243e-09)
(7.19895e-10 -5.4691e-10 2.06063e-09)
(2.37511e-11 -3.40477e-11 -2.01915e-10)
(-3.8022e-10 4.85701e-11 -2.17416e-10)
(-5.04672e-10 -4.42954e-11 -8.80265e-11)
(-4.54609e-10 6.22745e-11 9.59068e-10)
(-3.7797e-11 7.62203e-11 1.12706e-09)
(1.63302e-10 1.96552e-10 1.37138e-09)
(-4.12717e-11 -3.85993e-11 1.45749e-09)
(-1.45162e-10 8.83371e-13 1.04926e-09)
(-1.87627e-09 -9.50236e-10 5.36071e-09)
(7.12134e-11 -1.54135e-10 -1.05143e-10)
(-2.255e-10 -1.55528e-10 1.52536e-11)
(-1.0083e-10 -2.21581e-10 4.24757e-10)
(3.09752e-11 1.52644e-10 1.23486e-09)
(2.70055e-10 8.77874e-11 1.66876e-09)
(5.79995e-10 -1.42289e-10 2.06307e-09)
(6.85066e-10 -3.72558e-10 2.42342e-09)
(2.89734e-10 -9.4893e-10 2.6283e-09)
(-2.29981e-09 1.52124e-09 6.21131e-09)
(1.28918e-10 -9.17585e-11 8.28097e-11)
(2.4625e-10 -1.24715e-10 4.00233e-10)
(6.33455e-10 -1.77092e-10 7.77882e-10)
(9.65894e-10 6.43579e-11 1.20325e-09)
(1.17036e-09 -7.36988e-11 1.72226e-09)
(1.68461e-09 1.19868e-10 2.19208e-09)
(2.03016e-09 -4.5612e-10 2.8881e-09)
(1.06356e-09 -3.43298e-10 3.42271e-09)
(4.55298e-11 1.53562e-09 4.89921e-09)
(9.70774e-11 -2.91572e-10 2.46514e-10)
(6.9317e-10 -7.82777e-10 7.36187e-10)
(1.21258e-09 -6.85169e-10 9.72261e-10)
(1.48901e-09 -6.78732e-10 1.52498e-09)
(1.57472e-09 -8.98367e-10 2.09487e-09)
(1.34565e-09 -6.59508e-10 2.55504e-09)
(2.58685e-09 -1.19006e-09 2.67218e-09)
(4.23826e-11 -3.75378e-11 -1.27848e-10)
(-2.51708e-10 7.55194e-11 -7.85191e-11)
(-8.50775e-11 -3.15458e-11 4.80624e-11)
(-1.6054e-10 1.26587e-10 4.6215e-10)
(2.90353e-12 3.87133e-11 6.50867e-10)
(-1.21341e-10 1.6578e-10 1.00607e-09)
(-6.43165e-11 1.41447e-10 1.28211e-09)
(-3.08717e-10 -1.85247e-10 1.84544e-09)
(-4.27451e-10 -4.35749e-10 3.97391e-09)
(2.10334e-11 -8.56273e-11 -1.43962e-10)
(-1.49411e-10 5.14697e-12 -3.80855e-11)
(1.68851e-10 -9.62223e-11 1.89352e-10)
(1.53284e-10 2.53468e-10 7.37148e-10)
(4.61629e-10 2.58602e-10 1.02297e-09)
(4.38991e-10 3.44564e-10 1.38877e-09)
(6.93055e-10 3.02786e-10 1.76481e-09)
(1.34073e-10 -4.18279e-10 2.11181e-09)
(-1.5016e-10 2.25943e-10 3.12962e-09)
(2.7661e-10 3.40163e-11 3.10097e-11)
(3.91749e-10 2.37729e-11 2.21785e-10)
(1.0428e-09 2.35554e-11 5.4794e-10)
(7.59509e-10 3.66517e-10 8.30907e-10)
(1.60376e-09 3.04725e-10 1.31976e-09)
(1.67792e-09 4.25733e-10 1.65539e-09)
(2.42955e-09 1.32646e-10 2.01884e-09)
(2.06377e-09 -2.14269e-10 2.72963e-09)
(1.30172e-09 6.34442e-10 3.55303e-09)
(2.07224e-10 -7.18693e-11 7.01859e-11)
(4.99859e-10 -3.78596e-10 2.19636e-10)
(1.5656e-09 -2.00295e-10 3.8357e-10)
(1.93796e-09 -6.25321e-11 6.75707e-10)
(2.96656e-09 7.14204e-11 1.03255e-09)
(2.42345e-09 -2.8151e-10 1.95783e-09)
(3.19577e-09 -5.78217e-10 2.38252e-09)
(2.75502e-09 -4.40854e-10 2.42675e-09)
(1.66976e-09 -7.72731e-10 3.719e-09)
)
;

boundaryField
{
    inlet
    {
        type            calculated;
        value           uniform (0 0 0);
    }
    outlet
    {
        type            calculated;
        value           nonuniform 0();
    }
    wall
    {
        type            calculated;
        value           uniform (0 0 0);
    }
    procBoundary0to1
    {
        type            processor;
        value           uniform (0 0 0);
    }
    procBoundary0to2
    {
        type            processor;
        value           uniform (0 0 0);
    }
    procBoundary0to4
    {
        type            processor;
        value           uniform (0 0 0);
    }
    procBoundary0to6
    {
        type            processor;
        value           uniform (0 0 0);
    }
    procBoundary0to7
    {
        type            processor;
        value           uniform (0 0 0);
    }
}


// ************************************************************************* //
