/*--------------------------------*- C++ -*----------------------------------*\
| =========                 |                                                 |
| \\      /  F ield         | OpenFOAM: The Open Source CFD Toolbox           |
|  \\    /   O peration     | Version:  4.x                                   |
|   \\  /    A nd           | Web:      www.OpenFOAM.org                      |
|    \\/     M anipulation  |                                                 |
\*---------------------------------------------------------------------------*/
FoamFile
{
    version     2.0;
    format      ascii;
    class       volScalarField;
    location    "39";
    object      Ksl;
}
// * * * * * * * * * * * * * * * * * * * * * * * * * * * * * * * * * * * * * //

dimensions      [1 -3 -1 0 0 0 0];

internalField   nonuniform List<scalar> 
87
(
3825.09
15011.2
3554.09
3244.14
6820.65
3165.84
3570.85
12372.3
3838.54
25410.4
3955.37
101928
3980.2
1e+10
3953.77
3482.82
10717.3
3675.75
15287.2
3769.65
24279.7
3802.56
55252.3
3799.7
3368.65
8113.47
3385.19
7882.77
3409.49
8091.58
3385.74
8283.76
3365.28
3511.28
10696.2
3700.06
15284.4
3749.42
24204
3781.05
50799.4
3750.04
3435.47
9132.43
3559.05
10082.2
3589.12
11220.1
3615.54
13260.7
3576.11
3355.48
7561.29
3297.21
6961.66
3264.19
6671.09
3224.3
6538.99
3165.82
3422.98
8114.38
3453.33
8138.45
3412.45
8198.59
3403.78
8561.85
3321.19
3366.21
7562.26
3338.2
7042.58
3284.24
6750.03
3250.84
6676.84
3173.78
3312.64
6973.11
3193.52
6009.95
3060.08
5467.25
3005.75
5205.69
2948.81
)
;

boundaryField
{
    inlet
    {
        type            zeroGradient;
    }
    outlet
    {
        type            zeroGradient;
    }
    wall
    {
        type            zeroGradient;
    }
    procBoundary6to0
    {
        type            processor;
        value           uniform 3793.29;
    }
    procBoundary6to2
    {
        type            processor;
        value           nonuniform List<scalar> 
32
(
3833.32
24788
3708.81
3291.61
6926.46
3205.76
3503.59
11539.5
3752.02
17803
3829.35
30473.7
3845.86
80916.5
80916.5
80916.5
3456.88
9906.06
3641.69
11819.5
3675.2
13614.6
3634.58
3634.58
3634.58
3354.62
8002.62
3388.74
7559.15
3338.71
7134.62
7134.62
)
;
    }
    procBoundary6to4
    {
        type            processor;
        value           nonuniform List<scalar> 
27
(
3491.63
11307.3
3793.02
19305.1
3882.84
48374.4
3898.4
1.79801e+07
3855.04
3493.57
10509.5
3703.96
14774.5
3777.14
21096.3
3753.91
30621.6
3664.96
3464.37
8484.27
3492.96
8609.36
3456.88
8241.95
3325.88
7595.11
3203.89
)
;
    }
    procBoundary6to7
    {
        type            processor;
        value           nonuniform List<scalar> 
12
(
1e+10
15348.3
6794.15
1e+10
1.74693e+06
9195.18
1.841e+06
16032.6
6472.23
9042.94
6694.55
5108.74
)
;
    }
}


// ************************************************************************* //
