/*--------------------------------*- C++ -*----------------------------------*\
| =========                 |                                                 |
| \\      /  F ield         | OpenFOAM: The Open Source CFD Toolbox           |
|  \\    /   O peration     | Version:  4.x                                   |
|   \\  /    A nd           | Web:      www.OpenFOAM.org                      |
|    \\/     M anipulation  |                                                 |
\*---------------------------------------------------------------------------*/
FoamFile
{
    version     2.0;
    format      ascii;
    class       volScalarField;
    location    "39";
    object      KslPrev;
}
// * * * * * * * * * * * * * * * * * * * * * * * * * * * * * * * * * * * * * //

dimensions      [1 -3 -1 0 0 0 0];

internalField   nonuniform List<scalar> 
87
(
3825.1
15011.3
3554.1
3244.15
6820.67
3165.85
3570.87
12372.4
3838.56
25409.8
3955.38
101920
3980.21
1e+10
3953.78
3482.84
10717.3
3675.76
15287.1
3769.66
24279.3
3802.57
55250.6
3799.7
3368.66
8113.49
3385.2
7882.77
3409.5
8091.57
3385.75
8283.73
3365.28
3511.29
10696.2
3700.07
15284.3
3749.43
24203.9
3781.06
50799.3
3750.04
3435.49
9132.45
3559.07
10082.2
3589.13
11220
3615.55
13260.6
3576.12
3355.49
7561.31
3297.22
6961.67
3264.2
6671.09
3224.3
6538.99
3165.83
3422.99
8114.4
3453.34
8138.47
3412.46
8198.61
3403.79
8561.88
3321.2
3366.23
7562.28
3338.21
7042.58
3284.25
6750.03
3250.85
6676.84
3173.79
3312.65
6973.13
3193.53
6009.96
3060.09
5467.26
3005.76
5205.69
2948.82
)
;

boundaryField
{
    inlet
    {
        type            zeroGradient;
    }
    outlet
    {
        type            zeroGradient;
    }
    wall
    {
        type            zeroGradient;
    }
    procBoundary6to0
    {
        type            processor;
        value           uniform 0;
    }
    procBoundary6to2
    {
        type            processor;
        value           uniform 0;
    }
    procBoundary6to4
    {
        type            processor;
        value           uniform 0;
    }
    procBoundary6to7
    {
        type            processor;
        value           uniform 0;
    }
}


// ************************************************************************* //
