/*--------------------------------*- C++ -*----------------------------------*\
| =========                 |                                                 |
| \\      /  F ield         | OpenFOAM: The Open Source CFD Toolbox           |
|  \\    /   O peration     | Version:  4.x                                   |
|   \\  /    A nd           | Web:      www.OpenFOAM.org                      |
|    \\/     M anipulation  |                                                 |
\*---------------------------------------------------------------------------*/
FoamFile
{
    version     2.0;
    format      ascii;
    class       volScalarField;
    location    "14";
    object      Cs;
}
// * * * * * * * * * * * * * * * * * * * * * * * * * * * * * * * * * * * * * //

dimensions      [1 -3 0 0 0 0 0];

internalField   nonuniform List<scalar> 
114
(
334.849
334.825
334.796
334.808
334.799
334.895
334.923
334.944
334.978
334.994
335.035
335.024
335.217
334.924
334.944
334.98
335.018
335.058
335.099
335.119
335.263
334.964
334.942
334.922
334.9
334.885
334.866
334.875
334.875
334.908
334.958
334.965
334.994
335.022
335.06
335.058
335.088
335.053
335.147
334.952
334.961
334.989
335.026
335.065
335.09
335.118
335.112
335.288
334.945
334.961
334.972
334.961
334.949
334.936
334.929
334.92
334.926
334.927
335.199
334.961
334.964
334.975
334.992
335.012
335.017
335.035
335.021
335.159
334.957
334.959
334.969
334.985
335.007
335.021
335.048
335.048
335.173
334.947
334.954
334.974
335.003
334.974
334.965
334.954
334.945
334.937
334.93
334.927
334.926
338.31
334.969
334.96
334.951
334.944
334.938
334.934
334.935
334.934
335.036
334.966
334.957
334.948
334.941
334.935
334.931
334.934
334.937
335.083
334.962
334.953
334.946
334.94
334.937
334.936
)
;

boundaryField
{
    inlet
    {
        type            calculated;
        value           nonuniform 0();
    }
    outlet
    {
        type            calculated;
        value           uniform 335;
    }
    wall
    {
        type            calculated;
        value           nonuniform List<scalar> 
66
(
334.974
334.969
334.966
334.962
334.965
334.96
334.957
334.953
334.954
334.951
334.948
334.946
334.945
334.944
334.941
334.94
334.937
334.938
334.935
334.937
334.93
334.934
334.931
334.936
334.927
334.935
334.934
334.926
334.934
334.937
338.31
335.036
335.083
334.964
334.972
334.974
334.942
334.961
334.965
334.922
334.949
334.954
334.849
334.9
334.936
334.945
334.825
334.885
334.929
334.937
334.796
334.866
334.92
334.93
334.808
334.875
334.926
334.927
334.799
334.875
334.927
334.926
334.895
334.908
335.199
338.31
)
;
    }
    procBoundary5to1
    {
        type            processor;
        value           nonuniform List<scalar> 
32
(
334.782
334.754
334.726
334.739
334.735
335.048
334.841
334.876
334.931
334.96
335.021
335.019
335.316
334.882
334.937
334.978
335.043
335.086
335.131
335.145
335.253
334.962
334.915
334.882
334.882
334.882
334.982
334.914
334.914
334.914
334.935
334.935
)
;
    }
    procBoundary5to4
    {
        type            processor;
        value           nonuniform List<scalar> 
12
(
334.973
334.956
334.949
334.942
334.98
334.965
334.961
334.954
334.982
334.977
334.975
334.971
)
;
    }
    procBoundary5to7
    {
        type            processor;
        value           nonuniform List<scalar> 
44
(
334.914
334.93
334.96
334.995
335.035
335.07
335.1
335.194
334.913
334.914
334.989
335.025
335.064
335.095
335.105
335.103
335.182
334.958
334.989
334.973
334.989
335.025
335.039
335.066
335.1
335.089
335.211
334.956
334.959
334.97
335.039
334.986
335.039
335.066
334.944
334.952
335.245
334.96
334.95
334.941
334.935
334.937
334.944
334.949
)
;
    }
}


// ************************************************************************* //
