/*--------------------------------*- C++ -*----------------------------------*\
| =========                 |                                                 |
| \\      /  F ield         | OpenFOAM: The Open Source CFD Toolbox           |
|  \\    /   O peration     | Version:  4.x                                   |
|   \\  /    A nd           | Web:      www.OpenFOAM.org                      |
|    \\/     M anipulation  |                                                 |
\*---------------------------------------------------------------------------*/
FoamFile
{
    version     2.0;
    format      ascii;
    class       volScalarField;
    location    "14";
    object      magGField;
}
// * * * * * * * * * * * * * * * * * * * * * * * * * * * * * * * * * * * * * //

dimensions      [1 -2 -1 0 0 0 0];

internalField   nonuniform List<scalar> 
114
(
112.725
52.7607
126.819
49.8674
160.488
64.9234
26.0115
93.5552
30.7033
96.9156
35.06
95.5331
66.2413
88.9556
15.8922
90.4577
20.5469
89.7342
15.1771
79.8738
24.507
51.5258
98.3135
44.5262
99.2017
40.2086
100.304
29.5137
90.5042
14.9887
6.81588
79.6801
3.22587
78.5528
1.49219
74.5567
4.8108
61.835
13.1186
4.94684
79.4648
5.46054
76.7838
4.72788
71.1224
5.61954
63.0125
23.5975
3.3876
74.5722
53.1915
102.241
52.5743
109.954
53.7578
124.49
55.209
152.406
69.1304
24.2186
86.8755
23.7287
89.682
24.966
93.2719
28.5847
92.2077
61.1567
24.0455
87.312
23.1098
88.515
19.874
89.0325
20.1856
84.0095
27.4406
11.7289
76.3963
9.5584
73.6667
63.8809
107.062
64.7114
116.75
66.3393
136.715
66.4167
192.471
81.476
58.5254
100.75
58.4429
105.489
56.8048
110.39
59.3532
115.356
90.4603
54.5194
97.4533
50.8529
100.194
49.3149
102.291
45.456
100.415
35.2941
50.3633
92.1928
47.9194
91.0881
45.9944
87.8415
)
;

boundaryField
{
    inlet
    {
        type            calculated;
        value           nonuniform 0();
    }
    outlet
    {
        type            calculated;
        value           nonuniform List<scalar> 
12
(
142.528
145.569
54.0565
32.9207
28.9549
52.1411
152.098
134.77
61.1792
177.177
199.215
78.2263
)
;
    }
    wall
    {
        type            calculated;
        value           uniform 0;
    }
    procBoundary5to1
    {
        type            processor;
        value           nonuniform List<scalar> 
32
(
108.765
56.9035
122.537
53.6233
160.648
52.4338
31.3587
86.6707
27.1502
91.939
33.3219
94.2531
70.8103
80.1827
4.03187
78.0418
5.89285
81.3449
11.3791
75.0583
18.3811
55.3967
108.01
52.7344
52.7344
52.7344
24.7445
91.4027
91.4027
91.4027
16.8785
16.8785
)
;
    }
    procBoundary5to4
    {
        type            processor;
        value           nonuniform List<scalar> 
12
(
96.7785
83.1239
81.1344
76.5684
97.1636
84.8282
84.6805
78.2534
101.319
96.6597
94.3415
90.9633
)
;
    }
    procBoundary5to7
    {
        type            processor;
        value           nonuniform List<scalar> 
44
(
83.6438
15.315
80.984
15.1566
73.9129
14.9825
63.2354
25.6106
15.6109
83.6438
2.43334
72.1613
1.67555
68.5696
7.56049
61.8852
26.6776
1.76019
2.43334
68.2818
2.43334
72.1613
1.71144
68.9025
1.22751
57.0199
13.9485
20.7455
82.659
14.2791
1.71144
82.7903
1.71144
68.9025
41.0268
79.8874
38.9795
43.73
89.2019
34.958
85.6398
27.3009
41.0268
81.5865
)
;
    }
}


// ************************************************************************* //
