/*--------------------------------*- C++ -*----------------------------------*\
| =========                 |                                                 |
| \\      /  F ield         | OpenFOAM: The Open Source CFD Toolbox           |
|  \\    /   O peration     | Version:  4.x                                   |
|   \\  /    A nd           | Web:      www.OpenFOAM.org                      |
|    \\/     M anipulation  |                                                 |
\*---------------------------------------------------------------------------*/
FoamFile
{
    version     2.0;
    format      ascii;
    class       volScalarField;
    location    "14";
    object      nu;
}
// * * * * * * * * * * * * * * * * * * * * * * * * * * * * * * * * * * * * * //

dimensions      [0 2 -1 0 0 0 0];

internalField   nonuniform List<scalar> 
114
(
1.00045e-06
1.00052e-06
1.00061e-06
1.00057e-06
1.0006e-06
1.00031e-06
1.00023e-06
1.00017e-06
1.00007e-06
1.00002e-06
9.99896e-07
9.99927e-07
9.99352e-07
1.00023e-06
1.00017e-06
1.00006e-06
9.99946e-07
9.99826e-07
9.99706e-07
9.99645e-07
9.99215e-07
1.00011e-06
1.00017e-06
1.00023e-06
1.0003e-06
1.00034e-06
1.0004e-06
1.00037e-06
1.00037e-06
1.00028e-06
1.00012e-06
1.0001e-06
1.00002e-06
9.99936e-07
9.99821e-07
9.99828e-07
9.99738e-07
9.99842e-07
9.99561e-07
1.00014e-06
1.00012e-06
1.00003e-06
9.99924e-07
9.99806e-07
9.9973e-07
9.99649e-07
9.99665e-07
9.99141e-07
1.00016e-06
1.00012e-06
1.00008e-06
1.00012e-06
1.00015e-06
1.00019e-06
1.00021e-06
1.00024e-06
1.00022e-06
1.00022e-06
9.99405e-07
1.00012e-06
1.00011e-06
1.00007e-06
1.00003e-06
9.99965e-07
9.99949e-07
9.99894e-07
9.99938e-07
9.99527e-07
1.00013e-06
1.00012e-06
1.00009e-06
1.00004e-06
9.99979e-07
9.99937e-07
9.99857e-07
9.99856e-07
9.99484e-07
1.00016e-06
1.00014e-06
1.00008e-06
9.99992e-07
1.00008e-06
1.00011e-06
1.00014e-06
1.00017e-06
1.00019e-06
1.00021e-06
1.00022e-06
1.00022e-06
9.90217e-07
1.00009e-06
1.00012e-06
1.00015e-06
1.00017e-06
1.00018e-06
1.0002e-06
1.0002e-06
1.0002e-06
9.99891e-07
1.0001e-06
1.00013e-06
1.00016e-06
1.00018e-06
1.00019e-06
1.00021e-06
1.0002e-06
1.00019e-06
9.99752e-07
1.00011e-06
1.00014e-06
1.00016e-06
1.00018e-06
1.00019e-06
1.00019e-06
)
;

boundaryField
{
    inlet
    {
        type            calculated;
        value           nonuniform 0();
    }
    outlet
    {
        type            calculated;
        value           uniform 1e-06;
    }
    wall
    {
        type            calculated;
        value           nonuniform List<scalar> 
66
(
1.00008e-06
1.00009e-06
1.0001e-06
1.00011e-06
1.00011e-06
1.00012e-06
1.00013e-06
1.00014e-06
1.00014e-06
1.00015e-06
1.00016e-06
1.00016e-06
1.00017e-06
1.00017e-06
1.00018e-06
1.00018e-06
1.00019e-06
1.00018e-06
1.00019e-06
1.00019e-06
1.00021e-06
1.0002e-06
1.00021e-06
1.00019e-06
1.00022e-06
1.0002e-06
1.0002e-06
1.00022e-06
1.0002e-06
1.00019e-06
9.90217e-07
9.99891e-07
9.99752e-07
1.00011e-06
1.00008e-06
1.00008e-06
1.00017e-06
1.00012e-06
1.00011e-06
1.00023e-06
1.00015e-06
1.00014e-06
1.00045e-06
1.0003e-06
1.00019e-06
1.00017e-06
1.00052e-06
1.00034e-06
1.00021e-06
1.00019e-06
1.00061e-06
1.0004e-06
1.00024e-06
1.00021e-06
1.00057e-06
1.00037e-06
1.00022e-06
1.00022e-06
1.0006e-06
1.00037e-06
1.00022e-06
1.00022e-06
1.00031e-06
1.00028e-06
9.99405e-07
9.90217e-07
)
;
    }
    procBoundary5to1
    {
        type            processor;
        value           nonuniform List<scalar> 
32
(
1.00065e-06
1.00073e-06
1.00082e-06
1.00078e-06
1.00079e-06
9.99858e-07
1.00047e-06
1.00037e-06
1.0002e-06
1.00012e-06
9.99936e-07
9.99944e-07
9.99057e-07
1.00035e-06
1.00019e-06
1.00007e-06
9.99873e-07
9.99743e-07
9.99608e-07
9.99567e-07
9.99245e-07
1.00011e-06
1.00025e-06
1.00035e-06
1.00035e-06
1.00035e-06
1.00005e-06
1.00026e-06
1.00026e-06
1.00026e-06
1.00019e-06
1.00019e-06
)
;
    }
    procBoundary5to4
    {
        type            processor;
        value           nonuniform List<scalar> 
12
(
1.00008e-06
1.00013e-06
1.00015e-06
1.00017e-06
1.00006e-06
1.0001e-06
1.00012e-06
1.00014e-06
1.00005e-06
1.00007e-06
1.00008e-06
1.00009e-06
)
;
    }
    procBoundary5to7
    {
        type            processor;
        value           nonuniform List<scalar> 
44
(
1.00026e-06
1.00021e-06
1.00012e-06
1.00002e-06
9.99895e-07
9.99791e-07
9.99701e-07
9.9942e-07
1.00026e-06
1.00026e-06
1.00003e-06
9.99925e-07
9.99808e-07
9.99717e-07
9.99688e-07
9.99693e-07
9.99457e-07
1.00012e-06
1.00003e-06
1.00008e-06
1.00003e-06
9.99925e-07
9.99883e-07
9.99802e-07
9.99703e-07
9.99736e-07
9.99372e-07
1.00013e-06
1.00012e-06
1.00009e-06
9.99883e-07
1.00004e-06
9.99883e-07
9.99802e-07
1.00017e-06
1.00014e-06
9.9927e-07
1.00012e-06
1.00015e-06
1.00018e-06
1.00019e-06
1.00019e-06
1.00017e-06
1.00015e-06
)
;
    }
}


// ************************************************************************* //
