/*--------------------------------*- C++ -*----------------------------------*\
| =========                 |                                                 |
| \\      /  F ield         | OpenFOAM: The Open Source CFD Toolbox           |
|  \\    /   O peration     | Version:  4.x                                   |
|   \\  /    A nd           | Web:      www.OpenFOAM.org                      |
|    \\/     M anipulation  |                                                 |
\*---------------------------------------------------------------------------*/
FoamFile
{
    version     2.0;
    format      ascii;
    class       volVectorField;
    location    "14";
    object      U;
}
// * * * * * * * * * * * * * * * * * * * * * * * * * * * * * * * * * * * * * //

dimensions      [0 1 -1 0 0 0 0];

internalField   nonuniform List<vector> 
114
(
(0.0365989 0.000165422 0.00199312)
(0.0171413 -0.000945792 0.00100316)
(0.0412589 0.0015411 0.00381227)
(0.015966 -0.00348215 -0.000395083)
(0.0522204 0.00418666 0.00499501)
(0.0104135 -0.0142974 -0.0118422)
(0.00844662 -0.000451856 -0.000965814)
(0.0303774 0.000478812 0.000857882)
(0.00980714 -0.00114768 -0.00122718)
(0.0317155 0.00068835 0.00051347)
(0.0105634 -0.00385536 -0.00263905)
(0.0312946 0.00324434 4.62236e-05)
(0.0108808 -0.0169409 -0.0081868)
(0.0288616 -0.0002871 0.000659808)
(0.00512178 -0.00086306 -0.000762789)
(0.0296117 -3.15695e-05 -0.000953028)
(0.00630682 -0.00163439 -0.00151879)
(0.0293248 0.000577885 -0.00137462)
(0.00437933 -0.00187724 -0.00153214)
(0.0260874 0.00248506 -0.000124435)
(0.00598176 -0.00397831 -0.00366755)
(0.0166379 -0.000562744 -0.000167267)
(0.0317076 -0.000123684 2.84368e-05)
(0.0145472 -0.000478502 0.00037503)
(0.0323264 0.000527891 0.00143481)
(0.0131134 -0.000958644 0.000822667)
(0.032797 0.00249796 0.00305484)
(0.009533 -0.00171514 0.000970316)
(0.02925 0.00417864 0.00316258)
(0.00466704 -0.00153104 -0.000250604)
(-0.00197805 -0.000167995 0.00073771)
(0.0258625 0.0017994 -6.78911e-05)
(-0.000706826 0.000182489 0.000743254)
(0.0257892 0.00100712 -2.1127e-05)
(-0.000377924 0.000107694 0.000297888)
(0.0246073 0.00188961 0.000377557)
(0.00145314 -0.000597529 -0.000290363)
(0.0200461 0.0041694 0.000792277)
(0.00376157 -0.00179055 -0.00115132)
(-0.00147547 -5.45331e-05 0.000528612)
(0.0258037 7.51019e-05 -0.000365196)
(0.00176342 -0.000459722 1.54789e-05)
(0.0253195 0.000605778 -0.000943886)
(0.00148684 -0.00038292 -0.00017176)
(0.0235333 0.000971361 -0.000498962)
(0.00178384 -0.000509458 -0.000259806)
(0.0207135 0.00255293 -0.000706564)
(0.00743117 -0.00135713 -0.00188468)
(-0.00103213 0.000273428 0.000189361)
(0.0243469 -0.000621615 4.88184e-05)
(0.0172728 -0.000737855 7.29112e-05)
(0.033365 -0.000118275 0.000517809)
(0.0170938 -0.00108775 0.000875773)
(0.0360997 0.000241902 0.00135988)
(0.0174242 -0.00184437 0.00245207)
(0.0409529 0.00167996 0.00225679)
(0.0164759 -0.00439837 0.00646351)
(0.0500999 0.00448369 0.000660221)
(0.0100843 -0.0147355 0.0140398)
(0.00790244 -0.000357758 4.41873e-05)
(0.0284499 -5.47855e-05 0.000236667)
(0.00772689 -0.000525786 6.21087e-05)
(0.0295367 0.00021807 -0.00025034)
(0.00818046 -0.000996218 0.000393684)
(0.0308906 0.00104191 -0.000789584)
(0.00874735 -0.00332249 0.00175195)
(0.0302393 0.00376849 -0.0015894)
(0.0109543 -0.0157272 0.00614272)
(0.00783223 -0.000519111 0.000573472)
(0.0285446 -0.000240987 -0.00131522)
(0.00752186 -0.00096651 0.000628644)
(0.029235 -0.00066929 -0.000479636)
(0.00638077 -0.0015271 0.000940542)
(0.0296165 0.000671581 -0.00124368)
(0.00589244 -0.00277041 0.00175397)
(0.0276605 0.00273694 -0.00374574)
(0.00686464 -0.00525186 0.00295374)
(0.00378567 -9.53648e-05 0.00060967)
(0.0252298 -0.000710956 0.000161578)
(0.00312954 -0.000168318 0.000460557)
(0.0244433 -0.000165838 -0.000572628)
(0.0204243 -0.00055905 1.38305e-05)
(0.0346967 -0.000202906 3.9719e-05)
(0.0209045 -0.000828135 -9.32973e-05)
(0.0382311 0.00022041 0.000131889)
(0.0216745 -0.00169194 -0.000231272)
(0.0446989 0.00163701 0.000337303)
(0.0212929 -0.00493251 0.000484085)
(0.0632177 0.00309265 0.000135253)
(0.0152321 -0.02162 -2.89056e-05)
(0.0189355 -0.000755535 0.000350219)
(0.0328029 -0.000188294 1.41013e-05)
(0.0189286 -0.00107115 0.000185067)
(0.0345534 -1.21937e-07 -0.000100116)
(0.0186608 -0.00189544 -0.000282451)
(0.0364225 0.000376731 -8.26672e-05)
(0.0186233 -0.00581539 -0.000347655)
(0.0379888 0.0025075 -0.000789817)
(0.0168782 -0.0244666 0.00100411)
(0.0177079 -0.00103842 5.79106e-05)
(0.0318425 -0.00053117 0.000125282)
(0.0167037 -0.00164466 -0.000186693)
(0.0331039 -0.000271078 -9.19908e-06)
(0.0161569 -0.00240022 -0.000614038)
(0.0340624 -0.000214669 -0.000184976)
(0.0144537 -0.00421243 -0.00057209)
(0.0332489 0.00151238 -0.000262281)
(0.0100286 -0.00597851 -9.51185e-05)
(0.0164305 -0.000567024 0.000440425)
(0.0301662 -0.000742352 0.000128936)
(0.0158023 -0.000993328 0.00043702)
(0.0300908 -0.000583893 0.000799716)
(0.0152818 -0.00146349 0.000500968)
(0.0292084 -0.000233201 -5.76925e-05)
)
;

boundaryField
{
    inlet
    {
        type            fixedValue;
        value           nonuniform 0();
    }
    outlet
    {
        type            zeroGradient;
    }
    wall
    {
        type            fixedValue;
        value           uniform (0 0 0);
    }
    procBoundary5to1
    {
        type            processor;
        value           nonuniform List<vector> 
32
(
(0.0349059 -0.000693433 0.00238623)
(0.0179878 -0.00116285 0.00256995)
(0.0394237 0.000886362 0.00495689)
(0.0166779 -0.00338722 0.00350873)
(0.0511842 0.00333792 0.00606677)
(0.0103282 -0.0130607 -0.00104713)
(0.00995521 -0.00086663 0.000256276)
(0.0277941 0.000593491 0.00146539)
(0.00857925 -0.00125876 0.000129148)
(0.0297254 0.000983551 0.000969543)
(0.0100694 -0.00391727 -0.000336058)
(0.030272 0.00333807 0.000406902)
(0.0134033 -0.0177989 -0.00365502)
(0.0254985 0.00211938 0.000249251)
(-0.000929128 0.000733576 0.000369205)
(0.0252826 0.00176476 -0.000179781)
(0.00181137 -0.000442609 -0.000146353)
(0.0264175 0.000565552 -0.00201185)
(0.00354522 -0.000790911 -0.000772989)
(0.0243332 0.00106284 -0.00105976)
(0.00556066 -0.001177 -0.00151948)
(0.0177488 5.0894e-05 -0.000801846)
(0.0344995 -5.89183e-05 0.000810346)
(0.0172107 0.000125433 0.000180868)
(0.0172107 0.000125433 0.000180868)
(0.0172107 0.000125433 0.000180868)
(0.00789423 -0.000426839 -0.00163454)
(0.0295085 0.000128324 0.00244221)
(0.0295085 0.000128324 0.00244221)
(0.0295085 0.000128324 0.00244221)
(0.00542773 -0.000558719 -0.0004698)
(0.00542773 -0.000558719 -0.0004698)
)
;
    }
    procBoundary5to4
    {
        type            processor;
        value           nonuniform List<vector> 
12
(
(0.0313725 -0.00195104 -0.00051397)
(0.0270387 -0.0020459 -0.00014445)
(0.0263202 -0.000406333 0.000719284)
(0.024763 0.00193054 0.000461615)
(0.0317308 -0.000914146 0.00110936)
(0.02766 -0.000736656 0.00255472)
(0.0274971 -0.000410877 0.00276413)
(0.0253905 -0.000337732 0.00261558)
(0.0328956 -0.000669888 1.66716e-05)
(0.0314859 -0.000778526 0.000406555)
(0.0306811 -0.000559987 0.000185115)
(0.0295394 -0.000521401 0.000423333)
)
;
    }
    procBoundary5to7
    {
        type            processor;
        value           nonuniform List<vector> 
44
(
(0.0273374 -0.00100641 0.000554004)
(0.0050215 6.07829e-05 -0.000352842)
(0.0265956 -0.000578974 -0.000428208)
(0.00490324 -4.00688e-05 -0.00104418)
(0.0245793 0.000219229 0.000348471)
(0.00460613 0.000137785 -0.00187242)
(0.020786 0.000165415 0.000846523)
(0.00708636 0.000619783 -0.00460585)
(0.00510672 0.000139031 -0.00015383)
(0.0273374 -0.00100641 0.000554004)
(-0.000601822 0.000408464 0.000274001)
(0.0238595 0.00010428 -0.000699754)
(-0.000408292 0.000329729 0.000121731)
(0.0227711 0.000582517 -0.000223267)
(0.00243093 -6.76325e-05 -0.000707604)
(0.0205912 0.00104535 0.000325848)
(0.00823243 -4.50361e-05 -0.0032505)
(-0.000520504 0.000172224 4.03439e-05)
(-0.000601822 0.000408464 0.000274001)
(0.0224942 -0.000511739 -0.000301717)
(-0.000601822 0.000408464 0.000274001)
(0.0238595 0.00010428 -0.000699754)
(-0.00044027 0.000218863 0.000241318)
(0.0227861 0.0002693 -0.00150917)
(-0.000327416 0.000120084 0.000147964)
(0.018752 0.00127402 -0.0021957)
(0.00454638 -0.000797641 -8.84184e-05)
(0.00677664 0.000318647 -0.000624835)
(0.0271875 -0.000121213 -0.00171534)
(0.00468384 0.000449884 5.20398e-05)
(-0.00044027 0.000218863 0.000241318)
(0.0272732 0.00081697 -0.000959979)
(-0.00044027 0.000218863 0.000241318)
(0.0227861 0.0002693 -0.00150917)
(0.0132133 -0.00300873 0.000620165)
(0.0263297 0.00199981 -0.000807798)
(0.0118217 -0.00498198 0.000619203)
(0.0142652 0.000101813 -5.16778e-05)
(0.0291894 -7.43959e-05 0.000273929)
(0.0115317 0.000272804 -0.000334349)
(0.0283078 -0.000149669 -0.00010711)
(0.00897734 0.00025429 -0.000613483)
(0.0132133 -0.00300873 0.000620165)
(0.0267753 -0.000701176 -9.45191e-05)
)
;
    }
}


// ************************************************************************* //
