/*--------------------------------*- C++ -*----------------------------------*\
| =========                 |                                                 |
| \\      /  F ield         | OpenFOAM: The Open Source CFD Toolbox           |
|  \\    /   O peration     | Version:  4.x                                   |
|   \\  /    A nd           | Web:      www.OpenFOAM.org                      |
|    \\/     M anipulation  |                                                 |
\*---------------------------------------------------------------------------*/
FoamFile
{
    version     2.0;
    format      ascii;
    class       volVectorField;
    location    "53";
    object      DDtUrel;
}
// * * * * * * * * * * * * * * * * * * * * * * * * * * * * * * * * * * * * * //

dimensions      [0 1 -2 0 0 0 0];

internalField   nonuniform List<vector> 
114
(
(-0.000150344 -2.03606e-05 -3.27963e-06)
(-0.000286188 -5.02023e-05 -1.19369e-05)
(-0.00047999 -9.48468e-05 -3.81752e-05)
(-0.000848547 -0.000160872 -7.36229e-05)
(-0.00136006 -0.000271205 -0.000143684)
(-0.00197037 -0.000377617 -0.000220069)
(-5.44177e-05 2.7038e-06 6.55044e-06)
(-0.000138676 -1.95468e-05 -7.58414e-06)
(-0.000265725 -4.14644e-05 -1.38642e-05)
(-0.000477431 -8.64992e-05 -5.22863e-05)
(-0.000828681 -0.000140191 -8.62123e-05)
(-0.00129251 -0.000282768 -0.00020926)
(-0.00190176 -0.000426981 -0.000314895)
(-1.66958e-05 2.09777e-06 5.04799e-06)
(-6.37531e-05 -6.07982e-06 8.15647e-07)
(-0.000140529 -1.71797e-05 -1.07347e-05)
(-0.000270354 -3.41854e-05 -2.32532e-05)
(-0.000468068 -6.09939e-05 -6.02097e-05)
(-0.000801198 -0.000103299 -0.000108141)
(-0.00117896 -0.000178761 -0.000207483)
(-0.0016914 -0.000245726 -0.000291454)
(4.64224e-05 1.71768e-05 2.40885e-05)
(-1.68699e-06 8.92592e-06 2.34873e-05)
(-1.61634e-05 4.50811e-06 2.23423e-05)
(-0.00011511 -2.36415e-05 2.81883e-05)
(-0.000190662 -4.00119e-05 2.0086e-05)
(-0.000434708 -0.000107977 5.59867e-05)
(-0.000695917 -0.000164035 6.4418e-05)
(-0.00138108 -0.000363187 0.000228912)
(-0.00234007 -0.000516646 0.000382536)
(2.6097e-05 1.4965e-05 1.22628e-05)
(-1.14676e-05 7.01196e-06 1.12889e-05)
(-3.96874e-05 2.17307e-06 1.01686e-05)
(-0.000124347 -1.82403e-05 1.29381e-05)
(-0.000231215 -3.36581e-05 1.5471e-05)
(-0.000444411 -9.72256e-05 3.62356e-05)
(-0.000763569 -0.000151702 5.81065e-05)
(-0.00127098 -0.000377712 0.000187957)
(-0.00199142 -0.000538379 0.000291956)
(8.78142e-06 5.73786e-06 7.61343e-06)
(-1.9341e-05 1.36323e-07 5.83475e-06)
(-5.64369e-05 -5.97509e-06 7.07056e-06)
(-0.000132477 -1.7975e-05 7.03896e-06)
(-0.000243404 -3.32526e-05 9.91464e-06)
(-0.000441402 -6.92748e-05 2.10048e-05)
(-0.000754622 -0.000101978 3.04721e-05)
(-0.00115707 -0.000228867 0.000120276)
(-0.0017446 -0.000344524 0.000208071)
(4.71926e-06 -3.71747e-06 2.16727e-06)
(-2.55045e-05 -4.87965e-06 1.69929e-06)
(6.03619e-05 1.27641e-05 1.22714e-05)
(2.57642e-05 7.84294e-06 1.70581e-05)
(1.86074e-05 4.25165e-07 2.09434e-05)
(-6.81704e-05 -2.06358e-05 3.86571e-05)
(-0.000137789 -4.43792e-05 5.13427e-05)
(-0.000387903 -0.000105282 0.000115693)
(-0.000681007 -0.000184052 0.000177713)
(-0.00149197 -0.000358353 0.000457392)
(-0.0025179 -0.000512917 0.000721939)
(4.56122e-05 9.52912e-06 6.21083e-06)
(1.03552e-05 1.84526e-06 1.03583e-05)
(-3.6025e-06 -4.55701e-07 1.06926e-05)
(-8.88923e-05 -2.06254e-05 2.64923e-05)
(-0.000172141 -3.22129e-05 3.67727e-05)
(-0.000406351 -9.27271e-05 9.41486e-05)
(-0.000710047 -0.000146947 0.00015559)
(-0.00139206 -0.000351677 0.000410104)
(-0.00228626 -0.000522559 0.000605795)
(2.30065e-05 1.59913e-06 -3.03895e-07)
(-7.47384e-06 -3.0773e-06 4.10148e-06)
(-4.01891e-05 -6.2791e-06 7.80124e-06)
(-0.000109916 -1.97508e-05 1.85644e-05)
(-0.000216491 -3.50223e-05 3.10553e-05)
(-0.000414003 -7.22261e-05 7.97256e-05)
(-0.000722767 -0.000120351 0.000141965)
(-0.00125398 -0.000249003 0.00038801)
(-0.00194016 -0.000348379 0.000557635)
(1.67906e-05 -4.46286e-06 -4.58008e-06)
(-2.06675e-05 -8.38752e-06 -1.23132e-06)
(-4.99808e-05 -1.24052e-05 1.1724e-06)
(-0.000125907 -1.79969e-05 1.19416e-05)
(0.000120697 8.54008e-06 1.02452e-05)
(8.64386e-05 3.41136e-06 1.94289e-05)
(0.00010936 -4.54284e-06 2.15929e-05)
(1.02952e-05 -3.12065e-05 5.84788e-05)
(1.93637e-05 -5.21129e-05 6.5868e-05)
(-0.000292131 -0.000133158 0.000179434)
(-0.000402463 -0.000204247 0.000235168)
(-0.00172453 -0.000505006 0.000711293)
(-0.00329762 -0.000770906 0.00119576)
(8.91871e-05 2.37146e-06 2.88606e-06)
(5.18992e-05 -4.84627e-06 9.61149e-06)
(6.26237e-05 -4.20646e-06 1.02827e-05)
(-3.47286e-05 -2.98938e-05 3.79224e-05)
(-6.93225e-05 -3.57924e-05 4.62555e-05)
(-0.000357039 -0.000106453 0.000132571)
(-0.000597019 -0.000144591 0.000193703)
(-0.00157229 -0.000393834 0.000518718)
(-0.00279885 -0.000655515 0.000845186)
(5.75399e-05 -5.58068e-06 -4.49164e-06)
(1.7659e-05 -1.01227e-05 5.09986e-06)
(1.36359e-05 -1.06096e-05 6.53837e-06)
(-7.21987e-05 -2.63851e-05 3.3069e-05)
(-0.000118758 -3.37326e-05 3.60467e-05)
(-0.000364339 -7.975e-05 0.000118918)
(-0.000576731 -0.000111086 0.000160998)
(-0.00142161 -0.000268072 0.000484482)
(-0.00251073 -0.00042504 0.000769756)
(3.84481e-05 -1.12837e-05 -1.06419e-05)
(-8.52133e-06 -1.65337e-05 -5.17943e-06)
(-2.28247e-05 -1.84002e-05 -5.68556e-06)
(-0.000109494 -2.99942e-05 1.5486e-05)
(-0.000165244 -3.18682e-05 2.62771e-05)
(-0.000384076 -6.93358e-05 8.60144e-05)
)
;

boundaryField
{
    inlet
    {
        type            calculated;
        value           nonuniform 0();
    }
    outlet
    {
        type            calculated;
        value           nonuniform List<vector> 
12
(
(-0.00101851 -0.000140522 -0.000256592)
(-0.0023328 -0.000911521 -0.00133779)
(-0.00165022 -1.76124e-06 -0.000337668)
(-0.0071015 -0.0013846 0.00196337)
(-0.00338627 -0.00210779 0.00150569)
(-0.00280863 -0.00114189 0.00103853)
(-0.00470928 -0.000182805 0.00152329)
(-0.00486618 -0.00118359 0.00125941)
(-0.0022607 -0.000474858 0.00168413)
(-0.01231 -0.00277618 0.00529043)
(-0.00769716 -0.00226298 0.00179367)
(-0.00762964 -0.000621678 0.00277952)
)
;
    }
    wall
    {
        type            calculated;
        value           nonuniform List<vector> 
66
(
(0.000555479 4.0125e-05 -1.63618e-05)
(0.000362316 2.44581e-05 -3.92231e-05)
(0.000248744 -1.2504e-05 -6.76881e-05)
(0.000265616 -1.54107e-05 -5.69634e-05)
(0.000192938 2.42036e-05 7.95364e-05)
(2.25948e-05 -6.00665e-05 1.08028e-05)
(-4.63552e-05 -4.1491e-05 5.23325e-05)
(-7.82308e-05 -6.65474e-05 -3.03741e-06)
(0.000925767 3.97137e-05 -5.41767e-05)
(0.000622644 9.00919e-05 -0.000101445)
(0.000404994 2.98211e-05 -5.25422e-05)
(0.000323732 -2.49007e-05 -0.000112958)
(3.80233e-05 -8.63776e-05 0.000277754)
(-9.60567e-05 -0.000129147 8.74681e-05)
(-8.48892e-05 -5.21385e-05 0.00019265)
(-0.00016197 -0.000131454 5.96923e-05)
(0.00181045 6.89993e-05 -0.000173662)
(0.000945861 0.00020653 -0.000206676)
(0.000816927 9.60202e-05 -0.000209095)
(0.0006265 3.78487e-05 -6.56021e-05)
(-0.000451151 -0.000332899 0.000705225)
(-0.000538065 -0.000253471 0.000230367)
(-0.000281692 -0.000100189 0.000429844)
(-0.000234059 -0.000367936 0.000240648)
(0.00497201 0.000295402 -0.00082386)
(0.00147313 0.000626751 -0.000571758)
(0.002048 0.000299894 -0.000725987)
(-0.00209065 -0.00140711 0.00205202)
(-0.00130486 -0.0005277 0.000361452)
(-0.00103036 -0.000124947 0.00114974)
(-0.01231 -0.00277618 0.00529043)
(-0.00769716 -0.00226298 0.00179367)
(-0.00762964 -0.000621678 0.00277952)
(0.00026422 4.0797e-05 0.000113573)
(6.69609e-05 4.14735e-05 -1.85849e-05)
(0.000555479 4.0125e-05 -1.63618e-05)
(-9.10289e-05 -1.95835e-05 0.000125201)
(-0.000117505 4.45095e-05 1.3609e-05)
(0.000192938 2.42036e-05 7.95364e-05)
(0.000405694 9.10961e-05 8.88375e-05)
(0.000173471 4.98716e-05 1.26826e-06)
(0.000925767 3.97137e-05 -5.41767e-05)
(-0.00025565 -1.98828e-05 3.15546e-05)
(-0.000198459 -9.78377e-05 0.000184391)
(-0.000157215 2.95277e-05 6.36588e-05)
(3.80233e-05 -8.63776e-05 0.000277754)
(-0.000792372 -0.000102168 4.41464e-05)
(0.000609526 0.000152276 -0.000106021)
(0.000232815 4.89119e-05 -2.03896e-05)
(0.00181045 6.89993e-05 -0.000173662)
(-5.9249e-05 -1.96742e-05 4.39208e-05)
(-0.000354149 -0.000228026 0.000310796)
(-0.000342994 7.76026e-06 0.000176939)
(-0.000451151 -0.000332899 0.000705225)
(-0.0010144 -0.000108237 -2.03656e-05)
(0.00130667 0.000313282 -0.000346077)
(0.000279542 1.19374e-05 -0.000289229)
(0.00497201 0.000295402 -0.00082386)
(-0.00040306 5.16867e-05 -5.12247e-05)
(-0.000556061 -0.000763079 0.000830896)
(-0.0007291 2.12018e-05 0.000573419)
(-0.00209065 -0.00140711 0.00205202)
(-0.00101851 -0.000140522 -0.000256592)
(-0.0071015 -0.0013846 0.00196337)
(-0.00470928 -0.000182805 0.00152329)
(-0.01231 -0.00277618 0.00529043)
)
;
    }
    procBoundary5to1
    {
        type            processor;
        value           nonuniform List<vector> 
32
(
(-9.80557e-05 -1.63732e-05 -4.33836e-05)
(-0.000175336 -3.66681e-05 -4.17239e-05)
(-0.000480655 -9.19145e-05 -0.000135468)
(-0.000815387 -0.000148725 -0.000179739)
(-0.00161409 -0.00027717 -0.000474155)
(-0.00262547 -0.00037951 -0.000796729)
(1.71142e-05 5.36961e-06 -1.9265e-06)
(-9.85057e-05 -2.31609e-05 -3.6552e-05)
(-0.000188052 -3.00878e-05 -4.82599e-05)
(-0.000471113 -9.56214e-05 -0.000140731)
(-0.000797528 -0.000124992 -0.000207053)
(-0.00152877 -0.000339247 -0.000514843)
(-0.00245803 -0.000540566 -0.000817699)
(1.17535e-05 3.17841e-06 3.50915e-06)
(-2.64756e-05 -1.35308e-06 -6.32451e-06)
(-0.000119864 -1.85341e-05 -3.14358e-05)
(-0.000242524 -3.09155e-05 -5.73092e-05)
(-0.000476765 -7.15601e-05 -0.000145283)
(-0.000828697 -0.000102879 -0.000239374)
(-0.00135386 -0.000259731 -0.000519389)
(-0.00203573 -0.000369603 -0.000774213)
(2.63788e-05 2.75264e-05 1.90375e-05)
(-2.5811e-05 1.71412e-05 9.47792e-06)
(-7.57059e-05 7.62423e-06 6.80647e-06)
(-7.57059e-05 7.62423e-06 6.80647e-06)
(-7.57059e-05 7.62423e-06 6.80647e-06)
(2.84329e-05 1.95425e-05 1.49512e-05)
(-1.26981e-05 1.02705e-05 8.37195e-06)
(-1.26981e-05 1.02705e-05 8.37195e-06)
(-1.26981e-05 1.02705e-05 8.37195e-06)
(1.39281e-05 8.77358e-06 1.07888e-05)
(1.39281e-05 8.77358e-06 1.07888e-05)
)
;
    }
    procBoundary5to4
    {
        type            processor;
        value           nonuniform List<vector> 
12
(
(5.22215e-05 1.47495e-05 2.4192e-05)
(3.69906e-05 1.20948e-05 1.47095e-05)
(2.69889e-05 6.25811e-06 7.90375e-06)
(2.18251e-05 -1.85258e-06 4.96918e-06)
(6.29648e-05 1.17203e-05 1.34705e-05)
(4.9049e-05 6.03991e-06 8.41022e-06)
(3.49655e-05 5.02395e-07 2.56765e-06)
(2.64199e-05 -5.61066e-06 -1.68153e-06)
(0.000107569 5.75274e-06 1.43051e-05)
(8.35389e-05 -2.31612e-06 6.02669e-06)
(5.9252e-05 -7.83885e-06 3.19559e-07)
(4.38298e-05 -1.30026e-05 -5.47954e-06)
)
;
    }
    procBoundary5to7
    {
        type            processor;
        value           nonuniform List<vector> 
44
(
(-1.99327e-05 -2.32804e-06 2.32433e-06)
(-6.67748e-05 -5.83329e-06 -1.95496e-06)
(-0.000145544 -1.07283e-05 -1.31808e-05)
(-0.000273757 -1.29563e-05 -2.78244e-05)
(-0.000468545 -1.77021e-05 -7.09128e-05)
(-0.000798267 -2.92774e-05 -0.000121332)
(-0.00114783 -8.40354e-06 -0.00024635)
(-0.00163912 7.38284e-06 -0.000358714)
(1.61873e-05 1.52722e-06 8.9002e-06)
(-1.99327e-05 -2.32804e-06 2.32433e-06)
(-6.64858e-05 -8.03952e-06 3.8362e-06)
(-0.000139316 -1.17001e-05 1.19694e-07)
(-0.000255627 -1.49144e-05 -1.55477e-07)
(-0.000439659 -2.53631e-05 -1.83171e-06)
(-0.000746878 -3.04762e-05 4.43282e-06)
(-0.00110277 -7.04615e-05 4.88364e-05)
(-0.00162984 -0.000107905 9.57689e-05)
(7.90131e-06 -8.818e-06 7.05056e-07)
(-6.64858e-05 -8.03952e-06 3.8362e-06)
(-2.67153e-05 -8.49162e-06 -2.15472e-06)
(-6.64858e-05 -8.03952e-06 3.8362e-06)
(-0.000139316 -1.17001e-05 1.19694e-07)
(-0.0002217 -2.43966e-05 2.17052e-05)
(-0.000412882 -4.16761e-05 6.17769e-05)
(-0.000708424 -6.41507e-05 0.000100777)
(-0.00117179 -0.000106842 0.000321399)
(-0.00184055 -0.000165579 0.000458645)
(5.82941e-06 -1.18977e-05 -7.26682e-06)
(-2.95566e-05 -1.26661e-05 -6.42239e-06)
(-6.64122e-05 -1.51212e-05 -4.58632e-06)
(-0.0002217 -2.43966e-05 2.17052e-05)
(-0.000137625 -1.28966e-05 -7.62134e-07)
(-0.0002217 -2.43966e-05 2.17052e-05)
(-0.000412882 -4.16761e-05 6.17769e-05)
(-0.000598222 -6.94109e-05 0.000139218)
(-0.00130768 -0.000208157 0.000369833)
(-0.00227405 -0.000373178 0.000551913)
(1.07553e-05 -1.49506e-05 -1.88172e-05)
(-3.43409e-05 -1.82832e-05 -1.37101e-05)
(-6.88381e-05 -1.96512e-05 -1.26544e-05)
(-0.000145739 -2.27679e-05 -2.10747e-06)
(-0.000240861 -2.25272e-05 -1.01925e-06)
(-0.000598222 -6.94109e-05 0.000139218)
(-0.000428467 -2.86242e-05 3.35422e-05)
)
;
    }
}


// ************************************************************************* //
