/*--------------------------------*- C++ -*----------------------------------*\
| =========                 |                                                 |
| \\      /  F ield         | OpenFOAM: The Open Source CFD Toolbox           |
|  \\    /   O peration     | Version:  4.x                                   |
|   \\  /    A nd           | Web:      www.OpenFOAM.org                      |
|    \\/     M anipulation  |                                                 |
\*---------------------------------------------------------------------------*/
FoamFile
{
    version     2.0;
    format      ascii;
    class       volScalarField;
    location    "53";
    object      magGField;
}
// * * * * * * * * * * * * * * * * * * * * * * * * * * * * * * * * * * * * * //

dimensions      [1 -2 -1 0 0 0 0];

internalField   nonuniform List<scalar> 
114
(
90.8953
8.37339
78.0669
2.93709e-05
55.2903
5.30022
1.18116
89.6009
1.7937
86.3947
5.3599
76.0533
25.1481
79.3335
3.50033e-05
77.9037
3.35773e-05
75.1994
3.30956e-05
64.8687
20.1618
45.4507
106.482
43.8635
110.373
40.132
115.617
34.0042
127.358
37.4185
10.806
92.697
5.17219
93.726
3.86142
93.4714
11.9185
89.6506
45.7537
3.50238e-05
87.174
3.7834e-05
87.3622
1.72928
88.8781
9.02185
84.6348
23.1221
3.42706e-05
84.455
42.0533
101.21
39.5316
103.228
36.3455
105.486
28.7498
107.206
20.8669
21.6451
94.6947
18.0194
97.1349
14.6367
99.7194
14.2599
103.898
27.9585
3.52444
88.2712
3.49771e-05
86.3905
3.40764e-05
81.9223
6.71386
74.312
38.2612
6.27876
89.9315
3.95346
91.7076
66.3441
117.154
69.1084
124.999
69.325
140.032
64.7324
173.824
55.5776
52.7473
109.01
53.7198
114.821
51.793
122.782
44.6269
135.232
30.7811
43.8687
102.465
42.717
106.106
42.1214
113.295
40.1359
131.766
37.0799
43.4007
103.032
41.8811
106.226
38.8375
112.189
)
;

boundaryField
{
    inlet
    {
        type            calculated;
        value           nonuniform 0();
    }
    outlet
    {
        type            calculated;
        value           nonuniform List<scalar> 
12
(
11.6308
55.2906
44.4935
82.1603
101.019
51.126
45.9393
61.6391
85.3407
122.103
67.8258
82.2612
)
;
    }
    wall
    {
        type            calculated;
        value           uniform 0;
    }
    procBoundary5to1
    {
        type            processor;
        value           nonuniform List<scalar> 
32
(
116.517
45.3516
121.25
37.3921
126.724
34.2315
28.2151
108.069
27.9104
113.522
29.6764
121.83
40.9626
91.0553
4.40734
91.5549
6.45171
91.5654
15.242
87.6296
39.1716
37.1871
98.3563
25.0266
25.0266
25.0266
5.78527
89.7282
89.7282
89.7282
3.12749e-05
3.12749e-05
)
;
    }
    procBoundary5to4
    {
        type            processor;
        value           nonuniform List<scalar> 
12
(
102.818
91.8195
87.6351
84.9241
100.095
93.1803
88.3493
88.7144
111.313
104.984
99.9855
100.351
)
;
    }
    procBoundary5to7
    {
        type            processor;
        value           nonuniform List<scalar> 
44
(
88.7624
4.32914
88.5846
1.38456
86.357
0.555225
75.5366
12.3628
5.54546
88.7624
3.45565e-05
83.8339
3.15974e-05
82.2862
2.9285e-05
73.7078
17.6127
3.31173e-05
3.45565e-05
81.4616
3.45565e-05
83.8339
6.89053
93.0524
14.2335
88.625
43.8925
1.2554
86.4261
3.44814e-05
6.89053
85.8176
6.89053
93.0524
37.1318
127.065
36.9559
35.6183
96.5563
31.4636
95.5512
26.8264
37.1318
94.056
)
;
    }
}


// ************************************************************************* //
