/*--------------------------------*- C++ -*----------------------------------*\
| =========                 |                                                 |
| \\      /  F ield         | OpenFOAM: The Open Source CFD Toolbox           |
|  \\    /   O peration     | Version:  4.x                                   |
|   \\  /    A nd           | Web:      www.OpenFOAM.org                      |
|    \\/     M anipulation  |                                                 |
\*---------------------------------------------------------------------------*/
FoamFile
{
    version     2.0;
    format      ascii;
    class       volScalarField;
    location    "53";
    object      QWallFluid;
}
// * * * * * * * * * * * * * * * * * * * * * * * * * * * * * * * * * * * * * //

dimensions      [1 -1 -3 0 0 0 0];

internalField   nonuniform List<scalar> 
114
(
7.90045e+08
1.17257e+08
6.99507e+08
5071.69
5.30808e+08
8.13305e+07
0
0
0
0
0
0
0
0
0
0
0
0
0
0
0
4.53786e+08
8.96688e+08
4.41064e+08
9.228e+08
4.10782e+08
9.57713e+08
3.59786e+08
1.03476e+09
3.88408e+08
0
0
0
0
0
0
0
0
0
0
0
0
0
0
0
0
0
0
0
0
4.26441e+08
8.60987e+08
4.05858e+08
8.74693e+08
3.79471e+08
8.8997e+08
3.14577e+08
9.01561e+08
2.43436e+08
0
0
0
0
0
0
0
0
0
0
0
0
0
0
0
0
0
0
0
0
0
0
1.22826e+09
1.93577e+09
1.26903e+09
2.0388e+09
1.27221e+09
2.2327e+09
1.20433e+09
2.65421e+09
1.06603e+09
5.11186e+08
9.13677e+08
5.18712e+08
9.52433e+08
5.03773e+08
1.00491e+09
4.47194e+08
1.08563e+09
3.32235e+08
4.41106e+08
8.69517e+08
4.31817e+08
8.94152e+08
4.26993e+08
9.42298e+08
4.10814e+08
1.06331e+09
3.85593e+08
4.37337e+08
8.73369e+08
4.25043e+08
8.9496e+08
4.00147e+08
9.34932e+08
)
;

boundaryField
{
    inlet
    {
        type            calculated;
        value           nonuniform 0();
    }
    outlet
    {
        type            calculated;
        value           uniform 0;
    }
    wall
    {
        type            calculated;
        value           uniform 0;
    }
    procBoundary5to1
    {
        type            processor;
        value           nonuniform List<scalar> 
32
(
9.63676e+08
4.52994e+08
9.94867e+08
3.88188e+08
1.03064e+09
3.61709e+08
0
0
0
0
0
0
0
0
0
0
0
0
0
0
0
3.86484e+08
8.41512e+08
2.8154e+08
2.8154e+08
2.8154e+08
0
0
0
0
0
0
)
;
    }
    procBoundary5to4
    {
        type            processor;
        value           nonuniform List<scalar> 
12
(
8.71916e+08
0
0
0
8.53393e+08
0
0
0
1.85817e+09
8.86579e+08
8.52645e+08
8.55135e+08
)
;
    }
    procBoundary5to7
    {
        type            processor;
        value           nonuniform List<scalar> 
44
(
0
0
0
0
0
0
0
0
0
0
0
0
0
0
0
0
0
0
0
0
0
0
0
0
0
0
0
0
0
0
0
0
0
0
3.86025e+08
1.03285e+09
3.84561e+08
3.73386e+08
8.29169e+08
3.38116e+08
8.22257e+08
2.97624e+08
3.86025e+08
8.11947e+08
)
;
    }
}


// ************************************************************************* //
