/*--------------------------------*- C++ -*----------------------------------*\
| =========                 |                                                 |
| \\      /  F ield         | OpenFOAM: The Open Source CFD Toolbox           |
|  \\    /   O peration     | Version:  4.x                                   |
|   \\  /    A nd           | Web:      www.OpenFOAM.org                      |
|    \\/     M anipulation  |                                                 |
\*---------------------------------------------------------------------------*/
FoamFile
{
    version     2.0;
    format      ascii;
    class       volScalarField;
    location    "51.5";
    object      p_rgh;
}
// * * * * * * * * * * * * * * * * * * * * * * * * * * * * * * * * * * * * * //

dimensions      [1 -1 -2 0 0 0 0];

internalField   nonuniform List<scalar> 
132
(
20.7684
74.8387
1.94933
68.3695
-16.8271
62.492
-35.5433
57.6699
-51.7646
20.9873
74.8839
2.20426
68.0843
-16.1386
61.0759
-33.8739
54.6446
-49.2762
19.1555
74.7046
-0.59952
68.3352
-20.9606
62.987
-42.5278
60.243
-64.903
19.7257
74.7817
0.141643
68.4852
-20.0238
63.083
-41.3295
59.8787
-63.6711
3.58783
68.2783
-14.6437
62.443
-32.614
56.6422
-49.1193
22.9939
75.0173
5.02596
68.515
-13.0316
62.2449
-31.2161
55.691
-49.1515
21.1367
74.911
2.82478
68.319
-14.9699
62.0342
-32.1784
55.836
-46.499
21.2844
75.5213
2.90857
68.9459
-15.1962
62.0253
-32.2858
55.5381
-46.7294
-17.7246
61.9382
-36.9139
57.0796
-54.8949
21.4414
74.9249
2.9478
68.1302
-15.3227
61.0841
-33.2962
54.447
-49.4038
20.6632
74.7843
1.41563
68.146
-18.7467
62.3876
-40.8294
59.0928
-66.129
20.8746
74.8594
1.98667
68.3925
-17.596
62.5888
-38.5482
58.7312
-74.6263
-39.5184
58.8644
-66.4191
21.3965
75.0398
2.83309
68.4388
-15.9783
62.217
-34.3396
56.4328
-54.7768
20.9301
74.9251
2.22215
68.5185
-17.0173
62.7737
-36.4848
58.4194
-64.4783
21.2791
75.0385
2.6935
68.5865
-16.056
62.3855
-34.5701
56.8498
-54.4449
)
;

boundaryField
{
    inlet
    {
        type            fixedFluxPressure;
        gradient        nonuniform 0();
        value           nonuniform 0();
    }
    outlet
    {
        type            fixedValue;
        value           uniform 0;
    }
    wall
    {
        type            fixedFluxPressure;
        gradient        nonuniform List<scalar> 
66
(
1.48412e-06
1.108e-07
-2.13455e-07
-2.09653e-07
5.6267e-08
-1.36982e-07
-5.66843e-07
-1.58136e-06
-5.70423e-08
-6.71903e-09
4.82085e-08
4.99805e-07
2.05119e-06
1.66384e-06
5.43355e-07
-3.63781e-08
-8.51392e-08
1.51382e-06
1.74313e-06
5.78448e-06
-2.12201e-07
1.07555e-06
1.34333e-06
2.82343e-06
2.14685e-06
1.85026e-06
1.55603e-05
3.03449e-05
-7.57251e-06
7.84924e-06
-9.71169e-07
-2.86802e-06
-5.50419e-07
-4.50081e-07
-6.6048e-07
-5.24834e-07
2.72204e-07
2.63475e-07
2.11306e-06
1.66505e-05
9.31938e-07
7.78451e-07
1.21676e-06
1.39764e-06
1.17528e-06
8.74076e-07
1.88638e-06
0.000154053
3.50912e-06
-7.84663e-05
6.44597e-07
4.55005e-06
1.96459e-06
1.6079e-06
1.03531e-06
4.83671
3.81684e-06
1.91359e-06
6.67793e-07
-4.07525e-07
3.29053e-07
2.26309e-06
1.75335e-06
5.57885e-06
4.68089e-06
4.70489e-05
)
;
        value           nonuniform List<scalar> 
66
(
21.3965
20.9301
21.2791
75.0398
74.9251
75.0385
2.83309
2.22215
2.6935
68.4388
68.5185
68.5865
-15.9783
-17.0173
-16.056
62.217
62.7737
62.3855
-39.5184
-34.3396
-36.4848
-34.5701
58.8644
56.4328
58.4194
56.8498
-66.4191
-54.7768
-64.4783
-54.4449
19.7257
21.2844
20.8746
21.2791
74.7817
75.5213
74.8594
75.0385
0.141643
2.90857
1.98667
2.6935
68.4852
68.9459
68.3925
68.5865
-20.0238
-15.1962
-17.596
-16.056
63.083
62.0253
62.5888
62.3855
-41.3295
-32.2167
-38.5482
-34.5701
59.8787
55.5381
58.7312
56.8498
-63.6711
-46.7294
-74.6263
-54.4449
)
;
    }
    procBoundary7to0
    {
        type            processor;
        value           uniform 81.9899;
    }
    procBoundary7to1
    {
        type            processor;
        value           uniform 22.5702;
    }
    procBoundary7to3
    {
        type            processor;
        value           nonuniform List<scalar> 
36
(
19.2674
74.751
-0.123255
68.2976
-19.6993
62.9244
-38.9225
58.8359
-55.7764
21.4243
74.9191
3.32298
68.6546
-14.5131
62.858
-32.3329
56.74
-48.1974
19.9464
74.9114
0.775761
68.2247
-18.4162
62.247
-37.9056
57.7648
-55.0039
20.1474
75.0932
1.18463
68.8424
-18.3934
63.0902
-39.0054
58.7035
-61.1814
)
;
    }
    procBoundary7to5
    {
        type            processor;
        value           nonuniform List<scalar> 
44
(
75.1253
4.98193
68.4344
-12.3897
61.6684
-29.2473
53.732
-44.4148
21.5785
74.8046
2.94201
68.2826
-15.7577
62.2019
-34.5438
57.2369
-52.3374
21.5785
74.8046
74.8046
1.58568
68.0369
-16.0767
61.2934
-33.9807
54.4307
-49.8641
20.6155
74.8941
1.58568
68.0369
68.0369
-18.4852
62.6709
-39.3153
58.5655
-67.7504
20.5149
74.8412
1.41008
68.4108
-18.4852
62.6709
62.6709
)
;
    }
    procBoundary7to6
    {
        type            processor;
        value           nonuniform List<scalar> 
12
(
82.1317
81.6056
81.6329
81.8897
82.0982
82.2449
82.2396
81.856
81.7698
81.9419
81.7882
81.8285
)
;
    }
}


// ************************************************************************* //
