/*--------------------------------*- C++ -*----------------------------------*\
| =========                 |                                                 |
| \\      /  F ield         | OpenFOAM: The Open Source CFD Toolbox           |
|  \\    /   O peration     | Version:  4.x                                   |
|   \\  /    A nd           | Web:      www.OpenFOAM.org                      |
|    \\/     M anipulation  |                                                 |
\*---------------------------------------------------------------------------*/
FoamFile
{
    version     2.0;
    format      ascii;
    class       volScalarField;
    location    "51.5";
    object      QWallFluidCoeff;
}
// * * * * * * * * * * * * * * * * * * * * * * * * * * * * * * * * * * * * * //

dimensions      [1 -1 -3 -1 0 0 0];

internalField   nonuniform List<scalar> 
132
(
0
0
0
0
0
0
0
0
0
0
0
0
0
0
0
0
0
0
0
0
0
0
0
0
0
0
0
-1.65934e+06
-3.05305e+06
-1.6236e+06
-3.13109e+06
-1.53156e+06
-3.20527e+06
-1.30548e+06
-3.35226e+06
-1.15093e+06
0
0
0
0
0
0
0
0
0
0
0
0
0
0
0
0
0
0
0
0
0
0
0
0
0
-972018
-2.64444e+06
-573391
-2.53742e+06
-79467.5
-2.33532e+06
-17.0797
-1.91433e+06
-400927
0
0
0
0
0
0
0
0
0
0
0
0
0
0
0
0
0
0
0
0
0
0
0
-1.64892e+06
-2.95715e+06
-1.60926e+06
-3.02034e+06
-1.53458e+06
-3.18136e+06
-1.36606e+06
-3.54907e+06
-1.15072e+06
-1.27963e+06
-3.43402e+06
-1.27293e+06
-1.25394e+06
-2.76933e+06
-1.14308e+06
-2.75091e+06
-1.01597e+06
-2.72611e+06
-805273
-2.62799e+06
-559588
-1.57996e+06
-2.91985e+06
-1.51697e+06
-2.94283e+06
-1.37896e+06
-2.97984e+06
-1.16046e+06
-3.06375e+06
-789855
-3.84892e+06
-6.10338e+06
-3.75211e+06
-6.09101e+06
-3.56514e+06
-5.9824e+06
-3.38237e+06
-5.6232e+06
-3.56976e+06
)
;

boundaryField
{
    inlet
    {
        type            calculated;
        value           nonuniform 0();
    }
    outlet
    {
        type            calculated;
        value           uniform 0;
    }
    wall
    {
        type            calculated;
        value           uniform 0;
    }
    procBoundary7to0
    {
        type            processor;
        value           uniform 0;
    }
    procBoundary7to1
    {
        type            processor;
        value           uniform 0;
    }
    procBoundary7to3
    {
        type            processor;
        value           uniform 0;
    }
    procBoundary7to5
    {
        type            processor;
        value           uniform 0;
    }
    procBoundary7to6
    {
        type            processor;
        value           uniform 0;
    }
}


// ************************************************************************* //
