/*--------------------------------*- C++ -*----------------------------------*\
| =========                 |                                                 |
| \\      /  F ield         | OpenFOAM: The Open Source CFD Toolbox           |
|  \\    /   O peration     | Version:  4.x                                   |
|   \\  /    A nd           | Web:      www.OpenFOAM.org                      |
|    \\/     M anipulation  |                                                 |
\*---------------------------------------------------------------------------*/
FoamFile
{
    version     2.0;
    format      ascii;
    class       volScalarField;
    location    "51.5";
    object      QWallFluid;
}
// * * * * * * * * * * * * * * * * * * * * * * * * * * * * * * * * * * * * * //

dimensions      [1 -1 -3 0 0 0 0];

internalField   nonuniform List<scalar> 
132
(
0
0
0
0
0
0
0
0
0
0
0
0
0
0
0
0
0
0
0
0
0
0
0
0
0
0
0
4.97801e+08
9.15916e+08
4.87081e+08
9.39327e+08
4.59467e+08
9.6158e+08
3.91645e+08
1.00568e+09
3.45279e+08
0
0
0
0
0
0
0
0
0
0
0
0
0
0
0
0
0
0
0
0
0
0
0
0
0
2.91606e+08
7.93331e+08
1.72017e+08
7.61225e+08
2.38403e+07
7.00597e+08
5123.9
5.743e+08
1.20278e+08
0
0
0
0
0
0
0
0
0
0
0
0
0
0
0
0
0
0
0
0
0
0
0
4.94677e+08
8.87146e+08
4.82778e+08
9.06102e+08
4.60375e+08
9.54407e+08
4.09818e+08
1.06472e+09
3.45216e+08
3.83889e+08
1.03021e+09
3.8188e+08
3.76182e+08
8.30798e+08
3.42924e+08
8.25274e+08
3.0479e+08
8.17833e+08
2.41582e+08
7.88397e+08
1.67876e+08
4.73987e+08
8.75954e+08
4.5509e+08
8.82848e+08
4.13689e+08
8.93952e+08
3.48138e+08
9.19126e+08
2.36957e+08
1.15468e+09
1.83101e+09
1.12563e+09
1.8273e+09
1.06954e+09
1.79472e+09
1.01471e+09
1.68696e+09
1.07093e+09
)
;

boundaryField
{
    inlet
    {
        type            calculated;
        value           nonuniform 0();
    }
    outlet
    {
        type            calculated;
        value           uniform 0;
    }
    wall
    {
        type            calculated;
        value           uniform 0;
    }
    procBoundary7to0
    {
        type            processor;
        value           uniform 0;
    }
    procBoundary7to1
    {
        type            processor;
        value           uniform 0;
    }
    procBoundary7to3
    {
        type            processor;
        value           nonuniform List<scalar> 
36
(
0
0
0
0
0
0
0
0
0
0
0
0
0
0
0
0
0
0
0
0
0
0
0
0
0
0
0
4.38171e+08
8.86846e+08
4.08452e+08
8.93356e+08
3.58543e+08
9.15143e+08
3.04455e+08
1.01306e+09
2.98732e+08
)
;
    }
    procBoundary7to5
    {
        type            processor;
        value           nonuniform List<scalar> 
44
(
0
0
0
0
0
0
0
0
0
0
0
0
0
0
0
0
0
0
0
0
0
0
0
0
0
0
0
0
0
0
0
0
3.98011e+08
9.32965e+08
4.13139e+08
1.06734e+09
3.90434e+08
4.35858e+08
8.72437e+08
4.23235e+08
8.93589e+08
3.98011e+08
9.32965e+08
9.32965e+08
)
;
    }
    procBoundary7to6
    {
        type            processor;
        value           nonuniform List<scalar> 
12
(
0
0
8.94419e+08
0
0
8.12797e+08
0
0
8.74113e+08
8.30368e+08
8.63108e+08
1.82451e+09
)
;
    }
}


// ************************************************************************* //
