/*--------------------------------*- C++ -*----------------------------------*\
| =========                 |                                                 |
| \\      /  F ield         | OpenFOAM: The Open Source CFD Toolbox           |
|  \\    /   O peration     | Version:  4.x                                   |
|   \\  /    A nd           | Web:      www.OpenFOAM.org                      |
|    \\/     M anipulation  |                                                 |
\*---------------------------------------------------------------------------*/
FoamFile
{
    version     2.0;
    format      ascii;
    class       volScalarField;
    location    "1";
    object      Cs;
}
// * * * * * * * * * * * * * * * * * * * * * * * * * * * * * * * * * * * * * //

dimensions      [1 -3 0 0 0 0 0];

internalField   nonuniform List<scalar> 
87
(
335.082
335.047
335.099
334.905
334.923
334.954
334.936
334.9
334.892
334.9
334.926
334.992
335.038
335.084
335.117
334.944
334.906
334.893
334.902
334.938
334.98
335.028
335.063
335.075
334.943
334.906
334.888
334.885
334.892
334.905
334.925
334.945
334.974
334.941
334.906
334.898
334.904
334.935
334.987
335.034
335.081
335.102
334.948
334.913
334.904
334.908
334.933
334.975
335.024
335.071
335.114
334.947
334.914
334.903
334.901
334.905
334.913
334.928
334.946
334.967
334.935
334.906
334.897
334.894
334.897
334.909
334.927
334.951
334.976
334.942
334.909
334.9
334.899
334.903
334.913
334.928
334.947
334.966
334.944
334.908
334.899
334.898
334.9
334.903
334.91
334.919
334.931
)
;

boundaryField
{
    inlet
    {
        type            calculated;
        value           uniform 335;
    }
    outlet
    {
        type            calculated;
        value           nonuniform 0();
    }
    wall
    {
        type            calculated;
        value           nonuniform List<scalar> 
57
(
334.935
334.942
334.944
334.906
334.909
334.908
334.897
334.9
334.899
334.894
334.899
334.898
334.897
334.903
334.9
334.909
334.913
334.903
334.927
334.928
334.91
334.951
334.947
334.919
334.976
334.966
334.931
334.943
334.947
334.944
334.906
334.914
334.908
334.888
334.903
334.899
334.885
334.901
334.898
334.892
334.905
334.9
334.905
334.913
334.903
334.905
334.925
334.928
334.91
334.923
334.945
334.946
334.919
334.954
334.974
334.967
334.931
)
;
    }
    procBoundary6to0
    {
        type            processor;
        value           uniform 335.104;
    }
    procBoundary6to2
    {
        type            processor;
        value           nonuniform List<scalar> 
32
(
335.105
335.031
335.087
334.868
334.88
334.92
334.926
334.899
334.869
334.889
334.925
334.956
335.028
335.081
335.081
335.081
334.925
334.882
334.859
334.878
334.915
334.951
335.004
335.004
335.004
334.922
334.871
334.842
334.844
334.859
334.881
334.881
)
;
    }
    procBoundary6to4
    {
        type            processor;
        value           nonuniform List<scalar> 
27
(
334.936
334.888
334.882
334.897
334.925
334.966
335.014
335.065
335.095
334.943
334.907
334.899
334.901
334.923
334.965
334.998
335.044
335.082
334.936
334.902
334.893
334.893
334.899
334.913
334.93
334.947
334.968
)
;
    }
    procBoundary6to7
    {
        type            processor;
        value           nonuniform List<scalar> 
12
(
335.104
335.098
334.98
335.161
335.105
335.002
335.131
335.097
334.987
335.001
334.981
334.942
)
;
    }
}


// ************************************************************************* //
