/*--------------------------------*- C++ -*----------------------------------*\
| =========                 |                                                 |
| \\      /  F ield         | OpenFOAM: The Open Source CFD Toolbox           |
|  \\    /   O peration     | Version:  4.x                                   |
|   \\  /    A nd           | Web:      www.OpenFOAM.org                      |
|    \\/     M anipulation  |                                                 |
\*---------------------------------------------------------------------------*/
FoamFile
{
    version     2.0;
    format      ascii;
    class       volScalarField;
    location    "1";
    object      Deff;
}
// * * * * * * * * * * * * * * * * * * * * * * * * * * * * * * * * * * * * * //

dimensions      [0 2 -1 0 0 0 0];

internalField   nonuniform List<scalar> 
87
(
9.8171e-08
9.82435e-08
9.81945e-08
9.83904e-08
9.83906e-08
9.83839e-08
9.83471e-08
9.83645e-08
9.8373e-08
9.81811e-08
9.80369e-08
9.8106e-08
9.79757e-08
9.80257e-08
9.79456e-08
9.86102e-08
9.84269e-08
9.83865e-08
9.82041e-08
9.80775e-08
9.80628e-08
9.80342e-08
9.80016e-08
9.79969e-08
9.87949e-08
9.85606e-08
9.85421e-08
9.83756e-08
9.80951e-08
9.80454e-08
9.81623e-08
9.81524e-08
9.8111e-08
9.83992e-08
9.83313e-08
9.82376e-08
9.81216e-08
9.81165e-08
9.80552e-08
9.79706e-08
9.80077e-08
9.79097e-08
9.86152e-08
9.84338e-08
9.83324e-08
9.81929e-08
9.81381e-08
9.81332e-08
9.80367e-08
9.80845e-08
9.79526e-08
9.87756e-08
9.85533e-08
9.84674e-08
9.8239e-08
9.8134e-08
9.81415e-08
9.81577e-08
9.81796e-08
9.81481e-08
9.86129e-08
9.85017e-08
9.83387e-08
9.81546e-08
9.8075e-08
9.80186e-08
9.79163e-08
9.79528e-08
9.81072e-08
9.86803e-08
9.85661e-08
9.83729e-08
9.82601e-08
9.80656e-08
9.81261e-08
9.80989e-08
9.81976e-08
9.80669e-08
9.88533e-08
9.86154e-08
9.846e-08
9.83056e-08
9.82474e-08
9.80915e-08
9.82681e-08
9.82948e-08
9.81872e-08
)
;

boundaryField
{
    inlet
    {
        type            calculated;
        value           uniform 0;
    }
    outlet
    {
        type            calculated;
        value           nonuniform 0();
    }
    wall
    {
        type            calculated;
        value           uniform 0;
    }
    procBoundary6to0
    {
        type            processor;
        value           uniform 0;
    }
    procBoundary6to2
    {
        type            processor;
        value           uniform 0;
    }
    procBoundary6to4
    {
        type            processor;
        value           uniform 0;
    }
    procBoundary6to7
    {
        type            processor;
        value           uniform 0;
    }
}


// ************************************************************************* //
