/*--------------------------------*- C++ -*----------------------------------*\
| =========                 |                                                 |
| \\      /  F ield         | OpenFOAM: The Open Source CFD Toolbox           |
|  \\    /   O peration     | Version:  4.x                                   |
|   \\  /    A nd           | Web:      www.OpenFOAM.org                      |
|    \\/     M anipulation  |                                                 |
\*---------------------------------------------------------------------------*/
FoamFile
{
    version     2.0;
    format      ascii;
    class       volScalarField;
    location    "1";
    object      partTemp;
}
// * * * * * * * * * * * * * * * * * * * * * * * * * * * * * * * * * * * * * //

dimensions      [0 0 0 1 0 0 0];

internalField   nonuniform List<scalar> 
87
(
300.002
299.997
300.001
299.995
299.998
300
299.993
299.987
299.983
299.983
299.985
299.988
299.992
299.995
300
299.992
299.988
299.985
299.985
299.987
299.989
299.993
299.995
299.997
299.994
299.989
299.988
299.987
299.989
299.991
299.993
299.995
299.998
299.993
299.986
299.984
299.984
299.986
299.988
299.991
299.994
299.998
299.993
299.988
299.985
299.985
299.987
299.989
299.992
299.994
299.997
299.994
299.989
299.987
299.987
299.989
299.991
299.993
299.995
299.997
299.993
299.987
299.985
299.985
299.987
299.99
299.992
299.995
299.996
299.993
299.989
299.986
299.987
299.988
299.991
299.992
299.995
299.997
299.995
299.989
299.988
299.988
299.99
299.992
299.994
299.996
299.997
)
;

boundaryField
{
    inlet
    {
        type            zeroGradient;
    }
    outlet
    {
        type            zeroGradient;
    }
    wall
    {
        type            zeroGradient;
    }
    procBoundary6to0
    {
        type            processor;
        value           uniform 300.006;
    }
    procBoundary6to2
    {
        type            processor;
        value           nonuniform List<scalar> 
32
(
300.005
300
300.004
299.996
299.999
300.002
299.994
299.987
299.985
299.984
299.986
299.99
299.995
299.999
299.999
299.999
299.995
299.989
299.987
299.986
299.988
299.991
299.994
299.994
299.994
299.996
299.991
299.989
299.989
299.99
299.992
299.992
)
;
    }
    procBoundary6to4
    {
        type            processor;
        value           nonuniform List<scalar> 
27
(
299.994
299.987
299.983
299.982
299.985
299.988
299.993
299.997
300.002
299.993
299.987
299.983
299.983
299.985
299.988
299.992
299.995
299.999
299.992
299.987
299.985
299.985
299.986
299.989
299.993
299.995
299.997
)
;
    }
    procBoundary6to7
    {
        type            processor;
        value           nonuniform List<scalar> 
12
(
300.007
300.003
300.003
300.005
300.002
300
300.001
300
299.999
299.999
299.998
299.999
)
;
    }
}


// ************************************************************************* //
