/*--------------------------------*- C++ -*----------------------------------*\
| =========                 |                                                 |
| \\      /  F ield         | OpenFOAM: The Open Source CFD Toolbox           |
|  \\    /   O peration     | Version:  4.x                                   |
|   \\  /    A nd           | Web:      www.OpenFOAM.org                      |
|    \\/     M anipulation  |                                                 |
\*---------------------------------------------------------------------------*/
FoamFile
{
    version     2.0;
    format      ascii;
    class       volScalarField;
    location    "1";
    object      Qsource;
}
// * * * * * * * * * * * * * * * * * * * * * * * * * * * * * * * * * * * * * //

dimensions      [1 -1 -3 0 0 0 0];

internalField   nonuniform List<scalar> 
87
(
6.32751e+09
6.83506e+09
8.97223e+09
8.09895e+09
9.16261e+09
9.00981e+09
9.70785e+09
8.69168e+09
5.43316e+09
6.87248e+09
8.93104e+09
4.44356e+09
7.39431e+09
5.29474e+09
7.3598e+09
6.28741e+09
9.325e+09
8.01718e+09
8.90204e+09
9.7909e+09
8.31021e+09
8.40148e+09
9.22923e+09
9.32782e+09
5.59105e+09
8.63396e+09
7.09204e+09
7.26532e+09
1.26122e+10
1.29848e+10
1.02286e+10
9.6398e+09
1.30898e+10
7.64853e+09
9.37147e+09
9.87466e+09
8.34763e+09
6.41308e+09
6.85493e+09
7.26658e+09
5.54219e+09
8.87292e+09
5.40689e+09
9.13385e+09
9.0683e+09
8.38213e+09
8.27896e+09
6.59034e+09
9.59283e+09
7.07924e+09
1.02749e+10
5.6962e+09
7.457e+09
7.62741e+09
9.82485e+09
1.07332e+10
8.85791e+09
1.07472e+10
9.99098e+09
1.09523e+10
5.4892e+09
6.45909e+09
8.94375e+09
8.90037e+09
9.21978e+09
8.52544e+09
1.31959e+10
1.12761e+10
6.79171e+09
6.09898e+09
6.62786e+09
9.11023e+09
7.81958e+09
1.20394e+10
8.34906e+09
1.02239e+10
7.22269e+09
1.08261e+10
5.91811e+09
7.05996e+09
8.88302e+09
8.37313e+09
8.42296e+09
1.25825e+10
1.02719e+10
1.10296e+10
1.35509e+10
)
;

boundaryField
{
    inlet
    {
        type            calculated;
        value           uniform 0;
    }
    outlet
    {
        type            calculated;
        value           nonuniform 0();
    }
    wall
    {
        type            calculated;
        value           uniform 0;
    }
    procBoundary6to0
    {
        type            processor;
        value           uniform 2.19084e+09;
    }
    procBoundary6to2
    {
        type            processor;
        value           nonuniform List<scalar> 
32
(
4.63826e+09
8.50915e+09
1.10484e+10
1.2233e+10
7.42014e+09
1.0431e+10
4.65469e+09
8.85126e+09
9.16831e+09
6.20779e+09
6.34801e+09
6.99233e+09
5.89351e+09
6.01014e+09
6.01014e+09
6.01014e+09
5.77926e+09
7.96777e+09
9.90942e+09
7.49609e+09
8.83818e+09
6.90411e+09
1.08893e+10
1.08893e+10
1.08893e+10
5.18492e+09
7.28253e+09
9.23356e+09
9.40975e+09
9.15776e+09
9.1411e+09
9.1411e+09
)
;
    }
    procBoundary6to4
    {
        type            processor;
        value           nonuniform List<scalar> 
27
(
3.42266e+09
6.70801e+09
8.97123e+09
5.3777e+09
7.10809e+09
6.01394e+09
9.52827e+09
5.09226e+09
5.85719e+09
6.30426e+09
8.91739e+09
7.82269e+09
1.02845e+10
1.06853e+10
7.6443e+09
1.09613e+10
8.78287e+09
7.91494e+09
8.48647e+09
8.01326e+09
8.36527e+09
1.06841e+10
1.13108e+10
1.27641e+10
7.38177e+09
7.30151e+09
1.07683e+10
)
;
    }
    procBoundary6to7
    {
        type            processor;
        value           nonuniform List<scalar> 
12
(
6.41772e+09
6.59306e+09
8.7979e+09
3.34264e+09
6.44934e+09
9.92332e+09
8.34712e+09
9.45253e+09
1.037e+10
9.92719e+09
1.21188e+10
1.42056e+10
)
;
    }
}


// ************************************************************************* //
