/*--------------------------------*- C++ -*----------------------------------*\
| =========                 |                                                 |
| \\      /  F ield         | OpenFOAM: The Open Source CFD Toolbox           |
|  \\    /   O peration     | Version:  4.x                                   |
|   \\  /    A nd           | Web:      www.OpenFOAM.org                      |
|    \\/     M anipulation  |                                                 |
\*---------------------------------------------------------------------------*/
FoamFile
{
    version     2.0;
    format      ascii;
    class       volVectorField;
    location    "1";
    object      UsNext;
}
// * * * * * * * * * * * * * * * * * * * * * * * * * * * * * * * * * * * * * //

dimensions      [0 1 -1 0 0 0 0];

internalField   nonuniform List<vector> 
87
(
(-7.70735e-05 -9.7891e-06 -3.51543e-06)
(-6.90971e-05 -1.49774e-05 6.90783e-06)
(-6.66124e-05 -6.71495e-06 5.12453e-06)
(-4.03074e-05 -5.05143e-06 8.65871e-06)
(-5.21167e-05 -7.01892e-06 1.02396e-05)
(-4.5518e-05 -1.76726e-06 1.03302e-05)
(-6.91778e-06 1.26375e-07 1.04298e-06)
(-1.636e-05 6.45898e-06 1.53602e-06)
(-3.24563e-05 6.57359e-06 3.32274e-06)
(-4.09214e-05 1.52458e-06 -7.18961e-08)
(-5.66006e-05 -4.40505e-06 -5.8051e-06)
(-7.02827e-05 -6.76482e-06 3.44129e-06)
(-7.35055e-05 -9.40032e-06 2.35541e-06)
(-7.20772e-05 -1.09282e-05 1.16853e-06)
(-7.55587e-05 -7.67856e-06 -2.41608e-06)
(-1.01221e-05 -1.55257e-06 1.96775e-06)
(-1.59998e-05 4.10079e-06 1.81941e-06)
(-3.06882e-05 6.19334e-06 -4.81434e-07)
(-3.82581e-05 1.26863e-06 -9.66622e-07)
(-4.67236e-05 -2.23304e-06 -2.64626e-06)
(-6.17959e-05 -4.33108e-06 3.43892e-06)
(-6.47769e-05 -7.77418e-06 5.21666e-06)
(-5.88791e-05 -1.28138e-05 4.39045e-06)
(-6.53651e-05 -7.63021e-06 2.30833e-06)
(-3.41503e-06 -7.45477e-09 -7.74939e-08)
(-1.13315e-05 5.11934e-06 1.3727e-06)
(-1.19473e-05 1.62181e-06 4.77673e-06)
(-2.133e-05 1.04826e-06 9.57461e-07)
(-2.86554e-05 4.818e-07 -7.93081e-07)
(-4.44223e-05 -4.0434e-07 -1.75141e-07)
(-4.58136e-05 -6.62549e-06 9.9342e-06)
(-4.29037e-05 -4.07636e-06 8.30665e-06)
(-4.07213e-05 -2.65377e-06 -3.64911e-06)
(-1.54202e-06 -1.56953e-07 1.05807e-06)
(-1.26977e-05 2.78824e-06 5.50371e-06)
(-2.84428e-05 6.15089e-06 5.11675e-06)
(-3.01399e-05 2.66284e-06 -2.46687e-07)
(-3.78868e-05 -1.24183e-07 -6.74306e-06)
(-5.2773e-05 -2.31389e-06 4.06067e-08)
(-5.92346e-05 -4.93205e-06 2.33587e-06)
(-5.89391e-05 -6.82576e-06 2.71998e-06)
(-5.86502e-05 -8.06358e-06 -1.78674e-06)
(-4.56648e-06 -8.97617e-07 9.75437e-07)
(-1.35188e-05 5.71579e-06 2.07086e-06)
(-2.17582e-05 7.17745e-06 -1.17549e-06)
(-2.79741e-05 2.19017e-06 -1.42902e-06)
(-3.62115e-05 -2.31814e-07 -2.65502e-06)
(-5.53583e-05 3.34434e-07 2.9463e-06)
(-5.47222e-05 -4.95667e-06 2.49094e-06)
(-5.17976e-05 -7.59411e-06 -2.24063e-06)
(-5.63483e-05 -8.29757e-06 4.85741e-06)
(-2.26086e-06 -3.57033e-07 9.01088e-07)
(-9.1547e-06 2.71659e-06 2.18548e-06)
(-8.46134e-06 3.671e-06 2.68542e-06)
(-1.04654e-05 2.91599e-06 1.5879e-06)
(-2.50794e-05 1.45326e-07 -1.11118e-06)
(-3.27044e-05 -4.66426e-08 9.32407e-07)
(-3.54608e-05 -1.3227e-06 2.01207e-06)
(-3.19725e-05 -1.06418e-06 2.79051e-06)
(-4.45762e-05 -3.44466e-06 6.58037e-06)
(-1.17613e-06 -2.43049e-07 2.58356e-07)
(-2.97596e-06 4.7047e-06 1.03609e-06)
(-1.64656e-05 7.76077e-07 2.535e-06)
(-2.18393e-05 -2.1357e-07 4.799e-07)
(-3.03299e-05 1.03255e-06 -2.5113e-06)
(-3.91091e-05 -4.91326e-06 2.24046e-06)
(-4.11254e-05 -2.05197e-06 1.92207e-06)
(-3.68898e-05 1.20288e-06 -2.19683e-07)
(-4.79688e-05 -6.43923e-06 -6.51604e-06)
(-7.15704e-06 -3.38202e-06 6.24152e-07)
(-3.86618e-06 2.16203e-06 1.59493e-06)
(-4.5792e-06 5.70082e-06 1.74337e-06)
(-1.98288e-05 -1.77521e-06 1.49253e-06)
(-3.32273e-05 -2.56763e-07 2.07258e-07)
(-3.99552e-05 -1.59255e-06 3.54185e-06)
(-4.11323e-05 -4.4537e-06 -1.02664e-06)
(-4.06203e-05 -3.69078e-06 -6.0126e-07)
(-4.62647e-05 -1.36936e-05 4.03826e-06)
(-1.52932e-05 -6.82222e-06 2.48428e-07)
(-4.52074e-06 2.74697e-07 2.07395e-06)
(-4.53737e-06 3.06826e-06 1.08257e-06)
(-1.14757e-05 -9.60793e-07 2.10976e-06)
(-1.6087e-05 -2.83193e-06 3.56627e-08)
(-2.25609e-05 -7.62419e-07 5.04088e-07)
(-2.82383e-05 -1.6779e-06 9.543e-07)
(-2.46649e-05 -2.72525e-06 -4.43646e-06)
(-2.75247e-05 -5.08622e-06 2.35923e-06)
)
;

boundaryField
{
    inlet
    {
        type            calculated;
        value           nonuniform List<vector> 9((-6.91778e-06 1.26375e-07 1.04298e-06) (-1.01221e-05 -1.55257e-06 1.96775e-06) (-3.41503e-06 -7.45477e-09 -7.74939e-08) (-1.54202e-06 -1.56953e-07 1.05807e-06) (-4.56648e-06 -8.97617e-07 9.75437e-07) (-2.26086e-06 -3.57033e-07 9.01088e-07) (-1.17613e-06 -2.43049e-07 2.58356e-07) (-7.15704e-06 -3.38202e-06 6.24152e-07) (-1.52932e-05 -6.82222e-06 2.48428e-07));
    }
    outlet
    {
        type            calculated;
        value           nonuniform 0();
    }
    wall
    {
        type            calculated;
        value           nonuniform List<vector> 
57
(
(-1.17613e-06 -2.43049e-07 2.58356e-07)
(-7.15704e-06 -3.38202e-06 6.24152e-07)
(-1.52932e-05 -6.82222e-06 2.48428e-07)
(-2.97596e-06 4.7047e-06 1.03609e-06)
(-3.86618e-06 2.16203e-06 1.59493e-06)
(-4.52074e-06 2.74697e-07 2.07395e-06)
(-1.64656e-05 7.76077e-07 2.535e-06)
(-4.5792e-06 5.70082e-06 1.74337e-06)
(-4.53737e-06 3.06826e-06 1.08257e-06)
(-2.18393e-05 -2.1357e-07 4.799e-07)
(-1.98288e-05 -1.77521e-06 1.49253e-06)
(-1.14757e-05 -9.60793e-07 2.10976e-06)
(-3.03299e-05 1.03255e-06 -2.5113e-06)
(-3.32273e-05 -2.56763e-07 2.07258e-07)
(-1.6087e-05 -2.83193e-06 3.56627e-08)
(-3.91091e-05 -4.91326e-06 2.24046e-06)
(-3.99552e-05 -1.59255e-06 3.54185e-06)
(-2.25609e-05 -7.62419e-07 5.04088e-07)
(-4.11254e-05 -2.05197e-06 1.92207e-06)
(-4.11323e-05 -4.4537e-06 -1.02664e-06)
(-2.82383e-05 -1.6779e-06 9.543e-07)
(-3.68898e-05 1.20288e-06 -2.19683e-07)
(-4.06203e-05 -3.69078e-06 -6.0126e-07)
(-2.46649e-05 -2.72525e-06 -4.43646e-06)
(-4.79688e-05 -6.43923e-06 -6.51604e-06)
(-4.62647e-05 -1.36936e-05 4.03826e-06)
(-2.75247e-05 -5.08622e-06 2.35923e-06)
(-3.41503e-06 -7.45477e-09 -7.74939e-08)
(-2.26086e-06 -3.57033e-07 9.01088e-07)
(-1.52932e-05 -6.82222e-06 2.48428e-07)
(-1.13315e-05 5.11934e-06 1.3727e-06)
(-9.1547e-06 2.71659e-06 2.18548e-06)
(-4.52074e-06 2.74697e-07 2.07395e-06)
(-1.19473e-05 1.62181e-06 4.77673e-06)
(-8.46134e-06 3.671e-06 2.68542e-06)
(-4.53737e-06 3.06826e-06 1.08257e-06)
(-2.133e-05 1.04826e-06 9.57461e-07)
(-1.04654e-05 2.91599e-06 1.5879e-06)
(-1.14757e-05 -9.60793e-07 2.10976e-06)
(-2.86554e-05 4.818e-07 -7.93081e-07)
(-2.50794e-05 1.45326e-07 -1.11118e-06)
(-1.6087e-05 -2.83193e-06 3.56627e-08)
(-4.44223e-05 -4.0434e-07 -1.75141e-07)
(-3.27044e-05 -4.66426e-08 9.32407e-07)
(-2.25609e-05 -7.62419e-07 5.04088e-07)
(-4.03074e-05 -5.05143e-06 8.65871e-06)
(-4.58136e-05 -6.62549e-06 9.9342e-06)
(-3.54608e-05 -1.3227e-06 2.01207e-06)
(-2.82383e-05 -1.6779e-06 9.543e-07)
(-5.21167e-05 -7.01892e-06 1.02396e-05)
(-4.29037e-05 -4.07636e-06 8.30665e-06)
(-3.19725e-05 -1.06418e-06 2.79051e-06)
(-2.46649e-05 -2.72525e-06 -4.43646e-06)
(-4.5518e-05 -1.76726e-06 1.03302e-05)
(-4.07213e-05 -2.65377e-06 -3.64911e-06)
(-4.45762e-05 -3.44466e-06 6.58037e-06)
(-2.75247e-05 -5.08622e-06 2.35923e-06)
)
;
    }
    procBoundary6to0
    {
        type            processor;
        value           uniform (-7.81838e-05 -1.07861e-05 -7.79079e-06);
    }
    procBoundary6to2
    {
        type            processor;
        value           nonuniform List<vector> 
32
(
(-6.92076e-05 -1.153e-05 -8.61443e-06)
(-7.02259e-05 -1.10059e-05 2.67656e-06)
(-5.64469e-05 -1.33047e-05 1.88803e-06)
(-5.76977e-05 -6.16728e-06 7.12709e-06)
(-5.98424e-05 -8.88852e-06 7.5437e-06)
(-5.74244e-05 -8.37602e-06 8.49982e-06)
(-6.22708e-06 -5.93261e-07 2.15146e-07)
(-1.8796e-05 2.42902e-06 -1.43718e-07)
(-3.17461e-05 4.74624e-06 -3.24339e-06)
(-4.38914e-05 8.07656e-07 -2.74578e-06)
(-5.52081e-05 -5.16464e-06 -4.29477e-06)
(-6.73299e-05 -5.62654e-06 -1.37016e-06)
(-7.34059e-05 -6.44234e-06 3.05171e-07)
(-7.68606e-05 -8.18239e-06 -9.37727e-07)
(-7.68606e-05 -8.18239e-06 -9.37727e-07)
(-7.68606e-05 -8.18239e-06 -9.37727e-07)
(-4.07024e-06 -4.39656e-07 1.59203e-07)
(-2.06564e-05 2.90291e-06 1.59435e-06)
(-3.05828e-05 2.11442e-06 -1.60437e-06)
(-4.02093e-05 -6.24315e-07 -1.87628e-06)
(-5.19918e-05 -3.34794e-06 -1.87382e-06)
(-5.81338e-05 -5.961e-06 1.29771e-06)
(-6.92379e-05 -9.92959e-06 5.0463e-06)
(-6.92379e-05 -9.92959e-06 5.0463e-06)
(-6.92379e-05 -9.92959e-06 5.0463e-06)
(-2.78625e-06 1.24486e-06 6.59976e-07)
(-7.90443e-06 3.18112e-06 1.42555e-06)
(-1.89136e-05 2.47054e-08 1.05e-06)
(-2.24413e-05 8.35861e-07 -7.38225e-07)
(-3.77709e-05 -9.21267e-07 -8.48905e-07)
(-4.25822e-05 1.96451e-07 1.23725e-06)
(-4.25822e-05 1.96451e-07 1.23725e-06)
)
;
    }
    procBoundary6to4
    {
        type            processor;
        value           nonuniform List<vector> 
27
(
(-4.43688e-06 -4.6338e-07 -2.17842e-08)
(-1.45128e-05 -2.21023e-07 1.38814e-07)
(-3.08115e-05 9.13779e-06 9.83012e-08)
(-4.40511e-05 6.96874e-06 1.58138e-06)
(-5.66265e-05 -1.45842e-06 -6.64702e-06)
(-7.46334e-05 -5.22101e-06 -2.37143e-06)
(-7.64285e-05 7.99311e-07 -1.62256e-06)
(-7.5376e-05 -7.19401e-06 5.97392e-07)
(-8.03901e-05 -5.9912e-06 -5.15786e-06)
(-1.3958e-06 -1.54367e-06 3.49793e-07)
(-8.34155e-06 -3.76211e-06 2.59796e-06)
(-2.74027e-05 4.85725e-06 7.73284e-06)
(-3.5046e-05 4.7085e-06 2.96348e-06)
(-4.24528e-05 -2.71365e-06 -2.19394e-06)
(-6.65966e-05 -1.40833e-05 -3.50185e-06)
(-5.77438e-05 -1.23943e-06 1.45651e-06)
(-5.64118e-05 -1.43893e-06 -2.97375e-06)
(-5.94919e-05 -6.47605e-06 -6.59782e-06)
(-3.98318e-06 -7.29011e-07 1.84157e-06)
(-7.26892e-06 -3.29896e-06 2.53647e-06)
(-1.44268e-05 -4.03392e-06 3.37681e-06)
(-1.97039e-05 2.18932e-06 2.06975e-06)
(-2.85556e-05 2.45368e-06 1.8049e-06)
(-3.80538e-05 -6.38746e-06 -5.62595e-07)
(-3.03676e-05 9.69197e-07 1.47962e-06)
(-0.000156856 6.56558e-05 -1.64409e-06)
(-6.04931e-05 2.41574e-06 -3.1218e-06)
)
;
    }
    procBoundary6to7
    {
        type            processor;
        value           nonuniform List<vector> 
12
(
(-7.16831e-05 -3.9119e-06 -3.27941e-06)
(-5.97645e-05 -5.21245e-06 3.56172e-06)
(-5.20531e-05 -2.09128e-05 7.77767e-06)
(-7.28987e-05 -1.11185e-05 -4.51217e-06)
(-6.56593e-05 -9.9563e-06 -3.00358e-06)
(-6.14228e-05 -3.52348e-05 3.44281e-06)
(-6.74269e-05 -4.64696e-06 -1.61542e-06)
(-5.43058e-05 -6.63864e-06 -3.4411e-06)
(-2.21742e-05 -2.18242e-06 -2.12202e-06)
(-4.57073e-05 -6.42003e-06 7.0522e-07)
(-3.83469e-05 -5.95788e-06 -3.27663e-06)
(-1.54014e-05 -1.58841e-08 -5.71892e-07)
)
;
    }
}


// ************************************************************************* //
