/*--------------------------------*- C++ -*----------------------------------*\
| =========                 |                                                 |
| \\      /  F ield         | OpenFOAM: The Open Source CFD Toolbox           |
|  \\    /   O peration     | Version:  4.x                                   |
|   \\  /    A nd           | Web:      www.OpenFOAM.org                      |
|    \\/     M anipulation  |                                                 |
\*---------------------------------------------------------------------------*/
FoamFile
{
    version     2.0;
    format      ascii;
    class       volScalarField;
    location    "24";
    object      pSmooth;
}
// * * * * * * * * * * * * * * * * * * * * * * * * * * * * * * * * * * * * * //

dimensions      [1 -1 -2 0 0 0 0];

internalField   nonuniform List<scalar> 
87
(
79.7013
40.5031
79.5454
86.7989
40.3465
79.3044
111.652
93.7945
103.933
76.8073
95.899
59.2961
87.8031
41.94
79.639
111.236
93.7654
103.647
76.6271
95.7477
59.0827
87.85
41.5401
80.0423
110.548
93.3962
103.019
76.4105
95.2578
58.8738
87.3436
41.3878
79.7412
111.349
93.7163
103.526
76.5865
95.5099
59.2193
87.5782
41.6387
79.886
110.996
93.6716
103.304
76.5683
95.3738
59.1447
87.5018
41.5669
79.7623
110.362
93.3094
102.768
76.3447
94.9183
58.8662
87.0964
41.2916
79.4865
110.991
93.6331
103.318
76.5935
95.376
59.225
87.4838
41.5993
79.7892
110.715
93.5748
103.11
76.5893
95.2405
59.1142
87.3806
41.7178
79.7238
110.216
93.3371
102.681
76.3721
94.9041
59.0029
87.0686
41.6217
79.5455
)
;

boundaryField
{
    inlet
    {
        type            zeroGradient;
    }
    outlet
    {
        type            fixedValue;
        value           nonuniform 0();
    }
    wall
    {
        type            zeroGradient;
    }
    procBoundary6to0
    {
        type            processor;
        value           uniform 79.9274;
    }
    procBoundary6to2
    {
        type            processor;
        value           nonuniform List<scalar> 
32
(
79.8402
40.5372
79.9145
86.9418
40.459
79.4801
110.788
93.3779
103.085
75.9747
95.1456
58.3353
87.2931
40.5116
40.5116
40.5116
110.594
93.3048
102.985
75.9689
95.0997
58.3732
87.2144
87.2144
87.2144
109.918
92.9253
102.381
75.7038
94.5673
58.1308
58.1308
)
;
    }
    procBoundary6to4
    {
        type            processor;
        value           nonuniform List<scalar> 
27
(
111.563
94.1305
103.983
76.9225
96.0093
59.4541
87.9507
41.8583
80.0034
111.553
93.9948
103.872
76.8977
95.8196
59.3336
87.7902
41.6981
79.9166
111.281
93.7522
103.533
76.7209
95.4966
59.1253
87.447
41.7048
79.7779
)
;
    }
    procBoundary6to7
    {
        type            processor;
        value           nonuniform List<scalar> 
12
(
22.7099
22.5761
22.302
24.8083
24.0594
23.8508
23.9792
23.8775
23.5433
24.29
24.2441
24.1181
)
;
    }
}


// ************************************************************************* //
