/*--------------------------------*- C++ -*----------------------------------*\
| =========                 |                                                 |
| \\      /  F ield         | OpenFOAM: The Open Source CFD Toolbox           |
|  \\    /   O peration     | Version:  4.x                                   |
|   \\  /    A nd           | Web:      www.OpenFOAM.org                      |
|    \\/     M anipulation  |                                                 |
\*---------------------------------------------------------------------------*/
FoamFile
{
    version     2.0;
    format      ascii;
    class       volScalarField;
    location    "24";
    object      Qsource;
}
// * * * * * * * * * * * * * * * * * * * * * * * * * * * * * * * * * * * * * //

dimensions      [1 -1 -3 0 0 0 0];

internalField   nonuniform List<scalar> 
87
(
8.10574e+09
6.76548e+09
8.86724e+09
6.51403e+09
6.74344e+09
6.46335e+09
9.93165e+09
8.98627e+09
6.07853e+09
8.1087e+09
1.10832e+10
6.22181e+09
8.69139e+09
6.65789e+09
9.87559e+09
6.27382e+09
9.26534e+09
8.14083e+09
1.02737e+10
8.8147e+09
8.80887e+09
8.7029e+09
9.30396e+09
9.31777e+09
5.44957e+09
8.06673e+09
6.73633e+09
6.62283e+09
9.45534e+09
9.95479e+09
8.13295e+09
6.81138e+09
9.53107e+09
7.31285e+09
9.04724e+09
9.62693e+09
8.71753e+09
6.6383e+09
7.95205e+09
7.87053e+09
6.20861e+09
9.45735e+09
5.34926e+09
8.88132e+09
8.79385e+09
8.07476e+09
7.87977e+09
6.57867e+09
9.94968e+09
6.61531e+09
9.87566e+09
5.58549e+09
7.16999e+09
6.97429e+09
8.35508e+09
9.0113e+09
6.70849e+09
8.43316e+09
6.96993e+09
7.70436e+09
5.67885e+09
5.88688e+09
8.18004e+09
7.47212e+09
7.9109e+09
6.92387e+09
1.09801e+10
9.08606e+09
5.27385e+09
5.98018e+09
6.32078e+09
8.39146e+09
6.6816e+09
1.04316e+10
7.21016e+09
7.98415e+09
6.58445e+09
9.24252e+09
5.82848e+09
7.1357e+09
8.39573e+09
7.43061e+09
6.95011e+09
9.66216e+09
7.35632e+09
6.90966e+09
8.95042e+09
)
;

boundaryField
{
    inlet
    {
        type            calculated;
        value           uniform 0;
    }
    outlet
    {
        type            calculated;
        value           nonuniform 0();
    }
    wall
    {
        type            calculated;
        value           uniform 0;
    }
    procBoundary6to0
    {
        type            processor;
        value           uniform 2.5922e+09;
    }
    procBoundary6to2
    {
        type            processor;
        value           nonuniform List<scalar> 
32
(
5.74656e+09
8.52064e+09
1.02052e+10
1.04908e+10
5.90053e+09
8.56295e+09
4.87386e+09
9.54264e+09
1.02914e+10
7.36901e+09
8.25651e+09
6.41513e+09
7.59814e+09
7.92735e+09
7.92735e+09
7.92735e+09
5.84959e+09
7.95497e+09
1.04859e+10
6.64519e+09
9.06632e+09
7.71936e+09
1.02743e+10
1.02743e+10
1.02743e+10
5.04187e+09
6.78674e+09
8.28938e+09
7.75559e+09
7.54537e+09
7.02313e+09
7.02313e+09
)
;
    }
    procBoundary6to4
    {
        type            processor;
        value           nonuniform List<scalar> 
27
(
3.45724e+09
6.75339e+09
9.36106e+09
5.74698e+09
8.77531e+09
6.73906e+09
1.09375e+10
6.00463e+09
6.9856e+09
6.17943e+09
8.59601e+09
7.49116e+09
9.65637e+09
1.04177e+10
7.56095e+09
1.16632e+10
8.3577e+09
7.99556e+09
7.99582e+09
7.45649e+09
7.43712e+09
8.36997e+09
9.12186e+09
9.85373e+09
5.68818e+09
5.49947e+09
7.75767e+09
)
;
    }
    procBoundary6to7
    {
        type            processor;
        value           nonuniform List<scalar> 
12
(
7.80565e+09
5.28724e+09
7.62579e+09
3.82998e+09
6.02492e+09
7.21017e+09
8.61844e+09
8.21428e+09
6.62908e+09
7.60523e+09
6.82066e+09
7.39047e+09
)
;
    }
}


// ************************************************************************* //
