/*--------------------------------*- C++ -*----------------------------------*\
| =========                 |                                                 |
| \\      /  F ield         | OpenFOAM: The Open Source CFD Toolbox           |
|  \\    /   O peration     | Version:  4.x                                   |
|   \\  /    A nd           | Web:      www.OpenFOAM.org                      |
|    \\/     M anipulation  |                                                 |
\*---------------------------------------------------------------------------*/
FoamFile
{
    version     2.0;
    format      ascii;
    class       volScalarField;
    location    "24";
    object      QWallFluid;
}
// * * * * * * * * * * * * * * * * * * * * * * * * * * * * * * * * * * * * * //

dimensions      [1 -1 -3 0 0 0 0];

internalField   nonuniform List<scalar> 
87
(
0
0
0
8.55398e+08
5.0947e+08
8.76486e+08
0
0
0
0
0
0
0
0
0
0
0
0
0
0
0
0
0
0
8.06795e+08
4.32014e+08
8.10486e+08
4.40922e+08
8.06752e+08
4.31521e+08
8.06967e+08
4.27232e+08
8.05057e+08
0
0
0
0
0
0
0
0
0
0
0
0
0
0
0
0
0
0
8.04028e+08
4.53712e+08
8.21161e+08
4.82437e+08
8.29872e+08
4.99361e+08
8.42633e+08
5.11071e+08
8.57575e+08
7.9556e+08
4.32165e+08
7.96352e+08
4.26693e+08
7.94917e+08
4.17618e+08
7.91736e+08
3.9764e+08
7.97045e+08
8.0045e+08
4.51472e+08
8.12155e+08
4.73623e+08
8.18819e+08
4.84655e+08
8.25585e+08
4.85554e+08
8.27651e+08
1.61636e+09
9.53275e+08
1.67283e+09
1.06678e+09
1.73162e+09
1.15031e+09
1.77566e+09
1.21093e+09
1.79942e+09
)
;

boundaryField
{
    inlet
    {
        type            calculated;
        value           uniform 0;
    }
    outlet
    {
        type            calculated;
        value           nonuniform 0();
    }
    wall
    {
        type            calculated;
        value           uniform 0;
    }
    procBoundary6to0
    {
        type            processor;
        value           uniform 0;
    }
    procBoundary6to2
    {
        type            processor;
        value           nonuniform List<scalar> 
32
(
0
0
0
8.52008e+08
4.99692e+08
8.66244e+08
0
0
0
0
0
0
0
0
0
0
0
0
0
0
0
0
0
0
0
8.07416e+08
4.42344e+08
8.21475e+08
4.66751e+08
8.37051e+08
4.88473e+08
4.88473e+08
)
;
    }
    procBoundary6to4
    {
        type            processor;
        value           nonuniform List<scalar> 
27
(
0
0
0
0
0
0
0
0
0
0
0
0
0
0
0
0
0
0
7.87478e+08
4.12339e+08
7.86097e+08
3.96922e+08
7.84502e+08
3.92927e+08
7.91821e+08
4.02667e+08
7.96088e+08
)
;
    }
    procBoundary6to7
    {
        type            processor;
        value           nonuniform List<scalar> 
12
(
0
0
5.20505e+08
0
0
4.01683e+08
0
0
5.22225e+08
3.71092e+08
4.79627e+08
1.22843e+09
)
;
    }
}


// ************************************************************************* //
