/*--------------------------------*- C++ -*----------------------------------*\
| =========                 |                                                 |
| \\      /  F ield         | OpenFOAM: The Open Source CFD Toolbox           |
|  \\    /   O peration     | Version:  4.x                                   |
|   \\  /    A nd           | Web:      www.OpenFOAM.org                      |
|    \\/     M anipulation  |                                                 |
\*---------------------------------------------------------------------------*/
FoamFile
{
    version     2.0;
    format      ascii;
    class       volVectorField;
    location    "24";
    object      Us;
}
// * * * * * * * * * * * * * * * * * * * * * * * * * * * * * * * * * * * * * //

dimensions      [0 1 -1 0 0 0 0];

internalField   nonuniform List<vector> 
87
(
(8.10996e-10 1.96495e-09 1.68719e-09)
(1.04841e-09 1.49915e-09 1.75814e-09)
(1.74516e-09 1.3699e-09 1.20059e-09)
(2.34948e-10 5.01199e-10 1.30701e-09)
(6.40545e-10 7.50648e-10 1.27724e-09)
(8.47484e-10 2.76037e-10 9.38398e-10)
(-2.80267e-10 3.59498e-10 6.89044e-10)
(-5.36867e-10 6.74242e-10 1.29966e-09)
(-8.55927e-10 8.6591e-10 1.86185e-09)
(-8.27667e-10 1.07579e-09 2.18101e-09)
(-1.62799e-09 1.12647e-09 2.46208e-09)
(-3.71746e-10 1.35451e-09 2.64361e-09)
(-2.13966e-10 1.39824e-09 2.53255e-09)
(1.09895e-09 1.77355e-09 1.85531e-09)
(1.97626e-09 1.6137e-09 7.34085e-10)
(-3.40055e-10 4.29164e-10 5.5821e-10)
(-2.63244e-10 6.62487e-10 1.09797e-09)
(-5.51282e-10 9.89205e-10 1.48268e-09)
(-2.85047e-10 9.62447e-10 1.73974e-09)
(-3.64933e-10 9.9266e-10 2.03347e-09)
(1.05635e-10 1.12889e-09 2.06248e-09)
(9.30528e-10 1.35241e-09 2.01132e-09)
(1.71874e-09 1.57047e-09 1.79771e-09)
(2.5335e-09 1.0376e-09 8.26481e-10)
(-5.40347e-11 8.10797e-11 2.46113e-10)
(7.29981e-10 6.9594e-10 8.86879e-10)
(-9.03977e-12 3.85765e-10 6.74374e-10)
(6.37481e-11 6.23296e-10 1.08767e-09)
(4.81535e-11 5.2944e-10 9.4418e-10)
(2.80644e-10 5.28515e-10 1.11538e-09)
(7.30732e-10 6.18691e-10 1.2306e-09)
(1.00115e-09 4.67098e-10 8.58846e-10)
(1.96189e-09 3.69673e-10 9.57955e-10)
(-9.40327e-11 3.18394e-10 4.05856e-10)
(-7.65166e-12 6.55775e-10 8.56672e-10)
(-4.79243e-11 7.97126e-10 1.33898e-09)
(4.21755e-11 7.37141e-10 1.42006e-09)
(2.6806e-10 7.27797e-10 1.64152e-09)
(8.77816e-10 1.18131e-09 1.82609e-09)
(1.52682e-09 1.55761e-09 1.76115e-09)
(1.92418e-09 1.71038e-09 1.34172e-09)
(2.39948e-09 1.61664e-09 6.303e-10)
(-8.43105e-11 3.62872e-10 4.46185e-10)
(1.53053e-10 4.13376e-10 7.25816e-10)
(1.43981e-10 7.33062e-10 1.14845e-09)
(3.82787e-10 7.8822e-10 1.45841e-09)
(7.45595e-10 6.32735e-10 9.87895e-10)
(1.31761e-09 9.25584e-10 1.42905e-09)
(1.73402e-09 1.29496e-09 1.53763e-09)
(3.5311e-09 2.09096e-11 1.26664e-09)
(3.20166e-09 1.54458e-09 2.14467e-10)
(1.60793e-10 8.99904e-11 -9.77249e-11)
(2.9118e-09 1.04169e-09 7.31421e-11)
(2.65646e-10 2.06255e-10 9.26316e-10)
(5.25227e-10 5.11826e-10 8.80762e-10)
(5.32269e-10 3.94684e-10 7.46759e-10)
(7.43259e-10 3.75709e-10 5.52377e-10)
(9.93595e-10 5.05671e-10 6.76856e-10)
(1.64568e-09 8.51141e-10 1.08961e-09)
(2.01969e-09 7.8785e-10 1.53601e-10)
(-3.39718e-12 2.56817e-10 2.08085e-10)
(2.60986e-10 3.05218e-10 3.56023e-10)
(3.42254e-10 4.96844e-10 7.69134e-10)
(5.98181e-10 4.8231e-10 6.39653e-10)
(5.21103e-10 4.26171e-10 6.95985e-10)
(1.05617e-09 5.90043e-10 7.49664e-10)
(1.92299e-09 1.13223e-09 1.03946e-09)
(2.68344e-09 1.18167e-09 5.31417e-10)
(3.18652e-09 1.53878e-09 8.83673e-10)
(-1.62102e-10 1.10824e-10 2.53676e-10)
(1.61285e-10 1.81225e-10 3.20212e-10)
(1.4086e-10 2.28726e-10 4.244e-10)
(8.91631e-10 4.70005e-10 4.47683e-10)
(8.20734e-10 4.27741e-10 3.95904e-10)
(1.15409e-09 4.61948e-10 5.1963e-10)
(1.59008e-09 8.88736e-10 8.85896e-10)
(4.9367e-09 -5.81322e-10 4.08461e-10)
(2.65992e-09 1.61945e-09 1.78959e-11)
(-5.08095e-10 -1.44188e-10 4.70334e-12)
(1.8375e-10 2.56722e-11 2.18195e-10)
(1.00671e-10 1.1505e-10 4.25553e-10)
(3.60798e-10 1.442e-10 2.16562e-10)
(4.97042e-10 3.02753e-10 4.70284e-10)
(7.80741e-10 2.22546e-10 3.51672e-10)
(8.12644e-10 3.4057e-10 4.33386e-10)
(1.00036e-09 3.63689e-10 4.02248e-10)
(1.30579e-09 6.75141e-10 1.97448e-11)
)
;

boundaryField
{
    inlet
    {
        type            zeroGradient;
    }
    outlet
    {
        type            zeroGradient;
    }
    wall
    {
        type            zeroGradient;
    }
    procBoundary6to0
    {
        type            processor;
        value           uniform (1.16279e-09 1.97374e-09 2.85086e-09);
    }
    procBoundary6to2
    {
        type            processor;
        value           nonuniform List<vector> 
32
(
(1.19836e-09 1.41388e-09 2.70705e-09)
(-4.81643e-11 1.15887e-09 2.2802e-09)
(1.14524e-09 9.93161e-10 1.60784e-09)
(-3.00646e-10 4.7584e-10 2.00582e-09)
(1.34538e-10 3.26958e-10 1.62519e-09)
(5.89757e-10 4.68417e-10 1.38891e-09)
(-1.91979e-10 2.15309e-10 6.57113e-10)
(-5.72903e-10 6.37906e-10 1.5079e-09)
(-1.25051e-09 9.52488e-10 2.19073e-09)
(-1.16523e-09 1.22004e-09 2.419e-09)
(-1.57446e-09 1.41305e-09 2.88828e-09)
(-1.30679e-09 1.40402e-09 3.11747e-09)
(-1.1187e-09 1.51698e-09 3.07774e-09)
(5.74981e-10 1.94939e-09 2.10603e-09)
(5.74981e-10 1.94939e-09 2.10603e-09)
(5.74981e-10 1.94939e-09 2.10603e-09)
(-1.57317e-10 1.97351e-10 4.67393e-10)
(-4.5368e-10 6.98949e-10 1.37522e-09)
(-6.10968e-10 9.40611e-10 1.66866e-09)
(-7.35022e-10 1.17286e-09 2.07452e-09)
(-1.01504e-09 1.1266e-09 2.44544e-09)
(-6.96146e-10 1.246e-09 2.64006e-09)
(-2.03138e-10 8.0348e-10 2.44515e-09)
(-2.03138e-10 8.0348e-10 2.44515e-09)
(-2.03138e-10 8.0348e-10 2.44515e-09)
(-1.7144e-11 5.48053e-11 3.43012e-10)
(-9.82215e-11 3.84177e-10 9.50543e-10)
(-3.59542e-10 7.04636e-10 1.3262e-09)
(-1.51058e-10 4.8509e-10 1.12578e-09)
(-4.82234e-10 5.49407e-10 1.51202e-09)
(1.60953e-10 4.85314e-10 1.26339e-09)
(1.60953e-10 4.85314e-10 1.26339e-09)
)
;
    }
    procBoundary6to4
    {
        type            processor;
        value           nonuniform List<vector> 
27
(
(-1.89266e-10 2.3602e-10 7.12715e-10)
(-4.31386e-10 3.9865e-10 1.28436e-09)
(-1.16181e-09 7.17124e-10 2.00888e-09)
(-1.27603e-09 6.96283e-10 2.13763e-09)
(-1.85833e-09 9.18448e-10 2.52977e-09)
(-1.62099e-09 1.52285e-09 3.0427e-09)
(-1.16601e-09 2.08796e-09 3.01995e-09)
(2.8517e-10 1.75567e-09 2.10392e-09)
(7.44165e-10 1.75938e-09 1.1749e-09)
(-3.14828e-11 2.2629e-10 5.32153e-10)
(-3.77358e-11 3.80142e-10 9.14539e-10)
(-3.68275e-10 6.79822e-10 1.52958e-09)
(-3.47276e-10 6.07065e-10 1.48225e-09)
(-5.0775e-10 6.59274e-10 1.8614e-09)
(-5.91622e-11 1.19347e-09 2.00091e-09)
(8.3097e-10 1.5901e-09 2.24517e-09)
(1.45445e-09 1.51809e-09 1.53076e-09)
(1.98708e-09 1.74547e-09 9.15298e-10)
(2.1161e-11 6.77321e-11 2.67037e-10)
(2.45709e-10 2.80659e-10 3.3478e-10)
(2.19677e-10 3.64408e-10 7.61814e-10)
(2.1238e-10 4.58534e-10 7.49491e-10)
(1.70813e-11 7.18657e-10 9.16064e-10)
(4.34058e-10 8.6332e-10 8.00702e-10)
(1.29448e-09 1.16125e-09 1.12475e-09)
(1.18608e-08 -4.73214e-09 6.25837e-10)
(2.71018e-09 1.17566e-09 3.72846e-10)
)
;
    }
    procBoundary6to7
    {
        type            processor;
        value           nonuniform List<vector> 
12
(
(2.52886e-09 1.96519e-09 -9.32673e-10)
(2.81916e-09 2.1563e-09 -1.45074e-10)
(2.28377e-09 5.60621e-10 3.13816e-10)
(3.09988e-09 1.88021e-09 -5.20397e-10)
(3.59475e-09 1.44061e-09 -1.17038e-10)
(3.08414e-09 1.6627e-10 -2.82265e-11)
(3.35231e-09 1.93368e-09 8.58228e-11)
(3.8057e-09 1.26571e-09 -2.07955e-10)
(3.07332e-09 4.41269e-10 -3.60535e-10)
(2.93315e-09 1.81283e-09 1.20901e-10)
(2.1673e-09 1.466e-09 -1.43485e-10)
(1.51289e-09 4.87003e-10 -6.94738e-11)
)
;
    }
}


// ************************************************************************* //
