/*--------------------------------*- C++ -*----------------------------------*\
| =========                 |                                                 |
| \\      /  F ield         | OpenFOAM: The Open Source CFD Toolbox           |
|  \\    /   O peration     | Version:  4.x                                   |
|   \\  /    A nd           | Web:      www.OpenFOAM.org                      |
|    \\/     M anipulation  |                                                 |
\*---------------------------------------------------------------------------*/
FoamFile
{
    version     2.0;
    format      ascii;
    class       volScalarField;
    location    "20.5";
    object      alpha.iron;
}
// * * * * * * * * * * * * * * * * * * * * * * * * * * * * * * * * * * * * * //

dimensions      [0 0 0 0 0 0 0];

internalField   nonuniform List<scalar> 
87
(
0.999955
0.999983
0.999966
0.999997
0.999995
0.999991
1
1
0.999999
0.999998
0.999997
0.999991
0.999978
0.999952
0.99992
1
1
0.999999
0.999998
0.999997
0.999994
0.999989
0.999978
0.99996
1
1
0.999999
0.999999
0.999998
0.999997
0.999996
0.999993
0.999988
1
1
1
0.999999
0.999998
0.999996
0.999992
0.999983
0.999968
1
1
1
0.999999
0.999998
0.999997
0.999995
0.999989
0.999979
1
1
1
0.999999
0.999999
0.999998
0.999997
0.999996
0.999992
1
1
1
0.999999
0.999999
0.999998
0.999996
0.999993
0.999987
1
1
1
0.999999
0.999999
0.999998
0.999997
0.999995
0.999991
1
1
1
0.999999
0.999999
0.999999
0.999998
0.999997
0.999995
)
;

boundaryField
{
    inlet
    {
        type            fixedValue;
        value           uniform 1;
    }
    outlet
    {
        type            fixedValue;
        value           nonuniform 0();
    }
    wall
    {
        type            zeroGradient;
    }
    procBoundary6to0
    {
        type            processor;
        value           uniform 0.99994;
    }
    procBoundary6to2
    {
        type            processor;
        value           nonuniform List<scalar> 
32
(
0.999936
0.999981
0.99995
0.999995
0.999994
0.999988
1
1
0.999999
0.999999
0.999998
0.999995
0.999989
0.999977
0.999977
0.999977
1
1
0.999999
0.999998
0.999997
0.999995
0.999991
0.999991
0.999991
1
1
0.999999
0.999999
0.999998
0.999997
0.999997
)
;
    }
    procBoundary6to4
    {
        type            processor;
        value           nonuniform List<scalar> 
27
(
1
1
1
0.999999
0.999998
0.999994
0.999986
0.99997
0.999945
1
1
1
0.999999
0.999998
0.999996
0.999991
0.99998
0.999962
1
1
1
0.999999
0.999999
0.999998
0.999996
0.999992
0.999985
)
;
    }
    procBoundary6to7
    {
        type            processor;
        value           nonuniform List<scalar> 
12
(
0.999924
0.999939
0.999983
0.999891
0.999935
0.999979
0.999948
0.999963
0.999987
0.999978
0.999985
0.999993
)
;
    }
}


// ************************************************************************* //
