/*--------------------------------*- C++ -*----------------------------------*\
| =========                 |                                                 |
| \\      /  F ield         | OpenFOAM: The Open Source CFD Toolbox           |
|  \\    /   O peration     | Version:  4.x                                   |
|   \\  /    A nd           | Web:      www.OpenFOAM.org                      |
|    \\/     M anipulation  |                                                 |
\*---------------------------------------------------------------------------*/
FoamFile
{
    version     2.0;
    format      ascii;
    class       volScalarField;
    location    "20.5";
    object      Cs;
}
// * * * * * * * * * * * * * * * * * * * * * * * * * * * * * * * * * * * * * //

dimensions      [1 -3 0 0 0 0 0];

internalField   nonuniform List<scalar> 
87
(
334.985
334.994
334.989
334.999
334.998
334.997
335
335
335
334.999
334.999
334.997
334.993
334.984
334.973
335
335
335
334.999
334.999
334.998
334.996
334.993
334.987
335
335
335
335
334.999
334.999
334.999
334.998
334.996
335
335
335
335
334.999
334.999
334.997
334.994
334.989
335
335
335
335
334.999
334.999
334.998
334.996
334.993
335
335
335
335
335
334.999
334.999
334.999
334.997
335
335
335
335
335
334.999
334.999
334.998
334.996
335
335
335
335
335
334.999
334.999
334.998
334.997
335
335
335
335
335
334.999
334.999
334.999
334.998
)
;

boundaryField
{
    inlet
    {
        type            calculated;
        value           uniform 335;
    }
    outlet
    {
        type            calculated;
        value           nonuniform 0();
    }
    wall
    {
        type            calculated;
        value           nonuniform List<scalar> 
57
(
335
335
335
335
335
335
335
335
335
335
335
335
335
335
335
334.999
334.999
334.999
334.999
334.999
334.999
334.998
334.998
334.999
334.996
334.997
334.998
335
335
335
335
335
335
335
335
335
335
335
335
334.999
335
335
334.999
334.999
334.999
334.999
334.999
334.999
334.999
334.998
334.998
334.999
334.999
334.997
334.996
334.997
334.998
)
;
    }
    procBoundary6to0
    {
        type            processor;
        value           uniform 334.98;
    }
    procBoundary6to2
    {
        type            processor;
        value           nonuniform List<scalar> 
32
(
334.979
334.994
334.983
334.998
334.998
334.996
335
335
335
335
334.999
334.998
334.996
334.992
334.992
334.992
335
335
335
334.999
334.999
334.998
334.997
334.997
334.997
335
335
335
335
334.999
334.999
334.999
)
;
    }
    procBoundary6to4
    {
        type            processor;
        value           nonuniform List<scalar> 
27
(
335
335
335
335
334.999
334.998
334.995
334.99
334.982
335
335
335
335
334.999
334.999
334.997
334.993
334.987
335
335
335
335
335
334.999
334.999
334.997
334.995
)
;
    }
    procBoundary6to7
    {
        type            processor;
        value           nonuniform List<scalar> 
12
(
334.974
334.98
334.994
334.964
334.978
334.993
334.982
334.988
334.996
334.992
334.995
334.998
)
;
    }
}


// ************************************************************************* //
