/*--------------------------------*- C++ -*----------------------------------*\
| =========                 |                                                 |
| \\      /  F ield         | OpenFOAM: The Open Source CFD Toolbox           |
|  \\    /   O peration     | Version:  4.x                                   |
|   \\  /    A nd           | Web:      www.OpenFOAM.org                      |
|    \\/     M anipulation  |                                                 |
\*---------------------------------------------------------------------------*/
FoamFile
{
    version     2.0;
    format      ascii;
    class       volScalarField;
    location    "24.5";
    object      p;
}
// * * * * * * * * * * * * * * * * * * * * * * * * * * * * * * * * * * * * * //

dimensions      [1 -1 -2 0 0 0 0];

internalField   nonuniform List<scalar> 
108
(
5655.37
5705.65
5636.35
5698.79
5616.62
5693.26
5595.32
5690.23
5570.41
5655.82
5705.8
5636.82
5699.16
5617.37
5693.34
5596.31
5689.68
5576.44
5655.56
5705.71
5636.57
5698.93
5617.18
5693.28
5597.67
5689.1
5579.98
5655.75
5705.71
5636.81
5699.19
5616.46
5694.1
5593.96
5692.67
5564.75
3777.34
3828.12
3758.48
3820.97
3739.1
3814.55
3720.16
3809.4
3702.77
3777.56
3828.22
3758.4
3821.4
3738.55
3815.69
3718.6
3811.47
3695.03
3777.59
3828.13
3758.51
3821.2
3738.92
3814.81
3719.35
3809.54
3703.06
3777.67
3827.95
3758.4
3821.41
3737.45
3816.1
3713.29
3814.8
3679.5
1900.88
1950.39
1882.72
1943
1864.73
1936.74
1847.39
1930.54
1831.31
1901.48
1950.3
1883.39
1943.28
1865.61
1936.61
1848.11
1929.75
1831.29
1900.98
1950.55
1882.68
1943.07
1864.58
1936.74
1846.34
1930.32
1828.94
1900.86
1950.27
1882.57
1943.41
1863.56
1937.26
1843.26
1932.73
1821.72
)
;

boundaryField
{
    inlet
    {
        type            calculated;
        value           nonuniform 0();
    }
    outlet
    {
        type            calculated;
        value           nonuniform List<scalar> 
12
(
5633.74
5633.74
5633.74
5633.74
3755.83
3755.83
3755.83
3755.83
1877.91
1877.91
1877.91
1877.91
)
;
    }
    wall
    {
        type            calculated;
        value           nonuniform List<scalar> 
63
(
6594.32
6594.77
6594.47
6594.7
6644.6
6644.75
6644.6
6644.65
6575.29
6575.77
6575.44
6575.75
6637.72
6638.1
6637.77
6638.13
6555.54
6556.31
6556.01
6555.4
6632.16
6632.26
6632.08
6633.03
6534.18
6535.18
6536.45
6532.88
6629.05
6628.5
6627.86
6631.57
6512.02
6524.13
6519.08
6526.57
5655.75
3777.67
1900.86
5705.71
3827.95
1950.27
5636.81
3758.4
1882.57
5699.19
3821.41
1943.41
5616.46
3737.45
1863.56
5694.1
3816.1
1937.26
5593.96
3713.29
1843.26
5692.67
3814.8
1932.73
5564.75
3679.5
1821.72
)
;
    }
    procBoundary3to1
    {
        type            processor;
        value           nonuniform List<scalar> 
27
(
5655.88
5706.14
5637.31
5699.55
5618.25
5693.82
5599.76
5688.49
5583.98
3777.77
3828.62
3759.1
3821.71
3740.09
3815.34
3721.41
3809.54
3704.94
1901.4
1950.26
1883.8
1943.45
1866.2
1936.99
1849.18
1929.79
1833.64
)
;
    }
    procBoundary3to2
    {
        type            processor;
        value           nonuniform List<scalar> 
12
(
5713.11
5713.15
5713.09
5712.88
3835.58
3835.55
3835.55
3835.19
1957.97
1958.03
1958.12
1957.7
)
;
    }
    procBoundary3to7
    {
        type            processor;
        value           nonuniform List<scalar> 
36
(
24.5534
72.4535
6.9455
65.2956
-10.4936
58.7701
-28.0364
52.1675
-45.0066
23.188
72.6022
4.73467
65.6969
-13.5394
59.455
-31.7626
54.0237
-48.2769
22.9637
72.3545
4.4454
65.1927
-14.3132
58.5201
-33.3231
52.8069
-50.1848
22.6947
72.2622
3.71007
65.4451
-16.2247
59.7583
-38.3391
56.8539
-65.7014
)
;
    }
}


// ************************************************************************* //
