/*--------------------------------*- C++ -*----------------------------------*\
| =========                 |                                                 |
| \\      /  F ield         | OpenFOAM: The Open Source CFD Toolbox           |
|  \\    /   O peration     | Version:  4.x                                   |
|   \\  /    A nd           | Web:      www.OpenFOAM.org                      |
|    \\/     M anipulation  |                                                 |
\*---------------------------------------------------------------------------*/
FoamFile
{
    version     2.0;
    format      ascii;
    class       surfaceScalarField;
    location    "24.5";
    object      phi;
}
// * * * * * * * * * * * * * * * * * * * * * * * * * * * * * * * * * * * * * //

dimensions      [0 3 -1 0 0 0 0];

internalField   nonuniform List<scalar> 
249
(
1.22625e-05
-4.98756e-08
-1.77677e-07
1.25713e-05
1.11312e-08
-2.37117e-07
1.28267e-05
3.78239e-08
-1.71221e-07
1.28702e-05
5.8869e-08
1.28357e-07
1.31142e-05
5.84041e-08
-1.88469e-07
1.25425e-05
8.36057e-08
7.99052e-07
1.325e-05
9.66498e-08
-6.62887e-07
1.15945e-05
2.60098e-08
2.02944e-06
1.97573e-07
-5.03936e-06
1.1122e-05
-2.13272e-08
-1.3453e-07
1.13143e-05
-2.49045e-08
-1.56215e-07
1.15241e-05
-6.55286e-08
-1.06518e-07
1.15575e-05
-9.96534e-08
1.25193e-07
1.16024e-05
2.23486e-08
-8.91212e-09
1.10397e-05
-1.14569e-07
7.60942e-07
1.08188e-05
1.92866e-07
1.24681e-07
9.22665e-06
-3.36527e-07
1.95465e-06
5.74478e-07
-2.65508e-06
1.19459e-05
2.11717e-08
-1.95052e-07
1.21594e-05
2.58369e-08
-2.64241e-07
1.22884e-05
-4.57732e-08
-1.4868e-07
1.21844e-05
-1.07318e-07
1.11591e-07
1.19557e-05
2.68891e-07
-1.77707e-08
1.12181e-05
-1.43336e-07
7.66308e-07
1.00895e-05
1.23604e-06
8.54402e-08
8.76068e-06
-7.84859e-07
1.77717e-06
4.50784e-06
-1.78039e-07
1.41726e-05
-2.80988e-07
1.44738e-05
-2.75347e-07
1.47178e-05
-2.89755e-07
1.4781e-05
-1.70481e-07
1.53567e-05
-3.06865e-07
1.50302e-05
1.832e-07
1.63779e-05
-1.11659e-07
1.45162e-05
1.07679e-06
-7.2231e-06
7.15385e-06
-6.10545e-09
-1.79329e-07
6.97224e-06
8.15952e-08
-7.53971e-08
6.93794e-06
4.76531e-08
-1.38196e-07
6.90531e-06
1.60525e-08
3.07101e-07
6.87054e-06
1.07304e-07
-1.79571e-07
7.2583e-06
-1.18616e-07
7.73706e-07
6.92129e-06
3.20749e-07
-4.61914e-07
7.8319e-06
-3.92904e-07
1.95101e-06
1.79601e-06
-3.49472e-06
7.45365e-06
-2.88994e-08
-1.89786e-07
7.42802e-06
4.39805e-08
-9.29721e-08
7.56868e-06
-2.20442e-09
-1.97324e-07
7.55888e-06
-7.81512e-08
2.29203e-07
7.83266e-06
8.05392e-08
-2.55931e-07
7.81534e-06
-2.14614e-07
8.74265e-07
8.40559e-06
3.07302e-07
-4.52129e-07
8.70566e-06
-8.75847e-07
2.13752e-06
2.1383e-06
-3.44028e-06
7.66622e-06
2.88822e-08
-2.01952e-07
7.47761e-06
1.28748e-07
-1.604e-07
7.44257e-06
5.6447e-08
-1.72291e-07
7.20953e-06
-2.34586e-08
2.89947e-07
7.1072e-06
3.30061e-07
-1.64966e-07
7.11132e-06
-2.81421e-07
8.28992e-07
6.46822e-06
1.22538e-06
-1.89535e-07
7.11455e-06
-1.41721e-06
1.67219e-06
5.84799e-06
-3.207e-07
1.13831e-05
-4.57576e-07
1.15888e-05
-3.52347e-07
1.19374e-05
-5.81946e-07
1.19771e-05
-2.33566e-07
1.28478e-05
-8.47538e-07
1.26693e-05
8.02442e-08
1.49946e-05
-1.21156e-06
1.35465e-05
1.10772e-06
-4.97145e-06
5.28917e-06
-3.04134e-09
5.1962e-06
-6.90987e-08
5.05801e-06
-8.30288e-13
5.12776e-06
9.82847e-09
4.94819e-06
-1.03853e-12
5.0294e-06
8.60122e-08
4.50958e-06
2.42742e-08
5.30665e-06
-4.34764e-08
4.62591e-07
5.37415e-06
1.84087e-08
5.24951e-06
-4.99254e-08
5.17414e-06
2.66864e-13
5.24414e-06
-6.5458e-08
5.10045e-06
1.75463e-13
5.58579e-06
-2.15194e-07
5.36452e-06
5.73747e-08
6.81355e-06
-8.22164e-07
1.0304e-06
5.64148e-06
7.54098e-08
5.31261e-06
1.01237e-07
5.26434e-06
4.56145e-08
5.33494e-06
-1.02798e-07
5.2676e-06
1.3618e-07
5.48361e-06
-2.69283e-07
5.3523e-06
4.25891e-07
6.29e-06
-1.27033e-06
1.19211e-06
9.4263e-06
9.47228e-06
9.49318e-06
9.33994e-06
9.43813e-06
9.1269e-06
9.61207e-06
8.32439e-06
)
;

boundaryField
{
    inlet
    {
        type            calculated;
        value           nonuniform 0();
    }
    outlet
    {
        type            calculated;
        value           nonuniform List<scalar> 
12
(
1.70786e-05
1.15048e-05
5.00536e-06
2.62472e-05
4.90002e-06
9.14858e-06
3.54752e-06
1.71428e-05
1.67289e-06
4.39666e-06
6.94816e-06
6.04039e-06
)
;
    }
    wall
    {
        type            calculated;
        value           uniform 0;
    }
    procBoundary3to1
    {
        type            processor;
        value           nonuniform List<scalar> 
27
(
1.82199e-08
-8.27778e-08
-1.22043e-07
-2.30711e-07
-1.13938e-07
-3.10974e-07
-1.41249e-07
-3.99882e-07
-6.42297e-07
-1.18012e-08
-6.17011e-08
-4.63842e-08
-1.62165e-07
-8.14289e-08
-2.43803e-07
-1.84715e-07
-4.39271e-07
-4.08779e-07
6.63454e-10
-1.57465e-09
-2.58032e-12
-8.80003e-08
-9.24846e-13
-8.05507e-08
3.36325e-08
-1.63679e-07
1.97009e-07
)
;
    }
    procBoundary3to2
    {
        type            processor;
        value           nonuniform List<scalar> 
12
(
-1.20532e-05
-1.1016e-05
-1.17934e-05
-1.38705e-05
-7.13429e-06
-7.3756e-06
-7.7171e-06
-1.11776e-05
-5.41219e-06
-5.46139e-06
-5.73131e-06
-9.36614e-06
)
;
    }
    procBoundary3to7
    {
        type            processor;
        value           nonuniform List<scalar> 
36
(
-5.39353e-08
8.82534e-08
-2.41407e-12
3.15518e-07
-1.79511e-12
6.87042e-07
-2.4511e-12
1.36109e-06
-5.20552e-07
-1.2399e-07
1.24917e-08
-1.21949e-07
2.34487e-07
-1.12242e-07
6.90126e-07
-2.63954e-07
1.46717e-06
-1.59119e-06
-1.69128e-07
1.73076e-08
-1.6963e-07
2.56683e-07
-2.33805e-07
6.67073e-07
-4.26741e-07
1.18265e-06
-1.14057e-06
-4.42331e-07
-2.97085e-07
-5.57232e-07
-1.83129e-07
-8.09545e-07
1.22187e-07
-1.27084e-06
1.12507e-06
-1.49535e-06
)
;
    }
}


// ************************************************************************* //
