/*--------------------------------*- C++ -*----------------------------------*\
| =========                 |                                                 |
| \\      /  F ield         | OpenFOAM: The Open Source CFD Toolbox           |
|  \\    /   O peration     | Version:  4.x                                   |
|   \\  /    A nd           | Web:      www.OpenFOAM.org                      |
|    \\/     M anipulation  |                                                 |
\*---------------------------------------------------------------------------*/
FoamFile
{
    version     2.0;
    format      ascii;
    class       volScalarField;
    location    "24.5";
    object      rho;
}
// * * * * * * * * * * * * * * * * * * * * * * * * * * * * * * * * * * * * * //

dimensions      [1 -3 0 0 0 0 0];

internalField   nonuniform List<scalar> 
108
(
6699.96
6699.93
6699.88
6699.83
6699.72
6699.6
6699.31
6699.06
6718.93
6699.97
6699.96
6699.95
6699.91
6699.83
6699.68
6699.43
6699.04
6762.3
6699.67
6699.53
6699.37
6699.21
6699.05
6698.9
6698.72
6698.54
6701.05
6699.9
6699.89
6699.88
6699.88
6699.85
6699.84
6699.71
6699.65
6863.16
6699.74
6699.51
6699.14
6698.69
6698.15
6697.86
6697.5
6697.6
6696.78
6699.85
6699.69
6699.4
6699.04
6698.56
6698.23
6697.8
6697.68
6693.23
6699.92
6699.83
6699.62
6699.3
6698.81
6698.38
6697.83
6697.77
6694.61
6699.95
6699.94
6699.92
6699.88
6699.77
6699.67
6699.35
6699.23
6688.93
6699.5
6699.14
6698.72
6698.33
6698.03
6697.85
6697.92
6697.97
6698.85
6699.73
6699.47
6699.11
6698.7
6698.32
6698
6697.9
6697.73
6697.37
6699.8
6699.57
6699.23
6698.81
6698.38
6698.05
6697.83
6697.76
6695.59
6699.96
6699.93
6699.88
6699.8
6699.65
6699.46
6699.18
6698.93
6693.56
)
;

boundaryField
{
    inlet
    {
        type            calculated;
        value           nonuniform 0();
    }
    outlet
    {
        type            calculated;
        value           uniform 6700;
    }
    wall
    {
        type            calculated;
        value           nonuniform List<scalar> 
63
(
6699.96
6699.97
6699.67
6699.9
6699.93
6699.96
6699.53
6699.89
6699.88
6699.95
6699.37
6699.88
6699.83
6699.91
6699.21
6699.88
6699.72
6699.83
6699.05
6699.85
6699.6
6699.68
6698.9
6699.84
6699.31
6699.43
6698.72
6699.71
6699.06
6699.04
6698.54
6699.65
6718.93
6762.3
6701.05
6863.16
6699.9
6699.95
6699.96
6699.89
6699.94
6699.93
6699.88
6699.92
6699.88
6699.88
6699.88
6699.8
6699.85
6699.77
6699.65
6699.84
6699.67
6699.46
6699.71
6699.35
6699.18
6699.65
6699.23
6698.93
6863.16
6688.93
6693.56
)
;
    }
    procBoundary3to1
    {
        type            processor;
        value           nonuniform List<scalar> 
27
(
6699.95
6699.92
6699.88
6699.8
6699.67
6699.46
6699.1
6698.63
6696.8
6699.74
6699.52
6699.16
6698.76
6698.27
6698.05
6697.8
6697.88
6697.54
6699.55
6699.28
6699.01
6698.73
6698.56
6698.42
6698.61
6698.51
6699.46
)
;
    }
    procBoundary3to2
    {
        type            processor;
        value           nonuniform List<scalar> 
12
(
6699.97
6699.97
6699.79
6699.92
6699.88
6699.93
6699.95
6699.96
6699.76
6699.88
6699.92
6699.97
)
;
    }
    procBoundary3to7
    {
        type            processor;
        value           nonuniform List<scalar> 
36
(
6699.73
6699.52
6699.28
6698.98
6698.79
6698.63
6698.75
6698.84
6703.67
6699.82
6699.68
6699.5
6699.25
6699.05
6698.79
6698.81
6698.65
6699.98
6699.87
6699.77
6699.63
6699.41
6699.2
6698.93
6698.84
6698.67
6698.91
6699.97
6699.95
6699.91
6699.86
6699.76
6699.67
6699.48
6699.31
6690.45
)
;
    }
}


// ************************************************************************* //
