/*--------------------------------*- C++ -*----------------------------------*\
| =========                 |                                                 |
| \\      /  F ield         | OpenFOAM: The Open Source CFD Toolbox           |
|  \\    /   O peration     | Version:  4.x                                   |
|   \\  /    A nd           | Web:      www.OpenFOAM.org                      |
|    \\/     M anipulation  |                                                 |
\*---------------------------------------------------------------------------*/
FoamFile
{
    version     2.0;
    format      ascii;
    class       volScalarField;
    location    "52";
    object      alpha.iron;
}
// * * * * * * * * * * * * * * * * * * * * * * * * * * * * * * * * * * * * * //

dimensions      [0 0 0 0 0 0 0];

internalField   nonuniform List<scalar> 
114
(
1
1
1
1
1
0.999998
1
1
1
1
1
0.999999
0.999986
1
1
1
0.999999
0.999999
0.999998
0.999996
0.99994
1
1
1
1
1
1
1
1
0.999931
1
1
1
1
1
1
1
0.999999
0.999982
1
1
1
1
1
0.999999
0.999999
0.999998
0.999977
1
1
1
1
1
1
1
1
1
1
0.9999
1
1
1
1
1
1
1
1
0.999946
1
1
1
1
1
1
0.999999
0.999999
0.999977
1
1
1
1
1
1
1
1
1
1
1
1
0.999689
1
1
1
1
1
1
1
1
0.999488
1
1
1
1
1
1
1
1
0.999241
1
1
1
1
1
1
)
;

boundaryField
{
    inlet
    {
        type            fixedValue;
        value           nonuniform 0();
    }
    outlet
    {
        type            fixedValue;
        value           uniform 1;
    }
    wall
    {
        type            zeroGradient;
    }
    procBoundary5to1
    {
        type            processor;
        value           nonuniform List<scalar> 
32
(
1
1
1
1
1
0.999925
1
1
1
1
1
1
0.999946
1
1
1
1
0.999999
0.999999
0.999998
0.999968
1
1
1
1
1
1
1
1
1
1
1
)
;
    }
    procBoundary5to4
    {
        type            processor;
        value           nonuniform List<scalar> 
12
(
1
1
1
1
1
1
1
1
1
1
1
1
)
;
    }
    procBoundary5to7
    {
        type            processor;
        value           nonuniform List<scalar> 
44
(
1
1
1
1
0.999999
0.999998
0.999996
0.99998
1
1
1
1
0.999999
0.999999
0.999998
0.999996
0.999964
1
1
1
1
1
1
1
0.999999
0.999999
0.999975
1
1
1
1
1
1
1
1
1
0.999371
1
1
1
1
1
1
1
)
;
    }
}


// ************************************************************************* //
