/*--------------------------------*- C++ -*----------------------------------*\
| =========                 |                                                 |
| \\      /  F ield         | OpenFOAM: The Open Source CFD Toolbox           |
|  \\    /   O peration     | Version:  4.x                                   |
|   \\  /    A nd           | Web:      www.OpenFOAM.org                      |
|    \\/     M anipulation  |                                                 |
\*---------------------------------------------------------------------------*/
FoamFile
{
    version     2.0;
    format      ascii;
    class       volVectorField;
    location    "52";
    object      ddtUrel;
}
// * * * * * * * * * * * * * * * * * * * * * * * * * * * * * * * * * * * * * //

dimensions      [0 1 -2 0 0 0 0];

internalField   nonuniform List<vector> 
114
(
(-4.24621e-09 -2.66876e-10 9.7895e-11)
(-2.47375e-09 -3.82522e-10 9.60189e-11)
(-1.13457e-09 -5.19549e-10 1.20102e-10)
(-1.63882e-10 -6.62455e-10 1.51873e-10)
(5.41084e-10 -7.79028e-10 1.88992e-10)
(9.81342e-10 -8.5589e-10 2.23233e-10)
(-4.86177e-09 -2.17576e-10 6.71799e-11)
(-3.42461e-09 -3.26651e-10 6.87114e-11)
(-2.03596e-09 -4.84707e-10 6.37631e-11)
(-9.18927e-10 -6.83158e-10 7.74209e-11)
(-6.13534e-11 -9.08222e-10 9.02641e-11)
(5.56148e-10 -1.10778e-09 9.87398e-11)
(9.33741e-10 -1.23424e-09 1.12957e-10)
(-3.72342e-09 -1.66129e-10 2.4781e-11)
(-3.25418e-09 -2.79423e-10 2.33302e-11)
(-2.35378e-09 -4.49432e-10 1.64629e-11)
(-1.38362e-09 -7.00685e-10 -3.73747e-12)
(-5.14851e-10 -1.03511e-09 -2.39516e-11)
(2.1578e-10 -1.44108e-09 -5.49017e-11)
(7.6827e-10 -1.83446e-09 -9.10435e-11)
(1.11481e-09 -2.09483e-09 -1.20888e-10)
(-3.0933e-09 -9.24948e-11 1.18802e-11)
(-3.4664e-09 -1.52089e-10 2.98847e-11)
(-3.00943e-09 -2.38516e-10 2.88452e-11)
(-2.16394e-09 -3.56473e-10 2.45382e-11)
(-1.33073e-09 -5.21623e-10 1.90875e-11)
(-5.99863e-10 -7.22344e-10 1.47266e-11)
(-3.52851e-11 -9.44369e-10 7.4579e-12)
(3.82554e-10 -1.13365e-09 -8.27065e-12)
(6.36781e-10 -1.24741e-09 -5.89794e-12)
(-2.5527e-09 -1.04293e-10 -3.47722e-12)
(-2.79529e-09 -1.74644e-10 1.10947e-11)
(-2.47181e-09 -2.83496e-10 7.30361e-12)
(-1.80439e-09 -4.42681e-10 3.19981e-12)
(-1.08389e-09 -6.74827e-10 -9.82377e-12)
(-4.21289e-10 -9.71175e-10 -2.90577e-11)
(1.38149e-10 -1.32283e-09 -5.43263e-11)
(5.63515e-10 -1.64023e-09 -9.53501e-11)
(8.19077e-10 -1.84711e-09 -1.02096e-10)
(-1.86761e-09 -1.26774e-10 -2.29701e-11)
(-1.99882e-09 -2.19554e-10 -1.44297e-11)
(-1.76205e-09 -3.75293e-10 -2.31306e-11)
(-1.27182e-09 -6.22267e-10 -4.09776e-11)
(-6.79294e-10 -9.97946e-10 -7.73451e-11)
(-7.21068e-11 -1.51904e-09 -1.34991e-10)
(5.07748e-10 -2.17757e-09 -2.09032e-10)
(9.90555e-10 -2.84397e-09 -3.00373e-10)
(1.29105e-09 -3.31137e-09 -3.55077e-10)
(-1.26231e-09 -1.56478e-10 -3.93881e-11)
(-1.30442e-09 -2.87171e-10 -4.23837e-11)
(-1.61299e-09 -1.06963e-10 -1.1245e-11)
(-1.73054e-09 -1.76904e-10 -3.56062e-12)
(-1.55061e-09 -2.81574e-10 -5.11318e-12)
(-1.15571e-09 -4.31557e-10 -1.4483e-11)
(-7.13417e-10 -6.38588e-10 -3.17412e-11)
(-2.85104e-10 -8.98066e-10 -5.79279e-11)
(5.19773e-11 -1.18809e-09 -9.33904e-11)
(2.63024e-10 -1.44634e-09 -1.39451e-10)
(5.57295e-10 -1.5724e-09 -2.02247e-10)
(-1.40419e-09 -1.21691e-10 -1.95526e-11)
(-1.48199e-09 -2.05857e-10 -1.42562e-11)
(-1.33712e-09 -3.4027e-10 -1.85613e-11)
(-9.76904e-10 -5.43475e-10 -3.51278e-11)
(-5.47729e-10 -8.40641e-10 -6.29786e-11)
(-1.01358e-10 -1.23375e-09 -1.07573e-10)
(3.07487e-10 -1.70835e-09 -1.64667e-10)
(6.38968e-10 -2.16581e-09 -2.36562e-10)
(8.48103e-10 -2.44952e-09 -2.96328e-10)
(-1.09702e-09 -1.53307e-10 -3.28607e-11)
(-1.12717e-09 -2.68004e-10 -3.31381e-11)
(-9.87114e-10 -4.63057e-10 -4.76754e-11)
(-6.63899e-10 -7.7941e-10 -8.00948e-11)
(-2.37692e-10 -1.2745e-09 -1.38414e-10)
(2.58408e-10 -1.99045e-09 -2.31058e-10)
(7.9835e-10 -2.92997e-09 -3.5288e-10)
(1.30416e-09 -3.94204e-09 -4.95939e-10)
(1.6277e-09 -4.68267e-09 -5.98338e-10)
(-7.91967e-10 -1.92535e-10 -4.41681e-11)
(-7.78639e-10 -3.55446e-10 -5.6668e-11)
(-6.29034e-10 -6.43295e-10 -8.71316e-11)
(-3.07864e-10 -1.14849e-09 -1.50664e-10)
(-1.0342e-09 -1.15302e-10 -1.6737e-11)
(-1.06702e-09 -1.90494e-10 -1.44447e-11)
(-9.97452e-10 -3.05643e-10 -1.95056e-11)
(-7.43007e-10 -4.73773e-10 -3.37345e-11)
(-4.53817e-10 -7.06733e-10 -5.84757e-11)
(-1.76398e-10 -1.00135e-09 -9.7576e-11)
(8.43813e-12 -1.33115e-09 -1.56091e-10)
(-1.4333e-10 -1.62473e-09 -2.35693e-10)
(2.33634e-10 -1.66256e-09 -5.37281e-10)
(-9.20489e-10 -1.32433e-10 -2.25316e-11)
(-9.33641e-10 -2.25483e-10 -2.26134e-11)
(-8.5099e-10 -3.74512e-10 -3.00699e-11)
(-6.14746e-10 -6.036e-10 -5.48094e-11)
(-3.08813e-10 -9.40037e-10 -9.39819e-11)
(3.71163e-11 -1.39424e-09 -1.53545e-10)
(3.546e-10 -1.95249e-09 -2.30295e-10)
(5.961e-10 -2.51556e-09 -3.18052e-10)
(8.94041e-10 -2.86974e-09 -4.31014e-10)
(-7.45804e-10 -1.67341e-10 -3.23971e-11)
(-7.39541e-10 -2.95896e-10 -3.95058e-11)
(-6.26312e-10 -5.14619e-10 -5.90323e-11)
(-3.71963e-10 -8.73695e-10 -1.02801e-10)
(-2.02396e-11 -1.44712e-09 -1.75202e-10)
(4.45825e-10 -2.29717e-09 -2.9197e-10)
(9.75303e-10 -3.44999e-09 -4.48539e-10)
(1.51385e-09 -4.74978e-09 -6.32423e-10)
(1.91854e-09 -5.73485e-09 -7.81157e-10)
(-5.63697e-10 -2.12611e-10 -4.33908e-11)
(-5.25389e-10 -3.95399e-10 -6.12859e-11)
(-3.87621e-10 -7.18859e-10 -9.9247e-11)
(-8.55628e-11 -1.30173e-09 -1.76505e-10)
(3.79212e-10 -2.30061e-09 -3.13225e-10)
(1.09606e-09 -3.94005e-09 -5.4667e-10)
)
;

boundaryField
{
    inlet
    {
        type            calculated;
        value           nonuniform 0();
    }
    outlet
    {
        type            calculated;
        value           nonuniform List<vector> 
12
(
(6.59067e-10 -6.83115e-11 1.94846e-10)
(6.38794e-11 -1.87024e-11 3.06578e-10)
(-9.26556e-12 5.18144e-11 1.67566e-10)
(9.53394e-11 2.06616e-11 1.97892e-10)
(1.35177e-11 -9.88262e-11 4.03434e-10)
(7.1677e-11 -7.28594e-11 2.27833e-10)
(3.07003e-10 -3.13752e-11 5.44672e-10)
(-1.34259e-10 1.97503e-10 -1.24178e-12)
(-1.36507e-11 -6.59122e-11 1.585e-10)
(-2.56792e-09 1.45774e-09 -2.53319e-09)
(1.43468e-10 -4.08919e-10 3.36932e-10)
(-1.10372e-10 2.66534e-11 2.64994e-13)
)
;
    }
    wall
    {
        type            calculated;
        value           nonuniform List<vector> 
66
(
(-2.74738e-11 -1.80994e-12 -2.87126e-14)
(-9.24999e-12 3.09069e-12 -6.014e-13)
(-2.77097e-11 -1.23122e-11 -1.25979e-12)
(-7.89757e-11 -6.62333e-12 2.22162e-12)
(5.33514e-10 8.59792e-13 1.0978e-11)
(6.04677e-10 -6.07197e-12 9.28756e-12)
(1.54598e-10 7.07607e-13 -1.45921e-12)
(1.17014e-10 6.94278e-12 -1.82983e-12)
(-3.64563e-10 3.52847e-13 -2.59122e-12)
(1.94173e-10 -2.27945e-11 5.43644e-11)
(8.63729e-11 -2.50645e-11 2.4025e-11)
(-1.42707e-10 7.79022e-11 1.4484e-11)
(2.13284e-11 1.08178e-12 5.831e-12)
(-1.54127e-12 -1.42252e-11 1.42424e-11)
(2.3739e-10 1.11789e-11 5.28198e-13)
(1.20851e-10 3.77858e-12 -3.70282e-14)
(-5.1287e-11 -2.27133e-12 1.58033e-11)
(-1.9041e-10 -2.12472e-11 1.46479e-11)
(-5.52185e-11 -2.32472e-11 3.14449e-11)
(-6.38509e-11 -2.36613e-11 2.01346e-11)
(-4.33245e-10 2.16482e-12 1.48157e-11)
(-1.45271e-10 1.24808e-11 1.58705e-11)
(1.79402e-10 2.20191e-12 4.70558e-12)
(2.22114e-10 5.82875e-12 -1.01649e-12)
(-2.56277e-10 3.77504e-11 -9.17037e-11)
(-4.40468e-10 6.41148e-11 4.52967e-12)
(-7.71009e-11 -8.16391e-12 3.54541e-11)
(-9.15834e-09 -3.36377e-10 5.87555e-10)
(-1.43834e-09 -2.161e-10 3.02597e-10)
(-4.51992e-10 -1.77921e-11 1.25729e-10)
(-3.82136e-09 3.31903e-09 -5.53788e-09)
(6.66288e-10 -3.45549e-12 8.00458e-11)
(-2.48881e-10 3.48163e-11 -6.4747e-11)
(-4.13894e-10 5.37386e-12 -3.923e-11)
(-1.37646e-10 5.63729e-12 -2.08712e-11)
(-6.49206e-11 -1.96444e-12 -1.58074e-12)
(-1.01545e-09 3.91587e-12 -4.8884e-11)
(-2.58128e-10 -6.82083e-12 -9.6895e-12)
(2.193e-10 2.6006e-12 8.78696e-13)
(-2.88918e-10 -3.48531e-11 -4.83022e-11)
(-7.72059e-11 -1.20831e-11 5.24319e-13)
(-7.2813e-10 -8.06285e-12 -2.15358e-11)
(3.66168e-10 6.54069e-11 -3.29902e-11)
(2.09721e-10 1.65406e-11 -4.51329e-12)
(-1.88487e-11 -7.16186e-12 1.39147e-11)
(7.69791e-11 1.26211e-12 7.03795e-12)
(-3.05763e-11 3.95687e-11 1.55647e-11)
(-1.39571e-10 -8.08515e-12 2.45049e-11)
(-6.31748e-11 -1.18476e-12 1.90799e-11)
(-3.09583e-11 -1.58986e-12 1.79183e-11)
(1.16598e-10 2.25174e-11 1.40751e-10)
(1.06267e-10 2.58763e-11 5.91166e-11)
(1.42447e-10 5.98159e-12 2.35922e-11)
(-2.05886e-10 2.42231e-12 1.50667e-11)
(1.87455e-11 -8.77709e-12 1.31982e-10)
(6.97467e-12 -4.0778e-12 8.21107e-11)
(4.48074e-11 -7.88007e-12 3.92216e-11)
(-2.8585e-10 2.92719e-11 -1.00626e-10)
(1.00197e-10 6.28631e-12 8.43406e-11)
(2.30026e-10 4.56665e-11 -1.25008e-12)
(-8.37619e-10 -6.2839e-11 1.27474e-10)
(-8.75316e-09 -2.65866e-10 5.48368e-10)
(7.64609e-10 -7.63155e-11 2.07572e-10)
(6.71451e-11 4.66724e-11 1.51715e-10)
(1.35068e-09 -2.1424e-11 2.89743e-10)
(-3.50635e-09 2.71633e-09 -5.35787e-09)
)
;
    }
    procBoundary5to1
    {
        type            processor;
        value           nonuniform List<vector> 
32
(
(-8.27369e-09 -1.87557e-10 2.30911e-10)
(-4.38593e-09 -2.52672e-10 2.03654e-10)
(-1.8742e-09 -3.22679e-10 2.54176e-10)
(-1.7687e-10 -3.78036e-10 3.58861e-10)
(1.11603e-09 -3.961e-10 5.14594e-10)
(1.91105e-09 -4.27396e-10 6.04251e-10)
(-9.75562e-09 -1.52223e-10 2.06948e-10)
(-6.31383e-09 -2.19583e-10 1.74418e-10)
(-3.52722e-09 -3.15481e-10 1.59315e-10)
(-1.55905e-09 -4.26674e-10 1.99575e-10)
(-1.67735e-10 -5.43425e-10 2.64637e-10)
(8.42868e-10 -6.26911e-10 3.5405e-10)
(1.46602e-09 -6.86458e-10 3.92132e-10)
(-6.97916e-09 -1.14099e-10 1.05847e-10)
(-5.8994e-09 -1.86769e-10 1.06563e-10)
(-4.07192e-09 -2.92288e-10 9.31092e-11)
(-2.3672e-09 -4.45773e-10 7.57197e-11)
(-1.01956e-09 -6.26033e-10 8.54666e-11)
(2.41348e-11 -8.53596e-10 9.69423e-11)
(7.95857e-10 -1.05042e-09 1.19189e-10)
(1.27193e-09 -1.18311e-09 1.11916e-10)
(-6.44452e-09 -7.54314e-11 7.60468e-11)
(-7.70841e-09 -1.25378e-10 1.23483e-10)
(-6.32605e-09 -1.85138e-10 1.11725e-10)
(-6.32605e-09 -1.85138e-10 1.11725e-10)
(-6.32605e-09 -1.85138e-10 1.11725e-10)
(-4.97919e-09 -8.36679e-11 4.11282e-11)
(-5.7215e-09 -1.40958e-10 7.30226e-11)
(-5.7215e-09 -1.40958e-10 7.30226e-11)
(-5.7215e-09 -1.40958e-10 7.30226e-11)
(-3.35794e-09 -9.97511e-11 3.25067e-12)
(-3.35794e-09 -9.97511e-11 3.25067e-12)
)
;
    }
    procBoundary5to4
    {
        type            processor;
        value           nonuniform List<vector> 
12
(
(-2.34611e-09 -5.57784e-11 -1.59456e-11)
(-1.99109e-09 -6.1577e-11 -2.68469e-11)
(-1.50599e-09 -7.39038e-11 -3.66738e-11)
(-1.0541e-09 -8.80104e-11 -4.42695e-11)
(-1.30371e-09 -6.36538e-11 -2.45812e-11)
(-1.15154e-09 -7.0393e-11 -3.08822e-11)
(-9.18895e-10 -8.49984e-11 -3.79721e-11)
(-6.83811e-10 -1.02266e-10 -4.28115e-11)
(-8.67192e-10 -6.77556e-11 -2.36731e-11)
(-7.76461e-10 -7.59004e-11 -2.78419e-11)
(-6.41624e-10 -9.11816e-11 -3.32424e-11)
(-5.00814e-10 -1.09909e-10 -3.80286e-11)
)
;
    }
    procBoundary5to7
    {
        type            processor;
        value           nonuniform List<vector> 
44
(
(-2.24212e-09 -2.20013e-10 -1.84584e-11)
(-1.964e-09 -3.82981e-10 -2.80324e-11)
(-1.39575e-09 -6.42119e-10 -5.30721e-11)
(-7.01044e-10 -1.04301e-09 -1.0427e-10)
(8.3714e-12 -1.60992e-09 -1.82403e-10)
(6.93075e-10 -2.34142e-09 -2.84337e-10)
(1.27947e-09 -3.10794e-09 -3.98374e-10)
(1.67483e-09 -3.64191e-09 -4.82512e-10)
(-2.09332e-09 -1.23588e-10 -2.80939e-11)
(-2.24212e-09 -2.20013e-10 -1.84584e-11)
(-1.11632e-09 -5.19054e-10 -6.4023e-11)
(-7.28382e-10 -9.01711e-10 -1.06396e-10)
(-1.98103e-10 -1.51738e-09 -1.85826e-10)
(4.34305e-10 -2.44133e-09 -3.11598e-10)
(1.14157e-09 -3.70399e-09 -4.84316e-10)
(1.82833e-09 -5.11775e-09 -6.93724e-10)
(2.31758e-09 -6.18139e-09 -8.47158e-10)
(-8.11621e-10 -2.00052e-10 -5.36949e-11)
(-1.11632e-09 -5.19054e-10 -6.4023e-11)
(-7.9758e-10 -3.75671e-10 -7.0358e-11)
(-1.11632e-09 -5.19054e-10 -6.4023e-11)
(-7.28382e-10 -9.01711e-10 -1.06396e-10)
(1.69568e-10 -1.98442e-09 -2.6416e-10)
(8.26748e-10 -3.31199e-09 -4.51521e-10)
(1.67295e-09 -5.24768e-09 -7.18627e-10)
(2.61295e-09 -7.60191e-09 -1.05854e-09)
(3.3477e-09 -9.53446e-09 -1.32683e-09)
(-5.3678e-10 -2.42702e-10 -5.63378e-11)
(-4.90093e-10 -4.63373e-10 -8.15744e-11)
(-3.18041e-10 -8.71001e-10 -1.34405e-10)
(1.69568e-10 -1.98442e-09 -2.6416e-10)
(3.77546e-11 -1.6261e-09 -2.39659e-10)
(1.69568e-10 -1.98442e-09 -2.6416e-10)
(8.26748e-10 -3.31199e-09 -4.51521e-10)
(2.08976e-09 -6.42413e-09 -8.9678e-10)
(3.32638e-09 -9.67653e-09 -1.35839e-09)
(4.34925e-09 -1.25838e-08 -1.73483e-09)
(-3.93604e-10 -2.68739e-10 -5.52034e-11)
(-3.33449e-10 -5.17574e-10 -8.56496e-11)
(-1.53807e-10 -9.84256e-10 -1.47022e-10)
(2.16689e-10 -1.86875e-09 -2.71162e-10)
(8.78245e-10 -3.52374e-09 -5.0696e-10)
(2.08976e-09 -6.42413e-09 -8.9678e-10)
(2.05934e-09 -6.56305e-09 -9.52911e-10)
)
;
    }
}


// ************************************************************************* //
