/*--------------------------------*- C++ -*----------------------------------*\
| =========                 |                                                 |
| \\      /  F ield         | OpenFOAM: The Open Source CFD Toolbox           |
|  \\    /   O peration     | Version:  4.x                                   |
|   \\  /    A nd           | Web:      www.OpenFOAM.org                      |
|    \\/     M anipulation  |                                                 |
\*---------------------------------------------------------------------------*/
FoamFile
{
    version     2.0;
    format      ascii;
    class       volVectorField;
    location    "52";
    object      impParticleForces;
}
// * * * * * * * * * * * * * * * * * * * * * * * * * * * * * * * * * * * * * //

dimensions      [1 1 -2 0 0 0 0];

internalField   nonuniform List<vector> 
114
(
(0.00242439 2.79298e-05 -1.39065e-05)
(0.00238275 2.09206e-05 -9.73951e-06)
(0.00238393 1.4739e-05 -5.27252e-06)
(0.00232838 7.13507e-06 -2.88056e-06)
(0.00230625 -1.12567e-07 -7.37454e-08)
(0.00222431 -9.0469e-06 -2.0165e-06)
(0.002427 2.72849e-05 -1.87254e-05)
(0.00244427 2.44826e-05 -1.41022e-05)
(0.002404 1.88156e-05 -9.78384e-06)
(0.00241827 1.44659e-05 -4.73206e-06)
(0.00236138 7.20736e-06 -3.55642e-06)
(0.00234454 1.65357e-06 -7.19229e-07)
(0.00225279 -8.83939e-06 -6.03069e-06)
(0.00245053 2.15231e-05 -2.36341e-05)
(0.00241392 2.12754e-05 -1.8788e-05)
(0.00243897 1.93122e-05 -1.42279e-05)
(0.00240111 1.56507e-05 -1.02786e-05)
(0.00240006 1.22466e-05 -6.1898e-06)
(0.00235115 7.93709e-06 -4.6908e-06)
(0.00232131 3.91511e-06 -4.50326e-06)
(0.00224707 -1.91857e-06 -9.2518e-06)
(0.00239201 1.27824e-05 -2.06989e-05)
(0.00239911 1.71065e-05 -1.54372e-05)
(0.002392 1.82293e-05 -1.05139e-05)
(0.00240006 1.69714e-05 -5.40932e-06)
(0.00237282 1.35379e-05 -4.44931e-07)
(0.00238986 1.00651e-05 5.17671e-06)
(0.00232854 2.3638e-06 1.16844e-05)
(0.00230882 -3.77651e-06 1.64486e-05)
(0.00221519 -1.6607e-05 2.5783e-05)
(0.00241952 1.11876e-05 -2.10905e-05)
(0.00243144 1.51239e-05 -1.62309e-05)
(0.00241153 1.61982e-05 -1.15237e-05)
(0.00243309 1.56264e-05 -6.53357e-06)
(0.00239439 1.25981e-05 -1.57182e-06)
(0.00241249 1.02607e-05 4.15177e-06)
(0.00234374 3.19048e-06 9.76486e-06)
(0.00234049 -1.56739e-06 1.66823e-05)
(0.00224459 -1.62252e-05 2.50342e-05)
(0.00239875 1.03306e-05 -2.17582e-05)
(0.00240814 1.30094e-05 -1.74442e-05)
(0.00239103 1.34835e-05 -1.30572e-05)
(0.0024181 1.28279e-05 -8.28333e-06)
(0.00237893 1.05795e-05 -3.7032e-06)
(0.00239102 8.25717e-06 1.97703e-06)
(0.00233438 4.17621e-06 7.22371e-06)
(0.00231536 4.33963e-07 1.4098e-05)
(0.00223338 -7.38606e-06 1.99827e-05)
(0.00239217 9.67144e-06 -2.29442e-05)
(0.00240196 1.07432e-05 -1.90755e-05)
(0.0023861 5.82332e-06 -1.49938e-05)
(0.00240738 8.86503e-06 -1.03446e-05)
(0.0023821 1.04071e-05 -6.1637e-06)
(0.00239517 1.0067e-05 -1.03948e-06)
(0.0023756 8.28207e-06 4.46649e-06)
(0.00237994 5.30723e-06 1.0655e-05)
(0.00233486 -9.43886e-07 1.9517e-05)
(0.0023317 -7.96118e-06 2.76098e-05)
(0.00222017 -1.93569e-05 4.34493e-05)
(0.00240396 4.9119e-06 -1.50947e-05)
(0.00244363 7.42744e-06 -1.06345e-05)
(0.00240297 8.66473e-06 -6.79616e-06)
(0.00242317 8.65393e-06 -1.97353e-06)
(0.00239958 6.96493e-06 3.26085e-06)
(0.00241404 5.39018e-06 9.24512e-06)
(0.00237221 -5.293e-07 1.79062e-05)
(0.00235588 -4.57868e-06 2.65255e-05)
(0.00223994 -1.83522e-05 4.29297e-05)
(0.00238754 5.18628e-06 -1.61142e-05)
(0.00241375 6.95038e-06 -1.2534e-05)
(0.00239426 7.32043e-06 -8.72963e-06)
(0.00240687 6.95512e-06 -4.40717e-06)
(0.00239507 5.34837e-06 7.04175e-07)
(0.0024013 3.66102e-06 6.67293e-06)
(0.00235129 -2.1065e-07 1.48328e-05)
(0.0023395 -4.72344e-06 2.66782e-05)
(0.0022483 -1.39057e-05 4.51138e-05)
(0.00237814 5.67222e-06 -1.76276e-05)
(0.00242542 6.29423e-06 -1.46229e-05)
(0.00238945 5.84294e-06 -1.12783e-05)
(0.00240979 5.05828e-06 -7.62513e-06)
(0.00233598 2.91114e-06 -1.17449e-05)
(0.00235901 5.20346e-06 -7.51909e-06)
(0.00234022 6.40677e-06 -3.39256e-06)
(0.00236254 6.17689e-06 1.4387e-06)
(0.00234926 4.49711e-06 7.37589e-06)
(0.00236272 1.66805e-06 1.39098e-05)
(0.00233206 -4.96849e-06 2.58452e-05)
(0.00234801 -1.0432e-05 3.24841e-05)
(0.00221802 -2.39946e-05 5.38469e-05)
(0.00237108 1.8661e-06 -1.1814e-05)
(0.00239923 3.66271e-06 -7.85817e-06)
(0.0023682 4.43453e-06 -4.28142e-06)
(0.00238577 4.6342e-06 1.93494e-07)
(0.00237418 2.87468e-06 5.81869e-06)
(0.00237712 1.32121e-06 1.17757e-05)
(0.00234557 -4.08598e-06 2.13382e-05)
(0.00234669 -6.89002e-06 2.92632e-05)
(0.00223027 -2.08493e-05 4.9144e-05)
(0.00235482 2.45576e-06 -1.31302e-05)
(0.0023846 3.47815e-06 -9.77465e-06)
(0.00237062 3.63559e-06 -6.3969e-06)
(0.00238083 3.21544e-06 -2.3552e-06)
(0.00236486 1.50707e-06 3.12447e-06)
(0.00237854 5.9738e-08 8.72043e-06)
(0.00233289 -3.52581e-06 1.80297e-05)
(0.00232221 -6.42601e-06 2.7071e-05)
(0.00223014 -1.59369e-05 4.93149e-05)
(0.00234983 3.27696e-06 -1.49783e-05)
(0.00237719 3.40797e-06 -1.24293e-05)
(0.00236197 2.68845e-06 -9.57727e-06)
(0.00237829 1.59122e-06 -6.3162e-06)
(0.00236277 -6.33374e-07 -1.40619e-06)
(0.00235192 -1.18034e-06 3.58477e-06)
)
;

boundaryField
{
    inlet
    {
        type            zeroGradient;
    }
    outlet
    {
        type            zeroGradient;
    }
    wall
    {
        type            zeroGradient;
    }
    procBoundary5to1
    {
        type            processor;
        value           nonuniform List<vector> 
32
(
(0.00249003 4.21478e-05 -2.32787e-05)
(0.00244039 2.96645e-05 -1.99422e-05)
(0.00244677 2.06155e-05 -1.81855e-05)
(0.00240082 1.22436e-05 -1.97371e-05)
(0.002379 5.54557e-06 -1.70005e-05)
(0.00226131 -4.12862e-06 -2.73498e-05)
(0.00247292 4.28751e-05 -2.53794e-05)
(0.00251106 3.48039e-05 -2.15219e-05)
(0.00247426 2.526e-05 -1.90961e-05)
(0.00248396 1.89168e-05 -1.63017e-05)
(0.00242722 1.06389e-05 -1.8303e-05)
(0.0024126 6.81269e-06 -1.87449e-05)
(0.00228199 -6.04471e-06 -3.21537e-05)
(0.00249056 3.22372e-05 -2.88622e-05)
(0.00246159 3.08656e-05 -2.41602e-05)
(0.00250588 2.65769e-05 -2.01094e-05)
(0.00246096 2.03575e-05 -1.73608e-05)
(0.00247508 1.57383e-05 -1.48199e-05)
(0.0024143 1.04366e-05 -1.67413e-05)
(0.00239596 7.83989e-06 -1.96215e-05)
(0.00228448 -1.02345e-06 -3.44509e-05)
(0.00239895 2.59863e-05 -2.85668e-05)
(0.00240732 3.30508e-05 -2.30356e-05)
(0.002404 3.21902e-05 -1.86174e-05)
(0.002404 3.21902e-05 -1.86174e-05)
(0.002404 3.21902e-05 -1.86174e-05)
(0.00243303 2.17451e-05 -2.90147e-05)
(0.002468 2.77202e-05 -2.3953e-05)
(0.002468 2.77202e-05 -2.3953e-05)
(0.002468 2.77202e-05 -2.3953e-05)
(0.00241652 1.75833e-05 -2.86896e-05)
(0.00241652 1.75833e-05 -2.86896e-05)
)
;
    }
    procBoundary5to4
    {
        type            processor;
        value           nonuniform List<vector> 
12
(
(0.00241904 6.27968e-06 -2.56711e-05)
(0.00245159 5.44691e-06 -2.60277e-05)
(0.00241893 6.50723e-06 -2.62426e-05)
(0.00240475 7.77194e-06 -2.69636e-05)
(0.00242056 1.16076e-06 -1.85897e-05)
(0.00244788 6.92305e-07 -1.84643e-05)
(0.00242126 2.5291e-06 -1.91837e-05)
(0.00240098 4.54154e-06 -2.04638e-05)
(0.00238365 -7.77705e-07 -1.44178e-05)
(0.00239305 -9.75121e-07 -1.48268e-05)
(0.00237663 6.15708e-07 -1.57201e-05)
(0.00236669 2.76146e-06 -1.72272e-05)
)
;
    }
    procBoundary5to7
    {
        type            processor;
        value           nonuniform List<vector> 
44
(
(0.00244786 1.66465e-05 -2.46058e-05)
(0.00241302 1.6431e-05 -2.00999e-05)
(0.00243669 1.5259e-05 -1.57351e-05)
(0.00241912 1.35705e-05 -1.17108e-05)
(0.00243087 1.27858e-05 -7.74383e-06)
(0.00235301 1.13435e-05 -7.61016e-06)
(0.00231783 1.10297e-05 -7.84083e-06)
(0.0022445 1.24845e-05 -1.5246e-05)
(0.00241721 1.47327e-05 -2.93603e-05)
(0.00244786 1.66465e-05 -2.46058e-05)
(0.00238333 1.07685e-05 -1.50876e-05)
(0.00240868 9.97245e-06 -1.0706e-05)
(0.00237648 9.04473e-06 -6.56809e-06)
(0.0023855 8.24572e-06 -1.43603e-06)
(0.00233174 7.40125e-06 2.41177e-06)
(0.00231238 8.19595e-06 8.01539e-06)
(0.00222772 6.31603e-06 1.18752e-05)
(0.00238294 9.40244e-06 -2.45992e-05)
(0.00238333 1.07685e-05 -1.50876e-05)
(0.00242582 9.17072e-06 -2.12334e-05)
(0.00238333 1.07685e-05 -1.50876e-05)
(0.00240868 9.97245e-06 -1.0706e-05)
(0.00236321 4.03146e-06 -3.11139e-06)
(0.00237667 3.00329e-06 2.08451e-06)
(0.00233356 1.30675e-06 8.88084e-06)
(0.00231656 4.91886e-07 1.64179e-05)
(0.00222113 -1.24362e-06 3.20403e-05)
(0.00238709 6.619e-06 -1.95969e-05)
(0.00241743 6.21558e-06 -1.71499e-05)
(0.00237724 5.26919e-06 -1.44303e-05)
(0.00236321 4.03146e-06 -3.11139e-06)
(0.00239526 4.21054e-06 -1.13369e-05)
(0.00236321 4.03146e-06 -3.11139e-06)
(0.00237667 3.00329e-06 2.08451e-06)
(0.0023092 -3.72818e-06 1.15913e-05)
(0.00230631 -3.82546e-06 2.06739e-05)
(0.00220373 -8.95469e-06 3.52941e-05)
(0.00235829 4.77259e-06 -1.71007e-05)
(0.00237498 4.06144e-06 -1.52937e-05)
(0.00235257 2.88116e-06 -1.30572e-05)
(0.00237458 1.57658e-06 -1.07516e-05)
(0.00233611 4.5926e-07 -7.08348e-06)
(0.0023092 -3.72818e-06 1.15913e-05)
(0.00233529 -6.70392e-08 -3.58148e-06)
)
;
    }
}


// ************************************************************************* //
