/*--------------------------------*- C++ -*----------------------------------*\
| =========                 |                                                 |
| \\      /  F ield         | OpenFOAM: The Open Source CFD Toolbox           |
|  \\    /   O peration     | Version:  4.x                                   |
|   \\  /    A nd           | Web:      www.OpenFOAM.org                      |
|    \\/     M anipulation  |                                                 |
\*---------------------------------------------------------------------------*/
FoamFile
{
    version     2.0;
    format      ascii;
    class       volScalarField;
    location    "52";
    object      KslNext;
}
// * * * * * * * * * * * * * * * * * * * * * * * * * * * * * * * * * * * * * //

dimensions      [1 -3 -1 0 0 0 0];

internalField   nonuniform List<scalar> 
114
(
3621
38050.7
4123.22
1e+10
5617.56
57187.7
292850
3708.71
182532
3773.59
57621.6
4126.33
11940.6
4173.83
1e+10
4216.78
1e+10
4301.42
1e+10
4817.61
15004.4
7171.57
3075.33
7372.27
2940.58
7944.94
2769.75
9177.32
2437.61
7982.23
30732.1
3547.8
65161.1
3487.08
88918.6
3440.52
26934.9
3477.88
6614.51
1e+10
3741.72
1e+10
3696.03
171860
3575.42
33728
3630.2
12821.8
1e+10
3838.72
7710.64
3210.66
8141.01
3117.16
8764.68
3020.49
10887.6
2914.73
14363.1
15089
3473.1
18031.9
3344.26
22012.7
3224.74
22354.4
3031.29
10823.2
89126.6
3677.98
1e+10
3717.03
1e+10
3876.64
45061.8
4148.4
7703.81
52058.8
3600.58
83142.4
3495.6
4848.42
2737.82
4615.46
2545.95
4556.1
2273.15
4821.69
1809.9
5354.28
6114.95
2981.61
5991.98
2799.88
6124.88
2588.77
7057.95
2320.14
9736.36
7247.61
3133.38
7380.04
2991.39
7433.8
2774.65
7700.11
2337.94
7929.42
7320.58
3107.93
7549.52
2991.87
8068.86
2785.26
)
;

boundaryField
{
    inlet
    {
        type            zeroGradient;
    }
    outlet
    {
        type            zeroGradient;
    }
    wall
    {
        type            zeroGradient;
    }
    procBoundary5to1
    {
        type            processor;
        value           uniform 0;
    }
    procBoundary5to4
    {
        type            processor;
        value           uniform 0;
    }
    procBoundary5to7
    {
        type            processor;
        value           uniform 0;
    }
}


// ************************************************************************* //
