/*--------------------------------*- C++ -*----------------------------------*\
  =========                 |
  \\      /  F ield         | OpenFOAM: The Open Source CFD Toolbox
   \\    /   O peration     | Website:  https://openfoam.org
    \\  /    A nd           | Version:  4.x
     \\/     M anipulation  |
\*---------------------------------------------------------------------------*/
FoamFile
{
    version     2.0;
    format      ascii;
    class       Cloud<passiveParticle>;
    location    0;
    object      positions;
}
// * * * * * * * * * * * * * * * * * * * * * * * * * * * * * * * * * * * * * //

236
(
( 0.250069 -0.0571686 -0.0378273 ) 63
( 0.253192 -0.019066 -0.0428885 ) 45
( 0.252594 -0.0641963 -0.0651119 ) 36
( 0.25363 -0.0738435 -0.0477524 ) 27
( 0.25581 -0.0383554 -0.03868 ) 72
( 0.250534 -0.0262658 0.00332852 ) 86
( 0.256709 -0.0654558 0.00463595 ) 84
( 0.251443 -0.0232709 -0.0165382 ) 72
( 0.257175 -0.0759977 -0.0139199 ) 81
( 0.252601 -0.0902928 -0.00140978 ) 81
( 0.353421 -0.0660785 -0.0605549 ) 39
( 0.379212 -0.0900704 -0.0644217 ) 31
( 0.402186 -0.0526058 -0.06314 ) 41
( 0.312797 -0.044251 -0.0461446 ) 38
( 0.416384 -0.0899902 -0.0798133 ) 5
( 0.362033 -0.0749452 -0.0398204 ) 58
( 0.302821 -0.0282199 -0.0373146 ) 73
( 0.352869 -0.0311874 -0.0498819 ) 48
( 0.412372 -0.0901967 -0.0422764 ) 59
( 0.445923 -0.0468385 -0.0353721 ) 70
( 0.472065 -0.0451849 -0.0595087 ) 43
( 0.288181 -0.0267679 -0.0597606 ) 46
( 0.420448 -0.0900895 -0.060318 ) 33
( 0.447544 -0.0150093 -0.0453342 ) 52
( 0.335498 -0.057781 -0.0578236 ) 39
( 0.437667 -0.0312936 -0.0633238 ) 51
( 0.300459 -0.042317 -0.0615535 ) 46
( 0.406647 -0.0246545 -0.0794179 ) 23
( 0.490043 -0.044817 -0.0457635 ) 44
( 0.336908 -0.0761541 -0.0653255 ) 30
( 0.406342 -0.0148158 -0.056809 ) 50
( 0.342987 -0.0546556 -0.0245083 ) 66
( 0.274063 -0.0539884 -0.0587193 ) 36
( 0.478732 -0.0300436 -0.0284051 ) 80
( 0.35912 -0.0145042 -0.0795917 ) 21
( 0.431283 -0.0440248 -0.0494702 ) 42
( 0.341631 -0.0338565 -0.0338562 ) 75
( 0.466887 -0.0214584 -0.0520757 ) 52
( 0.359444 -0.0509868 -0.0722317 ) 12
( 0.362229 -0.050275 -0.0525571 ) 40
( 0.417993 -0.0295283 -0.046425 ) 51
( 0.418405 -0.0725203 -0.0693048 ) 33
( 0.468616 -0.0739205 -0.0515413 ) 34
( 0.320929 -0.0476789 -0.0718443 ) 11
( 0.333321 -0.0393275 -0.0509154 ) 47
( 0.430105 -0.0585535 -0.0360686 ) 69
( 0.437493 -0.0728694 -0.074923 ) 6
( 0.451563 -0.090162 -0.0491617 ) 34
( 0.287544 -0.09017 -0.068093 ) 28
( 0.399959 -0.0732116 -0.0768041 ) 5
( 0.468135 -0.0412946 -0.0405689 ) 79
( 0.474054 -0.0210237 -0.0859865 ) 26
( 0.268658 -0.0224575 -0.0728519 ) 18
( 0.408948 -0.0444882 -0.0800464 ) 14
( 0.401555 -0.0900774 -0.0664311 ) 32
( 0.453128 -0.0190495 -0.0662774 ) 52
( 0.327573 -0.074282 -0.0418609 ) 56
( 0.410565 -0.0722851 -0.05095 ) 32
( 0.378729 -0.0676784 -0.032433 ) 67
( 0.324283 -0.0880687 -0.0751899 ) 2
( 0.339895 -0.0420898 -0.069456 ) 48
( 0.43641 -0.0459144 -0.076767 ) 15
( 0.270024 -0.0254277 -0.0348917 ) 72
( 0.272707 -0.0863679 -0.0204213 ) 54
( 0.440627 -0.0583476 -0.0618007 ) 42
( 0.384515 -0.0609557 -0.0663511 ) 40
( 0.380682 -0.0417052 -0.0342436 ) 76
( 0.409043 -0.0145522 -0.0371392 ) 77
( 0.456024 -0.0797146 -0.0696571 ) 34
( 0.295282 -0.0697711 -0.0272322 ) 64
( 0.489846 -0.0756266 -0.0426467 ) 62
( 0.302428 -0.0900996 -0.0444061 ) 28
( 0.379191 -0.04293 -0.0598111 ) 40
( 0.366612 -0.0276923 -0.035907 ) 76
( 0.32806 -0.090189 -0.0297944 ) 56
( 0.458184 -0.0530466 -0.0835835 ) 16
( 0.479903 -0.0739848 -0.0701179 ) 35
( 0.48533 -0.0614293 -0.0556901 ) 44
( 0.271861 -0.0170145 -0.053995 ) 45
( 0.413689 -0.0531561 -0.0461108 ) 41
( 0.287554 -0.0667498 -0.0658944 ) 37
( 0.381293 -0.0262066 -0.0492978 ) 49
( 0.298297 -0.0168948 -0.0737494 ) 19
( 0.356546 -0.074936 -0.0780101 ) 3
( 0.347229 -0.0870734 -0.0352068 ) 57
( 0.454325 -0.0315832 -0.0843403 ) 25
( 0.483029 -0.0552209 -0.0827713 ) 17
( 0.374349 -0.0224562 -0.0676091 ) 49
( 0.307666 -0.0244722 -0.0561694 ) 47
( 0.271195 -0.0738565 -0.0570526 ) 27
( 0.425593 -0.0155655 -0.0617227 ) 51
( 0.315836 -0.0602852 -0.0574201 ) 38
( 0.439756 -0.0901024 -0.0650566 ) 33
( 0.356575 -0.0868766 -0.0547835 ) 30
( 0.43227 -0.0901839 -0.0443675 ) 33
( 0.276119 -0.0669295 -0.0230793 ) 63
( 0.318144 -0.0900161 -0.056413 ) 29
( 0.372098 -0.0731036 -0.0567721 ) 31
( 0.467863 -0.061103 -0.036527 ) 70
( 0.456197 -0.0531466 -0.0510381 ) 43
( 0.270597 -0.0901703 -0.0398138 ) 54
( 0.393408 -0.0275173 -0.0649168 ) 50
( 0.3024 -0.0790718 -0.0613783 ) 28
( 0.322486 -0.0301506 -0.0362267 ) 74
( 0.26897 -0.085408 -0.0732462 ) 0
( 0.38798 -0.0577104 -0.0468328 ) 40
( 0.391985 -0.0868512 -0.0277264 ) 59
( 0.490305 -0.0457872 -0.0668297 ) 44
( 0.417944 -0.0339109 -0.0657352 ) 51
( 0.48177 -0.0495839 -0.0283502 ) 71
( 0.27987 -0.039245 -0.0467248 ) 46
( 0.490031 -0.0249965 -0.0438867 ) 53
( 0.436858 -0.0295428 -0.0370371 ) 78
( 0.45399 -0.0421291 -0.0674478 ) 52
( 0.340964 -0.0223403 -0.0774286 ) 21
( 0.470396 -0.0888397 -0.0822591 ) 7
( 0.476093 -0.0900804 -0.0427049 ) 62
( 0.436529 -0.090128 -0.0846702 ) 6
( 0.373829 -0.0900092 -0.0452669 ) 31
( 0.430511 -0.0716163 -0.0510391 ) 33
( 0.269422 -0.0603972 -0.0405163 ) 63
( 0.451734 -0.0339553 -0.049424 ) 52
( 0.288773 -0.0569033 -0.0441157 ) 37
( 0.302541 -0.0516051 -0.030787 ) 64
( 0.39347 -0.0900982 -0.0482478 ) 32
( 0.278744 -0.0396258 -0.0716554 ) 19
( 0.395905 -0.0397273 -0.049474 ) 50
( 0.337234 -0.0903908 -0.0515791 ) 30
( 0.421822 -0.0533861 -0.0650413 ) 42
( 0.324725 -0.0552056 -0.0323927 ) 65
( 0.346058 -0.0634705 -0.0420177 ) 66
( 0.471387 -0.0902158 -0.0624329 ) 34
( 0.269903 -0.0649505 -0.0748612 ) 9
( 0.314779 -0.0705126 -0.0744587 ) 11
( 0.451178 -0.0771894 -0.0888126 ) 7
( 0.305759 -0.0705289 -0.0439233 ) 38
( 0.290133 -0.0900808 -0.0289443 ) 55
( 0.396032 -0.0290505 -0.032876 ) 77
( 0.372116 -0.0631229 -0.0817382 ) 13
( 0.3889 -0.0890557 -0.0817773 ) 5
( 0.49006 -0.0319185 -0.0811521 ) 26
( 0.460039 -0.0902599 -0.0313531 ) 61
( 0.356719 -0.0314452 -0.0692939 ) 48
( 0.314226 -0.0290871 -0.0743818 ) 20
( 0.460084 -0.0245689 -0.032814 ) 79
( 0.418542 -0.0740996 -0.0327337 ) 60
( 0.490284 -0.0899303 -0.0563628 ) 35
( 0.339811 -0.0193716 -0.0146512 ) 75
( 0.297592 -0.065117 0.0107433 ) 85
( 0.382128 -0.0281206 -0.0187593 ) 76
( 0.454571 -0.0159092 -0.0149515 ) 79
( 0.293109 -0.0901539 -0.00936511 ) 82
( 0.441525 -0.0578232 -0.0196859 ) 69
( 0.301075 -0.0291425 -0.01687 ) 73
( 0.46124 -0.0479937 -0.0232292 ) 70
( 0.28959 -0.0840871 0.0124187 ) 82
( 0.399692 -0.0396839 -0.0147459 ) 77
( 0.276803 -0.0520636 -0.00134443 ) 84
( 0.342454 -0.0900503 -0.016128 ) 57
( 0.447367 -0.0336291 -0.0204352 ) 79
( 0.368162 -0.0533819 -0.0193743 ) 67
( 0.316254 -0.0412814 -0.0209584 ) 74
( 0.42925 -0.0729957 -0.0160203 ) 60
( 0.272955 -0.0903852 -0.00099322 ) 81
( 0.287426 -0.051397 -0.0180058 ) 64
( 0.260604 -0.043189 0.00585417 ) 84
( 0.355068 -0.030873 -0.0199184 ) 75
( 0.273373 -0.0710902 -0.00393824 ) 84
( 0.292377 -0.0677897 -0.00789718 ) 85
( 0.30928 -0.0902034 -0.0230756 ) 56
( 0.409953 -0.0237853 -0.0198844 ) 77
( 0.306919 -0.0903339 0.0047023 ) 83
( 0.387009 -0.0721917 -0.0150877 ) 58
( 0.26754 -0.0205991 -0.00523914 ) 86
( 0.436524 -0.0156792 -0.0228065 ) 78
( 0.429494 -0.0425115 -0.0239277 ) 78
( 0.325743 -0.0901749 0.0107183 ) 83
( 0.367113 -0.0152066 -0.0205869 ) 76
( 0.267903 -0.0415475 -0.0232286 ) 72
( 0.388659 -0.0422308 -0.0773687 ) 22
( 0.449974 -0.0708449 -0.0450638 ) 43
( 0.284415 -0.0762546 -0.0424482 ) 55
( 0.421588 -0.0594459 -0.0840103 ) 15
( 0.304849 -0.0515329 -0.00826062 ) 85
( 0.439436 -0.0188662 -0.0807352 ) 24
( 0.490027 -0.0900351 -0.076257 ) 8
( 0.323207 -0.0903116 -0.00891428 ) 83
( 0.39888 -0.0696031 -0.035053 ) 68
( 0.406761 -0.0722211 -0.0170037 ) 59
( 0.264193 -0.0349645 -0.0580583 ) 45
( 0.464405 -0.0619404 -0.0668575 ) 43
( 0.481932 -0.0282705 -0.0631378 ) 53
( 0.342453 -0.0605789 -0.0763498 ) 12
( 0.256022 -0.090092 -0.0589373 ) 27
( 0.32867 -0.0234631 -0.0618611 ) 47
( 0.447309 -0.0754059 -0.0260546 ) 61
( 0.35775 -0.0453368 -0.0340188 ) 66
( 0.471737 -0.0393053 -0.0784543 ) 25
( 0.490263 -0.0697226 -0.0238402 ) 71
( 0.413109 -0.0902444 -0.0224566 ) 59
( 0.256055 -0.0567207 -0.0182929 ) 63
( 0.334452 -0.0726482 -0.0232327 ) 57
( 0.353979 -0.074811 -0.0216059 ) 57
( 0.254547 -0.0900421 -0.0275684 ) 54
( 0.286327 -0.0347052 -0.0286792 ) 73
( 0.311187 -0.0738145 -0.00533341 ) 83
( 0.315031 -0.0715929 -0.0265588 ) 56
( 0.293622 -0.0461797 0.0070655 ) 85
( 0.471652 -0.0761465 -0.024056 ) 61
( 0.43489 -0.0904051 -0.0248464 ) 60
( 0.335107 -0.0386014 -0.0157889 ) 75
( 0.411351 -0.0507812 -0.0264871 ) 68
( 0.365285 -0.0901973 -0.0274081 ) 58
( 0.391276 -0.0549824 -0.0238887 ) 68
( 0.29343 -0.0517994 -0.0775918 ) 10
( 0.250146 -0.079997 -0.076917 ) 0
( 0.343849 -0.0901404 -0.0785023 ) 3
( 0.440685 -0.0602207 -0.0899602 ) 15
( 0.490037 -0.0733758 -0.087263 ) 8
( 0.386948 -0.0225531 -0.0830933 ) 22
( 0.304647 -0.0894995 -0.0782816 ) 1
( 0.469378 -0.0693283 -0.086379 ) 16
( 0.424639 -0.0317337 -0.0843707 ) 24
( 0.370015 -0.0377119 -0.0827358 ) 22
( 0.395915 -0.0573358 -0.0880612 ) 14
( 0.329729 -0.0365161 -0.0857927 ) 20
( 0.263492 -0.047377 -0.0818484 ) 9
( 0.296716 -0.0717498 -0.0828658 ) 1
( 0.297639 -0.0336193 -0.0845223 ) 19
( 0.333822 -0.0750936 -0.0869411 ) 3
( 0.286846 -0.0896316 -0.087979 ) 1
( 0.368983 -0.0900567 -0.0816507 ) 4
( 0.322652 -0.0586089 -0.0884153 ) 11
( 0.350457 -0.0399089 -0.0862226 ) 21
( 0.276765 -0.0304669 -0.0892382 ) 18
( 0.310656 -0.0163937 -0.0893766 ) 20
)
