/*--------------------------------*- C++ -*----------------------------------*\
  =========                 |
  \\      /  F ield         | OpenFOAM: The Open Source CFD Toolbox
   \\    /   O peration     | Website:  https://openfoam.org
    \\  /    A nd           | Version:  4.x
     \\/     M anipulation  |
\*---------------------------------------------------------------------------*/
FoamFile
{
    version     2.0;
    format      ascii;
    class       vectorField;
    location    0;
    object      v;
}
// * * * * * * * * * * * * * * * * * * * * * * * * * * * * * * * * * * * * * //

236
(
( -7.00985e-07 2.06555e-08 1.2394e-07 )  
( -8.22375e-07 1.15512e-08 2.07404e-07 )  
( -5.16659e-07 7.67497e-08 1.60003e-07 )  
( -5.73814e-07 7.51517e-08 1.24285e-07 )  
( -8.22314e-07 2.13032e-08 1.42631e-07 )  
( -8.42842e-07 -7.98228e-08 5.47649e-08 )  
( -7.03549e-07 3.28774e-08 2.43506e-08 )  
( -8.62501e-07 -3.06847e-08 7.70027e-08 )  
( -5.90459e-07 -3.94505e-09 3.10038e-08 )  
( -3.61318e-07 -4.33245e-08 -2.33952e-08 )  
( -9.10125e-07 1.63408e-07 -1.60082e-07 )  
( -1.81456e-07 2.03665e-08 5.71118e-08 )  
( -5.27713e-07 7.95232e-09 2.45108e-08 )  
( -8.61295e-07 7.83762e-08 7.49536e-08 )  
( -8.11274e-08 7.66402e-08 1.58385e-08 )  
( -3.93989e-07 9.07585e-08 1.63842e-08 )  
( -9.11889e-07 5.75625e-09 8.89839e-08 )  
( -1.03687e-06 1.93469e-08 -4.22268e-08 )  
( -9.7324e-08 2.32224e-09 2.67053e-08 )  
( -2.10476e-07 1.53232e-08 9.6643e-08 )  
( -1.28848e-07 1.46305e-08 2.99192e-07 )  
( -8.93506e-07 1.92228e-09 1.35162e-07 )  
( -8.13728e-08 -2.32429e-08 2.9218e-08 )  
( -3.39975e-07 -1.03974e-08 6.38357e-08 )  
( -8.5691e-07 1.50415e-08 3.06485e-08 )  
( -3.42938e-07 1.17099e-08 1.01078e-07 )  
( -8.03763e-07 7.99401e-08 5.78149e-08 )  
( -5.44923e-07 -1.11342e-08 7.93219e-08 )  
( 2.74711e-08 -7.55423e-09 3.54146e-08 )  
( -7.29767e-07 -1.76953e-08 -3.60767e-08 )  
( -5.63392e-07 -5.9348e-09 -3.01387e-08 )  
( -8.03665e-07 2.41963e-08 4.41086e-08 )  
( -6.97346e-07 -1.06017e-08 1.26797e-07 )  
( -1.45325e-07 3.55621e-08 5.77604e-08 )  
( -1.14892e-06 4.49005e-08 -9.11478e-09 )  
( -3.08925e-07 -8.48435e-09 1.18259e-07 )  
( -9.34843e-07 2.46379e-08 1.75698e-08 )  
( -2.66222e-07 -2.84655e-08 1.73011e-07 )  
( -1.0116e-06 5.50409e-08 -6.41404e-09 )  
( -8.55167e-07 3.27556e-08 -2.2061e-09 )  
( -4.19307e-07 -4.72599e-08 1.27159e-07 )  
( -2.2007e-07 -1.19885e-08 7.96766e-08 )  
( 7.81232e-08 6.39523e-09 3.11867e-07 )  
( -9.74317e-07 -6.0228e-09 5.15716e-08 )  
( -9.52062e-07 -2.35724e-08 4.76638e-08 )  
( -1.85834e-07 -1.65006e-08 1.13859e-07 )  
( -2.68041e-07 6.61017e-09 1.86e-07 )  
( 2.61341e-08 6.91473e-09 2.20031e-10 )  
( -3.08625e-07 -1.35063e-08 3.36783e-07 )  
( -2.24034e-07 4.00571e-09 1.28442e-07 )  
( -2.17138e-07 4.6748e-08 1.49204e-07 )  
( -3.3945e-07 -3.60324e-07 1.96113e-07 )  
( -8.30179e-07 -3.74209e-08 1.02529e-07 )  
( -4.88847e-07 1.91172e-08 1.22321e-07 )  
( -9.88007e-08 -3.18616e-08 -5.94984e-09 )  
( -2.65906e-07 7.81124e-09 9.164e-08 )  
( -6.77282e-07 7.22541e-08 1.08444e-07 )  
( -1.49357e-07 -2.93822e-08 7.53217e-08 )  
( -3.16355e-07 2.28789e-08 -3.05615e-08 )  
( -5.86964e-07 -9.38728e-08 2.58872e-08 )  
( -1.05702e-06 4.82318e-08 -4.62985e-09 )  
( -2.83686e-07 -6.2299e-09 9.01071e-08 )  
( -8.77312e-07 -1.31179e-08 1.88145e-07 )  
( -4.60438e-07 -3.19121e-08 1.03781e-07 )  
( -2.4978e-07 1.41257e-08 1.28189e-07 )  
( -6.12252e-07 9.84928e-08 -1.77749e-07 )  
( -6.03645e-07 2.43397e-08 -6.71974e-08 )  
( -4.92397e-07 2.24438e-10 1.23904e-08 )  
( -3.30763e-07 4.78878e-08 4.00111e-07 )  
( -6.94357e-07 -3.0905e-08 1.22248e-07 )  
( -1.5677e-07 -5.46086e-08 1.35201e-07 )  
( -2.53948e-07 1.38123e-08 7.25424e-08 )  
( -7.20234e-07 -5.32024e-08 2.00226e-08 )  
( -8.76835e-07 -8.97342e-09 -4.99796e-08 )  
( -3.04827e-07 8.81391e-09 4.19885e-08 )  
( -1.51856e-07 -1.16681e-08 2.89288e-07 )  
( -3.3495e-07 1.41886e-07 7.80341e-07 )  
( -4.31259e-07 9.38182e-08 5.10738e-07 )  
( -8.92353e-07 -3.77037e-08 1.33038e-07 )  
( -1.61174e-07 -8.51072e-09 7.92949e-08 )  
( -5.50114e-07 2.31754e-08 2.45826e-07 )  
( -8.3167e-07 -2.57115e-09 -6.89627e-08 )  
( -9.7729e-07 -2.28998e-08 7.24068e-08 )  
( -6.80611e-07 1.06005e-07 -1.1832e-07 )  
( -3.93378e-07 7.65364e-08 1.94639e-08 )  
( -2.27944e-07 5.26206e-08 2.51263e-07 )  
( 1.83282e-08 4.35559e-07 5.29521e-07 )  
( -9.16237e-07 4.36073e-08 -2.18417e-08 )  
( -9.61049e-07 1.44059e-08 7.11931e-08 )  
( -6.06846e-07 1.03969e-07 1.51106e-07 )  
( -4.12224e-07 -2.47581e-08 8.84933e-08 )  
( -7.59566e-07 5.31407e-08 1.74569e-07 )  
( -1.81437e-07 -1.71832e-09 8.93384e-08 )  
( -3.63568e-07 1.23927e-07 2.45702e-08 )  
( -2.48906e-08 -3.03337e-09 4.45964e-08 )  
( -6.75968e-07 -6.94972e-08 8.01432e-08 )  
( -2.96438e-07 -2.13114e-08 7.50983e-08 )  
( -4.36718e-07 -2.08735e-08 -7.13034e-08 )  
( -6.26297e-08 8.52211e-08 1.0861e-07 )  
( -1.89947e-07 2.41819e-08 1.64409e-07 )  
( -4.6774e-07 -5.48389e-08 1.21484e-07 )  
( -8.11009e-07 4.45013e-08 -8.54263e-08 )  
( -4.47945e-07 3.92579e-08 2.77155e-07 )  
( -9.16671e-07 5.37855e-08 8.00981e-08 )  
( -2.71023e-07 7.54736e-08 3.11335e-07 )  
( -2.99298e-07 -3.26478e-08 -4.38291e-08 )  
( -2.69166e-07 8.65549e-08 8.24726e-08 )  
( -9.6743e-08 7.33259e-08 3.11714e-07 )  
( -3.70639e-07 -8.15779e-08 1.72057e-07 )  
( -7.40012e-08 6.7615e-08 6.99981e-08 )  
( -8.58646e-07 -4.98958e-09 1.36001e-07 )  
( -1.39869e-07 1.046e-07 6.97119e-08 )  
( -3.07129e-07 -1.36162e-08 9.29507e-08 )  
( -2.48606e-07 -1.31433e-09 1.73551e-07 )  
( -1.18226e-06 5.78588e-08 -9.36489e-09 )  
( -4.07159e-05 -1.77172e-06 2.25681e-06 )  
( 5.45788e-08 -2.98119e-08 9.03687e-08 )  
( -1.57405e-07 1.67432e-08 1.01503e-07 )  
( -2.29349e-07 5.76012e-08 1.35527e-08 )  
( -1.57268e-07 2.96254e-09 1.06189e-07 )  
( -7.29498e-07 -3.40621e-08 1.12023e-07 )  
( -2.57396e-07 7.12502e-10 1.02614e-07 )  
( -7.32589e-07 4.60855e-09 9.65475e-08 )  
( -7.7652e-07 -1.30649e-09 8.66742e-08 )  
( -1.02497e-07 -6.22701e-09 1.13073e-10 )  
( -7.52975e-07 9.61419e-09 1.3812e-07 )  
( -6.57719e-07 1.10468e-07 -4.99736e-08 )  
( -2.97361e-07 1.43184e-08 -1.49324e-08 )  
( -3.86933e-07 -2.78729e-08 1.61239e-07 )  
( -8.09016e-07 -3.00892e-08 8.86444e-08 )  
( -6.75871e-07 -2.41578e-08 1.1216e-08 )  
( -2.10208e-07 -3.79086e-09 3.93217e-07 )  
( -5.36822e-07 3.93737e-08 1.66568e-07 )  
( -6.3681e-07 1.49673e-08 2.08993e-07 )  
( -3.95567e-07 2.42324e-08 1.78841e-07 )  
( -5.89818e-07 2.5914e-08 1.96219e-07 )  
( -3.40758e-07 -2.90042e-08 4.6806e-08 )  
( -6.07455e-07 1.23016e-07 -1.06997e-08 )  
( -7.79957e-07 2.00481e-07 -9.26887e-08 )  
( -3.05979e-07 1.65324e-07 4.40497e-08 )  
( -1.0607e-07 -8.20353e-08 2.02951e-07 )  
( 3.66475e-08 -7.79832e-10 2.4706e-08 )  
( -1.07096e-06 3.95326e-08 -8.34692e-08 )  
( -1.04437e-06 -2.68034e-08 4.71068e-08 )  
( -2.03046e-07 2.48087e-08 6.73532e-08 )  
( -1.77188e-07 -1.16472e-11 7.6012e-08 )  
( 4.99209e-08 -4.23576e-08 6.61432e-08 )  
( -9.13457e-07 -7.80469e-09 4.80323e-08 )  
( -6.84544e-07 -7.30347e-08 6.61406e-08 )  
( -6.32339e-07 6.5403e-08 -1.97131e-08 )  
( -2.21863e-07 2.70346e-08 5.01732e-08 )  
( -2.83531e-07 -7.43326e-08 1.0154e-07 )  
( -1.54214e-07 -4.7561e-09 6.01214e-08 )  
( -8.7219e-07 -2.53309e-08 7.91502e-08 )  
( -1.45107e-07 3.93076e-08 9.73749e-08 )  
( -4.59951e-07 -1.56658e-07 1.81503e-08 )  
( -4.91318e-07 6.5033e-08 7.90845e-10 )  
( -7.69983e-07 -5.94132e-08 7.31457e-08 )  
( -3.14216e-07 4.75531e-08 3.0215e-08 )  
( -2.06087e-07 2.57372e-08 5.42947e-08 )  
( -7.11765e-07 1.42852e-07 1.22703e-08 )  
( -8.43019e-07 7.15626e-09 7.75857e-08 )  
( -1.51085e-07 -9.16427e-09 6.10003e-08 )  
( -3.94621e-07 -1.63364e-08 7.3659e-08 )  
( -7.82263e-07 -3.16429e-08 9.64583e-08 )  
( -8.07122e-07 -8.77983e-08 4.02754e-08 )  
( -8.85216e-07 -8.37187e-09 -6.90137e-09 )  
( -7.22384e-07 -2.16359e-08 8.42798e-08 )  
( -7.27619e-07 -4.17664e-08 1.06305e-07 )  
( -2.83466e-07 -1.40077e-07 7.20193e-08 )  
( -4.78388e-07 1.48451e-08 6.10176e-09 )  
( -2.77002e-07 -5.20498e-08 6.07758e-08 )  
( -3.08344e-07 8.38812e-08 1.25849e-08 )  
( -8.76533e-07 -5.07861e-08 7.60138e-08 )  
( -2.98683e-07 -1.60871e-08 3.31441e-08 )  
( -2.41545e-07 -2.84943e-08 7.43793e-08 )  
( -2.33545e-07 -3.95645e-08 1.89587e-08 )  
( -7.89865e-07 7.48924e-10 -1.77262e-08 )  
( -8.44328e-07 -1.24206e-08 9.58955e-08 )  
( -8.31367e-07 -5.70921e-08 -2.0855e-08 )  
( -5.8534e-08 -2.55761e-08 9.01002e-08 )  
( -7.06383e-07 6.12989e-08 1.30348e-07 )  
( -4.00026e-07 1.84661e-08 9.83145e-08 )  
( -7.86553e-07 -2.08255e-08 7.23754e-08 )  
( -4.08448e-07 -1.11498e-08 1.72935e-07 )  
( 2.23768e-07 3.82835e-07 6.36776e-07 )  
( -2.88717e-07 -1.5451e-08 3.73001e-08 )  
( -1.94283e-07 5.03838e-08 3.62639e-08 )  
( -2.10839e-07 1.12356e-08 6.69136e-08 )  
( -8.20651e-07 1.43561e-08 1.21944e-07 )  
( -2.8789e-07 1.56366e-08 2.38984e-07 )  
( -1.39363e-07 3.24798e-08 4.34433e-07 )  
( -9.90963e-07 3.36506e-08 -2.28236e-08 )  
( -3.10482e-07 1.2004e-07 9.97998e-08 )  
( -1.07452e-06 -6.04287e-08 5.21797e-08 )  
( -1.08155e-07 4.32852e-11 6.38956e-08 )  
( -8.80074e-07 3.04089e-08 2.09318e-08 )  
( -1.44472e-07 -3.95155e-08 3.34268e-07 )  
( -1.65651e-08 -4.63353e-08 8.60427e-08 )  
( -1.04169e-07 -6.66642e-09 2.75937e-08 )  
( -7.8207e-07 -2.82229e-08 5.45493e-08 )  
( -5.8984e-07 4.87225e-08 7.42978e-08 )  
( -4.86235e-07 1.02947e-07 1.71512e-08 )  
( -3.17145e-07 3.40567e-08 2.77262e-08 )  
( -8.65963e-07 -3.10394e-08 1.04187e-07 )  
( -6.48014e-07 1.16541e-08 1.03556e-07 )  
( -6.45132e-07 -3.57866e-08 1.54708e-07 )  
( -7.81835e-07 -4.40036e-08 8.7832e-08 )  
( -3.23551e-08 -5.0086e-09 1.19249e-07 )  
( -6.97766e-08 -1.45241e-08 4.14277e-08 )  
( -8.7101e-07 1.25678e-08 4.30369e-08 )  
( -3.19039e-07 3.73799e-08 8.32112e-08 )  
( -2.3351e-07 4.64587e-08 1.65755e-08 )  
( -3.28402e-07 5.48342e-08 -5.98682e-08 )  
( -7.16307e-07 5.75621e-09 1.12034e-07 )  
( -3.12095e-07 1.17068e-07 1.44898e-07 )  
( -4.75733e-07 3.53245e-08 -8.37908e-08 )  
( -1.48556e-07 -6.98215e-08 1.88413e-07 )  
( 2.1709e-07 5.59154e-07 1.16072e-06 )  
( -1.00848e-06 9.71321e-09 -6.30057e-08 )  
( -5.58477e-07 1.28493e-07 2.09641e-07 )  
( 5.02191e-08 1.14827e-07 2.68816e-07 )  
( -4.29459e-07 -4.8451e-09 2.18134e-07 )  
( -9.69971e-07 -9.13133e-08 -2.93791e-08 )  
( -4.73242e-07 -4.85457e-08 1.31817e-07 )  
( -1.68728e-06 4.65938e-07 3.21209e-09 )  
( -5.87587e-07 -6.90514e-09 9.24086e-08 )  
( -5.63257e-07 8.4819e-08 2.55618e-07 )  
( -9.88196e-07 1.76021e-08 3.19428e-08 )  
( -8.60678e-07 -4.19691e-08 -4.61894e-08 )  
( 1.65516e-06 1.02094e-05 5.58854e-07 )  
( -3.57285e-07 8.78971e-08 1.54495e-07 )  
( -9.75855e-07 -6.82947e-08 8.91471e-08 )  
( -1.16329e-06 8.55823e-09 -4.97152e-08 )  
( -8.70377e-07 -3.33789e-08 1.07175e-07 )  
( -1.05755e-06 -3.30986e-08 4.46505e-08 )  
)
