/*--------------------------------*- C++ -*----------------------------------*\
  =========                 |
  \\      /  F ield         | OpenFOAM: The Open Source CFD Toolbox
   \\    /   O peration     | Website:  https://openfoam.org
    \\  /    A nd           | Version:  4.x
     \\/     M anipulation  |
\*---------------------------------------------------------------------------*/
FoamFile
{
    version     2.0;
    format      ascii;
    class       Cloud<passiveParticle>;
    location    0;
    object      positions;
}
// * * * * * * * * * * * * * * * * * * * * * * * * * * * * * * * * * * * * * //

310
(
( 0.211684 -0.00560235 -0.0726889 ) 4
( 0.187193 -0.00943512 -0.0456942 ) 34
( 0.223571 -0.0130746 -0.0586382 ) 36
( 0.20316 -0.013661 -0.0353174 ) 64
( 0.235671 -0.00380135 -0.0713253 ) 36
( 0.220519 -0.00514311 -0.0324761 ) 64
( 0.1767 -0.00935445 -0.0624122 ) 34
( 0.23611 -0.00905636 -0.0438819 ) 36
( 0.205835 -0.00152641 -0.0507371 ) 35
( 0.167689 -0.0112911 -0.0446908 ) 34
( 0.226407 -0.0111478 -0.0147396 ) 65
( 0.225341 0.0300849 -0.0273529 ) 74
( 0.0458032 0.0271913 -0.0469683 ) 38
( 0.215243 0.037624 -0.0425788 ) 73
( 0.185457 0.0222804 -0.0700941 ) 43
( 0.113585 0.0388511 -0.0534923 ) 41
( 0.0323515 0.0742096 -0.0323393 ) 85
( 0.201913 0.0641006 -0.0451031 ) 53
( 0.212479 0.0179981 -0.0410437 ) 73
( 0.0749708 0.0448071 -0.0509559 ) 48
( 0.0698131 0.0214957 -0.0471446 ) 39
( 0.0323168 0.0515489 -0.0611194 ) 47
( 0.173559 0.0184023 -0.0546817 ) 43
( 0.125991 0.0707832 -0.0485183 ) 50
( 0.0266331 0.0590172 -0.0436366 ) 46
( 0.0238078 0.0902949 -0.039919 ) 84
( 0.0433262 0.0901326 -0.054364 ) 56
( 0.062567 0.0501656 -0.0659345 ) 48
( 0.0782932 0.0721548 -0.0575367 ) 57
( 0.138086 0.0576154 -0.0571975 ) 50
( 0.180736 0.0551968 -0.0492821 ) 52
( 0.0592832 0.0312515 -0.0608978 ) 39
( 0.203313 0.00506165 -0.0291821 ) 64
( 0.100209 0.0434161 -0.034908 ) 78
( 0.0790541 0.0455021 -0.0254566 ) 77
( 0.239353 0.0524653 -0.0725212 ) 23
( 0.157021 0.0557705 -0.0683012 ) 51
( 0.216008 0.0776825 -0.0410421 ) 91
( 0.244129 0.0826056 -0.0399058 ) 92
( 0.168172 0.0665533 -0.0389526 ) 81
( 0.0925838 0.0600503 -0.0672983 ) 49
( 0.145358 0.0710978 -0.0444832 ) 51
( 0.111005 0.0824322 -0.0427739 ) 87
( 0.154482 0.0565539 -0.0289768 ) 80
( 0.136402 0.0382065 -0.0531666 ) 41
( 0.210528 0.0742366 -0.0597894 ) 62
( 0.0254592 0.0819978 -0.057811 ) 55
( 0.186324 0.0389648 -0.0593088 ) 43
( 0.185197 0.0889659 -0.070948 ) 61
( 0.16888 0.0901216 -0.0375185 ) 90
( 0.223462 0.0641701 -0.0708753 ) 54
( 0.118376 0.0217996 -0.062373 ) 41
( 0.114036 0.0888455 -0.0613571 ) 59
( 0.0724913 0.0629151 -0.0321218 ) 77
( 0.0925728 0.0772657 -0.0356214 ) 87
( 0.133794 0.0243536 -0.0392077 ) 70
( 0.196424 0.0526601 -0.069666 ) 53
( 0.144945 0.00354334 -0.0699928 ) 33
( 0.218514 0.0258869 -0.0583255 ) 44
( 0.0270953 0.0248083 -0.0326862 ) 66
( 0.09965 0.0176755 -0.0675157 ) 40
( 0.0901332 0.0248107 -0.0214949 ) 69
( 0.125575 0.0399825 -0.0697634 ) 41
( 0.124141 0.0635334 -0.027855 ) 79
( 0.00983676 0.0177907 -0.0395178 ) 66
( 0.106597 0.0460269 -0.0707961 ) 49
( 0.058163 0.0798826 -0.0461587 ) 57
( 0.100054 0.0251747 -0.0491451 ) 40
( 0.154559 0.0242547 -0.052508 ) 42
( 0.225892 0.0635894 -0.0510067 ) 54
( 0.157152 0.00536548 -0.0468844 ) 33
( 0.181813 0.0316157 -0.0414365 ) 72
( 0.202752 0.0124658 -0.0703882 ) 35
( 0.088224 0.0572327 -0.0427475 ) 78
( 0.0978105 0.0749241 -0.0553252 ) 58
( 0.124743 0.051733 -0.0437071 ) 50
( 0.0900127 0.0619843 -0.0230692 ) 78
( 0.191316 0.07114 -0.0642702 ) 52
( 0.231555 0.0689423 -0.0326842 ) 83
( 0.034934 0.041695 -0.0389901 ) 67
( 0.144585 0.073157 -0.0678338 ) 60
( 0.0619433 0.0465819 -0.03607 ) 77
( 0.0762485 0.0886044 -0.0352404 ) 86
( 0.155603 0.054544 -0.0485632 ) 51
( 0.00997562 0.0726672 -0.0468575 ) 55
( 0.193089 0.0220154 -0.0284632 ) 72
( 0.0379539 0.0181541 -0.0644882 ) 38
( 0.136029 0.0455731 -0.0287416 ) 79
( 0.00989938 0.0813165 -0.029017 ) 84
( 0.0108269 0.0545519 -0.0549747 ) 46
( 0.169414 0.0439054 -0.0320899 ) 81
( 0.0567498 0.0722449 -0.064482 ) 57
( 0.151058 0.0900394 -0.0594875 ) 60
( 0.0282725 0.0329046 -0.0554561 ) 38
( 0.114724 0.0289907 -0.0362556 ) 70
( 0.230087 0.0120962 -0.0341009 ) 65
( 0.248906 0.0607991 -0.0242817 ) 83
( 0.0279792 0.0556815 -0.0187709 ) 76
( 0.24211 0.0555912 -0.0425682 ) 83
( 0.0960167 0.0900454 -0.0694636 ) 58
( 0.165492 0.0708271 -0.0581216 ) 51
( 0.188531 0.0902886 -0.0347843 ) 90
( 0.232123 0.0279725 -0.0742831 ) 14
( 0.239165 0.016066 -0.0600167 ) 45
( 0.196787 0.0449607 -0.0435048 ) 53
( 0.164548 0.0285308 -0.0691849 ) 42
( 0.0637738 0.0612415 -0.0495945 ) 48
( 0.24762 0.0106214 -0.0429042 ) 36
( 0.18499 0.0743416 -0.0457792 ) 61
( 0.083605 0.0270163 -0.0603234 ) 40
( 0.171237 0.0773749 -0.022634 ) 90
( 0.167547 0.0393938 -0.0528037 ) 43
( 0.176807 0.0581049 -0.0685467 ) 52
( 0.114118 0.0902913 -0.0250458 ) 88
( 0.227159 0.0901906 -0.029912 ) 92
( 0.165956 0.0204049 -0.0366484 ) 71
( 0.205053 0.090134 -0.0702507 ) 62
( 0.188985 0.00641424 -0.0574795 ) 34
( 0.120889 0.0661729 -0.0671566 ) 50
( 0.0586633 0.0274644 -0.0318738 ) 68
( 0.0473231 0.0567637 -0.0272782 ) 76
( 0.0844229 0.0320221 -0.0390014 ) 69
( 0.249987 0.0885779 -0.0220559 ) 92
( 0.00990979 0.0284658 -0.0677903 ) 37
( 0.222478 0.011016 -0.0709458 ) 36
( 0.132878 0.0897356 -0.0675783 ) 59
( 0.0490722 0.0481958 -0.0510719 ) 47
( 0.163373 0.0824838 -0.0740688 ) 29
( 0.185491 0.0613883 -0.0308171 ) 81
( 0.00970336 0.035684 -0.0493385 ) 37
( 0.207264 0.0900347 -0.028288 ) 91
( 0.211418 0.0510735 -0.0566493 ) 53
( 0.085455 0.0901582 -0.0526877 ) 58
( 0.233408 0.0281677 -0.045344 ) 45
( 0.202916 0.0329427 -0.0685066 ) 44
( 0.12875 0.090264 -0.0481061 ) 59
( 0.0549082 0.073221 -0.0190741 ) 85
( 0.0355579 0.0693645 -0.0693272 ) 47
( 0.23147 0.0450421 -0.0556963 ) 54
( 0.0282748 0.090155 -0.0195275 ) 85
( 0.228737 0.0900959 -0.0498776 ) 63
( 0.14917 0.0901874 -0.0397254 ) 89
( 0.0104555 0.0351334 -0.0297523 ) 66
( 0.15152 0.0373485 -0.0379474 ) 71
( 0.143542 0.027782 -0.0686236 ) 42
( 0.043372 0.067298 -0.0504425 ) 47
( 0.167838 0.00693045 -0.069903 ) 34
( 0.170846 0.0900642 -0.0572355 ) 61
( 0.196894 0.0238364 -0.0518437 ) 44
( 0.137191 0.0900797 -0.0227785 ) 88
( 0.0527864 0.02731 -0.0050467 ) 94
( 0.135547 0.0700969 6.04404e-05 ) 105
( 0.0833101 0.0549696 -0.00356474 ) 103
( 0.0894882 0.0423301 0.0105422 ) 96
( 0.217892 0.0165958 0.011292 ) 100
( 0.114857 0.0250219 0.00870297 ) 97
( 0.0430465 0.0347636 0.0105333 ) 94
( 0.110203 0.0412445 -0.0020693 ) 96
( 0.175685 0.0361705 -0.0120407 ) 99
( 0.168904 0.0486553 0.00176105 ) 107
( 0.191246 0.0822023 -0.0167912 ) 90
( 0.125049 0.0510788 0.00636197 ) 105
( 0.153948 0.0394139 0.010828 ) 98
( 0.0490194 0.0902058 0.00757911 ) 109
( 0.125275 0.023433 -0.00779929 ) 97
( 0.0098551 0.0488477 0.00689224 ) 101
( 0.0110376 0.0659964 -0.0165301 ) 75
( 0.10339 0.0901088 -0.00349766 ) 111
( 0.15902 0.068194 -0.0100096 ) 106
( 0.193403 0.0595753 -0.0127773 ) 107
( 0.0293387 0.0881052 0.00603962 ) 109
( 0.0272737 0.043413 -0.00310236 ) 101
( 0.0907434 0.0902265 0.0119014 ) 111
( 0.0756514 0.0182148 0.00723251 ) 95
( 0.0628652 0.0800451 -0.00215633 ) 110
( 0.207143 0.0272439 -0.00112386 ) 100
( 0.133968 0.0427895 -0.00903603 ) 97
( 0.0582164 0.0697183 0.0138764 ) 103
( 0.00989985 0.0682371 0.00298047 ) 101
( 0.124303 0.0776402 -0.0140647 ) 112
( 0.23246 0.078078 -0.0152639 ) 92
( 0.162204 0.0798812 0.0055742 ) 113
( 0.163709 0.0259434 0.000279169 ) 98
( 0.145169 0.0901198 0.00640239 ) 113
( 0.0953158 0.0239167 0.00530254 ) 96
( 0.0643752 0.0605426 -0.00573565 ) 103
( 0.020126 0.0274386 -0.014406 ) 66
( 0.0466426 0.0898351 -0.0119483 ) 109
( 0.066338 0.0371133 0.00534649 ) 95
( 0.0928257 0.0732023 -0.00374037 ) 111
( 0.0532275 0.0515937 0.00795861 ) 102
( 0.105755 0.0730518 -0.0187592 ) 87
( 0.153688 0.0900481 -0.0115729 ) 113
( 0.029241 0.0233626 0.00244685 ) 94
( 0.14255 0.0275996 0.000289077 ) 98
( 0.22112 0.037053 0.00870716 ) 100
( 0.15321 0.0467102 -0.0119662 ) 106
( 0.117007 0.0594713 -0.00966105 ) 105
( 0.0770316 0.0702171 0.00779608 ) 103
( 0.0110958 0.0868716 -0.00999329 ) 108
( 0.0803858 0.0891397 -0.00479948 ) 110
( 0.191391 0.0389673 -0.000742796 ) 99
( 0.125038 0.0903339 0.000709108 ) 112
( 0.211771 0.0529973 -0.0157022 ) 82
( 0.108989 0.0286568 -0.0172536 ) 69
( 0.082445 0.0340369 -0.00582664 ) 95
( 0.101136 0.0573483 0.0049138 ) 104
( 0.182759 0.0210219 -0.000701835 ) 99
( 0.0361315 0.0604918 0.00211795 ) 102
( 0.178964 0.0712739 -0.00558827 ) 107
( 0.00975743 0.0442871 -0.012291 ) 101
( 0.107835 0.0577689 -0.054727 ) 49
( 0.00985838 0.0901754 -0.067098 ) 55
( 0.216769 0.0558414 -0.0346883 ) 82
( 0.139937 0.0605883 -0.0164455 ) 80
( 0.0518196 0.0144503 0.0101096 ) 94
( 0.00984095 0.0296386 0.00233432 ) 93
( 0.00991347 0.0901381 0.00950001 ) 108
( 0.0702422 0.0230063 -0.0165263 ) 68
( 0.221042 0.0444453 -0.072732 ) 22
( 0.0499598 0.0901377 -0.0314066 ) 85
( 0.158673 -0.0107602 -0.0703169 ) 33
( 0.00983631 0.0560922 -0.0336443 ) 75
( 0.228119 0.0901253 -0.0697345 ) 63
( 0.0942752 0.0431362 -0.0554185 ) 49
( 0.224315 0.0056188 -0.0518934 ) 36
( 0.217714 0.0137877 -0.0187643 ) 64
( 0.231012 0.0582093 -0.0160233 ) 83
( 0.0672135 0.0900609 -0.060682 ) 57
( 0.240981 0.0425465 -0.0230336 ) 74
( 0.105943 0.06255 -0.0355598 ) 78
( 0.145763 -0.00926748 -0.05414 ) 33
( 0.202659 0.0901035 -0.0487114 ) 62
( 0.139663 0.0278513 -0.0206307 ) 71
( 0.249427 -0.00447239 -0.0301257 ) 65
( 0.0928557 0.090053 -0.0203587 ) 87
( 0.116561 0.0456694 -0.02392 ) 79
( 0.150151 0.0575843 0.0040185 ) 106
( 0.150748 0.0759049 -0.026092 ) 89
( 0.159345 0.0304835 -0.0211183 ) 71
( 0.188418 0.0424326 -0.0257458 ) 72
( 0.114338 0.0737637 0.00387716 ) 112
( 0.0407405 0.0312946 -0.0201027 ) 67
( 0.0359007 0.0730591 -0.0129744 ) 109
( 0.173218 0.0166525 -0.0176232 ) 72
( 0.175309 0.06414 0.0124132 ) 107
( 0.173067 0.0556272 -0.0163807 ) 81
( 0.0961182 0.0446761 -0.0154343 ) 78
( 0.0755594 0.0734956 -0.0158241 ) 86
( 0.205452 0.0345786 -0.0193746 ) 73
( 0.203898 0.0703875 -0.0264756 ) 82
( 0.0637124 0.0415428 -0.0137183 ) 95
( 0.045356 0.0476414 -0.00976812 ) 102
( 0.065366 0.0902183 -0.0188648 ) 86
( 0.0117517 0.0704824 -0.0666423 ) 46
( 0.109961 0.0787276 -0.0781083 ) 27
( 0.178318 0.0403379 -0.0774982 ) 12
( 0.0290804 0.0316651 -0.0760856 ) 7
( 0.238057 0.0776452 -0.0815414 ) 32
( 0.199035 0.0750068 -0.0821789 ) 31
( 0.178445 -0.014172 -0.0816827 ) 3
( 0.0516491 0.0237934 -0.077698 ) 7
( 0.112328 0.029018 -0.0799353 ) 10
( 0.0685425 0.0163188 -0.0702882 ) 39
( 0.074687 0.0625888 -0.0755752 ) 17
( 0.13897 0.0534807 -0.0765832 ) 20
( 0.218362 0.0793534 -0.0834217 ) 31
( 0.0166219 0.0466532 -0.0722201 ) 15
( 0.153532 0.0405084 -0.0806289 ) 11
( 0.0809722 0.0442231 -0.0701112 ) 48
( 0.0503939 0.0601681 -0.0789604 ) 16
( 0.154721 0.0164342 -0.0816053 ) 11
( 0.0456458 0.0419913 -0.0722946 ) 7
( 0.0457836 0.0859648 -0.0737268 ) 25
( 0.0852449 0.00825551 -0.0773878 ) 0
( 0.0787853 0.0820204 -0.0751282 ) 26
( 0.129673 0.0192507 -0.0800169 ) 10
( 0.133608 -0.00672611 -0.0827824 ) 1
( 0.160925 0.0659564 -0.0849591 ) 20
( 0.186188 0.00359195 -0.0770335 ) 3
( 0.0267532 0.0900562 -0.0774595 ) 24
( 0.234466 0.0125668 -0.0867808 ) 5
( 0.0882192 -0.0102116 -0.084216 ) 0
( 0.214343 0.0249135 -0.0827229 ) 13
( 0.018453 0.0161203 -0.0825141 ) 6
( 0.209947 0.0569956 -0.0836531 ) 22
( 0.0104509 0.0799837 -0.084168 ) 24
( 0.130491 0.0758535 -0.0817055 ) 28
( 0.0925946 0.031501 -0.079936 ) 9
( 0.0657454 0.0374533 -0.0809801 ) 8
( 0.120186 0.053977 -0.0830723 ) 19
( 0.0315305 0.0548244 -0.0826033 ) 16
( 0.179258 0.0730533 -0.0814672 ) 30
( 0.10192 0.0616945 -0.0847688 ) 18
( 0.196537 0.0407796 -0.0856812 ) 13
( 0.108554 0.00598852 -0.0809598 ) 0
( 0.146754 0.0900842 -0.0818326 ) 29
( 0.0626492 0.0901105 -0.083329 ) 26
( 0.233258 0.0420358 -0.0883504 ) 14
( 0.173347 0.0221994 -0.0859221 ) 12
( 0.0914381 0.0891518 -0.0888257 ) 27
( 0.0099137 0.06009 -0.0851962 ) 15
( 0.0108455 0.0343216 -0.0868107 ) 6
( 0.0375023 0.0143981 -0.0880905 ) 7
( 0.195448 0.0203472 -0.0872137 ) 13
( 0.0315031 0.0739828 -0.0882699 ) 25
( 0.0860954 0.0500938 -0.0884379 ) 18
( 0.0768916 0.0226376 -0.0884086 ) 8
( 0.134982 0.0370777 -0.0871845 ) 10
( 0.115098 -0.0111552 -0.0887688 ) 1
)
