/*--------------------------------*- C++ -*----------------------------------*\
  =========                 |
  \\      /  F ield         | OpenFOAM: The Open Source CFD Toolbox
   \\    /   O peration     | Website:  https://openfoam.org
    \\  /    A nd           | Version:  4.x
     \\/     M anipulation  |
\*---------------------------------------------------------------------------*/
FoamFile
{
    version     2.0;
    format      ascii;
    class       Cloud<passiveParticle>;
    location    0;
    object      positions;
}
// * * * * * * * * * * * * * * * * * * * * * * * * * * * * * * * * * * * * * //

325
(
( 0.0388974 -0.0811769 0.0294994 ) 1
( 0.0914178 -0.0733641 0.0223584 ) 3
( 0.244541 -0.0296841 0.0296434 ) 26
( 0.104176 -0.0622567 0.0322888 ) 12
( 0.12143 -0.040925 0.0239638 ) 22
( 0.069438 -0.02655 0.0234435 ) 20
( 0.0144497 -0.0313769 0.0342971 ) 18
( 0.00980135 -0.0204753 0.018537 ) 18
( 0.229919 -0.0151523 0.0288144 ) 26
( 0.0184229 -0.0623997 0.0159932 ) 9
( 0.241825 -0.00397731 0.0176427 ) 35
( 0.205119 -0.0421662 0.014678 ) 25
( 0.179979 -0.0292799 0.0209375 ) 24
( 0.24756 -0.0512763 0.018364 ) 17
( 0.239323 -0.0713175 0.025428 ) 17
( 0.126624 -0.0523174 0.0392957 ) 13
( 0.118173 -0.0743886 0.0483798 ) 40
( 0.0665585 -0.0449582 0.0295818 ) 11
( 0.0818314 -0.0414383 0.0178258 ) 20
( 0.13893 -0.00763867 0.0335534 ) 32
( 0.122768 -0.0693394 0.0297359 ) 13
( 0.169962 -0.0153806 0.0308566 ) 24
( 0.211004 -0.00889301 0.029753 ) 34
( 0.124235 -0.0216036 0.0208649 ) 22
( 0.0608981 -0.0900854 0.0331696 ) 2
( 0.20238 -0.020169 0.015957 ) 25
( 0.0346053 -0.0220714 0.016242 ) 19
( 0.232065 -0.0461477 0.0297792 ) 17
( 0.0977717 -0.0115636 0.033204 ) 30
( 0.197982 -0.0680342 0.0275844 ) 16
( 0.124257 -0.0284635 0.0393312 ) 22
( 0.0771897 -0.00605081 0.0280349 ) 29
( 0.193661 -0.0835927 0.0163662 ) 6
( 0.0537293 -0.0306969 0.0347661 ) 19
( 0.0764816 -0.0602326 0.0214446 ) 11
( 0.0506823 -0.0900268 0.0160856 ) 1
( 0.0599715 -0.0673914 0.0300362 ) 11
( 0.15344 -0.045277 0.0287397 ) 14
( 0.136731 -0.0530978 0.0221616 ) 13
( 0.180983 -0.0681726 0.0174377 ) 15
( 0.0316102 -0.0621425 0.0306673 ) 10
( 0.0485694 -0.0108309 0.0249357 ) 28
( 0.0293603 -0.0417694 0.0235011 ) 19
( 0.0876032 -0.0204072 0.0188318 ) 21
( 0.139617 -0.0768785 0.0223753 ) 5
( 0.184434 -0.0540378 0.0308281 ) 15
( 0.141107 -0.0318719 0.0210993 ) 23
( 0.113656 -0.0820006 0.0173095 ) 4
( 0.157671 -0.0837798 0.0270944 ) 5
( 0.0888214 -0.0435358 0.0384646 ) 12
( 0.067892 -0.079114 0.0163379 ) 2
( 0.106383 -0.014508 0.0156306 ) 21
( 0.151339 -0.0227553 0.0355251 ) 23
( 0.189662 -0.00731415 0.0363683 ) 33
( 0.21234 -0.0901759 0.0161581 ) 7
( 0.0963996 -0.0548675 0.0156373 ) 12
( 0.136031 -0.00514263 0.0144157 ) 31
( 0.00980049 -0.0747389 0.028328 ) 0
( 0.185181 -0.0100991 0.0172303 ) 33
( 0.00974512 -0.0568937 0.0369942 ) 9
( 0.0816028 -0.0225924 0.0382562 ) 20
( 0.1037 -0.0901085 0.0325606 ) 3
( 0.028432 -0.0173833 0.0353823 ) 19
( 0.196758 -0.0316388 0.0310407 ) 25
( 0.0475738 -0.036965 0.0172531 ) 19
( 0.216966 -0.0774854 0.0307077 ) 7
( 0.217065 -0.0301157 0.0251061 ) 25
( 0.164646 -0.059083 0.0369719 ) 14
( 0.22578 -0.0573647 0.0147979 ) 17
( 0.0841101 -0.0627884 0.0393481 ) 12
( 0.047827 -0.0508689 0.0310652 ) 10
( 0.118922 -0.00368206 0.0267005 ) 31
( 0.176226 -0.0902513 0.0229201 ) 6
( 0.108849 -0.044162 0.0386364 ) 12
( 0.0585494 -1.81655e-05 0.0382924 ) 29
( 0.154175 -0.0122154 0.019344 ) 32
( 0.249473 -0.0871922 0.0176788 ) 8
( 0.228529 0.00823725 0.0256027 ) 35
( 0.0660137 0.0126244 0.0236086 ) 29
( 0.18896 0.0101708 0.0260512 ) 33
( 0.0922261 0.00912837 0.0296031 ) 30
( 0.204074 0.00195066 0.0460872 ) 70
( 0.149667 0.0063672 0.0242747 ) 32
( 0.208882 0.0103233 0.0273274 ) 34
( 0.170553 0.00447295 0.0314242 ) 33
( 0.0353491 0.00430929 0.0405028 ) 28
( 0.212104 -0.0541281 0.0288186 ) 16
( 0.0194422 -0.0902692 0.0354952 ) 0
( 0.0994481 -0.0354148 0.0239096 ) 21
( 0.230759 -0.0903392 0.0233194 ) 8
( 0.0283394 -0.0901 0.0153092 ) 1
( 0.0800126 -0.0877424 0.0289741 ) 2
( 0.158743 -0.0655346 0.0194641 ) 14
( 0.0096041 -0.000933521 0.0156789 ) 27
( 0.00992127 -0.0452961 0.0211987 ) 9
( 0.116095 -0.0578667 0.0148899 ) 13
( 0.0257967 -0.0467205 0.0422941 ) 9
( 0.0289207 -0.00365941 0.0213407 ) 28
( 0.221711 0.0104618 0.0440475 ) 70
( 0.131838 -0.0558412 0.057782 ) 49
( 0.140864 -0.0729022 0.0542942 ) 41
( 0.168822 -0.0901592 0.042213 ) 6
( 0.15501 -0.00699417 0.0546485 ) 68
( 0.0335028 -0.0272214 0.0518911 ) 55
( 0.127684 -0.0900714 0.0562477 ) 40
( 0.0426356 -0.0769871 0.0597536 ) 37
( 0.167734 -0.0420876 0.0591509 ) 60
( 0.125959 -0.00920233 0.069185 ) 67
( 0.230832 -0.0235011 0.0596297 ) 62
( 0.0466766 -0.0574601 0.0615678 ) 46
( 0.116198 -0.0443707 0.0604107 ) 49
( 0.0859847 -0.0775256 0.0621396 ) 39
( 0.242553 -0.0904373 0.056112 ) 44
( 0.210361 -0.0331187 0.0605624 ) 61
( 0.246505 -0.0570513 0.0544217 ) 53
( 0.0742729 0.00021236 0.0625581 ) 65
( 0.0649213 -0.038064 0.065587 ) 56
( 0.203393 -0.0901119 0.0601206 ) 43
( 0.00990095 -0.0828548 0.0715197 ) 72
( 0.168464 0.0100631 0.0580932 ) 69
( 0.0719295 -0.063909 0.0605055 ) 47
( 0.186927 -0.0730635 0.0627103 ) 42
( 0.23438 -0.0727351 0.0540322 ) 44
( 0.148306 -0.0904995 0.0575135 ) 41
( 0.0901517 -0.0188857 0.0612431 ) 57
( 0.229574 -0.0473409 0.0515512 ) 53
( 0.209269 0.00978085 0.0654734 ) 70
( 0.175668 -0.00695692 0.0677206 ) 69
( 0.00968314 -0.0104001 0.0627297 ) 63
( 0.0663917 -0.0173295 0.0680577 ) 56
( 0.0270169 -0.0604865 0.0716134 ) 81
( 0.194954 -0.0145086 0.0547811 ) 61
( 0.149762 -0.0370751 0.0663808 ) 59
( 0.063948 -0.0902071 0.0565803 ) 38
( 0.166417 -0.0655447 0.0620713 ) 50
( 0.188565 -0.0334863 0.0595287 ) 60
( 0.104961 -0.0726556 0.0653671 ) 39
( 0.223223 -0.0906746 0.0613659 ) 44
( 0.249543 -0.00224625 0.0535155 ) 71
( 0.115476 -0.0247805 0.0589311 ) 58
( 0.0308666 0.00971464 0.0591192 ) 64
( 0.190929 0.0038027 0.0612064 ) 69
( 0.0882212 0.0130092 0.068575 ) 66
( 0.0878121 -0.0529177 0.0558619 ) 48
( 0.102261 -0.00181832 0.0563359 ) 66
( 0.118753 0.00797859 0.0612699 ) 67
( 0.211097 -0.056817 0.0505776 ) 52
( 0.0168615 -0.0267463 0.0715632 ) 90
( 0.0296164 -0.085177 0.0724896 ) 73
( 0.0266431 -0.00860886 0.0529457 ) 63
( 0.107722 -0.0899593 0.0554816 ) 39
( 0.15117 -0.0560542 0.0552687 ) 50
( 0.204945 -0.0900664 0.0403121 ) 7
( 0.215095 -0.0757039 0.052555 ) 43
( 0.14224 -0.0876191 0.0389575 ) 5
( 0.0630235 -0.0213771 0.0492836 ) 56
( 0.0755966 0.00955618 0.0403187 ) 29
( 0.00963966 -0.0454689 0.0630897 ) 45
( 0.099547 -0.0309925 0.0493543 ) 57
( 0.182602 -0.0245175 0.0430041 ) 60
( 0.12541 -0.0733608 0.0668206 ) 40
( 0.0628909 -0.055371 0.0455785 ) 47
( 0.0467305 -0.0304041 0.0679409 ) 55
( 0.227798 -0.0893551 0.0425591 ) 8
( 0.0702318 -0.0756602 0.0447292 ) 38
( 0.193888 -0.0476591 0.0469418 ) 51
( 0.0179754 -0.0611773 0.0543684 ) 45
( 0.215819 -0.00746138 0.0592611 ) 70
( 0.159332 -0.0198428 0.0690295 ) 59
( 0.134482 -0.0120371 0.0519538 ) 67
( 0.211128 -0.0395305 0.0419038 ) 25
( 0.0854747 -0.00568583 0.0474005 ) 66
( 0.133769 -0.0314788 0.0563047 ) 58
( 0.106135 -0.0588879 0.0515108 ) 48
( 0.151019 -0.0736194 0.0714147 ) 41
( 0.0456533 -0.0902914 0.0457036 ) 37
( 0.228584 -0.0304468 0.0412877 ) 26
( 0.0826844 -0.0905431 0.0479376 ) 38
( 0.177671 -0.0901377 0.0599328 ) 42
( 0.226638 -0.062487 0.0392849 ) 17
( 0.143648 -0.0623018 0.0380094 ) 14
( 0.164251 -0.0245874 0.0503892 ) 59
( 0.136489 0.00760129 0.0511318 ) 67
( 0.179935 -0.0614381 0.0486633 ) 51
( 0.0803855 -0.0345484 0.0539609 ) 56
( 0.0102596 0.00460122 0.0491932 ) 63
( 0.0557546 -0.00394954 0.0578309 ) 65
( 0.181678 -0.0761695 0.0356571 ) 6
( 0.0460578 -0.0656476 0.0437941 ) 46
( 0.0443751 -0.0687934 0.0774149 ) 82
( 0.021961 -0.0904684 0.0552361 ) 36
( 0.00983603 -0.0130942 0.0404156 ) 27
( 0.123555 -0.0899781 0.0327089 ) 4
( 0.231578 -0.00780118 0.0472372 ) 71
( 0.231263 -0.00847917 0.0723005 ) 107
( 0.1143 -0.0119555 0.0440698 ) 67
( 0.116926 -0.0901259 0.0730801 ) 76
( 0.14542 -0.00467784 0.0715988 ) 104
( 0.211871 -0.0205222 0.0453881 ) 61
( 0.0289315 -0.0750263 0.0454637 ) 37
( 0.0455714 -0.013723 0.0441505 ) 64
( 0.106837 -0.0129192 0.0715914 ) 102
( 0.183132 0.0119784 0.0448637 ) 69
( 0.00984518 -0.028357 0.0531828 ) 54
( 0.172607 -0.0412868 0.0401304 ) 24
( 0.246733 -0.0901608 0.0368743 ) 8
( 0.061648 -0.0554366 0.0746552 ) 83
( 0.0805754 -0.0483794 0.0734369 ) 83
( 0.197351 -0.0705783 0.0466613 ) 52
( 0.226354 -0.0404552 0.0695425 ) 62
( 0.0490732 -0.0901649 0.0791151 ) 73
( 0.20433 -0.0738948 0.0716048 ) 79
( 0.173687 -0.00616862 0.0480108 ) 69
( 0.249905 -0.0737949 0.0658725 ) 44
( 0.0291093 -0.0437477 0.0614002 ) 46
( 0.248097 -0.041616 0.0727934 ) 98
( 0.00945117 -0.0774384 0.0476157 ) 36
( 0.0402335 -0.0115161 0.0671116 ) 64
( 0.18201 -0.0238893 0.0757076 ) 96
( 0.0981801 -0.0349322 0.0700472 ) 57
( 0.0869615 -0.0665432 0.0783612 ) 84
( 0.117144 0.00828432 0.0420447 ) 31
( 0.156732 -0.0547626 0.0756703 ) 86
( 0.217108 -0.0590736 0.0692206 ) 52
( 0.0807233 -0.0278202 0.0760927 ) 92
( 0.236506 -0.0591188 0.0712872 ) 53
( 0.0968804 -0.0766773 0.0454635 ) 39
( 0.149461 -0.0386 0.0467743 ) 59
( 0.0505742 -0.040819 0.0514872 ) 55
( 0.156097 0.0141742 0.0729106 ) 104
( 0.131895 -0.042804 0.0723714 ) 94
( 0.0409261 0.00855598 0.0760487 ) 100
( 0.0926206 0.0138121 0.0492983 ) 66
( 0.141276 -0.090113 0.076672 ) 77
( 0.198495 -0.0534206 0.0656094 ) 52
( 0.154961 0.00879462 0.0430122 ) 68
( 0.198666 -0.0347356 0.0762747 ) 97
( 0.0757235 -0.0900873 0.0750889 ) 74
( 0.221948 -0.0803464 0.0776241 ) 79
( 0.193326 0.00259401 0.0813921 ) 105
( 0.120959 -0.0259063 0.0778355 ) 94
( 0.0146952 -0.0711918 0.0874219 ) 81
( 0.202539 -0.0127886 0.0729676 ) 106
( 0.174981 -0.0722119 0.0778015 ) 78
( 0.023466 -0.00782159 0.0766334 ) 99
( 0.0663745 -0.0379109 0.0852801 ) 92
( 0.109745 -0.0723732 0.0842963 ) 75
( 0.181369 -0.0476508 0.0736273 ) 87
( 0.065756 -0.00206787 0.0804909 ) 101
( 0.194544 -0.0899469 0.0779177 ) 79
( 0.0402757 -0.0468149 0.0768918 ) 82
( 0.00978401 0.0062884 0.0807297 ) 99
( 0.00991346 -0.0523532 0.0831439 ) 81
( 0.163261 -0.00315134 0.0825815 ) 104
( 0.224741 0.00932547 0.077162 ) 107
( 0.131218 0.00826803 0.0762757 ) 103
( 0.136869 -0.0612441 0.0774307 ) 85
( 0.143158 -0.0274668 0.0823549 ) 95
( 0.0613645 -0.076867 0.0709344 ) 38
( 0.0776244 0.0130248 0.0852807 ) 101
( 0.161802 -0.0902551 0.0716934 ) 77
( 0.248294 -0.0320764 0.0562495 ) 62
( 0.160215 -0.0681559 0.0901661 ) 86
( 0.0970595 -0.0902168 0.0722606 ) 75
( 0.245205 -0.0902196 0.0755995 ) 80
( 0.0580501 -0.0763649 0.0903056 ) 74
( 0.231637 -0.0176901 0.09014 ) 98
( 0.106309 -0.0305787 0.0902546 ) 93
( 0.035856 -0.0808121 0.0904965 ) 73
( 0.0733339 -0.0556712 0.0904256 ) 83
( 0.242719 0.0072961 0.0697918 ) 71
( 0.229042 -0.06725 0.0903457 ) 89
( 0.0858358 -0.0402887 0.0904398 ) 93
( 0.0328003 -0.0245648 0.082977 ) 91
( 0.208769 -0.0703419 0.0903573 ) 88
( 0.111987 0.00442662 0.0790105 ) 103
( 0.225495 -0.0482027 0.0874892 ) 89
( 0.165671 -0.0363683 0.077773 ) 95
( 0.126725 -0.0900156 0.0902371 ) 76
( 0.088171 -0.00557448 0.0752539 ) 102
( 0.111399 -0.0463421 0.0793606 ) 85
( 0.0269265 0.0101823 0.0901008 ) 99
( 0.185092 -0.036831 0.0903444 ) 96
( 0.127025 -0.00532625 0.0901287 ) 103
( 0.20628 -0.0516799 0.0840117 ) 88
( 0.0521387 -0.0173335 0.0817908 ) 91
( 0.126572 -0.0392883 0.0906772 ) 94
( 0.0542357 0.0104512 0.0904293 ) 100
( 0.00984631 -0.0304816 0.0897074 ) 90
( 0.219032 -0.0233 0.0757777 ) 97
( 0.210261 -0.0901424 0.090179 ) 79
( 0.0315576 -0.0613811 0.0905184 ) 82
( 0.146405 -0.00977426 0.0904781 ) 104
( 0.188258 -0.0564839 0.0901087 ) 87
( 0.14691 -0.0454247 0.0901585 ) 86
( 0.248708 -0.0572416 0.0864582 ) 89
( 0.176119 -0.0904553 0.0850579 ) 78
( 0.1807 -0.00970606 0.0901363 ) 105
( 0.143881 0.0116159 0.0905342 ) 104
( 0.050621 -0.0559497 0.0907178 ) 82
( 0.14187 -0.0754844 0.0902467 ) 77
( 0.0946703 0.00435095 0.0905886 ) 102
( 0.0861326 -0.0824634 0.0901804 ) 75
( 0.122358 -0.0586017 0.0904157 ) 85
( 0.107874 -0.0106203 0.0907023 ) 102
( 0.247293 -0.0768145 0.0901219 ) 80
( 0.232665 -0.0900525 0.090649 ) 80
( 0.0699569 -0.0188883 0.0902419 ) 92
( 0.169469 -0.050544 0.0904936 ) 87
( 0.0256771 -0.0424065 0.090144 ) 90
( 0.00987727 -0.0106599 0.0904666 ) 99
( 0.0981552 -0.0558105 0.090373 ) 84
( 0.155746 -0.0897857 0.0903338 ) 77
( 0.104547 -0.0902059 0.0904393 ) 75
( 0.0378387 -0.0067945 0.0903021 ) 100
( 0.217073 -0.00357866 0.0901531 ) 106
( 0.0898406 -0.0181316 0.0904705 ) 93
( 0.188016 -0.0761728 0.0909613 ) 78
( 0.212142 -0.0340301 0.0905495 ) 97
( 0.0476443 -0.0351569 0.0905944 ) 91
( 0.00984787 -0.0901538 0.0900726 ) 72
( 0.242565 -0.0391934 0.0908713 ) 98
( 0.241722 0.0125718 0.0902406 ) 107
( 0.197278 -0.0208111 0.0902889 ) 97
( 0.164803 -0.0214146 0.0903705 ) 95
)
