/*--------------------------------*- C++ -*----------------------------------*\
| =========                 |                                                 |
| \\      /  F ield         | OpenFOAM: The Open Source CFD Toolbox           |
|  \\    /   O peration     | Version:  4.x                                   |
|   \\  /    A nd           | Web:      www.OpenFOAM.org                      |
|    \\/     M anipulation  |                                                 |
\*---------------------------------------------------------------------------*/
FoamFile
{
    version     2.0;
    format      ascii;
    class       volScalarField;
    location    "46";
    object      KslNext;
}
// * * * * * * * * * * * * * * * * * * * * * * * * * * * * * * * * * * * * * //

dimensions      [1 -3 -1 0 0 0 0];

internalField   nonuniform List<scalar> 
114
(
3608.48
35104.5
4119.44
1e+10
5665.19
68664.2
884723
3724.3
359342
3793
59655.8
4148.21
11915.9
4161.58
1e+10
4204.36
1e+10
4292.66
1e+10
4826.42
15140.3
7176.62
3070.49
7381.44
2934.92
7983.33
2765.72
9262.51
2438.96
7989.13
32531.2
3552.95
78734.6
3496.29
132570
3448.95
29655.4
3486.38
6763.5
1.36755e+07
3719.73
1e+10
3666.37
120005
3532.53
30038.7
3580.32
12293
1e+10
3843.46
7731.51
3209.63
8193.04
3121.75
8909.75
3039.7
11277.8
2971.76
15025.2
15193.2
3475.42
18241.9
3352.02
22570.2
3244.71
23430.1
3068.25
11195.6
80010
3660.34
1e+10
3698.48
1e+10
3851.32
38364.3
4098.45
7251.73
53493.6
3617.67
91468.4
3518.04
4841.75
2732.31
4604.94
2538.31
4539.59
2262.21
4778.17
1793.59
5243.52
6135.81
2983.33
6012.87
2801.95
6145.18
2590.23
7075.45
2319.94
9817.39
7167.54
3113.39
7247.08
2962.38
7275.09
2738.51
7514.53
2297.18
7482.73
7447.17
3121.22
7723.05
3012.32
8320.07
2816.32
)
;

boundaryField
{
    inlet
    {
        type            zeroGradient;
    }
    outlet
    {
        type            zeroGradient;
    }
    wall
    {
        type            zeroGradient;
    }
    procBoundary5to1
    {
        type            processor;
        value           uniform 0;
    }
    procBoundary5to4
    {
        type            processor;
        value           uniform 0;
    }
    procBoundary5to7
    {
        type            processor;
        value           uniform 0;
    }
}


// ************************************************************************* //
