/*--------------------------------*- C++ -*----------------------------------*\
  =========                 |
  \\      /  F ield         | OpenFOAM: The Open Source CFD Toolbox
   \\    /   O peration     | Website:  https://openfoam.org
    \\  /    A nd           | Version:  4.x
     \\/     M anipulation  |
\*---------------------------------------------------------------------------*/
FoamFile
{
    version     2.0;
    format      ascii;
    class       vectorField;
    location    0;
    object      v;
}
// * * * * * * * * * * * * * * * * * * * * * * * * * * * * * * * * * * * * * //

303
(
( 1.93721e-09 -1.33659e-09 -2.71353e-09 )  
( 1.2412e-08 -2.9136e-09 4.81381e-09 )  
( 9.41634e-09 -2.78039e-09 3.96507e-09 )  
( 1.05825e-08 -3.46665e-10 2.77632e-09 )  
( 1.05433e-08 -1.31433e-09 4.13349e-09 )  
( 2.32467e-08 -8.61799e-10 3.93203e-09 )  
( 9.06177e-09 -1.67619e-09 1.37738e-09 )  
( 2.19764e-08 -5.59483e-09 3.52197e-09 )  
( 8.11387e-09 -1.01491e-09 2.27425e-09 )  
( -2.32875e-08 -6.70671e-09 1.03262e-09 )  
( -2.05101e-08 -3.24223e-09 1.01478e-08 )  
( -1.90769e-09 -1.11514e-09 1.18485e-10 )  
( -3.17657e-09 -1.44267e-08 3.59978e-08 )  
( -3.04674e-08 -3.56816e-09 5.00503e-10 )  
( 1.77389e-09 -2.88101e-10 5.64062e-10 )  
( -1.9064e-08 3.92361e-09 5.07151e-09 )  
( -5.34188e-09 1.08615e-10 3.63427e-09 )  
( -1.93736e-08 -2.50609e-09 2.73041e-08 )  
( -2.76242e-08 -5.32314e-09 2.25946e-08 )  
( -1.4076e-08 -8.21049e-10 1.48927e-09 )  
( -1.20678e-08 -9.13408e-09 2.78206e-08 )  
( -2.63797e-08 5.18914e-09 1.05202e-08 )  
( -1.44268e-09 -1.26279e-08 2.5487e-08 )  
( -4.47411e-08 -1.13353e-08 1.65863e-08 )  
( 1.67701e-08 -4.6562e-09 7.90366e-09 )  
( 1.34048e-08 -4.04002e-09 8.10694e-09 )  
( -1.8987e-08 -2.67065e-09 3.11209e-09 )  
( 1.73428e-09 1.06397e-09 2.98492e-09 )  
( 3.04883e-09 2.78995e-09 1.85663e-08 )  
( -2.03021e-08 -5.92792e-09 1.03909e-09 )  
( 9.69647e-10 9.42328e-10 2.27092e-09 )  
( 9.01121e-09 -5.35969e-10 7.26284e-09 )  
( -1.96771e-09 5.51378e-10 -4.91135e-10 )  
( -2.70668e-08 -1.642e-09 1.5804e-09 )  
( 1.12277e-08 6.95378e-09 7.16145e-09 )  
( -1.37296e-08 1.17681e-08 2.41911e-08 )  
( -9.82517e-09 -7.69763e-09 2.69771e-08 )  
( -8.33572e-09 -8.4939e-10 -5.41307e-10 )  
( 9.1446e-09 7.67388e-09 7.84512e-09 )  
( -1.06235e-08 -8.36365e-10 3.66094e-08 )  
( -1.28617e-08 -4.85872e-09 -2.43775e-10 )  
( -2.84047e-08 1.94953e-09 5.35341e-09 )  
( 1.05957e-09 -6.01035e-10 3.45532e-11 )  
( -1.72012e-09 5.58094e-09 2.79621e-08 )  
( 2.26676e-08 1.96434e-09 1.70824e-08 )  
( -3.07e-08 2.09402e-09 3.60308e-09 )  
( -7.39268e-09 7.12522e-10 -2.77343e-09 )  
( -1.50455e-08 -2.97836e-09 -1.57892e-09 )  
( -9.20312e-09 -2.81713e-09 4.37929e-09 )  
( -2.54431e-08 1.2988e-09 3.21467e-08 )  
( -1.66989e-08 5.21346e-09 2.94396e-08 )  
( 6.14707e-09 1.26954e-08 8.38641e-09 )  
( -1.91188e-08 3.50225e-10 7.68363e-09 )  
( -2.0229e-08 1.87121e-09 2.02206e-08 )  
( -2.95128e-09 1.68671e-09 4.39866e-09 )  
( -4.65593e-08 1.45574e-09 3.75482e-09 )  
( -1.01217e-08 -2.65451e-09 -3.19703e-10 )  
( 1.77485e-08 5.52999e-09 -1.9831e-09 )  
( -1.65396e-08 -3.60534e-09 -1.36833e-09 )  
( -2.16229e-08 4.20638e-09 8.15683e-09 )  
( -1.71219e-08 -3.2162e-10 -3.76058e-09 )  
( 7.0052e-10 1.95281e-09 -5.65076e-09 )  
( -1.22909e-09 1.6626e-09 -2.65119e-09 )  
( 1.38868e-07 -6.10276e-10 -4.64645e-09 )  
( 1.28469e-08 -2.68083e-09 7.18553e-09 )  
( -2.03444e-08 -1.53203e-09 -4.91205e-09 )  
( 1.088e-09 8.14948e-10 8.01058e-09 )  
( -4.45836e-08 -1.89327e-08 5.38861e-09 )  
( -3.38138e-08 -2.25431e-09 1.29358e-09 )  
( 3.31039e-09 -1.49473e-09 1.06666e-08 )  
( 2.8274e-08 -4.52812e-10 2.44245e-08 )  
( -1.1013e-08 -2.20039e-09 2.65852e-09 )  
( 1.31886e-08 4.42618e-09 9.50996e-09 )  
( -1.80536e-08 -4.28204e-09 -1.86124e-09 )  
( -4.36847e-09 -3.83792e-10 6.04514e-10 )  
( -3.69654e-09 -2.11199e-09 -1.71402e-09 )  
( -2.13115e-08 -2.01894e-09 7.94519e-09 )  
( -6.6141e-09 -2.36969e-09 1.53054e-08 )  
( -7.04712e-10 -1.88758e-09 8.23615e-11 )  
( -4.05159e-08 3.69563e-09 4.94204e-09 )  
( 2.93228e-08 9.09124e-09 -3.35758e-09 )  
( 2.85284e-08 6.65789e-10 4.38337e-09 )  
( -2.54682e-08 -3.92478e-09 -8.15806e-10 )  
( -3.42204e-09 -1.99871e-09 -2.13325e-09 )  
( -1.67925e-08 -4.58206e-09 5.73006e-09 )  
( -2.13336e-08 -3.55236e-09 -4.1413e-10 )  
( -2.46205e-08 6.05701e-09 4.71127e-09 )  
( -1.23317e-08 -1.64187e-09 3.83632e-11 )  
( -1.71253e-08 -3.35089e-09 3.23186e-09 )  
( -5.80139e-09 3.53964e-10 -1.13738e-08 )  
( -2.47926e-08 -1.83928e-09 3.12109e-08 )  
( -3.01931e-08 3.81253e-10 1.77838e-09 )  
( -6.68849e-09 -2.0332e-10 -1.18039e-09 )  
( -1.24715e-08 -1.27666e-09 -5.76931e-09 )  
( -3.09663e-08 1.99534e-09 1.28554e-08 )  
( 2.08784e-08 6.65196e-09 3.95925e-09 )  
( -2.01499e-08 -3.20949e-09 -4.66853e-10 )  
( -3.56074e-08 -4.01195e-08 -2.58413e-08 )  
( -2.09198e-08 -2.96109e-09 3.96174e-10 )  
( -4.60016e-08 3.59082e-09 2.19101e-08 )  
( -2.83108e-08 1.99997e-10 1.67147e-08 )  
( 1.3597e-08 8.68396e-09 5.46653e-09 )  
( -1.99252e-09 4.88658e-09 -1.37198e-09 )  
( -3.7359e-08 5.41095e-09 3.77777e-09 )  
( -1.34195e-08 -2.57345e-09 2.29032e-09 )  
( -2.3162e-08 -4.30033e-09 4.20595e-09 )  
( 3.50848e-08 -2.60205e-08 7.54704e-09 )  
( -1.38013e-08 -2.22809e-09 -1.47812e-09 )  
( -1.05852e-09 6.64693e-07 -2.02865e-08 )  
( 1.16885e-08 5.59119e-09 1.05726e-08 )  
( -9.55131e-09 -1.16209e-08 3.89497e-08 )  
( 2.16898e-08 1.18404e-09 1.60157e-08 )  
( -2.13559e-08 -4.28884e-09 1.14958e-08 )  
( 9.48078e-10 1.22125e-08 -2.25231e-09 )  
( -1.57909e-08 -3.64945e-09 -1.33919e-09 )  
( -7.53858e-09 8.10222e-09 6.50896e-09 )  
( -3.63152e-09 4.93555e-10 -6.09132e-10 )  
( -2.2077e-08 -6.36715e-09 5.09442e-09 )  
( -1.05079e-09 -1.47379e-09 2.43104e-09 )  
( -6.45441e-09 2.63814e-10 4.30091e-09 )  
( 1.28587e-08 2.6284e-09 1.19821e-08 )  
( 1.13444e-08 -2.77872e-09 6.90448e-09 )  
( -2.7526e-08 4.9571e-09 6.62619e-09 )  
( -3.05807e-09 -1.20172e-09 7.30441e-10 )  
( 1.66604e-09 1.93794e-08 2.60907e-08 )  
( -2.2941e-08 8.77832e-09 1.5005e-09 )  
( -3.32918e-09 -6.53706e-10 -1.35564e-09 )  
( -1.42196e-08 -2.43164e-09 -1.03736e-09 )  
( -1.82282e-09 -3.62814e-09 -1.14765e-08 )  
( -1.98175e-08 -1.07156e-09 -1.3296e-09 )  
( -4.13742e-10 -7.82136e-12 -2.38383e-09 )  
( -2.25462e-08 -3.33316e-09 -3.00161e-09 )  
( -1.51969e-08 -3.58586e-09 -2.51017e-09 )  
( -1.79396e-08 -5.71072e-10 -7.05077e-10 )  
( -6.2253e-09 -1.92247e-09 -4.18321e-09 )  
( 1.53856e-08 -1.45636e-09 8.55507e-09 )  
( -2.06655e-08 -1.33419e-08 -1.45215e-10 )  
( -3.03536e-09 -4.80994e-10 -4.57229e-10 )  
( -1.70801e-08 5.99595e-10 1.10932e-08 )  
( -1.35575e-08 1.34534e-08 6.53543e-09 )  
( -3.10761e-10 -3.8166e-10 -2.00239e-10 )  
( -1.03703e-08 -1.56055e-09 -1.71176e-09 )  
( -2.17931e-08 -1.81745e-09 2.26547e-08 )  
( -1.69631e-08 -6.31988e-10 6.67725e-10 )  
( -8.95488e-10 -8.68604e-10 -1.10889e-10 )  
( 2.31014e-09 2.4936e-09 -5.83983e-09 )  
( -1.80304e-08 -3.37791e-09 -8.20703e-10 )  
( 1.88194e-08 2.01794e-09 8.71637e-09 )  
( -5.28538e-09 6.95642e-10 -1.31592e-09 )  
( -1.8071e-08 -2.06725e-10 -4.60076e-09 )  
( 9.60416e-09 -1.44738e-09 2.02128e-08 )  
( 6.84143e-09 6.71883e-10 4.40444e-09 )  
( 1.54811e-08 7.60363e-09 1.65318e-08 )  
( -3.2117e-08 -2.79239e-09 2.61305e-08 )  
( -2.18894e-08 4.13459e-09 7.04619e-09 )  
( -3.03472e-08 -4.64625e-09 -3.39551e-10 )  
( -1.7844e-08 -5.04727e-09 -1.36307e-08 )  
( -1.66206e-08 -5.13817e-09 -8.26054e-10 )  
( -5.97223e-09 -1.73723e-09 -2.25592e-09 )  
( 1.50678e-08 4.93444e-09 9.35585e-09 )  
( -1.75954e-08 -3.66751e-09 7.83656e-10 )  
( -1.18375e-10 1.61118e-09 -9.17221e-09 )  
( -2.8488e-08 -2.58916e-09 8.60689e-10 )  
( 4.56721e-09 -9.64143e-09 2.82991e-08 )  
( -1.18398e-09 -5.23854e-10 -4.96899e-10 )  
( 5.54572e-11 -1.04005e-09 -6.11306e-09 )  
( 1.17056e-08 3.99803e-09 4.19165e-09 )  
( 7.3625e-09 1.81665e-08 2.97541e-10 )  
( -1.97139e-09 -2.62327e-09 -3.50481e-09 )  
( -7.09811e-09 1.432e-08 3.27903e-08 )  
( -6.01933e-10 -1.24735e-09 1.43602e-09 )  
( -3.44341e-09 -1.64613e-09 -1.97141e-09 )  
( 2.02948e-08 -1.06712e-09 6.06727e-09 )  
( -1.67509e-08 -4.47664e-09 1.99057e-09 )  
( -1.90698e-08 4.36617e-09 1.27131e-09 )  
( -1.26309e-10 1.42971e-08 2.89757e-09 )  
( -8.52e-09 -1.06518e-10 -4.38699e-09 )  
( -1.46294e-09 -1.5233e-09 -1.06217e-09 )  
( -2.75452e-08 3.31547e-10 7.45386e-10 )  
( -2.38942e-08 -9.90884e-09 2.47222e-09 )  
( -4.36679e-09 -2.17146e-09 6.31342e-09 )  
( 1.25312e-08 3.03418e-09 1.80252e-09 )  
( -1.69619e-08 -1.00327e-09 -6.63872e-09 )  
( -9.51869e-09 -2.81685e-09 7.01398e-11 )  
( 2.09787e-09 -2.58244e-09 -1.18308e-10 )  
( -1.8906e-08 -2.65434e-09 4.17288e-09 )  
( -3.63973e-08 1.24409e-08 6.56892e-09 )  
( 3.04368e-10 -1.36299e-09 -8.61421e-11 )  
( 4.0321e-10 1.10317e-08 2.22781e-08 )  
( 1.74308e-08 6.95395e-09 1.0363e-08 )  
( -1.50648e-08 -3.72739e-09 3.26251e-09 )  
( 1.45385e-08 -5.59832e-09 3.24942e-08 )  
( -2.80762e-09 1.07209e-10 -7.32827e-10 )  
( -1.5084e-08 -2.21737e-09 -1.34365e-09 )  
( -9.88624e-09 -3.20874e-09 -4.04945e-09 )  
( -5.10808e-09 2.74019e-10 3.71266e-09 )  
( -4.58243e-09 -1.47195e-09 -1.65981e-10 )  
( -1.72349e-08 -4.01297e-09 1.11281e-09 )  
( -1.43893e-09 -1.01824e-10 4.60016e-10 )  
( -2.62852e-09 4.8944e-09 2.36307e-08 )  
( -2.07803e-08 -3.03374e-09 -6.58053e-10 )  
( -1.31946e-08 -3.86965e-09 7.9027e-11 )  
( -8.97673e-09 -3.35074e-10 -1.61468e-09 )  
( -4.84698e-09 -8.99047e-11 -5.11361e-10 )  
( -1.69118e-08 8.35214e-10 -1.87086e-09 )  
( -1.55911e-08 -2.76616e-09 2.042e-09 )  
( -7.35105e-09 -9.27262e-11 -4.93764e-10 )  
( -9.91457e-09 -2.23009e-09 -2.11422e-10 )  
( -9.27729e-09 -1.41584e-09 -3.8004e-09 )  
( -1.20302e-08 -3.11333e-09 -8.95113e-10 )  
( -5.83912e-09 3.66278e-11 -1.30441e-09 )  
( 4.04519e-11 -1.65118e-09 -4.57538e-09 )  
( -9.5077e-09 -9.29176e-10 -1.21181e-09 )  
( 4.15155e-09 -5.59953e-09 5.09738e-09 )  
( -1.11712e-08 -1.72396e-09 -3.83854e-10 )  
( 1.17246e-08 -5.56552e-09 -2.15216e-09 )  
( -1.24983e-08 -7.07984e-09 1.65685e-08 )  
( -1.67456e-08 -3.63524e-09 -1.33917e-09 )  
( -9.29773e-09 -9.26381e-10 4.89707e-09 )  
( 1.37548e-08 1.40814e-09 6.77067e-09 )  
( -1.6747e-08 -9.36215e-10 -4.04465e-09 )  
( -2.53238e-09 -1.95356e-09 -2.9164e-09 )  
( -1.35237e-10 -1.53587e-09 -1.02568e-09 )  
( 9.9771e-09 -2.55028e-09 6.07046e-09 )  
( 1.48996e-08 -3.45664e-09 4.29645e-09 )  
( -1.33832e-09 -1.33661e-09 -2.29118e-09 )  
( -3.08336e-09 -1.06222e-08 2.09571e-08 )  
( -3.65333e-08 5.38874e-10 -3.82573e-09 )  
( -7.72854e-09 -8.01492e-10 -4.16456e-09 )  
( -3.04578e-10 -1.38826e-08 2.25211e-08 )  
( 3.1584e-08 3.63045e-10 -8.64822e-10 )  
( -1.63102e-08 -1.88222e-09 -1.3153e-10 )  
( 3.47921e-08 3.98634e-09 3.46424e-09 )  
( 1.5554e-08 -1.15105e-10 3.89737e-09 )  
( -3.83141e-09 -1.58475e-09 -5.01609e-10 )  
( -1.79044e-09 3.69e-10 -2.46803e-10 )  
( 1.38038e-08 -2.09076e-09 2.17485e-09 )  
( -3.80461e-08 -4.38376e-09 6.61776e-10 )  
( -2.11986e-08 -5.06675e-09 2.4864e-09 )  
( 1.22673e-08 -8.81642e-10 7.53415e-09 )  
( -1.26992e-08 -2.60898e-09 -9.14932e-10 )  
( 1.19538e-08 -6.07883e-09 5.06175e-09 )  
( -1.36725e-08 -3.20908e-09 4.06364e-10 )  
( -1.07573e-08 -8.40206e-09 1.70688e-08 )  
( 1.85585e-08 -5.09904e-09 5.68367e-09 )  
( 1.0881e-10 6.6437e-09 2.66988e-08 )  
( -3.16315e-09 -1.56373e-10 -8.91763e-11 )  
( -5.10617e-08 2.07174e-10 1.64978e-09 )  
( 3.88932e-09 9.50323e-09 2.03314e-08 )  
( -2.09312e-08 -3.24481e-09 -7.07406e-10 )  
( 1.49868e-08 -3.6094e-09 4.11172e-09 )  
( 1.01765e-08 5.17318e-14 1.20565e-08 )  
( -1.98379e-08 9.60505e-09 1.90685e-08 )  
( 5.84372e-09 -6.95126e-09 1.41243e-08 )  
( -1.47693e-08 -3.24652e-09 -1.74599e-09 )  
( -2.60758e-08 -6.2493e-09 1.26752e-08 )  
( -8.67763e-10 -4.54246e-10 3.09774e-10 )  
( 1.45372e-08 3.23688e-09 8.46412e-09 )  
( 1.84176e-08 -2.95714e-09 -3.08007e-09 )  
( -2.55522e-08 -4.64572e-09 -6.74177e-10 )  
( -2.35663e-08 -4.57078e-09 6.77177e-09 )  
( -7.00039e-09 -1.2409e-09 -6.8043e-10 )  
( 9.27815e-09 8.4266e-09 -2.32179e-09 )  
( -3.40649e-09 -1.04928e-10 -8.6304e-10 )  
( 1.06352e-08 -3.1011e-09 3.75514e-09 )  
( -1.14881e-08 -1.73123e-09 -7.55632e-10 )  
( -2.23811e-08 -1.92104e-09 1.19421e-08 )  
( -2.76072e-09 4.68679e-10 -2.16372e-09 )  
( 9.58989e-09 -4.60561e-09 1.16344e-08 )  
( -9.60378e-09 -8.57644e-10 -2.76112e-09 )  
( 1.377e-08 5.18357e-10 1.14301e-08 )  
( -4.89326e-09 -2.42166e-10 -1.8152e-09 )  
( -1.54818e-08 -4.47228e-09 3.2416e-10 )  
( -8.01542e-09 -6.38296e-10 -3.38372e-10 )  
( -3.48695e-08 -6.4057e-09 1.85556e-08 )  
( 1.76193e-08 -5.89972e-09 6.49576e-09 )  
( -1.52523e-08 -4.69441e-09 -1.89986e-09 )  
( -3.52398e-08 3.1816e-10 1.4464e-09 )  
( -2.82792e-08 -4.75195e-10 9.2729e-10 )  
( 6.62858e-08 -1.58191e-08 3.17653e-09 )  
( -8.56945e-08 -1.23219e-08 2.09955e-08 )  
( -1.74641e-08 -9.5189e-10 4.78366e-09 )  
( 2.54159e-08 -2.36235e-09 5.91031e-09 )  
( 4.34358e-08 2.96125e-09 5.44073e-09 )  
( -2.72797e-08 -4.05622e-08 3.60267e-08 )  
( 1.32881e-08 3.43537e-09 6.03414e-09 )  
( -3.83927e-08 1.41552e-10 8.06859e-09 )  
( 7.90745e-09 1.37221e-08 1.67312e-09 )  
( -1.09968e-08 2.5292e-09 1.98676e-08 )  
( 3.15737e-08 -2.64018e-09 5.21469e-09 )  
( -7.98745e-08 -8.68522e-09 1.461e-08 )  
( -8.7863e-08 -1.78687e-09 6.79385e-10 )  
( -1.49848e-08 -1.44282e-09 -4.79201e-09 )  
( 8.4901e-09 -2.45798e-09 -2.82256e-09 )  
( -2.48596e-08 -3.04981e-09 6.0134e-10 )  
( 1.69853e-08 -7.37296e-09 2.7351e-08 )  
( -2.26145e-08 -7.85525e-09 2.25429e-09 )  
( 1.06295e-08 -5.65648e-09 4.55161e-09 )  
( 6.92364e-08 -8.28197e-09 7.63823e-09 )  
( 4.91166e-08 5.09546e-09 1.8612e-08 )  
( -8.32657e-08 1.11207e-06 -7.36729e-08 )  
( 2.38956e-08 -3.91332e-09 4.57409e-09 )  
( -1.65397e-08 -2.66899e-09 2.188e-08 )  
)
