/*--------------------------------*- C++ -*----------------------------------*\
  =========                 |
  \\      /  F ield         | OpenFOAM: The Open Source CFD Toolbox
   \\    /   O peration     | Website:  https://openfoam.org
    \\  /    A nd           | Version:  4.x
     \\/     M anipulation  |
\*---------------------------------------------------------------------------*/
FoamFile
{
    version     2.0;
    format      ascii;
    class       Cloud<passiveParticle>;
    location    0;
    object      positions;
}
// * * * * * * * * * * * * * * * * * * * * * * * * * * * * * * * * * * * * * //

303
(
( 0.25296 0.0900497 -0.055808 ) 63
( 0.250439 0.0316239 -0.0549627 ) 45
( 0.25027 0.0300138 -0.035176 ) 81
( 0.254038 0.0693109 -0.0504362 ) 54
( 0.250995 0.0682571 -0.0699749 ) 54
( 0.250528 0.0107855 -0.0753123 ) 0
( 0.250041 0.0882418 -0.0216968 ) 99
( 0.250077 0.0359644 -0.0743817 ) 9
( 0.255982 0.0312823 -0.0150853 ) 81
( 0.381148 -0.0139383 -0.0338253 ) 76
( 0.421055 -0.0111557 -0.0808 ) 6
( 0.473668 -0.00620102 -0.0414834 ) 80
( 0.324525 -0.010457 -0.0764259 ) 2
( 0.40399 -0.00385077 -0.0735884 ) 5
( 0.490068 -0.0109844 -0.0578451 ) 44
( 0.371692 -0.0058893 -0.0492976 ) 40
( 0.468593 -0.00183628 -0.085403 ) 7
( 0.342618 -0.0027978 -0.0731012 ) 3
( 0.334668 -0.0139777 -0.0328706 ) 75
( 0.439314 -0.00183596 -0.0578494 ) 42
( 0.321632 -0.0117643 -0.0474532 ) 38
( 0.360791 -0.000875088 -0.065152 ) 39
( 0.310632 -0.00592449 -0.0628446 ) 38
( 0.354184 -0.0122371 -0.0386868 ) 75
( 0.272139 -0.00313792 -0.0685995 ) 36
( 0.283821 -0.0122252 -0.0390342 ) 73
( 0.436692 0.000593692 -0.077378 ) 6
( 0.490036 -0.0122105 -0.0777155 ) 8
( 0.302404 -0.00848237 -0.044544 ) 37
( 0.394175 -0.00442428 -0.0448498 ) 41
( 0.472405 -0.0116182 -0.0684114 ) 44
( 0.27536 -0.010086 -0.0201814 ) 72
( 0.473054 -0.0126401 -0.0211653 ) 80
( 0.38764 0.0264944 -0.0547998 ) 49
( 0.303823 0.071935 -0.064769 ) 64
( 0.336981 0.0639528 -0.0467626 ) 57
( 0.325514 0.0165449 -0.0484875 ) 47
( 0.443403 0.0375932 -0.046668 ) 51
( 0.286596 0.0647166 -0.0582733 ) 55
( 0.331197 0.0508807 -0.0605443 ) 56
( 0.455248 0.0130016 -0.0858487 ) 7
( 0.369667 0.0348507 -0.0532873 ) 49
( 0.490059 0.0227298 -0.053183 ) 53
( 0.324487 0.0377167 -0.0746851 ) 11
( 0.293245 0.0259158 -0.0575664 ) 46
( 0.379203 0.00957743 -0.0642564 ) 40
( 0.470457 0.0687403 -0.0577851 ) 61
( 0.43137 0.0710988 -0.0625203 ) 60
( 0.456053 0.0710275 -0.0784941 ) 25
( 0.342722 0.0322892 -0.0689542 ) 48
( 0.320095 0.0461117 -0.0446983 ) 56
( 0.30095 0.0614135 -0.0451447 ) 55
( 0.368745 0.054268 -0.0494277 ) 58
( 0.353723 0.0455464 -0.0592004 ) 57
( 0.324334 0.0854285 -0.0374952 ) 101
( 0.353038 0.0836208 -0.069461 ) 66
( 0.452503 0.0772143 -0.0555865 ) 70
( 0.286341 0.0901527 -0.0309909 ) 100
( 0.417207 0.0202735 -0.048024 ) 51
( 0.334334 0.0726082 -0.0645062 ) 66
( 0.3882 0.0701263 -0.0536249 ) 58
( 0.471215 0.0901238 -0.0645146 ) 70
( 0.473974 0.0680684 -0.0382013 ) 98
( 0.489289 0.0146904 -0.083883 ) 17
( 0.265356 0.0160552 -0.036669 ) 81
( 0.399864 0.0666621 -0.0694024 ) 59
( 0.32709 0.0286233 -0.0321451 ) 83
( 0.349168 0.063978 -0.0204414 ) 93
( 0.395492 0.0136843 -0.0780031 ) 5
( 0.306294 0.0318402 -0.0403192 ) 83
( 0.302931 0.0349919 -0.0723912 ) 10
( 0.458109 0.043385 -0.0605573 ) 61
( 0.272492 0.0513657 -0.0543296 ) 54
( 0.41095 0.0510312 -0.0599411 ) 59
( 0.457298 0.0242003 -0.0514639 ) 52
( 0.430469 0.0826138 -0.0787106 ) 33
( 0.365705 0.0410947 -0.0348686 ) 85
( 0.315995 0.0315068 -0.0576914 ) 47
( 0.473503 0.0304563 -0.0612187 ) 53
( 0.36663 0.011481 -0.0796627 ) 4
( 0.290644 0.0899622 -0.0503462 ) 64
( 0.26913 0.0165042 -0.0711163 ) 45
( 0.405283 0.0262697 -0.0640803 ) 50
( 0.474263 0.0473586 -0.0500671 ) 62
( 0.441114 0.0386702 -0.0695 ) 51
( 0.419559 0.0138023 -0.0702627 ) 42
( 0.346426 0.0806728 -0.0509011 ) 66
( 0.438794 0.0558344 -0.040466 ) 96
( 0.437391 0.0204108 -0.0762796 ) 15
( 0.478468 0.0748734 -0.0750622 ) 35
( 0.334551 0.033935 -0.0508114 ) 48
( 0.38078 0.0380663 -0.0694356 ) 49
( 0.460875 0.0406067 -0.037549 ) 88
( 0.401407 0.083671 -0.0593738 ) 68
( 0.363226 0.0534169 -0.0747359 ) 22
( 0.280309 0.0682397 -0.0394856 ) 91
( 0.422363 0.062874 -0.0781987 ) 24
( 0.371372 0.0898888 -0.0742339 ) 31
( 0.396951 0.0211392 -0.0381571 ) 86
( 0.347138 0.0156841 -0.0790008 ) 12
( 0.352697 0.0296873 -0.0443209 ) 48
( 0.273328 0.0789135 -0.0546393 ) 63
( 0.489962 0.0339029 -0.0785581 ) 17
( 0.383669 0.0741889 -0.0839218 ) 31
( 0.45809 0.0290552 -0.0743163 ) 16
( 0.424192 0.0430424 -0.0791632 ) 24
( 0.287262 0.0825195 -0.0684569 ) 64
( 0.430874 0.0736424 -0.0429302 ) 69
( 0.490013 0.0899438 -0.0823025 ) 35
( 0.293505 0.0527303 -0.072547 ) 19
( 0.32652 0.0058972 -0.0651955 ) 38
( 0.293752 0.0111036 -0.0709274 ) 37
( 0.351039 0.0160052 -0.0300868 ) 84
( 0.490038 0.0536371 -0.0820827 ) 26
( 0.412989 0.0679708 -0.0495943 ) 59
( 0.319255 0.0691742 -0.0770362 ) 20
( 0.457892 0.0582529 -0.0463147 ) 61
( 0.380873 0.00957112 -0.0399915 ) 76
( 0.473273 0.0106652 -0.0536856 ) 44
( 0.472237 0.0135602 -0.0733039 ) 8
( 0.283957 0.0211282 -0.0407879 ) 82
( 0.269244 0.0318625 -0.0485104 ) 45
( 0.361773 0.0187552 -0.0617696 ) 49
( 0.472142 0.0230037 -0.038313 ) 88
( 0.308134 0.0495858 -0.0293059 ) 92
( 0.37098 0.0729433 -0.0630195 ) 67
( 0.437689 0.0900971 -0.0616582 ) 69
( 0.428935 0.00660489 -0.0394353 ) 78
( 0.488658 0.0764931 -0.0485567 ) 71
( 0.39125 0.0508001 -0.0566622 ) 59
( 0.474839 0.0497396 -0.0697636 ) 62
( 0.406149 0.0514524 -0.0805359 ) 23
( 0.398359 0.0717519 -0.0366158 ) 104
( 0.392165 0.0901552 -0.0757356 ) 32
( 0.412461 0.0900707 -0.0746389 ) 32
( 0.273993 0.00937429 -0.0532537 ) 36
( 0.436482 0.0198835 -0.0539746 ) 51
( 0.444036 0.0900537 -0.0430263 ) 69
( 0.356142 0.00639728 -0.0472112 ) 39
( 0.329699 0.0900776 -0.0559908 ) 65
( 0.490184 0.0413367 -0.0601301 ) 53
( 0.432997 0.0252864 -0.0351297 ) 87
( 0.342557 0.0155443 -0.0583479 ) 48
( 0.363754 0.0727291 -0.0445195 ) 67
( 0.490248 0.0379716 -0.0405723 ) 89
( 0.469727 0.0900431 -0.0845677 ) 34
( 0.419409 0.0507292 -0.0418812 ) 96
( 0.283456 0.0520019 -0.0219412 ) 91
( 0.425746 0.0902778 -0.0339598 ) 105
( 0.363513 0.0902233 -0.0539317 ) 67
( 0.300536 0.0106218 -0.0395146 ) 73
( 0.265793 0.0902357 -0.0402562 ) 99
( 0.300715 0.0441243 -0.0548335 ) 55
( 0.342817 0.0555034 -0.0759755 ) 21
( 0.352691 0.065256 -0.0617462 ) 57
( 0.398331 0.00853168 -0.0590332 ) 41
( 0.382811 0.0900327 -0.0579666 ) 67
( 0.417443 0.00149095 -0.0548037 ) 42
( 0.448675 0.00804529 -0.0435207 ) 43
( 0.295508 0.066904 -0.0270321 ) 91
( 0.385368 0.0566731 -0.0386885 ) 94
( 0.490522 0.0901567 -0.0624078 ) 71
( 0.398991 0.0329316 -0.0817635 ) 14
( 0.30831 0.0130283 -0.057466 ) 38
( 0.490125 0.0523615 -0.0263852 ) 98
( 0.490045 0.0903397 -0.0346564 ) 107
( 0.270706 0.0663489 -0.0699144 ) 54
( 0.307619 0.0801001 -0.0469966 ) 65
( 0.464286 0.0900738 -0.0459574 ) 70
( 0.321926 0.0658587 -0.0339739 ) 92
( 0.490097 0.00450192 -0.0449515 ) 44
( 0.490009 0.0627349 -0.0643441 ) 62
( 0.266325 0.0471909 -0.0727766 ) 18
( 0.430943 0.0512668 -0.0580543 ) 60
( 0.347185 0.090437 -0.033903 ) 102
( 0.311493 0.0901843 -0.0638088 ) 65
( 0.405448 0.0902605 -0.0410598 ) 104
( 0.490354 0.057278 -0.0452878 ) 62
( 0.3826 0.0575159 -0.0732129 ) 22
( 0.455409 0.0494498 -0.0792984 ) 25
( 0.47315 0.0277289 -0.0873191 ) 17
( 0.267231 0.0901303 -0.0697429 ) 63
( 0.38134 0.0824812 -0.0396532 ) 103
( 0.45226 0.0118511 -0.0662026 ) 43
( 0.445188 0.0893864 -0.090362 ) 34
( 0.375128 0.0248499 -0.0286533 ) 85
( 0.335076 0.0900508 -0.0750903 ) 30
( 0.45363 0.0899661 -0.0727764 ) 34
( 0.318537 0.0647349 -0.0535859 ) 56
( 0.286836 0.0480401 -0.0410807 ) 91
( 0.447776 0.0599498 -0.0641612 ) 61
( 0.315746 0.0198322 -0.0745871 ) 11
( 0.474005 0.0715669 -0.0149075 ) 107
( 0.393373 0.0606355 -0.02097 ) 95
( 0.410568 0.0815503 -0.0242938 ) 104
( 0.317404 0.0370406 -0.0168901 ) 83
( 0.455518 0.0776245 -0.0162707 ) 106
( 0.390552 0.0155966 -0.0202416 ) 86
( 0.490008 0.0184854 -0.0308235 ) 89
( 0.3236 0.0607269 -0.014939 ) 92
( 0.363225 0.0817501 -0.026994 ) 103
( 0.407643 0.0246326 -0.017128 ) 86
( 0.440502 0.0038175 -0.0234025 ) 78
( 0.46675 0.022916 -0.0192094 ) 88
( 0.34859 0.0851139 -0.0143839 ) 102
( 0.380576 0.0455435 -0.0230136 ) 94
( 0.447734 0.060738 -0.0235415 ) 97
( 0.431055 0.0440046 -0.0265292 ) 96
( 0.392898 0.0902295 -0.0254468 ) 104
( 0.414712 0.0430107 -0.0155126 ) 95
( 0.458158 0.00590661 -0.0146694 ) 79
( 0.490061 0.0721569 -0.0271447 ) 107
( 0.439507 0.0251465 -0.0164464 ) 87
( 0.30568 0.0222168 -0.0230816 ) 83
( 0.423799 0.0142631 -0.0212697 ) 78
( 0.269724 0.0900214 -0.0201524 ) 99
( 0.3332 0.0124344 -0.0222772 ) 74
( 0.414907 0.0620468 -0.0262512 ) 95
( 0.330865 0.0783196 -0.0202594 ) 101
( 0.270466 0.0348506 -0.028887 ) 81
( 0.380593 0.0750634 -0.0213228 ) 103
( 0.47145 0.0895285 -0.0275756 ) 106
( 0.490085 0.0899596 -0.0146767 ) 107
( 0.259472 0.0469099 -0.040021 ) 90
( 0.255847 -0.000342103 -0.0572663 ) 36
( 0.459458 -0.00339628 -0.0558038 ) 43
( 0.321354 -0.0017553 -0.0158093 ) 74
( 0.362224 0.0334937 -0.0751186 ) 13
( 0.419397 0.0900479 -0.0548838 ) 69
( 0.318639 0.00526687 -0.0339111 ) 74
( 0.489595 0.0072405 -0.065428 ) 44
( 0.409292 0.00579936 -0.036774 ) 77
( 0.280158 0.0330993 -0.0706165 ) 46
( 0.26568 0.0564713 -0.0145058 ) 90
( 0.442723 0.0903465 -0.0234673 ) 105
( 0.474667 0.00634962 -0.0261858 ) 80
( 0.26223 0.0723614 -0.0326311 ) 99
( 0.387668 -0.00841668 -0.0631171 ) 40
( 0.423656 0.0331934 -0.0618982 ) 51
( 0.268939 0.0104115 -0.01803 ) 72
( 0.427999 -0.0128298 -0.0420363 ) 78
( 0.266078 -0.00359904 -0.040506 ) 72
( 0.396469 -0.00296186 -0.0243992 ) 77
( 0.337193 0.000562266 -0.0461782 ) 39
( 0.254317 -0.00878558 -0.0752951 ) 0
( 0.331121 0.0477306 -0.028071 ) 92
( 0.455413 0.0750887 -0.0359557 ) 106
( 0.37686 -0.00563708 -0.0795681 ) 4
( 0.31287 0.0524697 -0.0681354 ) 56
( 0.402813 0.0373981 -0.0478555 ) 50
( 0.25306 0.0510525 -0.0583699 ) 54
( 0.288819 -0.00308485 -0.0578559 ) 37
( 0.348862 0.0496205 -0.0404537 ) 93
( 0.31373 -0.0139252 -0.0291906 ) 74
( 0.415375 0.0333554 -0.0331218 ) 86
( 0.347235 -0.00221618 -0.0229782 ) 75
( 0.490126 -0.00982288 -0.0309822 ) 80
( 0.290328 0.0341229 -0.0274458 ) 82
( 0.277409 0.0715874 -0.0197841 ) 99
( 0.367889 0.0605895 -0.0265468 ) 94
( 0.365236 0.0020825 -0.030266 ) 76
( 0.452185 0.0238213 -0.0321733 ) 88
( 0.305559 0.0854612 -0.027982 ) 101
( 0.476979 0.0378055 -0.026162 ) 89
( 0.250342 0.0140961 -0.0235314 ) 72
( 0.420161 -0.00487297 -0.0242258 ) 78
( 0.350098 0.0417912 -0.0224161 ) 84
( 0.468186 0.0552509 -0.0242814 ) 97
( 0.295115 -0.0110253 -0.0230798 ) 73
( 0.43184 0.0737051 -0.0229866 ) 105
( 0.286567 0.00673354 -0.0262536 ) 73
( 0.456816 -0.0049817 -0.031069 ) 79
( 0.399499 0.0436404 -0.0284198 ) 95
( 0.449875 0.041178 -0.0212421 ) 88
( 0.346225 -0.0137355 -0.0568799 ) 39
( 0.28166 -0.0119755 -0.0836811 ) 1
( 0.470897 0.0601864 -0.0862534 ) 25
( 0.380428 0.0250226 -0.0844881 ) 13
( 0.38389 0.0443465 -0.088108 ) 22
( 0.300207 0.0677244 -0.0838984 ) 19
( 0.347308 0.0394857 -0.0869456 ) 12
( 0.445063 0.034217 -0.0885154 ) 16
( 0.275554 0.0792869 -0.0842604 ) 27
( 0.282873 0.0197528 -0.085197 ) 10
( 0.329359 0.00859643 -0.0847134 ) 2
( 0.278689 0.0565194 -0.085312 ) 19
( 0.363916 0.0721479 -0.081615 ) 31
( 0.301911 0.0874325 -0.081046 ) 28
( 0.311008 0.0460155 -0.0868961 ) 20
( 0.266275 0.0308158 -0.084737 ) 9
( 0.343002 0.0738782 -0.0836512 ) 30
( 0.356872 0.0900374 -0.0879204 ) 30
( 0.40794 0.0742697 -0.0859496 ) 32
( 0.253295 0.0900642 -0.0839357 ) 27
( 0.41711 0.0257119 -0.0860445 ) 15
( 0.308627 0.00227571 -0.0808866 ) 2
( 0.438037 0.0547861 -0.0874886 ) 24
( 0.260739 0.0655861 -0.0871632 ) 18
( 0.289886 0.0393168 -0.0868649 ) 10
( 0.302155 0.0235033 -0.0886943 ) 10
( 0.32041 0.0882528 -0.0884589 ) 29
( 0.265751 0.00379234 -0.0861489 ) 0
( 0.328036 0.0561322 -0.0893253 ) 20
)
