/*--------------------------------*- C++ -*----------------------------------*\
| =========                 |                                                 |
| \\      /  F ield         | OpenFOAM: The Open Source CFD Toolbox           |
|  \\    /   O peration     | Version:  4.x                                   |
|   \\  /    A nd           | Web:      www.OpenFOAM.org                      |
|    \\/     M anipulation  |                                                 |
\*---------------------------------------------------------------------------*/
FoamFile
{
    version     2.0;
    format      ascii;
    class       volScalarField;
    location    "59";
    object      Deff;
}
// * * * * * * * * * * * * * * * * * * * * * * * * * * * * * * * * * * * * * //

dimensions      [0 2 -1 0 0 0 0];

internalField   nonuniform List<scalar> 
132
(
9.95172e-08
9.95198e-08
9.95599e-08
9.95416e-08
9.94477e-08
9.93498e-08
9.93078e-08
9.93758e-08
9.9404e-08
9.95249e-08
9.94387e-08
9.94082e-08
9.93404e-08
9.93615e-08
9.92004e-08
9.92202e-08
9.91982e-08
9.92399e-08
9.96108e-08
9.93747e-08
9.93231e-08
9.92408e-08
9.92207e-08
9.9197e-08
9.91905e-08
9.91246e-08
9.89839e-08
9.95289e-08
9.9364e-08
9.93246e-08
9.93412e-08
9.91023e-08
9.89539e-08
9.89414e-08
9.89055e-08
9.88658e-08
9.8892e-08
9.88723e-08
9.88978e-08
9.92063e-08
9.89829e-08
9.89576e-08
9.88678e-08
9.88039e-08
9.87659e-08
9.87266e-08
9.86977e-08
9.87371e-08
9.91029e-08
9.89144e-08
9.88837e-08
9.8816e-08
9.8694e-08
9.87005e-08
9.85874e-08
9.86912e-08
9.86937e-08
9.89594e-08
9.89384e-08
9.88684e-08
9.87965e-08
9.85538e-08
9.90189e-08
9.88371e-08
9.86938e-08
9.86595e-08
9.86214e-08
9.86448e-08
9.85475e-08
9.85412e-08
9.86179e-08
9.88888e-08
9.87384e-08
9.86623e-08
9.85977e-08
9.84971e-08
9.85159e-08
9.83955e-08
9.83365e-08
9.83771e-08
9.8755e-08
9.86993e-08
9.8573e-08
9.84163e-08
9.83411e-08
9.83284e-08
9.82994e-08
9.83789e-08
9.84129e-08
9.86931e-08
9.86129e-08
9.84788e-08
9.83492e-08
9.82756e-08
9.82471e-08
9.8216e-08
9.8946e-08
9.87716e-08
9.86002e-08
9.8547e-08
9.84566e-08
9.83725e-08
9.84339e-08
9.84627e-08
9.83739e-08
9.87796e-08
9.85513e-08
9.8436e-08
9.83811e-08
9.83519e-08
9.8298e-08
9.81907e-08
9.82471e-08
9.82278e-08
9.87544e-08
9.85911e-08
9.8358e-08
9.82896e-08
9.81941e-08
9.81079e-08
9.81387e-08
9.82173e-08
9.81183e-08
9.86743e-08
9.85021e-08
9.82512e-08
9.81313e-08
9.82142e-08
9.80152e-08
9.8055e-08
9.81796e-08
9.82386e-08
)
;

boundaryField
{
    inlet
    {
        type            calculated;
        value           uniform 0;
    }
    outlet
    {
        type            calculated;
        value           nonuniform 0();
    }
    wall
    {
        type            calculated;
        value           uniform 0;
    }
    procBoundary0to1
    {
        type            processor;
        value           uniform 0;
    }
    procBoundary0to2
    {
        type            processor;
        value           uniform 0;
    }
    procBoundary0to4
    {
        type            processor;
        value           uniform 0;
    }
    procBoundary0to6
    {
        type            processor;
        value           uniform 0;
    }
    procBoundary0to7
    {
        type            processor;
        value           uniform 0;
    }
}


// ************************************************************************* //
