/*--------------------------------*- C++ -*----------------------------------*\
| =========                 |                                                 |
| \\      /  F ield         | OpenFOAM: The Open Source CFD Toolbox           |
|  \\    /   O peration     | Version:  4.x                                   |
|   \\  /    A nd           | Web:      www.OpenFOAM.org                      |
|    \\/     M anipulation  |                                                 |
\*---------------------------------------------------------------------------*/
FoamFile
{
    version     2.0;
    format      ascii;
    class       volScalarField;
    location    "59";
    object      p_rgh;
}
// * * * * * * * * * * * * * * * * * * * * * * * * * * * * * * * * * * * * * //

dimensions      [1 -1 -2 0 0 0 0];

internalField   nonuniform List<scalar> 
132
(
108.808
92.5691
103.182
72.6995
93.9047
55.7883
87.5845
37.49
80.9726
108.849
92.2239
102.199
73.8207
94.463
55.7855
87.6888
37.2998
81.0287
109.115
92.3385
102.347
74.4184
95.1686
56.1718
88.2391
37.9044
81.5277
108.935
92.0346
102.154
109.456
92.6892
102.749
74.1649
94.9863
56.0966
88.204
37.7552
81.4956
109.669
92.5927
102.803
74.4332
95.3887
56.0963
88.4122
37.5471
81.6188
110.086
92.7967
103.238
74.8301
96.0799
56.4788
89.0161
37.9404
82.1476
109.894
92.4357
102.975
74.6548
95.8194
109.835
92.6391
102.764
74.6173
95.3161
56.3066
88.1765
37.7001
81.2874
110.192
92.7295
103.094
74.7245
95.6687
56.2781
88.4325
37.5041
81.3685
110.753
93.0987
103.75
75.1854
96.3014
56.7428
88.8748
38.2493
81.7676
110.766
93.0286
103.693
75.0716
96.206
56.5746
88.7319
110.372
93.1092
103.388
75.2191
96.1465
56.9937
88.9098
38.7221
82.0958
110.846
93.2884
103.783
75.2803
96.4433
57.0619
89.1884
38.5559
82.1452
111.454
93.8165
104.501
75.8949
97.058
57.8056
89.3234
39.9063
82.0206
111.26
93.5407
104.137
75.4382
96.5537
57.1677
89.0203
38.619
81.9617
)
;

boundaryField
{
    inlet
    {
        type            fixedFluxPressure;
        gradient        nonuniform List<scalar> 
16
(
-0.000651554
-0.000615113
-0.00055922
-0.000504364
-0.000393345
-0.000366638
-0.000332409
-0.00029597
-0.000168826
-0.000158483
-0.000144735
-0.000131904
-1.57615e-07
-2.55217e-07
-3.28809e-07
-2.0843e-07
)
;
        value           nonuniform List<scalar> 
16
(
108.808
108.849
109.115
108.935
109.456
109.669
110.086
109.894
109.835
110.192
110.753
110.766
110.372
110.846
111.454
111.26
)
;
    }
    outlet
    {
        type            fixedValue;
        value           nonuniform 0();
    }
    wall
    {
        type            fixedFluxPressure;
        gradient        nonuniform List<scalar> 
66
(
-7.29764e-07
-1.89449e-07
-6.22846e-09
1.62628e-07
-3.61811e-06
-1.00272e-06
2.35578e-06
3.37325e-06
-5.34464e-06
9.07295e-07
1.7459e-06
2.05241e-06
9.64736e-06
6.60075e-06
5.62775e-06
3.44321e-06
3.76371e-06
3.08574e-06
3.132e-06
4.91673e-06
5.79962e-06
2.14169e-06
2.78971e-06
2.74029e-06
2.97727e-06
3.97727e-06
3.83295e-06
1.69144e-06
2.22625e-06
2.22669e-06
-1.12486e-06
-7.99251e-07
-3.82097e-07
-3.65264e-07
-4.98246e-06
-3.86915e-06
-1.06291e-06
-3.14729e-07
-7.54678e-06
-1.1755e-06
-4.50069e-07
-3.88697e-07
8.17791e-06
5.43846e-06
2.43361e-07
6.64928e-07
3.12224e-06
2.00212e-06
7.05023e-07
3.75756e-08
2.2442e-06
1.87303e-06
1.25985e-06
2.07728e-07
1.2589e-06
1.13953e-06
8.80033e-07
4.27693e-07
1.76329e-06
2.24936e-06
1.32062e-06
1.42765e-06
2.76961e-06
8.96346e-07
8.0678e-07
5.16955e-07
)
;
        value           nonuniform List<scalar> 
66
(
108.808
108.849
109.115
108.935
92.5691
92.2239
92.3385
92.0346
103.182
102.199
102.347
102.154
72.6995
73.8207
74.4184
93.9047
94.463
95.1686
55.7883
55.7855
56.1718
87.5845
87.6888
88.2391
37.49
37.2998
37.9044
80.9726
81.0287
81.5277
108.808
109.456
109.835
110.372
92.5691
92.6892
92.6391
93.1092
103.182
102.749
102.764
103.388
72.6995
74.1649
74.6173
75.2191
93.9047
94.9863
95.3161
96.1465
55.7883
56.0966
56.3066
56.9937
87.5845
88.204
88.1765
88.9098
37.49
37.7552
37.7001
38.7221
80.9726
81.4956
81.2874
82.0958
)
;
    }
    procBoundary0to1
    {
        type            processor;
        value           nonuniform List<scalar> 
12
(
18.8241
18.3725
19.1957
19.0818
18.7738
19.4981
18.9749
18.47
20.0651
20.4124
20.1746
22.4901
)
;
    }
    procBoundary0to2
    {
        type            processor;
        value           nonuniform List<scalar> 
44
(
74.3302
94.9987
55.9654
87.9865
37.2888
81.2471
109.161
92.1722
74.3302
102.441
74.3302
94.9987
56.1466
88.5466
37.2409
81.6218
110.018
92.6977
103.256
74.8091
56.1466
96.1866
56.1466
88.5466
37.8543
81.621
110.894
93.2067
104
75.5086
96.6772
57.4934
37.8543
89.2132
37.8543
81.621
111.468
93.6475
104.33
75.6121
96.8877
57.4178
89.4212
39.1417
)
;
    }
    procBoundary0to4
    {
        type            processor;
        value           nonuniform List<scalar> 
36
(
110.531
93.1326
103.395
75.2595
95.9846
57.0286
88.6447
38.4815
81.5239
111.083
93.3472
103.91
75.4132
96.3518
57.0378
88.9227
38.5394
81.7983
111.731
93.8358
104.475
75.9324
96.8123
57.6931
89.2703
39.3998
81.8493
111.667
93.8264
104.474
75.9371
96.9052
57.6961
89.2756
39.3017
81.8286
)
;
    }
    procBoundary0to6
    {
        type            processor;
        value           uniform 82.1047;
    }
    procBoundary0to7
    {
        type            processor;
        value           uniform 20.6194;
    }
}


// ************************************************************************* //
