/*--------------------------------*- C++ -*----------------------------------*\
| =========                 |                                                 |
| \\      /  F ield         | OpenFOAM: The Open Source CFD Toolbox           |
|  \\    /   O peration     | Version:  4.x                                   |
|   \\  /    A nd           | Web:      www.OpenFOAM.org                      |
|    \\/     M anipulation  |                                                 |
\*---------------------------------------------------------------------------*/
FoamFile
{
    version     2.0;
    format      ascii;
    class       volScalarField;
    location    "59";
    object      particleRelTemp;
}
// * * * * * * * * * * * * * * * * * * * * * * * * * * * * * * * * * * * * * //

dimensions      [0 0 0 0 0 0 0];

internalField   nonuniform List<scalar> 
132
(
-2.82586e-10
-2.05474e-10
-1.2346e-10
3.12083e-11
9.34917e-11
1.8606e-10
2.6214e-10
3.25598e-10
3.47256e-10
-2.70461e-10
-1.46317e-10
-2.08127e-11
7.38232e-11
2.21215e-10
3.32609e-10
4.77187e-10
5.03117e-10
5.06529e-10
-2.34899e-10
-1.30315e-10
-2.67017e-12
1.50559e-10
2.87945e-10
4.36952e-10
5.59193e-10
6.23792e-10
5.97286e-10
-3.1107e-10
-1.52642e-10
-9.36193e-11
-2.9349e-10
-1.61528e-10
-3.18201e-11
1.03267e-10
2.24349e-10
3.54681e-10
3.96165e-10
4.8139e-10
4.55722e-10
-2.77848e-10
-1.38953e-10
4.90278e-11
1.93609e-10
3.22206e-10
4.50127e-10
5.75904e-10
6.56172e-10
6.24406e-10
-2.70319e-10
-1.07298e-10
6.62382e-11
2.18493e-10
3.9709e-10
5.13912e-10
6.66459e-10
7.53706e-10
7.29577e-10
-2.59595e-10
-1.15184e-10
5.76871e-11
2.52763e-10
3.71396e-10
-2.7008e-10
-1.59126e-10
6.45678e-12
1.77625e-10
3.13882e-10
4.72817e-10
5.53412e-10
5.99315e-10
5.81007e-10
-2.54392e-10
-1.0855e-10
6.40931e-11
2.27385e-10
4.10073e-10
5.74364e-10
6.83298e-10
7.54435e-10
7.11887e-10
-2.5771e-10
-1.06986e-10
9.39382e-11
2.85284e-10
4.70797e-10
6.68569e-10
8.10679e-10
8.954e-10
8.45741e-10
-2.53639e-10
-8.10393e-11
9.38473e-11
2.55122e-10
4.53882e-10
5.89795e-10
8.01411e-10
-2.92678e-10
-1.38494e-10
-9.59058e-12
1.5572e-10
3.1464e-10
4.67166e-10
5.35883e-10
6.35659e-10
6.07133e-10
-2.6986e-10
-1.35636e-10
2.54409e-11
2.33794e-10
4.14157e-10
5.85021e-10
7.02059e-10
7.43891e-10
7.53247e-10
-2.15993e-10
-9.01773e-11
5.67521e-11
3.18812e-10
4.79291e-10
6.81172e-10
8.1673e-10
8.98986e-10
8.06966e-10
-2.54657e-10
-1.18394e-10
6.43835e-11
2.76385e-10
4.56072e-10
6.22172e-10
7.89306e-10
8.35373e-10
7.98709e-10
)
;

boundaryField
{
    inlet
    {
        type            calculated;
        value           nonuniform List<scalar> 
16
(
-2.82586e-10
-2.70461e-10
-2.34899e-10
-3.1107e-10
-2.9349e-10
-2.77848e-10
-2.70319e-10
-2.59595e-10
-2.7008e-10
-2.54392e-10
-2.5771e-10
-2.53639e-10
-2.92678e-10
-2.6986e-10
-2.15993e-10
-2.54657e-10
)
;
    }
    outlet
    {
        type            calculated;
        value           nonuniform 0();
    }
    wall
    {
        type            calculated;
        value           nonuniform List<scalar> 
66
(
-2.82586e-10
-2.70461e-10
-2.34899e-10
-3.1107e-10
-2.05474e-10
-1.46317e-10
-1.30315e-10
-1.52642e-10
-1.2346e-10
-2.08127e-11
-2.67017e-12
-9.36193e-11
3.12083e-11
7.38232e-11
1.50559e-10
9.34917e-11
2.21215e-10
2.87945e-10
1.8606e-10
3.32609e-10
4.36952e-10
2.6214e-10
4.77187e-10
5.59193e-10
3.25598e-10
5.03117e-10
6.23792e-10
3.47256e-10
5.06529e-10
5.97286e-10
-2.82586e-10
-2.9349e-10
-2.7008e-10
-2.92678e-10
-2.05474e-10
-1.61528e-10
-1.59126e-10
-1.38494e-10
-1.2346e-10
-3.18201e-11
6.45678e-12
-9.59058e-12
3.12083e-11
1.03267e-10
1.77625e-10
1.5572e-10
9.34917e-11
2.24349e-10
3.13882e-10
3.1464e-10
1.8606e-10
3.54681e-10
4.72817e-10
4.67166e-10
2.6214e-10
3.96165e-10
5.53412e-10
5.35883e-10
3.25598e-10
4.8139e-10
5.99315e-10
6.35659e-10
3.47256e-10
4.55722e-10
5.81007e-10
6.07133e-10
)
;
    }
    procBoundary0to1
    {
        type            processor;
        value           nonuniform List<scalar> 
12
(
2.43963e-10
4.15614e-10
4.67734e-10
3.98842e-10
4.55211e-10
6.30333e-10
4.71519e-10
5.92806e-10
7.29128e-10
4.91185e-10
5.64026e-10
7.174e-10
)
;
    }
    procBoundary0to2
    {
        type            processor;
        value           nonuniform List<scalar> 
44
(
1.03765e-10
2.51934e-10
4.46533e-10
5.53856e-10
6.26653e-10
5.87866e-10
-2.86519e-10
-1.8008e-10
1.03765e-10
-6.6137e-11
1.03765e-10
2.51934e-10
5.33747e-10
6.80959e-10
7.23363e-10
7.15553e-10
-2.95712e-10
-1.74418e-10
-1.45727e-11
1.42662e-10
5.33747e-10
2.72469e-10
5.33747e-10
6.80959e-10
8.43859e-10
8.0701e-10
-2.64374e-10
-1.51884e-10
2.01187e-11
1.88924e-10
3.64784e-10
5.26115e-10
8.43859e-10
6.15977e-10
8.43859e-10
8.0701e-10
-2.61392e-10
-1.06746e-10
4.52665e-11
1.87507e-10
3.66637e-10
5.05457e-10
6.22056e-10
6.39439e-10
)
;
    }
    procBoundary0to4
    {
        type            processor;
        value           nonuniform List<scalar> 
36
(
-2.83521e-10
-1.84742e-10
-4.89365e-11
1.00513e-10
2.22662e-10
3.34712e-10
4.58075e-10
5.05014e-10
4.36282e-10
-2.70973e-10
-1.61318e-10
9.00977e-12
1.67388e-10
3.3796e-10
4.6744e-10
5.66473e-10
6.35428e-10
6.13888e-10
-2.67654e-10
-1.26261e-10
7.16534e-11
2.28819e-10
4.10128e-10
5.40999e-10
6.59063e-10
7.25485e-10
6.27926e-10
-2.68848e-10
-1.38957e-10
3.70828e-11
2.0778e-10
4.20044e-10
5.56872e-10
6.52278e-10
6.43755e-10
6.52825e-10
)
;
    }
    procBoundary0to6
    {
        type            processor;
        value           uniform 6.30851e-10;
    }
    procBoundary0to7
    {
        type            processor;
        value           uniform 6.15145e-10;
    }
}


// ************************************************************************* //
