/*--------------------------------*- C++ -*----------------------------------*\
| =========                 |                                                 |
| \\      /  F ield         | OpenFOAM: The Open Source CFD Toolbox           |
|  \\    /   O peration     | Version:  4.x                                   |
|   \\  /    A nd           | Web:      www.OpenFOAM.org                      |
|    \\/     M anipulation  |                                                 |
\*---------------------------------------------------------------------------*/
FoamFile
{
    version     2.0;
    format      ascii;
    class       volScalarField;
    location    "19";
    object      Cs;
}
// * * * * * * * * * * * * * * * * * * * * * * * * * * * * * * * * * * * * * //

dimensions      [1 -3 0 0 0 0 0];

internalField   nonuniform List<scalar> 
108
(
334.982
334.968
334.95
334.926
334.895
334.862
334.835
334.821
336.983
334.993
334.977
334.955
334.926
334.891
334.852
334.815
334.791
339.322
334.934
334.932
334.928
334.917
334.896
334.862
334.819
334.792
334.818
334.997
334.991
334.982
334.97
334.954
334.935
334.904
334.878
346.006
334.927
334.891
334.856
334.833
334.823
334.833
334.864
334.895
335.002
334.942
334.906
334.869
334.841
334.822
334.815
334.826
334.835
334.973
334.96
334.926
334.887
334.853
334.823
334.807
334.8
334.807
334.885
334.99
334.978
334.962
334.943
334.918
334.897
334.869
334.851
334.442
334.917
334.895
334.883
334.88
334.895
334.916
334.955
334.988
335.092
334.942
334.914
334.893
334.879
334.887
334.894
334.93
334.939
335.077
334.946
334.917
334.892
334.871
334.871
334.868
334.895
334.889
335.215
334.984
334.969
334.951
334.929
334.906
334.881
334.862
334.839
334.609
)
;

boundaryField
{
    inlet
    {
        type            calculated;
        value           nonuniform 0();
    }
    outlet
    {
        type            calculated;
        value           uniform 335;
    }
    wall
    {
        type            calculated;
        value           nonuniform List<scalar> 
63
(
334.982
334.993
334.934
334.997
334.968
334.977
334.932
334.991
334.95
334.955
334.928
334.982
334.926
334.926
334.917
334.97
334.895
334.891
334.896
334.954
334.862
334.852
334.862
334.935
334.835
334.815
334.819
334.904
334.821
334.791
334.792
334.878
336.983
339.322
334.818
346.006
334.997
334.99
334.984
334.991
334.978
334.969
334.982
334.962
334.951
334.97
334.943
334.929
334.954
334.918
334.906
334.935
334.897
334.881
334.904
334.869
334.862
334.878
334.851
334.839
346.006
334.442
334.609
)
;
    }
    procBoundary3to1
    {
        type            processor;
        value           nonuniform List<scalar> 
27
(
334.979
334.967
334.949
334.923
334.887
334.848
334.823
334.838
334.91
334.933
334.902
334.87
334.851
334.854
334.877
334.935
334.969
335.027
334.94
334.93
334.922
334.914
334.931
334.958
335.004
335.026
335.141
)
;
    }
    procBoundary3to2
    {
        type            processor;
        value           nonuniform List<scalar> 
12
(
334.99
335.002
334.937
334.999
334.959
334.971
334.985
334.996
334.944
334.966
334.971
334.993
)
;
    }
    procBoundary3to7
    {
        type            processor;
        value           nonuniform List<scalar> 
36
(
334.956
334.94
334.93
334.926
334.935
334.955
334.985
335.018
335.275
334.964
334.948
334.938
334.931
334.937
334.948
334.974
334.992
335.141
334.97
334.955
334.943
334.93
334.931
334.931
334.951
334.948
335.063
334.99
334.983
334.974
334.963
334.949
334.93
334.919
334.895
334.606
)
;
    }
}


// ************************************************************************* //
