/*--------------------------------*- C++ -*----------------------------------*\
| =========                 |                                                 |
| \\      /  F ield         | OpenFOAM: The Open Source CFD Toolbox           |
|  \\    /   O peration     | Version:  4.x                                   |
|   \\  /    A nd           | Web:      www.OpenFOAM.org                      |
|    \\/     M anipulation  |                                                 |
\*---------------------------------------------------------------------------*/
FoamFile
{
    version     2.0;
    format      ascii;
    class       volVectorField;
    location    "19";
    object      ddtUrel;
}
// * * * * * * * * * * * * * * * * * * * * * * * * * * * * * * * * * * * * * //

dimensions      [0 1 -2 0 0 0 0];

internalField   nonuniform List<vector> 
108
(
(9.85689e-07 -2.27371e-07 -3.28826e-07)
(8.77716e-07 -2.18278e-07 -3.77302e-07)
(7.31962e-07 -2.59817e-07 -3.59161e-07)
(4.15678e-07 -1.88368e-07 -3.03663e-07)
(1.78844e-07 -7.34688e-08 -2.66496e-07)
(-2.7221e-08 -3.47031e-08 -2.22799e-07)
(-3.45385e-07 -2.74051e-08 -2.15886e-07)
(-4.5178e-07 -1.96977e-08 -2.19303e-07)
(-4.22942e-07 -2.91923e-08 -1.79239e-07)
(1.11521e-06 -3.04551e-07 -5.11241e-07)
(1.00281e-06 -3.32159e-07 -5.55525e-07)
(8.35604e-07 -3.24967e-07 -5.08698e-07)
(5.6271e-07 -2.14738e-07 -4.03722e-07)
(3.27551e-07 -6.34315e-08 -3.15827e-07)
(7.06532e-08 -2.29646e-08 -2.51178e-07)
(-2.97018e-07 -1.95812e-08 -2.43615e-07)
(-4.73462e-07 -3.15942e-08 -2.31153e-07)
(-3.90115e-07 -9.39784e-09 -1.88315e-07)
(1.19893e-06 -3.26407e-07 -7.17109e-07)
(1.11412e-06 -3.97531e-07 -7.58949e-07)
(9.7565e-07 -3.5088e-07 -6.74732e-07)
(7.43908e-07 -2.19542e-07 -5.10655e-07)
(5.63483e-07 -1.14172e-07 -4.11539e-07)
(1.92547e-07 -3.75261e-08 -3.00216e-07)
(-2.02697e-07 -3.04322e-08 -2.66713e-07)
(-4.27368e-07 5.85456e-09 -2.26214e-07)
(-3.09201e-07 6.47895e-08 -2.10429e-07)
(1.23518e-06 -3.21205e-07 -8.96806e-07)
(1.22897e-06 -3.79753e-07 -9.49434e-07)
(1.06426e-06 -2.85307e-07 -8.0434e-07)
(8.85821e-07 -2.16006e-07 -5.7909e-07)
(8.37756e-07 -2.1397e-07 -5.23476e-07)
(3.35945e-07 -9.42494e-08 -3.46628e-07)
(-9.33097e-08 -6.77445e-08 -2.502e-07)
(-2.78627e-07 2.9708e-08 -2.36997e-07)
(-1.47767e-07 1.86334e-07 -2.958e-07)
(9.16068e-07 -2.15858e-07 -3.47152e-07)
(8.87021e-07 -2.14445e-07 -4.02858e-07)
(7.54451e-07 -2.53255e-07 -3.53425e-07)
(4.76158e-07 -1.91696e-07 -2.95668e-07)
(2.36536e-07 -8.87679e-08 -2.53885e-07)
(5.62911e-08 -3.89046e-08 -1.88224e-07)
(-3.19975e-07 -2.42562e-08 -1.64208e-07)
(-4.75261e-07 -9.67562e-09 -1.60349e-07)
(-4.04751e-07 -1.41664e-08 -1.42069e-07)
(1.12062e-06 -2.80801e-07 -5.65376e-07)
(1.07201e-06 -3.21358e-07 -6.14937e-07)
(8.99136e-07 -3.21243e-07 -5.25077e-07)
(6.26331e-07 -2.26795e-07 -3.88467e-07)
(3.53878e-07 -8.25905e-08 -2.95703e-07)
(1.06689e-07 -3.52073e-08 -2.20656e-07)
(-2.7455e-07 -2.82125e-08 -1.85516e-07)
(-4.71028e-07 -3.06546e-08 -1.73779e-07)
(-4.18426e-07 -2.38729e-08 -1.38232e-07)
(1.32597e-06 -3.2619e-07 -8.59138e-07)
(1.31351e-06 -3.92388e-07 -8.79246e-07)
(1.11185e-06 -3.60081e-07 -7.11467e-07)
(8.37221e-07 -2.31223e-07 -5.04507e-07)
(5.26651e-07 -1.10429e-07 -3.55436e-07)
(2.10817e-07 -5.42092e-08 -2.50166e-07)
(-2.26753e-07 -4.38309e-08 -1.85654e-07)
(-4.26803e-07 -2.97295e-08 -1.55462e-07)
(-3.577e-07 -7.93284e-09 -1.28393e-07)
(1.5145e-06 -3.05594e-07 -1.23873e-06)
(1.59198e-06 -3.59304e-07 -1.19687e-06)
(1.28078e-06 -3.34541e-07 -8.65579e-07)
(9.66154e-07 -2.24954e-07 -5.79361e-07)
(6.6433e-07 -1.46933e-07 -4.06804e-07)
(2.9131e-07 -8.30141e-08 -2.68826e-07)
(-8.98246e-08 -5.51589e-08 -1.72364e-07)
(-3.09753e-07 -1.77412e-08 -1.49991e-07)
(-2.93595e-07 1.89841e-08 -1.38551e-07)
(8.62596e-07 -1.97613e-07 -3.97003e-07)
(8.87804e-07 -2.01888e-07 -4.1644e-07)
(7.59991e-07 -2.1611e-07 -3.79171e-07)
(4.64775e-07 -1.65474e-07 -2.99654e-07)
(2.5972e-07 -1.14392e-07 -2.10641e-07)
(1.04685e-07 -6.77914e-08 -1.53551e-07)
(-3.09805e-07 -5.09892e-08 -1.06228e-07)
(-5.19245e-07 -4.86558e-08 -8.30403e-08)
(-4.37405e-07 -4.12476e-08 -6.78785e-08)
(1.17817e-06 -2.71586e-07 -7.01143e-07)
(1.14418e-06 -3.08099e-07 -6.93776e-07)
(9.70683e-07 -3.24461e-07 -5.60796e-07)
(6.4554e-07 -2.37031e-07 -3.90696e-07)
(3.61276e-07 -1.15092e-07 -2.66776e-07)
(1.215e-07 -7.8248e-08 -1.80175e-07)
(-3.08496e-07 -6.8183e-08 -1.1632e-07)
(-5.29447e-07 -6.83208e-08 -8.03728e-08)
(-4.62523e-07 -6.60823e-08 -5.37195e-08)
(1.58989e-06 -4.01706e-07 -1.24188e-06)
(1.56539e-06 -4.37029e-07 -1.12874e-06)
(1.25901e-06 -3.98708e-07 -7.98707e-07)
(8.88886e-07 -2.66555e-07 -5.2612e-07)
(5.22058e-07 -1.43873e-07 -3.31711e-07)
(2.04096e-07 -9.00297e-08 -2.0347e-07)
(-2.3576e-07 -8.12855e-08 -1.1661e-07)
(-4.77408e-07 -8.07234e-08 -5.97017e-08)
(-4.40166e-07 -7.84336e-08 -3.02507e-08)
(2.13387e-06 -4.36675e-07 -2.13046e-06)
(2.10963e-06 -5.00418e-07 -1.71942e-06)
(1.51638e-06 -4.11611e-07 -1.06306e-06)
(9.99758e-07 -2.65482e-07 -6.35981e-07)
(6.10964e-07 -1.54658e-07 -3.80719e-07)
(2.287e-07 -1.07059e-07 -2.11749e-07)
(-1.7201e-07 -9.11829e-08 -1.06911e-07)
(-4.1143e-07 -8.19131e-08 -4.5853e-08)
(-4.10492e-07 -8.62498e-08 -1.19064e-08)
)
;

boundaryField
{
    inlet
    {
        type            calculated;
        value           nonuniform 0();
    }
    outlet
    {
        type            calculated;
        value           nonuniform List<vector> 
12
(
(2.10485e-07 -1.91749e-07 -1.427e-07)
(5.82157e-08 5.57231e-08 -1.3815e-07)
(9.91663e-08 3.76715e-07 -2.31639e-07)
(1.37646e-06 1.54874e-06 -1.23496e-06)
(1.41132e-07 8.03817e-08 -2.15932e-07)
(8.44663e-08 -2.49791e-09 -1.24421e-07)
(1.10336e-07 2.41425e-08 -6.08753e-08)
(1.19696e-07 -1.48121e-08 1.0441e-08)
(1.25397e-07 4.39742e-08 -1.0019e-07)
(1.16082e-07 4.61677e-09 1.09614e-08)
(8.55964e-08 -5.09825e-09 -2.70334e-08)
(7.16092e-08 -2.36028e-08 2.91975e-08)
)
;
    }
    wall
    {
        type            calculated;
        value           nonuniform List<vector> 
63
(
(1.6471e-06 -2.73298e-07 -3.43127e-08)
(2.0159e-06 -6.72082e-07 -3.41398e-07)
(1.05519e-06 -3.99842e-07 -5.45649e-07)
(-2.31521e-07 -1.90409e-07 -6.5878e-07)
(8.31978e-07 5.2959e-08 -2.1233e-07)
(4.88826e-07 -6.1903e-07 -5.67278e-07)
(-3.76896e-07 -9.48663e-07 -9.0757e-07)
(-1.62649e-06 -8.90213e-07 -1.4326e-06)
(1.09789e-06 -7.64644e-07 -2.45111e-07)
(6.16684e-07 -7.02346e-07 -6.48444e-07)
(5.69213e-08 -8.19303e-07 -9.77908e-07)
(-8.74053e-07 1.17592e-07 -1.31095e-06)
(-3.86702e-07 -3.71824e-07 -1.63389e-07)
(-4.19409e-07 -2.39553e-07 -3.44578e-07)
(-4.10049e-08 -6.8334e-08 -4.81541e-07)
(2.78232e-07 1.80285e-08 -2.69573e-07)
(-4.94086e-07 2.85817e-07 -2.47465e-07)
(-1.58164e-07 5.99068e-07 -2.016e-07)
(5.79793e-07 1.42805e-07 -6.66932e-07)
(2.0075e-06 -1.23656e-06 -1.92861e-06)
(-2.38405e-07 8.56242e-08 -1.77087e-07)
(-9.59903e-08 2.36506e-07 -1.50021e-07)
(-1.32237e-07 3.66319e-07 -2.59752e-07)
(-1.3798e-07 -2.98943e-08 -5.26406e-07)
(-1.29157e-06 -4.13907e-08 -2.27524e-07)
(-1.57598e-06 1.84764e-07 -5.06935e-07)
(-1.14897e-06 2.65649e-09 -7.2151e-07)
(-4.36596e-07 -4.80939e-07 -2.44643e-07)
(-1.10171e-06 1.81187e-07 -6.59202e-07)
(-2.4379e-06 -3.13089e-07 -5.1326e-07)
(-2.01287e-06 3.45484e-08 -2.94692e-07)
(-1.01967e-06 7.16458e-08 -2.80059e-07)
(-3.04429e-07 -7.21244e-08 -1.35255e-07)
(-3.33179e-07 8.38898e-08 -1.55093e-07)
(-5.29479e-08 3.86413e-07 -2.39529e-07)
(1.31226e-06 1.64072e-06 -1.32316e-06)
(6.04082e-07 -2.2831e-07 -6.26463e-07)
(1.36989e-06 1.45145e-07 -1.59101e-06)
(2.484e-06 5.11624e-07 -5.3044e-06)
(2.42229e-06 -9.24601e-07 -1.44611e-06)
(3.32858e-06 -8.04704e-08 -2.28218e-06)
(4.75812e-06 -5.83853e-07 -2.99725e-06)
(7.97726e-07 1.17548e-07 -1.23168e-06)
(2.11483e-06 -4.39371e-07 -7.81275e-07)
(2.47159e-06 -6.63127e-07 -8.01208e-07)
(7.48475e-07 2.13301e-08 -2.51761e-07)
(1.3774e-06 -1.77498e-08 -3.57822e-07)
(1.00888e-06 -1.73436e-07 -3.5732e-07)
(5.04304e-06 -1.03192e-06 -1.52336e-06)
(6.71318e-07 -2.59816e-09 -1.97222e-07)
(6.7137e-07 1.06162e-07 -2.52949e-07)
(7.84588e-07 3.53551e-09 -4.8628e-07)
(5.42158e-07 8.92213e-08 -6.31318e-08)
(2.78182e-07 4.37802e-09 1.6684e-08)
(-3.49701e-07 -3.15075e-07 -1.58706e-08)
(-2.7604e-07 5.24298e-09 1.12931e-07)
(-3.84989e-07 -1.85227e-08 -1.30847e-08)
(-9.37067e-07 9.50753e-08 -2.78396e-07)
(-6.63833e-07 7.94745e-08 -1.7625e-07)
(-1.11188e-06 1.02664e-07 -2.60044e-08)
(4.15135e-06 4.51333e-06 -4.68364e-06)
(-5.60078e-08 3.02082e-08 -4.25484e-08)
(-8.59046e-08 -6.10788e-09 1.96064e-08)
)
;
    }
    procBoundary3to1
    {
        type            processor;
        value           nonuniform List<vector> 
27
(
(8.09588e-07 -1.88439e-07 -2.23405e-07)
(7.55551e-07 -1.45509e-07 -2.74357e-07)
(6.38403e-07 -1.6221e-07 -2.73001e-07)
(3.03943e-07 -1.10899e-07 -2.34555e-07)
(7.9195e-08 -9.50323e-08 -2.3403e-07)
(-8.93135e-08 -7.21608e-08 -2.18414e-07)
(-3.61071e-07 -4.55282e-08 -1.90894e-07)
(-5.21999e-07 -5.97606e-08 -1.77555e-07)
(-3.91985e-07 -6.32341e-08 -1.49775e-07)
(7.61373e-07 -1.89757e-07 -2.17929e-07)
(7.06496e-07 -1.49617e-07 -2.80777e-07)
(6.35309e-07 -1.60297e-07 -2.83288e-07)
(3.50948e-07 -1.19289e-07 -2.39348e-07)
(1.44022e-07 -9.07355e-08 -2.0762e-07)
(-2.84246e-10 -6.57739e-08 -1.78122e-07)
(-3.16502e-07 -4.09993e-08 -1.53763e-07)
(-4.84526e-07 -4.61698e-08 -1.24104e-07)
(-3.88074e-07 -4.85412e-08 -1.21472e-07)
(6.95046e-07 -1.78902e-07 -2.51861e-07)
(6.83919e-07 -1.38921e-07 -2.77473e-07)
(6.0577e-07 -1.28299e-07 -2.8653e-07)
(3.79181e-07 -1.07713e-07 -2.41899e-07)
(2.04921e-07 -1.14752e-07 -1.71158e-07)
(7.42478e-08 -6.85423e-08 -1.34415e-07)
(-2.70942e-07 -4.35339e-08 -9.34395e-08)
(-5.01534e-07 -5.01145e-08 -5.57812e-08)
(-4.23668e-07 -5.00164e-08 -5.18495e-08)
)
;
    }
    procBoundary3to2
    {
        type            processor;
        value           nonuniform List<vector> 
12
(
(1.05978e-06 -2.11664e-07 -2.91549e-07)
(1.11449e-06 -2.33657e-07 -4.44905e-07)
(1.16915e-06 -2.57846e-07 -6.18243e-07)
(1.23509e-06 -2.93459e-07 -7.59938e-07)
(9.45982e-07 -1.76494e-07 -2.97365e-07)
(1.06318e-06 -1.99182e-07 -4.80151e-07)
(1.19796e-06 -2.21285e-07 -7.23726e-07)
(1.21686e-06 -2.37785e-07 -1.00853e-06)
(8.95445e-07 -1.53136e-07 -3.35338e-07)
(1.08085e-06 -1.82538e-07 -5.66453e-07)
(1.34257e-06 -2.18996e-07 -9.21292e-07)
(1.51025e-06 -2.01746e-07 -1.37682e-06)
)
;
    }
    procBoundary3to7
    {
        type            processor;
        value           nonuniform List<vector> 
36
(
(8.7975e-07 -1.98672e-07 -4.31868e-07)
(8.54076e-07 -2.084e-07 -4.22406e-07)
(7.18685e-07 -2.04482e-07 -3.78278e-07)
(4.81298e-07 -1.63234e-07 -2.87076e-07)
(2.67578e-07 -1.24638e-07 -1.68236e-07)
(9.15451e-08 -9.08352e-08 -1.18583e-07)
(-3.0506e-07 -8.3598e-08 -6.76828e-08)
(-5.53734e-07 -8.54169e-08 -2.00609e-08)
(-4.85226e-07 -8.07078e-08 5.34501e-09)
(1.24465e-06 -3.15527e-07 -8.42442e-07)
(1.19753e-06 -3.28849e-07 -7.49958e-07)
(9.74911e-07 -3.07984e-07 -5.77305e-07)
(6.68624e-07 -2.2781e-07 -3.84576e-07)
(3.59832e-07 -1.43167e-07 -2.33727e-07)
(9.83817e-08 -1.13835e-07 -1.37438e-07)
(-3.28195e-07 -1.14684e-07 -5.78736e-08)
(-5.81166e-07 -1.17604e-07 -1.79814e-09)
(-5.57932e-07 -1.21082e-07 3.82606e-08)
(1.94692e-06 -6.03911e-07 -1.95258e-06)
(1.86528e-06 -5.40335e-07 -1.45744e-06)
(1.35579e-06 -4.13945e-07 -9.2079e-07)
(8.88858e-07 -2.87717e-07 -5.40493e-07)
(4.82496e-07 -1.70594e-07 -3.06987e-07)
(1.4e-07 -1.26122e-07 -1.60269e-07)
(-3.15827e-07 -1.39284e-07 -4.50387e-08)
(-5.84362e-07 -1.54938e-07 3.7856e-08)
(-5.98471e-07 -1.75801e-07 9.06454e-08)
(4.06196e-06 -1.09915e-06 -4.1347e-06)
(3.18545e-06 -8.36181e-07 -2.66726e-06)
(1.77949e-06 -4.79211e-07 -1.34944e-06)
(1.04625e-06 -3.04507e-07 -6.90152e-07)
(5.62161e-07 -1.86913e-07 -3.62273e-07)
(1.62113e-07 -1.38177e-07 -1.66064e-07)
(-2.92257e-07 -1.54162e-07 -2.91924e-08)
(-5.75337e-07 -1.88154e-07 7.44755e-08)
(-6.46413e-07 -2.28054e-07 1.46421e-07)
)
;
    }
}


// ************************************************************************* //
