/*--------------------------------*- C++ -*----------------------------------*\
| =========                 |                                                 |
| \\      /  F ield         | OpenFOAM: The Open Source CFD Toolbox           |
|  \\    /   O peration     | Version:  4.x                                   |
|   \\  /    A nd           | Web:      www.OpenFOAM.org                      |
|    \\/     M anipulation  |                                                 |
\*---------------------------------------------------------------------------*/
FoamFile
{
    version     2.0;
    format      ascii;
    class       volScalarField;
    location    "19";
    object      QPartFluid;
}
// * * * * * * * * * * * * * * * * * * * * * * * * * * * * * * * * * * * * * //

dimensions      [1 -1 -3 0 0 0 0];

internalField   nonuniform List<scalar> 
108
(
8.60969e+09
3.8647e+09
6.79192e+09
3.25292e+09
5.00551e+09
3.78694e+09
5.54509e+09
5.01076e+09
3.33304e+09
6.49206e+09
9.00194e+09
5.12429e+09
5.62683e+09
6.33134e+09
5.09727e+09
6.12308e+09
5.6667e+09
3.95222e+09
6.69934e+09
6.80626e+09
7.13739e+09
4.90396e+09
5.83267e+09
5.10208e+09
6.38401e+09
6.3152e+09
3.44547e+09
4.34975e+09
3.95332e+09
5.03203e+09
6.63469e+09
5.47835e+09
5.43546e+09
3.61597e+09
5.08954e+09
5.03526e+09
8.5509e+09
7.93256e+09
1.01537e+10
1.04502e+10
8.37329e+09
7.84449e+09
6.8186e+09
8.50704e+09
8.10502e+09
7.83772e+09
8.11829e+09
8.47707e+09
9.08784e+09
7.79036e+09
8.21639e+09
9.76358e+09
9.3955e+09
6.33305e+09
1.28072e+10
9.82525e+09
8.96926e+09
1.118e+10
8.29115e+09
9.80727e+09
7.84602e+09
9.34853e+09
7.45848e+09
8.4526e+09
7.13868e+09
7.02691e+09
8.32963e+09
9.17205e+09
7.65154e+09
7.33537e+09
8.71972e+09
6.03277e+09
8.07579e+09
1.07215e+10
8.95644e+09
1.00641e+10
6.41678e+09
7.67722e+09
8.92876e+09
8.37299e+09
6.76683e+09
9.62462e+09
6.1457e+09
8.12349e+09
5.00087e+09
4.35631e+09
9.51446e+09
7.86159e+09
1.11947e+10
5.60695e+09
6.03193e+09
1.02274e+10
9.12326e+09
7.18998e+09
7.26505e+09
9.90664e+09
8.07761e+09
9.40018e+09
4.73099e+09
8.77781e+09
4.84357e+09
5.79387e+09
6.96527e+09
6.45596e+09
8.59584e+09
6.47437e+09
9.66625e+09
7.57976e+09
)
;

boundaryField
{
    inlet
    {
        type            calculated;
        value           nonuniform 0();
    }
    outlet
    {
        type            calculated;
        value           uniform 0;
    }
    wall
    {
        type            calculated;
        value           uniform 0;
    }
    procBoundary3to1
    {
        type            processor;
        value           nonuniform List<scalar> 
27
(
3.977e+09
7.01727e+09
6.31135e+09
8.81302e+09
6.11825e+09
5.48311e+09
5.09269e+09
5.29556e+09
3.60291e+09
9.12342e+09
8.47762e+09
7.16418e+09
6.77101e+09
5.65919e+09
9.06955e+09
8.94725e+09
1.26901e+10
3.96382e+09
8.06457e+09
7.6999e+09
5.34568e+09
1.08845e+10
8.57669e+09
1.03637e+10
7.16358e+09
9.26432e+09
3.15592e+09
)
;
    }
    procBoundary3to2
    {
        type            processor;
        value           nonuniform List<scalar> 
12
(
3.04188e+09
4.53338e+09
6.53248e+09
3.95506e+09
1.11943e+10
6.46948e+09
7.71711e+09
4.79934e+09
9.17418e+09
5.7612e+09
1.02128e+10
7.69835e+09
)
;
    }
    procBoundary3to7
    {
        type            processor;
        value           nonuniform List<scalar> 
36
(
1.01464e+10
9.07385e+09
6.41006e+09
7.86974e+09
1.1007e+10
1.22962e+10
7.98564e+09
6.54348e+09
6.03101e+09
7.81308e+09
1.14931e+10
7.58253e+09
8.20031e+09
8.52727e+09
7.06612e+09
7.8433e+09
7.86539e+09
6.78552e+09
5.26862e+09
9.33757e+09
6.89131e+09
8.89592e+09
8.29617e+09
1.03843e+10
8.73404e+09
9.02381e+09
7.52729e+09
7.04924e+09
7.48598e+09
8.98379e+09
5.99007e+09
8.05371e+09
8.21765e+09
8.31743e+09
7.50332e+09
3.99366e+09
)
;
    }
}


// ************************************************************************* //
