/*--------------------------------*- C++ -*----------------------------------*\
| =========                 |                                                 |
| \\      /  F ield         | OpenFOAM: The Open Source CFD Toolbox           |
|  \\    /   O peration     | Version:  4.x                                   |
|   \\  /    A nd           | Web:      www.OpenFOAM.org                      |
|    \\/     M anipulation  |                                                 |
\*---------------------------------------------------------------------------*/
FoamFile
{
    version     2.0;
    format      ascii;
    class       volVectorField;
    location    "49";
    object      U;
}
// * * * * * * * * * * * * * * * * * * * * * * * * * * * * * * * * * * * * * //

dimensions      [0 1 -1 0 0 0 0];

internalField   nonuniform List<vector> 
114
(
(0.0295306 0.00114036 0.000202289)
(0.00283515 0.000244779 -0.000278126)
(0.0254679 0.000470159 0.000944165)
(9.65918e-09 1.71379e-09 -1.79582e-09)
(0.0179174 -0.000553048 0.00203057)
(0.00151999 0.000519498 -8.92121e-05)
(0.000261302 -5.41639e-05 -3.92883e-05)
(0.0289759 0.00114137 0.000324216)
(0.000472875 -0.000130802 -0.000118734)
(0.0281179 0.00118356 0.0016415)
(0.00165258 -0.000487571 -0.000719913)
(0.0245032 0.0028107 0.00419469)
(0.00647639 -0.000969626 -0.00531964)
(0.0259146 0.000586552 7.52902e-05)
(1.16569e-08 6.41636e-10 1.46189e-09)
(0.0255268 0.000215384 0.000299381)
(1.12745e-08 -9.9469e-11 -1.24564e-09)
(0.0245855 -0.000359808 0.000752383)
(1.10977e-08 4.09838e-10 -2.38235e-09)
(0.0210907 -0.00149027 0.00120394)
(0.0064934 0.000230819 -0.00062948)
(0.0147049 -0.000284565 0.000231691)
(0.0344078 -0.00031775 0.00075796)
(0.0142827 -0.000391426 0.000839343)
(0.0359869 0.000125915 0.00118314)
(0.0130066 -0.000880975 0.00174746)
(0.0380213 0.000876653 0.000660952)
(0.0103982 -0.0021362 0.00337198)
(0.0416081 0.00222251 -0.0010089)
(0.00695835 -0.00642351 0.00768525)
(0.00331619 -0.000406215 6.23379e-05)
(0.030183 -5.47497e-05 0.000243302)
(0.00141675 -0.000268456 6.90734e-05)
(0.0306966 0.000560972 5.18243e-05)
(0.000887682 -0.000270602 0.000115119)
(0.0307901 0.0018275 -0.000151646)
(0.00305776 -0.00164098 0.00092247)
(0.0292939 0.00396438 -0.00111053)
(0.00913613 -0.00969108 0.00621887)
(1.14219e-08 -8.92042e-10 2.76948e-09)
(0.0284078 0.000295814 4.79036e-05)
(1.20674e-08 -1.71633e-09 3.98708e-09)
(0.0289107 0.000265793 0.000315396)
(0.000671504 -0.000221755 0.000206681)
(0.029622 0.000133512 0.000649825)
(0.00275476 -0.00124337 0.00115375)
(0.0282328 0.0019901 -0.000711991)
(0.00647834 -0.00328297 0.00296307)
(1.16217e-08 -8.56985e-10 1.07676e-09)
(0.0275588 -0.000275135 -9.21231e-05)
(0.0136248 0.000113347 -0.000314876)
(0.0330533 9.44421e-05 5.14567e-05)
(0.0128634 0.000338741 -0.000248353)
(0.0338379 0.000356865 5.59063e-05)
(0.0118576 0.000482543 0.000117124)
(0.034618 0.000612745 -6.40851e-05)
(0.00922819 0.00045548 0.00116369)
(0.0348882 0.000701785 -0.0019484)
(0.00466902 9.83269e-05 0.00478338)
(0.00698643 -0.000319116 -7.40881e-05)
(0.0309922 -7.89608e-05 0.000278424)
(0.00581566 -0.000400881 5.35695e-05)
(0.031877 0.000457 -0.000107723)
(0.00466795 -0.00059855 0.000307094)
(0.0327988 0.00175989 -0.000839483)
(0.00425871 -0.00109704 0.0010446)
(0.0335696 0.00423645 -0.00298966)
(0.0051692 -0.00415658 0.00598729)
(0.00125625 -4.66832e-05 4.82632e-05)
(0.0289935 0.000282353 -4.99063e-05)
(1.1739e-08 6.646e-11 2.16386e-09)
(0.0285983 0.000675991 -6.36245e-05)
(1.15097e-08 -6.8101e-10 1.8859e-09)
(0.0273836 0.00067142 -0.000377896)
(0.00230693 -0.000339655 0.000868222)
(0.0249564 0.000640371 -0.00180957)
(0.00875719 -0.00299218 0.00952273)
(0.00193334 -7.42306e-05 0.00016512)
(0.0296172 0.000246225 1.0729e-05)
(0.00114593 -4.39666e-05 0.000189133)
(0.030283 0.000152351 -0.000111077)
(0.0212471 -0.000110874 0.000705828)
(0.0380058 -0.000138243 0.000896567)
(0.0223587 -3.55586e-05 0.00102371)
(0.0409514 1.96026e-06 0.000670377)
(0.022676 -0.000388272 0.00209904)
(0.0459187 0.000228003 3.69197e-05)
(0.0208185 -0.00165608 0.00477509)
(0.0573921 0.00105407 -0.00240239)
(0.0110883 -0.00720027 0.0128746)
(0.0170388 -0.000803291 0.000376523)
(0.0354428 -0.000553907 0.000589996)
(0.0173524 -0.0010429 0.000422435)
(0.0375303 -0.000157128 0.000126521)
(0.0169612 -0.00158402 0.000822353)
(0.0404305 0.000681128 -0.000761302)
(0.0142271 -0.00278171 0.00194547)
(0.0443264 0.00319131 -0.00319518)
(0.00655071 -0.00619033 0.00446423)
(0.0144113 -0.000500709 0.000395735)
(0.0336529 -0.000294692 0.000509228)
(0.0142879 -0.00071664 0.000667464)
(0.035255 -0.000139137 0.000207578)
(0.0140759 -0.000996076 0.00163638)
(0.0380338 0.000328923 -0.000871966)
(0.0129172 -0.00152303 0.00376818)
(0.0440105 0.00153933 -0.00393612)
(0.00800517 -0.00214083 0.00974006)
(0.0140075 -0.000624675 0.000222361)
(0.033632 -0.000472847 0.000176125)
(0.0135995 -0.000948299 0.000206096)
(0.0349025 -0.000584692 -0.000421849)
(0.0126044 -0.00159972 0.000502268)
(0.0370075 -0.000385995 -0.000803617)
)
;

boundaryField
{
    inlet
    {
        type            fixedValue;
        value           nonuniform 0();
    }
    outlet
    {
        type            zeroGradient;
    }
    wall
    {
        type            fixedValue;
        value           uniform (0 0 0);
    }
    procBoundary5to1
    {
        type            processor;
        value           nonuniform List<vector> 
32
(
(0.0374899 0.00070978 -0.00125014)
(0.0143214 0.000639426 -0.00329396)
(0.0394668 0.00106372 8.36593e-05)
(0.0111261 0.000287121 -0.00537677)
(0.0409454 0.0013017 0.0034731)
(0.00626056 -0.00029131 -0.00920633)
(0.00887084 -0.00100948 -0.00117754)
(0.0346525 0.000253084 0.000159703)
(0.00859622 -0.00182862 -0.00211669)
(0.0366823 0.00136208 0.00116785)
(0.00816437 -0.00348583 -0.00393584)
(0.0389623 0.00421288 0.00395207)
(0.00631196 -0.00790131 -0.00842607)
(0.029294 -1.89209e-05 0.000163639)
(0.00159939 -0.00012829 -0.000527592)
(0.0297727 0.00049903 9.6527e-05)
(0.00199893 -0.000330232 -0.000929705)
(0.0298571 0.000966061 0.000629223)
(0.00405848 -0.001526 -0.00240987)
(0.0282214 0.00287324 0.0025363)
(0.00884982 -0.00704038 -0.00540463)
(0.0119635 0.0001259 -0.000432004)
(0.0315789 0.000552943 -0.000156258)
(0.00822588 0.000421924 -0.000416655)
(0.00822588 0.000421924 -0.000416655)
(0.00822588 0.000421924 -0.000416655)
(0.00178729 -0.000263938 -0.000171407)
(0.0291793 0.000606559 -0.000365196)
(0.0291793 0.000606559 -0.000365196)
(0.0291793 0.000606559 -0.000365196)
(1.03005e-08 3.56027e-10 1.20446e-09)
(1.03005e-08 3.56027e-10 1.20446e-09)
)
;
    }
    procBoundary5to4
    {
        type            processor;
        value           nonuniform List<vector> 
12
(
(0.0334548 -0.000508693 0.000207157)
(0.0299215 -0.000611524 0.000281276)
(0.028476 0.000112154 -0.000182305)
(0.0274939 1.96747e-05 7.41832e-05)
(0.0327 -0.000126741 0.000154182)
(0.0304583 -0.000488219 0.000407519)
(0.0288855 6.77181e-05 0.000301754)
(0.0288745 -5.32583e-05 0.000199529)
(0.036165 -0.000290991 0.0009749)
(0.0341962 -0.000671971 0.000786835)
(0.0326158 -0.00023085 0.000839584)
(0.0325473 -0.000410652 0.000484137)
)
;
    }
    procBoundary5to7
    {
        type            processor;
        value           nonuniform List<vector> 
44
(
(0.0289851 0.000383834 -0.000118414)
(0.0011193 0.000248826 -0.000335013)
(0.0289843 0.000537463 -4.48161e-05)
(0.000300641 9.40524e-05 -0.000127631)
(0.0285915 0.000744616 0.000764842)
(9.70808e-05 4.22912e-05 -5.46925e-05)
(0.0244776 -0.00128421 0.0033086)
(0.0033457 0.00139315 -0.00178912)
(0.00141919 0.000164236 -0.00025801)
(0.0289851 0.000383834 -0.000118414)
(1.16994e-08 -1.45444e-09 1.22564e-09)
(0.0277486 -0.000392594 0.000476836)
(1.06586e-08 -1.98846e-09 7.81406e-10)
(0.0273857 -0.000138719 0.000847475)
(9.75785e-09 -2.05397e-09 5.21244e-10)
(0.0245544 0.00197261 0.000937638)
(0.00574246 -0.00133889 0.0014617)
(1.13096e-08 5.69085e-10 1.31926e-10)
(1.16994e-08 -1.45444e-09 1.22564e-09)
(0.0269588 -0.000175455 -1.98376e-05)
(1.16994e-08 -1.45444e-09 1.22564e-09)
(0.0277486 -0.000392594 0.000476836)
(0.00203254 -0.000109052 0.000592236)
(0.0306615 0.000213098 -6.5904e-05)
(0.00403473 -0.00022689 0.00219218)
(0.0290743 -0.000149762 -0.00242133)
(0.00875882 -0.000642055 0.0112706)
(0.000426317 4.86295e-07 5.15361e-05)
(0.0285301 0.000153028 2.01865e-05)
(1.16403e-08 4.82e-10 2.00423e-09)
(0.00203254 -0.000109052 0.000592236)
(0.0283343 -0.00016802 0.000180697)
(0.00203254 -0.000109052 0.000592236)
(0.0306615 0.000213098 -6.5904e-05)
(0.0114079 -0.00338455 0.00166168)
(0.0415459 0.00127346 -0.0018287)
(0.00744069 -0.00694161 0.00603735)
(0.0118947 -0.000328653 0.000168695)
(0.0318253 -0.0002414 -4.00131e-05)
(0.0108419 -0.000556122 9.90773e-05)
(0.0319764 -0.000367494 -0.000371389)
(0.00949594 -0.000898376 0.000382852)
(0.0114079 -0.00338455 0.00166168)
(0.0316322 -0.000451694 -0.00144012)
)
;
    }
}


// ************************************************************************* //
