/*--------------------------------*- C++ -*----------------------------------*\
| =========                 |                                                 |
| \\      /  F ield         | OpenFOAM: The Open Source CFD Toolbox           |
|  \\    /   O peration     | Version:  4.x                                   |
|   \\  /    A nd           | Web:      www.OpenFOAM.org                      |
|    \\/     M anipulation  |                                                 |
\*---------------------------------------------------------------------------*/
FoamFile
{
    version     2.0;
    format      ascii;
    class       volScalarField;
    location    "47";
    object      p_rgh;
}
// * * * * * * * * * * * * * * * * * * * * * * * * * * * * * * * * * * * * * //

dimensions      [1 -1 -2 0 0 0 0];

internalField   nonuniform List<scalar> 
114
(
68.7691
-16.5966
61.8835
-34.1012
52.3342
-54.8487
1.09211
68.0676
-17.4467
61.6649
-35.7229
55.4935
-50.0844
74.7023
4.50165
68.0158
-12.8608
61.263
-29.6794
53.5168
-44.5841
19.1332
74.4502
-0.0723986
68.2582
-20.3287
62.937
-42.299
58.9943
-66.2467
19.3448
74.5966
0.379881
68.0565
-19.007
62.0719
-38.3926
57.5196
-55.61
20.6785
74.3914
2.4479
67.8507
-16.2509
61.8575
-35.0929
57.1475
-52.6898
21.3118
74.3994
19.9108
74.7123
0.945503
68.2216
-18.5249
62.1413
-38.5152
57.1621
-58.1211
19.7248
74.6818
0.547971
68.0838
-19.0741
61.9106
-39.0534
56.9667
-58.5326
20.4573
74.7045
1.93233
67.8405
-16.5373
60.9078
-34.4173
54.2969
-50.1794
20.3114
74.4999
1.38138
67.6835
19.5916
74.3176
0.285508
68.1624
-20.4094
63.1822
-43.767
61.8603
-72.5847
19.5992
74.3805
0.291486
68.1567
-19.9512
62.8438
-41.7108
60.1281
-68.2417
20.2468
74.451
1.24446
67.9233
-18.6025
62.1725
-39.8875
58.5782
-68.2013
20.1786
74.447
1.15521
68.065
-18.5889
62.3652
)
;

boundaryField
{
    inlet
    {
        type            fixedFluxPressure;
        gradient        nonuniform 0();
        value           nonuniform 0();
    }
    outlet
    {
        type            fixedValue;
        value           uniform 0;
    }
    wall
    {
        type            fixedFluxPressure;
        gradient        nonuniform List<scalar> 
66
(
-8.02353e-09
8.48978e-08
4.57164e-08
5.19848e-07
1.32903e-06
1.85352e-06
6.42911e-07
5.09744e-07
-4.1555e-07
1.98528e-06
1.25694e-06
-7.75967e-07
-5.94128e-07
-3.34041e-07
2.05433e-07
-3.19298e-07
-1.18828e-07
-1.66605e-06
-1.79852e-06
-2.19709e-06
-1.31762e-06
-1.42476e-06
-9.85898e-07
-8.94577e-07
-3.48066e-06
-1.35948e-05
-6.55493e-06
-8.71795e-06
-6.08938e-06
-3.10437e-06
-5.93357e-05
-3.19474e-05
-1.45118e-05
-4.6382e-06
-1.67628e-07
-4.50131e-07
-2.57235e-06
-6.07697e-07
3.86903e-09
-1.15284e-06
1.27075e-06
-4.08519e-06
1.83394e-06
8.10941e-07
-7.6513e-07
-1.52589e-07
1.65209e-05
2.2602e-07
2.21137e-07
4.36762e-07
1.3592e-06
6.56369e-07
5.93432e-07
1.50432e-07
2.72346
1.4779e-06
-1.61049e-06
-2.43623e-06
2.84253e-05
5.76948e-06
-2.41479e-06
-6.41753e-06
0.000174599
4.03539e-06
-1.45693e-06
-5.15281e-05
)
;
        value           nonuniform List<scalar> 
66
(
19.5916
19.5992
20.2468
20.1786
74.3176
74.3805
74.451
74.447
0.285508
0.291486
1.24446
1.15521
68.1624
68.1567
67.9233
68.065
-20.4094
-19.9512
-18.6025
-18.5889
63.1822
62.8438
62.1725
62.3652
-43.767
-41.7108
-39.8875
61.8603
60.1281
58.5782
-72.5847
-68.2417
-68.2013
19.1332
19.9108
19.5916
74.4502
74.7123
74.3176
-0.0723986
0.945503
0.285508
68.7691
68.2582
68.2216
68.1624
-16.5966
-20.3287
-18.5249
-20.4094
61.8835
62.937
62.1413
63.1822
-34.0623
-42.299
-38.5152
-43.767
52.3342
58.9943
57.1621
61.8603
-54.8487
-66.2467
-58.1211
-72.5847
)
;
    }
    procBoundary5to1
    {
        type            processor;
        value           nonuniform List<scalar> 
32
(
68.5185
-21.7213
63.7186
-44.1898
60.6796
-67.104
-1.57197
68.2667
-22.2483
63.2766
-43.9225
60.6906
-65.5393
74.4423
0.874325
68.0451
-18.2906
62.4474
-37.1458
57.9906
-54.2119
20.1138
75.1682
1.72865
1.72865
1.72865
19.9248
74.8153
74.8153
74.8153
22.0899
22.0899
)
;
    }
    procBoundary5to4
    {
        type            processor;
        value           nonuniform List<scalar> 
12
(
81.1105
81.4148
81.4437
81.3136
81.4691
81.554
81.7496
81.5422
80.9255
81.1129
81.2595
81.2396
)
;
    }
    procBoundary5to7
    {
        type            processor;
        value           nonuniform List<scalar> 
44
(
74.4034
1.72344
67.9674
-16.9345
62.1149
-35.4387
57.4243
-51.3116
20.4458
74.4034
3.38691
67.92
-14.7905
62.1417
-32.6843
56.3778
-49.0847
22.4716
3.38691
74.583
3.38691
67.92
-17.7416
61.6051
-36.7792
56.76
-54.52
20.9921
74.5275
2.52777
-17.7416
67.7959
-17.7416
61.6051
-39.4
58.5836
-66.1227
20.9042
74.5925
2.33921
68.0759
-16.5021
-39.4
62.0189
)
;
    }
}


// ************************************************************************* //
