/*--------------------------------*- C++ -*----------------------------------*\
  =========                 |
  \\      /  F ield         | OpenFOAM: The Open Source CFD Toolbox
   \\    /   O peration     | Website:  https://openfoam.org
    \\  /    A nd           | Version:  4.x
     \\/     M anipulation  |
\*---------------------------------------------------------------------------*/
FoamFile
{
    version     2.0;
    format      ascii;
    class       Cloud<passiveParticle>;
    location    0;
    object      positions;
}
// * * * * * * * * * * * * * * * * * * * * * * * * * * * * * * * * * * * * * //

236
(
( 0.250095 -0.0571701 -0.037829 ) 63
( 0.253218 -0.0190667 -0.0428919 ) 45
( 0.252621 -0.0641996 -0.0651132 ) 36
( 0.253662 -0.0738453 -0.0477526 ) 27
( 0.255835 -0.0383565 -0.0386821 ) 72
( 0.25056 -0.0262666 0.00332627 ) 86
( 0.256736 -0.0654562 0.00463359 ) 84
( 0.251468 -0.0232712 -0.016541 ) 72
( 0.257203 -0.0759999 -0.0139208 ) 81
( 0.252616 -0.0902917 -0.00141001 ) 81
( 0.353456 -0.0660838 -0.0605631 ) 39
( 0.379236 -0.0900693 -0.0644302 ) 31
( 0.402205 -0.0526042 -0.0631512 ) 41
( 0.312825 -0.0442522 -0.0461499 ) 38
( 0.416418 -0.089978 -0.0798166 ) 5
( 0.362062 -0.0749467 -0.0398264 ) 58
( 0.302848 -0.0282192 -0.0373191 ) 73
( 0.352898 -0.0311886 -0.0498864 ) 48
( 0.412387 -0.0901952 -0.0422759 ) 59
( 0.445937 -0.0468372 -0.0353747 ) 70
( 0.472072 -0.0451859 -0.0595118 ) 43
( 0.288209 -0.0267718 -0.0597665 ) 46
( 0.420465 -0.0900902 -0.0603176 ) 33
( 0.447562 -0.0150073 -0.0453456 ) 52
( 0.335533 -0.0577854 -0.0578299 ) 39
( 0.437687 -0.0312922 -0.0633358 ) 51
( 0.300491 -0.0423186 -0.0615633 ) 46
( 0.40667 -0.0246493 -0.0794269 ) 23
( 0.490042 -0.044817 -0.0457714 ) 44
( 0.336945 -0.0761637 -0.06533 ) 30
( 0.406366 -0.0148138 -0.0568129 ) 50
( 0.343011 -0.054655 -0.024513 ) 66
( 0.274088 -0.0539896 -0.0587229 ) 36
( 0.478743 -0.0300435 -0.0284093 ) 80
( 0.359149 -0.0145036 -0.0795969 ) 21
( 0.431306 -0.0440223 -0.049478 ) 42
( 0.341656 -0.0338574 -0.0338616 ) 75
( 0.466897 -0.0214507 -0.0520875 ) 52
( 0.359474 -0.0509888 -0.0722392 ) 12
( 0.362253 -0.0502751 -0.0525637 ) 40
( 0.418013 -0.0295274 -0.0464319 ) 51
( 0.418427 -0.072524 -0.0693119 ) 33
( 0.468628 -0.0739192 -0.0515457 ) 34
( 0.320963 -0.0476832 -0.0718486 ) 11
( 0.333354 -0.0393304 -0.0509245 ) 48
( 0.43012 -0.0585518 -0.0360768 ) 69
( 0.437516 -0.0728703 -0.0749277 ) 6
( 0.451577 -0.0901626 -0.0491598 ) 34
( 0.287585 -0.090172 -0.0681014 ) 28
( 0.399985 -0.0732169 -0.0768215 ) 5
( 0.468147 -0.0412969 -0.0405709 ) 79
( 0.474052 -0.0210345 -0.0859986 ) 26
( 0.268684 -0.0224602 -0.0728567 ) 18
( 0.408969 -0.0444841 -0.080057 ) 14
( 0.401578 -0.0900796 -0.0664465 ) 32
( 0.453145 -0.0190468 -0.0662941 ) 52
( 0.327604 -0.0742884 -0.041867 ) 56
( 0.410583 -0.0722843 -0.0509573 ) 32
( 0.378758 -0.0676822 -0.0324391 ) 67
( 0.324301 -0.0880555 -0.0751966 ) 2
( 0.339929 -0.0420948 -0.0694659 ) 48
( 0.436428 -0.0459164 -0.0767744 ) 15
( 0.27005 -0.0254282 -0.0348962 ) 72
( 0.272738 -0.086367 -0.0204232 ) 54
( 0.440643 -0.0583475 -0.0618074 ) 42
( 0.384532 -0.0609475 -0.0663628 ) 40
( 0.380703 -0.0417079 -0.0342481 ) 76
( 0.40906 -0.0145523 -0.0371435 ) 77
( 0.456034 -0.0797111 -0.0696675 ) 34
( 0.295312 -0.0697726 -0.027236 ) 64
( 0.489848 -0.0756235 -0.0426505 ) 62
( 0.302453 -0.0900993 -0.0444174 ) 28
( 0.379213 -0.0429233 -0.0598185 ) 40
( 0.366637 -0.0276925 -0.0359108 ) 76
( 0.328084 -0.0901896 -0.0297909 ) 56
( 0.458196 -0.0530558 -0.0835936 ) 16
( 0.479909 -0.0739863 -0.0701269 ) 35
( 0.485332 -0.0614294 -0.0556972 ) 44
( 0.271888 -0.0170163 -0.054001 ) 45
( 0.413703 -0.0531548 -0.0461192 ) 41
( 0.287583 -0.0667444 -0.0658996 ) 37
( 0.38132 -0.0262029 -0.0493027 ) 49
( 0.298325 -0.0168982 -0.0737561 ) 19
( 0.356583 -0.0749555 -0.0780123 ) 3
( 0.347257 -0.0870709 -0.0352082 ) 57
( 0.454327 -0.031603 -0.0843617 ) 25
( 0.483039 -0.0552245 -0.0827791 ) 17
( 0.374379 -0.0224561 -0.0676185 ) 49
( 0.307695 -0.0244745 -0.0561742 ) 47
( 0.271227 -0.0738576 -0.0570549 ) 27
( 0.425616 -0.0155628 -0.061731 ) 51
( 0.315871 -0.0602874 -0.0574226 ) 38
( 0.439773 -0.0901026 -0.0650566 ) 33
( 0.356597 -0.086877 -0.0547882 ) 30
( 0.432282 -0.0901847 -0.0443652 ) 33
( 0.276147 -0.0669312 -0.0230843 ) 63
( 0.318171 -0.0900138 -0.0564188 ) 29
( 0.37212 -0.0731008 -0.0567828 ) 31
( 0.467878 -0.061102 -0.0365308 ) 70
( 0.456206 -0.0531457 -0.051041 ) 43
( 0.270621 -0.0901687 -0.0398163 ) 54
( 0.393435 -0.0275153 -0.0649221 ) 50
( 0.302431 -0.079064 -0.061388 ) 28
( 0.322512 -0.0301511 -0.0362317 ) 74
( 0.269005 -0.0854181 -0.073248 ) 0
( 0.388003 -0.0577115 -0.0468419 ) 40
( 0.392003 -0.0868503 -0.0277316 ) 59
( 0.490308 -0.0457875 -0.0668347 ) 44
( 0.417963 -0.0339125 -0.065742 ) 51
( 0.481781 -0.0495815 -0.0283508 ) 71
( 0.279896 -0.0392469 -0.0467292 ) 46
( 0.490031 -0.0249947 -0.0438985 ) 53
( 0.436876 -0.0295398 -0.0370433 ) 78
( 0.454 -0.0421345 -0.0674571 ) 52
( 0.340994 -0.0223423 -0.0774339 ) 21
( 0.470524 -0.0888384 -0.0822678 ) 7
( 0.476099 -0.0900801 -0.0427056 ) 62
( 0.436544 -0.0901288 -0.0846706 ) 6
( 0.373854 -0.0900121 -0.045275 ) 31
( 0.430531 -0.0716191 -0.0510452 ) 33
( 0.269448 -0.0603994 -0.0405208 ) 63
( 0.451749 -0.0339542 -0.0494322 ) 52
( 0.288798 -0.0569072 -0.044119 ) 37
( 0.302568 -0.051607 -0.0307927 ) 64
( 0.393494 -0.0901002 -0.048265 ) 32
( 0.278769 -0.0396285 -0.0716598 ) 19
( 0.395929 -0.0397279 -0.049481 ) 50
( 0.337258 -0.0903918 -0.0515738 ) 30
( 0.42184 -0.0533883 -0.0650512 ) 42
( 0.32475 -0.0552065 -0.0323983 ) 65
( 0.34609 -0.0634702 -0.0420205 ) 66
( 0.471391 -0.0902155 -0.0624358 ) 34
( 0.26993 -0.0649522 -0.074864 ) 9
( 0.314799 -0.0704968 -0.0744703 ) 11
( 0.451194 -0.0771929 -0.0888243 ) 7
( 0.30579 -0.0705306 -0.0439286 ) 38
( 0.290162 -0.0900814 -0.0289531 ) 55
( 0.396051 -0.0290534 -0.0328825 ) 77
( 0.372139 -0.0631312 -0.0817501 ) 13
( 0.388918 -0.0890569 -0.0817893 ) 5
( 0.49006 -0.0319274 -0.0811676 ) 26
( 0.460048 -0.0902613 -0.0313509 ) 61
( 0.356749 -0.0314463 -0.0692983 ) 48
( 0.314255 -0.0290916 -0.0743861 ) 20
( 0.460092 -0.0245722 -0.0328186 ) 79
( 0.418563 -0.0741007 -0.0327386 ) 60
( 0.490286 -0.0899306 -0.0563646 ) 35
( 0.339832 -0.019371 -0.0146563 ) 75
( 0.297615 -0.0651168 0.0107397 ) 85
( 0.38215 -0.0281232 -0.0187643 ) 76
( 0.454582 -0.0159112 -0.0149557 ) 79
( 0.293135 -0.090155 -0.00937383 ) 82
( 0.441536 -0.0578225 -0.0196886 ) 69
( 0.3011 -0.0291423 -0.0168746 ) 73
( 0.461251 -0.0479946 -0.0232308 ) 70
( 0.289604 -0.084092 0.0124175 ) 82
( 0.399709 -0.0396848 -0.0147479 ) 77
( 0.27683 -0.0520637 -0.00134871 ) 84
( 0.34248 -0.0900495 -0.0161306 ) 57
( 0.447376 -0.0336301 -0.0204369 ) 79
( 0.368182 -0.0533814 -0.0193777 ) 67
( 0.316278 -0.0412825 -0.0209629 ) 74
( 0.42926 -0.0729931 -0.0160216 ) 60
( 0.272967 -0.0903851 -0.000994605 ) 81
( 0.287451 -0.0513971 -0.0180111 ) 64
( 0.26063 -0.0431901 0.00585184 ) 84
( 0.35509 -0.0308721 -0.0199217 ) 75
( 0.273401 -0.0710904 -0.0039417 ) 84
( 0.292405 -0.0677884 -0.00790151 ) 85
( 0.309299 -0.0902043 -0.023079 ) 56
( 0.409967 -0.0237854 -0.0198881 ) 77
( 0.306935 -0.0903331 0.00470123 ) 83
( 0.387032 -0.072193 -0.0150903 ) 58
( 0.267565 -0.0205983 -0.00524289 ) 86
( 0.436537 -0.0156769 -0.022811 ) 78
( 0.429511 -0.0425071 -0.023932 ) 78
( 0.325762 -0.0901759 0.0107145 ) 83
( 0.367135 -0.0152072 -0.0205905 ) 76
( 0.267929 -0.0415485 -0.0232318 ) 72
( 0.388686 -0.0422283 -0.0773733 ) 22
( 0.449986 -0.0708451 -0.0450658 ) 43
( 0.284448 -0.0762611 -0.0424523 ) 55
( 0.421601 -0.0594493 -0.0840198 ) 15
( 0.304872 -0.051534 -0.00826389 ) 85
( 0.439455 -0.0188647 -0.0807521 ) 24
( 0.490028 -0.0900394 -0.0762599 ) 8
( 0.323223 -0.0903103 -0.00891645 ) 83
( 0.398901 -0.0696031 -0.0350571 ) 68
( 0.406781 -0.0722217 -0.017008 ) 59
( 0.264219 -0.0349669 -0.0580622 ) 45
( 0.464414 -0.0619396 -0.0668597 ) 43
( 0.481933 -0.0282707 -0.0631506 ) 53
( 0.342485 -0.0605867 -0.0763539 ) 12
( 0.256052 -0.090092 -0.0589404 ) 27
( 0.328699 -0.0234656 -0.0618674 ) 47
( 0.44732 -0.0754066 -0.026056 ) 61
( 0.357774 -0.0453377 -0.034025 ) 66
( 0.471739 -0.0393121 -0.0784557 ) 25
( 0.490265 -0.0697204 -0.0238422 ) 71
( 0.413124 -0.0902447 -0.0224553 ) 59
( 0.256081 -0.0567224 -0.0182947 ) 63
( 0.334482 -0.0726477 -0.0232393 ) 57
( 0.354009 -0.0748126 -0.021608 ) 57
( 0.25458 -0.0900444 -0.0275686 ) 54
( 0.286354 -0.0347052 -0.0286842 ) 73
( 0.311214 -0.0738188 -0.00533717 ) 83
( 0.315061 -0.0715977 -0.0265648 ) 56
( 0.293646 -0.0461785 0.00706237 ) 85
( 0.471656 -0.0761463 -0.024057 ) 61
( 0.434897 -0.0904028 -0.0248457 ) 60
( 0.33513 -0.038602 -0.0157934 ) 75
( 0.411368 -0.0507739 -0.0264961 ) 68
( 0.365315 -0.0902003 -0.0274141 ) 58
( 0.391298 -0.0549837 -0.0238912 ) 68
( 0.293455 -0.051797 -0.0776015 ) 10
( 0.250181 -0.0800021 -0.0769173 ) 0
( 0.343867 -0.0901408 -0.0785135 ) 3
( 0.440696 -0.0602244 -0.0899675 ) 15
( 0.490036 -0.073385 -0.0872762 ) 8
( 0.386982 -0.0225465 -0.0830999 ) 22
( 0.304669 -0.0894578 -0.0783182 ) 1
( 0.469396 -0.0693347 -0.086396 ) 16
( 0.424659 -0.0317358 -0.084377 ) 24
( 0.370043 -0.0377145 -0.0827439 ) 22
( 0.395937 -0.0573348 -0.0880674 ) 14
( 0.329768 -0.0365257 -0.0857974 ) 20
( 0.263515 -0.0473791 -0.0818493 ) 9
( 0.296738 -0.0717039 -0.0828855 ) 1
( 0.297673 -0.0336204 -0.0845327 ) 19
( 0.333844 -0.0750899 -0.0869529 ) 3
( 0.286886 -0.089662 -0.087988 ) 1
( 0.369001 -0.0900535 -0.0818285 ) 4
( 0.32268 -0.0586011 -0.0884288 ) 11
( 0.350489 -0.0399061 -0.0862313 ) 21
( 0.27679 -0.0304709 -0.0892432 ) 18
( 0.310684 -0.0164009 -0.0893831 ) 20
)
