/*--------------------------------*- C++ -*----------------------------------*\
| =========                 |                                                 |
| \\      /  F ield         | OpenFOAM: The Open Source CFD Toolbox           |
|  \\    /   O peration     | Version:  4.x                                   |
|   \\  /    A nd           | Web:      www.OpenFOAM.org                      |
|    \\/     M anipulation  |                                                 |
\*---------------------------------------------------------------------------*/
FoamFile
{
    version     2.0;
    format      ascii;
    class       volVectorField;
    location    "50.5";
    object      DDtUrel;
}
// * * * * * * * * * * * * * * * * * * * * * * * * * * * * * * * * * * * * * //

dimensions      [0 1 -2 0 0 0 0];

internalField   nonuniform List<vector> 
108
(
(0.00171593 -8.91446e-05 -7.14912e-05)
(0.00103156 -4.32911e-05 -3.93178e-05)
(0.000624426 -1.18677e-05 -2.00574e-05)
(0.000394799 7.48934e-06 -1.97492e-06)
(0.000251639 1.49637e-05 4.48841e-06)
(0.000175893 1.86321e-05 9.51394e-06)
(0.000116018 1.68225e-05 1.24794e-05)
(9.47623e-05 1.67336e-05 2.1355e-05)
(5.24175e-05 1.44284e-05 2.41339e-05)
(0.00166554 -0.000102366 -6.72683e-05)
(0.000973266 -4.41165e-05 -3.57309e-05)
(0.000571334 -1.12152e-05 -1.7567e-05)
(0.0003486 8.36361e-06 -1.51075e-06)
(0.000213922 1.3133e-05 4.41042e-06)
(0.000143616 1.80798e-05 9.06794e-06)
(9.06367e-05 1.47585e-05 1.07289e-05)
(7.05421e-05 1.68862e-05 1.49249e-05)
(3.6857e-05 1.19943e-05 1.47042e-05)
(0.00162142 -7.06798e-05 -6.35923e-05)
(0.000921505 -3.11259e-05 -3.1994e-05)
(0.000528248 -9.01337e-06 -1.41739e-05)
(0.000310736 3.93e-06 -2.83685e-07)
(0.000185529 7.62848e-06 4.6593e-06)
(0.000118099 1.26535e-05 5.89905e-06)
(7.26674e-05 9.70769e-06 8.29858e-06)
(4.94585e-05 1.13855e-05 9.20551e-06)
(2.68929e-05 6.22372e-06 7.9192e-06)
(0.00160598 -2.29076e-05 -6.62198e-05)
(0.000902158 -8.06606e-06 -3.2359e-05)
(0.00051144 -3.92939e-06 -1.51016e-05)
(0.000294895 -1.72018e-07 -1.26304e-06)
(0.000173675 9.44402e-07 4.75717e-06)
(0.000105402 3.78887e-06 7.3593e-06)
(6.55402e-05 6.65869e-07 7.45106e-06)
(3.92208e-05 -1.28478e-06 8.20189e-06)
(2.17452e-05 -2.05473e-06 5.00299e-06)
(0.00173658 -8.3448e-05 -1.38401e-05)
(0.00105036 -3.95343e-05 -1.27709e-05)
(0.000638876 -1.0234e-05 -1.34283e-05)
(0.000403856 6.70096e-06 -8.27959e-06)
(0.000257381 1.31481e-05 -9.92119e-07)
(0.000178043 1.68414e-05 6.66578e-06)
(0.000119708 1.56878e-05 1.08105e-05)
(9.73461e-05 1.4193e-05 1.49612e-05)
(6.29187e-05 1.14416e-05 1.36163e-05)
(0.00169355 -9.70861e-05 -7.20285e-06)
(0.000999784 -4.18363e-05 -8.10258e-06)
(0.000592574 -9.27274e-06 -9.52755e-06)
(0.000364678 8.52269e-06 -6.61465e-06)
(0.000224673 1.31758e-05 -9.48533e-07)
(0.000150766 1.78078e-05 4.58029e-06)
(9.76159e-05 1.31604e-05 7.638e-06)
(7.87294e-05 1.16097e-05 9.23546e-06)
(4.8933e-05 5.95495e-06 8.57638e-06)
(0.00165043 -6.77812e-05 -5.73662e-07)
(0.000949351 -2.86513e-05 -4.86931e-06)
(0.000548659 -8.26452e-06 -6.28136e-06)
(0.000326362 5.55671e-06 -4.3844e-06)
(0.000196272 8.1287e-06 -3.53306e-07)
(0.000128302 1.18137e-05 2.10175e-06)
(8.07698e-05 6.94808e-06 3.68482e-06)
(6.09314e-05 4.87526e-06 1.9552e-06)
(3.49918e-05 4.34115e-07 2.7742e-06)
(0.00163521 -1.66408e-05 7.97517e-07)
(0.000930799 -5.87641e-06 -2.98816e-06)
(0.000531809 -4.16559e-06 -6.1226e-06)
(0.000312588 -1.70872e-06 -3.08851e-06)
(0.000184511 -1.65185e-06 -2.04846e-07)
(0.000117952 -1.11389e-06 2.89662e-08)
(7.20572e-05 -2.52106e-06 -8.98754e-08)
(5.15547e-05 -4.31329e-06 -4.19184e-06)
(2.6179e-05 -5.69485e-06 -1.51885e-06)
(0.00177505 -8.10631e-05 1.7466e-05)
(0.00109337 -3.74491e-05 5.40167e-06)
(0.000681196 -7.5276e-06 -5.17171e-06)
(0.000443251 9.25367e-06 -6.48329e-06)
(0.000290969 1.40786e-05 -1.07856e-06)
(0.000207755 1.51441e-05 9.1804e-06)
(0.000151388 1.07119e-05 1.57709e-05)
(0.000137754 6.83356e-06 1.67278e-05)
(0.000107726 5.3556e-06 1.46487e-05)
(0.00173562 -9.33611e-05 2.04648e-05)
(0.00104377 -3.94639e-05 7.8516e-06)
(0.000635494 -7.14717e-06 -2.14944e-06)
(0.000406514 1.09239e-05 -3.77274e-06)
(0.000261259 1.34565e-05 -3.77879e-07)
(0.000184819 1.48316e-05 6.21561e-06)
(0.000129649 8.05688e-06 8.5066e-06)
(0.00011532 4.29302e-06 7.19831e-06)
(8.35136e-05 -2.29884e-06 6.30882e-06)
(0.0016954 -6.58904e-05 2.59596e-05)
(0.000998383 -2.86603e-05 1.11722e-05)
(0.000592266 -8.25803e-06 -1.46079e-07)
(0.000367844 6.5529e-06 -2.27927e-06)
(0.000230669 8.97308e-06 -1.54162e-06)
(0.000161642 1.04015e-05 1.18466e-06)
(0.000109503 3.1629e-06 2.38368e-06)
(9.13783e-05 -1.29523e-06 4.46687e-07)
(5.97264e-05 -7.99407e-06 7.08867e-07)
(0.00168047 -1.57513e-05 2.54222e-05)
(0.000980503 -9.44483e-06 9.64039e-06)
(0.000574408 -6.19214e-06 -7.6346e-07)
(0.000353255 -3.21594e-06 -2.54237e-06)
(0.000217212 -3.56801e-06 -1.61634e-06)
(0.000148912 -3.91948e-06 -8.67522e-07)
(9.67854e-05 -5.74032e-06 -3.71909e-06)
(7.77749e-05 -8.47705e-06 -7.22663e-06)
(4.3454e-05 -1.30082e-05 -5.10329e-06)
)
;

boundaryField
{
    inlet
    {
        type            calculated;
        value           nonuniform List<vector> 
12
(
(0.00403054 -0.000225914 -0.000175729)
(0.00380673 -0.000454056 -0.000143109)
(0.00372004 -0.000273064 -0.000120426)
(0.00371898 -0.000144991 -0.000182273)
(0.00403675 -0.000173821 4.30314e-05)
(0.00389847 -0.000402789 9.49455e-05)
(0.0037872 -0.000258403 0.000141127)
(0.00378516 -5.52425e-05 0.00013036)
(0.00422246 -0.00017741 0.000143246)
(0.00410864 -0.000378381 0.000138401)
(0.00401423 -0.000250118 0.000173569)
(0.00399485 -4.46503e-05 0.000150826)
)
;
    }
    outlet
    {
        type            calculated;
        value           nonuniform 0();
    }
    wall
    {
        type            calculated;
        value           nonuniform List<vector> 
63
(
(0.00422246 -0.00017741 0.000143246)
(0.00410864 -0.000378381 0.000138401)
(0.00401423 -0.000250118 0.000173569)
(0.00399485 -4.46503e-05 0.000150826)
(0.000503891 1.94861e-05 4.87035e-05)
(0.000246538 -1.54268e-06 4.55314e-05)
(0.000122045 4.45427e-08 6.38474e-05)
(8.3216e-05 -1.75622e-05 4.16987e-05)
(0.000386267 4.22126e-05 -1.92004e-05)
(0.000178279 5.00838e-05 -3.64365e-06)
(5.92965e-05 1.20038e-07 -3.13358e-06)
(1.46635e-05 -2.26833e-05 -3.17494e-06)
(0.000398696 5.06747e-05 -3.10911e-05)
(0.000269314 8.70991e-05 -7.65716e-06)
(0.000138603 6.62457e-05 1.90101e-07)
(0.000144251 -5.4606e-06 -1.81473e-06)
(0.000261141 3.09529e-05 -1.92697e-05)
(0.00015322 2.98531e-05 -3.3693e-06)
(6.29078e-05 3.94244e-05 -1.5039e-05)
(6.01452e-05 -1.87988e-05 1.92195e-06)
(0.000282116 2.86725e-05 3.77876e-05)
(0.000221017 4.4702e-05 3.13834e-05)
(0.0001771 6.44058e-05 -5.91508e-06)
(0.000185848 -1.12296e-05 1.21718e-05)
(0.000176536 1.7808e-06 7.13922e-05)
(9.04922e-05 -1.04902e-05 1.92388e-05)
(6.44872e-05 -5.21404e-06 8.41987e-06)
(7.59111e-05 -7.19631e-06 -2.97787e-05)
(0.000383254 -1.57159e-05 6.11038e-05)
(0.00028857 3.6997e-07 -8.96032e-06)
(0.000196692 -8.0702e-06 -8.51662e-06)
(0.000228304 -1.32182e-05 -5.53223e-05)
(0.000179056 -3.69581e-06 4.9357e-05)
(6.69376e-05 -6.99894e-05 -2.02511e-06)
(1.44509e-05 -6.4915e-05 1.08027e-05)
(1.12981e-05 -6.31566e-05 7.52132e-06)
(0.00403054 -0.000225914 -0.000175729)
(0.00403675 -0.000173821 4.30314e-05)
(0.00422246 -0.00017741 0.000143246)
(0.0002269 -9.98991e-06 -7.93798e-07)
(0.000240977 1.99359e-05 4.12789e-06)
(0.000503891 1.94861e-05 4.87035e-05)
(0.000123818 1.75155e-05 -1.87022e-05)
(0.000124405 2.36703e-05 -4.91896e-05)
(0.000386267 4.22126e-05 -1.92004e-05)
(0.00017941 4.6864e-05 4.94737e-05)
(0.000143798 2.49054e-05 -4.51637e-05)
(0.000398696 5.06747e-05 -3.10911e-05)
(8.07166e-05 4.0232e-05 1.59002e-05)
(5.46659e-05 1.35135e-05 -1.8901e-05)
(0.000261141 3.09529e-05 -1.92697e-05)
(0.000178382 4.14568e-05 7.91878e-06)
(0.000109335 2.92158e-05 7.93225e-06)
(0.000282116 2.86725e-05 3.77876e-05)
(3.00166e-05 4.66644e-06 -2.89544e-06)
(-1.47716e-05 3.62731e-05 1.36096e-07)
(0.000176536 1.7808e-06 7.13922e-05)
(0.00022982 1.95461e-06 8.27088e-05)
(7.76514e-05 4.09327e-05 2.5257e-05)
(0.000383254 -1.57159e-05 6.11038e-05)
(-4.24415e-05 -1.14926e-05 0.000103427)
(-0.00010203 2.5422e-05 -7.05803e-06)
(0.000179056 -3.69581e-06 4.9357e-05)
)
;
    }
    procBoundary4to0
    {
        type            processor;
        value           nonuniform List<vector> 
36
(
(0.00171391 -8.54828e-05 -0.000133372)
(0.00104042 -4.18239e-05 -6.8352e-05)
(0.000638698 -1.10172e-05 -2.84158e-05)
(0.000410985 7.16131e-06 -6.74463e-07)
(0.000267984 1.44029e-05 7.80781e-06)
(0.000188362 1.92809e-05 1.54699e-05)
(0.000124963 2.21162e-05 1.46065e-05)
(9.4558e-05 2.62493e-05 2.05506e-05)
(4.96497e-05 2.33207e-05 2.12409e-05)
(0.00166454 -9.93654e-05 -0.000135415)
(0.00098174 -4.46874e-05 -6.65766e-05)
(0.000584028 -1.16306e-05 -2.57651e-05)
(0.000360743 8.06501e-06 2.08655e-06)
(0.000227507 1.32505e-05 9.21974e-06)
(0.000154011 2.1628e-05 1.60144e-05)
(0.000101404 1.77695e-05 1.49248e-05)
(7.50969e-05 2.23531e-05 1.70914e-05)
(4.50165e-05 1.68051e-05 1.59701e-05)
(0.00161918 -6.54171e-05 -0.00013521)
(0.000928987 -2.91491e-05 -6.34816e-05)
(0.000538278 -8.27496e-06 -2.32812e-05)
(0.000317613 6.24953e-06 3.60974e-06)
(0.000197815 7.67324e-06 1.01673e-05)
(0.000123667 1.26954e-05 1.61335e-05)
(8.49313e-05 9.61918e-06 1.54937e-05)
(5.15342e-05 1.03147e-05 1.79618e-05)
(3.53465e-05 8.07587e-06 1.29614e-05)
(0.00160845 -1.55545e-05 -0.000135561)
(0.000915898 -4.88445e-06 -6.46602e-05)
(0.000525203 -1.86612e-06 -2.36661e-05)
(0.000310855 7.53898e-07 2.19393e-06)
(0.000188442 1.05885e-07 1.00891e-05)
(0.000122162 -1.52227e-06 1.73381e-05)
(7.79255e-05 1.68696e-07 1.54064e-05)
(5.01508e-05 6.89117e-07 1.81381e-05)
(3.09838e-05 6.51652e-08 1.18e-05)
)
;
    }
    procBoundary4to5
    {
        type            processor;
        value           nonuniform List<vector> 
12
(
(4.65842e-05 1.68543e-05 2.40278e-05)
(2.58048e-05 1.48401e-05 1.2261e-05)
(8.89323e-06 5.36609e-06 7.58742e-06)
(4.91185e-06 -3.92826e-06 2.14088e-06)
(6.01806e-05 1.25195e-05 1.24986e-05)
(4.53038e-05 9.30765e-06 6.47234e-06)
(2.31828e-05 1.46853e-06 -7.2849e-08)
(1.64101e-05 -4.55341e-06 -4.08044e-06)
(0.000120934 8.16152e-06 1.07249e-05)
(8.91389e-05 2.32673e-06 3.27194e-06)
(5.83827e-05 -5.78644e-06 -3.88995e-06)
(3.81227e-05 -1.13406e-05 -1.02604e-05)
)
;
    }
    procBoundary4to6
    {
        type            processor;
        value           nonuniform List<vector> 
27
(
(0.00161339 3.52935e-05 -6.44612e-05)
(0.000909333 1.53341e-05 -3.2995e-05)
(0.00052066 2.79498e-06 -1.61681e-05)
(0.000300892 -5.8306e-06 -2.54177e-06)
(0.000181026 -7.31187e-06 3.20192e-06)
(0.000106963 -1.11264e-05 6.19419e-06)
(6.8188e-05 -1.02009e-05 5.69498e-06)
(4.11392e-05 -1.21811e-05 4.22869e-06)
(2.23964e-05 -1.01164e-05 2.44688e-06)
(0.00164734 4.10744e-05 6.25904e-06)
(0.000943999 1.6029e-05 -6.20702e-06)
(0.00054355 1.88863e-06 -7.44012e-06)
(0.00032081 -7.56984e-06 -6.54982e-06)
(0.000188756 -9.7653e-06 -3.21098e-06)
(0.000115287 -1.34569e-05 -5.431e-06)
(6.76401e-05 -1.24753e-05 -1.9545e-06)
(4.31626e-05 -1.39374e-05 -4.62877e-06)
(1.93524e-05 -1.22714e-05 -5.39526e-06)
(0.00169581 3.80183e-05 2.52331e-05)
(0.000994424 1.20991e-05 4.54033e-06)
(0.000586557 -4.98776e-07 -4.37625e-06)
(0.000357729 -1.02589e-05 -5.39519e-06)
(0.000216124 -1.30842e-05 -4.13882e-06)
(0.000137952 -1.71379e-05 -4.34895e-06)
(8.05287e-05 -1.64778e-05 -4.31054e-06)
(5.74706e-05 -1.64601e-05 -8.22005e-06)
(2.44141e-05 -1.58918e-05 -1.10014e-05)
)
;
    }
}


// ************************************************************************* //
