/*--------------------------------*- C++ -*----------------------------------*\
| =========                 |                                                 |
| \\      /  F ield         | OpenFOAM: The Open Source CFD Toolbox           |
|  \\    /   O peration     | Version:  4.x                                   |
|   \\  /    A nd           | Web:      www.OpenFOAM.org                      |
|    \\/     M anipulation  |                                                 |
\*---------------------------------------------------------------------------*/
FoamFile
{
    version     2.0;
    format      ascii;
    class       volVectorField;
    location    "50.5";
    object      impParticleForces;
}
// * * * * * * * * * * * * * * * * * * * * * * * * * * * * * * * * * * * * * //

dimensions      [1 1 -2 0 0 0 0];

internalField   nonuniform List<vector> 
108
(
(0.00229617 -2.53748e-05 -5.41628e-05)
(0.00232311 -2.58225e-05 -5.40425e-05)
(0.00238175 -2.59034e-05 -5.30143e-05)
(0.00239008 -2.26199e-05 -4.99643e-05)
(0.00242269 -1.88797e-05 -4.62628e-05)
(0.00240536 -1.30899e-05 -4.16253e-05)
(0.00243494 -7.69173e-06 -3.6723e-05)
(0.00240129 -6.51294e-07 -3.12598e-05)
(0.00241859 5.68749e-06 -2.56312e-05)
(0.00234456 -2.42033e-05 -5.50051e-05)
(0.00237948 -2.50841e-05 -5.48251e-05)
(0.00244347 -2.57792e-05 -5.3698e-05)
(0.00244618 -2.21644e-05 -5.05921e-05)
(0.00246576 -1.83138e-05 -4.64333e-05)
(0.00243954 -1.24367e-05 -4.15182e-05)
(0.00245879 -7.37306e-06 -3.65148e-05)
(0.00241811 -6.51968e-07 -3.12182e-05)
(0.0024511 4.92874e-06 -2.59772e-05)
(0.00236609 -1.66916e-05 -5.53606e-05)
(0.00241254 -1.77112e-05 -5.55293e-05)
(0.00245782 -1.75372e-05 -5.36062e-05)
(0.00244948 -1.45551e-05 -5.01944e-05)
(0.00246409 -1.16207e-05 -4.5718e-05)
(0.0024296 -6.98958e-06 -4.08352e-05)
(0.00244458 -2.87467e-06 -3.60706e-05)
(0.00241502 1.69037e-06 -3.10593e-05)
(0.00241842 6.07838e-06 -2.61719e-05)
(0.00235364 -4.65193e-06 -5.51482e-05)
(0.00240462 -4.97276e-06 -5.50138e-05)
(0.00245748 -4.49443e-06 -5.3528e-05)
(0.00243751 -3.06204e-06 -4.98662e-05)
(0.00246156 -1.65056e-06 -4.57363e-05)
(0.00242962 6.44696e-07 -4.09644e-05)
(0.00245461 2.93674e-06 -3.6289e-05)
(0.00239559 5.20368e-06 -3.13459e-05)
(0.00240413 7.40271e-06 -2.68795e-05)
(0.00228276 -2.50276e-05 -4.29157e-05)
(0.00230753 -2.52786e-05 -4.22529e-05)
(0.00236098 -2.48967e-05 -4.06602e-05)
(0.00238065 -2.21921e-05 -3.85958e-05)
(0.00241609 -1.87251e-05 -3.55961e-05)
(0.00238612 -1.34367e-05 -3.20598e-05)
(0.00240874 -8.78672e-06 -2.77273e-05)
(0.00239919 -3.74562e-06 -2.34466e-05)
(0.00242009 6.95604e-07 -1.85114e-05)
(0.00233302 -2.40925e-05 -4.25106e-05)
(0.00236018 -2.43976e-05 -4.17368e-05)
(0.00241378 -2.43621e-05 -3.97125e-05)
(0.00241567 -2.09907e-05 -3.79059e-05)
(0.00244407 -1.77279e-05 -3.45893e-05)
(0.002418 -1.25188e-05 -3.12668e-05)
(0.00244056 -8.377e-06 -2.70219e-05)
(0.0024236 -3.61348e-06 -2.2968e-05)
(0.00244742 2.82609e-07 -1.83728e-05)
(0.00234029 -1.60916e-05 -4.22682e-05)
(0.00238274 -1.69096e-05 -4.12354e-05)
(0.00244508 -1.71307e-05 -3.86259e-05)
(0.00243336 -1.42556e-05 -3.66526e-05)
(0.00246067 -1.17752e-05 -3.32222e-05)
(0.00242655 -7.75153e-06 -3.01879e-05)
(0.00243563 -4.30356e-06 -2.63564e-05)
(0.00240252 -7.34395e-07 -2.29468e-05)
(0.00242083 2.1662e-06 -1.90737e-05)
(0.00235594 -4.81246e-06 -4.19837e-05)
(0.00239487 -4.86007e-06 -4.08422e-05)
(0.00243633 -4.3982e-06 -3.85545e-05)
(0.00243571 -3.22897e-06 -3.61811e-05)
(0.00246264 -2.13089e-06 -3.26548e-05)
(0.00242757 -3.82479e-07 -2.99516e-05)
(0.00244896 1.28458e-06 -2.61233e-05)
(0.002394 2.8911e-06 -2.351e-05)
(0.00240044 4.22766e-06 -2.03579e-05)
(0.00226172 -2.4092e-05 -3.68235e-05)
(0.00227389 -2.39196e-05 -3.60076e-05)
(0.00230314 -2.28757e-05 -3.45543e-05)
(0.00232349 -2.02005e-05 -3.2733e-05)
(0.00236835 -1.72015e-05 -2.96689e-05)
(0.00236802 -1.30316e-05 -2.65362e-05)
(0.0023912 -8.96024e-06 -2.23008e-05)
(0.00237243 -4.78235e-06 -1.8678e-05)
(0.00238321 -1.18989e-06 -1.43153e-05)
(0.00229585 -2.24878e-05 -3.62578e-05)
(0.00232482 -2.29233e-05 -3.50389e-05)
(0.00236579 -2.2422e-05 -3.30173e-05)
(0.00236283 -1.9041e-05 -3.15676e-05)
(0.00240035 -1.62448e-05 -2.85062e-05)
(0.00239019 -1.20212e-05 -2.56889e-05)
(0.00239993 -8.23522e-06 -2.18763e-05)
(0.00238217 -4.43655e-06 -1.85711e-05)
(0.00239262 -1.33571e-06 -1.47156e-05)
(0.00231575 -1.53509e-05 -3.5668e-05)
(0.00233913 -1.55486e-05 -3.43979e-05)
(0.00238732 -1.54552e-05 -3.19931e-05)
(0.00238124 -1.29606e-05 -3.04371e-05)
(0.00241173 -1.08143e-05 -2.73523e-05)
(0.00239204 -7.52892e-06 -2.49276e-05)
(0.00239729 -4.59832e-06 -2.15139e-05)
(0.00237634 -1.90342e-06 -1.87168e-05)
(0.00237624 2.85447e-07 -1.55923e-05)
(0.00233552 -4.74799e-06 -3.52144e-05)
(0.00234439 -4.46811e-06 -3.41804e-05)
(0.002389 -4.24483e-06 -3.184e-05)
(0.00239274 -3.40075e-06 -2.99221e-05)
(0.00242265 -2.39262e-06 -2.6879e-05)
(0.00239868 -9.3896e-07 -2.468e-05)
(0.00238586 5.08594e-07 -2.20961e-05)
(0.0023609 1.65483e-06 -1.97735e-05)
(0.00236622 2.47354e-06 -1.70923e-05)
)
;

boundaryField
{
    inlet
    {
        type            zeroGradient;
    }
    outlet
    {
        type            zeroGradient;
    }
    wall
    {
        type            zeroGradient;
    }
    procBoundary4to0
    {
        type            processor;
        value           nonuniform List<vector> 
36
(
(0.00229881 -2.47262e-05 -6.73571e-05)
(0.00232877 -2.52786e-05 -6.77742e-05)
(0.00238683 -2.51117e-05 -6.74312e-05)
(0.0023856 -2.13748e-05 -6.27719e-05)
(0.00242307 -1.7431e-05 -5.87242e-05)
(0.00242202 -1.13212e-05 -5.31172e-05)
(0.0024398 -4.29403e-06 -4.73414e-05)
(0.00240612 5.01774e-06 -4.06587e-05)
(0.00242231 1.47981e-05 -3.46102e-05)
(0.00234274 -2.34227e-05 -6.94663e-05)
(0.00239363 -2.49086e-05 -7.08227e-05)
(0.00244546 -2.48499e-05 -6.99401e-05)
(0.00244505 -2.09615e-05 -6.52248e-05)
(0.00246292 -1.67584e-05 -6.00676e-05)
(0.00244744 -1.04896e-05 -5.35595e-05)
(0.00248313 -4.50377e-06 -4.81852e-05)
(0.00243512 4.0347e-06 -4.10846e-05)
(0.0024502 1.26677e-05 -3.51149e-05)
(0.00236301 -1.59408e-05 -7.04818e-05)
(0.00239729 -1.63299e-05 -7.10854e-05)
(0.00246254 -1.63632e-05 -7.09166e-05)
(0.00244778 -1.33029e-05 -6.54079e-05)
(0.00247414 -1.02876e-05 -6.04306e-05)
(0.00245226 -5.39594e-06 -5.34449e-05)
(0.00246938 -2.10214e-07 -4.7433e-05)
(0.00241527 5.55872e-06 -4.02371e-05)
(0.00243251 1.14435e-05 -3.42906e-05)
(0.00236154 -4.45106e-06 -7.04193e-05)
(0.00240644 -4.27033e-06 -7.16682e-05)
(0.00247282 -3.61393e-06 -7.15674e-05)
(0.00246289 -2.05142e-06 -6.63162e-05)
(0.00246583 -1.77326e-07 -6.03803e-05)
(0.00245376 2.06173e-06 -5.37728e-05)
(0.00246492 4.72217e-06 -4.7541e-05)
(0.00240837 7.97098e-06 -4.03368e-05)
(0.00240298 1.12408e-05 -3.42764e-05)
)
;
    }
    procBoundary4to5
    {
        type            processor;
        value           nonuniform List<vector> 
12
(
(0.00239145 1.20982e-05 -2.06412e-05)
(0.00241891 1.0587e-05 -2.10212e-05)
(0.00239813 9.82448e-06 -2.16657e-05)
(0.00239149 9.23515e-06 -2.2832e-05)
(0.00238551 5.30208e-06 -1.48928e-05)
(0.00240337 4.45037e-06 -1.49796e-05)
(0.002387 4.77605e-06 -1.59795e-05)
(0.00237751 5.30764e-06 -1.74835e-05)
(0.00233543 2.46737e-06 -1.16164e-05)
(0.00237053 1.47174e-06 -1.16724e-05)
(0.00235434 2.08422e-06 -1.29683e-05)
(0.00234924 2.94694e-06 -1.48047e-05)
)
;
    }
    procBoundary4to6
    {
        type            processor;
        value           nonuniform List<vector> 
27
(
(0.00238872 8.25583e-06 -5.56849e-05)
(0.00241353 8.58579e-06 -5.51469e-05)
(0.00243729 9.22538e-06 -5.33378e-05)
(0.00243329 9.03766e-06 -5.0014e-05)
(0.00246065 9.27041e-06 -4.64018e-05)
(0.0024207 8.83366e-06 -4.13976e-05)
(0.00244028 8.8963e-06 -3.69431e-05)
(0.00239719 8.93464e-06 -3.23717e-05)
(0.00241878 8.92432e-06 -2.83084e-05)
(0.00236455 7.78626e-06 -4.15914e-05)
(0.00239332 8.43408e-06 -4.07136e-05)
(0.00243323 9.02604e-06 -3.84805e-05)
(0.00241942 8.46781e-06 -3.66424e-05)
(0.00243326 8.33375e-06 -3.36958e-05)
(0.00241587 7.75247e-06 -3.08441e-05)
(0.0024367 7.66612e-06 -2.75206e-05)
(0.00238707 7.0542e-06 -2.4825e-05)
(0.00241151 6.74505e-06 -2.19159e-05)
(0.00232106 6.872e-06 -3.52933e-05)
(0.00233279 7.13631e-06 -3.44522e-05)
(0.00238385 7.63766e-06 -3.21248e-05)
(0.0023758 7.1729e-06 -3.06967e-05)
(0.00239313 6.96063e-06 -2.81316e-05)
(0.00238367 6.52371e-06 -2.58567e-05)
(0.00241298 6.12746e-06 -2.27182e-05)
(0.00236932 5.57635e-06 -2.09339e-05)
(0.00237016 5.12799e-06 -1.87199e-05)
)
;
    }
}


// ************************************************************************* //
