/*--------------------------------*- C++ -*----------------------------------*\
| =========                 |                                                 |
| \\      /  F ield         | OpenFOAM: The Open Source CFD Toolbox           |
|  \\    /   O peration     | Version:  4.x                                   |
|   \\  /    A nd           | Web:      www.OpenFOAM.org                      |
|    \\/     M anipulation  |                                                 |
\*---------------------------------------------------------------------------*/
FoamFile
{
    version     2.0;
    format      ascii;
    class       volScalarField;
    location    "50.5";
    object      p_rgh;
}
// * * * * * * * * * * * * * * * * * * * * * * * * * * * * * * * * * * * * * //

dimensions      [1 -1 -2 0 0 0 0];

internalField   nonuniform List<scalar> 
108
(
110.646
93.2513
103.488
75.3612
96.0448
57.1126
88.6827
38.5623
81.5554
111.222
93.4877
104.029
75.5345
96.4361
57.1434
88.9815
38.6467
81.8543
111.834
93.9467
104.55
76.0126
96.8509
57.7468
89.2966
39.4418
81.8833
111.842
94.0332
104.637
76.1005
97.0146
57.862
89.3193
39.4968
81.7833
110.77
93.4344
103.732
75.6804
96.3332
57.4299
89.0747
39.1491
81.9032
111.222
93.585
104.055
75.7613
96.6008
57.4985
89.2515
39.0499
81.9799
111.796
94.0829
104.637
76.0874
97.0741
57.7436
89.5289
39.3827
82.1986
111.877
93.9229
104.581
76.0721
96.9033
57.643
89.284
39.0291
81.9384
110.454
93.172
103.337
75.6411
96.0278
57.4503
88.6126
38.9111
81.3641
110.887
93.357
103.619
75.6421
96.2025
57.3944
88.7401
38.8999
81.541
111.399
93.7258
104.076
75.8683
96.5166
57.6497
88.9821
39.2385
81.7074
111.534
93.6195
104.15
75.8626
96.4789
57.4261
88.8323
39.0535
81.6575
)
;

boundaryField
{
    inlet
    {
        type            fixedFluxPressure;
        gradient        nonuniform List<scalar> 
12
(
-1.24905e-07
-1.95225e-07
-2.85461e-07
-2.58051e-07
-7.78258e-08
-1.51394e-07
-1.11204e-07
-1.6894e-07
4.05243e-08
-6.55932e-09
-1.01024e-07
-1.61402e-07
)
;
        value           nonuniform List<scalar> 
12
(
110.646
111.222
111.834
111.842
110.77
111.222
111.796
111.877
110.454
110.887
111.399
111.534
)
;
    }
    outlet
    {
        type            fixedValue;
        value           nonuniform 0();
    }
    wall
    {
        type            fixedFluxPressure;
        gradient        nonuniform List<scalar> 
63
(
9.69892e-08
5.6409e-08
4.10706e-08
-5.48173e-08
1.62767e-07
2.11761e-07
1.87663e-07
-2.78166e-07
4.41578e-08
1.19284e-07
1.12083e-07
-1.11261e-07
2.32039e-08
1.53156e-07
7.28292e-08
-5.88993e-08
5.51935e-08
1.63158e-07
1.59215e-07
-1.63854e-07
8.31816e-08
6.38614e-07
1.08262e-06
-4.65955e-07
5.25727e-07
1.98976e-07
6.04092e-07
2.41335e-07
1.67377e-06
2.10074e-06
1.97189e-06
5.00411e-07
4.52625e-07
1.14249e-06
1.10733e-06
8.07598e-07
-1.46372e-07
-2.1747e-07
-1.90941e-07
-6.41096e-07
-5.13634e-07
-4.11768e-07
-2.3536e-07
-1.48074e-07
-1.78803e-07
-7.01062e-07
-4.74031e-07
-1.38524e-07
-8.24991e-07
-3.40168e-07
-1.66142e-07
-1.53403e-06
-5.21315e-07
-1.47493e-07
-3.0554e-07
4.13355e-08
1.61374e-07
-2.24154e-06
-1.06322e-06
-5.74563e-08
-2.72675e-07
1.44131e-07
3.08175e-09
)
;
        value           nonuniform List<scalar> 
63
(
110.454
110.887
111.399
111.534
93.172
93.357
93.7258
93.6195
103.337
103.619
104.076
104.15
75.6411
75.6421
75.8683
75.8626
96.0278
96.2025
96.5166
96.4789
57.4503
57.3944
57.6497
57.4261
88.6126
88.7401
88.9821
88.8323
38.9111
38.8999
39.2385
39.0535
81.3641
81.541
81.7074
81.6575
110.646
110.77
110.454
93.2513
93.4344
93.172
103.488
103.732
103.337
75.3612
75.6804
75.6411
96.0448
96.3332
96.0278
57.1126
57.4299
57.4503
88.6827
89.0747
88.6126
38.5623
39.1491
38.9111
81.5554
81.9032
81.3641
)
;
    }
    procBoundary4to0
    {
        type            processor;
        value           nonuniform List<scalar> 
36
(
110.51
93.2466
103.494
75.3247
96.2064
57.0796
88.9512
38.8281
82.1392
110.996
93.4375
103.907
75.3971
96.5239
57.1614
89.2477
38.6772
82.1973
111.578
93.9445
104.598
75.9939
97.1157
57.8818
89.3634
39.977
82.0452
111.43
93.7156
104.3
75.582
96.6773
57.2977
89.0995
38.7596
81.9815
)
;
    }
    procBoundary4to5
    {
        type            processor;
        value           nonuniform List<scalar> 
12
(
19.582
19.7694
21.1575
21.6011
20.338
20.1129
20.9145
20.6278
20.0235
19.9905
20.7081
20.5201
)
;
    }
    procBoundary4to6
    {
        type            processor;
        value           nonuniform List<scalar> 
27
(
112.233
94.0132
104.912
76.453
97.1565
58.4156
89.2169
40.6172
81.8755
111.992
93.9434
104.661
76.0893
97.091
57.9855
89.5506
39.6842
82.2269
111.506
93.7685
104.239
76.0381
96.6766
57.9343
89.1585
39.5205
81.9218
)
;
    }
}


// ************************************************************************* //
