/*--------------------------------*- C++ -*----------------------------------*\
| =========                 |                                                 |
| \\      /  F ield         | OpenFOAM: The Open Source CFD Toolbox           |
|  \\    /   O peration     | Version:  4.x                                   |
|   \\  /    A nd           | Web:      www.OpenFOAM.org                      |
|    \\/     M anipulation  |                                                 |
\*---------------------------------------------------------------------------*/
FoamFile
{
    version     2.0;
    format      ascii;
    class       volScalarField;
    location    "50.5";
    object      Qsource;
}
// * * * * * * * * * * * * * * * * * * * * * * * * * * * * * * * * * * * * * //

dimensions      [1 -1 -3 0 0 0 0];

internalField   nonuniform List<scalar> 
108
(
5.75122e+09
7.52664e+09
9.26295e+09
6.42052e+09
8.0065e+09
6.44878e+09
9.80397e+09
7.33431e+09
1.05242e+10
7.01798e+09
7.2984e+09
9.38923e+09
1.00428e+10
1.01165e+10
8.5948e+09
8.14465e+09
5.77919e+09
1.11119e+10
6.68869e+09
1.02798e+10
8.31714e+09
9.37685e+09
8.12885e+09
6.31208e+09
7.31371e+09
1.03012e+10
6.74554e+09
3.45846e+09
6.73474e+09
9.40293e+09
5.71504e+09
8.81304e+09
6.69239e+09
1.10448e+10
6.00874e+09
7.07755e+09
5.88945e+09
5.90931e+09
8.89122e+09
8.77117e+09
9.37108e+09
5.91163e+09
6.43161e+09
7.97643e+09
1.04354e+10
6.24683e+09
7.60085e+09
7.55611e+09
7.5943e+09
7.74242e+09
6.81393e+09
8.50766e+09
9.2711e+09
1.05049e+10
4.19554e+09
7.3243e+09
1.00298e+10
8.28896e+09
9.68008e+09
8.25218e+09
8.18472e+09
7.14917e+09
8.63446e+09
6.205e+09
8.58529e+09
7.54472e+09
9.6498e+09
1.05258e+10
7.60978e+09
1.18427e+10
8.47353e+09
8.14234e+09
6.2099e+09
7.21261e+09
6.17311e+09
7.09378e+09
8.12417e+09
9.12094e+09
9.8272e+09
7.67913e+09
1.00675e+10
5.69903e+09
9.43368e+09
7.96516e+09
6.3064e+09
8.32532e+09
8.19327e+09
8.25332e+09
6.7251e+09
9.47099e+09
6.04932e+09
7.8641e+09
9.28054e+09
7.58097e+09
7.53963e+09
7.35145e+09
8.21058e+09
8.3736e+09
7.90523e+09
8.06108e+09
7.40717e+09
7.51295e+09
8.36984e+09
9.26067e+09
9.94263e+09
5.80825e+09
5.61099e+09
7.94749e+09
)
;

boundaryField
{
    inlet
    {
        type            calculated;
        value           uniform 0;
    }
    outlet
    {
        type            calculated;
        value           nonuniform 0();
    }
    wall
    {
        type            calculated;
        value           uniform 0;
    }
    procBoundary4to0
    {
        type            processor;
        value           nonuniform List<scalar> 
36
(
5.18815e+09
5.4009e+09
7.61469e+09
5.62364e+09
7.93951e+09
8.21757e+09
6.76328e+09
4.76596e+09
6.89874e+09
5.1366e+09
9.59523e+09
9.09204e+09
8.08493e+09
7.19836e+09
6.62346e+09
1.0428e+10
7.17993e+09
6.92803e+09
5.1886e+09
5.58378e+09
9.05263e+09
6.10045e+09
8.69453e+09
8.39987e+09
8.24354e+09
4.94499e+09
9.33318e+09
4.82819e+09
6.73582e+09
9.83779e+09
1.0242e+10
5.51932e+09
9.85059e+09
8.57783e+09
5.58848e+09
2.62321e+09
)
;
    }
    procBoundary4to5
    {
        type            processor;
        value           nonuniform List<scalar> 
12
(
7.10614e+09
8.11387e+09
8.51624e+09
1.02843e+10
7.68717e+09
6.19998e+09
7.41064e+09
5.30216e+09
3.7191e+09
7.48147e+09
6.52897e+09
7.64409e+09
)
;
    }
    procBoundary4to6
    {
        type            processor;
        value           nonuniform List<scalar> 
27
(
9.95363e+09
8.95435e+09
6.0832e+09
7.98498e+09
1.10735e+10
6.07633e+09
8.7067e+09
6.67193e+09
9.96739e+09
7.34935e+09
9.00282e+09
9.65939e+09
8.63832e+09
6.67124e+09
7.8952e+09
7.93491e+09
6.12051e+09
9.57553e+09
5.72889e+09
5.82165e+09
8.25436e+09
7.44783e+09
7.99561e+09
6.93444e+09
1.11338e+10
9.12304e+09
5.37526e+09
)
;
    }
}


// ************************************************************************* //
