/*--------------------------------*- C++ -*----------------------------------*\
| =========                 |                                                 |
| \\      /  F ield         | OpenFOAM: The Open Source CFD Toolbox           |
|  \\    /   O peration     | Version:  4.x                                   |
|   \\  /    A nd           | Web:      www.OpenFOAM.org                      |
|    \\/     M anipulation  |                                                 |
\*---------------------------------------------------------------------------*/
FoamFile
{
    version     2.0;
    format      ascii;
    class       volVectorField;
    location    "50.5";
    object      UsNext;
}
// * * * * * * * * * * * * * * * * * * * * * * * * * * * * * * * * * * * * * //

dimensions      [0 1 -1 0 0 0 0];

internalField   nonuniform List<vector> 
108
(
(4.31102e-11 2.07497e-11 1.10527e-10)
(1.14346e-10 3.82831e-11 9.53011e-11)
(1.84948e-10 3.2624e-11 6.42284e-11)
(2.19641e-10 4.34125e-11 5.07998e-11)
(2.33363e-10 1.14528e-10 7.02808e-13)
(1.46662e-10 9.84285e-11 6.8896e-11)
(9.80999e-11 4.28902e-11 2.24433e-10)
(-2.70221e-11 1.45649e-10 4.86586e-10)
(-2.39905e-10 3.9239e-11 8.49149e-10)
(6.05745e-11 2.26484e-11 1.13501e-10)
(1.92448e-10 1.71171e-11 1.08102e-10)
(2.97152e-10 1.89875e-11 1.08894e-10)
(3.01221e-10 1.11048e-11 7.46219e-11)
(3.4876e-10 4.18526e-11 7.70396e-11)
(3.6142e-10 5.08804e-11 1.54667e-10)
(2.0926e-10 7.73035e-11 3.94016e-10)
(1.60842e-11 3.10865e-10 7.00352e-10)
(9.79252e-11 2.80714e-10 1.17344e-09)
(7.73976e-11 5.24601e-11 9.61858e-11)
(2.37987e-10 9.27508e-11 1.3202e-10)
(3.96782e-10 8.34945e-11 1.13207e-10)
(5.11673e-10 5.38042e-11 9.62084e-11)
(5.949e-10 6.93274e-11 1.2218e-10)
(7.16781e-10 1.40096e-10 2.36092e-10)
(6.71292e-10 1.64459e-10 3.87625e-10)
(5.3786e-10 4.66212e-10 7.26609e-10)
(1.32613e-09 1.05821e-10 8.04012e-10)
(7.68919e-11 2.82888e-11 7.02654e-11)
(2.82394e-10 -9.4915e-13 8.8367e-11)
(5.14618e-10 -4.88358e-11 2.28595e-11)
(7.08247e-10 -3.04149e-11 5.70567e-11)
(9.83112e-10 5.82628e-11 1.67973e-10)
(1.18808e-09 1.3232e-10 2.81898e-10)
(1.52609e-09 1.09515e-10 3.94554e-10)
(1.65643e-09 3.36957e-10 4.21082e-10)
(1.70639e-09 3.75173e-10 6.06119e-10)
(3.79178e-11 3.09698e-11 4.87553e-11)
(1.04067e-10 3.11033e-11 5.91847e-11)
(1.42575e-10 2.07291e-11 4.5602e-11)
(1.86325e-10 2.9257e-11 2.00109e-11)
(2.2278e-10 4.70698e-11 3.35337e-11)
(1.53274e-10 3.33367e-11 2.98286e-11)
(1.47801e-10 -5.82209e-12 1.10579e-10)
(1.1223e-10 6.62994e-11 2.91583e-10)
(2.36445e-10 -2.01748e-11 2.69824e-10)
(5.95596e-11 1.31947e-11 7.50819e-11)
(1.39326e-10 2.42367e-11 6.42828e-11)
(2.04144e-10 -3.00166e-13 4.75644e-11)
(2.62655e-10 -1.26037e-11 4.36348e-11)
(2.92222e-10 1.62403e-11 6.31088e-11)
(2.48082e-10 3.03169e-11 1.11073e-10)
(2.5301e-10 1.82118e-11 2.37356e-10)
(2.46073e-10 -3.21659e-11 3.4009e-10)
(4.40239e-10 -7.88848e-11 5.15482e-10)
(4.51037e-11 3.22729e-11 4.5828e-11)
(1.52031e-10 5.22511e-11 6.54897e-11)
(2.34169e-10 6.53073e-11 6.19923e-11)
(2.73808e-10 1.17328e-11 6.92275e-11)
(3.63851e-10 2.16766e-13 3.78727e-11)
(4.0188e-10 1.12428e-10 1.8116e-10)
(3.76862e-10 1.32739e-10 2.60195e-10)
(7.37779e-10 2.87169e-10 2.9517e-10)
(5.30901e-10 2.81252e-10 5.11105e-10)
(5.85495e-11 1.5998e-11 2.67834e-11)
(1.97006e-10 -3.50108e-12 2.56959e-11)
(3.73864e-10 -3.42633e-11 -1.55474e-11)
(4.50021e-10 -3.93724e-11 1.90898e-12)
(6.29915e-10 -4.70289e-11 4.18469e-11)
(1.00377e-09 6.64944e-11 9.16619e-11)
(1.13915e-09 2.05232e-10 2.07447e-10)
(1.30286e-09 1.33259e-10 2.56025e-10)
(1.51487e-09 4.86188e-11 5.22498e-10)
(2.38245e-11 2.75596e-11 1.3999e-11)
(5.87107e-11 2.80415e-11 1.10845e-11)
(8.7564e-11 2.67077e-11 6.59585e-12)
(1.13883e-10 1.08673e-11 1.82036e-12)
(1.04044e-10 2.4925e-11 8.28023e-12)
(9.07161e-11 1.22801e-11 6.9256e-12)
(5.58364e-11 -2.45285e-11 7.99097e-11)
(5.59153e-11 5.06965e-12 1.47685e-10)
(9.32293e-11 -4.87274e-13 7.15673e-11)
(3.3458e-11 -5.57633e-12 7.95975e-12)
(7.77309e-11 8.67802e-12 1.28621e-11)
(1.34574e-10 -6.60158e-12 1.66783e-11)
(1.68784e-10 6.22305e-12 1.01032e-11)
(1.80306e-10 1.11967e-11 2.30256e-11)
(1.21968e-10 -6.15789e-11 4.41347e-11)
(9.31035e-11 -1.0726e-10 2.86662e-11)
(1.42487e-10 -4.43013e-11 1.52055e-10)
(1.22433e-10 -7.4385e-11 1.69564e-10)
(2.93582e-11 2.72192e-11 5.67727e-12)
(8.57991e-11 4.81419e-11 1.06078e-11)
(1.19385e-10 2.63468e-11 1.50655e-11)
(1.40235e-10 2.38688e-11 4.13882e-12)
(1.92498e-10 9.94705e-12 2.14678e-11)
(2.40322e-10 -1.28199e-11 6.35111e-11)
(2.88253e-10 8.20377e-11 8.35059e-11)
(3.08687e-10 1.53383e-10 1.21492e-10)
(1.83189e-10 4.26327e-11 1.5792e-10)
(4.60139e-11 -1.14535e-11 -7.42094e-12)
(1.08468e-10 -1.17147e-11 -1.53294e-11)
(2.31373e-10 2.39767e-11 -1.48109e-11)
(2.34788e-10 -2.55128e-11 -3.1475e-12)
(3.50837e-10 -6.74104e-11 -2.17048e-11)
(3.82926e-10 -6.13431e-11 -2.5782e-11)
(4.07689e-10 2.784e-11 3.33538e-11)
(2.21459e-09 -8.56161e-10 3.04892e-11)
(8.48116e-10 1.01324e-10 1.15742e-10)
)
;

boundaryField
{
    inlet
    {
        type            calculated;
        value           nonuniform List<vector> 
12
(
(4.31102e-11 2.07497e-11 1.10527e-10)
(6.05745e-11 2.26484e-11 1.13501e-10)
(7.73976e-11 5.24601e-11 9.61858e-11)
(7.68919e-11 2.82888e-11 7.02654e-11)
(3.79178e-11 3.09698e-11 4.87553e-11)
(5.95596e-11 1.31947e-11 7.50819e-11)
(4.51037e-11 3.22729e-11 4.5828e-11)
(5.85495e-11 1.5998e-11 2.67834e-11)
(2.38245e-11 2.75596e-11 1.3999e-11)
(3.3458e-11 -5.57633e-12 7.95975e-12)
(2.93582e-11 2.72192e-11 5.67727e-12)
(4.60139e-11 -1.14535e-11 -7.42094e-12)
)
;
    }
    outlet
    {
        type            calculated;
        value           nonuniform 0();
    }
    wall
    {
        type            calculated;
        value           nonuniform List<vector> 
63
(
(2.38245e-11 2.75596e-11 1.3999e-11)
(3.3458e-11 -5.57633e-12 7.95975e-12)
(2.93582e-11 2.72192e-11 5.67727e-12)
(4.60139e-11 -1.14535e-11 -7.42094e-12)
(5.87107e-11 2.80415e-11 1.10845e-11)
(7.77309e-11 8.67802e-12 1.28621e-11)
(8.57991e-11 4.81419e-11 1.06078e-11)
(1.08468e-10 -1.17147e-11 -1.53294e-11)
(8.7564e-11 2.67077e-11 6.59585e-12)
(1.34574e-10 -6.60158e-12 1.66783e-11)
(1.19385e-10 2.63468e-11 1.50655e-11)
(2.31373e-10 2.39767e-11 -1.48109e-11)
(1.13883e-10 1.08673e-11 1.82036e-12)
(1.68784e-10 6.22305e-12 1.01032e-11)
(1.40235e-10 2.38688e-11 4.13882e-12)
(2.34788e-10 -2.55128e-11 -3.1475e-12)
(1.04044e-10 2.4925e-11 8.28023e-12)
(1.80306e-10 1.11967e-11 2.30256e-11)
(1.92498e-10 9.94705e-12 2.14678e-11)
(3.50837e-10 -6.74104e-11 -2.17048e-11)
(9.07161e-11 1.22801e-11 6.9256e-12)
(1.21968e-10 -6.15789e-11 4.41347e-11)
(2.40322e-10 -1.28199e-11 6.35111e-11)
(3.82926e-10 -6.13431e-11 -2.5782e-11)
(5.58364e-11 -2.45285e-11 7.99097e-11)
(9.31035e-11 -1.0726e-10 2.86662e-11)
(2.88253e-10 8.20377e-11 8.35059e-11)
(4.07689e-10 2.784e-11 3.33538e-11)
(5.59153e-11 5.06965e-12 1.47685e-10)
(1.42487e-10 -4.43013e-11 1.52055e-10)
(3.08687e-10 1.53383e-10 1.21492e-10)
(2.21459e-09 -8.56161e-10 3.04892e-11)
(9.32293e-11 -4.87274e-13 7.15673e-11)
(1.22433e-10 -7.4385e-11 1.69564e-10)
(1.83189e-10 4.26327e-11 1.5792e-10)
(8.48116e-10 1.01324e-10 1.15742e-10)
(4.31102e-11 2.07497e-11 1.10527e-10)
(3.79178e-11 3.09698e-11 4.87553e-11)
(2.38245e-11 2.75596e-11 1.3999e-11)
(1.14346e-10 3.82831e-11 9.53011e-11)
(1.04067e-10 3.11033e-11 5.91847e-11)
(5.87107e-11 2.80415e-11 1.10845e-11)
(1.84948e-10 3.2624e-11 6.42284e-11)
(1.42575e-10 2.07291e-11 4.5602e-11)
(8.7564e-11 2.67077e-11 6.59585e-12)
(2.19641e-10 4.34125e-11 5.07998e-11)
(1.86325e-10 2.9257e-11 2.00109e-11)
(1.13883e-10 1.08673e-11 1.82036e-12)
(2.33363e-10 1.14528e-10 7.02808e-13)
(2.2278e-10 4.70698e-11 3.35337e-11)
(1.04044e-10 2.4925e-11 8.28023e-12)
(1.46662e-10 9.84285e-11 6.8896e-11)
(1.53274e-10 3.33367e-11 2.98286e-11)
(9.07161e-11 1.22801e-11 6.9256e-12)
(9.80999e-11 4.28902e-11 2.24433e-10)
(1.47801e-10 -5.82209e-12 1.10579e-10)
(5.58364e-11 -2.45285e-11 7.99097e-11)
(-2.70221e-11 1.45649e-10 4.86586e-10)
(1.1223e-10 6.62994e-11 2.91583e-10)
(5.59153e-11 5.06965e-12 1.47685e-10)
(-2.39905e-10 3.9239e-11 8.49149e-10)
(2.36445e-10 -2.01748e-11 2.69824e-10)
(9.32293e-11 -4.87274e-13 7.15673e-11)
)
;
    }
    procBoundary4to0
    {
        type            processor;
        value           nonuniform List<vector> 
36
(
(5.97355e-11 6.1814e-11 2.23573e-10)
(2.03005e-10 4.66092e-11 2.52334e-10)
(3.53495e-10 2.52464e-11 2.12331e-10)
(2.62236e-10 2.02994e-11 3.84934e-11)
(2.42178e-10 3.00518e-12 -4.02494e-11)
(6.0328e-11 4.30191e-11 1.17967e-10)
(-9.52925e-11 1.08362e-10 2.98563e-10)
(-1.14858e-10 2.36755e-11 1.00938e-09)
(-4.00437e-10 -1.78047e-10 2.7081e-09)
(8.15297e-11 5.46713e-11 2.22908e-10)
(2.45626e-10 8.21165e-11 2.87507e-10)
(3.89056e-10 3.52672e-11 2.26548e-10)
(5.00721e-10 3.57187e-11 1.12664e-10)
(4.08749e-10 7.3532e-11 3.04305e-11)
(2.4597e-10 8.4056e-11 2.05257e-10)
(7.68575e-11 2.01185e-10 4.47287e-10)
(-1.97176e-10 2.27609e-10 9.58341e-10)
(-7.13241e-10 6.63945e-10 1.782e-09)
(1.31255e-10 1.47285e-10 1.93367e-10)
(2.6938e-10 1.08227e-10 1.92745e-10)
(4.1386e-10 8.74719e-11 1.68803e-10)
(5.41252e-10 1.00189e-10 1.15741e-10)
(6.13754e-10 1.52823e-10 1.54768e-10)
(6.52131e-10 1.44209e-10 3.48077e-10)
(5.53661e-10 3.38092e-10 5.31276e-10)
(2.49022e-10 6.34088e-10 1.18735e-09)
(-6.47774e-11 1.09841e-09 1.97364e-09)
(6.68258e-11 6.40581e-11 1.36522e-10)
(2.78947e-10 2.07496e-11 1.97319e-10)
(4.62316e-10 1.10421e-11 1.54364e-10)
(8.40106e-10 3.35901e-11 2.40117e-10)
(1.02278e-09 1.31035e-10 3.91722e-10)
(9.98832e-10 9.72413e-11 3.9862e-10)
(1.0336e-09 4.4224e-10 5.26389e-10)
(8.72362e-10 5.64676e-10 8.42293e-10)
(1.29757e-09 3.6486e-10 9.57258e-10)
)
;
    }
    procBoundary4to5
    {
        type            processor;
        value           nonuniform List<vector> 
12
(
(3.7874e-11 3.02405e-10 4.31724e-10)
(1.09337e-09 6.12869e-10 8.58867e-10)
(1.15862e-09 6.13527e-10 1.30533e-09)
(1.67812e-09 5.61185e-10 7.78168e-10)
(3.59635e-10 5.20734e-11 2.19973e-10)
(7.00844e-10 -8.62014e-13 4.99778e-10)
(1.06325e-09 7.02353e-10 8.07181e-10)
(1.70325e-09 5.04767e-10 2.74973e-10)
(1.41782e-10 3.61861e-11 1.05427e-11)
(3.21018e-10 3.47263e-13 2.66832e-11)
(4.3568e-10 2.96843e-10 2.06009e-11)
(1.14014e-09 2.8338e-10 2.95741e-11)
)
;
    }
    procBoundary4to6
    {
        type            processor;
        value           nonuniform List<vector> 
27
(
(9.34249e-11 -3.70658e-11 5.13212e-11)
(2.21854e-10 -9.25446e-11 9.43173e-11)
(2.92919e-10 -1.30218e-10 6.56088e-11)
(4.49562e-10 -1.13391e-10 1.12716e-10)
(6.80444e-10 -8.96054e-11 2.35338e-10)
(8.77397e-10 -1.24205e-11 1.21694e-10)
(9.72889e-10 1.22129e-10 1.50848e-10)
(1.1423e-09 9.23739e-11 2.13258e-10)
(1.55308e-09 3.15311e-10 2.49736e-10)
(3.95538e-11 -3.76029e-11 2.34019e-11)
(1.93199e-10 -9.01301e-11 2.84541e-11)
(3.03624e-10 -1.1378e-10 3.4205e-12)
(3.60901e-10 -1.03038e-10 3.86892e-11)
(4.89466e-10 -7.63276e-11 7.30857e-11)
(7.58745e-10 -1.08003e-10 4.74364e-11)
(9.16299e-10 5.95362e-11 8.19703e-11)
(1.0083e-09 2.04137e-11 1.25119e-10)
(1.23123e-09 2.72118e-10 2.26369e-10)
(4.89809e-11 -3.64205e-11 5.14835e-12)
(7.44262e-11 -7.02578e-11 8.34862e-12)
(1.86602e-10 -6.85707e-11 -1.85736e-11)
(2.28608e-10 -6.33142e-11 -9.4396e-12)
(3.21187e-10 -6.72385e-11 -2.33843e-11)
(4.11541e-10 -1.13388e-10 -1.68367e-11)
(6.22276e-10 2.99728e-11 1.30158e-11)
(5.59415e-10 5.85558e-12 2.16501e-11)
(6.12763e-10 1.37571e-10 6.486e-11)
)
;
    }
}


// ************************************************************************* //
