/*--------------------------------*- C++ -*----------------------------------*\
  =========                 |
  \\      /  F ield         | OpenFOAM: The Open Source CFD Toolbox
   \\    /   O peration     | Website:  https://openfoam.org
    \\  /    A nd           | Version:  4.x
     \\/     M anipulation  |
\*---------------------------------------------------------------------------*/
FoamFile
{
    version     2.0;
    format      ascii;
    class       vectorField;
    location    0;
    object      v;
}
// * * * * * * * * * * * * * * * * * * * * * * * * * * * * * * * * * * * * * //

302
(
( 5.00589e-05 -2.70296e-05 -3.48017e-05 )  
( 0.000199114 -6.69357e-05 -0.000176973 )  
( 0.000138645 -6.97605e-05 -0.000163684 )  
( 0.000125047 -4.04218e-05 -8.63799e-05 )  
( 0.000198544 -3.57748e-05 -0.000102012 )  
( 0.000268046 -4.0919e-05 -0.000270169 )  
( 3.70581e-05 -4.25204e-05 -3.75141e-05 )  
( 0.000248824 -3.76618e-05 -0.000188902 )  
( -1.51962e-05 -6.87204e-05 -0.000108139 )  
( 0.000105661 -0.000140654 9.71271e-05 )  
( 0.000284257 -0.000208116 0.000181183 )  
( 1.96815e-05 -5.26145e-05 0.000130365 )  
( 0.000439319 8.75141e-05 -0.000355078 )  
( 0.000381199 -0.000189999 0.000304642 )  
( -5.59016e-06 -4.36881e-05 4.07617e-05 )  
( 0.000249317 -0.00016994 1.15803e-05 )  
( -0.000168398 -0.000195112 0.0001577 )  
( 0.000432114 1.68366e-05 -0.000195468 )  
( 0.000163142 -0.000136319 -0.000232014 )  
( 0.000153121 -0.000166978 0.000148006 )  
( 0.000276638 -0.000113973 -0.000347279 )  
( 0.000383875 -0.000124271 -6.53989e-05 )  
( 0.000337282 -3.17773e-05 -0.000367538 )  
( 0.000158613 -7.98225e-05 -0.000110975 )  
( 0.000306916 -5.00766e-05 -0.000412943 )  
( 0.000204044 -0.000117222 -0.000378067 )  
( 0.000212694 -0.00018938 0.000163776 )  
( -3.10308e-05 -6.32152e-05 4.72551e-05 )  
( 0.000226903 -0.000115331 -0.000329905 )  
( 0.000148594 -0.000172979 0.000176942 )  
( 9.0582e-06 -0.000125758 0.000148129 )  
( 3.22994e-05 -5.54459e-05 -0.000260766 )  
( 5.25906e-06 -3.28357e-05 9.83317e-05 )  
( 0.000164513 -7.31259e-05 0.000220105 )  
( 0.000180095 2.37645e-06 4.05387e-06 )  
( 0.000143888 2.6238e-05 0.000120377 )  
( 0.000253703 -0.000107744 -0.000129882 )  
( -2.01403e-05 -0.000105648 0.000140387 )  
( 0.000177786 -6.36547e-06 -3.88494e-05 )  
( 0.000243443 -1.83871e-05 0.000101297 )  
( -0.000141658 -0.000217357 0.000239361 )  
( 0.000194253 -3.16033e-05 0.000121407 )  
( 2.23977e-06 -2.90448e-05 4.33994e-05 )  
( 0.000374539 6.08298e-05 -9.21679e-06 )  
( 0.000281738 -2.08442e-05 -0.000212242 )  
( 0.000345445 -0.000167315 8.83509e-05 )  
( -2.47205e-05 -4.30708e-05 5.20435e-05 )  
( 9.03819e-05 -0.000138391 0.000142081 )  
( 8.6277e-06 -0.000121999 9.33953e-05 )  
( 0.000374804 3.92272e-06 6.40223e-05 )  
( 0.000177474 -8.2071e-05 3.83985e-05 )  
( 0.000146097 -2.3622e-05 -1.69277e-05 )  
( 0.000183213 -4.93791e-06 0.000137982 )  
( 0.000230593 3.24277e-05 0.000157669 )  
( 7.70311e-05 -2.52079e-05 4.02995e-05 )  
( 6.77721e-05 6.39064e-06 7.49231e-05 )  
( 4.214e-05 -9.2917e-05 6.47168e-05 )  
( 9.82552e-06 -1.17103e-05 -1.06199e-05 )  
( 7.24574e-05 -0.000156335 0.000189572 )  
( 0.000167499 2.47287e-05 9.0846e-05 )  
( 0.0001448 -8.69332e-05 9.5605e-05 )  
( -1.86391e-06 -7.02303e-06 2.38346e-06 )  
( -8.18935e-06 -2.31726e-05 4.80044e-05 )  
( -0.000856523 -7.09904e-05 6.39429e-05 )  
( 0.000190876 -0.000114151 -0.000293389 )  
( 0.000188725 -7.51053e-05 0.000163613 )  
( 3.53195e-05 -3.20925e-06 -2.20937e-06 )  
( 1.10789e-06 -0.000193645 7.00433e-05 )  
( 0.000409779 -0.000171424 0.000277888 )  
( 0.000185798 -3.01511e-05 -9.55158e-05 )  
( 0.000342761 6.3287e-05 -0.000145536 )  
( 6.11401e-05 -0.000157508 0.000177887 )  
( 0.000191222 -4.34234e-05 -0.000119122 )  
( 0.000173215 -0.000179702 0.000216631 )  
( 7.92823e-07 -9.59388e-05 0.000138653 )  
( 4.34254e-05 -0.000186333 8.8367e-05 )  
( 0.00011939 -3.10192e-05 9.60127e-05 )  
( 0.000259645 -2.49926e-05 -7.54203e-05 )  
( -2.11745e-05 -7.15061e-05 8.87267e-05 )  
( 0.000496403 -0.000112005 3.7128e-05 )  
( 6.18412e-05 -1.52548e-05 -6.778e-06 )  
( 0.000310147 -2.92872e-05 -0.000329507 )  
( 0.00020495 -0.00017817 0.000313057 )  
( 1.95196e-05 -6.635e-05 8.73584e-05 )  
( 8.87145e-05 -0.000205404 0.000257961 )  
( 0.000134735 -0.000209168 0.000269911 )  
( 9.49045e-05 9.67585e-06 8.09539e-05 )  
( 2.28545e-05 -8.99392e-05 0.00015605 )  
( 8.60168e-05 -0.000215261 0.000261718 )  
( -1.91444e-05 -3.88712e-05 2.97645e-05 )  
( 0.000211562 -6.6328e-05 2.35828e-05 )  
( 0.000289424 -8.66524e-05 0.000184793 )  
( 1.53974e-05 -8.10264e-05 9.37439e-05 )  
( 5.55633e-05 -1.77463e-05 6.51443e-05 )  
( 0.000300438 -4.59577e-05 0.000178192 )  
( 8.62831e-05 -2.08126e-05 -5.52434e-05 )  
( 0.000137682 -0.000195586 0.000203487 )  
( 5.89192e-05 -6.83436e-05 -8.15143e-07 )  
( 0.000109697 -0.000132453 0.000186768 )  
( 0.00051806 4.43439e-05 -5.92318e-06 )  
( 0.000169411 -3.63193e-05 6.75533e-05 )  
( 0.000110642 -8.28943e-06 -4.66592e-05 )  
( -8.53105e-05 -8.31008e-05 5.23694e-05 )  
( -0.000616391 0.000119534 0.000262957 )  
( 1.36625e-05 -0.000214286 0.000223553 )  
( 0.000134521 -0.00021857 0.000301681 )  
( 0.000136401 6.913e-06 -2.29659e-05 )  
( 7.45736e-05 -7.41932e-05 0.00011772 )  
( -3.19172e-06 -3.06201e-06 3.3961e-06 )  
( 0.000278105 2.69879e-05 -1.45159e-05 )  
( 0.000365933 2.39789e-06 -0.000208686 )  
( 0.000363256 3.03656e-05 -0.000307097 )  
( 9.16334e-05 -5.55481e-05 8.69805e-06 )  
( -1.57435e-05 -4.78077e-05 4.19819e-05 )  
( 0.000111327 -0.000126867 0.000129295 )  
( 0.000241895 3.57388e-05 4.44155e-05 )  
( 1.25957e-05 -8.11681e-05 7.53924e-05 )  
( 0.000130373 -0.000121763 0.000104287 )  
( -7.56598e-08 -8.23916e-05 0.000116357 )  
( -1.1777e-05 -0.000169588 0.000102402 )  
( 0.000212387 -9.23628e-05 -0.000225658 )  
( 0.000179813 -7.37513e-05 -0.000179827 )  
( 0.000346114 -0.000103147 1.50308e-05 )  
( 3.77067e-06 -3.81824e-05 8.88049e-05 )  
( 9.73351e-05 -5.16206e-05 -9.08929e-06 )  
( 0.00017921 -1.09385e-05 0.000115976 )  
( 1.36399e-06 -1.20174e-05 1.0533e-05 )  
( 8.49134e-05 -0.000137905 0.000200752 )  
( -1.3525e-05 -1.15533e-05 1.63804e-05 )  
( 0.000196298 -0.000114713 0.000165101 )  
( -3.51974e-06 -7.02072e-05 6.98575e-05 )  
( 0.000182683 -0.000181128 0.000302997 )  
( 8.24646e-05 -3.77051e-05 9.50961e-05 )  
( -7.23309e-06 -2.92919e-05 6.77312e-05 )  
( 6.15754e-05 -3.43289e-05 7.46664e-05 )  
( 0.000269908 -8.60016e-05 -0.000336184 )  
( 0.000259156 0.000100329 0.000148072 )  
( -5.80841e-06 -2.83461e-05 1.44181e-05 )  
( 0.000240206 -0.000138545 -8.06932e-05 )  
( 5.44202e-05 1.91662e-05 5.2308e-05 )  
( -1.04118e-05 -3.22556e-05 3.56744e-05 )  
( 3.20037e-05 -0.000134775 0.00016699 )  
( 0.000314399 -7.59043e-05 -8.4929e-05 )  
( 0.000157013 1.67209e-05 9.16924e-05 )  
( 9.97734e-06 -2.29987e-05 2.99989e-05 )  
( 1.07942e-05 -3.06545e-05 4.88813e-06 )  
( 0.000109011 -0.000124469 0.000210286 )  
( 5.18573e-05 -6.3171e-05 -0.000106252 )  
( 2.279e-05 -3.32651e-05 4.2781e-05 )  
( 5.38001e-05 3.66344e-06 2.80015e-05 )  
( 0.000201596 -0.000132092 -0.000267776 )  
( 3.28137e-05 -1.59466e-05 -3.02059e-05 )  
( 0.000232454 -1.15969e-05 -9.04056e-05 )  
( 0.000307091 -1.20447e-05 0.00012998 )  
( 0.00017219 4.40212e-05 0.000103419 )  
( 0.00025202 -0.000177114 0.000266807 )  
( 4.02677e-05 -2.93312e-05 2.67504e-05 )  
( 0.000133657 -0.000178218 0.000222416 )  
( 5.20644e-05 -0.000110541 0.000152254 )  
( 5.9725e-05 -3.97225e-05 -2.93849e-05 )  
( 0.000134734 -6.33099e-05 0.000108382 )  
( -2.07293e-06 -4.67836e-06 6.68544e-06 )  
( 0.000279547 -0.000180871 0.000330272 )  
( 0.00029278 -3.9293e-05 -0.0002424 )  
( 1.59927e-06 -1.55521e-05 2.24119e-05 )  
( -2.74206e-06 -4.27487e-06 8.3044e-06 )  
( 0.00020209 -1.27998e-05 -7.39462e-05 )  
( 9.85948e-05 7.31781e-06 1.50053e-05 )  
( 1.17063e-06 -5.13253e-06 7.58842e-06 )  
( 7.77364e-05 -5.30478e-06 5.75462e-05 )  
( 4.54028e-06 -1.27012e-05 6.0848e-05 )  
( -2.11663e-05 -2.71463e-05 2.77062e-05 )  
( 0.000245811 -1.44191e-05 -0.000144299 )  
( 9.29098e-05 -0.000157254 0.000192806 )  
( 5.48505e-05 1.49132e-05 4.71037e-05 )  
( 8.44131e-05 1.72355e-06 1.13201e-05 )  
( 2.86447e-05 -4.54281e-06 4.22729e-05 )  
( -6.91002e-06 -1.5944e-05 2.39904e-05 )  
( 0.000287967 -0.00012741 0.000160623 )  
( 7.2213e-06 -0.000385316 0.00016102 )  
( -9.63835e-05 -0.000110334 0.000136736 )  
( 7.5155e-05 2.81915e-06 -4.17981e-05 )  
( 3.48598e-05 -6.12085e-05 5.02828e-05 )  
( 2.74503e-05 -0.000181147 0.000234044 )  
( -8.87249e-06 -0.000123947 6.62175e-06 )  
( 8.01875e-05 -7.69104e-05 6.35784e-05 )  
( 4.95487e-05 -3.83823e-05 5.49038e-05 )  
( -5.50495e-06 -6.57362e-05 3.39741e-06 )  
( 0.000174107 5.9653e-06 5.31824e-05 )  
( 0.000150477 -5.13853e-05 -0.000105654 )  
( 8.47855e-05 -0.000150415 0.000130127 )  
( 0.000384959 7.41163e-05 -0.00016975 )  
( -1.79372e-05 -3.95282e-05 3.46446e-05 )  
( 5.97994e-05 -4.44278e-05 9.15709e-05 )  
( 2.88656e-05 -6.60287e-06 6.65517e-05 )  
( 2.13122e-05 -4.34447e-05 5.2353e-06 )  
( -1.64755e-05 -4.07361e-05 4.86679e-05 )  
( 3.68783e-05 -0.000113901 0.000118631 )  
( 1.927e-05 -1.60009e-05 4.67727e-05 )  
( 1.29775e-05 -2.77664e-05 4.95195e-05 )  
( 5.50647e-05 7.28964e-06 7.35089e-05 )  
( 1.92009e-05 -0.000119784 0.00015255 )  
( 1.41708e-05 -9.76645e-05 0.000138587 )  
( 2.31556e-05 -4.59756e-05 8.81915e-05 )  
( 2.1791e-05 -4.40018e-05 4.14809e-05 )  
( 8.26851e-05 -5.39873e-05 9.68731e-05 )  
( -2.49448e-05 -8.8317e-05 0.000108258 )  
( -5.45182e-06 -0.000108472 0.000121783 )  
( 1.73476e-05 -1.16989e-05 3.76367e-05 )  
( 2.10125e-05 -0.000111253 0.000133304 )  
( 5.39149e-06 -4.19076e-05 0.000113208 )  
( -5.99598e-06 -8.42756e-06 1.46548e-05 )  
( 2.45982e-05 -9.72884e-05 0.000124482 )  
( 8.40797e-05 -3.91036e-05 -9.77449e-05 )  
( 2.27675e-05 -0.000123021 0.000163667 )  
( 1.43925e-05 -8.83816e-06 -1.58398e-05 )  
( 5.13319e-05 -5.30504e-05 -5.90563e-05 )  
( 7.1557e-05 -6.71972e-05 0.00012774 )  
( 3.72623e-05 -5.89994e-05 3.12923e-05 )  
( 0.000128605 -0.000113871 -0.000150253 )  
( 4.28481e-05 -3.75043e-05 7.43986e-05 )  
( -1.06147e-07 -1.89507e-06 6.35329e-06 )  
( -3.30355e-06 -7.86756e-06 4.31219e-06 )  
( 0.00017171 -8.01508e-05 -0.000136454 )  
( 0.000208858 -0.000118051 -0.000331924 )  
( 6.61709e-05 -0.000129398 0.000185714 )  
( 3.89804e-05 -8.29779e-05 -0.000151681 )  
( 0.000363392 -4.70842e-05 8.51011e-05 )  
( 2.2007e-05 1.10431e-05 3.17391e-05 )  
( 0.000172913 -0.000141257 -0.000186981 )  
( -0.000186607 -5.03764e-05 5.61603e-05 )  
( 8.56599e-05 -0.000144208 0.000167269 )  
( 0.000294018 -2.31929e-06 -0.000213425 )  
( 2.27738e-05 -7.07316e-05 -0.000116467 )  
( 1.68565e-06 -1.15463e-05 2.85137e-05 )  
( -5.5044e-08 -3.71715e-05 9.45321e-05 )  
( 6.02159e-05 -3.84203e-05 -6.26657e-05 )  
( 0.000330942 -0.00017972 0.000165812 )  
( 0.000155153 -0.000176972 0.000320103 )  
( 0.000108227 -7.93695e-05 -0.000242089 )  
( 0.000114874 -0.000126428 0.00017875 )  
( 0.000238087 -0.000111126 -0.000380606 )  
( 2.8802e-05 -0.000116659 0.000103843 )  
( 0.000259788 -0.000133309 -0.000208571 )  
( 0.000275248 -6.68747e-05 -0.000412207 )  
( 3.07355e-05 -5.52116e-06 4.36084e-05 )  
( 8.19974e-07 -5.07595e-05 6.00211e-05 )  
( 0.000547284 -0.000175312 7.60045e-05 )  
( 0.000291132 3.8898e-05 1.98335e-05 )  
( 0.000135168 -0.000121529 0.000226738 )  
( 0.000193067 -5.18576e-05 -0.000135078 )  
( 0.000292011 -8.06038e-05 -0.000391459 )  
( 0.000141178 3.60699e-05 0.000126584 )  
( 0.000142064 -7.7897e-05 -0.000253965 )  
( 6.31929e-05 -0.00013146 0.000196828 )  
( 2.84788e-05 -8.34505e-05 -0.000112357 )  
( 8.17784e-06 -7.02179e-06 5.77829e-05 )  
( 0.000111212 -6.41498e-05 -0.000125873 )  
( 2.28991e-05 -3.57007e-05 -4.61992e-05 )  
( 5.46064e-05 -8.62513e-05 8.92756e-05 )  
( 7.89012e-05 -8.64191e-05 -1.97505e-06 )  
( 2.71995e-05 -8.1537e-05 0.000120675 )  
( 2.50133e-05 -1.90807e-05 9.9915e-06 )  
( 1.6312e-05 -4.01422e-05 5.9986e-05 )  
( 0.0001248 -9.75521e-05 -0.000205448 )  
( 4.12113e-05 -0.000132195 0.000153203 )  
( 6.10124e-05 -4.49083e-05 8.22592e-05 )  
( 3.53067e-07 -4.70805e-05 4.85292e-05 )  
( 0.000105217 -8.25418e-05 -0.000287681 )  
( 5.41667e-05 -3.29381e-05 0.000113364 )  
( 0.000114736 -0.000104952 -0.000254065 )  
( 2.94445e-05 -8.31059e-05 0.000153232 )  
( 7.92589e-05 -7.52598e-05 0.000142781 )  
( 3.0094e-06 -8.70899e-05 9.43774e-05 )  
( 0.000336256 -8.13584e-05 -0.000217897 )  
( 0.000343067 -7.40898e-06 -0.000473106 )  
( 5.06851e-06 -7.65602e-05 6.01076e-05 )  
( 0.000473103 -0.000143316 0.000196505 )  
( 0.000429251 -0.000174255 0.000204592 )  
( 4.47399e-05 0.000128606 9.40025e-06 )  
( 0.000386168 3.30836e-05 0.000117624 )  
( -1.21233e-05 -0.00026746 0.000258309 )  
( 0.00017662 1.33769e-05 -4.87927e-05 )  
( 0.000378937 0.000112955 -0.00029366 )  
( 0.000513806 0.000331029 -0.000173503 )  
( 0.00032079 2.84808e-05 -6.20565e-05 )  
( 0.000207522 -1.37719e-05 0.000135549 )  
( 0.000114393 5.23308e-05 -1.12959e-05 )  
( 0.000493366 0.000201324 -2.06173e-05 )  
( 0.000302995 6.19237e-05 -0.000224494 )  
( 0.000139036 -3.52875e-05 9.44342e-05 )  
( -4.84101e-05 -2.74408e-05 5.4301e-05 )  
( 0.00018115 -0.000163094 0.000141253 )  
( 0.000103486 4.51888e-06 -8.6607e-05 )  
( 0.000166498 -0.000191154 0.000325786 )  
( 0.000459631 0.000130603 -0.000336394 )  
( 6.329e-05 -0.000329215 0.000209533 )  
( 0.000247879 -0.000132367 -8.38594e-05 )  
( 0.000329803 0.000246437 -0.000135258 )  
( 0.000416677 0.000164591 -0.00019862 )  
( 9.8941e-05 0.000221355 -4.58935e-06 )  
( 0.000194421 -6.86486e-05 -0.00036743 )  
)
