/*--------------------------------*- C++ -*----------------------------------*\
| =========                 |                                                 |
| \\      /  F ield         | OpenFOAM: The Open Source CFD Toolbox           |
|  \\    /   O peration     | Version:  4.x                                   |
|   \\  /    A nd           | Web:      www.OpenFOAM.org                      |
|    \\/     M anipulation  |                                                 |
\*---------------------------------------------------------------------------*/
FoamFile
{
    version     2.0;
    format      ascii;
    class       volScalarField;
    location    "3.5";
    object      Deff;
}
// * * * * * * * * * * * * * * * * * * * * * * * * * * * * * * * * * * * * * //

dimensions      [0 2 -1 0 0 0 0];

internalField   nonuniform List<scalar> 
132
(
9.78868e-08
9.78624e-08
9.78906e-08
9.78041e-08
9.76088e-08
9.75749e-08
9.7633e-08
9.7748e-08
9.76505e-08
9.79738e-08
9.78104e-08
9.78541e-08
9.78515e-08
9.77086e-08
9.77406e-08
9.76749e-08
9.77134e-08
9.76648e-08
9.81551e-08
9.79532e-08
9.79408e-08
9.7902e-08
9.77831e-08
9.76895e-08
9.76769e-08
9.77183e-08
9.76999e-08
9.82759e-08
9.80556e-08
9.79279e-08
9.79992e-08
9.7868e-08
9.7809e-08
9.77325e-08
9.78449e-08
9.79795e-08
9.77773e-08
9.76823e-08
9.76487e-08
9.75892e-08
9.75111e-08
9.75354e-08
9.7606e-08
9.79925e-08
9.77525e-08
9.77265e-08
9.76946e-08
9.75825e-08
9.7599e-08
9.76127e-08
9.75617e-08
9.76562e-08
9.80192e-08
9.77865e-08
9.77965e-08
9.77972e-08
9.76436e-08
9.75495e-08
9.75051e-08
9.7595e-08
9.76188e-08
9.81102e-08
9.78608e-08
9.78722e-08
9.78e-08
9.77221e-08
9.77213e-08
9.7656e-08
9.76621e-08
9.7852e-08
9.76516e-08
9.76271e-08
9.75567e-08
9.76008e-08
9.76587e-08
9.78449e-08
9.77506e-08
9.77053e-08
9.77305e-08
9.75763e-08
9.76116e-08
9.75683e-08
9.75133e-08
9.75974e-08
9.79248e-08
9.78077e-08
9.77458e-08
9.77249e-08
9.76009e-08
9.75949e-08
9.75633e-08
9.75965e-08
9.76203e-08
9.80822e-08
9.79175e-08
9.78161e-08
9.77784e-08
9.77538e-08
9.77588e-08
9.76315e-08
9.76849e-08
9.78358e-08
9.76811e-08
9.76721e-08
9.77193e-08
9.79226e-08
9.78702e-08
9.77079e-08
9.76914e-08
9.77325e-08
9.7799e-08
9.7661e-08
9.76601e-08
9.77517e-08
9.79837e-08
9.79082e-08
9.78415e-08
9.77884e-08
9.7711e-08
9.77142e-08
9.76442e-08
9.76947e-08
9.77234e-08
9.8038e-08
9.78975e-08
9.79139e-08
9.78642e-08
9.7774e-08
9.7749e-08
9.77149e-08
9.77905e-08
9.79897e-08
)
;

boundaryField
{
    inlet
    {
        type            calculated;
        value           nonuniform 0();
    }
    outlet
    {
        type            calculated;
        value           uniform 0;
    }
    wall
    {
        type            calculated;
        value           uniform 0;
    }
    procBoundary7to0
    {
        type            processor;
        value           uniform 0;
    }
    procBoundary7to1
    {
        type            processor;
        value           uniform 0;
    }
    procBoundary7to3
    {
        type            processor;
        value           uniform 0;
    }
    procBoundary7to5
    {
        type            processor;
        value           uniform 0;
    }
    procBoundary7to6
    {
        type            processor;
        value           uniform 0;
    }
}


// ************************************************************************* //
