/*--------------------------------*- C++ -*----------------------------------*\
| =========                 |                                                 |
| \\      /  F ield         | OpenFOAM: The Open Source CFD Toolbox           |
|  \\    /   O peration     | Version:  4.x                                   |
|   \\  /    A nd           | Web:      www.OpenFOAM.org                      |
|    \\/     M anipulation  |                                                 |
\*---------------------------------------------------------------------------*/
FoamFile
{
    version     2.0;
    format      ascii;
    class       volVectorField;
    location    "3.5";
    object      impParticleForces;
}
// * * * * * * * * * * * * * * * * * * * * * * * * * * * * * * * * * * * * * //

dimensions      [1 1 -2 0 0 0 0];

internalField   nonuniform List<vector> 
132
(
(0.0026385 -3.48993e-06 -3.89778e-05)
(0.00264213 -4.56459e-06 -7.20979e-05)
(0.00256959 -5.16786e-06 -0.00010529)
(0.00253659 -5.21092e-06 -0.000146429)
(0.00245728 -1.01171e-05 -0.000197963)
(0.00236062 -1.29869e-05 -0.000277655)
(0.00215347 -2.05018e-05 -0.000343915)
(0.00196618 -2.7551e-05 -0.000410171)
(0.00181019 -2.8031e-05 -0.000478775)
(0.00264076 1.16462e-05 -3.89304e-05)
(0.00267413 1.48768e-05 -7.4996e-05)
(0.00259582 2.49634e-05 -0.000108302)
(0.00256912 4.01397e-05 -0.000148412)
(0.00250011 6.2924e-05 -0.000198756)
(0.00245162 0.000100441 -0.000268804)
(0.00230494 0.00015181 -0.000336598)
(0.00219497 0.000206931 -0.000406923)
(0.00203936 0.000284437 -0.000471136)
(0.00267122 2.40821e-05 -3.06892e-05)
(0.00269658 2.80562e-05 -6.54898e-05)
(0.00264219 3.85771e-05 -0.000102163)
(0.00263605 5.86816e-05 -0.000143209)
(0.00259858 9.46697e-05 -0.000190728)
(0.00261809 0.000151623 -0.000258862)
(0.00252936 0.000229129 -0.000323619)
(0.00248199 0.00032968 -0.000399201)
(0.00232235 0.000471008 -0.000480675)
(0.00268726 3.1193e-05 -2.1286e-05)
(0.00270593 3.4717e-05 -5.40198e-05)
(0.00268283 4.43606e-05 -9.14032e-05)
(0.00265944 6.56245e-05 -0.000132102)
(0.00266206 0.000104734 -0.000179681)
(0.00267089 0.000161667 -0.000238515)
(0.00262151 0.000246976 -0.000306576)
(0.00263867 0.00034445 -0.000380457)
(0.00244385 0.00045189 -0.000457442)
(0.00258087 -1.02954e-05 -9.17607e-05)
(0.00253063 -1.28798e-05 -0.000122144)
(0.00242638 -1.84231e-05 -0.000154171)
(0.00228677 -2.65565e-05 -0.000199314)
(0.00197534 -3.84221e-05 -0.000262013)
(0.00163804 -4.90914e-05 -0.000337241)
(0.00148291 -5.59933e-05 -0.000355239)
(0.00265846 9.5534e-06 -3.55085e-05)
(0.00268413 1.19e-05 -7.15057e-05)
(0.00260692 1.88743e-05 -9.60379e-05)
(0.00256774 3.24567e-05 -0.00012705)
(0.00248261 5.56908e-05 -0.000161993)
(0.00238725 9.07816e-05 -0.000206262)
(0.00219033 0.000132357 -0.000254081)
(0.0020128 0.000178034 -0.000309377)
(0.00185916 0.000235188 -0.000335942)
(0.00270936 2.02904e-05 -2.71545e-05)
(0.00274349 2.35306e-05 -5.93892e-05)
(0.00267224 3.33013e-05 -9.06376e-05)
(0.00264254 5.22877e-05 -0.000125369)
(0.00259637 8.99961e-05 -0.000160653)
(0.00257114 0.000148264 -0.000205898)
(0.00245582 0.000217111 -0.000254156)
(0.00236275 0.000306682 -0.000310693)
(0.0022188 0.000401691 -0.000357593)
(0.00273141 2.63205e-05 -1.68741e-05)
(0.0027589 2.95894e-05 -4.73928e-05)
(0.00271619 4.09892e-05 -8.18991e-05)
(0.00269743 6.1979e-05 -0.000117443)
(0.00265868 0.00010479 -0.000154927)
(0.00263374 0.000160007 -0.000199063)
(0.00256991 0.000238941 -0.000252998)
(0.00252944 0.000330011 -0.000314749)
(0.00238114 0.000413621 -0.000370167)
(0.00246969 -2.38258e-05 -0.000113005)
(0.0023777 -3.63803e-05 -0.000120902)
(0.00218978 -5.38052e-05 -0.000137115)
(0.00201841 -7.09688e-05 -0.000145978)
(0.00186181 -9.52221e-05 -0.000110932)
(0.00270335 5.14526e-06 -3.3334e-05)
(0.00270995 6.09211e-06 -6.56837e-05)
(0.00262202 1.06031e-05 -8.05641e-05)
(0.00258607 1.95089e-05 -0.00010114)
(0.00249853 3.61091e-05 -0.00012221)
(0.00242319 6.05209e-05 -0.000139968)
(0.0022656 8.76101e-05 -0.000157261)
(0.00215264 0.000126294 -0.000163222)
(0.00200045 0.000176094 -0.000147397)
(0.00274425 1.70057e-05 -2.6019e-05)
(0.00275731 1.92947e-05 -5.47888e-05)
(0.00269147 2.59663e-05 -7.74557e-05)
(0.00267501 3.9613e-05 -0.000103153)
(0.00260436 7.21525e-05 -0.000126713)
(0.00256328 0.000117935 -0.000150995)
(0.00244866 0.00017183 -0.000175595)
(0.00237123 0.000240899 -0.000194978)
(0.00223534 0.000323048 -0.000201141)
(0.00275714 2.22107e-05 -1.76615e-05)
(0.00276942 2.54318e-05 -4.42623e-05)
(0.00272877 3.54412e-05 -7.07977e-05)
(0.00273099 5.38987e-05 -9.73299e-05)
(0.00267142 9.10765e-05 -0.000123839)
(0.00265626 0.000138647 -0.000151255)
(0.00256075 0.000204749 -0.000183317)
(0.00250239 0.00027331 -0.000214531)
(0.00236525 0.000359483 -0.000235332)
(0.00230609 -6.19093e-05 -9.53916e-05)
(0.00222072 -8.26182e-05 -7.46166e-05)
(0.00206554 -0.000108876 -4.02245e-05)
(0.00268688 1.65246e-06 -2.98676e-05)
(0.00266626 2.49106e-06 -5.3955e-05)
(0.00260332 6.6542e-06 -7.04473e-05)
(0.00258376 1.26704e-05 -8.85482e-05)
(0.00248971 2.39651e-05 -0.000104953)
(0.0024296 4.02221e-05 -0.000115278)
(0.00231488 5.80596e-05 -0.000120039)
(0.00224231 8.36757e-05 -0.000113176)
(0.0021029 9.98347e-05 -9.99341e-05)
(0.00271981 1.60249e-05 -2.52454e-05)
(0.00270624 1.82992e-05 -5.04822e-05)
(0.00265823 2.17255e-05 -7.09182e-05)
(0.00266168 3.03114e-05 -9.38965e-05)
(0.00257136 5.80319e-05 -0.000111506)
(0.00251247 9.34153e-05 -0.00012919)
(0.00241769 0.000135331 -0.000143815)
(0.00236688 0.000184188 -0.000152468)
(0.00224605 0.000232819 -0.000153883)
(0.00274034 1.9999e-05 -1.9596e-05)
(0.00275107 2.49397e-05 -4.41068e-05)
(0.00272005 3.37405e-05 -6.65258e-05)
(0.00274322 5.05927e-05 -8.88924e-05)
(0.00268031 8.13727e-05 -0.000111928)
(0.00260201 0.00012068 -0.000133961)
(0.00252317 0.000173116 -0.000157932)
(0.00249036 0.000226303 -0.000175113)
(0.00238014 0.000289145 -0.000198872)
)
;

boundaryField
{
    inlet
    {
        type            zeroGradient;
    }
    outlet
    {
        type            zeroGradient;
    }
    wall
    {
        type            zeroGradient;
    }
    procBoundary7to0
    {
        type            processor;
        value           uniform (0.00262692 -3.72479e-06 -6.55875e-06);
    }
    procBoundary7to1
    {
        type            processor;
        value           uniform (0.00264157 -1.85785e-05 -3.00069e-05);
    }
    procBoundary7to3
    {
        type            processor;
        value           nonuniform List<vector> 
36
(
(0.00259373 -1.61003e-06 -4.24871e-05)
(0.00260195 -2.75591e-06 -7.66195e-05)
(0.00254808 -1.99756e-06 -0.000108802)
(0.00253916 -1.45702e-06 -0.000149846)
(0.00245959 -2.18286e-06 -0.000200744)
(0.00242561 -4.3747e-08 -0.000273719)
(0.00231947 1.47394e-06 -0.000338728)
(0.00223743 1.7458e-06 -0.000406065)
(0.00212458 -3.201e-08 -0.000439969)
(0.00261303 1.39963e-05 -4.18123e-05)
(0.00261797 1.63163e-05 -7.59084e-05)
(0.0025672 2.39273e-05 -0.000110003)
(0.00253848 3.62083e-05 -0.000150535)
(0.00248524 5.66772e-05 -0.000203574)
(0.00249146 9.46534e-05 -0.000278821)
(0.00240533 0.000137232 -0.000344228)
(0.00237278 0.000190966 -0.000418218)
(0.0022308 0.000235219 -0.000446547)
(0.00265646 2.68335e-05 -3.33988e-05)
(0.00268112 3.02107e-05 -6.89683e-05)
(0.00262495 4.00522e-05 -0.00010347)
(0.00261687 5.81054e-05 -0.000143201)
(0.00257461 9.08711e-05 -0.000197508)
(0.00260676 0.000143156 -0.000267572)
(0.0025464 0.000205596 -0.000329589)
(0.00253291 0.000291074 -0.000401254)
(0.00237234 0.000374338 -0.000437226)
(0.00265846 3.36443e-05 -2.39952e-05)
(0.00265737 3.72971e-05 -5.67583e-05)
(0.00262986 4.78534e-05 -9.38301e-05)
(0.00263852 6.81229e-05 -0.000134033)
(0.00262465 0.000104673 -0.000186272)
(0.00264821 0.00015764 -0.000246976)
(0.00258458 0.000228293 -0.000309214)
(0.00259334 0.000318942 -0.000382327)
(0.00245804 0.000417538 -0.000436159)
)
;
    }
    procBoundary7to5
    {
        type            processor;
        value           nonuniform List<vector> 
44
(
(0.00266093 -2.31847e-05 -6.29468e-05)
(0.00258965 -3.38419e-05 -9.44909e-05)
(0.0025766 -5.06832e-05 -0.000132627)
(0.0024906 -7.82263e-05 -0.000172921)
(0.00242503 -0.000124278 -0.00022908)
(0.002291 -0.0001869 -0.00028699)
(0.0021823 -0.00024978 -0.000342001)
(0.0020252 -0.000345394 -0.000398475)
(0.00265729 -6.10494e-06 -3.39109e-05)
(0.00263969 -8.85397e-06 -6.4306e-05)
(0.00261598 -4.15729e-05 -8.52977e-05)
(0.00258977 -6.1944e-05 -0.000115439)
(0.00249734 -9.37877e-05 -0.000141239)
(0.00241377 -0.000146877 -0.000174772)
(0.00222569 -0.000208946 -0.000213638)
(0.00205974 -0.000278698 -0.000249174)
(0.00191159 -0.000364279 -0.00026343)
(0.00265729 -6.10494e-06 -3.39109e-05)
(0.00263969 -8.85397e-06 -6.4306e-05)
(0.00263969 -8.85397e-06 -6.4306e-05)
(0.00263176 -1.42547e-05 -7.84537e-05)
(0.00258425 -1.59034e-05 -9.82216e-05)
(0.00256049 -8.98326e-05 -0.000108557)
(0.0024961 -0.000138225 -0.000113941)
(0.0023391 -0.000200336 -0.000119124)
(0.00222024 -0.00028184 -0.000111609)
(0.00207492 -0.000383161 -7.68509e-05)
(0.00268035 -1.11936e-05 -2.92811e-05)
(0.0027057 -1.38664e-05 -5.92191e-05)
(0.00263176 -1.42547e-05 -7.84537e-05)
(0.00258425 -1.59034e-05 -9.82216e-05)
(0.00258425 -1.59034e-05 -9.82216e-05)
(0.00252054 -2.51062e-05 -9.71484e-05)
(0.00243492 -4.11466e-05 -9.92274e-05)
(0.00239968 -0.00018861 -8.90852e-05)
(0.0023203 -0.000259645 -6.73771e-05)
(0.00220019 -0.000339101 -3.39851e-05)
(0.00269768 -1.68563e-05 -2.6515e-05)
(0.00269485 -1.97811e-05 -5.36466e-05)
(0.00263772 -1.58144e-05 -7.13774e-05)
(0.00259748 -1.61501e-05 -8.88158e-05)
(0.00252054 -2.51062e-05 -9.71484e-05)
(0.00243492 -4.11466e-05 -9.92274e-05)
(0.00243492 -4.11466e-05 -9.92274e-05)
)
;
    }
    procBoundary7to6
    {
        type            processor;
        value           nonuniform List<vector> 
12
(
(0.00266756 9.05151e-06 -7.49293e-06)
(0.00270668 2.23591e-05 1.68278e-06)
(0.00270144 3.03029e-05 1.07205e-05)
(0.00270551 8.2451e-06 -4.5016e-06)
(0.00275353 1.97739e-05 4.6069e-06)
(0.00276452 2.6181e-05 1.40107e-05)
(0.00273777 4.68366e-06 -3.76692e-06)
(0.00277855 1.53777e-05 1.9063e-06)
(0.00277923 2.17127e-05 1.00026e-05)
(0.0027115 2.13373e-06 -4.09344e-06)
(0.00275386 1.43009e-05 7.30683e-07)
(0.00276976 1.8897e-05 5.92147e-06)
)
;
    }
}


// ************************************************************************* //
