/*--------------------------------*- C++ -*----------------------------------*\
| =========                 |                                                 |
| \\      /  F ield         | OpenFOAM: The Open Source CFD Toolbox           |
|  \\    /   O peration     | Version:  4.x                                   |
|   \\  /    A nd           | Web:      www.OpenFOAM.org                      |
|    \\/     M anipulation  |                                                 |
\*---------------------------------------------------------------------------*/
FoamFile
{
    version     2.0;
    format      ascii;
    class       volScalarField;
    location    "3.5";
    object      thCond;
}
// * * * * * * * * * * * * * * * * * * * * * * * * * * * * * * * * * * * * * //

dimensions      [1 1 -3 -1 0 0 0];

internalField   nonuniform List<scalar> 
132
(
190.016
189.968
190.023
189.855
189.476
189.41
189.523
189.746
189.557
190.184
189.867
189.952
189.947
189.67
189.732
189.604
189.679
189.585
190.536
190.145
190.12
190.045
189.814
189.632
189.608
189.688
189.653
190.771
190.343
190.095
190.234
189.979
189.865
189.716
189.934
190.195
189.803
189.619
189.553
189.438
189.286
189.333
189.471
190.221
189.755
189.704
189.643
189.425
189.457
189.483
189.385
189.568
190.273
189.821
189.84
189.842
189.543
189.361
189.275
189.449
189.495
190.449
189.965
189.987
189.847
189.696
189.694
189.568
189.579
189.948
189.559
189.511
189.375
189.46
189.573
189.934
189.751
189.663
189.712
189.413
189.481
189.397
189.291
189.454
190.089
189.862
189.742
189.701
189.461
189.449
189.388
189.452
189.498
190.395
190.075
189.878
189.805
189.757
189.767
189.52
189.624
189.917
189.616
189.599
189.69
190.085
189.983
189.668
189.636
189.716
189.845
189.577
189.576
189.753
190.204
190.057
189.928
189.824
189.674
189.681
189.545
189.643
189.698
190.309
190.036
190.068
189.972
189.797
189.748
189.682
189.829
190.215
)
;

boundaryField
{
    inlet
    {
        type            zeroGradient;
    }
    outlet
    {
        type            zeroGradient;
    }
    wall
    {
        type            zeroGradient;
    }
    procBoundary7to0
    {
        type            processor;
        value           uniform 190.82;
    }
    procBoundary7to1
    {
        type            processor;
        value           uniform 190.388;
    }
    procBoundary7to3
    {
        type            processor;
        value           nonuniform List<scalar> 
36
(
190.515
190.346
190.283
190.16
190.284
190.177
189.962
190.088
190.096
190.526
190.591
190.39
190.595
190.502
190.137
190.009
189.929
190.147
190.818
190.561
190.463
190.595
190.412
190.138
190.142
190.09
190.255
190.925
191.106
190.863
190.734
190.579
190.329
190.281
190.13
190.144
)
;
    }
    procBoundary7to5
    {
        type            processor;
        value           nonuniform List<scalar> 
44
(
190.115
190.203
189.98
189.972
189.96
189.758
189.838
189.713
189.847
190.044
189.854
189.689
189.647
189.542
189.473
189.498
189.656
189.847
190.044
190.044
189.477
189.503
189.275
189.362
189.28
189.273
189.372
190.174
189.668
189.477
189.503
189.503
189.286
189.424
189.534
189.523
189.575
190.054
189.971
189.626
189.636
189.286
189.424
189.424
)
;
    }
    procBoundary7to6
    {
        type            processor;
        value           nonuniform List<scalar> 
12
(
190.499
190.559
190.926
190.08
190.185
190.403
190.027
190.118
190.469
190.377
190.187
190.471
)
;
    }
}


// ************************************************************************* //
