/*--------------------------------*- C++ -*----------------------------------*\
| =========                 |                                                 |
| \\      /  F ield         | OpenFOAM: The Open Source CFD Toolbox           |
|  \\    /   O peration     | Version:  4.x                                   |
|   \\  /    A nd           | Web:      www.OpenFOAM.org                      |
|    \\/     M anipulation  |                                                 |
\*---------------------------------------------------------------------------*/
FoamFile
{
    version     2.0;
    format      ascii;
    class       volVectorField;
    location    "3.5";
    object      UsNext;
}
// * * * * * * * * * * * * * * * * * * * * * * * * * * * * * * * * * * * * * //

dimensions      [0 1 -1 0 0 0 0];

internalField   nonuniform List<vector> 
132
(
(-1.67312e-05 -2.22895e-06 3.12868e-06)
(-1.41688e-05 -1.3448e-06 2.67502e-06)
(-1.1921e-05 -1.09609e-06 1.74196e-06)
(-1.01886e-05 -8.04191e-07 9.60883e-07)
(-8.89727e-06 -3.76337e-07 6.65749e-07)
(-6.17586e-06 -1.6301e-08 9.88564e-07)
(-5.29e-06 -4.81873e-07 9.41539e-07)
(-2.634e-06 -2.79992e-07 2.43749e-07)
(-9.1886e-07 -3.8901e-07 -4.76859e-07)
(-1.77656e-05 -1.65821e-06 3.82143e-06)
(-1.42726e-05 -9.12776e-07 3.35373e-06)
(-1.15568e-05 -7.10972e-07 2.12974e-06)
(-1.01221e-05 -6.36421e-07 1.47587e-06)
(-8.1763e-06 -6.41422e-07 1.00467e-06)
(-7.11819e-06 -6.97355e-07 6.9806e-07)
(-5.88211e-06 -4.17638e-07 6.57975e-07)
(-4.15019e-06 -1.43687e-07 2.41176e-07)
(-2.1117e-06 -2.34293e-07 -3.01361e-07)
(-1.65423e-05 -2.46543e-07 4.02015e-06)
(-1.44063e-05 -1.07111e-06 3.63718e-06)
(-1.20091e-05 -3.03223e-07 2.26917e-06)
(-1.02014e-05 -1.84381e-07 1.89619e-06)
(-8.78671e-06 -9.32436e-07 1.16551e-06)
(-7.50198e-06 -1.04413e-06 7.18381e-07)
(-6.15079e-06 -3.08794e-07 3.09608e-07)
(-4.32089e-06 -8.0299e-07 5.02101e-07)
(-2.37103e-06 -7.37436e-07 -1.4459e-07)
(-1.50731e-05 -1.40757e-06 3.05329e-06)
(-1.32631e-05 -1.10695e-06 2.76592e-06)
(-9.05967e-06 -4.28025e-07 2.15674e-06)
(-7.67187e-06 -1.12811e-06 2.27414e-06)
(-7.08724e-06 -3.85547e-07 2.1539e-06)
(-8.05381e-06 -7.46107e-07 4.75462e-07)
(-5.41632e-06 -2.35879e-07 7.86612e-07)
(-2.6921e-06 -4.33663e-07 2.84936e-08)
(-1.26824e-06 -4.0756e-07 -1.3111e-07)
(-1.11257e-05 -1.31492e-06 1.28007e-06)
(-1.00696e-05 -1.20398e-06 8.28468e-07)
(-8.78065e-06 -1.47616e-06 3.63878e-07)
(-6.24094e-06 -5.64754e-07 7.7337e-07)
(-4.52964e-06 -3.52739e-07 5.09846e-07)
(-2.32804e-06 -2.92704e-07 1.87604e-07)
(-3.76332e-07 2.21566e-07 -1.34887e-07)
(-1.63812e-05 -4.28155e-07 3.18718e-06)
(-1.37245e-05 -8.91767e-07 2.81031e-06)
(-1.13016e-05 -8.23047e-07 1.84112e-06)
(-9.69496e-06 -5.18563e-07 1.33172e-06)
(-7.83964e-06 -4.97418e-07 7.12887e-07)
(-5.9929e-06 -4.57398e-07 7.84762e-07)
(-4.60987e-06 -5.07661e-07 4.88989e-07)
(-3.16234e-06 -2.3017e-07 1.01528e-07)
(-1.12945e-06 -1.28404e-07 3.14042e-08)
(-1.66884e-05 -1.44427e-07 2.53354e-06)
(-1.48276e-05 -1.23268e-07 3.61594e-06)
(-1.21407e-05 -5.61038e-07 2.48763e-06)
(-9.87242e-06 -1.96273e-07 1.54362e-06)
(-8.02155e-06 -4.38745e-07 1.06039e-06)
(-6.60593e-06 -1.18867e-06 5.63299e-07)
(-5.27151e-06 -6.75e-07 4.81763e-07)
(-2.97157e-06 -6.01463e-07 1.78426e-07)
(-2.55914e-06 -1.00293e-06 -9.13847e-08)
(-1.7036e-05 -2.35561e-06 2.70582e-06)
(-1.42348e-05 -6.0877e-07 2.49136e-06)
(-1.02444e-05 -8.35995e-07 2.20432e-06)
(-7.46215e-06 -6.69543e-07 2.08118e-06)
(-6.14545e-06 1.26284e-06 9.81743e-07)
(-4.63065e-06 -7.8672e-07 -7.36714e-08)
(-3.85661e-06 -3.02891e-08 6.56579e-08)
(-3.02042e-06 -3.23359e-07 -1.26375e-07)
(-1.68447e-06 -6.12358e-07 -1.09243e-07)
(-7.3831e-06 -1.18968e-06 1.77328e-07)
(-5.66867e-06 -7.77936e-07 5.76453e-07)
(-4.17441e-06 1.28876e-08 1.14745e-07)
(-2.53017e-06 -2.22952e-07 -3.03771e-07)
(-9.19411e-07 7.83231e-08 -5.73799e-08)
(-1.44967e-05 -1.00902e-06 1.88148e-06)
(-1.27912e-05 -7.55488e-07 1.8295e-06)
(-1.03711e-05 -6.65961e-07 1.55923e-06)
(-7.73825e-06 -3.62653e-07 8.97689e-07)
(-7.00432e-06 -6.90327e-07 1.13257e-07)
(-5.79704e-06 -8.40431e-07 6.20157e-07)
(-4.17292e-06 -2.368e-07 4.22499e-07)
(-2.68336e-06 3.44012e-08 1.26936e-07)
(-9.43935e-07 -2.13198e-07 1.77725e-08)
(-1.48311e-05 -4.83042e-07 1.21828e-06)
(-1.30022e-05 9.07552e-08 1.37881e-06)
(-1.04199e-05 -7.91177e-07 1.71269e-06)
(-8.60257e-06 -8.01156e-07 6.95042e-07)
(-6.96027e-06 -6.89591e-07 3.27512e-07)
(-5.98159e-06 -5.44653e-07 5.3987e-07)
(-4.31023e-06 -3.56546e-07 2.17005e-07)
(-2.45291e-06 -4.37317e-07 -1.3146e-07)
(-1.15074e-06 -2.78154e-07 -2.83372e-08)
(-1.01253e-05 -1.44147e-07 1.53555e-06)
(-1.02667e-05 -1.54716e-06 1.65366e-06)
(-8.07211e-06 -4.20564e-08 1.23581e-06)
(-7.25272e-06 -5.52264e-07 6.97166e-07)
(-5.95516e-06 -1.48874e-07 2.87856e-07)
(-4.68862e-06 3.6794e-07 -2.60035e-07)
(-3.56522e-06 -1.31041e-08 9.34109e-08)
(-2.0605e-06 -2.45956e-07 -2.57044e-07)
(-8.71014e-07 -1.83182e-07 -1.83121e-07)
(-3.5597e-06 7.6946e-08 -2.28994e-07)
(-2.79055e-06 3.32635e-08 -3.34357e-07)
(-1.29818e-06 -1.17404e-08 -2.90847e-07)
(-9.2914e-06 -2.07421e-06 1.03653e-06)
(-8.77737e-06 -7.24743e-07 1.33462e-07)
(-7.9341e-06 -1.26874e-06 -2.46327e-07)
(-5.37713e-06 -5.96795e-07 -2.73435e-07)
(-4.93836e-06 -7.41806e-07 9.80465e-08)
(-5.84751e-06 -8.56743e-07 6.30897e-07)
(-4.04449e-06 -4.66869e-08 -1.29202e-07)
(-2.61947e-06 -2.39118e-07 -7.37533e-08)
(-6.80393e-07 -2.63671e-08 4.37058e-09)
(-1.00759e-05 -2.07048e-06 -1.04774e-07)
(-7.82652e-06 -7.12996e-07 4.16829e-07)
(-7.58633e-06 -1.21685e-06 -3.04435e-08)
(-6.89448e-06 -5.85427e-07 -1.9635e-07)
(-4.60136e-06 -6.25179e-07 2.76864e-07)
(-4.46357e-06 -1.81587e-07 1.17152e-08)
(-3.78532e-06 -1.21335e-07 4.9484e-08)
(-2.62532e-06 -3.98893e-07 -3.65995e-07)
(-1.02872e-06 -3.06641e-07 2.39488e-08)
(-5.00481e-06 8.04651e-08 1.36678e-07)
(-4.76055e-06 -8.76118e-07 7.92459e-07)
(-5.25298e-06 -2.13394e-07 7.04678e-08)
(-5.33896e-06 9.61112e-08 1.23783e-07)
(-4.78388e-06 -3.72419e-07 -3.67635e-07)
(-3.23261e-06 -6.84671e-09 -1.29492e-09)
(-2.47842e-06 -3.62986e-08 2.14448e-07)
(-1.93716e-06 -4.05373e-07 -1.23221e-07)
(-5.87546e-07 -2.81231e-07 -4.89942e-08)
)
;

boundaryField
{
    inlet
    {
        type            calculated;
        value           nonuniform 0();
    }
    outlet
    {
        type            calculated;
        value           nonuniform List<vector> 
16
(
(-9.1886e-07 -3.8901e-07 -4.76859e-07)
(-2.1117e-06 -2.34293e-07 -3.01361e-07)
(-2.37103e-06 -7.37436e-07 -1.4459e-07)
(-1.26824e-06 -4.0756e-07 -1.3111e-07)
(-3.76332e-07 2.21566e-07 -1.34887e-07)
(-1.12945e-06 -1.28404e-07 3.14042e-08)
(-2.55914e-06 -1.00293e-06 -9.13847e-08)
(-1.68447e-06 -6.12358e-07 -1.09243e-07)
(-9.19411e-07 7.83231e-08 -5.73799e-08)
(-9.43935e-07 -2.13198e-07 1.77725e-08)
(-1.15074e-06 -2.78154e-07 -2.83372e-08)
(-8.71014e-07 -1.83182e-07 -1.83121e-07)
(-1.29818e-06 -1.17404e-08 -2.90847e-07)
(-6.80393e-07 -2.63671e-08 4.37058e-09)
(-1.02872e-06 -3.06641e-07 2.39488e-08)
(-5.87546e-07 -2.81231e-07 -4.89942e-08)
)
;
    }
    wall
    {
        type            calculated;
        value           nonuniform List<vector> 
66
(
(-9.2914e-06 -2.07421e-06 1.03653e-06)
(-1.00759e-05 -2.07048e-06 -1.04774e-07)
(-5.00481e-06 8.04651e-08 1.36678e-07)
(-8.77737e-06 -7.24743e-07 1.33462e-07)
(-7.82652e-06 -7.12996e-07 4.16829e-07)
(-4.76055e-06 -8.76118e-07 7.92459e-07)
(-7.9341e-06 -1.26874e-06 -2.46327e-07)
(-7.58633e-06 -1.21685e-06 -3.04435e-08)
(-5.25298e-06 -2.13394e-07 7.04678e-08)
(-5.37713e-06 -5.96795e-07 -2.73435e-07)
(-6.89448e-06 -5.85427e-07 -1.9635e-07)
(-5.33896e-06 9.61112e-08 1.23783e-07)
(-4.93836e-06 -7.41806e-07 9.80465e-08)
(-4.60136e-06 -6.25179e-07 2.76864e-07)
(-4.78388e-06 -3.72419e-07 -3.67635e-07)
(-5.84751e-06 -8.56743e-07 6.30897e-07)
(-4.46357e-06 -1.81587e-07 1.17152e-08)
(-3.23261e-06 -6.84671e-09 -1.29492e-09)
(-3.5597e-06 7.6946e-08 -2.28994e-07)
(-4.04449e-06 -4.66869e-08 -1.29202e-07)
(-3.78532e-06 -1.21335e-07 4.9484e-08)
(-2.47842e-06 -3.62986e-08 2.14448e-07)
(-2.79055e-06 3.32635e-08 -3.34357e-07)
(-2.61947e-06 -2.39118e-07 -7.37533e-08)
(-2.62532e-06 -3.98893e-07 -3.65995e-07)
(-1.93716e-06 -4.05373e-07 -1.23221e-07)
(-1.29818e-06 -1.17404e-08 -2.90847e-07)
(-6.80393e-07 -2.63671e-08 4.37058e-09)
(-1.02872e-06 -3.06641e-07 2.39488e-08)
(-5.87546e-07 -2.81231e-07 -4.89942e-08)
(-1.50731e-05 -1.40757e-06 3.05329e-06)
(-1.7036e-05 -2.35561e-06 2.70582e-06)
(-1.01253e-05 -1.44147e-07 1.53555e-06)
(-5.00481e-06 8.04651e-08 1.36678e-07)
(-1.32631e-05 -1.10695e-06 2.76592e-06)
(-1.42348e-05 -6.0877e-07 2.49136e-06)
(-1.02667e-05 -1.54716e-06 1.65366e-06)
(-4.76055e-06 -8.76118e-07 7.92459e-07)
(-9.05967e-06 -4.28025e-07 2.15674e-06)
(-1.02444e-05 -8.35995e-07 2.20432e-06)
(-8.07211e-06 -4.20564e-08 1.23581e-06)
(-5.25298e-06 -2.13394e-07 7.04678e-08)
(-7.67187e-06 -1.12811e-06 2.27414e-06)
(-7.46215e-06 -6.69543e-07 2.08118e-06)
(-7.25272e-06 -5.52264e-07 6.97166e-07)
(-5.33896e-06 9.61112e-08 1.23783e-07)
(-7.08724e-06 -3.85547e-07 2.1539e-06)
(-6.14545e-06 1.26284e-06 9.81743e-07)
(-5.95516e-06 -1.48874e-07 2.87856e-07)
(-4.78388e-06 -3.72419e-07 -3.67635e-07)
(-8.05381e-06 -7.46107e-07 4.75462e-07)
(-4.63065e-06 -7.8672e-07 -7.36714e-08)
(-4.68862e-06 3.6794e-07 -2.60035e-07)
(-3.23261e-06 -6.84671e-09 -1.29492e-09)
(-5.41632e-06 -2.35879e-07 7.86612e-07)
(-3.85661e-06 -3.02891e-08 6.56579e-08)
(-3.56522e-06 -1.31041e-08 9.34109e-08)
(-2.47842e-06 -3.62986e-08 2.14448e-07)
(-2.6921e-06 -4.33663e-07 2.84936e-08)
(-3.02042e-06 -3.23359e-07 -1.26375e-07)
(-2.0605e-06 -2.45956e-07 -2.57044e-07)
(-1.93716e-06 -4.05373e-07 -1.23221e-07)
(-1.26824e-06 -4.0756e-07 -1.3111e-07)
(-1.68447e-06 -6.12358e-07 -1.09243e-07)
(-8.71014e-07 -1.83182e-07 -1.83121e-07)
(-5.87546e-07 -2.81231e-07 -4.89942e-08)
)
;
    }
    procBoundary7to0
    {
        type            processor;
        value           uniform (-2.39673e-05 -3.02779e-07 1.45609e-06);
    }
    procBoundary7to1
    {
        type            processor;
        value           uniform (-1.80702e-05 -1.66876e-06 2.42526e-06);
    }
    procBoundary7to3
    {
        type            processor;
        value           nonuniform List<vector> 
36
(
(-1.84726e-05 -2.34916e-06 2.33306e-06)
(-1.45735e-05 -1.85813e-06 2.23935e-06)
(-1.21723e-05 -1.42028e-06 1.20243e-06)
(-1.0858e-05 -4.90097e-07 5.6123e-07)
(-9.8025e-06 -7.17549e-07 3.40496e-07)
(-8.43305e-06 -7.36428e-07 5.67262e-07)
(-6.18256e-06 -7.28774e-07 1.37869e-06)
(-3.42951e-06 1.60834e-07 9.92581e-07)
(-2.08973e-06 8.67884e-08 1.32258e-06)
(-2.07012e-05 -1.31809e-06 3.21306e-06)
(-1.50531e-05 -8.11817e-07 2.45108e-06)
(-1.18787e-05 -4.20135e-07 2.12773e-06)
(-1.06899e-05 -4.00222e-07 1.0412e-06)
(-9.35895e-06 -5.41402e-07 8.69996e-07)
(-8.10827e-06 -1.2314e-06 5.81131e-07)
(-6.24432e-06 -7.1102e-07 7.27045e-07)
(-4.2633e-06 1.03863e-07 5.56887e-07)
(-1.3979e-06 -1.71463e-07 3.31225e-07)
(-1.7545e-05 -5.35783e-07 4.56176e-06)
(-1.52617e-05 -9.1594e-07 3.37766e-06)
(-1.19036e-05 -2.84091e-07 1.86529e-06)
(-1.01566e-05 1.13615e-07 1.79491e-06)
(-9.29515e-06 -8.35593e-07 1.22467e-06)
(-8.3848e-06 -1.07436e-06 8.00082e-07)
(-7.55631e-06 -1.06848e-06 9.94257e-07)
(-4.18494e-06 2.48899e-07 4.221e-07)
(-1.09262e-06 -6.26824e-08 5.41715e-07)
(-1.47299e-05 -9.76724e-07 2.66704e-06)
(-1.31391e-05 -2.62591e-07 3.21418e-06)
(-1.13972e-05 3.77917e-07 2.71096e-06)
(-7.62258e-06 -3.53233e-07 1.7137e-06)
(-9.1891e-06 -1.81525e-06 1.84403e-06)
(-8.45404e-06 -2.84471e-07 7.33956e-07)
(-6.08178e-06 -2.16831e-07 3.98815e-07)
(-3.76333e-06 -6.14563e-07 2.89903e-07)
(-7.76435e-07 -1.99872e-07 -1.58915e-07)
)
;
    }
    procBoundary7to5
    {
        type            processor;
        value           nonuniform List<vector> 
44
(
(-1.39419e-05 -1.59889e-06 2.31483e-06)
(-1.19499e-05 -8.1878e-07 1.31616e-06)
(-1.00981e-05 -5.07776e-07 7.65554e-07)
(-9.083e-06 -2.89545e-07 6.23419e-07)
(-7.71681e-06 1.82557e-07 6.08236e-07)
(-5.59371e-06 -3.09557e-07 4.21995e-07)
(-3.83893e-06 -1.37388e-09 4.80016e-07)
(-1.51793e-06 -5.30311e-08 1.41108e-07)
(-1.60053e-05 -1.13768e-06 2.51917e-06)
(-1.26211e-05 -1.49711e-06 2.0206e-06)
(-1.12362e-05 -9.98182e-07 1.42643e-06)
(-9.40496e-06 -5.01774e-07 1.01015e-06)
(-8.13714e-06 -3.9195e-07 6.52905e-07)
(-6.80176e-06 -2.70865e-07 2.75108e-07)
(-5.19313e-06 1.14487e-07 2.16401e-07)
(-3.12111e-06 7.51177e-08 1.3638e-07)
(-8.21167e-07 1.27517e-07 1.55876e-07)
(-1.60053e-05 -1.13768e-06 2.51917e-06)
(-1.26211e-05 -1.49711e-06 2.0206e-06)
(-1.26211e-05 -1.49711e-06 2.0206e-06)
(-1.10121e-05 -1.35243e-06 4.39271e-07)
(-8.12753e-06 -6.79402e-07 3.48035e-07)
(-7.08507e-06 -6.88929e-07 6.22012e-07)
(-5.76208e-06 -5.51045e-07 2.37501e-08)
(-4.44005e-06 9.53801e-08 9.08595e-08)
(-2.65943e-06 4.09088e-07 -1.59159e-07)
(-1.48593e-06 2.78731e-07 -1.0693e-07)
(-1.40277e-05 -1.14199e-06 -8.03682e-07)
(-1.24706e-05 -1.17503e-06 6.64403e-07)
(-1.10121e-05 -1.35243e-06 4.39271e-07)
(-8.12753e-06 -6.79402e-07 3.48035e-07)
(-8.12753e-06 -6.79402e-07 3.48035e-07)
(-5.38277e-06 -8.3018e-07 2.26341e-07)
(-4.5134e-06 -4.018e-07 7.32968e-09)
(-3.24938e-06 2.26594e-07 -2.46095e-07)
(-2.11201e-06 1.22446e-07 -1.71233e-07)
(-1.01713e-06 2.7264e-07 -1.77742e-07)
(-1.04282e-05 -8.81947e-07 1.47205e-06)
(-8.39815e-06 -1.65801e-06 -3.58866e-07)
(-9.36299e-06 -1.32631e-06 -1.93878e-07)
(-5.94755e-06 -1.2721e-06 -3.6034e-07)
(-5.38277e-06 -8.3018e-07 2.26341e-07)
(-4.5134e-06 -4.018e-07 7.32968e-09)
(-4.5134e-06 -4.018e-07 7.32968e-09)
)
;
    }
    procBoundary7to6
    {
        type            processor;
        value           nonuniform List<vector> 
12
(
(-2.32529e-05 -1.23421e-06 1.79634e-06)
(-2.10563e-05 -1.1917e-06 3.00592e-06)
(-1.13002e-05 -3.02988e-07 2.33466e-06)
(-1.96541e-05 -1.39201e-06 2.47187e-06)
(-1.89412e-05 -4.29733e-07 2.25185e-06)
(-1.27499e-05 1.55707e-07 5.84031e-07)
(-1.63652e-05 -1.04678e-06 1.52523e-06)
(-1.66763e-05 -1.0756e-06 2.27621e-06)
(-1.17352e-05 -3.17451e-07 2.57389e-06)
(-1.21788e-05 -2.14921e-06 -1.83393e-06)
(-1.03804e-05 -2.41873e-06 1.15686e-06)
(-7.6676e-06 -1.50925e-06 2.12463e-06)
)
;
    }
}


// ************************************************************************* //
