/*--------------------------------*- C++ -*----------------------------------*\
| =========                 |                                                 |
| \\      /  F ield         | OpenFOAM: The Open Source CFD Toolbox           |
|  \\    /   O peration     | Version:  4.x                                   |
|   \\  /    A nd           | Web:      www.OpenFOAM.org                      |
|    \\/     M anipulation  |                                                 |
\*---------------------------------------------------------------------------*/
FoamFile
{
    version     2.0;
    format      ascii;
    class       volScalarField;
    location    "26.5";
    object      p_rgh;
}
// * * * * * * * * * * * * * * * * * * * * * * * * * * * * * * * * * * * * * //

dimensions      [1 -1 -2 0 0 0 0];

internalField   nonuniform List<scalar> 
132
(
108.857
92.6729
103.467
72.0544
93.4777
55.3151
87.274
36.9704
80.7147
108.943
92.2808
102.262
73.5507
94.2323
55.4032
87.4083
36.8216
80.5938
109.029
92.2012
102.153
74.1465
94.8306
55.7527
87.8248
37.3524
81.0985
109.039
92.069
102.203
109.279
92.5261
102.517
73.7218
94.4846
55.5673
87.7687
37.1175
81.1113
109.55
92.4537
102.587
74.0972
94.9736
55.6135
87.9591
36.9054
81.1568
109.753
92.4665
102.774
74.4188
95.5432
55.951
88.5956
37.2179
82.0757
109.828
92.3481
102.858
74.5001
95.6209
109.96
92.6983
102.868
74.5194
95.3003
56.0746
88.0474
37.3777
81.0125
110.404
92.865
103.311
74.7168
95.8066
56.1401
88.4812
37.2609
81.2886
110.813
93.1626
103.766
75.3334
96.1795
56.9839
88.507
38.4221
81.3318
111.041
93.3146
103.99
75.5632
96.4161
57.5092
88.6171
110.042
92.7768
102.938
74.8371
95.6204
56.5595
88.4084
38.2194
81.6745
110.641
93.0525
103.443
74.9613
95.9929
56.7014
88.7146
38.2302
81.7935
110.946
93.3154
103.801
75.3243
96.3264
57.2067
88.9087
39.3531
82.0595
111.195
93.4524
104.048
75.3022
96.3781
57.0988
88.7188
38.8361
81.6207
)
;

boundaryField
{
    inlet
    {
        type            fixedFluxPressure;
        gradient        nonuniform List<scalar> 
16
(
-0.0526826
-0.0470468
-0.041735
-0.0396251
-0.0281794
-0.0275121
-0.0261428
-0.0249314
-0.0118633
-0.0119027
-0.0115348
-0.011132
-3.88779e-06
-9.90195e-06
-2.57951e-05
-1.39673e-05
)
;
        value           nonuniform List<scalar> 
16
(
108.856
108.942
109.029
109.038
109.279
109.55
109.753
109.828
109.96
110.404
110.813
111.041
110.042
110.641
110.946
111.195
)
;
    }
    outlet
    {
        type            fixedValue;
        value           nonuniform 0();
    }
    wall
    {
        type            fixedFluxPressure;
        gradient        nonuniform List<scalar> 
66
(
2.91694e-05
4.06866e-05
1.94145e-05
5.79209e-05
0.000139053
0.000186054
0.00023884
0.000268191
9.75818e-05
0.000114933
0.000138885
0.000142872
0.000181778
0.000333492
0.000475752
0.00015591
0.000264638
0.000317398
0.000467912
0.000863956
0.00115215
0.000502247
0.000694919
0.000640967
0.000761601
0.00113563
0.000867459
0.000396715
0.000449876
0.000357159
-4.49874e-06
-7.89821e-07
-5.71954e-06
-1.47463e-05
2.03205e-05
-2.04042e-06
1.34766e-06
3.4026e-06
2.97195e-05
-1.64753e-05
-3.11244e-05
-2.5325e-05
0.000113833
0.00011405
5.79728e-06
4.66005e-05
0.000189927
0.000139208
7.98965e-05
-3.63802e-06
0.000383195
0.000255754
0.000214519
4.99367e-05
0.000188439
0.000122928
0.000169552
0.000105877
0.000226082
0.000510375
0.000264023
0.000195309
9.47082e-05
2.20618e-05
-1.32852e-06
1.75077e-05
)
;
        value           nonuniform List<scalar> 
66
(
108.857
108.943
109.029
109.039
92.6729
92.2808
92.2012
92.069
103.467
102.262
102.153
102.203
72.0544
73.5507
74.1465
93.4777
94.2323
94.8306
55.3151
55.4032
55.7527
87.274
87.4083
87.8249
36.9704
36.8217
37.3524
80.7147
80.5938
81.0985
108.857
109.279
109.96
110.042
92.6729
92.5261
92.6983
92.7768
103.467
102.517
102.868
102.938
72.0544
73.7218
74.5194
74.8371
93.4777
94.4846
95.3003
95.6204
55.3151
55.5673
56.0746
56.5595
87.274
87.7687
88.0474
88.4084
36.9704
37.1176
37.3777
38.2194
80.7147
81.1113
81.0125
81.6745
)
;
    }
    procBoundary0to1
    {
        type            processor;
        value           nonuniform List<scalar> 
12
(
18.2406
17.7879
18.594
18.2477
17.7844
18.504
18.6699
18.2159
19.7912
19.7404
19.9188
22.0318
)
;
    }
    procBoundary0to2
    {
        type            processor;
        value           nonuniform List<scalar> 
44
(
74.2967
94.9621
55.8614
87.8
37.1459
80.954
108.875
91.9033
74.2967
102.111
74.2967
94.9621
55.9047
88.2769
36.8548
81.4759
109.666
92.3575
102.81
74.4823
55.9047
95.6569
55.9047
88.2769
39.4884
80.9249
110.662
92.9555
103.646
75.1631
96.1765
56.9868
39.4884
88.6072
39.4884
80.9249
111.069
93.2574
103.824
75.1984
96.3737
57.0099
89.0234
38.8442
)
;
    }
    procBoundary0to4
    {
        type            processor;
        value           nonuniform List<scalar> 
36
(
110.552
93.0923
103.43
75.1163
95.9984
56.7814
88.6099
38.1435
81.475
111.256
93.3963
104.073
75.3243
96.499
56.8257
88.9752
38.233
81.5654
111.656
93.725
104.379
75.7531
96.6691
57.5102
89.0263
39.3872
81.6038
111.823
93.9713
104.59
75.9825
96.8442
57.8224
89.0052
39.7778
81.6012
)
;
    }
    procBoundary0to6
    {
        type            processor;
        value           uniform 81.8405;
    }
    procBoundary0to7
    {
        type            processor;
        value           uniform 21.6631;
    }
}


// ************************************************************************* //
