/*--------------------------------*- C++ -*----------------------------------*\
| =========                 |                                                 |
| \\      /  F ield         | OpenFOAM: The Open Source CFD Toolbox           |
|  \\    /   O peration     | Version:  4.x                                   |
|   \\  /    A nd           | Web:      www.OpenFOAM.org                      |
|    \\/     M anipulation  |                                                 |
\*---------------------------------------------------------------------------*/
FoamFile
{
    version     2.0;
    format      ascii;
    class       volScalarField;
    location    "54.5";
    object      Deff;
}
// * * * * * * * * * * * * * * * * * * * * * * * * * * * * * * * * * * * * * //

dimensions      [0 2 -1 0 0 0 0];

internalField   nonuniform List<scalar> 
87
(
9.80679e-08
9.81366e-08
9.80929e-08
9.82759e-08
9.82774e-08
9.82517e-08
9.82356e-08
9.82467e-08
9.82479e-08
9.80542e-08
9.79247e-08
9.79968e-08
9.79251e-08
9.79485e-08
9.78667e-08
9.84932e-08
9.83035e-08
9.82481e-08
9.80497e-08
9.80209e-08
9.79693e-08
9.7963e-08
9.79204e-08
9.79153e-08
9.86746e-08
9.84323e-08
9.83871e-08
9.82087e-08
9.8063e-08
9.79697e-08
9.80685e-08
9.80682e-08
9.80044e-08
9.83094e-08
9.82268e-08
9.81286e-08
9.80008e-08
9.80137e-08
9.79386e-08
9.79074e-08
9.79324e-08
9.78452e-08
9.85111e-08
9.83255e-08
9.82203e-08
9.80873e-08
9.8055e-08
9.80355e-08
9.79514e-08
9.80089e-08
9.78924e-08
9.86677e-08
9.84421e-08
9.83503e-08
9.81273e-08
9.80535e-08
9.80538e-08
9.80652e-08
9.81069e-08
9.80628e-08
9.84967e-08
9.83953e-08
9.82264e-08
9.80511e-08
9.79763e-08
9.79172e-08
9.78328e-08
9.78602e-08
9.80314e-08
9.85753e-08
9.84619e-08
9.82678e-08
9.81587e-08
9.79663e-08
9.79977e-08
9.80195e-08
9.80511e-08
9.79365e-08
9.87498e-08
9.85116e-08
9.83555e-08
9.82049e-08
9.8154e-08
9.79935e-08
9.81747e-08
9.81866e-08
9.8079e-08
)
;

boundaryField
{
    inlet
    {
        type            calculated;
        value           uniform 0;
    }
    outlet
    {
        type            calculated;
        value           nonuniform 0();
    }
    wall
    {
        type            calculated;
        value           uniform 0;
    }
    procBoundary6to0
    {
        type            processor;
        value           uniform 0;
    }
    procBoundary6to2
    {
        type            processor;
        value           uniform 0;
    }
    procBoundary6to4
    {
        type            processor;
        value           uniform 0;
    }
    procBoundary6to7
    {
        type            processor;
        value           uniform 0;
    }
}


// ************************************************************************* //
