/*--------------------------------*- C++ -*----------------------------------*\
| =========                 |                                                 |
| \\      /  F ield         | OpenFOAM: The Open Source CFD Toolbox           |
|  \\    /   O peration     | Version:  4.x                                   |
|   \\  /    A nd           | Web:      www.OpenFOAM.org                      |
|    \\/     M anipulation  |                                                 |
\*---------------------------------------------------------------------------*/
FoamFile
{
    version     2.0;
    format      ascii;
    class       volScalarField;
    location    "54.5";
    object      KslPrev;
}
// * * * * * * * * * * * * * * * * * * * * * * * * * * * * * * * * * * * * * //

dimensions      [1 -3 -1 0 0 0 0];

internalField   nonuniform List<scalar> 
87
(
3635.54
12185
3351.12
3048.6
6392.87
2987.28
3211.53
13889.6
3831.88
116580
3855.86
54685.6
3844.53
29664.1
3863.12
3140.38
11417.6
3555.38
24401.4
3635.08
45521.1
3644.47
310105
3688.83
3035.76
8222.44
3233.13
8904.32
3287.49
9021.73
3271.35
9518.93
3335.47
3173.41
11189.9
3579.58
22002.9
3601.95
32556.4
3593.81
70854.7
3621.38
3106.69
9245.09
3400.79
11571.5
3432.12
11935.8
3425.86
12915.1
3390.49
3031.95
7462.06
3125.96
7268.63
3110.87
6675.92
3057.17
6289.8
3016.97
3093.65
8123.38
3298.32
8904.12
3273.39
8446.36
3249.31
8429.32
3208.12
3040.13
7493.34
3168.64
7430.95
3137.98
6842.46
3095.21
6537.11
3043.25
2991.96
6835.02
3021.06
6170.81
2921.11
5462.38
2868.95
5088.35
2843.24
)
;

boundaryField
{
    inlet
    {
        type            zeroGradient;
    }
    outlet
    {
        type            zeroGradient;
    }
    wall
    {
        type            zeroGradient;
    }
    procBoundary6to0
    {
        type            processor;
        value           uniform 0;
    }
    procBoundary6to2
    {
        type            processor;
        value           uniform 0;
    }
    procBoundary6to4
    {
        type            processor;
        value           uniform 0;
    }
    procBoundary6to7
    {
        type            processor;
        value           uniform 0;
    }
}


// ************************************************************************* //
