/*--------------------------------*- C++ -*----------------------------------*\
| =========                 |                                                 |
| \\      /  F ield         | OpenFOAM: The Open Source CFD Toolbox           |
|  \\    /   O peration     | Version:  4.x                                   |
|   \\  /    A nd           | Web:      www.OpenFOAM.org                      |
|    \\/     M anipulation  |                                                 |
\*---------------------------------------------------------------------------*/
FoamFile
{
    version     2.0;
    format      ascii;
    class       volScalarField;
    location    "54.5";
    object      SPartFluid;
}
// * * * * * * * * * * * * * * * * * * * * * * * * * * * * * * * * * * * * * //

dimensions      [1 -3 -1 0 0 0 0];

internalField   nonuniform List<scalar> 
87
(
6.74248e-65
6.04496e-65
7.13e-65
5.11496e-65
5.81249e-65
4.96003e-65
1.03851e-64
7.5951e-65
4.96005e-65
7.43978e-65
9.37708e-65
6.12238e-65
7.36235e-65
6.50994e-65
8.52495e-65
5.81253e-65
7.90504e-65
6.43251e-65
8.83481e-65
7.05235e-65
7.82735e-65
7.0524e-65
8.60242e-65
7.595e-65
4.96001e-65
7.20752e-65
5.425e-65
6.12246e-65
7.59487e-65
8.75733e-65
6.50993e-65
6.66499e-65
7.51751e-65
7.67252e-65
7.67254e-65
7.75e-65
7.67236e-65
5.34742e-65
7.05238e-65
6.27741e-65
5.88997e-65
7.90498e-65
5.65752e-65
7.28502e-65
6.81999e-65
6.89742e-65
5.96742e-65
5.57995e-65
7.74991e-65
5.73498e-65
7.75001e-65
5.19251e-65
6.74251e-65
5.57999e-65
7.59493e-65
7.28491e-65
5.96745e-65
6.66495e-65
5.96749e-65
5.65753e-65
5.03751e-65
5.27002e-65
6.12248e-65
6.89743e-65
6.5099e-65
6.43242e-65
8.67985e-65
8.75743e-65
3.79751e-65
6.045e-65
5.50251e-65
6.81998e-65
5.65746e-65
8.60236e-65
6.35494e-65
6.19996e-65
5.58e-65
7.82752e-65
4.4175e-65
6.2775e-65
6.12248e-65
6.43246e-65
4.95996e-65
8.2149e-65
4.80497e-65
5.19251e-65
6.04502e-65
)
;

boundaryField
{
    inlet
    {
        type            calculated;
        value           uniform 0;
    }
    outlet
    {
        type            calculated;
        value           nonuniform 0();
    }
    wall
    {
        type            calculated;
        value           uniform 0;
    }
    procBoundary6to0
    {
        type            processor;
        value           uniform 2.32502e-65;
    }
    procBoundary6to2
    {
        type            processor;
        value           nonuniform List<scalar> 
32
(
4.8825e-65
7.43991e-65
8.37002e-65
8.29233e-65
4.95999e-65
6.66505e-65
4.80505e-65
8.13774e-65
8.37039e-65
6.50968e-65
6.81967e-65
5.88984e-65
6.27734e-65
7.74985e-65
7.74985e-65
7.74985e-65
6.89752e-65
6.89755e-65
8.37006e-65
5.81236e-65
7.20728e-65
6.89735e-65
8.3698e-65
8.3698e-65
8.3698e-65
5.27001e-65
6.51001e-65
6.27748e-65
7.12991e-65
5.50241e-65
6.35491e-65
6.35491e-65
)
;
    }
    procBoundary6to4
    {
        type            processor;
        value           nonuniform List<scalar> 
27
(
4.34005e-65
5.73514e-65
7.59537e-65
5.19223e-65
7.3621e-65
6.35478e-65
9.2221e-65
5.96741e-65
5.96747e-65
6.66502e-65
7.20757e-65
5.96754e-65
8.52473e-65
8.44718e-65
6.74232e-65
9.60969e-65
7.90488e-65
6.81998e-65
7.43997e-65
7.0525e-65
5.81247e-65
7.67236e-65
6.97483e-65
9.22225e-65
4.49495e-65
4.88249e-65
6.35501e-65
)
;
    }
    procBoundary6to7
    {
        type            processor;
        value           nonuniform List<scalar> 
12
(
7.67261e-65
4.80508e-65
6.51011e-65
3.95256e-65
5.50258e-65
6.7426e-65
8.0601e-65
7.05258e-65
5.58007e-65
6.8976e-65
5.96758e-65
6.04508e-65
)
;
    }
}


// ************************************************************************* //
