/*--------------------------------*- C++ -*----------------------------------*\
| =========                 |                                                 |
| \\      /  F ield         | OpenFOAM: The Open Source CFD Toolbox           |
|  \\    /   O peration     | Version:  4.x                                   |
|   \\  /    A nd           | Web:      www.OpenFOAM.org                      |
|    \\/     M anipulation  |                                                 |
\*---------------------------------------------------------------------------*/
FoamFile
{
    version     2.0;
    format      ascii;
    class       volScalarField;
    location    "57";
    object      alpha.iron;
}
// * * * * * * * * * * * * * * * * * * * * * * * * * * * * * * * * * * * * * //

dimensions      [0 0 0 0 0 0 0];

internalField   nonuniform List<scalar> 
114
(
1
1
1
1
1
0.999999
1
1
1
1
1
1
0.999995
1
1
1
1
1
0.999999
0.999999
0.999973
1
1
1
1
1
1
1
1
0.999967
1
1
1
1
1
1
1
1
0.999992
1
1
1
1
1
1
0.999999
0.999999
0.99999
1
1
1
1
1
1
1
1
1
1
0.999947
1
1
1
1
1
1
1
1
0.999973
1
1
1
1
1
1
1
1
0.99999
1
1
1
1
1
1
1
1
1
1
1
1
0.998987
1
1
1
1
1
1
1
1
0.999502
1
1
1
1
1
1
1
1
0.999292
1
1
1
1
1
1
)
;

boundaryField
{
    inlet
    {
        type            fixedValue;
        value           nonuniform 0();
    }
    outlet
    {
        type            fixedValue;
        value           uniform 1;
    }
    wall
    {
        type            zeroGradient;
    }
    procBoundary5to1
    {
        type            processor;
        value           nonuniform List<scalar> 
32
(
1
1
1
1
1
0.999966
1
1
1
1
1
1
0.999979
1
1
1
1
1
1
1
0.999988
1
1
1
1
1
1
1
1
1
1
1
)
;
    }
    procBoundary5to4
    {
        type            processor;
        value           nonuniform List<scalar> 
12
(
1
1
1
1
1
1
1
1
1
1
1
1
)
;
    }
    procBoundary5to7
    {
        type            processor;
        value           nonuniform List<scalar> 
44
(
1
1
1
1
1
0.999999
0.999999
0.999993
1
1
1
1
1
1
1
0.999999
0.999981
1
1
1
1
1
1
1
1
1
0.999987
1
1
1
1
1
1
1
1
1
0.999491
1
1
1
1
1
1
1
)
;
    }
}


// ************************************************************************* //
