/*--------------------------------*- C++ -*----------------------------------*\
| =========                 |                                                 |
| \\      /  F ield         | OpenFOAM: The Open Source CFD Toolbox           |
|  \\    /   O peration     | Version:  4.x                                   |
|   \\  /    A nd           | Web:      www.OpenFOAM.org                      |
|    \\/     M anipulation  |                                                 |
\*---------------------------------------------------------------------------*/
FoamFile
{
    version     2.0;
    format      ascii;
    class       volScalarField;
    location    "57";
    object      KslNext;
}
// * * * * * * * * * * * * * * * * * * * * * * * * * * * * * * * * * * * * * //

dimensions      [1 -3 -1 0 0 0 0];

internalField   nonuniform List<scalar> 
114
(
3624.98
39760.3
4120.48
1e+10
5598.37
54355
260230
3702.63
190388
3770.55
67629.8
4139.12
12623.7
4182.39
1e+10
4227.43
1e+10
4299.53
1e+10
4771.66
14438.2
7202.62
3080.51
7416.51
2945.85
7986.06
2770.66
9154.85
2427.07
7893.24
29290.8
3544.76
55935.2
3480.22
65550.2
3427.63
23795
3456.26
6353.44
1e+10
3745.05
1e+10
3705.94
195582
3599.48
36256.7
3672.39
13243
1e+10
3836.02
7706.4
3211.49
8149.46
3116.09
8749.03
3012.8
10778.1
2886.45
14008.9
14926.2
3468.45
17726.8
3334.13
21100.1
3201.75
20809.5
2983.99
10394.6
107419
3692.66
1e+10
3732.05
1e+10
3895.41
50819
4193.25
8116.04
48768
3588.26
72670.9
3480.01
4855.59
2740.96
4626.66
2550.76
4572.35
2280.66
4856.04
1821.76
5419.4
6088.94
2977.13
5959.22
2794.65
6098.23
2584.18
7031.56
2314.11
9627.18
7341.61
3148.55
7526.29
3013.65
7615.62
2804.02
7885.37
2373.73
8357.82
7218.41
3095.71
7422.19
2975.49
7912.8
2765.23
)
;

boundaryField
{
    inlet
    {
        type            zeroGradient;
    }
    outlet
    {
        type            zeroGradient;
    }
    wall
    {
        type            zeroGradient;
    }
    procBoundary5to1
    {
        type            processor;
        value           uniform 0;
    }
    procBoundary5to4
    {
        type            processor;
        value           uniform 0;
    }
    procBoundary5to7
    {
        type            processor;
        value           uniform 0;
    }
}


// ************************************************************************* //
