/*--------------------------------*- C++ -*----------------------------------*\
| =========                 |                                                 |
| \\      /  F ield         | OpenFOAM: The Open Source CFD Toolbox           |
|  \\    /   O peration     | Version:  4.x                                   |
|   \\  /    A nd           | Web:      www.OpenFOAM.org                      |
|    \\/     M anipulation  |                                                 |
\*---------------------------------------------------------------------------*/
FoamFile
{
    version     2.0;
    format      ascii;
    class       volScalarField;
    location    "57";
    object      KslPrev;
}
// * * * * * * * * * * * * * * * * * * * * * * * * * * * * * * * * * * * * * //

dimensions      [1 -3 -1 0 0 0 0];

internalField   nonuniform List<scalar> 
114
(
3624.98
39760.3
4120.47
1e+10
5598.39
54354.5
260234
3702.64
190385
3770.55
67626.8
4139.13
12623.6
4182.39
1e+10
4227.43
1e+10
4299.53
1e+10
4771.66
14438.3
7202.63
3080.51
7416.51
2945.85
7986.06
2770.65
9154.88
2427.07
7893.23
29291.2
3544.76
55936.4
3480.21
65552.1
3427.62
23795.4
3456.26
6353.46
1e+10
3745.05
1e+10
3705.94
195574
3599.48
36256.8
3672.38
13243
1e+10
3836.02
7706.4
3211.49
8149.46
3116.09
8749.03
3012.8
10778.2
2886.45
14008.9
14926.2
3468.45
17726.8
3334.12
21100.2
3201.75
20809.8
2983.99
10394.7
107421
3692.66
1e+10
3732.04
1e+10
3895.41
50819.2
4193.24
8115.98
48769.1
3588.26
72672.7
3480
4855.59
2740.96
4626.66
2550.76
4572.34
2280.66
4856.04
1821.76
5419.39
6088.94
2977.13
5959.22
2794.65
6098.23
2584.18
7031.56
2314.11
9627.19
7341.6
3148.54
7526.27
3013.64
7615.61
2804.01
7885.36
2373.72
8357.76
7218.41
3095.71
7422.19
2975.49
7912.82
2765.23
)
;

boundaryField
{
    inlet
    {
        type            zeroGradient;
    }
    outlet
    {
        type            zeroGradient;
    }
    wall
    {
        type            zeroGradient;
    }
    procBoundary5to1
    {
        type            processor;
        value           uniform 0;
    }
    procBoundary5to4
    {
        type            processor;
        value           uniform 0;
    }
    procBoundary5to7
    {
        type            processor;
        value           uniform 0;
    }
}


// ************************************************************************* //
