/*--------------------------------*- C++ -*----------------------------------*\
| =========                 |                                                 |
| \\      /  F ield         | OpenFOAM: The Open Source CFD Toolbox           |
|  \\    /   O peration     | Version:  4.x                                   |
|   \\  /    A nd           | Web:      www.OpenFOAM.org                      |
|    \\/     M anipulation  |                                                 |
\*---------------------------------------------------------------------------*/
FoamFile
{
    version     2.0;
    format      ascii;
    class       volVectorField;
    location    "57";
    object      UsNext;
}
// * * * * * * * * * * * * * * * * * * * * * * * * * * * * * * * * * * * * * //

dimensions      [0 1 -1 0 0 0 0];

internalField   nonuniform List<vector> 
114
(
(-4.97794e-09 -6.54329e-10 8.29013e-10)
(-3.25554e-09 9.27804e-11 4.00729e-10)
(-2.38011e-09 3.40867e-11 8.84749e-11)
(-7.85871e-10 1.35572e-10 -7.04108e-11)
(-3.53126e-10 1.71676e-10 -2.62543e-10)
(9.3226e-09 -1.5284e-10 -9.7872e-10)
(-2.09743e-09 -3.85405e-09 4.30107e-09)
(-5.22807e-09 -1.67244e-09 2.29868e-09)
(-4.42668e-09 -1.11144e-09 9.93683e-10)
(-2.69523e-09 -3.42727e-10 1.27906e-10)
(-1.74032e-09 -7.26726e-11 -1.35857e-10)
(-7.15185e-10 4.18414e-10 -3.67827e-10)
(-2.13373e-10 2.4393e-10 -2.50927e-10)
(9.29995e-10 -1.68721e-09 3.07804e-09)
(-2.17262e-09 -3.34269e-09 5.01828e-09)
(-4.73883e-09 -2.53683e-09 3.26686e-09)
(-4.55237e-09 -1.3488e-09 1.28955e-09)
(-3.45639e-09 -8.01491e-10 9.17142e-11)
(-2.20504e-09 -4.15909e-10 -3.29109e-10)
(-9.75347e-10 2.06621e-10 -4.0605e-10)
(-1.4975e-10 5.28021e-10 -3.50855e-11)
(1.98153e-09 -1.71056e-10 5.6909e-10)
(3.34473e-09 -6.29361e-10 1.18709e-09)
(-9.62024e-10 -2.65455e-09 2.10911e-09)
(-2.80972e-09 -1.36085e-09 9.13867e-10)
(-2.32063e-09 -4.94748e-10 6.44351e-11)
(-1.02793e-09 -1.37945e-10 5.07367e-11)
(-6.37011e-10 3.0592e-11 -3.31086e-10)
(8.34816e-11 9.14197e-11 -3.74443e-10)
(-6.64303e-11 2.98551e-10 -1.63223e-09)
(8.65358e-09 3.71582e-09 3.81654e-10)
(2.01717e-08 1.0712e-08 8.70205e-10)
(1.17078e-09 -4.15034e-09 3.86927e-09)
(-4.38714e-09 -3.04708e-09 2.86555e-09)
(-3.70078e-09 -1.59583e-09 1.07356e-09)
(-2.11696e-09 -5.9615e-10 5.99773e-11)
(-1.32983e-09 2.9359e-11 -4.32492e-10)
(-2.38373e-10 4.46275e-10 -4.27673e-10)
(6.84072e-10 3.06252e-10 -7.32935e-10)
(2.16811e-09 -8.86167e-10 1.24939e-09)
(2.61674e-09 -3.55397e-09 4.29568e-09)
(-4.1234e-10 -3.95261e-09 5.5346e-09)
(-4.15812e-09 -3.09977e-09 3.23899e-09)
(-3.74758e-09 -1.42694e-09 1.05398e-09)
(-2.97346e-09 -7.89395e-10 3.38709e-11)
(-1.93348e-09 -1.13496e-10 -2.10749e-10)
(-9.53234e-10 3.9116e-10 -2.37088e-10)
(-1.55954e-10 4.79576e-10 1.10384e-10)
(1.75093e-09 -9.20979e-10 1.45815e-09)
(1.67024e-09 -2.59259e-09 3.1956e-09)
(2.36223e-09 -7.18102e-10 5.22404e-10)
(3.36791e-09 -1.11476e-09 1.48914e-09)
(6.26643e-10 -2.62605e-09 1.81547e-09)
(-4.98242e-09 -5.41368e-09 5.14395e-09)
(-2.27614e-09 -4.88366e-10 6.97995e-10)
(-1.43678e-09 1.13893e-10 2.04813e-10)
(-7.71304e-10 5.96899e-11 -4.52356e-10)
(-7.24278e-10 5.00873e-10 -7.93435e-10)
(1.87936e-09 2.84064e-10 -3.8401e-09)
(3.78257e-09 -1.28282e-09 7.12326e-10)
(5.07554e-09 -1.91135e-09 2.45941e-09)
(1.04907e-09 -4.84172e-09 3.65498e-09)
(-3.72841e-08 -1.62022e-08 3.83016e-09)
(-2.32273e-09 -8.90728e-10 1.16889e-09)
(-1.56592e-09 -6.40726e-10 2.30206e-12)
(-1.11685e-09 3.61867e-10 -5.98016e-10)
(-4.58243e-10 1.13918e-09 -7.1264e-10)
(3.17298e-10 1.71379e-09 -9.11079e-10)
(2.75054e-09 -1.29207e-09 8.29267e-10)
(4.10486e-09 -2.60224e-09 3.22075e-09)
(6.36786e-10 -5.50913e-09 5.71214e-09)
(-4.9221e-09 -3.7752e-09 2.83917e-09)
(-3.73846e-09 -1.75684e-09 6.2598e-10)
(-2.90666e-09 -5.09571e-10 3.50497e-11)
(-1.85159e-09 -1.48286e-12 -2.43354e-10)
(-9.27659e-10 6.48121e-10 -2.10396e-10)
(-4.28201e-10 1.02077e-09 8.65788e-11)
(2.45581e-09 -6.71898e-10 5.97109e-10)
(3.49847e-09 -2.15345e-09 2.52284e-09)
(-7.31523e-10 -3.65304e-09 5.14079e-09)
(-5.87558e-09 -2.20573e-09 1.53795e-09)
(2.27389e-09 1.55622e-10 6.44875e-11)
(2.94497e-09 -3.76073e-10 1.11347e-09)
(-1.3318e-09 3.81226e-10 2.6012e-09)
(-5.92503e-09 -2.82997e-09 3.80066e-09)
(-4.38807e-09 7.80455e-10 -4.56285e-10)
(-1.57578e-09 -4.05716e-11 7.46087e-11)
(-1.10821e-09 2.84402e-10 -2.02287e-10)
(-9.48206e-10 1.46165e-09 -1.42608e-09)
(1.00814e-09 3.85806e-09 -3.88385e-09)
(3.21341e-09 -3.58512e-10 -1.98456e-10)
(3.97846e-09 -7.33144e-10 1.58347e-09)
(-8.07599e-09 -8.77895e-10 5.60404e-09)
(-7.65421e-08 -2.51814e-08 4.36364e-09)
(-6.45659e-09 1.27336e-09 7.6638e-10)
(-1.00252e-09 -2.48888e-10 -2.15637e-10)
(-1.04555e-09 1.76129e-10 -3.38145e-10)
(-3.97938e-10 2.52477e-09 -4.31906e-10)
(8.94227e-10 6.01024e-09 -2.77266e-10)
(1.06853e-09 -3.38869e-10 -3.67711e-11)
(3.6839e-09 -9.16761e-10 1.56762e-09)
(6.69331e-10 -4.09541e-09 3.80104e-09)
(-1.7356e-08 -2.68913e-09 1.20246e-09)
(-4.24984e-09 -8.57122e-10 -1.06521e-10)
(-2.15959e-09 -2.08793e-10 -3.90069e-11)
(-1.24939e-09 1.14301e-11 -1.70276e-10)
(-7.51001e-10 5.43992e-10 2.863e-11)
(-4.12283e-10 1.29528e-09 2.6889e-10)
(1.34532e-09 -4.07513e-10 1.62934e-10)
(3.74287e-09 -9.89808e-10 1.44911e-09)
(-8.9104e-11 -5.69676e-09 2.80668e-09)
(-3.72449e-09 -1.6902e-09 1.64847e-09)
(-3.71289e-09 -1.02832e-09 5.2737e-11)
(-2.00878e-09 -5.07841e-10 -3.04101e-10)
)
;

boundaryField
{
    inlet
    {
        type            calculated;
        value           nonuniform 0();
    }
    outlet
    {
        type            calculated;
        value           nonuniform List<vector> 
12
(
(9.3226e-09 -1.5284e-10 -9.7872e-10)
(-2.13373e-10 2.4393e-10 -2.50927e-10)
(-1.4975e-10 5.28021e-10 -3.50855e-11)
(-6.64303e-11 2.98551e-10 -1.63223e-09)
(6.84072e-10 3.06252e-10 -7.32935e-10)
(-1.55954e-10 4.79576e-10 1.10384e-10)
(1.87936e-09 2.84064e-10 -3.8401e-09)
(3.17298e-10 1.71379e-09 -9.11079e-10)
(-4.28201e-10 1.02077e-09 8.65788e-11)
(1.00814e-09 3.85806e-09 -3.88385e-09)
(8.94227e-10 6.01024e-09 -2.77266e-10)
(-4.12283e-10 1.29528e-09 2.6889e-10)
)
;
    }
    wall
    {
        type            calculated;
        value           nonuniform List<vector> 
66
(
(2.27389e-09 1.55622e-10 6.44875e-11)
(3.21341e-09 -3.58512e-10 -1.98456e-10)
(1.06853e-09 -3.38869e-10 -3.67711e-11)
(1.34532e-09 -4.07513e-10 1.62934e-10)
(2.94497e-09 -3.76073e-10 1.11347e-09)
(3.97846e-09 -7.33144e-10 1.58347e-09)
(3.6839e-09 -9.16761e-10 1.56762e-09)
(3.74287e-09 -9.89808e-10 1.44911e-09)
(-1.3318e-09 3.81226e-10 2.6012e-09)
(-8.07599e-09 -8.77895e-10 5.60404e-09)
(6.69331e-10 -4.09541e-09 3.80104e-09)
(-8.9104e-11 -5.69676e-09 2.80668e-09)
(-5.92503e-09 -2.82997e-09 3.80066e-09)
(-7.65421e-08 -2.51814e-08 4.36364e-09)
(-1.7356e-08 -2.68913e-09 1.20246e-09)
(-3.72449e-09 -1.6902e-09 1.64847e-09)
(-4.38807e-09 7.80455e-10 -4.56285e-10)
(-6.45659e-09 1.27336e-09 7.6638e-10)
(-4.24984e-09 -8.57122e-10 -1.06521e-10)
(-3.71289e-09 -1.02832e-09 5.2737e-11)
(-1.57578e-09 -4.05716e-11 7.46087e-11)
(-1.00252e-09 -2.48888e-10 -2.15637e-10)
(-2.15959e-09 -2.08793e-10 -3.90069e-11)
(-2.00878e-09 -5.07841e-10 -3.04101e-10)
(-1.10821e-09 2.84402e-10 -2.02287e-10)
(-1.04555e-09 1.76129e-10 -3.38145e-10)
(-1.24939e-09 1.14301e-11 -1.70276e-10)
(-9.48206e-10 1.46165e-09 -1.42608e-09)
(-3.97938e-10 2.52477e-09 -4.31906e-10)
(-7.51001e-10 5.43992e-10 2.863e-11)
(1.00814e-09 3.85806e-09 -3.88385e-09)
(8.94227e-10 6.01024e-09 -2.77266e-10)
(-4.12283e-10 1.29528e-09 2.6889e-10)
(1.98153e-09 -1.71056e-10 5.6909e-10)
(2.36223e-09 -7.18102e-10 5.22404e-10)
(2.27389e-09 1.55622e-10 6.44875e-11)
(3.34473e-09 -6.29361e-10 1.18709e-09)
(3.36791e-09 -1.11476e-09 1.48914e-09)
(2.94497e-09 -3.76073e-10 1.11347e-09)
(-9.62024e-10 -2.65455e-09 2.10911e-09)
(6.26643e-10 -2.62605e-09 1.81547e-09)
(-1.3318e-09 3.81226e-10 2.6012e-09)
(-4.97794e-09 -6.54329e-10 8.29013e-10)
(-2.80972e-09 -1.36085e-09 9.13867e-10)
(-4.98242e-09 -5.41368e-09 5.14395e-09)
(-5.92503e-09 -2.82997e-09 3.80066e-09)
(-3.25554e-09 9.27804e-11 4.00729e-10)
(-2.32063e-09 -4.94748e-10 6.44351e-11)
(-2.27614e-09 -4.88366e-10 6.97995e-10)
(-4.38807e-09 7.80455e-10 -4.56285e-10)
(-2.38011e-09 3.40867e-11 8.84749e-11)
(-1.02793e-09 -1.37945e-10 5.07367e-11)
(-1.43678e-09 1.13893e-10 2.04813e-10)
(-1.57578e-09 -4.05716e-11 7.46087e-11)
(-7.85871e-10 1.35572e-10 -7.04108e-11)
(-6.37011e-10 3.0592e-11 -3.31086e-10)
(-7.71304e-10 5.96899e-11 -4.52356e-10)
(-1.10821e-09 2.84402e-10 -2.02287e-10)
(-3.53126e-10 1.71676e-10 -2.62543e-10)
(8.34816e-11 9.14197e-11 -3.74443e-10)
(-7.24278e-10 5.00873e-10 -7.93435e-10)
(-9.48206e-10 1.46165e-09 -1.42608e-09)
(9.3226e-09 -1.5284e-10 -9.7872e-10)
(-6.64303e-11 2.98551e-10 -1.63223e-09)
(1.87936e-09 2.84064e-10 -3.8401e-09)
(1.00814e-09 3.85806e-09 -3.88385e-09)
)
;
    }
    procBoundary5to1
    {
        type            processor;
        value           nonuniform List<vector> 
32
(
(-5.86215e-09 -8.4958e-10 1.19239e-09)
(-3.86599e-09 1.68643e-10 4.97468e-10)
(-1.88299e-09 1.95477e-10 2.48703e-11)
(-7.97447e-10 1.84809e-10 -1.72352e-10)
(-5.90737e-10 1.14537e-10 -4.88277e-10)
(2.37124e-10 -3.73408e-10 -8.65436e-10)
(-3.14059e-09 -3.31137e-09 2.35115e-09)
(-5.84512e-09 -2.77478e-09 1.99534e-09)
(-4.36987e-09 -1.21959e-09 6.68092e-10)
(-2.24995e-09 8.04261e-11 -3.42696e-10)
(-9.76034e-10 5.77604e-11 -5.08595e-10)
(-4.06512e-10 -2.93594e-11 -8.58802e-10)
(-1.17682e-10 -1.14452e-10 3.87175e-11)
(3.12146e-09 -2.98687e-09 3.74345e-09)
(-1.15458e-09 -7.48314e-10 3.20369e-09)
(-6.6151e-09 -2.53492e-09 3.84004e-09)
(-6.50905e-09 -1.39315e-09 8.90516e-10)
(-3.96277e-09 -6.94054e-10 -8.38397e-11)
(-1.55976e-09 -6.1049e-10 -7.0186e-10)
(-8.67469e-10 -2.60143e-10 -7.2997e-10)
(-1.8175e-10 -1.6401e-10 1.60154e-10)
(6.37807e-10 -5.60235e-10 6.73722e-10)
(2.70221e-09 1.55904e-10 6.65128e-10)
(-1.57515e-09 -1.44459e-09 1.43229e-09)
(-1.57515e-09 -1.44459e-09 1.43229e-09)
(-1.57515e-09 -1.44459e-09 1.43229e-09)
(1.14429e-09 -9.95959e-10 1.78064e-09)
(1.54098e-09 -1.61018e-09 3.48584e-09)
(1.54098e-09 -1.61018e-09 3.48584e-09)
(1.54098e-09 -1.61018e-09 3.48584e-09)
(1.81736e-09 -1.16656e-09 1.82514e-09)
(1.81736e-09 -1.16656e-09 1.82514e-09)
)
;
    }
    procBoundary5to4
    {
        type            processor;
        value           nonuniform List<vector> 
12
(
(1.13528e-09 -2.12956e-10 3.03316e-10)
(2.12484e-09 -1.20397e-09 5.70026e-10)
(1.95636e-09 -7.95969e-10 5.75303e-10)
(1.32113e-09 -3.79183e-10 7.11911e-10)
(1.26193e-09 7.87596e-11 2.78214e-10)
(1.77899e-09 -3.6241e-10 5.05507e-10)
(1.59338e-09 -9.82548e-10 3.49887e-10)
(1.37144e-09 -6.59032e-10 7.36823e-10)
(6.49703e-10 -8.90359e-12 -7.10245e-11)
(7.34437e-10 -3.09283e-10 3.68096e-11)
(8.46798e-10 -6.04485e-10 1.79531e-10)
(6.62424e-10 -2.28637e-10 5.61629e-11)
)
;
    }
    procBoundary5to7
    {
        type            processor;
        value           nonuniform List<vector> 
44
(
(1.73646e-09 -1.66619e-09 2.72378e-09)
(-1.9264e-09 -2.88663e-09 4.02172e-09)
(-5.70707e-09 -2.55013e-09 2.85174e-09)
(-5.10791e-09 -1.58599e-09 1.41459e-09)
(-3.03374e-09 -7.53413e-10 4.09112e-10)
(-2.31337e-09 -6.03026e-10 -2.55953e-10)
(-1.22422e-09 -2.25903e-11 -3.10383e-10)
(-6.6687e-11 1.56171e-10 -6.60201e-11)
(1.95302e-09 -8.20101e-10 1.56646e-09)
(1.73646e-09 -1.66619e-09 2.72378e-09)
(-1.57995e-09 -3.74129e-09 4.59237e-09)
(-5.29215e-09 -2.52431e-09 2.40448e-09)
(-4.33238e-09 -1.39129e-09 7.72099e-10)
(-3.10318e-09 -1.0388e-09 1.53041e-10)
(-1.99749e-09 -3.53658e-10 -1.38452e-10)
(-9.2127e-10 1.81589e-10 -1.73999e-10)
(6.28785e-11 4.47204e-10 4.59633e-10)
(1.60647e-09 -8.80856e-10 7.59636e-10)
(-1.57995e-09 -3.74129e-09 4.59237e-09)
(1.42124e-09 -1.77168e-09 1.96111e-09)
(-1.57995e-09 -3.74129e-09 4.59237e-09)
(-5.29215e-09 -2.52431e-09 2.40448e-09)
(-4.46102e-09 -1.33532e-09 2.42864e-10)
(-3.31023e-09 -8.07897e-10 -7.69607e-11)
(-1.95708e-09 -6.87845e-11 -1.38215e-10)
(-1.01565e-09 2.39823e-10 8.55562e-11)
(-1.28563e-10 4.35979e-10 6.62776e-10)
(1.89085e-09 -3.75361e-10 5.50084e-10)
(1.34419e-09 -1.39173e-09 2.11494e-09)
(-1.61856e-09 -3.83374e-10 4.08972e-09)
(-4.46102e-09 -1.33532e-09 2.42864e-10)
(-3.77323e-09 -2.05464e-10 7.70904e-10)
(-4.46102e-09 -1.33532e-09 2.42864e-10)
(-3.31023e-09 -8.07897e-10 -7.69607e-11)
(-1.42104e-09 -1.44766e-10 -3.76627e-10)
(-8.24746e-10 2.22352e-10 1.42561e-10)
(-5.90025e-10 5.92855e-10 1.23031e-09)
(1.28924e-09 4.02717e-10 2.14317e-10)
(1.77128e-09 -9.98264e-11 1.25355e-09)
(-6.45564e-10 -1.30258e-09 1.86509e-09)
(-3.23826e-09 -5.49889e-10 4.77235e-10)
(-2.95544e-09 -8.85217e-10 1.04899e-10)
(-1.42104e-09 -1.44766e-10 -3.76627e-10)
(-2.92978e-09 -1.01485e-09 -4.46083e-11)
)
;
    }
}


// ************************************************************************* //
