/*--------------------------------*- C++ -*----------------------------------*\
| =========                 |                                                 |
| \\      /  F ield         | OpenFOAM: The Open Source CFD Toolbox           |
|  \\    /   O peration     | Version:  4.x                                   |
|   \\  /    A nd           | Web:      www.OpenFOAM.org                      |
|    \\/     M anipulation  |                                                 |
\*---------------------------------------------------------------------------*/
FoamFile
{
    version     2.0;
    format      ascii;
    class       volVectorField;
    location    "18";
    object      ddtUrel;
}
// * * * * * * * * * * * * * * * * * * * * * * * * * * * * * * * * * * * * * //

dimensions      [0 1 -2 0 0 0 0];

internalField   nonuniform List<vector> 
87
(
(2.79285e-06 -4.71541e-07 -1.72752e-06)
(2.78248e-06 -2.83758e-07 -1.7676e-06)
(3.95186e-06 -7.04251e-07 -3.06532e-06)
(2.14998e-06 -1.82363e-07 -1.25526e-06)
(3.3483e-06 -4.31004e-07 -2.36106e-06)
(5.63076e-06 -1.01616e-06 -4.92658e-06)
(4.63605e-07 3.59129e-08 -7.88661e-08)
(5.80506e-07 4.89543e-08 -1.02481e-07)
(7.94843e-07 7.45584e-08 -1.45456e-07)
(1.01125e-06 7.21853e-08 -2.23754e-07)
(1.24642e-06 7.18529e-08 -3.449e-07)
(1.47068e-06 5.10753e-08 -4.8656e-07)
(1.64322e-06 -1.42753e-08 -6.77289e-07)
(1.99215e-06 -1.21652e-07 -1.06305e-06)
(2.48129e-06 -4.38079e-07 -1.59024e-06)
(4.64011e-07 2.58564e-08 -7.90115e-08)
(5.76331e-07 2.77346e-08 -1.03145e-07)
(7.77497e-07 3.44305e-08 -1.54186e-07)
(1.01751e-06 3.95158e-08 -2.53576e-07)
(1.22488e-06 1.87636e-08 -4.01107e-07)
(1.50905e-06 -2.01058e-08 -6.10867e-07)
(1.83373e-06 -8.76293e-08 -9.52355e-07)
(2.44873e-06 -2.75314e-07 -1.66357e-06)
(3.50058e-06 -7.84163e-07 -2.7517e-06)
(4.29879e-07 1.49376e-08 -6.76867e-08)
(5.55366e-07 1.78938e-08 -9.87615e-08)
(7.46028e-07 1.93864e-08 -1.60499e-07)
(9.52153e-07 1.34986e-08 -2.70177e-07)
(1.15651e-06 -1.21793e-08 -4.35511e-07)
(1.47788e-06 -5.40079e-08 -6.9406e-07)
(1.95046e-06 -1.53064e-07 -1.20173e-06)
(2.90598e-06 -4.19005e-07 -2.26922e-06)
(5.01086e-06 -1.12525e-06 -4.29623e-06)
(3.95364e-07 7.3251e-08 -8.80849e-08)
(4.90447e-07 7.82749e-08 -1.11645e-07)
(6.55944e-07 9.65301e-08 -1.50095e-07)
(8.46888e-07 1.00722e-07 -2.10087e-07)
(1.052e-06 8.43781e-08 -3.02397e-07)
(1.27122e-06 7.06117e-08 -4.3866e-07)
(1.43407e-06 2.10712e-08 -6.38088e-07)
(1.69225e-06 -7.71499e-08 -9.79466e-07)
(2.02697e-06 -2.85659e-07 -1.39664e-06)
(3.90547e-07 4.98177e-08 -8.89491e-08)
(4.81188e-07 5.03543e-08 -1.12094e-07)
(6.39982e-07 5.72708e-08 -1.53481e-07)
(8.27739e-07 6.16335e-08 -2.37216e-07)
(1.04419e-06 3.9824e-08 -3.56631e-07)
(1.30884e-06 4.92943e-09 -5.47914e-07)
(1.53443e-06 -5.56019e-08 -8.80653e-07)
(1.91638e-06 -2.06041e-07 -1.51589e-06)
(2.60327e-06 -5.03005e-07 -2.45775e-06)
(3.6222e-07 3.43347e-08 -8.19382e-08)
(4.58719e-07 3.49898e-08 -1.07725e-07)
(6.02556e-07 4.00086e-08 -1.63572e-07)
(7.91044e-07 3.34182e-08 -2.50237e-07)
(1.00112e-06 6.01078e-09 -3.87668e-07)
(1.27027e-06 -3.62352e-08 -6.27405e-07)
(1.54305e-06 -1.18129e-07 -1.08994e-06)
(2.01604e-06 -3.30502e-07 -2.07644e-06)
(2.78377e-06 -7.96977e-07 -4.15183e-06)
(3.6089e-07 1.12331e-07 -9.03194e-08)
(4.18143e-07 1.04712e-07 -1.05577e-07)
(5.61891e-07 1.20615e-07 -1.43413e-07)
(7.43582e-07 1.15119e-07 -2.018e-07)
(9.41499e-07 9.12629e-08 -2.9017e-07)
(1.13317e-06 8.59074e-08 -4.15467e-07)
(1.27603e-06 5.41653e-08 -6.04309e-07)
(1.47899e-06 -4.18379e-08 -8.92471e-07)
(1.78133e-06 -1.28468e-07 -1.22576e-06)
(3.30524e-07 7.53276e-08 -9.4153e-08)
(4.11973e-07 6.91046e-08 -1.15847e-07)
(5.5048e-07 6.89088e-08 -1.52457e-07)
(7.19022e-07 7.01514e-08 -2.22506e-07)
(9.37643e-07 4.86233e-08 -3.34544e-07)
(1.14965e-06 1.77635e-08 -5.16752e-07)
(1.3015e-06 -3.45371e-08 -8.15528e-07)
(1.60881e-06 -1.72472e-07 -1.33223e-06)
(2.15572e-06 -2.36402e-07 -2.06533e-06)
(3.07552e-07 4.51544e-08 -9.38598e-08)
(4.12696e-07 4.62455e-08 -1.11992e-07)
(5.35297e-07 5.02319e-08 -1.56901e-07)
(7.04227e-07 4.04921e-08 -2.35727e-07)
(8.91393e-07 2.14143e-08 -3.58988e-07)
(1.11601e-06 -1.98998e-08 -5.76328e-07)
(1.29765e-06 -1.00959e-07 -9.71424e-07)
(1.55756e-06 -2.53078e-07 -1.74002e-06)
(1.84008e-06 -4.86471e-07 -2.98373e-06)
)
;

boundaryField
{
    inlet
    {
        type            calculated;
        value           nonuniform List<vector> 9((2.3384e-07 -9.67371e-09 -9.16782e-09) (3.5175e-07 6.63679e-08 1.72214e-08) (1.03268e-07 1.28525e-08 1.29949e-08) (1.48976e-08 1.14349e-07 -6.96546e-08) (1.1874e-07 2.89782e-08 -4.36329e-08) (-1.80092e-07 4.06316e-10 2.89237e-08) (1.2702e-07 2.71304e-07 -7.85218e-08) (-2.47146e-07 1.19971e-07 -1.88715e-08) (-7.47236e-07 -3.23707e-08 -1.35601e-08));
    }
    outlet
    {
        type            calculated;
        value           nonuniform 0();
    }
    wall
    {
        type            calculated;
        value           nonuniform List<vector> 
57
(
(2.12887e-07 2.75194e-07 -9.07003e-08)
(-4.18767e-08 1.35758e-07 -2.17478e-08)
(-2.35856e-07 -1.5284e-08 -8.72537e-09)
(1.4331e-07 9.84608e-08 -3.27586e-08)
(1.2036e-07 5.78694e-08 -4.55191e-08)
(1.08394e-07 1.02707e-08 -2.33662e-08)
(4.86625e-07 2.72286e-07 -4.7545e-08)
(1.85591e-07 6.12231e-09 -2.72623e-08)
(2.24758e-07 7.54806e-09 -3.02116e-08)
(5.6623e-07 2.05601e-07 -3.81242e-08)
(4.47983e-07 1.08707e-07 -4.37653e-08)
(3.01077e-07 3.66915e-08 -7.53145e-09)
(9.46611e-07 1.42482e-07 -8.28699e-08)
(7.56011e-07 4.60582e-08 -7.37916e-08)
(1.62773e-07 5.63896e-08 -1.80221e-08)
(1.21077e-06 3.17452e-07 -4.75187e-08)
(1.05237e-06 5.99281e-08 -9.25183e-08)
(6.35273e-07 9.37724e-09 -5.15731e-08)
(7.40875e-07 5.65966e-07 -5.68093e-09)
(-1.08246e-07 2.34422e-07 -1.43774e-08)
(5.45786e-08 4.63473e-08 -2.84194e-08)
(7.1465e-07 3.94629e-07 -3.86012e-08)
(4.52043e-07 -4.85919e-07 -2.90021e-07)
(-4.68827e-07 1.15173e-07 -1.89839e-07)
(-3.62505e-07 1.07616e-06 2.31693e-07)
(3.52654e-06 1.3983e-06 -1.7614e-07)
(-4.67535e-07 2.13828e-07 5.13024e-09)
(6.90837e-08 1.24931e-08 5.99664e-09)
(-8.60824e-08 4.08893e-09 2.67356e-08)
(-1.39113e-07 -1.13414e-08 -5.85303e-09)
(4.14721e-07 -4.18755e-08 -1.93101e-09)
(1.83663e-07 -1.83048e-08 6.32609e-09)
(7.85525e-08 1.00065e-08 -2.19753e-08)
(3.56243e-07 -7.66405e-09 -9.43576e-08)
(2.96156e-07 1.14917e-08 -6.55358e-08)
(2.01019e-07 7.9274e-09 -2.79392e-08)
(8.94931e-07 -4.31436e-08 -8.31654e-08)
(4.25701e-07 9.0206e-09 -5.82279e-08)
(2.89139e-07 3.95918e-08 -6.86953e-09)
(9.21391e-07 -3.25848e-09 -1.19468e-07)
(6.44255e-07 1.33151e-08 -6.0071e-08)
(1.71445e-07 6.11125e-08 -1.99662e-08)
(1.23646e-06 -3.60757e-09 -1.80327e-07)
(9.46258e-07 9.48294e-09 -9.77054e-08)
(6.28539e-07 1.6323e-08 -4.81852e-08)
(1.18455e-06 -2.37455e-08 -4.05094e-07)
(8.27947e-07 1.71229e-07 -2.95232e-07)
(-4.39924e-08 9.16159e-08 -1.14306e-07)
(-3.5875e-09 4.62784e-08 -2.20634e-08)
(2.86755e-06 2.12975e-07 -5.13358e-07)
(1.44539e-06 3.85853e-07 -1.24577e-06)
(-3.1396e-07 5.32973e-08 -7.14313e-07)
(-5.49395e-07 1.10509e-07 -1.89381e-07)
(5.74288e-06 1.11755e-06 -4.11964e-06)
(9.50611e-06 -9.02337e-07 -1.70047e-06)
(-1.61344e-07 -9.72168e-07 -1.22129e-05)
(-1.91842e-06 2.39998e-07 -1.09193e-08)
)
;
    }
    procBoundary6to0
    {
        type            processor;
        value           uniform (2.05981e-06 -3.45e-07 -9.94335e-07);
    }
    procBoundary6to2
    {
        type            processor;
        value           nonuniform List<vector> 
32
(
(2.78429e-06 -4.99848e-07 -1.5744e-06)
(2.71788e-06 -3.42721e-07 -1.64992e-06)
(3.50677e-06 -5.97249e-07 -2.53641e-06)
(2.18985e-06 -2.75404e-07 -1.22313e-06)
(2.9811e-06 -4.29727e-07 -2.09291e-06)
(3.97854e-06 -5.49014e-07 -3.77205e-06)
(5.56847e-07 2.75422e-08 -6.68521e-08)
(7.01226e-07 2.86236e-08 -8.45879e-08)
(9.1194e-07 4.36445e-08 -1.32919e-07)
(1.17221e-06 5.51744e-08 -2.33221e-07)
(1.40942e-06 5.21285e-08 -3.75208e-07)
(1.62788e-06 4.66457e-09 -5.16548e-07)
(1.93076e-06 -7.94541e-08 -7.36925e-07)
(2.34971e-06 -2.02218e-07 -1.14164e-06)
(2.34971e-06 -2.02218e-07 -1.14164e-06)
(2.34971e-06 -2.02218e-07 -1.14164e-06)
(5.28014e-07 1.12571e-08 -7.03927e-08)
(6.76632e-07 1.05422e-08 -9.47478e-08)
(8.87614e-07 1.48264e-08 -1.46817e-07)
(1.12535e-06 1.73003e-08 -2.55352e-07)
(1.36916e-06 -1.64009e-08 -4.42127e-07)
(1.6564e-06 -6.81922e-08 -6.6282e-07)
(2.11089e-06 -1.4187e-07 -1.03368e-06)
(2.11089e-06 -1.4187e-07 -1.03368e-06)
(2.11089e-06 -1.4187e-07 -1.03368e-06)
(5.15795e-07 7.88862e-10 -7.24917e-08)
(6.48614e-07 1.58539e-09 -9.61841e-08)
(8.45371e-07 8.94245e-09 -1.61634e-07)
(1.05713e-06 1.90008e-09 -2.79233e-07)
(1.33559e-06 -4.15855e-08 -4.68934e-07)
(1.69812e-06 -1.11951e-07 -7.31442e-07)
(1.69812e-06 -1.11951e-07 -7.31442e-07)
)
;
    }
    procBoundary6to4
    {
        type            processor;
        value           nonuniform List<vector> 
27
(
(4.58448e-07 5.27345e-08 -7.89576e-08)
(5.73639e-07 6.79819e-08 -8.3858e-08)
(7.57373e-07 8.58371e-08 -1.21543e-07)
(9.67637e-07 9.65943e-08 -1.77387e-07)
(1.20477e-06 9.39274e-08 -2.56227e-07)
(1.45752e-06 8.65065e-08 -3.6942e-07)
(1.56501e-06 2.02432e-08 -4.52792e-07)
(1.68526e-06 -7.89959e-08 -6.21005e-07)
(1.90637e-06 -3.22198e-07 -9.19094e-07)
(3.88975e-07 9.12241e-08 -7.17947e-08)
(4.76578e-07 1.07481e-07 -9.1473e-08)
(6.34199e-07 1.20273e-07 -1.27463e-07)
(8.12776e-07 1.28956e-07 -1.70064e-07)
(1.00025e-06 1.25956e-07 -2.38416e-07)
(1.23001e-06 1.11455e-07 -3.34861e-07)
(1.33967e-06 5.59975e-08 -4.47048e-07)
(1.42784e-06 -4.9677e-08 -5.97997e-07)
(1.56722e-06 -2.09125e-07 -8.30272e-07)
(3.65472e-07 1.48344e-07 -7.26995e-08)
(4.34649e-07 1.42098e-07 -9.33868e-08)
(5.60495e-07 1.52001e-07 -1.26413e-07)
(7.09502e-07 1.51581e-07 -1.67951e-07)
(8.95806e-07 1.28069e-07 -2.30305e-07)
(1.08535e-06 1.09598e-07 -3.08259e-07)
(1.19793e-06 7.76832e-08 -4.25926e-07)
(1.28548e-06 -1.67865e-08 -5.84649e-07)
(1.42305e-06 -1.26546e-07 -7.42416e-07)
)
;
    }
    procBoundary6to7
    {
        type            processor;
        value           nonuniform List<vector> 
12
(
(3.22739e-06 -8.54088e-07 -2.31694e-06)
(5.14893e-06 -1.63803e-06 -5.33292e-06)
(1.09117e-05 -2.98298e-06 -1.12625e-05)
(2.95925e-06 -8.66722e-07 -2.0497e-06)
(4.71516e-06 -1.57436e-06 -4.12911e-06)
(8.88369e-06 -2.62315e-06 -8.14424e-06)
(2.39191e-06 -6.52772e-07 -1.79221e-06)
(3.21861e-06 -1.12466e-06 -3.49159e-06)
(3.58835e-06 -1.48673e-06 -6.29133e-06)
(2.06036e-06 -4.02645e-07 -1.58097e-06)
(2.54226e-06 -4.76556e-07 -2.97839e-06)
(1.81187e-06 -8.7213e-07 -4.88842e-06)
)
;
    }
}


// ************************************************************************* //
