/*--------------------------------*- C++ -*----------------------------------*\
| =========                 |                                                 |
| \\      /  F ield         | OpenFOAM: The Open Source CFD Toolbox           |
|  \\    /   O peration     | Version:  4.x                                   |
|   \\  /    A nd           | Web:      www.OpenFOAM.org                      |
|    \\/     M anipulation  |                                                 |
\*---------------------------------------------------------------------------*/
FoamFile
{
    version     2.0;
    format      ascii;
    class       volScalarField;
    location    "18";
    object      p_rgh;
}
// * * * * * * * * * * * * * * * * * * * * * * * * * * * * * * * * * * * * * //

dimensions      [1 -1 -2 0 0 0 0];

internalField   nonuniform List<scalar> 
87
(
80.4681
40.5345
80.3888
87.4844
40.3264
80.0716
112.043
94.0148
104.314
76.9054
96.4251
59.2474
88.3895
41.6209
80.3777
111.59
94.0294
104.017
76.8066
96.2373
59.197
88.519
41.5333
80.7938
110.93
93.6992
103.489
76.6206
95.8464
58.9916
88.0359
41.3621
80.5066
111.724
94.009
103.968
76.7805
96.0637
59.3228
88.2419
41.5712
80.5263
111.427
94.0229
103.823
76.8104
95.9982
59.2821
88.251
41.5436
80.5696
110.802
93.6782
103.328
76.6109
95.6034
59.0345
87.8451
41.295
80.2492
111.394
93.9685
103.865
76.8418
96.0355
59.3579
88.1929
41.5503
80.4796
111.139
93.9332
103.654
76.8537
95.9188
59.2901
88.1196
41.7183
80.4556
110.641
93.6982
103.212
76.6217
95.5503
59.1518
87.8383
41.6614
80.4175
)
;

boundaryField
{
    inlet
    {
        type            fixedFluxPressure;
        gradient        nonuniform List<scalar> 9(0.0310089 0.0308027 0.0307026 0.0446561 0.0460519 0.0474054 0.077633 0.0675171 0.0674275);
        value           nonuniform List<scalar> 9(112.043 111.591 110.93 111.725 111.428 110.803 111.395 111.14 110.642);
    }
    outlet
    {
        type            fixedValue;
        value           nonuniform 0();
    }
    wall
    {
        type            fixedFluxPressure;
        gradient        nonuniform List<scalar> 
57
(
-2.2225e-05
9.85971e-07
4.29051e-05
-5.42e-06
-2.94605e-05
-6.92964e-05
-5.45409e-06
-1.00279e-05
9.61122e-06
-2.09554e-05
-3.84221e-05
-4.95679e-07
1.66155e-05
8.97956e-06
2.19235e-06
6.32186e-05
1.87254e-05
-9.90399e-07
-6.7636e-05
-7.68588e-05
-2.39018e-05
-8.64564e-05
-0.000139805
-0.0001276
-0.000132794
5.43787e-05
5.59321e-05
1.05723e-05
-4.9499e-05
0.000703808
-0.000111503
0.000238082
-1.12127e-05
3.76577e-05
-6.31378e-05
-2.91576e-05
1.82683e-05
-5.30626e-05
-1.52763e-05
1.41593e-05
7.33021e-06
-2.73701e-06
-1.96359e-05
2.12166e-05
-5.87514e-06
-2.25361e-05
-2.19827e-05
-3.74956e-05
-2.24743e-05
-0.00017692
-2.89169e-05
-6.76252e-05
-3.67827e-05
-1.83403e-05
3.13423e-05
-0.000104193
-7.07077e-05
)
;
        value           nonuniform List<scalar> 
57
(
111.394
111.139
110.641
93.9685
93.9332
93.6982
103.865
103.654
103.212
76.8418
76.8537
76.6217
96.0355
95.9188
95.5503
59.3579
59.2901
59.1518
88.1929
88.1196
87.8383
41.5503
41.7183
41.6614
80.4796
80.4556
80.4175
110.93
110.802
110.641
93.6992
93.6782
93.6982
103.489
103.328
103.212
76.6206
76.6109
76.6217
95.8464
95.6034
95.5503
58.9916
59.0345
59.1518
87.4844
88.0359
87.8451
87.8383
40.3264
41.3621
41.295
41.6614
80.0716
80.5066
80.2492
80.4175
)
;
    }
    procBoundary6to0
    {
        type            processor;
        value           uniform 80.7409;
    }
    procBoundary6to2
    {
        type            processor;
        value           nonuniform List<scalar> 
32
(
80.7862
40.5943
80.8103
87.5463
40.3889
80.2404
111.037
93.5334
103.398
76.0424
95.6341
58.318
87.9698
40.3604
40.3604
40.3604
110.93
93.5571
103.375
76.145
95.6251
58.4886
87.9068
87.9068
87.9068
110.282
93.2091
102.836
75.8957
95.1445
58.2332
58.2332
)
;
    }
    procBoundary6to4
    {
        type            processor;
        value           nonuniform List<scalar> 
27
(
111.693
94.2778
104.295
77.0301
96.4975
59.48
88.6238
41.7071
80.8896
111.848
94.2482
104.271
77.0903
96.3384
59.4583
88.407
41.6668
80.5782
111.663
94.0706
104.07
76.9707
96.15
59.2829
88.1536
41.6866
80.4269
)
;
    }
    procBoundary6to7
    {
        type            processor;
        value           nonuniform List<scalar> 
12
(
22.3428
22.4928
22.1729
24.2878
23.8523
23.6236
23.6665
23.5978
23.3384
23.9547
23.9989
23.97
)
;
    }
}


// ************************************************************************* //
