/*--------------------------------*- C++ -*----------------------------------*\
| =========                 |                                                 |
| \\      /  F ield         | OpenFOAM: The Open Source CFD Toolbox           |
|  \\    /   O peration     | Version:  4.x                                   |
|   \\  /    A nd           | Web:      www.OpenFOAM.org                      |
|    \\/     M anipulation  |                                                 |
\*---------------------------------------------------------------------------*/
FoamFile
{
    version     2.0;
    format      ascii;
    class       volScalarField;
    location    "18";
    object      particleRelTemp;
}
// * * * * * * * * * * * * * * * * * * * * * * * * * * * * * * * * * * * * * //

dimensions      [0 0 0 0 0 0 0];

internalField   nonuniform List<scalar> 
87
(
1.15404e-07
6.2815e-08
8.18077e-08
2.73459e-08
4.89274e-08
4.3768e-08
-1.09673e-07
-8.97761e-08
-6.06604e-08
-2.72208e-08
9.09659e-09
3.41417e-08
5.65529e-08
7.01937e-08
8.1897e-08
-1.10791e-07
-9.60785e-08
-7.14984e-08
-4.01701e-08
-1.15044e-08
1.52857e-08
3.73177e-08
4.40089e-08
5.13388e-08
-1.15909e-07
-9.89387e-08
-7.99328e-08
-4.71359e-08
-2.9135e-08
-1.79484e-09
1.15806e-08
1.79917e-08
2.65612e-08
-1.14181e-07
-9.50291e-08
-7.55467e-08
-4.93564e-08
-2.53886e-08
6.65534e-10
1.96899e-08
3.73441e-08
4.58504e-08
-1.15296e-07
-1.00538e-07
-8.3171e-08
-5.70314e-08
-4.16011e-08
-1.26809e-08
3.94877e-09
1.03405e-08
2.38512e-08
-1.17716e-07
-1.04247e-07
-8.61626e-08
-6.92314e-08
-4.8289e-08
-3.41375e-08
-2.24278e-08
-9.2578e-09
-8.04238e-09
-1.16207e-07
-1.03607e-07
-8.53868e-08
-6.4258e-08
-4.56066e-08
-1.99364e-08
-3.06794e-09
6.47023e-09
4.82993e-09
-1.16863e-07
-1.07822e-07
-9.22152e-08
-7.35991e-08
-5.46339e-08
-3.62903e-08
-2.04783e-08
-1.3634e-08
-9.33445e-09
-1.20929e-07
-1.07507e-07
-9.64167e-08
-8.19036e-08
-6.87077e-08
-5.07703e-08
-4.59372e-08
-4.22002e-08
-3.28831e-08
)
;

boundaryField
{
    inlet
    {
        type            calculated;
        value           nonuniform List<scalar> 9(-1.09673e-07 -1.10791e-07 -1.15909e-07 -1.14181e-07 -1.15296e-07 -1.17716e-07 -1.16207e-07 -1.16863e-07 -1.20929e-07);
    }
    outlet
    {
        type            calculated;
        value           nonuniform 0();
    }
    wall
    {
        type            calculated;
        value           nonuniform List<scalar> 
57
(
-1.16207e-07
-1.16863e-07
-1.20929e-07
-1.03607e-07
-1.07822e-07
-1.07507e-07
-8.53868e-08
-9.22152e-08
-9.64167e-08
-6.4258e-08
-7.35991e-08
-8.19036e-08
-4.56066e-08
-5.46339e-08
-6.87077e-08
-1.99364e-08
-3.62903e-08
-5.07703e-08
-3.06794e-09
-2.04783e-08
-4.59372e-08
6.47023e-09
-1.3634e-08
-4.22002e-08
4.82993e-09
-9.33445e-09
-3.28831e-08
-1.15909e-07
-1.17716e-07
-1.20929e-07
-9.89387e-08
-1.04247e-07
-1.07507e-07
-7.99328e-08
-8.61626e-08
-9.64167e-08
-4.71359e-08
-6.92314e-08
-8.19036e-08
-2.9135e-08
-4.8289e-08
-6.87077e-08
-1.79484e-09
-3.41375e-08
-5.07703e-08
2.73459e-08
1.15806e-08
-2.24278e-08
-4.59372e-08
4.89274e-08
1.79917e-08
-9.2578e-09
-4.22002e-08
4.3768e-08
2.65612e-08
-8.04238e-09
-3.28831e-08
)
;
    }
    procBoundary6to0
    {
        type            processor;
        value           uniform 1.38015e-07;
    }
    procBoundary6to2
    {
        type            processor;
        value           nonuniform List<scalar> 
32
(
1.18115e-07
8.0907e-08
8.69319e-08
3.91169e-08
5.43269e-08
5.86112e-08
-1.09234e-07
-8.31069e-08
-5.29904e-08
-2.20189e-08
1.7083e-08
5.21964e-08
8.67983e-08
1.04888e-07
1.04888e-07
1.04888e-07
-1.14097e-07
-8.89989e-08
-6.56832e-08
-2.93891e-08
5.94545e-09
4.08344e-08
5.2e-08
5.2e-08
5.2e-08
-1.16378e-07
-9.57302e-08
-6.89423e-08
-4.40563e-08
-1.41113e-08
1.35879e-08
1.35879e-08
)
;
    }
    procBoundary6to4
    {
        type            processor;
        value           nonuniform List<scalar> 
27
(
-1.1258e-07
-9.36623e-08
-6.4284e-08
-3.6646e-08
3.25629e-09
3.47343e-08
6.45637e-08
8.16893e-08
1.03194e-07
-1.14391e-07
-9.9083e-08
-7.37214e-08
-5.28279e-08
-2.16951e-08
7.5452e-09
2.82874e-08
4.63993e-08
5.57337e-08
-1.15336e-07
-1.02341e-07
-8.46588e-08
-6.12189e-08
-4.08064e-08
-1.86849e-08
-7.98572e-10
1.63284e-08
2.45538e-08
)
;
    }
    procBoundary6to7
    {
        type            processor;
        value           nonuniform List<scalar> 
12
(
1.15684e-07
8.07557e-08
5.25421e-08
8.90972e-08
6.38129e-08
2.94914e-08
4.48497e-08
2.28028e-08
-9.35466e-09
2.02341e-08
-8.79496e-09
-3.28461e-08
)
;
    }
}


// ************************************************************************* //
