/*--------------------------------*- C++ -*----------------------------------*\
| =========                 |                                                 |
| \\      /  F ield         | OpenFOAM: The Open Source CFD Toolbox           |
|  \\    /   O peration     | Version:  4.x                                   |
|   \\  /    A nd           | Web:      www.OpenFOAM.org                      |
|    \\/     M anipulation  |                                                 |
\*---------------------------------------------------------------------------*/
FoamFile
{
    version     2.0;
    format      ascii;
    class       volScalarField;
    location    "18";
    object      pSmooth;
}
// * * * * * * * * * * * * * * * * * * * * * * * * * * * * * * * * * * * * * //

dimensions      [1 -1 -2 0 0 0 0];

internalField   nonuniform List<scalar> 
87
(
81.4797
45.4398
81.4669
89.1855
45.1992
81.0829
113.608
97.0631
106.315
80.9799
98.4489
63.9456
89.9862
46.3106
81.385
113.166
97.0168
105.964
80.8323
98.2178
63.8652
90.0489
46.258
81.7584
112.558
96.7052
105.488
80.636
97.8557
63.6253
89.5617
46.0551
81.4671
113.369
97.0275
105.979
80.7883
98.0946
63.915
89.8723
46.1988
81.4498
113.068
96.9994
105.807
80.7806
97.978
63.8682
89.7286
46.1367
81.6129
112.458
96.6624
105.342
80.5636
97.6237
63.588
89.3424
45.9048
81.2075
113.084
96.992
105.91
80.8422
98.0365
63.9634
89.658
46.1327
81.3561
112.799
96.9147
105.655
80.8283
97.9384
63.9905
89.3936
46.2536
81.3841
112.306
96.6744
105.209
80.56
97.5196
63.7047
89.276
46.2312
81.4148
)
;

boundaryField
{
    inlet
    {
        type            zeroGradient;
    }
    outlet
    {
        type            fixedValue;
        value           nonuniform 0();
    }
    wall
    {
        type            zeroGradient;
    }
    procBoundary6to0
    {
        type            processor;
        value           uniform 81.7393;
    }
    procBoundary6to2
    {
        type            processor;
        value           nonuniform List<scalar> 
32
(
81.8771
45.6473
81.8615
89.2531
45.3813
81.2835
112.741
96.6728
105.529
80.2253
97.8554
63.1664
89.8676
45.3178
45.3178
45.3178
112.583
96.6393
105.436
80.281
97.7488
63.2794
89.6231
89.6231
89.6231
111.978
96.2981
104.943
80.0181
97.3032
62.9998
62.9998
)
;
    }
    procBoundary6to4
    {
        type            processor;
        value           nonuniform List<scalar> 
27
(
113.48
97.4154
106.362
81.1773
98.6062
64.2635
90.2884
46.5152
82.0098
113.553
97.3307
106.317
81.1597
98.4134
64.1287
90.0302
46.3611
81.5006
113.361
97.1484
106.155
81.0406
98.2207
63.9471
89.7001
46.3022
81.2819
)
;
    }
    procBoundary6to7
    {
        type            processor;
        value           nonuniform List<scalar> 
12
(
26.7122
26.9595
26.6778
28.4038
28.1466
27.9188
27.8097
27.7594
27.5601
28.0158
28.107
28.1181
)
;
    }
}


// ************************************************************************* //
