/*--------------------------------*- C++ -*----------------------------------*\
| =========                 |                                                 |
| \\      /  F ield         | OpenFOAM: The Open Source CFD Toolbox           |
|  \\    /   O peration     | Version:  4.x                                   |
|   \\  /    A nd           | Web:      www.OpenFOAM.org                      |
|    \\/     M anipulation  |                                                 |
\*---------------------------------------------------------------------------*/
FoamFile
{
    version     2.0;
    format      ascii;
    class       volScalarField;
    location    "18";
    object      QPartFluid;
}
// * * * * * * * * * * * * * * * * * * * * * * * * * * * * * * * * * * * * * //

dimensions      [1 -1 -3 0 0 0 0];

internalField   nonuniform List<scalar> 
87
(
8.17222e+09
6.74236e+09
8.87454e+09
5.64653e+09
6.18367e+09
5.56479e+09
9.9443e+09
8.9966e+09
6.09898e+09
8.14393e+09
1.11658e+10
6.24659e+09
8.7609e+09
6.70388e+09
9.9632e+09
6.27819e+09
9.2669e+09
8.15206e+09
1.02951e+10
8.83441e+09
8.85135e+09
8.72777e+09
9.35063e+09
9.33095e+09
4.65031e+09
7.6107e+09
5.92646e+09
6.14289e+09
8.63694e+09
9.42592e+09
7.29516e+09
6.31201e+09
8.69332e+09
7.31839e+09
9.03228e+09
9.62283e+09
8.69309e+09
6.62906e+09
7.94918e+09
7.88584e+09
6.21939e+09
9.48284e+09
5.35229e+09
8.86401e+09
8.78708e+09
8.02687e+09
7.85574e+09
6.52705e+09
9.91725e+09
6.52533e+09
9.85142e+09
4.7877e+09
6.68781e+09
6.14119e+09
7.80211e+09
8.14249e+09
6.09761e+09
7.53188e+09
6.36685e+09
6.79387e+09
4.88908e+09
5.41137e+09
7.36529e+09
6.94687e+09
7.07719e+09
6.36948e+09
1.01129e+10
8.48487e+09
4.44597e+09
5.18106e+09
5.84132e+09
7.57304e+09
6.14746e+09
9.56733e+09
6.62052e+09
7.09732e+09
5.99036e+09
8.34678e+09
4.22154e+09
6.15877e+09
6.72284e+09
6.33205e+09
5.20369e+09
8.4424e+09
5.56487e+09
5.6355e+09
7.10772e+09
)
;

boundaryField
{
    inlet
    {
        type            calculated;
        value           uniform 0;
    }
    outlet
    {
        type            calculated;
        value           nonuniform 0();
    }
    wall
    {
        type            calculated;
        value           uniform 0;
    }
    procBoundary6to0
    {
        type            processor;
        value           uniform 2.62243e+09;
    }
    procBoundary6to2
    {
        type            processor;
        value           nonuniform List<scalar> 
32
(
5.77123e+09
8.55232e+09
1.0212e+10
9.65442e+09
5.38357e+09
7.69262e+09
4.88262e+09
9.56479e+09
1.03421e+10
7.42472e+09
8.32378e+09
6.47773e+09
7.66122e+09
7.9676e+09
7.9676e+09
7.9676e+09
5.85506e+09
7.95751e+09
1.05017e+10
6.66278e+09
9.09851e+09
7.74463e+09
1.0291e+10
1.0291e+10
1.0291e+10
4.23896e+09
6.33034e+09
7.47306e+09
7.25779e+09
6.70746e+09
6.47987e+09
6.47987e+09
)
;
    }
    procBoundary6to4
    {
        type            processor;
        value           nonuniform List<scalar> 
27
(
3.46122e+09
6.76622e+09
9.40208e+09
5.79806e+09
8.86332e+09
6.85886e+09
1.10765e+10
6.13818e+09
7.08017e+09
6.18434e+09
8.59047e+09
7.50118e+09
9.66337e+09
1.04401e+10
7.60377e+09
1.17121e+10
8.44925e+09
8.03285e+09
7.21838e+09
7.00017e+09
6.63797e+09
7.83961e+09
8.29251e+09
9.30534e+09
4.86458e+09
5.00718e+09
6.93072e+09
)
;
    }
    procBoundary6to7
    {
        type            processor;
        value           nonuniform List<scalar> 
12
(
7.83363e+09
5.26693e+09
7.03253e+09
3.85646e+09
6.03557e+09
6.74386e+09
8.65412e+09
8.10539e+09
5.9829e+09
7.14274e+09
6.2552e+09
6.05462e+09
)
;
    }
}


// ************************************************************************* //
