/*--------------------------------*- C++ -*----------------------------------*\
| =========                 |                                                 |
| \\      /  F ield         | OpenFOAM: The Open Source CFD Toolbox           |
|  \\    /   O peration     | Version:  4.x                                   |
|   \\  /    A nd           | Web:      www.OpenFOAM.org                      |
|    \\/     M anipulation  |                                                 |
\*---------------------------------------------------------------------------*/
FoamFile
{
    version     2.0;
    format      ascii;
    class       volScalarField;
    location    "18";
    object      Qsource;
}
// * * * * * * * * * * * * * * * * * * * * * * * * * * * * * * * * * * * * * //

dimensions      [1 -1 -3 0 0 0 0];

internalField   nonuniform List<scalar> 
87
(
8.17222e+09
6.74236e+09
8.87454e+09
6.49714e+09
6.6629e+09
6.43258e+09
9.9443e+09
8.9966e+09
6.09898e+09
8.14393e+09
1.11658e+10
6.24659e+09
8.7609e+09
6.70388e+09
9.9632e+09
6.27819e+09
9.2669e+09
8.15206e+09
1.02951e+10
8.83441e+09
8.85135e+09
8.72777e+09
9.35063e+09
9.33095e+09
5.46148e+09
8.03389e+09
6.73922e+09
6.56587e+09
9.44324e+09
9.82917e+09
8.09925e+09
6.70765e+09
9.49672e+09
7.31839e+09
9.03228e+09
9.62283e+09
8.69309e+09
6.62906e+09
7.94918e+09
7.88584e+09
6.21939e+09
9.48284e+09
5.35229e+09
8.86401e+09
8.78708e+09
8.02687e+09
7.85574e+09
6.52705e+09
9.91725e+09
6.52533e+09
9.85142e+09
5.59776e+09
7.12841e+09
6.96355e+09
8.25714e+09
8.96669e+09
6.55095e+09
8.36122e+09
6.82783e+09
7.63823e+09
5.69123e+09
5.82678e+09
8.16259e+09
7.33511e+09
7.86595e+09
6.73247e+09
1.08958e+10
8.82728e+09
5.23618e+09
5.98746e+09
6.28165e+09
8.38772e+09
6.59955e+09
1.03838e+10
7.06679e+09
7.9136e+09
6.4364e+09
9.16764e+09
5.84957e+09
7.09647e+09
8.40317e+09
7.38252e+09
6.94102e+09
9.5779e+09
7.34569e+09
6.81656e+09
8.89942e+09
)
;

boundaryField
{
    inlet
    {
        type            calculated;
        value           uniform 0;
    }
    outlet
    {
        type            calculated;
        value           nonuniform 0();
    }
    wall
    {
        type            calculated;
        value           uniform 0;
    }
    procBoundary6to0
    {
        type            processor;
        value           uniform 2.62243e+09;
    }
    procBoundary6to2
    {
        type            processor;
        value           nonuniform List<scalar> 
32
(
5.77123e+09
8.55232e+09
1.0212e+10
1.05107e+10
5.8724e+09
8.56033e+09
4.88262e+09
9.56479e+09
1.03421e+10
7.42472e+09
8.32378e+09
6.47773e+09
7.66122e+09
7.9676e+09
7.9676e+09
7.9676e+09
5.85506e+09
7.95751e+09
1.05017e+10
6.66278e+09
9.09851e+09
7.74463e+09
1.0291e+10
1.0291e+10
1.0291e+10
5.0509e+09
6.76476e+09
8.29716e+09
7.7098e+09
7.54424e+09
6.94486e+09
6.94486e+09
)
;
    }
    procBoundary6to4
    {
        type            processor;
        value           nonuniform List<scalar> 
27
(
3.46122e+09
6.76622e+09
9.40208e+09
5.79806e+09
8.86332e+09
6.85886e+09
1.10765e+10
6.13818e+09
7.08017e+09
6.18434e+09
8.59047e+09
7.50118e+09
9.66337e+09
1.04401e+10
7.60377e+09
1.17121e+10
8.44925e+09
8.03285e+09
8.01205e+09
7.39507e+09
7.42463e+09
8.19534e+09
9.07046e+09
9.64075e+09
5.6467e+09
5.35144e+09
7.71787e+09
)
;
    }
    procBoundary6to7
    {
        type            processor;
        value           nonuniform List<scalar> 
12
(
7.83363e+09
5.26693e+09
7.51845e+09
3.85646e+09
6.03557e+09
7.12083e+09
8.65412e+09
8.10539e+09
6.46505e+09
7.47867e+09
6.71226e+09
7.2132e+09
)
;
    }
}


// ************************************************************************* //
