/*--------------------------------*- C++ -*----------------------------------*\
| =========                 |                                                 |
| \\      /  F ield         | OpenFOAM: The Open Source CFD Toolbox           |
|  \\    /   O peration     | Version:  4.x                                   |
|   \\  /    A nd           | Web:      www.OpenFOAM.org                      |
|    \\/     M anipulation  |                                                 |
\*---------------------------------------------------------------------------*/
FoamFile
{
    version     2.0;
    format      ascii;
    class       volVectorField;
    location    "18";
    object      Urel;
}
// * * * * * * * * * * * * * * * * * * * * * * * * * * * * * * * * * * * * * //

dimensions      [0 1 -1 0 0 0 0];

internalField   nonuniform List<vector> 
87
(
(-0.020084 -9.48838e-05 0.000147155)
(-0.0193906 -0.00019547 0.00042187)
(-0.0208375 -0.000215185 0.00025402)
(-0.0218933 -0.000331397 0.000638835)
(-0.0206299 -0.000289175 0.000530306)
(-0.0219257 -0.00030415 0.000380916)
(-0.0227332 -0.000172793 0.00069911)
(-0.0205841 -0.000151136 0.00065276)
(-0.0212397 -0.000155907 0.000667568)
(-0.0193089 -0.000109772 0.000577295)
(-0.0203954 -9.81228e-05 0.000523005)
(-0.0184431 -7.05088e-05 0.000401501)
(-0.0198262 -6.88933e-05 0.000293303)
(-0.0178719 -6.47264e-05 0.000181116)
(-0.0194957 -9.30493e-05 4.21794e-05)
(-0.0229068 -0.000426593 0.000685114)
(-0.0208876 -0.000348169 0.000655361)
(-0.0216217 -0.000360636 0.000673314)
(-0.0199004 -0.000275511 0.000606679)
(-0.0209797 -0.000275244 0.000559836)
(-0.0192932 -0.000221068 0.000463376)
(-0.0205538 -0.000240751 0.000360886)
(-0.0188148 -0.000189166 0.000264237)
(-0.0202912 -0.00018902 0.000141772)
(-0.0231067 -0.000476096 0.000688838)
(-0.0212518 -0.000413879 0.00066854)
(-0.022065 -0.000409099 0.000693198)
(-0.0205897 -0.00033608 0.000647899)
(-0.0216471 -0.000321656 0.00061299)
(-0.0202134 -0.000289809 0.000530333)
(-0.0213982 -0.000331674 0.000436222)
(-0.0200312 -0.000284815 0.000363688)
(-0.0213223 -0.000294325 0.000245444)
(-0.0228042 -0.000192314 0.000311918)
(-0.0207342 -0.000158584 0.000337968)
(-0.0214084 -0.000165759 0.000328004)
(-0.019597 -0.000114317 0.000309762)
(-0.0206577 -9.80644e-05 0.000240449)
(-0.0189145 -6.79431e-05 0.000196611)
(-0.020203 -6.83369e-05 8.83839e-05)
(-0.0184382 -4.94995e-05 4.00981e-05)
(-0.0199495 -4.20355e-05 -7.26766e-05)
(-0.0229809 -0.000426578 0.000322659)
(-0.0210228 -0.000352854 0.000346176)
(-0.0217788 -0.000356526 0.000340796)
(-0.0201401 -0.000272262 0.000333941)
(-0.0212093 -0.00025357 0.000287577)
(-0.0196333 -0.000214442 0.000240729)
(-0.0208573 -0.000239965 0.000125721)
(-0.0192648 -0.0001879 9.87085e-05)
(-0.0206699 -0.000193397 -1.01655e-05)
(-0.0231609 -0.000480565 0.00034069)
(-0.0213642 -0.000421638 0.000360681)
(-0.0222033 -0.00041711 0.000351657)
(-0.0208003 -0.00034251 0.000346334)
(-0.0218548 -0.000319559 0.00030064)
(-0.0204894 -0.000285681 0.000279759)
(-0.0216565 -0.000313596 0.000211492)
(-0.0203862 -0.000272954 0.000187755)
(-0.0216553 -0.000288985 0.000111342)
(-0.0229375 -0.000203388 0.000175696)
(-0.0209901 -0.000160511 0.000207764)
(-0.0216982 -0.0001691 0.000216186)
(-0.0200326 -0.000111605 0.000213422)
(-0.0210735 -8.39654e-05 0.000180456)
(-0.019505 -5.36718e-05 0.000128042)
(-0.0207363 -5.01085e-05 3.26738e-05)
(-0.0192375 -2.58787e-05 -1.04477e-05)
(-0.0206187 -9.12988e-06 -9.47837e-05)
(-0.023099 -0.000417669 0.000181538)
(-0.0212782 -0.000354726 0.000210964)
(-0.0220739 -0.000372529 0.000212108)
(-0.0206336 -0.000291135 0.000222159)
(-0.021664 -0.000272928 0.000201255)
(-0.0202659 -0.000214426 0.00016029)
(-0.0214124 -0.000206207 7.58135e-05)
(-0.0201156 -0.000146824 5.57214e-05)
(-0.0213657 -0.00012793 -2.25623e-05)
(-0.0232523 -0.00046614 0.000202991)
(-0.021562 -0.000415146 0.000227801)
(-0.0224556 -0.000420961 0.000220839)
(-0.0212489 -0.000358548 0.000225951)
(-0.0223143 -0.000344879 0.00019897)
(-0.0211973 -0.000288411 0.000190276)
(-0.022254 -0.000267727 0.000158421)
(-0.021153 -0.000219552 0.000156726)
(-0.0222552 -0.000197601 0.000122911)
)
;

boundaryField
{
    inlet
    {
        type            calculated;
        value           nonuniform List<vector> 9((-0.0100001 9.25767e-09 1.13696e-07) (-0.0100001 -4.46743e-08 9.29531e-08) (-0.01 -1.01081e-08 1.21032e-08) (-0.00999998 -1.15393e-07 1.00914e-07) (-0.01 -2.40312e-08 9.37721e-08) (-0.00999989 -1.26323e-08 -3.83679e-08) (-0.01 -2.67702e-07 7.67165e-08) (-0.00999983 -8.9459e-08 2.79463e-08) (-0.00999949 1.09537e-07 1.64937e-08));
    }
    outlet
    {
        type            calculated;
        value           nonuniform 0();
    }
    wall
    {
        type            calculated;
        value           nonuniform List<vector> 
57
(
(2.43831e-09 -2.67702e-07 7.67165e-08)
(1.74349e-07 -8.9459e-08 2.79463e-08)
(5.08436e-07 1.09537e-07 1.64937e-08)
(-1.06237e-09 -8.68251e-08 2.93234e-08)
(2.88134e-08 -5.6368e-08 4.12579e-08)
(-1.0101e-08 -1.01026e-08 1.99012e-08)
(-1.26027e-07 -2.5049e-07 4.12757e-08)
(1.02976e-08 1.11135e-09 2.36983e-08)
(-1.91154e-08 -9.95199e-09 3.2378e-08)
(-2.32078e-07 -2.10346e-07 1.46923e-08)
(-2.03081e-07 -1.07603e-07 3.326e-08)
(-1.23635e-07 -3.57326e-08 5.65568e-09)
(-3.61608e-07 -1.81837e-07 4.98317e-08)
(-3.99035e-07 -5.65744e-08 3.79662e-08)
(-1.8424e-07 -5.3684e-08 1.03636e-08)
(-4.85038e-07 -2.0532e-07 7.64564e-08)
(-5.31963e-07 -5.70265e-08 1.52882e-07)
(-2.63911e-07 -1.52189e-08 5.22165e-08)
(-7.82551e-07 -4.34937e-07 5.0961e-08)
(-5.82095e-07 -2.14043e-07 3.79599e-08)
(-2.99647e-07 -5.71238e-08 1.90127e-08)
(-6.88186e-07 -5.89144e-07 5.41925e-08)
(-5.82066e-07 4.72201e-07 2.36602e-07)
(-2.61744e-07 -8.82928e-08 1.50706e-07)
(-1.53571e-06 -1.2784e-06 -3.07619e-07)
(-1.96484e-06 -1.47282e-06 1.56743e-07)
(8.74843e-07 -2.48759e-07 -6.4723e-09)
(-3.12895e-08 -1.01081e-08 1.21032e-08)
(1.06115e-07 -1.26323e-08 -3.83679e-08)
(5.08436e-07 1.09537e-07 1.64937e-08)
(-8.12397e-08 4.54654e-08 2.84595e-08)
(1.04278e-07 3.88194e-08 -2.5146e-08)
(-1.0101e-08 -1.01026e-08 1.99012e-08)
(-1.32414e-07 2.56706e-08 5.466e-08)
(-6.82761e-08 -1.43106e-08 6.56831e-08)
(-1.91154e-08 -9.95199e-09 3.2378e-08)
(-2.78053e-07 4.46912e-08 3.76028e-08)
(-1.29639e-07 -2.7668e-09 3.18894e-08)
(-1.23635e-07 -3.57326e-08 5.65568e-09)
(-4.13276e-07 2.58548e-09 4.76038e-08)
(-2.7464e-07 -7.57673e-09 1.65117e-08)
(-1.8424e-07 -5.3684e-08 1.03636e-08)
(-7.62373e-07 -1.55991e-08 1.3811e-07)
(-4.3521e-07 -7.55269e-09 9.52638e-08)
(-2.63911e-07 -1.52189e-08 5.22165e-08)
(-1.04412e-06 4.29009e-08 3.97093e-07)
(-1.18117e-06 -1.65568e-07 4.27484e-07)
(-3.43934e-07 -9.49708e-08 1.39013e-07)
(-2.99647e-07 -5.71238e-08 1.90127e-08)
(-3.56611e-06 -1.85459e-07 5.03496e-07)
(-1.84005e-06 -3.0183e-07 1.28462e-06)
(-3.0818e-07 -2.56703e-08 6.15342e-07)
(-2.61744e-07 -8.82928e-08 1.50706e-07)
(-8.9166e-06 -1.21998e-06 4.48438e-06)
(-7.11401e-06 8.28076e-07 1.71135e-06)
(1.17572e-06 1.34772e-06 1.23277e-05)
(8.74843e-07 -2.48759e-07 -6.4723e-09)
)
;
    }
    procBoundary6to0
    {
        type            processor;
        value           uniform (-0.0198056 5.68178e-05 0.000169219);
    }
    procBoundary6to2
    {
        type            processor;
        value           nonuniform List<vector> 
32
(
(-0.0208833 -5.0527e-05 0.000274326)
(-0.0201716 -0.000185063 0.000550539)
(-0.02164 -0.000204629 0.000358596)
(-0.022691 -0.000330406 0.000809499)
(-0.021536 -0.000279186 0.000656535)
(-0.0228238 -0.000293425 0.000487594)
(-0.0228219 -0.000165513 0.00105147)
(-0.020766 -0.00014626 0.000957627)
(-0.0214897 -0.000158704 0.000974172)
(-0.0197234 -0.000119741 0.000840341)
(-0.0208181 -0.000113175 0.000793817)
(-0.019092 -8.77934e-05 0.000629435)
(-0.0203856 -8.35845e-05 0.000493147)
(-0.0185748 -7.66984e-05 0.000340296)
(-0.0185748 -7.66984e-05 0.000340296)
(-0.0185748 -7.66984e-05 0.000340296)
(-0.0229763 -0.000387091 0.0010245)
(-0.0210217 -0.000326387 0.000948536)
(-0.0218085 -0.000331865 0.000965271)
(-0.0201987 -0.000262904 0.000859048)
(-0.0213092 -0.000261348 0.000810743)
(-0.019746 -0.00021582 0.000677891)
(-0.0210147 -0.000247517 0.00055422)
(-0.0210147 -0.000247517 0.00055422)
(-0.0210147 -0.000247517 0.00055422)
(-0.0231616 -0.000456196 0.00101248)
(-0.0213606 -0.000401027 0.000956805)
(-0.0222326 -0.000401061 0.00098687)
(-0.0208609 -0.000338272 0.000906735)
(-0.0219805 -0.000333573 0.000874786)
(-0.0206861 -0.000297673 0.000749684)
(-0.0206861 -0.000297673 0.000749684)
)
;
    }
    procBoundary6to4
    {
        type            processor;
        value           nonuniform List<vector> 
27
(
(-0.0227113 0.000148486 0.000699337)
(-0.020572 0.000117247 0.000649155)
(-0.0212021 0.000124665 0.000655482)
(-0.0192936 0.000115296 0.000565678)
(-0.0203373 0.000139165 0.000503352)
(-0.0184759 0.000109578 0.000386341)
(-0.0197835 0.000100175 0.00027591)
(-0.0178942 7.55969e-05 0.000158246)
(-0.0193896 3.2251e-05 1.41754e-07)
(-0.0227689 0.000147218 0.000341243)
(-0.020664 0.000120139 0.000335772)
(-0.0213155 0.000122315 0.000329526)
(-0.0194542 0.000117178 0.000301216)
(-0.0205148 0.000127152 0.000236346)
(-0.0187347 0.000117891 0.000176153)
(-0.0200471 0.000117882 5.20851e-05)
(-0.0182769 0.000105354 4.51228e-07)
(-0.0197843 0.00010501 -0.00016597)
(-0.0228789 0.000143615 0.00018522)
(-0.0208861 0.000133962 0.000195447)
(-0.0215798 0.000157149 0.000192083)
(-0.0198572 0.000141773 0.000186142)
(-0.0209247 0.000147691 0.000147382)
(-0.0193319 0.000134258 9.65778e-05)
(-0.0206072 0.00013765 -4.41093e-06)
(-0.0191252 0.000128925 -4.64105e-05)
(-0.0205402 0.000131061 -0.00015507)
)
;
    }
    procBoundary6to7
    {
        type            processor;
        value           nonuniform List<vector> 
12
(
(-0.0182802 -9.53464e-05 6.3098e-05)
(-0.0192191 -0.000187646 0.000157286)
(-0.0206882 -0.00027763 0.000294027)
(-0.0176239 -6.17258e-05 -1.3616e-05)
(-0.0185765 -0.000169383 7.30874e-05)
(-0.0199916 -0.000263424 0.000192467)
(-0.0182008 -4.44681e-05 -8.12338e-05)
(-0.0190674 -0.000165955 -1.34487e-05)
(-0.0204594 -0.00025427 8.57419e-05)
(-0.0192228 -5.19018e-06 -8.62575e-05)
(-0.0201442 -0.000120983 1.63104e-06)
(-0.0211607 -0.000184579 0.000129508)
)
;
    }
}


// ************************************************************************* //
