/*--------------------------------*- C++ -*----------------------------------*\
| =========                 |                                                 |
| \\      /  F ield         | OpenFOAM: The Open Source CFD Toolbox           |
|  \\    /   O peration     | Version:  4.x                                   |
|   \\  /    A nd           | Web:      www.OpenFOAM.org                      |
|    \\/     M anipulation  |                                                 |
\*---------------------------------------------------------------------------*/
FoamFile
{
    version     2.0;
    format      ascii;
    class       volVectorField;
    location    "60";
    object      GField;
}
// * * * * * * * * * * * * * * * * * * * * * * * * * * * * * * * * * * * * * //

dimensions      [1 -2 -1 0 0 0 0];

internalField   nonuniform List<vector> 
108
(
(72.5013 -1.27841 -0.749096)
(129.131 -1.28849 -1.48199)
(74.5013 -1.55009 -0.79535)
(137.543 -2.49925 0.25474)
(72.2757 -5.62251 -1.34856)
(147.551 -4.52392 4.38297)
(59.2238 -14.8096 -5.23682)
(161.365 0.75874 10.5643)
(29.0634 -37.5242 -17.1398)
(54.256 -1.50124 -0.502803)
(112.608 -0.901703 -0.334739)
(47.9163 -1.48541 -0.612244)
(111.862 -0.749678 3.13604)
(34.5352 -1.3804 -0.406714)
(102.854 0.199474 7.89034)
(11.4547 -0.335233 -0.259788)
(75.8983 0.0540876 9.54568)
(3.75461e-05 2.87549e-06 -1.37197e-06)
(71.6879 1.99079 0.382726)
(126.743 2.56598 0.173376)
(72.4852 2.70954 1.94296)
(134.523 2.57163 2.38804)
(69.3124 7.27666 4.49409)
(145.389 2.35366 6.18684)
(57.1998 17.5889 6.08387)
(165.897 -8.78577 8.49755)
(31.1994 45.963 0.196232)
(90.8516 -2.15582 0.269065)
(139.055 -1.91945 0.13691)
(92.5178 -4.36696 1.55787)
(143.972 -3.39854 1.74147)
(89.596 -5.92033 3.20086)
(153.289 -3.48821 4.28042)
(79.5607 -7.66926 6.16734)
(171.778 -3.25829 8.62514)
(43.4811 -3.74366 -29.2529)
(21.5594 0.127318 -1.64404)
(102.466 0.596461 -1.16554)
(18.6543 0.276809 -2.06432)
(106.816 0.364168 1.80466)
(16.4417 0.204005 -3.34917)
(112.857 -1.23451 7.42215)
(15.332 -0.136719 -7.40807)
(119.383 -3.66241 19.8067)
(17.8062 -3.10363 -34.2085)
(7.16998 -0.114345 -1.01231)
(93.8994 0.900372 0.672683)
(1.66812 0.0304159 -0.39105)
(93.2764 0.540566 2.73835)
(0.855625 0.0747721 -0.299997)
(89.2607 -1.06483 5.69889)
(2.79378 0.816002 -1.17632)
(74.5693 -8.65973 9.1669)
(11.4194 9.59414 -4.71417)
(32.0308 1.47479 -3.11009)
(106.752 2.25191 -2.31028)
(32.5225 2.69998 -4.44236)
(115.05 -0.247659 0.656507)
(34.8267 6.65467 -7.90725)
(129.038 -3.95453 6.42596)
(36.9332 17.7622 -15.8195)
(150.778 -14.4511 17.0561)
(24.7057 58.9168 -46.7195)
(64.0904 -1.79696 -4.30563)
(120.47 -1.53416 -3.55493)
(63.4625 -3.92587 -5.71387)
(125.403 -3.25072 -2.40955)
(58.5645 -5.84362 -8.33988)
(135.691 -4.05845 1.44241)
(49.2892 -6.34016 -11.5024)
(162.152 -1.83467 12.8271)
(29.6003 6.00863 -58.9888)
(12.0632 -1.13319 -2.26277)
(93.7369 -0.75619 -0.668172)
(9.88125 -1.45864 -2.56315)
(95.043 -1.71441 0.487561)
(10.634 -2.86154 -4.45537)
(94.2732 -2.13482 3.50476)
(12.8821 -5.29118 -8.25328)
(86.1668 3.45932 11.3021)
(24.2243 -13.1259 -28.5161)
(3.1511e-05 -2.73177e-06 -3.92958e-06)
(84.4991 -0.693198 1.40543)
(2.93868e-05 -2.29647e-06 -4.20638e-06)
(83.8125 0.10558 1.96537)
(2.78445e-05 -3.73618e-06 -5.46646e-06)
(81.2011 2.70847 5.62764)
(2.79171e-05 -2.46484e-06 -6.54926e-06)
(69.612 3.80634 8.18909)
(11.7698 -0.602199 -1.6143)
(2.477 0.240518 -0.130473)
(92.3437 -0.720342 -0.193342)
(3.23787e-05 5.6123e-06 -2.31033e-06)
(93.8815 -0.987713 0.985588)
(3.53583 1.0655 -0.669077)
(95.4386 -0.883767 3.52522)
(14.6425 7.86088 -4.94912)
(91.6618 -6.77569 9.77137)
(30.7474 34.2252 -21.7356)
(43.1579 -0.341324 -2.01971)
(104.921 -1.12216 -0.804402)
(39.2949 -1.2161 -2.18151)
(105.708 -3.19509 0.484815)
(33.0298 -0.74001 -3.46735)
(108.588 -3.8916 2.4056)
(26.0881 1.12991 -5.80871)
(122.557 -3.21721 8.30564)
(18.4838 10.8286 -16.3604)
)
;

boundaryField
{
    inlet
    {
        type            calculated;
        value           nonuniform 0();
    }
    outlet
    {
        type            calculated;
        value           nonuniform List<vector> 
12
(
(60.6595 -78.3184 -35.7733)
(7.87059e-05 6.02773e-06 -2.87598e-06)
(65.1014 95.9075 0.409464)
(89.1289 -7.67386 -59.9634)
(38.2974 -6.67524 -73.5752)
(24.4914 20.5768 -10.1106)
(52.9433 126.256 -100.118)
(63.001 12.7887 -125.551)
(52.8177 -28.6193 -62.1754)
(25.6364 -1.31168 -3.51618)
(66.785 74.3389 -47.2109)
(40.2836 23.6 -35.656)
)
;
    }
    wall
    {
        type            calculated;
        value           uniform (0 0 0);
    }
    procBoundary3to1
    {
        type            processor;
        value           nonuniform List<vector> 
27
(
(66.165 0.416131 -2.25952)
(121.138 0.858612 -2.3666)
(64.5251 1.65105 -2.98084)
(125.051 1.91861 -0.169306)
(61.1435 0.90389 -6.29862)
(134.176 2.175 4.0755)
(54.8586 -2.92283 -14.0583)
(157.229 3.94529 14.4853)
(34.2118 -13.3025 -38.5032)
(8.15903 0.394661 -0.565672)
(94.9435 1.03733 0.612791)
(1.19789 0.114847 -0.129398)
(94.4705 1.30613 2.3751)
(3.47127e-05 3.04275e-06 -6.58359e-06)
(90.1531 0.317571 5.71823)
(7.64167 0.654677 -3.05396)
(82.1245 -1.23263 13.1353)
(30.4666 1.46259 -37.0731)
(5.68017 -0.317772 -1.28004)
(91.0132 0.0362464 0.593237)
(3.98022 -0.307407 -1.35011)
(91.463 1.59727 0.347089)
(5.83905 -0.914032 -2.76811)
(91.4957 2.98185 1.52445)
(12.7352 -4.58855 -7.63773)
(86.8003 8.66244 7.84939)
(27.616 -21.3178 -17.6141)
)
;
    }
    procBoundary3to2
    {
        type            processor;
        value           nonuniform List<vector> 
12
(
(122.836 -0.883555 -2.37913)
(112.314 -0.807486 -2.382)
(121.394 2.42234 -1.11235)
(133.235 -0.511564 -0.964296)
(98.4149 0.166695 -2.23663)
(93.7109 0.43596 -0.697321)
(102.551 3.33913 -4.13787)
(116.515 -0.125534 -4.49022)
(92.6327 -0.147926 -2.03954)
(85.8546 -1.63088 0.196133)
(90.9248 -0.423184 -0.344094)
(103.454 0.539169 -1.48799)
)
;
    }
    procBoundary3to7
    {
        type            processor;
        value           nonuniform List<vector> 
36
(
(6.22616 0.72132 -1.04267)
(89.0802 1.2058 -0.402839)
(4.37907 0.985443 -1.22436)
(88.8885 1.75223 -0.126968)
(1.19988 0.383966 -0.492282)
(86.5979 2.34932 2.23787)
(0.358554 0.159378 -0.201256)
(75.0801 -4.07766 9.33232)
(10.1191 4.19498 -5.65776)
(0.359717 0.0461465 -0.0466821)
(87.1967 0.681597 -0.439626)
(3.1308e-05 5.57813e-06 -4.87393e-06)
(85.4246 0.143346 0.709146)
(2.11107 0.659882 -0.250132)
(81.8381 -2.07304 2.93623)
(12.587 6.72086 -0.947287)
(73.2242 -9.05178 4.81427)
(28.7897 31.4025 2.17183)
(28.7006 2.85453 -2.25377)
(99.9564 1.5347 -0.936492)
(28.1925 3.94536 -3.62331)
(104.599 -0.182495 -1.69126)
(27.2461 6.7 -6.01751)
(110.309 -5.88779 -1.42428)
(24.5912 11.9596 -9.93791)
(118.548 -17.1995 4.05766)
(17.3973 27.9727 -15.7505)
(50.9085 -1.63894 -3.92465)
(109.467 -1.12029 -3.67175)
(49.3136 -2.25817 -5.34079)
(112.896 -1.72837 -2.83263)
(45.1602 -2.78971 -8.17799)
(116.197 -1.67605 0.67169)
(34.6255 -2.90258 -13.6314)
(122.803 0.389136 7.00135)
(18.2134 -1.6392 -26.8424)
)
;
    }
}


// ************************************************************************* //
