/*--------------------------------*- C++ -*----------------------------------*\
| =========                 |                                                 |
| \\      /  F ield         | OpenFOAM: The Open Source CFD Toolbox           |
|  \\    /   O peration     | Version:  4.x                                   |
|   \\  /    A nd           | Web:      www.OpenFOAM.org                      |
|    \\/     M anipulation  |                                                 |
\*---------------------------------------------------------------------------*/
FoamFile
{
    version     2.0;
    format      ascii;
    class       volScalarField;
    location    "60";
    object      p;
}
// * * * * * * * * * * * * * * * * * * * * * * * * * * * * * * * * * * * * * //

dimensions      [1 -1 -2 0 0 0 0];

internalField   nonuniform List<scalar> 
108
(
5651.94
5708.4
5631.96
5702.69
5610.82
5698.73
5587.73
5697.41
5560.9
5653.2
5708.93
5633.95
5703.13
5614.77
5698.07
5596.49
5693.08
5581.29
5652.24
5708.44
5632.45
5702.74
5611.47
5698.64
5588.31
5697.9
5560.01
5653.19
5708.69
5633.47
5702.91
5612.74
5698.53
5590.26
5697.27
5562.84
3773.96
3830.74
3754.04
3824.6
3733.37
3819.69
3712.78
3816.76
3690.55
3775.26
3831.05
3756.22
3824.44
3737.36
3818.43
3719.5
3812.65
3704.18
3774.26
3830.56
3753.93
3824.53
3732.36
3819.91
3708.83
3818.85
3681.7
3774.79
3830.71
3755.08
3824.8
3734.08
3820.05
3710.99
3818.27
3682.12
1897.1
1952.7
1877.68
1946.28
1858.1
1941.03
1839.03
1936.96
1821.89
1899.33
1952.91
1881.26
1946.68
1863.51
1940.98
1845.91
1934.73
1829.8
1897.82
1952.87
1878.69
1946.29
1859.55
1940.4
1840.13
1935.87
1822.81
1898
1953.09
1879.1
1946.91
1859.59
1941.19
1839.05
1936.69
1816.64
)
;

boundaryField
{
    inlet
    {
        type            calculated;
        value           nonuniform 0();
    }
    outlet
    {
        type            calculated;
        value           nonuniform List<scalar> 
12
(
5633.74
5633.74
5633.74
5633.74
3755.83
3755.83
3755.83
3755.83
1877.91
1877.91
1877.91
1877.91
)
;
    }
    wall
    {
        type            calculated;
        value           nonuniform List<scalar> 
63
(
6590.9
6592.16
6591.2
6592.15
6647.36
6647.88
6647.4
6647.65
6570.92
6572.9
6571.41
6572.42
6641.65
6642.08
6641.7
6641.87
6549.78
6553.73
6550.42
6551.69
6637.69
6637.03
6637.6
6637.48
6526.69
6535.45
6527.27
6529.22
6636.37
6632.03
6636.86
6636.22
6499.83
6520.15
6498.94
6515.78
5653.19
3774.79
1898
5708.69
3830.71
1953.09
5633.47
3755.08
1879.1
5702.91
3824.8
1946.91
5612.74
3734.08
1859.59
5698.53
3820.05
1941.19
5590.26
3710.99
1839.05
5697.27
3818.27
1936.69
5562.84
3682.12
1816.64
)
;
    }
    procBoundary3to1
    {
        type            processor;
        value           nonuniform List<scalar> 
27
(
5652.96
5708.8
5633.59
5702.7
5613.18
5697.57
5591.17
5694.61
5565.08
3775.34
3831.21
3756.44
3824.46
3737.43
3817.85
3718.63
3811.48
3703.66
1898
1952.81
1879.27
1946.37
1860.1
1940.55
1840.95
1935.86
1823.7
)
;
    }
    procBoundary3to2
    {
        type            processor;
        value           nonuniform List<scalar> 
12
(
5715.01
5715.47
5715.02
5715.12
3837.47
3838
3837.37
3837.35
1959.56
1959.68
1959.92
1959.81
)
;
    }
    procBoundary3to7
    {
        type            processor;
        value           nonuniform List<scalar> 
36
(
20.6285
74.8988
1.78122
68.4795
-17.0304
62.67
-35.7793
57.9278
-52.0953
20.9503
74.9229
2.17953
68.1824
-16.1452
61.2015
-33.8714
54.7047
-49.3268
19.0822
74.7661
-0.663766
68.4762
-21.0225
63.1952
-42.6768
60.4843
-65.2604
19.652
74.84
0.0975332
68.6162
-20.0402
63.2549
-41.3706
60.021
-63.8253
)
;
    }
}


// ************************************************************************* //
