/*--------------------------------*- C++ -*----------------------------------*\
| =========                 |                                                 |
| \\      /  F ield         | OpenFOAM: The Open Source CFD Toolbox           |
|  \\    /   O peration     | Version:  4.x                                   |
|   \\  /    A nd           | Web:      www.OpenFOAM.org                      |
|    \\/     M anipulation  |                                                 |
\*---------------------------------------------------------------------------*/
FoamFile
{
    version     2.0;
    format      ascii;
    class       volScalarField;
    location    "60";
    object      p_rgh;
}
// * * * * * * * * * * * * * * * * * * * * * * * * * * * * * * * * * * * * * //

dimensions      [1 -1 -2 0 0 0 0];

internalField   nonuniform List<scalar> 
108
(
18.1999
74.6605
-1.78214
68.9458
-22.9185
64.9886
-46.0096
63.6675
-72.6734
19.4587
75.1848
0.204708
69.3838
-18.9721
64.3273
-37.2545
59.3347
-52.4513
18.501
74.697
-1.29086
68.999
-22.2758
64.9001
-45.4345
64.157
-73.5647
19.4493
74.9507
-0.277076
69.1719
-21.0052
64.7832
-43.4801
63.5243
-154.789
18.1348
74.9127
-1.79123
68.769
-22.4556
63.8595
-43.0497
60.9307
-65.2436
19.4274
75.2242
0.392638
68.6122
-18.471
62.5971
-36.3242
56.8207
-51.6355
18.4331
74.7342
-1.89834
68.6996
-23.4684
64.0822
-47.0032
63.0256
-74.0949
18.9596
74.8863
-0.744891
68.9734
-21.7506
64.2258
-44.8431
62.4383
-73.4854
19.1822
74.7814
-0.232042
68.3639
-19.8159
63.111
-38.8802
59.0414
-56.014
21.4179
74.9942
3.3414
68.7689
-14.3996
63.0639
-32.008
56.815
-48.1057
19.9092
74.9567
0.773047
68.3793
-18.3604
62.4856
-37.7806
57.9541
-55.0889
20.0816
75.1797
1.19032
68.9934
-18.3249
63.2804
-38.8689
58.7733
-61.1986
)
;

boundaryField
{
    inlet
    {
        type            fixedFluxPressure;
        gradient        nonuniform 0();
        value           nonuniform 0();
    }
    outlet
    {
        type            fixedValue;
        value           uniform 0;
    }
    wall
    {
        type            fixedFluxPressure;
        gradient        nonuniform List<scalar> 
63
(
1.03794e-07
2.38541e-06
1.55994e-06
-8.38792e-07
-9.35335e-07
-6.5012e-07
-3.8363e-07
-8.78852e-07
-7.41766e-06
-7.50686e-06
-2.86054e-06
-6.35329e-07
-1.55751e-06
-3.06253e-06
-2.69388e-06
-9.34962e-07
-1.11166e-06
-1.76873e-06
-2.60952e-06
-2.10786e-06
1.26491e-06
6.57905e-07
5.01473e-07
1.61385e-07
1.54647e-06
-1.55698e-05
-2.49453e-06
7.93434e-07
-3.37827e-06
-5.5524e-06
-1.80762e-07
2.48549e-06
-1.32244e-05
-6.7242
8.28067e-06
5.79418e-05
-2.31596e-06
-7.08635e-07
-1.14143e-06
-1.37211e-06
-1.10256e-06
-2.49368e-07
-5.59326e-06
-1.73635e-06
2.07414e-07
-1.08872e-06
-1.04002e-06
4.53899e-07
-1.1714e-06
-2.61954e-07
-5.40921e-07
4.50677e-07
-4.68469e-08
1.46666e-07
2.06785e-06
1.21937e-06
5.1813e-07
1.81214e-06
4.53957e-07
-6.39765e-08
0.00141648
-3.02874e-07
-6.63265e-06
)
;
        value           nonuniform List<scalar> 
63
(
18.1999
19.4587
18.501
19.4493
74.6605
75.1848
74.697
74.9507
-1.78214
0.204708
-1.29086
-0.277076
68.9458
69.3838
68.999
69.1719
-22.9185
-18.9721
-22.2758
-21.0052
64.9886
64.3273
64.9001
64.7832
-46.0096
-37.2545
-45.4345
-43.4801
63.6675
59.3347
64.157
63.5243
-72.6734
-52.5473
-73.5647
-154.789
19.4493
18.9596
20.0816
74.9507
74.8863
75.1797
-0.277076
-0.744891
1.19032
69.1719
68.9734
68.9934
-21.0052
-21.7506
-18.3249
64.7832
64.2258
63.2804
-43.4801
-44.8431
-38.8689
63.5243
62.4383
58.7733
-154.789
-73.4854
-61.1986
)
;
    }
    procBoundary3to1
    {
        type            processor;
        value           nonuniform List<scalar> 
27
(
19.2151
75.0587
-0.146375
68.9556
-20.5648
63.8249
-42.5731
60.8686
-68.0361
19.5141
75.3851
0.616362
68.6361
-18.3942
62.0244
-37.203
55.6531
-52.1375
20.0857
74.9
1.35393
68.4563
-17.8166
62.6359
-36.9609
57.946
-54.2003
)
;
    }
    procBoundary3to2
    {
        type            processor;
        value           nonuniform List<scalar> 
12
(
81.2675
81.724
81.2819
81.3795
81.6428
82.1717
81.5438
81.5172
81.6416
81.7614
82.0039
81.8978
)
;
    }
    procBoundary3to7
    {
        type            processor;
        value           nonuniform List<scalar> 
36
(
20.6285
74.8988
1.78122
68.4795
-17.0304
62.67
-35.7793
57.9278
-52.0953
20.9503
74.9229
2.17953
68.1824
-16.1452
61.2015
-33.8714
54.7047
-49.3268
19.0822
74.7661
-0.663766
68.4762
-21.0225
63.1952
-42.6768
60.4843
-65.2604
19.652
74.84
0.0975332
68.6162
-20.0402
63.2549
-41.3706
60.021
-63.8253
)
;
    }
}


// ************************************************************************* //
