/*--------------------------------*- C++ -*----------------------------------*\
| =========                 |                                                 |
| \\      /  F ield         | OpenFOAM: The Open Source CFD Toolbox           |
|  \\    /   O peration     | Version:  4.x                                   |
|   \\  /    A nd           | Web:      www.OpenFOAM.org                      |
|    \\/     M anipulation  |                                                 |
\*---------------------------------------------------------------------------*/
FoamFile
{
    version     2.0;
    format      ascii;
    class       volVectorField;
    location    "60";
    object      U;
}
// * * * * * * * * * * * * * * * * * * * * * * * * * * * * * * * * * * * * * //

dimensions      [0 1 -1 0 0 0 0];

internalField   nonuniform List<vector> 
108
(
(0.0225375 -0.000397349 -0.000232876)
(0.0399658 -0.000398774 -0.000458679)
(0.0231987 -0.00048273 -0.000247593)
(0.0425261 -0.00077281 7.87749e-05)
(0.0223797 -0.00174113 -0.000417576)
(0.045598 -0.00139837 0.00135439)
(0.0184427 -0.00461236 -0.00163139)
(0.0502653 0.000235305 0.00329029)
(0.00905314 -0.0116896 -0.00533934)
(0.0168665 -0.000466508 -0.000156378)
(0.0352483 -0.000282244 -0.000104804)
(0.0149142 -0.000462374 -0.000190553)
(0.0347473 -0.000232927 0.000974147)
(0.0107419 -0.000429452 -0.000126504)
(0.0319005 6.17635e-05 0.00244722)
(0.00358113 -0.000105032 -8.12427e-05)
(0.0237395 1.6169e-05 0.00298618)
(1.36095e-08 7.39225e-10 -1.12696e-10)
(0.0222691 0.000618024 0.000118628)
(0.0394946 0.000799443 5.39841e-05)
(0.0226182 0.000845429 0.000606285)
(0.0417669 0.000798413 0.000741455)
(0.0215491 0.0022623 0.00139723)
(0.045098 0.00073011 0.00191912)
(0.0178647 0.00549361 0.00190021)
(0.0518766 -0.00274672 0.00265736)
(0.00971701 0.0143148 6.1152e-05)
(0.0279753 -0.000664358 8.31903e-05)
(0.0428587 -0.000591739 4.22794e-05)
(0.0286044 -0.0013502 0.000481672)
(0.0448217 -0.00105806 0.000542167)
(0.0278619 -0.00184107 0.000995401)
(0.0475453 -0.0010819 0.00132768)
(0.0246431 -0.00237538 0.00191032)
(0.0536119 -0.00101672 0.00269194)
(0.013303 -0.00114532 -0.00894974)
(0.00684064 4.04041e-05 -0.000521664)
(0.0324869 0.000189153 -0.000369543)
(0.0059645 8.85546e-05 -0.000660023)
(0.0341115 0.000116245 0.000576326)
(0.00523509 6.48372e-05 -0.00106641)
(0.0358797 -0.000392908 0.00235971)
(0.00489399 -4.48545e-05 -0.00236472)
(0.0381967 -0.00117227 0.00633654)
(0.00571608 -0.00099632 -0.0109814)
(0.00227306 -3.63129e-05 -0.000321018)
(0.0298164 0.000285871 0.000213566)
(0.000532125 9.61284e-06 -0.000124745)
(0.0297107 0.000172123 0.000872247)
(0.000271974 2.37225e-05 -9.53915e-05)
(0.0284193 -0.000339017 0.00181454)
(0.000896619 0.000262421 -0.000377365)
(0.0238954 -0.00277501 0.00293811)
(0.00365566 0.00307112 -0.00150883)
(0.0102105 0.000470139 -0.000991648)
(0.0339521 0.000716165 -0.000734813)
(0.0103619 0.000860178 -0.00141536)
(0.036689 -7.90152e-05 0.000209374)
(0.0110849 0.0021181 -0.00251675)
(0.0411301 -0.00126041 0.00204833)
(0.0117911 0.00567096 -0.0050503)
(0.0482451 -0.00462381 0.00545776)
(0.00790217 0.0188442 -0.0149429)
(0.0202235 -0.000566954 -0.00135831)
(0.0378882 -0.000482516 -0.00111794)
(0.0200524 -0.00124049 -0.0018054)
(0.0397294 -0.00102988 -0.000763358)
(0.0186451 -0.00186043 -0.00265512)
(0.0430228 -0.00128675 0.000457411)
(0.0156731 -0.002016 -0.00365747)
(0.0517056 -0.000584946 0.00409028)
(0.00940324 0.00190876 -0.0187389)
(0.00389692 -0.000366092 -0.000730982)
(0.0304269 -0.000245471 -0.000216897)
(0.00321431 -0.000474496 -0.000833842)
(0.0309275 -0.000557929 0.000158644)
(0.00344894 -0.000928205 -0.00144502)
(0.0306669 -0.000694672 0.00114025)
(0.00421463 -0.0017315 -0.00269952)
(0.0280981 0.00112787 0.00368553)
(0.00788328 -0.00427156 -0.00927992)
(1.01086e-08 -9.47698e-10 -1.30699e-09)
(0.0272333 -0.000223437 0.000452943)
(9.42333e-09 -7.99325e-10 -1.4098e-09)
(0.0269608 3.39147e-05 0.000632224)
(8.70681e-09 -1.29098e-09 -1.66305e-09)
(0.02644 0.00088189 0.0018326)
(9.09431e-09 -7.59117e-10 -1.51708e-09)
(0.0227897 0.00124611 0.00268119)
(0.00382642 -0.000195775 -0.000524816)
(0.000793102 7.70257e-05 -4.17389e-05)
(0.0297877 -0.00023238 -6.23682e-05)
(1.03425e-08 1.71382e-09 -7.44523e-10)
(0.0302241 -0.000318012 0.000317316)
(0.0011432 0.0003445 -0.000216283)
(0.0310732 -0.00028771 0.00114788)
(0.00476397 0.00255765 -0.00161)
(0.0298617 -0.00220736 0.00318349)
(0.00996798 0.0110954 -0.00704637)
(0.0138321 -0.000109371 -0.00064735)
(0.0333749 -0.000356958 -0.000255863)
(0.0125699 -0.000389026 -0.000697823)
(0.0339006 -0.00102467 0.000155503)
(0.0106292 -0.000238142 -0.00111577)
(0.035162 -0.00126013 0.00077906)
(0.0084533 0.000366153 -0.00188207)
(0.0398855 -0.001047 0.00270312)
(0.00601253 0.00352238 -0.00532178)
)
;

boundaryField
{
    inlet
    {
        type            fixedValue;
        value           nonuniform 0();
    }
    outlet
    {
        type            zeroGradient;
    }
    wall
    {
        type            fixedValue;
        value           uniform (0 0 0);
    }
    procBoundary3to1
    {
        type            processor;
        value           nonuniform List<vector> 
27
(
(0.0202859 0.000127557 -0.000692783)
(0.0373521 0.000264701 -0.000729782)
(0.0200053 0.00051182 -0.000924262)
(0.038923 0.000597101 -5.27125e-05)
(0.0189736 0.00028034 -0.00195456)
(0.0416218 0.000674418 0.0012643)
(0.0171116 -0.000912019 -0.00438453)
(0.0489754 0.00122918 0.00451203)
(0.0106048 -0.00412356 -0.0119354)
(0.0025697 0.000124323 -0.000178175)
(0.0298718 0.000326309 0.000192788)
(0.00037788 3.62418e-05 -4.08469e-05)
(0.0298525 0.000412677 0.000750513)
(1.12135e-08 6.3774e-10 -2.07292e-09)
(0.0287058 0.000100737 0.00182066)
(0.00244757 0.000208623 -0.000978267)
(0.0263909 -0.00039638 0.00422101)
(0.00962761 0.000462166 -0.0117157)
(0.00181965 -0.000101829 -0.000410054)
(0.0291799 1.15832e-05 0.000190253)
(0.00127588 -9.85675e-05 -0.000432719)
(0.0296628 0.000517967 0.000112562)
(0.00189623 -0.000296918 -0.000898922)
(0.0298231 0.000971729 0.000496691)
(0.00414585 -0.00149411 -0.00248724)
(0.0282145 0.00281559 0.00255123)
(0.00884117 -0.00682492 -0.00563919)
)
;
    }
    procBoundary3to2
    {
        type            processor;
        value           nonuniform List<vector> 
12
(
(0.0378095 -0.000271988 -0.00073231)
(0.0345829 -0.000248574 -0.000733456)
(0.0373804 0.000745824 -0.00034259)
(0.0405847 -0.000155968 -0.000293675)
(0.0311284 5.27001e-05 -0.000707442)
(0.0294279 0.000136899 -0.000218989)
(0.0322 0.00104845 -0.00129933)
(0.0362128 -3.9025e-05 -0.00139549)
(0.0296801 -4.74193e-05 -0.00065349)
(0.0273774 -0.000520072 6.25382e-05)
(0.0291102 -0.000135488 -0.000110174)
(0.032852 0.000171218 -0.000472515)
)
;
    }
    procBoundary3to7
    {
        type            processor;
        value           nonuniform List<vector> 
36
(
(0.00203869 0.000236168 -0.000341425)
(0.0292001 0.000395232 -0.000132059)
(0.00143274 0.000322382 -0.000400614)
(0.0292048 0.00057566 -4.17238e-05)
(0.000398573 0.000127493 -0.000163513)
(0.0288069 0.000781443 0.000744498)
(0.00011883 5.27955e-05 -6.65594e-05)
(0.0247133 -0.00134223 0.00307187)
(0.00334842 0.00138812 -0.00187215)
(0.000117194 1.50232e-05 -1.52143e-05)
(0.0286723 0.000224104 -0.000144573)
(1.01848e-08 1.73499e-09 -1.65234e-09)
(0.0280052 4.69601e-05 0.000232476)
(0.000696946 0.000217826 -8.25695e-05)
(0.0269622 -0.000682986 0.000967484)
(0.00416177 0.00222221 -0.000312971)
(0.0241535 -0.00298578 0.00158814)
(0.00951804 0.0103818 0.00071803)
(0.00925123 0.000920116 -0.000726472)
(0.032595 0.000500442 -0.000305389)
(0.00919634 0.00128696 -0.00118193)
(0.0341891 -5.96665e-05 -0.000552796)
(0.00896021 0.00220337 -0.0019789)
(0.0364474 -0.00194539 -0.000470452)
(0.00812768 0.00395281 -0.00328419)
(0.0390851 -0.00567068 0.00133794)
(0.00574141 0.00923151 -0.00519792)
(0.0164047 -0.000528131 -0.00126471)
(0.035473 -0.000363038 -0.00118985)
(0.0160955 -0.000737052 -0.00174319)
(0.0366861 -0.000561645 -0.000920463)
(0.0147831 -0.000913208 -0.00267701)
(0.0381414 -0.000550162 0.000220571)
(0.011404 -0.000955987 -0.0044894)
(0.0401913 0.000127358 0.0022915)
(0.00591548 -0.000532395 -0.00871807)
)
;
    }
}


// ************************************************************************* //
