/*--------------------------------*- C++ -*----------------------------------*\
| =========                 |                                                 |
| \\      /  F ield         | OpenFOAM: The Open Source CFD Toolbox           |
|  \\    /   O peration     | Version:  4.x                                   |
|   \\  /    A nd           | Web:      www.OpenFOAM.org                      |
|    \\/     M anipulation  |                                                 |
\*---------------------------------------------------------------------------*/
FoamFile
{
    version     2.0;
    format      ascii;
    class       volScalarField;
    location    "35.5";
    object      Cs;
}
// * * * * * * * * * * * * * * * * * * * * * * * * * * * * * * * * * * * * * //

dimensions      [1 -3 0 0 0 0 0];

internalField   nonuniform List<scalar> 
132
(
334.999
334.999
334.997
334.994
334.989
334.981
334.973
334.963
334.907
334.999
334.999
334.998
334.996
334.993
334.988
334.982
334.977
334.884
335
335
334.999
334.998
334.997
334.995
334.991
334.988
334.822
335
335
335
335
334.999
334.999
334.998
334.997
334.815
334.997
334.994
334.991
334.985
334.98
334.974
334.967
334.999
334.997
334.995
334.992
334.987
334.983
334.978
334.973
334.946
334.999
334.999
334.998
334.996
334.993
334.99
334.985
334.983
334.953
335
335
335
335
334.999
334.999
334.998
334.997
334.881
334.995
334.992
334.988
334.986
334.977
335
334.999
334.999
334.997
334.995
334.993
334.989
334.987
334.959
335
335
335
334.999
334.999
334.998
334.996
334.995
334.871
335
335
335
335
335
335
334.999
334.999
333.797
334.997
334.996
334.858
335
335
335
335
334.999
334.999
334.997
334.996
334.856
335
335
335
335
335
335
334.999
334.999
334.669
335
335
335
335
335
335
335
335
334.822
)
;

boundaryField
{
    inlet
    {
        type            calculated;
        value           nonuniform 0();
    }
    outlet
    {
        type            calculated;
        value           uniform 335;
    }
    wall
    {
        type            calculated;
        value           nonuniform List<scalar> 
66
(
335
335
335
335
335
335
335
335
335
335
335
335
334.999
335
335
334.999
335
335
334.997
334.997
334.999
335
334.996
334.996
334.999
335
334.858
334.856
334.669
334.822
335
335
335
335
335
335
335
335
335
335
335
335
335
335
335
335
334.999
334.999
335
335
334.999
334.999
335
335
334.998
334.998
334.999
335
334.997
334.997
334.999
335
334.815
334.881
333.797
334.822
)
;
    }
    procBoundary7to0
    {
        type            processor;
        value           uniform 335;
    }
    procBoundary7to1
    {
        type            processor;
        value           uniform 334.999;
    }
    procBoundary7to3
    {
        type            processor;
        value           nonuniform List<scalar> 
36
(
334.999
334.997
334.992
334.986
334.976
334.968
334.956
334.956
334.883
335
334.999
334.998
334.995
334.991
334.985
334.976
334.972
334.86
335
334.999
334.998
334.997
334.994
334.99
334.985
334.983
334.875
335
335
335
335
334.999
334.999
334.997
334.997
334.741
)
;
    }
    procBoundary7to5
    {
        type            processor;
        value           nonuniform List<scalar> 
44
(
334.999
334.997
334.995
334.991
334.985
334.978
334.97
334.869
334.999
334.998
334.998
334.996
334.993
334.989
334.984
334.981
334.968
334.999
334.998
334.998
334.999
334.997
334.997
334.995
334.992
334.991
334.978
335
334.999
334.999
334.997
334.997
334.999
334.999
334.998
334.998
334.865
335
335
335
335
334.999
334.999
334.999
)
;
    }
    procBoundary7to6
    {
        type            processor;
        value           nonuniform List<scalar> 
12
(
335
335
335
334.999
335
335
335
335
335
335
335
335
)
;
    }
}


// ************************************************************************* //
