/*--------------------------------*- C++ -*----------------------------------*\
| =========                 |                                                 |
| \\      /  F ield         | OpenFOAM: The Open Source CFD Toolbox           |
|  \\    /   O peration     | Version:  4.x                                   |
|   \\  /    A nd           | Web:      www.OpenFOAM.org                      |
|    \\/     M anipulation  |                                                 |
\*---------------------------------------------------------------------------*/
FoamFile
{
    version     2.0;
    format      ascii;
    class       volScalarField;
    location    "35.5";
    object      p_rgh;
}
// * * * * * * * * * * * * * * * * * * * * * * * * * * * * * * * * * * * * * //

dimensions      [1 -1 -2 0 0 0 0];

internalField   nonuniform List<scalar> 
132
(
22.0488
74.3605
3.73484
67.6689
-14.5288
61.7842
-32.7217
56.0751
-48.8135
21.6609
74.2365
3.29052
67.1838
-14.7139
60.4024
-32.3391
54.0161
-48.0835
20.0099
74.2476
0.724007
67.5893
-18.9671
61.7946
-39.6576
58.2822
-61.0072
20.3124
74.2525
1.14927
67.7759
-18.5028
62.104
-39.2099
58.3279
-60.3325
4.12271
67.5433
-14.1397
61.6711
-32.183
55.5653
-48.8331
23.0174
74.2462
5.23654
67.5869
-12.7013
61.5832
-30.7368
55.4103
-48.7775
21.2377
74.2621
2.98498
67.5618
-14.8191
61.5142
-32.1387
55.1855
-46.785
21.0957
74.4694
2.5664
67.98
-16.0615
61.9212
-34.6131
56.5138
-52.7181
-16.808
61.0919
-35.7465
55.8521
-53.3486
21.647
74.2799
3.38364
67.4351
-14.6142
60.459
-32.0944
53.5028
-47.902
21.0754
74.3264
2.22991
67.5749
-17.2626
61.5789
-37.9696
57.4406
-61.897
21.1701
74.3288
2.55174
67.7894
-16.4637
61.8873
-35.9408
57.3348
-69.8644
-38.5981
57.9727
-64.3832
21.479
74.4481
2.93412
67.6858
-16.0729
61.3481
-35.1347
55.8261
-56.8746
21.2146
74.3834
2.72602
67.9048
-16.2545
62.0403
-35.5635
57.3915
-61.0185
21.4033
74.3861
2.9321
67.9252
-15.6655
61.835
-33.8938
56.3193
-53.4158
)
;

boundaryField
{
    inlet
    {
        type            fixedFluxPressure;
        gradient        nonuniform 0();
        value           nonuniform 0();
    }
    outlet
    {
        type            fixedValue;
        value           uniform 0;
    }
    wall
    {
        type            fixedFluxPressure;
        gradient        nonuniform List<scalar> 
66
(
-1.97229e-05
-1.56011e-05
-4.80206e-06
-9.94785e-06
-3.1172e-07
-2.41743e-06
-4.3193e-05
-1.45319e-05
-9.05639e-06
-1.74965e-06
1.17467e-06
-4.54629e-07
-3.07239e-05
-1.94273e-06
-3.79478e-06
-1.87889e-05
-4.70481e-06
1.10941e-06
-4.75071e-05
-9.85313e-05
-1.57608e-05
-4.94327e-06
-2.22534e-05
-1.70314e-05
-7.61912e-06
-4.61594e-06
-5.38401e-05
-0.000103666
-3.14859e-05
-9.47533e-06
-2.84193e-05
-2.83477e-05
-2.34178e-05
-2.78449e-05
-1.13538e-05
-9.91991e-06
-8.91122e-06
-5.35554e-06
-6.06016e-06
-6.19556e-06
-2.33497e-05
-1.49185e-05
-5.43799e-06
-1.48765e-05
-9.13533e-06
-8.00831e-06
1.89265e-05
-3.56411e-06
-1.10044e-05
-0.00173014
1.0161e-05
-1.12606e-06
-5.44788e-07
-2.91811e-06
4.20301e-05
-4.57921e-06
-1.06419e-05
-3.41104e-06
2.00721e-05
1.79752e-05
5.5947e-06
2.89715e-06
-0.000189594
-0.000669197
-5.82777e-07
-5.24362e-05
)
;
        value           nonuniform List<scalar> 
66
(
21.479
21.2146
21.4033
74.4481
74.3834
74.3861
2.93412
2.72602
2.9321
67.6858
67.9048
67.9252
-16.0729
-16.2545
-15.6655
61.3481
62.0403
61.835
-38.5981
-35.1347
-35.5635
-33.8938
57.9727
55.8261
57.3915
56.3193
-64.3832
-56.8746
-61.0185
-53.4158
20.3124
21.0957
21.1701
21.4033
74.2525
74.4694
74.3288
74.3861
1.14927
2.5664
2.55174
2.9321
67.7759
67.98
67.7894
67.9252
-18.5028
-16.0615
-16.4637
-15.6655
62.104
61.9212
61.8873
61.835
-39.2099
-34.6131
-35.9408
-33.8938
58.3279
56.5138
57.3348
56.3193
-60.3325
-52.7182
-69.8644
-53.4158
)
;
    }
    procBoundary7to0
    {
        type            processor;
        value           uniform 81.3786;
    }
    procBoundary7to1
    {
        type            processor;
        value           uniform 22.6029;
    }
    procBoundary7to3
    {
        type            processor;
        value           nonuniform List<scalar> 
36
(
19.8154
74.1858
0.981671
67.6272
-17.7064
62.2063
-35.8654
57.7167
-51.7382
20.9341
74.2331
2.7552
67.7081
-14.9088
62.4502
-32.481
56.6732
-48.1816
19.8717
74.292
0.754948
67.4746
-18.422
61.6144
-37.9615
57.3287
-54.7968
19.9576
74.1953
0.913954
67.933
-19.0109
62.5905
-40.611
59.3266
-64.9739
)
;
    }
    procBoundary7to5
    {
        type            processor;
        value           nonuniform List<scalar> 
44
(
74.4849
5.0886
67.717
-12.2171
60.9701
-28.5831
52.9438
-43.9402
22.0585
74.1985
3.2461
67.4579
-15.2726
61.4486
-34.2227
56.509
-51.798
22.0585
74.1985
74.1985
2.20585
67.3579
-15.6413
60.4669
-33.4365
53.6126
-49.1949
21.0141
74.3259
2.20585
67.3579
67.3579
-17.7225
61.9191
-39.0225
57.8285
-65.304
20.8624
74.2931
1.95611
67.763
-17.7225
61.9191
61.9191
)
;
    }
    procBoundary7to6
    {
        type            processor;
        value           nonuniform List<scalar> 
12
(
81.5787
81.3032
81.2115
81.3185
81.5337
81.3768
81.7722
81.4817
81.3311
81.4626
81.3259
81.2746
)
;
    }
}


// ************************************************************************* //
