/*--------------------------------*- C++ -*----------------------------------*\
| =========                 |                                                 |
| \\      /  F ield         | OpenFOAM: The Open Source CFD Toolbox           |
|  \\    /   O peration     | Version:  4.x                                   |
|   \\  /    A nd           | Web:      www.OpenFOAM.org                      |
|    \\/     M anipulation  |                                                 |
\*---------------------------------------------------------------------------*/
FoamFile
{
    version     2.0;
    format      ascii;
    class       surfaceScalarField;
    location    "35.5";
    object      phi;
}
// * * * * * * * * * * * * * * * * * * * * * * * * * * * * * * * * * * * * * //

dimensions      [0 3 -1 0 0 0 0];

internalField   nonuniform List<scalar> 
308
(
5.10553e-06
1.03849e-08
5.16689e-06
1.02412e-07
5.14064e-06
7.69239e-09
-6.05415e-12
5.21342e-06
1.6707e-07
1.31638e-07
5.06388e-06
1.32973e-07
-2.81433e-12
5.1479e-06
1.55581e-07
3.68186e-07
4.47607e-06
5.90988e-07
-4.96155e-12
5.57662e-06
-6.69608e-07
6.264e-07
2.0665e-06
3.13635e-07
5.18292e-06
1.27175e-07
-1.08186e-08
5.26923e-06
7.1339e-08
-1.39319e-08
5.1134e-06
1.64144e-07
-7.02784e-09
5.60978e-06
-6.86917e-08
-3.20116e-08
5.34246e-06
4.01138e-07
-6.51119e-08
6.25418e-06
-2.97904e-07
1.32822e-07
5.67972e-06
1.16403e-06
-1.36649e-07
6.81827e-06
-1.26992e-06
5.11625e-07
3.10108e-06
1.81975e-07
6.82397e-06
8.7305e-08
-1.12362e-07
6.86523e-06
2.5455e-08
-3.1306e-08
6.90535e-06
1.04923e-07
-1.56485e-07
7.07569e-06
-1.63392e-07
-6.161e-08
7.20356e-06
2.09826e-07
-2.66062e-07
7.52564e-06
-4.32807e-07
-4.79952e-09
7.82458e-06
5.25281e-07
-5.13839e-07
7.85908e-06
-9.31039e-07
5.74229e-07
1.26766e-06
-6.44405e-07
9.31152e-06
-3.45227e-07
9.28845e-06
-2.40877e-07
9.30123e-06
-4.61752e-07
9.1617e-06
-2.30786e-07
9.16063e-06
-6.31311e-07
8.81891e-06
-7.73967e-08
8.9463e-06
-9.63808e-07
8.23457e-06
5.79946e-07
-1.12488e-06
5.14682e-06
-1.66599e-12
5.21858e-06
-3.27553e-08
5.05493e-06
-4.14315e-13
1.62663e-07
5.13851e-06
7.00667e-09
2.50024e-07
4.4962e-06
-5.22334e-13
5.24788e-07
5.80954e-06
2.49396e-07
-3.14837e-07
-3.25763e-07
2.55443e-06
5.03311e-06
5.92985e-09
2.28103e-11
5.09276e-06
-5.7562e-08
-6.03506e-08
5.08573e-06
7.98159e-13
-1.06875e-12
5.1563e-06
-8.37054e-08
-5.16284e-08
5.09118e-06
1.05248e-12
1.20805e-11
5.17323e-06
-3.22051e-08
8.99748e-08
4.93998e-06
1.15765e-12
9.66053e-08
5.64897e-06
-1.69086e-07
2.21118e-07
1.87223e-07
8.80523e-07
5.21531e-06
4.05981e-08
4.11473e-09
5.26561e-06
-9.46616e-08
-4.45071e-08
5.04966e-06
4.49114e-08
1.45501e-08
5.12277e-06
-1.6524e-07
-5.31789e-08
4.64365e-06
1.09221e-07
1.03832e-07
4.72712e-06
-1.2734e-07
6.86839e-09
3.72574e-06
1.90544e-07
2.96999e-07
4.86494e-06
-5.48076e-07
-1.85983e-07
5.71328e-07
1.17424e-06
8.10494e-06
-1.77366e-07
7.8439e-06
-7.45023e-08
7.66447e-06
-2.3741e-07
7.35769e-06
-8.92405e-08
7.10443e-06
-2.68836e-07
6.93282e-06
-3.31195e-08
6.51485e-06
-3.55303e-07
6.32965e-06
2.17072e-07
5.35768e-07
6.09871e-06
-4.52291e-08
6.71513e-06
-1.58677e-07
6.24129e-06
-7.47853e-08
8.80666e-07
7.20154e-06
-3.92866e-07
-7.22723e-07
6.06301e-07
3.29772e-06
5.17274e-06
5.50436e-08
3.67975e-08
5.23494e-06
1.84494e-08
-8.43872e-08
5.10818e-06
6.6495e-08
4.34485e-08
5.18119e-06
-1.05426e-07
-5.32897e-08
4.86506e-06
1.41638e-07
1.29272e-07
5.23281e-06
-3.7991e-07
-5.6544e-08
4.56275e-06
3.53628e-07
3.38257e-07
6.12379e-06
-1.21329e-06
-5.19501e-07
1.72485e-06
1.45335e-06
6.90667e-06
5.93158e-08
8.83198e-10
6.91471e-06
1.59265e-08
-5.00192e-08
7.03953e-06
1.81253e-08
-6.19032e-08
7.20038e-06
-1.29791e-07
-1.89666e-07
7.49647e-06
6.14697e-09
-5.67668e-08
7.78622e-06
-4.06836e-07
-2.55956e-07
8.42273e-06
2.39801e-08
-9.86028e-09
8.48143e-06
-9.46229e-07
-5.11746e-07
4.98168e-07
8.0687e-07
9.31269e-06
-8.8033e-08
9.29582e-06
-4.17127e-08
9.22016e-06
-1.43615e-07
9.09817e-06
-9.70446e-08
9.06455e-06
-2.29071e-07
8.70624e-06
-8.16481e-08
8.82558e-06
-4.50663e-07
7.96754e-06
1.28888e-07
1.85742e-07
9.86653e-06
-7.61128e-07
9.38074e-06
2.96441e-07
-1.4853e-06
7.80186e-06
-5.59926e-09
7.58224e-06
6.86112e-09
7.45358e-06
-5.9851e-08
7.33176e-06
-1.00753e-07
7.27026e-06
-1.86186e-07
7.29158e-06
-2.14857e-07
7.27273e-06
-4.04023e-07
7.17682e-06
-1.27152e-07
-8.43802e-07
9.10522e-06
1.56052e-08
9.0329e-06
2.91607e-08
8.92717e-06
-1.60224e-08
8.69695e-06
-6.01981e-08
8.60322e-06
-1.49217e-07
8.26314e-06
-1.30741e-07
8.25086e-06
-4.01601e-07
7.65455e-06
-4.25852e-08
-1.12387e-06
1.04233e-05
1.04107e-05
1.02511e-05
1.00939e-05
9.71556e-06
9.50317e-06
8.65091e-06
8.73721e-06
)
;

boundaryField
{
    inlet
    {
        type            calculated;
        value           nonuniform 0();
    }
    outlet
    {
        type            calculated;
        value           nonuniform List<scalar> 
16
(
2.5261e-06
5.74582e-06
8.67842e-06
8.336e-06
3.14308e-06
4.43743e-06
2.66219e-06
5.24033e-06
4.94211e-06
4.43241e-06
1.00755e-05
8.81573e-06
1.28186e-05
7.98868e-06
8.74149e-06
7.79908e-06
)
;
    }
    wall
    {
        type            calculated;
        value           nonuniform List<scalar> 
66
(
0
-4.93038e-32
0
0
0
0
0
0
0
0
0
0
-9.86076e-32
0
0
0
0
0
0
0
4.93038e-32
0
0
0
0
0
0
0
0
0
0
0
0
0
0
0
0
0
0
0
0
0
0
0
0
0
0
0
0
0
0
0
0
0
0
0
0
0
0
0
0
0
0
0
0
0
)
;
    }
    procBoundary7to0
    {
        type            processor;
        value           uniform -5.17097e-06;
    }
    procBoundary7to1
    {
        type            processor;
        value           uniform 3.72813e-13;
    }
    procBoundary7to3
    {
        type            processor;
        value           nonuniform List<scalar> 
36
(
5.50589e-08
-1.54312e-08
1.85585e-08
-1.56944e-07
1.65744e-08
-4.51169e-07
7.59907e-08
-1.42218e-06
9.52799e-07
3.96966e-08
-4.1306e-08
6.41476e-09
-2.28608e-07
6.42638e-08
-5.91053e-07
1.38056e-07
-1.04986e-06
-1.44117e-07
1.4835e-07
3.59315e-08
1.75589e-07
-1.40318e-08
3.29507e-07
-1.8238e-07
8.53647e-07
-9.47613e-07
1.65849e-06
4.19847e-07
2.89401e-07
5.53894e-07
2.06926e-07
8.42207e-07
-1.36891e-08
1.3617e-06
-7.99254e-07
2.29111e-06
)
;
    }
    procBoundary7to5
    {
        type            processor;
        value           nonuniform List<scalar> 
44
(
-1.69375e-07
-1.28904e-12
-2.1454e-07
-2.55251e-12
-1.56623e-07
4.86397e-09
3.64832e-07
-2.82408e-07
-4.40994e-12
2.10405e-08
7.98273e-12
1.28583e-09
9.77211e-10
2.7581e-08
1.1752e-07
-6.21508e-07
7.5144e-07
2.02795e-12
-5.20725e-06
4.43252e-08
6.04179e-08
9.13544e-08
4.36595e-08
-1.12454e-07
1.92743e-07
-1.59492e-07
9.09839e-07
1.68693e-08
-5.66137e-08
1.68099e-08
-6.20685e-06
3.40812e-08
2.72373e-07
-9.5265e-08
7.91225e-07
-5.33376e-07
1.34515e-06
1.47104e-07
1.28364e-07
2.31963e-07
1.69287e-07
3.76951e-07
-9.01596e-06
1.36997e-07
)
;
    }
    procBoundary7to6
    {
        type            processor;
        value           nonuniform List<scalar> 
12
(
-5.32859e-06
-6.82009e-06
-9.29883e-06
-5.04988e-06
-5.36645e-06
-8.2322e-06
-5.28142e-06
-6.90771e-06
-9.3427e-06
-7.90656e-06
-9.12554e-06
-1.04957e-05
)
;
    }
}


// ************************************************************************* //
