/*--------------------------------*- C++ -*----------------------------------*\
| =========                 |                                                 |
| \\      /  F ield         | OpenFOAM: The Open Source CFD Toolbox           |
|  \\    /   O peration     | Version:  4.x                                   |
|   \\  /    A nd           | Web:      www.OpenFOAM.org                      |
|    \\/     M anipulation  |                                                 |
\*---------------------------------------------------------------------------*/
FoamFile
{
    version     2.0;
    format      ascii;
    class       volVectorField;
    location    "35.5";
    object      Us;
}
// * * * * * * * * * * * * * * * * * * * * * * * * * * * * * * * * * * * * * //

dimensions      [0 1 -1 0 0 0 0];

internalField   nonuniform List<vector> 
132
(
(1.12813e-08 -2.3296e-09 -1.35521e-08)
(1.47932e-08 -4.54608e-10 -1.76085e-08)
(1.75259e-08 -6.3364e-11 -1.76399e-08)
(1.79971e-08 1.16203e-09 -1.23089e-08)
(1.65796e-08 3.5356e-09 -8.56536e-09)
(5.51729e-09 6.02042e-09 -1.37511e-08)
(1.73936e-09 1.03785e-08 -1.52463e-08)
(-3.43942e-09 1.3742e-08 -1.59317e-08)
(-7.51516e-09 6.74477e-09 -1.5909e-08)
(6.55203e-09 -2.91587e-09 -1.1414e-08)
(8.77727e-09 -1.79519e-09 -1.64654e-08)
(1.54381e-08 -2.74185e-09 -1.48531e-08)
(1.83369e-08 1.51804e-09 -1.13851e-08)
(1.05814e-08 3.57066e-09 -7.44484e-09)
(5.58599e-09 5.18764e-09 -9.16972e-09)
(3.42575e-09 7.79888e-09 -1.49669e-08)
(-2.48388e-09 1.15768e-08 -2.39154e-08)
(-9.6634e-09 5.77843e-09 -1.91223e-08)
(5.44454e-09 -2.29067e-09 -7.284e-09)
(9.51452e-09 -2.42222e-09 -1.18793e-08)
(1.47335e-08 -1.44518e-09 -1.24713e-08)
(1.76557e-08 3.90656e-10 -7.96994e-09)
(1.39211e-08 2.45111e-09 -4.99729e-09)
(7.30599e-09 3.66289e-09 -4.54806e-09)
(2.97328e-09 4.42666e-09 -7.67757e-09)
(-1.42526e-09 5.0623e-09 -1.21045e-08)
(-4.09019e-08 -1.51196e-08 -1.09462e-08)
(4.08086e-09 -1.92165e-09 -1.64059e-09)
(4.80899e-09 -1.69277e-09 -3.79125e-09)
(1.05736e-08 -3.8956e-10 -5.57832e-09)
(1.34646e-08 -8.35535e-10 -3.71629e-09)
(1.15977e-08 1.09979e-09 -1.53079e-09)
(6.73469e-09 1.59454e-09 -5.10283e-10)
(1.91488e-09 2.0659e-09 -2.85323e-09)
(-1.74137e-09 3.41614e-09 -3.58018e-09)
(-2.35799e-08 -7.43926e-09 -2.54988e-09)
(1.27821e-08 -2.35618e-09 -1.46616e-08)
(1.55827e-08 5.57353e-10 -9.74655e-09)
(1.20525e-08 1.49235e-09 -6.10562e-09)
(8.11786e-09 2.88449e-09 -7.47795e-09)
(2.33947e-09 3.84655e-09 -1.01468e-08)
(-2.19208e-09 8.7717e-09 -1.2388e-08)
(-9.04992e-09 2.5053e-09 -1.20463e-08)
(6.07798e-09 -3.53013e-09 -8.09718e-09)
(6.3474e-09 -1.85855e-09 -9.44885e-09)
(1.23483e-08 -3.31929e-09 -1.04828e-08)
(1.6411e-08 -1.17051e-09 -6.38595e-09)
(1.23143e-08 7.9121e-10 -3.66425e-09)
(4.89787e-09 1.76487e-09 -6.18759e-09)
(1.82684e-09 1.98119e-09 -9.23255e-09)
(-2.18314e-10 5.34577e-09 -1.52046e-08)
(-7.10191e-09 3.12158e-09 -7.94903e-09)
(4.80324e-09 -3.15122e-09 -5.34851e-09)
(4.84186e-09 -3.88261e-09 -7.64801e-09)
(1.08189e-08 6.10796e-10 -7.08195e-09)
(1.50376e-08 -2.73945e-09 -5.44469e-09)
(1.02662e-08 -1.58469e-09 -1.80583e-09)
(2.88075e-09 -2.37163e-09 -3.44783e-09)
(1.58395e-09 1.40677e-11 -5.85667e-09)
(-2.50217e-09 2.22562e-09 -7.71002e-09)
(-7.70664e-08 -3.09852e-08 -4.73621e-09)
(1.36545e-09 -1.4903e-09 -1.064e-09)
(1.87321e-09 -1.37108e-09 -1.88986e-09)
(1.06091e-08 -2.71105e-10 -3.10381e-09)
(1.34407e-08 -2.05539e-09 -3.1236e-09)
(7.7519e-09 -1.19224e-10 -6.16916e-10)
(4.17221e-09 -1.54842e-10 -4.74777e-12)
(1.82845e-09 -1.21628e-10 -1.65211e-09)
(-2.27997e-09 2.46023e-09 -2.48962e-09)
(-3.31859e-08 -1.25659e-08 -8.90947e-10)
(1.07099e-08 5.7109e-10 -3.35803e-09)
(7.21868e-09 1.04941e-09 -4.04079e-09)
(1.81046e-09 1.4773e-09 -7.15639e-09)
(-2.31788e-09 2.3155e-09 -7.33886e-09)
(-3.65995e-09 1.54101e-09 -5.33907e-09)
(6.86054e-09 -2.84103e-09 -2.39028e-09)
(7.24421e-09 -2.20571e-09 -5.51676e-09)
(9.19651e-09 -8.6804e-10 -1.61516e-09)
(1.20687e-08 -1.10381e-09 -2.99011e-09)
(1.0924e-08 -2.72496e-10 -1.69134e-09)
(7.52368e-09 -1.44101e-10 -4.48543e-09)
(4.20977e-09 1.68173e-10 -9.42188e-09)
(1.42864e-10 1.09239e-09 -1.08193e-08)
(-3.56224e-09 2.14819e-09 -5.07459e-09)
(4.34628e-09 -2.30739e-09 -1.28076e-09)
(4.90375e-09 -3.36759e-09 -8.49773e-10)
(8.61204e-09 -6.93777e-10 -1.03402e-09)
(1.00934e-08 -3.12104e-09 -2.97882e-09)
(7.47703e-09 -1.25757e-09 -5.80241e-10)
(4.44149e-09 -2.26692e-09 -2.33774e-09)
(1.06825e-09 -1.26769e-09 -3.94833e-09)
(-3.83291e-09 1.4104e-09 -5.06195e-09)
(-4.51551e-09 1.80562e-09 -2.61332e-09)
(3.89017e-09 -1.68303e-09 -3.47366e-10)
(3.76147e-09 -1.32641e-09 -1.52816e-09)
(9.76913e-09 -1.60715e-09 -5.76375e-10)
(1.01276e-08 -1.37465e-09 -1.54886e-09)
(5.516e-09 -6.9109e-10 4.04827e-10)
(-9.63958e-10 -8.4657e-11 -2.3869e-09)
(-6.11636e-10 -5.505e-10 -1.40078e-09)
(-2.50813e-09 9.48129e-10 -2.15651e-09)
(-3.14317e-09 -1.79867e-11 -6.43631e-10)
(1.95313e-09 1.40344e-09 -2.57138e-09)
(-1.94327e-09 1.51136e-09 -4.23431e-09)
(-3.99661e-09 -1.5943e-10 -2.90703e-09)
(7.56801e-09 -8.87016e-10 -9.33673e-10)
(8.67867e-09 -2.72282e-10 -1.37507e-09)
(9.79749e-09 -1.36553e-09 -1.70257e-09)
(9.79578e-09 -2.96462e-10 -2.42716e-10)
(9.13845e-09 -1.40681e-10 -1.03175e-09)
(1.01631e-08 -4.10232e-11 -2.7005e-09)
(5.89282e-09 -6.70526e-10 -3.09713e-09)
(-8.33033e-10 1.98111e-09 -2.58448e-09)
(-3.32616e-09 9.59839e-10 -3.28111e-09)
(2.18452e-09 -2.40872e-09 -1.0745e-09)
(3.76297e-09 -1.08756e-09 -4.6227e-11)
(8.21438e-09 -1.30836e-09 -9.37338e-10)
(8.27547e-09 -1.7291e-09 1.74154e-10)
(6.67735e-09 -1.10293e-09 -1.08631e-10)
(4.96142e-09 -1.16351e-09 -7.23103e-10)
(2.85207e-09 -7.07919e-10 -7.14943e-10)
(-1.75501e-09 1.08526e-09 -1.23516e-09)
(-4.25744e-09 1.07767e-09 -8.96512e-10)
(2.68854e-09 -2.52117e-09 -4.34794e-10)
(2.35645e-09 -8.52964e-10 -3.85019e-10)
(6.07519e-09 -1.30512e-09 -7.9228e-10)
(7.13427e-09 -1.26626e-09 -7.1885e-11)
(8.21221e-09 -1.392e-07 -3.05312e-10)
(2.09605e-09 -4.59016e-10 1.74509e-10)
(3.18351e-10 -2.53891e-10 -3.67938e-10)
(-3.37848e-09 4.22867e-10 -6.73741e-10)
(-8.51254e-09 -4.07076e-09 -7.35595e-10)
)
;

boundaryField
{
    inlet
    {
        type            zeroGradient;
    }
    outlet
    {
        type            zeroGradient;
    }
    wall
    {
        type            zeroGradient;
    }
    procBoundary7to0
    {
        type            processor;
        value           uniform (8.41571e-09 -4.2976e-09 -5.26342e-09);
    }
    procBoundary7to1
    {
        type            processor;
        value           uniform (1.40795e-08 -1.56908e-09 -9.72121e-09);
    }
    procBoundary7to3
    {
        type            processor;
        value           nonuniform List<vector> 
36
(
(1.4638e-08 -3.95081e-09 -1.7371e-08)
(2.09782e-08 9.3758e-10 -2.39899e-08)
(2.56187e-08 7.83214e-10 -2.22329e-08)
(2.91685e-08 8.579e-09 -1.61665e-08)
(2.42991e-08 7.83793e-09 -9.67778e-09)
(1.45598e-08 1.05283e-08 -1.37379e-08)
(9.3909e-09 1.68052e-08 -2.32763e-08)
(4.36738e-09 1.98512e-08 -2.80161e-08)
(-1.91725e-09 1.4566e-08 -2.38231e-08)
(5.35857e-09 -2.9482e-09 -1.42664e-08)
(7.98057e-09 1.23521e-09 -2.07474e-08)
(2.51156e-08 2.808e-09 -2.02249e-08)
(2.43478e-08 7.50905e-09 -1.45138e-08)
(1.41149e-08 8.56946e-09 -1.17069e-08)
(5.66402e-09 1.23808e-08 -1.36988e-08)
(1.98267e-09 1.75394e-08 -2.47507e-08)
(-4.07915e-09 2.04648e-08 -3.64826e-08)
(-1.34706e-08 1.37652e-08 -3.34627e-08)
(3.30053e-09 -2.3936e-10 -1.0365e-08)
(7.87226e-09 3.63706e-09 -1.23932e-08)
(2.44533e-08 1.27801e-08 -1.48798e-08)
(2.59999e-08 6.21964e-09 -1.32606e-08)
(1.91971e-08 7.62046e-09 -7.15005e-09)
(8.64812e-09 1.06784e-08 -8.15408e-09)
(6.85982e-09 1.82852e-08 -1.39985e-08)
(7.2707e-10 1.38614e-08 -2.48378e-08)
(-5.08204e-09 3.101e-09 -2.28259e-08)
(3.63975e-09 -2.85109e-09 -4.19175e-09)
(6.67761e-09 6.33986e-10 -5.49424e-09)
(1.64958e-08 2.78077e-09 -8.43765e-09)
(1.58316e-08 2.97325e-09 -2.94564e-09)
(1.58591e-08 5.70809e-09 -2.94048e-09)
(7.25234e-09 4.25686e-09 -2.86731e-09)
(6.0591e-09 4.57648e-09 -6.44444e-09)
(1.99134e-10 5.47052e-09 -8.7075e-09)
(-4.03504e-09 1.77238e-10 -6.15777e-09)
)
;
    }
    procBoundary7to5
    {
        type            processor;
        value           nonuniform List<vector> 
44
(
(1.67218e-08 1.40348e-09 -1.66215e-08)
(2.08827e-08 2.623e-09 -1.46507e-08)
(2.16206e-08 2.83156e-09 -1.12602e-08)
(1.89261e-08 3.16772e-09 -8.57403e-09)
(1.26928e-08 4.84211e-09 -9.47347e-09)
(4.73255e-09 8.1136e-09 -1.26878e-08)
(-3.42481e-09 9.55835e-09 -1.63923e-08)
(-1.26538e-09 4.78117e-08 -7.96959e-09)
(1.00363e-08 -4.55207e-09 -1.08286e-08)
(1.08455e-08 -1.11676e-09 -1.34781e-08)
(1.56958e-08 1.74533e-09 -1.09822e-08)
(1.71527e-08 3.19641e-09 -8.97253e-09)
(1.47163e-08 2.41646e-09 -6.8959e-09)
(1.07087e-08 3.70287e-09 -6.66335e-09)
(3.96146e-09 4.92408e-09 -1.05469e-08)
(-3.34334e-09 6.54838e-09 -1.14693e-08)
(-8.40053e-09 3.82872e-09 -8.24686e-09)
(1.00363e-08 -4.55207e-09 -1.08286e-08)
(1.08455e-08 -1.11676e-09 -1.34781e-08)
(1.08455e-08 -1.11676e-09 -1.34781e-08)
(1.40771e-08 3.54629e-10 -8.16666e-09)
(1.27487e-08 1.76812e-09 -6.35532e-09)
(1.15445e-08 2.45851e-09 -4.6562e-09)
(7.17719e-09 2.42197e-09 -4.4083e-09)
(1.75401e-09 2.69702e-09 -6.01655e-09)
(-3.91307e-09 2.71455e-09 -6.97033e-09)
(-4.92667e-09 1.52848e-09 -5.72169e-09)
(1.39918e-08 -6.80558e-10 -1.29739e-09)
(1.17376e-08 -1.55451e-10 -6.26721e-09)
(1.40771e-08 3.54629e-10 -8.16666e-09)
(1.27487e-08 1.76812e-09 -6.35532e-09)
(1.27487e-08 1.76812e-09 -6.35532e-09)
(7.91473e-09 5.64931e-10 -1.67813e-09)
(4.896e-09 5.7851e-10 -8.77672e-10)
(6.39559e-10 1.99252e-09 -2.12679e-09)
(-2.97003e-09 1.7723e-09 -2.64725e-09)
(-3.29134e-09 1.28243e-09 -2.6094e-09)
(1.09697e-08 2.72509e-09 -1.3631e-09)
(7.37431e-09 1.44888e-09 -1.51972e-09)
(1.23193e-08 1.98283e-09 -3.16009e-09)
(8.66477e-09 5.5613e-10 -2.6022e-09)
(7.91473e-09 5.64931e-10 -1.67813e-09)
(4.896e-09 5.7851e-10 -8.77672e-10)
(4.896e-09 5.7851e-10 -8.77672e-10)
)
;
    }
    procBoundary7to6
    {
        type            processor;
        value           nonuniform List<vector> 
12
(
(5.20047e-10 -3.36297e-09 -7.48414e-09)
(5.71518e-10 -4.12279e-09 -7.3747e-09)
(-1.23755e-09 -1.58895e-09 -3.27449e-09)
(2.56201e-09 -3.58688e-09 -6.13027e-09)
(1.87003e-09 -3.34136e-09 -4.85569e-09)
(-6.04825e-10 -1.94962e-09 -2.48675e-09)
(5.45475e-09 -4.02787e-09 -3.95213e-09)
(2.86515e-09 -3.3086e-09 -3.81356e-09)
(-9.5254e-10 -1.13842e-09 -1.52462e-09)
(7.24837e-09 -1.81265e-09 6.80849e-11)
(1.79738e-09 -1.8959e-09 -1.89847e-09)
(5.39673e-10 -7.52164e-10 -1.32814e-09)
)
;
    }
}


// ************************************************************************* //
