/*--------------------------------*- C++ -*----------------------------------*\
| =========                 |                                                 |
| \\      /  F ield         | OpenFOAM: The Open Source CFD Toolbox           |
|  \\    /   O peration     | Version:  4.x                                   |
|   \\  /    A nd           | Web:      www.OpenFOAM.org                      |
|    \\/     M anipulation  |                                                 |
\*---------------------------------------------------------------------------*/
FoamFile
{
    version     2.0;
    format      ascii;
    class       volVectorField;
    location    "48";
    object      impParticleForces;
}
// * * * * * * * * * * * * * * * * * * * * * * * * * * * * * * * * * * * * * //

dimensions      [1 1 -2 0 0 0 0];

internalField   nonuniform List<vector> 
87
(
(0.00243665 0.000147684 -3.5303e-05)
(0.00247913 0.000361869 -2.16741e-05)
(0.00247031 0.00015317 -2.66765e-05)
(0.00251049 7.6569e-05 -2.78177e-05)
(0.00246463 4.27262e-05 -2.81401e-05)
(0.00246586 2.49499e-05 -2.88474e-05)
(0.00245261 1.36004e-05 -3.50359e-05)
(0.00243673 4.43146e-06 -3.84424e-05)
(0.00231221 -7.25228e-06 -5.4933e-05)
(0.00247055 8.38591e-05 -3.84558e-05)
(0.00249892 0.000130514 -3.14319e-05)
(0.00250532 8.82907e-05 -2.93244e-05)
(0.00253523 5.51529e-05 -2.74711e-05)
(0.00249837 3.35253e-05 -2.69001e-05)
(0.00250931 2.11447e-05 -2.66183e-05)
(0.00248232 1.02573e-05 -3.28104e-05)
(0.00248215 6.15651e-06 -3.57399e-05)
(0.00233077 -1.14264e-05 -5.86057e-05)
(0.00247447 4.68302e-05 -3.93052e-05)
(0.0025127 5.99775e-05 -3.35054e-05)
(0.00249791 5.04523e-05 -2.88666e-05)
(0.00253125 3.7179e-05 -2.54693e-05)
(0.00248838 2.54266e-05 -2.39112e-05)
(0.00249603 1.70522e-05 -2.35352e-05)
(0.00245329 9.28312e-06 -3.07504e-05)
(0.00244503 5.53275e-06 -3.45586e-05)
(0.00231639 -3.68819e-06 -5.8286e-05)
(0.00246119 8.39255e-05 -3.70785e-05)
(0.00247821 0.000131134 -2.99812e-05)
(0.00248176 8.98982e-05 -2.76084e-05)
(0.00251271 5.67672e-05 -2.58509e-05)
(0.00247576 3.60061e-05 -2.47015e-05)
(0.00248135 2.28392e-05 -2.44974e-05)
(0.00245805 1.32196e-05 -2.85627e-05)
(0.00243135 4.45895e-06 -3.14851e-05)
(0.00230213 -5.64242e-06 -4.69407e-05)
(0.00250455 5.67831e-05 -3.85964e-05)
(0.00251488 7.63464e-05 -3.20018e-05)
(0.00251133 6.19985e-05 -2.803e-05)
(0.00255532 4.42263e-05 -2.52819e-05)
(0.00252277 2.9775e-05 -2.32465e-05)
(0.0025243 2.05304e-05 -2.1638e-05)
(0.00249368 1.11488e-05 -2.63573e-05)
(0.00248283 6.96943e-06 -2.96034e-05)
(0.00232169 -8.5803e-06 -4.9997e-05)
(0.00249089 3.61765e-05 -3.83001e-05)
(0.00252643 4.43302e-05 -3.20075e-05)
(0.00250387 3.98852e-05 -2.7193e-05)
(0.00252661 3.14428e-05 -2.30947e-05)
(0.00248793 2.27242e-05 -2.05935e-05)
(0.0025092 1.57589e-05 -1.93062e-05)
(0.00247023 9.52054e-06 -2.3823e-05)
(0.0024654 4.40113e-06 -2.81836e-05)
(0.00232089 -1.90797e-06 -5.21194e-05)
(0.00242816 4.48425e-05 -3.515e-05)
(0.0024591 5.91574e-05 -2.9881e-05)
(0.00245856 5.10703e-05 -2.60166e-05)
(0.00248894 3.88594e-05 -2.29476e-05)
(0.0024391 2.71216e-05 -1.93703e-05)
(0.00244556 1.85081e-05 -1.73996e-05)
(0.00239978 1.03162e-05 -1.87779e-05)
(0.00237829 3.77394e-06 -1.57534e-05)
(0.0022598 -6.04128e-06 -2.59743e-05)
(0.00246262 3.41189e-05 -3.5561e-05)
(0.00249331 4.31606e-05 -3.00276e-05)
(0.00247166 3.94333e-05 -2.52144e-05)
(0.00250962 3.19702e-05 -2.11217e-05)
(0.00247261 2.29686e-05 -1.84365e-05)
(0.0024821 1.69197e-05 -1.53206e-05)
(0.00242529 8.8067e-06 -1.70294e-05)
(0.00241056 4.98383e-06 -1.70256e-05)
(0.00227979 -7.88367e-06 -3.02063e-05)
(0.00245933 2.44482e-05 -3.49096e-05)
(0.00248941 2.95572e-05 -2.8773e-05)
(0.00246018 2.83403e-05 -2.39115e-05)
(0.00250419 2.43917e-05 -1.96097e-05)
(0.00245889 1.84913e-05 -1.65689e-05)
(0.00247254 1.41211e-05 -1.3597e-05)
(0.00241144 8.97063e-06 -1.51158e-05)
(0.00239284 6.46311e-06 -1.74263e-05)
(0.00228151 -2.43012e-06 -3.19365e-05)
(0.00239774 2.33964e-05 -2.85477e-05)
(0.00240585 3.01677e-05 -2.29379e-05)
(0.00240235 2.95165e-05 -1.83782e-05)
(0.00243166 1.95436e-05 -2.89676e-05)
(0.00246629 2.53027e-05 -2.38325e-05)
(0.00241496 1.58423e-05 -2.85506e-05)
)
;

boundaryField
{
    inlet
    {
        type            zeroGradient;
    }
    outlet
    {
        type            zeroGradient;
    }
    wall
    {
        type            zeroGradient;
    }
    procBoundary1to0
    {
        type            processor;
        value           nonuniform List<vector> 
12
(
(0.00241299 6.59693e-05 -4.43974e-05)
(0.00247276 4.56316e-05 -4.66851e-05)
(0.0024894 3.01046e-05 -4.73741e-05)
(0.00245932 4.51811e-05 -4.46764e-05)
(0.00250847 3.33419e-05 -4.62137e-05)
(0.00249377 2.41233e-05 -4.56515e-05)
(0.00243576 2.64793e-05 -4.15624e-05)
(0.0024848 2.0724e-05 -4.27078e-05)
(0.00245461 1.66262e-05 -4.11734e-05)
(0.00242169 1.35056e-05 -3.4639e-05)
(0.00244952 1.15606e-05 -3.51328e-05)
(0.00243171 1.05663e-05 -3.42653e-05)
)
;
    }
    procBoundary1to3
    {
        type            processor;
        value           nonuniform List<vector> 
27
(
(0.00249435 2.82774e-05 -3.9752e-05)
(0.00248819 3.29818e-05 -3.3148e-05)
(0.00249052 3.03823e-05 -2.79498e-05)
(0.00248231 2.49954e-05 -2.3629e-05)
(0.00246615 1.86994e-05 -2.15226e-05)
(0.00245176 1.49271e-05 -2.10661e-05)
(0.00241646 1.06276e-05 -2.74891e-05)
(0.00237316 1.11096e-05 -3.58745e-05)
(0.00228425 9.92735e-06 -5.36812e-05)
(0.00249733 2.41548e-05 -3.866e-05)
(0.00252568 2.77031e-05 -3.23148e-05)
(0.0025099 2.6192e-05 -2.71385e-05)
(0.00252636 2.21566e-05 -2.21964e-05)
(0.00248298 1.77547e-05 -1.93683e-05)
(0.00248448 1.42593e-05 -1.71955e-05)
(0.00243192 1.20231e-05 -2.25476e-05)
(0.00241887 1.03894e-05 -2.74549e-05)
(0.00231535 9.93403e-06 -5.37916e-05)
(0.00245809 1.83023e-05 -3.48509e-05)
(0.00249899 2.06541e-05 -2.91439e-05)
(0.00246731 2.01395e-05 -2.42404e-05)
(0.00249078 1.78085e-05 -1.93984e-05)
(0.00244498 1.51531e-05 -1.60985e-05)
(0.00245717 1.30187e-05 -1.28817e-05)
(0.00240046 1.17001e-05 -1.61011e-05)
(0.00237234 1.25506e-05 -1.9912e-05)
(0.00228793 1.05132e-05 -3.74215e-05)
)
;
    }
    procBoundary1to5
    {
        type            processor;
        value           nonuniform List<vector> 
32
(
(0.00242246 2.56789e-05 -1.34772e-05)
(0.00238062 1.90492e-05 -9.07049e-06)
(0.00238162 1.31667e-05 -4.35989e-06)
(0.0023261 5.65267e-06 -1.71493e-06)
(0.00230396 -1.48219e-06 1.35859e-06)
(0.00222201 -1.0488e-05 -5.46621e-07)
(0.00242502 2.50072e-05 -1.84222e-05)
(0.00244205 2.24849e-05 -1.35915e-05)
(0.00240157 1.70956e-05 -8.99938e-06)
(0.00241567 1.29258e-05 -3.65227e-06)
(0.00235892 5.7459e-06 -2.17728e-06)
(0.00234205 2.08679e-07 1.05578e-06)
(0.00225043 -1.02417e-05 -4.12029e-06)
(0.00244873 1.96549e-05 -2.3389e-05)
(0.00241187 1.94295e-05 -1.83753e-05)
(0.00243674 1.76197e-05 -1.35517e-05)
(0.00239872 1.4088e-05 -9.3338e-06)
(0.00239755 1.07882e-05 -4.8801e-06)
(0.00234864 6.55579e-06 -2.97705e-06)
(0.00231876 2.58699e-06 -2.31151e-06)
(0.00224459 -3.25374e-06 -6.74121e-06)
(0.00239037 1.10236e-05 -2.05585e-05)
(0.00239712 1.52142e-05 -1.52046e-05)
(0.00242246 2.56789e-05 -1.34772e-05)
(0.00242502 2.50072e-05 -1.84222e-05)
(0.00238962 1.63922e-05 -1.01442e-05)
(0.00241773 9.66043e-06 -2.09147e-05)
(0.00242502 2.50072e-05 -1.84222e-05)
(0.00244873 1.96549e-05 -2.3389e-05)
(0.00242927 1.3486e-05 -1.59573e-05)
(0.00244873 1.96549e-05 -2.3389e-05)
(0.00239693 9.06327e-06 -2.15135e-05)
)
;
    }
    procBoundary1to7
    {
        type            processor;
        value           uniform (0.00241496 1.33354e-05 -2.90879e-05);
    }
}


// ************************************************************************* //
