/*--------------------------------*- C++ -*----------------------------------*\
| =========                 |                                                 |
| \\      /  F ield         | OpenFOAM: The Open Source CFD Toolbox           |
|  \\    /   O peration     | Version:  4.x                                   |
|   \\  /    A nd           | Web:      www.OpenFOAM.org                      |
|    \\/     M anipulation  |                                                 |
\*---------------------------------------------------------------------------*/
FoamFile
{
    version     2.0;
    format      ascii;
    class       volVectorField;
    location    "48";
    object      UsNext;
}
// * * * * * * * * * * * * * * * * * * * * * * * * * * * * * * * * * * * * * //

dimensions      [0 1 -1 0 0 0 0];

internalField   nonuniform List<vector> 
87
(
(9.56524e-09 7.17893e-09 2.56384e-08)
(-4.25144e-08 1.05062e-06 1.02172e-07)
(-1.19642e-08 1.16461e-09 1.65869e-08)
(-6.60197e-09 -6.24149e-10 1.69754e-09)
(-2.61539e-09 2.00307e-10 1.07331e-10)
(-1.32861e-10 -1.09957e-09 -9.39658e-10)
(3.20248e-09 -1.81132e-09 -2.12823e-09)
(2.19795e-07 3.1812e-09 -1.44036e-08)
(1.13417e-07 -7.95018e-09 -2.23574e-08)
(3.19282e-09 -5.03844e-09 1.14715e-08)
(1.65982e-09 -8.56913e-09 2.18922e-08)
(-1.27052e-08 -7.13517e-09 7.91385e-09)
(-2.67806e-09 -2.23622e-09 9.047e-10)
(4.03236e-10 -3.50873e-09 1.58786e-10)
(9.72031e-10 -4.22317e-10 -1.50956e-09)
(1.57059e-09 -1.74135e-09 -3.49781e-09)
(4.98114e-10 -5.3339e-09 -5.0826e-09)
(-3.19577e-09 -1.41976e-08 -1.10581e-08)
(3.71197e-09 -6.36665e-09 4.78486e-09)
(1.82912e-09 -9.64202e-09 7.68267e-09)
(1.80622e-09 -5.64811e-09 4.32656e-09)
(3.66572e-10 -1.74116e-09 1.30079e-09)
(7.93656e-10 -1.50291e-09 1.57431e-12)
(1.56983e-09 -6.91953e-10 -6.49525e-10)
(2.44014e-09 -7.53703e-10 -1.73771e-09)
(1.81574e-09 -3.43601e-09 -4.91669e-09)
(3.3375e-09 -7.76292e-10 -2.77328e-09)
(-5.91079e-09 4.83922e-09 1.74202e-08)
(4.36824e-10 3.07897e-09 4.02941e-08)
(2.56171e-09 1.7125e-09 1.48888e-08)
(2.04045e-09 -1.19143e-09 1.02051e-09)
(4.25207e-10 1.21505e-10 5.34854e-10)
(4.5306e-10 -1.1297e-10 -6.24784e-10)
(1.41299e-09 -5.09281e-10 -1.59748e-09)
(1.15388e-09 -1.54937e-09 -3.80844e-09)
(1.27906e-10 -3.03823e-09 -7.32686e-09)
(-3.40955e-09 7.90387e-10 1.22044e-08)
(-1.42755e-09 -3.05421e-09 2.00346e-08)
(3.05723e-09 1.40412e-09 1.02917e-08)
(4.22368e-10 -1.92763e-09 1.5488e-09)
(5.64753e-10 -1.1672e-09 -3.35048e-11)
(9.57221e-10 -5.93294e-10 -1.23096e-09)
(1.65476e-09 -1.0685e-09 -2.69298e-09)
(1.75124e-09 -1.6897e-09 -3.74103e-09)
(4.70298e-09 -3.73363e-09 -7.51808e-09)
(1.36199e-09 -1.32538e-09 4.00404e-09)
(2.10538e-09 -1.71378e-09 6.91004e-09)
(2.29126e-09 -1.36137e-09 3.61717e-09)
(9.48458e-10 -1.90387e-09 1.64468e-09)
(1.43872e-09 -1.64474e-09 -2.35001e-10)
(1.8603e-09 -9.94524e-10 -9.94119e-10)
(2.78987e-09 -5.55179e-10 -2.42411e-09)
(3.27829e-09 -8.88425e-10 -2.14564e-09)
(1.27623e-09 -2.10776e-09 -3.93525e-09)
(-1.23059e-09 1.97073e-10 3.45642e-09)
(8.00987e-11 1.66183e-09 5.07232e-09)
(2.09896e-10 1.466e-09 6.80552e-09)
(1.71392e-09 -3.22708e-10 1.23321e-09)
(1.15571e-09 -1.23551e-10 3.78344e-10)
(7.57895e-10 -1.78854e-10 -5.61626e-10)
(6.10345e-10 2.31554e-12 -7.69945e-10)
(-4.10169e-10 -2.09248e-10 -1.09456e-09)
(2.89085e-10 -3.4931e-10 -2.88506e-09)
(-1.21075e-09 9.52716e-10 5.03479e-09)
(1.6794e-09 5.24105e-10 6.61041e-09)
(2.356e-09 4.68452e-10 7.76493e-09)
(1.35515e-09 -6.91784e-10 2.22402e-09)
(1.4996e-09 -4.13112e-10 2.15172e-10)
(1.22721e-09 1.21442e-10 -8.85432e-10)
(1.30133e-09 -7.98528e-11 -1.66603e-09)
(9.58275e-10 -6.8684e-10 -2.27764e-09)
(2.4869e-10 -7.56241e-10 -1.47748e-09)
(1.12033e-09 6.28117e-10 3.36237e-09)
(2.1467e-09 1.15314e-09 4.51209e-09)
(2.75572e-09 1.27048e-09 5.13909e-09)
(2.54301e-09 4.7016e-12 1.85292e-09)
(2.19428e-09 -4.06331e-10 5.64149e-11)
(2.17654e-09 -2.76258e-10 -8.8969e-10)
(2.12319e-09 -1.41017e-10 -1.76608e-09)
(1.72745e-09 -1.28332e-10 -1.79004e-09)
(1.16744e-09 -1.04765e-09 -1.1342e-09)
(-1.35037e-10 2.43423e-10 2.17963e-09)
(7.67978e-10 9.22912e-10 7.32791e-10)
(9.06271e-10 5.97184e-10 1.66993e-09)
(-1.24236e-10 6.34685e-10 2.41577e-09)
(1.43891e-09 1.02365e-09 3.85719e-09)
(1.04188e-09 5.2206e-10 2.06286e-09)
)
;

boundaryField
{
    inlet
    {
        type            calculated;
        value           nonuniform 0();
    }
    outlet
    {
        type            calculated;
        value           nonuniform List<vector> 9((1.13417e-07 -7.95018e-09 -2.23574e-08) (-3.19577e-09 -1.41976e-08 -1.10581e-08) (3.3375e-09 -7.76292e-10 -2.77328e-09) (1.27906e-10 -3.03823e-09 -7.32686e-09) (4.70298e-09 -3.73363e-09 -7.51808e-09) (1.27623e-09 -2.10776e-09 -3.93525e-09) (2.89085e-10 -3.4931e-10 -2.88506e-09) (2.4869e-10 -7.56241e-10 -1.47748e-09) (1.16744e-09 -1.04765e-09 -1.1342e-09));
    }
    wall
    {
        type            calculated;
        value           nonuniform List<vector> 
57
(
(9.56524e-09 7.17893e-09 2.56384e-08)
(3.19282e-09 -5.03844e-09 1.14715e-08)
(3.71197e-09 -6.36665e-09 4.78486e-09)
(-4.25144e-08 1.05062e-06 1.02172e-07)
(1.65982e-09 -8.56913e-09 2.18922e-08)
(1.82912e-09 -9.64202e-09 7.68267e-09)
(-1.19642e-08 1.16461e-09 1.65869e-08)
(-1.27052e-08 -7.13517e-09 7.91385e-09)
(1.80622e-09 -5.64811e-09 4.32656e-09)
(-6.60197e-09 -6.24149e-10 1.69754e-09)
(-2.67806e-09 -2.23622e-09 9.047e-10)
(3.66572e-10 -1.74116e-09 1.30079e-09)
(-2.61539e-09 2.00307e-10 1.07331e-10)
(4.03236e-10 -3.50873e-09 1.58786e-10)
(7.93656e-10 -1.50291e-09 1.57431e-12)
(-1.32861e-10 -1.09957e-09 -9.39658e-10)
(9.72031e-10 -4.22317e-10 -1.50956e-09)
(1.56983e-09 -6.91953e-10 -6.49525e-10)
(3.20248e-09 -1.81132e-09 -2.12823e-09)
(1.57059e-09 -1.74135e-09 -3.49781e-09)
(2.44014e-09 -7.53703e-10 -1.73771e-09)
(2.19795e-07 3.1812e-09 -1.44036e-08)
(4.98114e-10 -5.3339e-09 -5.0826e-09)
(1.81574e-09 -3.43601e-09 -4.91669e-09)
(1.13417e-07 -7.95018e-09 -2.23574e-08)
(-3.19577e-09 -1.41976e-08 -1.10581e-08)
(3.3375e-09 -7.76292e-10 -2.77328e-09)
(9.56524e-09 7.17893e-09 2.56384e-08)
(-5.91079e-09 4.83922e-09 1.74202e-08)
(-1.23059e-09 1.97073e-10 3.45642e-09)
(-1.35037e-10 2.43423e-10 2.17963e-09)
(-4.25144e-08 1.05062e-06 1.02172e-07)
(4.36824e-10 3.07897e-09 4.02941e-08)
(8.00987e-11 1.66183e-09 5.07232e-09)
(7.67978e-10 9.22912e-10 7.32791e-10)
(-1.19642e-08 1.16461e-09 1.65869e-08)
(2.56171e-09 1.7125e-09 1.48888e-08)
(2.09896e-10 1.466e-09 6.80552e-09)
(9.06271e-10 5.97184e-10 1.66993e-09)
(-6.60197e-09 -6.24149e-10 1.69754e-09)
(2.04045e-09 -1.19143e-09 1.02051e-09)
(1.71392e-09 -3.22708e-10 1.23321e-09)
(-2.61539e-09 2.00307e-10 1.07331e-10)
(4.25207e-10 1.21505e-10 5.34854e-10)
(1.15571e-09 -1.23551e-10 3.78344e-10)
(-1.32861e-10 -1.09957e-09 -9.39658e-10)
(4.5306e-10 -1.1297e-10 -6.24784e-10)
(7.57895e-10 -1.78854e-10 -5.61626e-10)
(3.20248e-09 -1.81132e-09 -2.12823e-09)
(1.41299e-09 -5.09281e-10 -1.59748e-09)
(6.10345e-10 2.31554e-12 -7.69945e-10)
(2.19795e-07 3.1812e-09 -1.44036e-08)
(1.15388e-09 -1.54937e-09 -3.80844e-09)
(-4.10169e-10 -2.09248e-10 -1.09456e-09)
(1.13417e-07 -7.95018e-09 -2.23574e-08)
(1.27906e-10 -3.03823e-09 -7.32686e-09)
(2.89085e-10 -3.4931e-10 -2.88506e-09)
)
;
    }
    procBoundary1to0
    {
        type            processor;
        value           nonuniform List<vector> 
12
(
(-3.68583e-10 1.16563e-10 4.08786e-10)
(2.64855e-09 -2.20445e-09 3.85762e-09)
(1.97394e-09 -1.87949e-09 2.30437e-09)
(-1.83162e-09 -1.31099e-09 3.16319e-09)
(-8.93625e-10 4.71627e-10 4.64823e-09)
(9.43997e-10 -2.32677e-10 2.89601e-09)
(-1.77014e-09 -6.41791e-10 4.12222e-09)
(-2.34175e-09 1.88504e-09 4.67728e-09)
(-6.56989e-10 1.97299e-09 3.17123e-09)
(-3.8969e-10 -2.23978e-10 2.85754e-09)
(-6.80013e-10 5.67895e-10 1.95195e-09)
(1.01457e-10 1.00612e-09 2.14898e-09)
)
;
    }
    procBoundary1to3
    {
        type            processor;
        value           nonuniform List<vector> 
27
(
(2.33547e-09 -3.45776e-09 1.62086e-09)
(3.0601e-09 -5.33269e-09 2.08481e-09)
(3.50071e-09 -6.77619e-09 6.74812e-10)
(2.08035e-09 -2.4574e-09 3.54752e-10)
(1.34048e-09 -1.40878e-09 -3.17162e-10)
(1.73722e-09 -6.38588e-10 -7.0098e-10)
(1.28607e-09 -6.83607e-10 -7.84913e-10)
(-2.87876e-09 2.09076e-10 -8.1986e-10)
(-1.30343e-08 -8.19988e-10 -2.30076e-10)
(2.39313e-09 -2.22868e-09 1.38888e-09)
(2.56023e-09 -1.39146e-09 1.48081e-09)
(2.26478e-09 -1.71799e-09 1.12996e-09)
(2.29375e-09 -1.29238e-09 3.97705e-10)
(2.34745e-09 -1.12799e-09 -3.85654e-10)
(2.05388e-09 -7.71285e-10 -1.00251e-09)
(1.94416e-09 -2.88346e-10 -1.87255e-09)
(1.42392e-09 2.80166e-10 -9.08618e-10)
(-1.03081e-09 -8.00652e-10 -4.71704e-10)
(2.33529e-09 -4.3228e-10 1.35953e-09)
(2.5286e-09 -3.21755e-10 1.7342e-09)
(2.48107e-09 6.50028e-10 2.27861e-09)
(2.77352e-09 -7.26209e-10 6.9603e-10)
(2.75873e-09 -8.5399e-10 -1.78962e-10)
(2.57474e-09 -3.02815e-10 -1.15678e-09)
(2.2174e-09 -2.24934e-10 -1.79167e-09)
(1.82312e-09 -1.22901e-10 -1.52097e-09)
(1.30371e-09 -2.36412e-10 -8.41529e-10)
)
;
    }
    procBoundary1to5
    {
        type            processor;
        value           nonuniform List<vector> 
32
(
(1.5634e-09 -2.05008e-10 1.23647e-09)
(1.18147e-09 -1.71364e-10 1.83116e-10)
(1.15263e-09 -1.03482e-10 -3.96485e-10)
(5.79033e-10 3.10093e-12 -5.78695e-10)
(6.36441e-10 -1.60381e-10 -6.87586e-10)
(-4.71005e-10 -1.35625e-10 -6.6417e-10)
(2.98494e-09 8.8864e-10 4.70388e-09)
(2.66329e-09 -5.63446e-11 1.9233e-09)
(2.18526e-09 -3.03138e-10 2.48942e-10)
(1.63661e-09 -1.8477e-13 -5.50053e-10)
(1.2454e-09 2.15553e-10 -1.23624e-09)
(7.89693e-10 3.91533e-11 -1.37212e-09)
(3.31183e-10 -7.54717e-12 -1.06076e-09)
(2.22206e-09 4.69156e-10 2.95065e-09)
(2.93391e-09 9.28292e-10 2.64031e-09)
(3.1391e-09 4.10235e-10 1.24139e-09)
(2.54547e-09 1.04007e-10 2.3035e-10)
(2.02335e-09 7.34575e-11 -4.79969e-10)
(1.47341e-09 2.3833e-10 -1.02285e-09)
(1.16005e-09 8.84345e-11 -1.51225e-09)
(4.92859e-10 -3.54474e-12 -7.07278e-10)
(1.128e-10 2.97039e-10 5.01424e-10)
(8.54889e-10 3.571e-10 7.15792e-10)
(1.5634e-09 -2.05008e-10 1.23647e-09)
(2.98494e-09 8.8864e-10 4.70388e-09)
(1.10716e-09 2.87871e-11 1.00983e-09)
(1.20605e-09 5.09187e-10 9.74745e-10)
(2.98494e-09 8.8864e-10 4.70388e-09)
(2.22206e-09 4.69156e-10 2.95065e-09)
(2.54122e-09 7.49803e-10 9.63197e-10)
(2.22206e-09 4.69156e-10 2.95065e-09)
(1.38802e-09 5.08325e-10 1.49029e-09)
)
;
    }
    procBoundary1to7
    {
        type            processor;
        value           uniform (2.34887e-09 1.97449e-10 1.45289e-09);
    }
}


// ************************************************************************* //
