/*--------------------------------*- C++ -*----------------------------------*\
| =========                 |                                                 |
| \\      /  F ield         | OpenFOAM: The Open Source CFD Toolbox           |
|  \\    /   O peration     | Version:  4.x                                   |
|   \\  /    A nd           | Web:      www.OpenFOAM.org                      |
|    \\/     M anipulation  |                                                 |
\*---------------------------------------------------------------------------*/
FoamFile
{
    version     2.0;
    format      ascii;
    class       volVectorField;
    location    "55.5";
    object      impParticleForces;
}
// * * * * * * * * * * * * * * * * * * * * * * * * * * * * * * * * * * * * * //

dimensions      [1 1 -2 0 0 0 0];

internalField   nonuniform List<vector> 
114
(
(0.00242357 3.45101e-07 -1.57186e-05)
(0.00238259 -4.59272e-07 -1.13005e-05)
(0.00238433 -1.74487e-06 -6.61226e-06)
(0.00232827 -5.87873e-06 -4.03325e-06)
(0.00230631 -1.10228e-05 -1.09474e-06)
(0.0022245 -1.88275e-05 -2.83392e-06)
(0.00242635 -2.08066e-06 -2.06969e-05)
(0.00244367 -4.06063e-08 -1.58351e-05)
(0.00240405 -6.90744e-07 -1.13486e-05)
(0.00241862 -7.76811e-07 -6.17165e-06)
(0.00236163 -5.05716e-06 -4.84514e-06)
(0.00234493 -8.68139e-06 -1.95088e-06)
(0.00225321 -1.82377e-05 -7.1268e-06)
(0.00245006 -3.26999e-06 -2.5507e-05)
(0.00241376 -2.12831e-06 -2.06039e-05)
(0.00243902 -9.48547e-07 -1.59001e-05)
(0.00240154 -1.06393e-06 -1.18758e-05)
(0.00240072 -1.34019e-06 -7.77359e-06)
(0.00235156 -3.20568e-06 -6.3143e-06)
(0.00232231 -5.6511e-06 -6.14489e-06)
(0.00224814 -1.06716e-05 -1.09772e-05)
(0.002392 -9.26973e-06 -2.22902e-05)
(0.00239889 -6.425e-06 -1.71424e-05)
(0.00239205 -4.0564e-06 -1.21937e-05)
(0.00240021 -2.45359e-06 -7.02067e-06)
(0.00237351 -2.6917e-06 -1.93649e-06)
(0.00239098 -3.35641e-06 3.76311e-06)
(0.0023298 -8.86539e-06 1.04218e-05)
(0.00231016 -1.36823e-05 1.5269e-05)
(0.00221624 -2.57675e-05 2.4779e-05)
(0.00242006 -8.86211e-06 -2.26326e-05)
(0.00243169 -6.10677e-06 -1.78723e-05)
(0.00241231 -4.09184e-06 -1.31582e-05)
(0.00243352 -2.30421e-06 -8.1078e-06)
(0.00239548 -2.66064e-06 -3.05717e-06)
(0.00241387 -2.50109e-06 2.70489e-06)
(0.00234525 -7.63692e-06 8.41127e-06)
(0.00234205 -1.10988e-05 1.53165e-05)
(0.00224571 -2.52528e-05 2.37857e-05)
(0.002399 -6.74755e-06 -2.3221e-05)
(0.00240841 -4.91211e-06 -1.89923e-05)
(0.00239164 -3.78481e-06 -1.46282e-05)
(0.00241865 -2.73725e-06 -9.84047e-06)
(0.00237969 -2.91126e-06 -5.25907e-06)
(0.00239196 -3.23647e-06 2.90631e-07)
(0.00233593 -5.65755e-06 5.5713e-06)
(0.00231621 -8.24491e-06 1.22517e-05)
(0.002234 -1.55204e-05 1.79863e-05)
(0.00239325 -4.4091e-06 -2.43205e-05)
(0.00240264 -3.92551e-06 -2.05342e-05)
(0.00238637 -1.02434e-05 -1.633e-05)
(0.00240763 -7.97361e-06 -1.18128e-05)
(0.00238267 -5.904e-06 -7.69297e-06)
(0.00239577 -4.80514e-06 -2.61145e-06)
(0.00237655 -4.78039e-06 2.91867e-06)
(0.00238121 -6.03144e-06 9.11512e-06)
(0.00233634 -1.08377e-05 1.80236e-05)
(0.00233341 -1.69645e-05 2.62005e-05)
(0.00222142 -2.77639e-05 4.21034e-05)
(0.00240398 -1.01641e-05 -1.64246e-05)
(0.00244402 -8.32396e-06 -1.21017e-05)
(0.00240443 -6.66941e-06 -8.32387e-06)
(0.00242394 -5.40248e-06 -3.56481e-06)
(0.00240065 -5.53339e-06 1.68984e-06)
(0.00241545 -5.54394e-06 7.66029e-06)
(0.00237383 -1.01798e-05 1.63128e-05)
(0.00235755 -1.32328e-05 2.48384e-05)
(0.00224092 -2.66575e-05 4.11444e-05)
(0.00238764 -8.25403e-06 -1.74296e-05)
(0.00241403 -7.04395e-06 -1.39845e-05)
(0.00239554 -6.32434e-06 -1.02504e-05)
(0.00240743 -5.65845e-06 -5.99913e-06)
(0.00239574 -5.97108e-06 -9.10289e-07)
(0.00240191 -6.3415e-06 4.99628e-06)
(0.00235179 -8.9934e-06 1.29969e-05)
(0.00233972 -1.26745e-05 2.45222e-05)
(0.00224827 -2.1417e-05 4.24009e-05)
(0.00237852 -5.97583e-06 -1.88874e-05)
(0.00242597 -5.83867e-06 -1.60398e-05)
(0.00239021 -5.93828e-06 -1.27646e-05)
(0.00241049 -5.87411e-06 -9.18121e-06)
(0.00233625 -1.06257e-05 -1.2976e-05)
(0.0023591 -8.85862e-06 -8.909e-06)
(0.00234023 -7.34996e-06 -4.88482e-06)
(0.00236281 -6.65116e-06 -1.3399e-07)
(0.00234986 -7.05659e-06 5.75666e-06)
(0.00236335 -8.58069e-06 1.22534e-05)
(0.00233275 -1.4021e-05 2.40792e-05)
(0.00234838 -1.87773e-05 3.08105e-05)
(0.00221866 -3.17139e-05 5.20481e-05)
(0.00237129 -1.10464e-05 -1.3053e-05)
(0.00239916 -9.74077e-06 -9.25683e-06)
(0.00236728 -8.71184e-06 -5.79388e-06)
(0.00238583 -7.6619e-06 -1.40828e-06)
(0.00237475 -8.29456e-06 4.17302e-06)
(0.00237786 -8.63206e-06 1.00974e-05)
(0.00234632 -1.30064e-05 1.95591e-05)
(0.00234731 -1.49762e-05 2.73758e-05)
(0.0022307 -2.85711e-05 4.69274e-05)
(0.00235489 -9.29464e-06 -1.43762e-05)
(0.00238432 -8.69239e-06 -1.11948e-05)
(0.00236947 -8.29438e-06 -7.93989e-06)
(0.00238065 -7.99796e-06 -3.9917e-06)
(0.00236495 -8.71009e-06 1.43052e-06)
(0.00237859 -9.12282e-06 6.99978e-06)
(0.00233278 -1.17092e-05 1.61094e-05)
(0.0023216 -1.39053e-05 2.48834e-05)
(0.0022297 -2.29965e-05 4.64154e-05)
(0.0023503 -7.18856e-06 -1.61981e-05)
(0.00237756 -7.41838e-06 -1.37979e-05)
(0.00236219 -7.92096e-06 -1.10863e-05)
(0.00237859 -8.40125e-06 -7.94243e-06)
(0.00236314 -9.81045e-06 -3.07844e-06)
(0.00235211 -9.44268e-06 1.91567e-06)
)
;

boundaryField
{
    inlet
    {
        type            zeroGradient;
    }
    outlet
    {
        type            zeroGradient;
    }
    wall
    {
        type            zeroGradient;
    }
    procBoundary5to1
    {
        type            processor;
        value           nonuniform List<vector> 
32
(
(0.00248732 1.24169e-06 -2.56189e-05)
(0.00243891 8.67118e-07 -2.1725e-05)
(0.00244672 1.84378e-07 -1.9556e-05)
(0.00239809 -2.91126e-06 -2.07705e-05)
(0.00237692 -6.5244e-06 -1.79252e-05)
(0.00226041 -1.45898e-05 -2.81891e-05)
(0.00247078 -1.9805e-06 -2.80538e-05)
(0.00250909 1.88758e-07 -2.37028e-05)
(0.002473 -2.0119e-07 -2.0837e-05)
(0.00248327 2.6929e-07 -1.77641e-05)
(0.00242635 -3.50798e-06 -1.9569e-05)
(0.00241193 -4.54706e-06 -1.99721e-05)
(0.00228193 -1.60294e-05 -3.336e-05)
(0.00248838 -3.39469e-06 -3.12976e-05)
(0.00246056 -1.82108e-06 -2.6413e-05)
(0.00250512 -2.57097e-07 -2.20958e-05)
(0.00246077 -5.67209e-07 -1.9043e-05)
(0.00247593 -4.29425e-07 -1.6314e-05)
(0.00241538 -2.31516e-06 -1.82651e-05)
(0.00239687 -2.75615e-06 -2.12139e-05)
(0.00228567 -1.05033e-05 -3.61632e-05)
(0.00239829 -7.76098e-06 -3.0702e-05)
(0.00240602 -4.40157e-06 -2.53408e-05)
(0.00240279 -1.78072e-06 -2.07709e-05)
(0.00240279 -1.78072e-06 -2.07709e-05)
(0.00240279 -1.78072e-06 -2.07709e-05)
(0.00243251 -7.41492e-06 -3.09697e-05)
(0.00246726 -3.99737e-06 -2.60411e-05)
(0.00246726 -3.99737e-06 -2.60411e-05)
(0.00246726 -3.99737e-06 -2.60411e-05)
(0.00241588 -5.64289e-06 -3.04389e-05)
(0.00241588 -5.64289e-06 -3.04389e-05)
)
;
    }
    procBoundary5to4
    {
        type            processor;
        value           nonuniform List<vector> 
12
(
(0.00241966 -1.2617e-05 -2.70291e-05)
(0.00245215 -1.19738e-05 -2.73488e-05)
(0.00241955 -8.65291e-06 -2.7505e-05)
(0.00240589 -4.95941e-06 -2.81217e-05)
(0.00242121 -1.31611e-05 -1.97319e-05)
(0.00244834 -1.28562e-05 -1.96133e-05)
(0.00242162 -9.68297e-06 -2.03277e-05)
(0.00240173 -6.1488e-06 -2.15168e-05)
(0.00238418 -1.30589e-05 -1.54758e-05)
(0.00239354 -1.27607e-05 -1.58907e-05)
(0.00237705 -1.01965e-05 -1.67924e-05)
(0.00236746 -6.93138e-06 -1.82685e-05)
)
;
    }
    procBoundary5to7
    {
        type            processor;
        value           nonuniform List<vector> 
44
(
(0.00244838 -2.24644e-06 -2.63e-05)
(0.0024135 -1.67626e-06 -2.17466e-05)
(0.00243732 -9.12985e-07 -1.7291e-05)
(0.00242047 -3.40943e-07 -1.32569e-05)
(0.00243193 8.97633e-07 -9.35126e-06)
(0.00235413 1.39549e-06 -9.28171e-06)
(0.00231907 2.33074e-06 -9.69004e-06)
(0.00224581 4.37503e-06 -1.71482e-05)
(0.00241821 -3.18438e-06 -3.09424e-05)
(0.00244838 -2.24644e-06 -2.63e-05)
(0.00238401 -3.46805e-06 -1.65531e-05)
(0.00240934 -3.07647e-06 -1.21657e-05)
(0.00237673 -2.52751e-06 -8.07764e-06)
(0.00238632 -1.84478e-06 -3.07469e-06)
(0.00233276 -1.34312e-06 6.90735e-07)
(0.00231305 4.42442e-07 6.06264e-06)
(0.00222834 -9.54798e-07 9.78028e-06)
(0.00238401 -2.20813e-06 -2.57992e-05)
(0.00238401 -3.46805e-06 -1.65531e-05)
(0.00242673 -2.80536e-06 -2.25508e-05)
(0.00238401 -3.46805e-06 -1.65531e-05)
(0.00240934 -3.07647e-06 -1.21657e-05)
(0.00236401 -5.91661e-06 -4.6541e-06)
(0.00237743 -5.87771e-06 4.26519e-07)
(0.00233399 -6.533e-06 7.11302e-06)
(0.00231685 -6.56592e-06 1.43974e-05)
(0.00222134 -7.89582e-06 2.96723e-05)
(0.00238801 -3.41098e-06 -2.07573e-05)
(0.00241816 -4.07486e-06 -1.84692e-05)
(0.00237813 -4.82009e-06 -1.58184e-05)
(0.00236401 -5.91661e-06 -4.6541e-06)
(0.00239629 -5.25667e-06 -1.2814e-05)
(0.00236401 -5.91661e-06 -4.6541e-06)
(0.00237743 -5.87771e-06 4.26519e-07)
(0.00230927 -1.11753e-05 9.79729e-06)
(0.00230604 -1.05351e-05 1.86338e-05)
(0.00220364 -1.54205e-05 3.2875e-05)
(0.00235897 -4.47371e-06 -1.82796e-05)
(0.0023754 -5.40157e-06 -1.65963e-05)
(0.00235288 -6.40169e-06 -1.45069e-05)
(0.00237474 -7.16794e-06 -1.23916e-05)
(0.00233631 -7.53042e-06 -8.68717e-06)
(0.00230927 -1.11753e-05 9.79729e-06)
(0.00233543 -7.24127e-06 -5.14039e-06)
)
;
    }
}


// ************************************************************************* //
