/*--------------------------------*- C++ -*----------------------------------*\
| =========                 |                                                 |
| \\      /  F ield         | OpenFOAM: The Open Source CFD Toolbox           |
|  \\    /   O peration     | Version:  4.x                                   |
|   \\  /    A nd           | Web:      www.OpenFOAM.org                      |
|    \\/     M anipulation  |                                                 |
\*---------------------------------------------------------------------------*/
FoamFile
{
    version     2.0;
    format      ascii;
    class       volScalarField;
    location    "55.5";
    object      KslNext;
}
// * * * * * * * * * * * * * * * * * * * * * * * * * * * * * * * * * * * * * //

dimensions      [1 -3 -1 0 0 0 0];

internalField   nonuniform List<scalar> 
114
(
3628.14
38456.6
4123.11
1e+10
5587.67
52757
235456
3706.65
154264
3772.87
60478.6
4137.24
12354.9
4182.59
1e+10
4233.78
1e+10
4321.96
303822
4746.31
14411.4
7181.92
3080
7389.02
2945.53
7979.54
2771.55
9166.1
2431.46
7943.19
29294.1
3548.76
57431.1
3485.7
68008.3
3433.13
24473
3466.15
6443.87
5.39571e+06
3737.61
1e+10
3696.94
148575
3588.45
34590.9
3662.18
13165.9
1e+10
3837.47
7691.06
3212.73
8115.56
3117.07
8748.69
3015.58
10844.6
2895.29
14107.5
14898.5
3472.52
17707.5
3339.18
21376.6
3209.96
21308.9
2999.86
10542.4
101044
3694.61
1e+10
3734
1e+10
3887.41
48727
4170.93
7977.44
50639.2
3594.73
77906.8
3486.38
4847.28
2740.08
4619.05
2549.3
4566.59
2278.74
4847.38
1818.69
5404.89
6086.08
2978.84
5961.1
2796.7
6108.68
2586.56
7046.47
2317.7
9689.04
7301.04
3145.48
7467.31
3007.6
7576.48
2796.04
7836.32
2363.14
8224.21
7225.83
3099.79
7444.91
2980.6
7956.48
2771.76
)
;

boundaryField
{
    inlet
    {
        type            zeroGradient;
    }
    outlet
    {
        type            zeroGradient;
    }
    wall
    {
        type            zeroGradient;
    }
    procBoundary5to1
    {
        type            processor;
        value           uniform 0;
    }
    procBoundary5to4
    {
        type            processor;
        value           uniform 0;
    }
    procBoundary5to7
    {
        type            processor;
        value           uniform 0;
    }
}


// ************************************************************************* //
