/*--------------------------------*- C++ -*----------------------------------*\
| =========                 |                                                 |
| \\      /  F ield         | OpenFOAM: The Open Source CFD Toolbox           |
|  \\    /   O peration     | Version:  4.x                                   |
|   \\  /    A nd           | Web:      www.OpenFOAM.org                      |
|    \\/     M anipulation  |                                                 |
\*---------------------------------------------------------------------------*/
FoamFile
{
    version     2.0;
    format      ascii;
    class       volScalarField;
    location    "55.5";
    object      QPartFluidCoeff;
}
// * * * * * * * * * * * * * * * * * * * * * * * * * * * * * * * * * * * * * //

dimensions      [1 -1 -3 -1 0 0 0];

internalField   nonuniform List<scalar> 
114
(
-2.62096e+07
-2.4152e+07
-2.34799e+07
-1.90894e+07
-2.63349e+07
-1.95644e+07
-2.42576e+07
-2.3509e+07
-1.97584e+07
-2.761e+07
-2.8395e+07
-3.38233e+07
-2.18217e+07
-3.32008e+07
-2.05106e+07
-2.90717e+07
-1.96396e+07
-1.77343e+07
-2.39085e+07
-2.09062e+07
-2.22129e+07
-2.21795e+07
-1.9001e+07
-2.52691e+07
-2.12844e+07
-2.19997e+07
-2.7965e+07
-2.42655e+07
-2.27419e+07
-1.63495e+07
-2.73709e+07
-2.74975e+07
-3.11518e+07
-2.98121e+07
-2.96504e+07
-3.39577e+07
-1.81849e+07
-3.56921e+07
-2.13006e+07
-2.83939e+07
-1.83767e+07
-2.43178e+07
-3.04007e+07
-2.06853e+07
-2.8126e+07
-2.54567e+07
-2.70876e+07
-1.49593e+07
-3.45818e+07
-1.69212e+07
-2.42177e+07
-3.18378e+07
-2.45436e+07
-2.863e+07
-2.53838e+07
-2.68969e+07
-2.24809e+07
-2.93791e+07
-1.73125e+07
-2.03848e+07
-3.63732e+07
-2.40589e+07
-3.04525e+07
-2.77979e+07
-3.07473e+07
-3.60352e+07
-2.92386e+07
-1.60605e+07
-2.46646e+07
-2.59365e+07
-2.67079e+07
-2.46403e+07
-3.7907e+07
-3.0889e+07
-3.00882e+07
-3.66026e+07
-2.73447e+07
-1.74056e+07
-3.91647e+07
-3.18727e+07
-3.33194e+07
-8.30038e+06
-2.29113e+07
-1.50989e+07
-2.57592e+07
-2.02163e+07
-1.95234e+07
-2.38955e+07
-2.64348e+07
-1.66732e+07
-2.32494e+07
-2.74259e+07
-1.61871e+07
-2.31299e+07
-2.73301e+07
-2.569e+07
-1.82689e+07
-3.01234e+07
-1.78209e+07
-2.02529e+07
-2.44013e+07
-2.84331e+07
-2.62102e+07
-2.0855e+07
-3.15536e+07
-2.3399e+07
-2.73127e+07
-2.13506e+07
-2.40749e+07
-2.16611e+07
-2.45533e+07
-2.25457e+07
-3.48537e+07
-2.85566e+07
)
;

boundaryField
{
    inlet
    {
        type            calculated;
        value           nonuniform 0();
    }
    outlet
    {
        type            calculated;
        value           uniform 0;
    }
    wall
    {
        type            calculated;
        value           uniform 0;
    }
    procBoundary5to1
    {
        type            processor;
        value           nonuniform List<scalar> 
32
(
725.846
459.738
755.192
545.451
558.759
240.642
490.723
612.082
618.322
686.56
576.712
714.844
279.932
587.53
413.323
841.286
669.715
823.281
581.298
733.97
256.252
488.79
418.032
573.451
573.451
573.451
593.796
922.232
922.232
922.232
446.151
446.151
)
;
    }
    procBoundary5to4
    {
        type            processor;
        value           nonuniform List<scalar> 
12
(
729.867
839.998
509.783
535.724
724.546
793.969
652.054
615.548
620.5
649.03
532.69
536.276
)
;
    }
    procBoundary5to7
    {
        type            processor;
        value           nonuniform List<scalar> 
44
(
694.882
491.45
604.477
864.601
949.697
607.443
495.688
466.426
771.325
694.882
495.766
653.488
505.504
620.734
667.132
746.82
457.26
291.767
495.766
763.778
495.766
653.488
380.413
551.88
622.663
580.204
351.958
649.29
692.241
535.801
380.413
493.949
380.413
551.88
446.796
613.859
370.1
552.404
529.559
568.439
652.234
388.003
446.796
370.484
)
;
    }
}


// ************************************************************************* //
