/*--------------------------------*- C++ -*----------------------------------*\
| =========                 |                                                 |
| \\      /  F ield         | OpenFOAM: The Open Source CFD Toolbox           |
|  \\    /   O peration     | Version:  4.x                                   |
|   \\  /    A nd           | Web:      www.OpenFOAM.org                      |
|    \\/     M anipulation  |                                                 |
\*---------------------------------------------------------------------------*/
FoamFile
{
    version     2.0;
    format      ascii;
    class       volVectorField;
    location    "29.5";
    object      impParticleForces;
}
// * * * * * * * * * * * * * * * * * * * * * * * * * * * * * * * * * * * * * //

dimensions      [1 1 -2 0 0 0 0];

internalField   nonuniform List<vector> 
87
(
(0.00243947 9.53514e-05 -3.42558e-05)
(0.0024808 0.000232651 -2.09746e-05)
(0.00246993 0.000102262 -1.72815e-05)
(0.00250682 5.49452e-05 -1.09021e-05)
(0.00245781 3.35959e-05 -3.34305e-06)
(0.00245582 2.19067e-05 4.42415e-06)
(0.00243667 1.3112e-05 8.14192e-06)
(0.00241386 5.70777e-06 1.08722e-05)
(0.00229129 -4.57961e-06 -8.47745e-07)
(0.00247369 5.55761e-05 -3.60345e-05)
(0.00250046 8.68768e-05 -2.62072e-05)
(0.00250539 6.20167e-05 -1.82741e-05)
(0.00253144 4.22136e-05 -9.89107e-06)
(0.00249017 2.89585e-05 -1.31926e-06)
(0.00249369 2.08335e-05 7.65397e-06)
(0.00246031 1.25989e-05 1.21404e-05)
(0.00244924 9.07522e-06 1.69546e-05)
(0.00230212 -5.69125e-06 3.20643e-06)
(0.00247638 3.33208e-05 -3.64849e-05)
(0.00251288 4.32698e-05 -2.74235e-05)
(0.00249562 3.89939e-05 -1.78769e-05)
(0.00252423 3.20683e-05 -8.30838e-06)
(0.00247618 2.52452e-05 7.64528e-07)
(0.00247507 2.01602e-05 9.91211e-06)
(0.00242273 1.39728e-05 1.31538e-05)
(0.00240451 1.14546e-05 1.82627e-05)
(0.00228334 1.18484e-06 2.38635e-06)
(0.0024616 5.46147e-05 -3.58485e-05)
(0.00247761 8.63456e-05 -2.6158e-05)
(0.00248034 6.1988e-05 -1.86869e-05)
(0.00250981 4.23004e-05 -1.07423e-05)
(0.00247145 2.94646e-05 -2.59043e-06)
(0.00247658 2.07345e-05 5.83347e-06)
(0.00245206 1.29323e-05 1.04995e-05)
(0.00242695 5.23657e-06 1.46028e-05)
(0.00229201 -5.21761e-06 1.08966e-06)
(0.00250554 3.80266e-05 -3.66308e-05)
(0.00251412 5.21456e-05 -2.68795e-05)
(0.00251035 4.4924e-05 -1.80469e-05)
(0.00255121 3.50557e-05 -9.00955e-06)
(0.00251682 2.63646e-05 3.84481e-07)
(0.00251549 2.03209e-05 1.05785e-05)
(0.00248289 1.24031e-05 1.5391e-05)
(0.0024701 8.49563e-06 2.20598e-05)
(0.0023053 -7.85409e-06 5.64823e-06)
(0.00248906 2.62539e-05 -3.56935e-05)
(0.00252306 3.28314e-05 -2.60407e-05)
(0.00249809 3.19081e-05 -1.65592e-05)
(0.00251757 2.79266e-05 -6.33337e-06)
(0.00247449 2.32319e-05 3.20187e-06)
(0.00248918 1.92502e-05 1.38063e-05)
(0.00244468 1.44926e-05 1.9054e-05)
(0.00243539 1.12741e-05 2.60617e-05)
(0.00229561 1.49395e-06 6.84899e-06)
(0.00242366 2.88515e-05 -3.39369e-05)
(0.00245339 3.9813e-05 -2.59309e-05)
(0.0024528 3.64024e-05 -1.82679e-05)
(0.00248186 3.0176e-05 -1.02331e-05)
(0.00243341 2.33732e-05 -1.10862e-06)
(0.00244049 1.81157e-05 7.27794e-06)
(0.00239454 1.15244e-05 1.30421e-05)
(0.00237298 6.05616e-06 2.22707e-05)
(0.00225472 -3.9945e-06 1.43983e-05)
(0.00245568 2.27452e-05 -3.38488e-05)
(0.0024851 3.02844e-05 -2.54764e-05)
(0.00246225 2.96473e-05 -1.6573e-05)
(0.00249812 2.65255e-05 -7.48763e-06)
(0.0024614 2.14981e-05 1.46051e-06)
(0.00247122 1.79364e-05 1.14317e-05)
(0.00241542 1.1592e-05 1.73541e-05)
(0.00240071 7.53801e-06 2.51495e-05)
(0.00227089 -4.79801e-06 1.4843e-05)
(0.00244791 1.82492e-05 -3.23877e-05)
(0.00247719 2.29935e-05 -2.30871e-05)
(0.00244729 2.36264e-05 -1.41564e-05)
(0.00248789 2.23825e-05 -4.09938e-06)
(0.00244216 1.94688e-05 4.89939e-06)
(0.00245408 1.69194e-05 1.56764e-05)
(0.0023955 1.33147e-05 2.11642e-05)
(0.00237881 1.14279e-05 2.74348e-05)
(0.00227126 1.56302e-06 1.503e-05)
(0.00239394 1.4077e-05 -2.83784e-05)
(0.00240197 2.00067e-05 -2.06516e-05)
(0.00240112 2.12256e-05 -1.32424e-05)
(0.00242607 1.21119e-05 -2.8433e-05)
(0.00245949 1.72872e-05 -2.10442e-05)
(0.00240384 1.17878e-05 -2.72808e-05)
)
;

boundaryField
{
    inlet
    {
        type            zeroGradient;
    }
    outlet
    {
        type            zeroGradient;
    }
    wall
    {
        type            zeroGradient;
    }
    procBoundary1to0
    {
        type            processor;
        value           nonuniform List<vector> 
12
(
(0.00241591 4.17374e-05 -4.44818e-05)
(0.00247657 2.93594e-05 -4.62773e-05)
(0.00249278 2.08828e-05 -4.68116e-05)
(0.00246045 2.8082e-05 -4.53151e-05)
(0.00250999 2.10849e-05 -4.65431e-05)
(0.00249364 1.68464e-05 -4.55573e-05)
(0.00243251 1.53169e-05 -4.22638e-05)
(0.00247964 1.22926e-05 -4.32466e-05)
(0.00244709 1.17187e-05 -4.12353e-05)
(0.00241791 6.03767e-06 -3.6058e-05)
(0.00244411 5.30271e-06 -3.62416e-05)
(0.00242293 6.95886e-06 -3.4988e-05)
)
;
    }
    procBoundary1to3
    {
        type            processor;
        value           nonuniform List<vector> 
27
(
(0.00249758 2.36186e-05 -3.73333e-05)
(0.0024901 2.79823e-05 -2.76987e-05)
(0.00248962 2.81824e-05 -1.81843e-05)
(0.0024792 2.61447e-05 -8.34166e-06)
(0.0024591 2.39642e-05 8.89218e-07)
(0.00244065 2.23383e-05 9.53245e-06)
(0.00239676 2.08507e-05 1.32924e-05)
(0.00234706 2.10695e-05 1.36321e-05)
(0.00225958 2.05196e-05 1.81476e-06)
(0.00249676 2.07617e-05 -3.65289e-05)
(0.00252174 2.45419e-05 -2.6764e-05)
(0.00250327 2.50944e-05 -1.73152e-05)
(0.00251596 2.40163e-05 -6.58567e-06)
(0.00247062 2.23985e-05 3.00553e-06)
(0.00246882 2.10588e-05 1.35194e-05)
(0.00241335 2.00991e-05 1.81088e-05)
(0.00239392 1.8489e-05 2.40054e-05)
(0.00229259 2.0544e-05 5.23847e-06)
(0.00244805 1.6564e-05 -3.25592e-05)
(0.00248474 1.90957e-05 -2.34128e-05)
(0.00245206 2.01114e-05 -1.43619e-05)
(0.00247171 1.98319e-05 -4.25548e-06)
(0.00242822 1.90119e-05 4.75403e-06)
(0.0024388 1.82799e-05 1.51568e-05)
(0.00238561 1.77865e-05 2.02333e-05)
(0.00236226 1.77778e-05 2.44241e-05)
(0.00228101 1.85045e-05 1.13172e-05)
)
;
    }
    procBoundary1to5
    {
        type            processor;
        value           nonuniform List<vector> 
32
(
(0.00242216 2.01234e-05 -4.74718e-06)
(0.00238182 1.7028e-05 3.7657e-06)
(0.00238553 1.37936e-05 1.29514e-05)
(0.00232984 7.94401e-06 2.01257e-05)
(0.00231096 1.60008e-06 2.80321e-05)
(0.00222547 -7.51597e-06 2.89436e-05)
(0.00241881 1.87794e-05 -1.24198e-05)
(0.00243565 1.86823e-05 -3.65634e-06)
(0.00239672 1.62226e-05 5.31646e-06)
(0.00241387 1.46235e-05 1.56318e-05)
(0.00235759 8.92627e-06 2.21162e-05)
(0.00234499 4.31434e-06 3.08212e-05)
(0.0022505 -6.71847e-06 2.8431e-05)
(0.0024366 1.54549e-05 -1.96123e-05)
(0.00240034 1.6585e-05 -1.12462e-05)
(0.00242473 1.66456e-05 -2.14098e-06)
(0.00238776 1.50874e-05 6.52687e-06)
(0.00238868 1.33824e-05 1.60546e-05)
(0.0023436 1.04368e-05 2.24908e-05)
(0.00231762 7.27679e-06 2.78057e-05)
(0.00224756 3.51531e-08 2.48289e-05)
(0.00238348 5.51434e-06 -2.1773e-05)
(0.00239003 9.60174e-06 -1.49763e-05)
(0.00242216 2.01234e-05 -4.74718e-06)
(0.00241881 1.87794e-05 -1.24198e-05)
(0.00238325 1.17311e-05 -8.01328e-06)
(0.00240933 5.20304e-06 -2.17773e-05)
(0.00241881 1.87794e-05 -1.24198e-05)
(0.0024366 1.54549e-05 -1.96123e-05)
(0.00242052 8.9402e-06 -1.51585e-05)
(0.0024366 1.54549e-05 -1.96123e-05)
(0.00238671 6.74838e-06 -2.17117e-05)
)
;
    }
    procBoundary1to7
    {
        type            processor;
        value           uniform (0.00240209 1.27063e-05 -2.77251e-05);
    }
}


// ************************************************************************* //
