/*--------------------------------*- C++ -*----------------------------------*\
| =========                 |                                                 |
| \\      /  F ield         | OpenFOAM: The Open Source CFD Toolbox           |
|  \\    /   O peration     | Version:  4.x                                   |
|   \\  /    A nd           | Web:      www.OpenFOAM.org                      |
|    \\/     M anipulation  |                                                 |
\*---------------------------------------------------------------------------*/
FoamFile
{
    version     2.0;
    format      ascii;
    class       volScalarField;
    location    "56";
    object      Qsource;
}
// * * * * * * * * * * * * * * * * * * * * * * * * * * * * * * * * * * * * * //

dimensions      [1 -1 -3 0 0 0 0];

internalField   nonuniform List<scalar> 
114
(
8.65252e+09
7.35899e+09
7.74452e+09
5.72702e+09
8.43192e+09
5.95348e+09
7.27659e+09
7.053e+09
5.92498e+09
8.28258e+09
8.51085e+09
1.01445e+10
6.54384e+09
9.95914e+09
6.15304e+09
8.72133e+09
5.89177e+09
5.31915e+09
7.1518e+09
6.26744e+09
6.66234e+09
7.10646e+09
6.59609e+09
8.02004e+09
7.3075e+09
7.00995e+09
9.34885e+09
7.64195e+09
7.86251e+09
5.29827e+09
8.21142e+09
8.2492e+09
9.34605e+09
8.94472e+09
8.8951e+09
1.01881e+10
5.45714e+09
1.07092e+10
6.39369e+09
8.51793e+09
5.51148e+09
7.29513e+09
9.11752e+09
6.20159e+09
8.434e+09
7.62857e+09
8.1225e+09
4.48722e+09
1.03744e+10
5.07677e+09
7.69165e+09
1.04125e+10
7.76812e+09
9.46473e+09
7.99609e+09
8.96217e+09
7.0645e+09
9.72353e+09
5.44289e+09
6.11495e+09
1.09124e+10
7.21736e+09
9.13646e+09
8.34097e+09
9.22608e+09
1.08155e+10
8.77554e+09
4.82058e+09
7.39829e+09
7.78101e+09
8.01255e+09
7.3923e+09
1.13718e+10
9.26542e+09
9.02556e+09
1.09781e+10
8.19848e+09
5.22236e+09
1.17508e+10
9.5644e+09
9.99681e+09
3.71837e+09
8.80843e+09
5.79778e+09
9.76521e+09
7.33598e+09
8.08701e+09
8.36996e+09
1.05771e+10
6.06181e+09
7.48734e+09
9.14268e+09
5.37693e+09
7.89301e+09
8.70544e+09
8.71419e+09
5.92999e+09
1.01259e+10
5.68078e+09
6.51324e+09
8.18751e+09
8.95736e+09
8.75386e+09
6.67764e+09
1.0403e+10
7.42476e+09
9.24677e+09
6.7775e+09
7.66357e+09
7.37421e+09
7.79629e+09
7.66199e+09
1.08612e+10
9.50516e+09
)
;

boundaryField
{
    inlet
    {
        type            calculated;
        value           nonuniform 0();
    }
    outlet
    {
        type            calculated;
        value           uniform 0;
    }
    wall
    {
        type            calculated;
        value           uniform 0;
    }
    procBoundary5to1
    {
        type            processor;
        value           nonuniform List<scalar> 
32
(
1.05647e+10
6.53233e+09
1.09821e+10
7.59904e+09
8.41481e+09
3.53913e+09
6.49185e+09
8.09836e+09
8.18077e+09
9.08379e+09
7.62819e+09
9.45636e+09
3.70287e+09
7.77325e+09
5.46727e+09
1.11315e+10
8.86188e+09
1.08938e+10
7.68852e+09
9.7072e+09
3.39006e+09
6.85262e+09
6.37127e+09
7.86459e+09
7.86459e+09
7.86459e+09
7.85581e+09
1.22016e+10
1.22016e+10
1.22016e+10
5.90254e+09
5.90254e+09
)
;
    }
    procBoundary5to4
    {
        type            processor;
        value           nonuniform List<scalar> 
12
(
1.05281e+10
1.11146e+10
6.7483e+09
7.08851e+09
1.04394e+10
1.05047e+10
8.62791e+09
8.14452e+09
1.00672e+10
9.47398e+09
7.89851e+09
7.95127e+09
)
;
    }
    procBoundary5to7
    {
        type            processor;
        value           nonuniform List<scalar> 
44
(
9.19435e+09
6.50132e+09
7.99865e+09
1.14386e+10
1.25668e+10
8.02932e+09
6.55598e+09
6.16974e+09
1.02029e+10
9.19435e+09
6.55941e+09
8.64515e+09
6.68675e+09
8.21241e+09
8.82304e+09
9.87914e+09
6.04763e+09
3.85928e+09
6.55941e+09
1.01047e+10
6.55941e+09
8.64515e+09
5.03286e+09
7.30137e+09
8.23671e+09
7.67621e+09
4.65544e+09
8.58457e+09
9.15854e+09
7.0883e+09
5.03286e+09
6.53396e+09
5.03286e+09
7.30137e+09
6.30139e+09
9.15728e+09
5.28421e+09
7.67232e+09
7.83015e+09
7.84362e+09
9.44199e+09
5.40782e+09
6.30139e+09
5.69862e+09
)
;
    }
}


// ************************************************************************* //
