/*--------------------------------*- C++ -*----------------------------------*\
| =========                 |                                                 |
| \\      /  F ield         | OpenFOAM: The Open Source CFD Toolbox           |
|  \\    /   O peration     | Version:  4.x                                   |
|   \\  /    A nd           | Web:      www.OpenFOAM.org                      |
|    \\/     M anipulation  |                                                 |
\*---------------------------------------------------------------------------*/
FoamFile
{
    version     2.0;
    format      ascii;
    class       volScalarField;
    location    "56";
    object      QWallFluid;
}
// * * * * * * * * * * * * * * * * * * * * * * * * * * * * * * * * * * * * * //

dimensions      [1 -1 -3 0 0 0 0];

internalField   nonuniform List<scalar> 
114
(
7.891e+08
1.15696e+08
6.99826e+08
3843.47
5.32439e+08
8.52466e+07
0
0
0
0
0
0
0
0
0
0
0
0
0
0
0
4.53077e+08
8.95707e+08
4.40117e+08
9.21853e+08
4.09531e+08
9.57698e+08
3.6018e+08
1.03739e+09
3.90386e+08
0
0
0
0
0
0
0
0
0
0
0
0
0
0
0
0
0
0
0
0
4.27082e+08
8.608e+08
4.06305e+08
8.74911e+08
3.79809e+08
8.91263e+08
3.15859e+08
9.05979e+08
2.46416e+08
0
0
0
0
0
0
0
0
0
0
0
0
0
0
0
0
0
0
0
0
0
0
1.22847e+09
1.93507e+09
1.26853e+09
2.03745e+09
1.2708e+09
2.22976e+09
1.20079e+09
2.64635e+09
1.05985e+09
5.12865e+08
9.14524e+08
5.20775e+08
9.53482e+08
5.05084e+08
1.00589e+09
4.48033e+08
1.08691e+09
3.33703e+08
4.38861e+08
8.67458e+08
4.2843e+08
8.91066e+08
4.21741e+08
9.37499e+08
4.0603e+08
1.05551e+09
3.76084e+08
4.41104e+08
8.75208e+08
4.29162e+08
8.97441e+08
4.041e+08
9.38007e+08
)
;

boundaryField
{
    inlet
    {
        type            calculated;
        value           nonuniform 0();
    }
    outlet
    {
        type            calculated;
        value           uniform 0;
    }
    wall
    {
        type            calculated;
        value           uniform 0;
    }
    procBoundary5to1
    {
        type            processor;
        value           nonuniform List<scalar> 
32
(
9.61642e+08
4.50002e+08
9.90903e+08
3.83276e+08
1.02411e+09
3.55921e+08
0
0
0
0
0
0
0
0
0
0
0
0
0
0
0
3.86217e+08
8.40475e+08
2.80374e+08
2.80374e+08
2.80374e+08
0
0
0
0
0
0
)
;
    }
    procBoundary5to4
    {
        type            processor;
        value           nonuniform List<scalar> 
12
(
8.71566e+08
0
0
0
8.53296e+08
0
0
0
1.85793e+09
8.87174e+08
8.51347e+08
8.56323e+08
)
;
    }
    procBoundary5to7
    {
        type            processor;
        value           nonuniform List<scalar> 
44
(
0
0
0
0
0
0
0
0
0
0
0
0
0
0
0
0
0
0
0
0
0
0
0
0
0
0
0
0
0
0
0
0
0
0
3.89301e+08
1.03595e+09
3.88044e+08
3.67833e+08
8.25546e+08
3.29024e+08
8.1589e+08
2.80866e+08
3.89301e+08
8.00575e+08
)
;
    }
}


// ************************************************************************* //
