/*--------------------------------*- C++ -*----------------------------------*\
| =========                 |                                                 |
| \\      /  F ield         | OpenFOAM: The Open Source CFD Toolbox           |
|  \\    /   O peration     | Version:  4.x                                   |
|   \\  /    A nd           | Web:      www.OpenFOAM.org                      |
|    \\/     M anipulation  |                                                 |
\*---------------------------------------------------------------------------*/
FoamFile
{
    version     2.0;
    format      ascii;
    class       volScalarField;
    location    "56";
    object      SPartFluid;
}
// * * * * * * * * * * * * * * * * * * * * * * * * * * * * * * * * * * * * * //

dimensions      [1 -3 -1 0 0 0 0];

internalField   nonuniform List<scalar> 
114
(
6.82011e-65
8.06012e-65
6.35509e-65
6.74259e-65
7.5951e-65
8.44761e-65
6.82011e-65
5.65759e-65
5.81258e-65
6.66509e-65
8.2151e-65
8.52511e-65
7.9051e-65
8.44762e-65
6.04509e-65
7.51761e-65
5.73508e-65
4.57256e-65
6.97509e-65
5.42507e-65
8.6801e-65
6.35509e-65
4.80507e-65
6.97511e-65
5.42508e-65
6.43259e-65
6.82009e-65
7.13009e-65
5.65757e-65
5.96757e-65
7.1301e-65
6.8201e-65
8.60263e-65
7.05261e-65
8.37012e-65
8.13761e-65
5.27007e-65
8.6026e-65
6.89758e-65
8.21512e-65
4.57257e-65
7.28511e-65
7.59512e-65
6.20009e-65
7.05259e-65
7.44009e-65
6.89758e-65
5.58006e-65
1.00751e-64
4.34007e-65
6.66509e-65
8.21512e-65
6.7426e-65
7.36261e-65
6.9751e-65
6.89759e-65
6.66508e-65
7.28509e-65
6.58758e-65
5.34758e-65
8.37013e-65
6.2001e-65
7.13011e-65
7.1301e-65
7.05259e-65
9.14511e-65
6.43258e-65
5.50257e-65
6.8976e-65
6.3551e-65
7.05261e-65
6.04509e-65
1.00751e-64
7.3626e-65
8.2151e-65
8.91261e-65
8.6801e-65
4.72757e-65
9.37765e-65
8.99014e-65
7.98262e-65
2.63504e-65
6.8976e-65
4.57257e-65
7.13011e-65
6.04509e-65
4.96007e-65
6.97509e-65
6.27758e-65
6.04508e-65
6.3551e-65
6.5876e-65
4.18507e-65
5.65759e-65
7.44011e-65
6.51009e-65
4.57256e-65
7.05259e-65
6.04507e-65
6.1226e-65
6.4326e-65
8.37013e-65
6.97511e-65
5.89008e-65
8.06011e-65
6.51008e-65
6.74258e-65
6.82008e-65
7.36261e-65
5.65759e-65
7.13011e-65
5.58008e-65
9.68764e-65
7.75011e-65
)
;

boundaryField
{
    inlet
    {
        type            calculated;
        value           nonuniform 0();
    }
    outlet
    {
        type            calculated;
        value           uniform 0;
    }
    wall
    {
        type            calculated;
        value           uniform 0;
    }
    procBoundary5to1
    {
        type            processor;
        value           nonuniform List<scalar> 
32
(
7.98263e-65
5.73509e-65
8.75763e-65
6.74259e-65
5.73508e-65
4.18506e-65
5.65759e-65
6.12261e-65
6.97511e-65
6.9751e-65
6.58759e-65
7.2076e-65
4.41755e-65
6.27759e-65
5.11508e-65
9.06765e-65
8.29263e-65
8.91263e-65
6.9751e-65
7.9051e-65
3.48754e-65
6.58757e-65
5.27008e-65
8.06013e-65
8.06013e-65
8.06013e-65
7.05258e-65
9.99764e-65
9.99764e-65
9.99764e-65
5.73506e-65
5.73506e-65
)
;
    }
    procBoundary5to4
    {
        type            processor;
        value           nonuniform List<scalar> 
12
(
8.9126e-65
9.0676e-65
5.65757e-65
5.96758e-65
8.21511e-65
8.13761e-65
6.8201e-65
6.8201e-65
7.2076e-65
7.59511e-65
6.27759e-65
6.35509e-65
)
;
    }
    procBoundary5to7
    {
        type            processor;
        value           nonuniform List<scalar> 
44
(
7.82761e-65
6.4326e-65
6.7426e-65
1.06177e-64
1.03851e-64
7.9826e-65
5.65757e-65
8.3701e-65
9.92012e-65
7.82761e-65
6.4326e-65
7.36261e-65
6.43259e-65
6.89759e-65
8.60261e-65
8.4476e-65
7.36259e-65
3.95256e-65
6.4326e-65
8.52513e-65
6.4326e-65
7.36261e-65
5.03757e-65
5.81258e-65
7.36259e-65
6.04507e-65
5.81257e-65
8.06012e-65
7.36261e-65
6.8201e-65
5.03757e-65
5.19258e-65
5.03757e-65
5.81258e-65
5.50257e-65
6.43258e-65
6.12257e-65
6.8976e-65
5.81259e-65
7.67262e-65
7.44011e-65
5.19257e-65
5.50257e-65
3.87505e-65
)
;
    }
}


// ************************************************************************* //
