/*--------------------------------*- C++ -*----------------------------------*\
| =========                 |                                                 |
| \\      /  F ield         | OpenFOAM: The Open Source CFD Toolbox           |
|  \\    /   O peration     | Version:  4.x                                   |
|   \\  /    A nd           | Web:      www.OpenFOAM.org                      |
|    \\/     M anipulation  |                                                 |
\*---------------------------------------------------------------------------*/
FoamFile
{
    version     2.0;
    format      ascii;
    class       volVectorField;
    location    "56";
    object      UsNext;
}
// * * * * * * * * * * * * * * * * * * * * * * * * * * * * * * * * * * * * * //

dimensions      [0 1 -1 0 0 0 0];

internalField   nonuniform List<vector> 
114
(
(-1.41541e-08 -3.83935e-10 -1.74704e-09)
(-1.09243e-08 1.26271e-09 -5.96942e-10)
(-8.47982e-09 8.53049e-10 -1.15524e-09)
(-2.95179e-09 6.53345e-10 -6.59148e-10)
(-1.92013e-09 9.43104e-10 -1.05365e-09)
(3.08754e-08 -1.40169e-08 -2.13518e-09)
(-5.79519e-09 -8.16788e-09 -6.36982e-09)
(-1.53398e-08 -2.06799e-09 -3.24091e-09)
(-1.44217e-08 9.56944e-11 -3.65615e-09)
(-9.54502e-09 -1.17885e-10 -2.7517e-09)
(-7.0719e-09 8.96304e-10 -2.21157e-09)
(-3.99737e-09 1.52852e-09 -1.79737e-09)
(3.44202e-10 -6.84191e-09 -1.22343e-09)
(9.25227e-09 -9.28822e-10 -9.16192e-09)
(-4.71848e-09 -6.75912e-09 -4.65247e-09)
(-1.59404e-08 -2.97051e-09 -4.62713e-09)
(-1.54204e-08 -7.23214e-11 -5.52315e-09)
(-1.20151e-08 9.04894e-10 -5.08267e-09)
(-9.11097e-09 1.462e-09 -3.78293e-09)
(-5.92019e-09 1.50631e-09 -2.42947e-09)
(-1.04457e-09 3.24124e-09 -1.02228e-09)
(7.21418e-09 -2.8123e-10 -1.04215e-09)
(1.0247e-08 -9.31454e-10 -2.80209e-10)
(-1.50472e-09 -5.20234e-09 1.21673e-09)
(-8.03884e-09 -2.61877e-09 6.70396e-10)
(-7.55677e-09 -2.01831e-10 -1.46912e-09)
(-3.84896e-09 6.76686e-10 -6.92883e-10)
(-2.54909e-09 6.36018e-10 -1.28144e-09)
(-7.21724e-10 6.28188e-10 -7.38746e-10)
(-4.61047e-10 9.48987e-10 -2.015e-09)
(2.62756e-08 1.09926e-08 -3.86966e-09)
(5.41398e-08 3.0704e-08 -3.86201e-09)
(2.4304e-09 -8.71254e-09 -2.49951e-11)
(-1.34695e-08 -5.87971e-09 1.94583e-09)
(-1.23057e-08 -2.08058e-09 -1.54304e-09)
(-8.26385e-09 4.04102e-10 -2.40779e-09)
(-6.3188e-09 1.38161e-09 -2.7297e-09)
(-3.01159e-09 1.98307e-09 -1.9952e-09)
(2.2747e-10 1.12438e-09 -1.59245e-09)
(1.16628e-08 -1.14611e-09 -4.64048e-09)
(9.94732e-09 -6.16999e-09 -4.50318e-10)
(-1.21829e-09 -6.84825e-09 9.08456e-10)
(-1.38252e-08 -4.96602e-09 -1.24226e-09)
(-1.35219e-08 -9.9622e-10 -2.88588e-09)
(-1.08267e-08 7.03947e-10 -3.19033e-09)
(-8.17691e-09 1.32419e-09 -2.86424e-09)
(-4.76369e-09 1.62492e-09 -1.93307e-09)
(-1.02044e-09 1.15962e-09 -8.34734e-10)
(9.53655e-09 -2.08019e-09 -4.8897e-09)
(8.85455e-09 -4.17136e-09 -3.30115e-09)
(7.69639e-09 -1.17668e-09 -4.71086e-10)
(9.91656e-09 -2.15479e-09 1.80765e-09)
(2.07672e-09 -5.2869e-09 1.90859e-09)
(-1.37802e-08 -1.30683e-08 1.26864e-08)
(-7.19913e-09 -3.84053e-10 7.98903e-10)
(-4.21466e-09 1.13875e-09 2.77558e-10)
(-2.29023e-09 6.29889e-10 -1.25374e-09)
(-1.59572e-09 1.13117e-09 -1.50402e-09)
(2.30419e-09 6.67628e-10 -4.25057e-09)
(1.23185e-08 -2.12977e-09 -8.66789e-10)
(1.48722e-08 -2.76597e-09 2.64585e-09)
(2.58755e-09 -1.02295e-08 2.30353e-09)
(-1.0069e-07 -3.94664e-08 5.82193e-09)
(-8.98451e-09 -4.3423e-10 1.81296e-11)
(-6.75094e-09 -3.40833e-10 -1.76105e-09)
(-4.27697e-09 1.53191e-09 -1.96619e-09)
(-2.48217e-09 2.14455e-09 -1.94663e-09)
(2.55865e-11 2.14503e-09 -1.64293e-09)
(1.16088e-08 -3.32361e-09 -3.20145e-09)
(1.51301e-08 -4.49237e-09 2.31563e-09)
(9.74089e-10 -1.22885e-08 6.13095e-09)
(-1.58865e-08 -6.7006e-09 7.73367e-10)
(-1.30449e-08 -1.84435e-09 -2.04539e-09)
(-9.61044e-09 2.69848e-10 -2.16843e-09)
(-6.01764e-09 5.0426e-10 -2.0393e-09)
(-2.99092e-09 1.25047e-09 -1.7252e-09)
(-1.28059e-09 1.28108e-09 -8.60767e-10)
(7.71141e-09 -2.7278e-09 -6.14263e-10)
(1.11273e-08 -5.55233e-09 1.47792e-09)
(-2.64735e-09 -8.25116e-09 7.86336e-09)
(-1.79434e-08 -3.22984e-09 -1.65047e-09)
(6.99673e-09 9.31454e-10 -6.36048e-10)
(9.17016e-09 -6.71445e-10 1.78283e-09)
(-3.18013e-09 1.26053e-10 6.76397e-09)
(-1.63427e-08 -6.41263e-09 9.47417e-09)
(-1.2315e-08 2.50451e-09 -1.55602e-09)
(-4.3069e-09 1.73463e-10 9.36193e-11)
(-2.27062e-09 6.93038e-10 -6.08379e-10)
(-1.54729e-09 1.98313e-09 -1.94363e-09)
(1.03684e-09 4.20574e-09 -4.3302e-09)
(1.00461e-08 -5.3779e-10 -1.7102e-09)
(1.24199e-08 -1.25462e-09 2.67136e-09)
(-2.27868e-08 2.08527e-10 1.23151e-08)
(-2.03807e-07 -6.5103e-08 1.09082e-08)
(-1.86343e-08 4.5965e-09 1.61552e-09)
(-4.43802e-09 -2.06502e-10 -1.34692e-09)
(-3.86455e-09 4.93183e-10 -1.18675e-09)
(-1.34476e-09 3.00652e-09 -1.01626e-09)
(8.33775e-10 6.25091e-09 -7.39328e-10)
(3.81919e-09 -1.07126e-09 -1.10827e-09)
(1.10262e-08 -1.69422e-09 3.07028e-09)
(2.24563e-09 -1.0069e-08 8.20632e-09)
(-4.75859e-08 -5.62926e-09 1.39036e-09)
(-1.32152e-08 -8.45518e-10 -1.84686e-09)
(-7.28363e-09 1.06879e-10 -1.47208e-09)
(-4.20599e-09 -3.66315e-11 -1.20421e-09)
(-2.2789e-09 6.9517e-10 -6.19976e-10)
(-9.12688e-10 1.42194e-09 -2.64297e-10)
(4.67949e-09 -6.28626e-10 -7.11984e-10)
(1.04966e-08 -1.7327e-09 2.44995e-09)
(-1.93001e-10 -1.51205e-08 5.9293e-09)
(-1.15878e-08 -2.88676e-09 2.19828e-09)
(-1.15897e-08 -1.92895e-09 -1.55554e-09)
(-6.4122e-09 -9.44478e-10 -1.84746e-09)
)
;

boundaryField
{
    inlet
    {
        type            calculated;
        value           nonuniform 0();
    }
    outlet
    {
        type            calculated;
        value           nonuniform List<vector> 
12
(
(3.08754e-08 -1.40169e-08 -2.13518e-09)
(3.44202e-10 -6.84191e-09 -1.22343e-09)
(-1.04457e-09 3.24124e-09 -1.02228e-09)
(-4.61047e-10 9.48987e-10 -2.015e-09)
(2.2747e-10 1.12438e-09 -1.59245e-09)
(-1.02044e-09 1.15962e-09 -8.34734e-10)
(2.30419e-09 6.67628e-10 -4.25057e-09)
(2.55865e-11 2.14503e-09 -1.64293e-09)
(-1.28059e-09 1.28108e-09 -8.60767e-10)
(1.03684e-09 4.20574e-09 -4.3302e-09)
(8.33775e-10 6.25091e-09 -7.39328e-10)
(-9.12688e-10 1.42194e-09 -2.64297e-10)
)
;
    }
    wall
    {
        type            calculated;
        value           nonuniform List<vector> 
66
(
(6.99673e-09 9.31454e-10 -6.36048e-10)
(1.00461e-08 -5.3779e-10 -1.7102e-09)
(3.81919e-09 -1.07126e-09 -1.10827e-09)
(4.67949e-09 -6.28626e-10 -7.11984e-10)
(9.17016e-09 -6.71445e-10 1.78283e-09)
(1.24199e-08 -1.25462e-09 2.67136e-09)
(1.10262e-08 -1.69422e-09 3.07028e-09)
(1.04966e-08 -1.7327e-09 2.44995e-09)
(-3.18013e-09 1.26053e-10 6.76397e-09)
(-2.27868e-08 2.08527e-10 1.23151e-08)
(2.24563e-09 -1.0069e-08 8.20632e-09)
(-1.93001e-10 -1.51205e-08 5.9293e-09)
(-1.63427e-08 -6.41263e-09 9.47417e-09)
(-2.03807e-07 -6.5103e-08 1.09082e-08)
(-4.75859e-08 -5.62926e-09 1.39036e-09)
(-1.15878e-08 -2.88676e-09 2.19828e-09)
(-1.2315e-08 2.50451e-09 -1.55602e-09)
(-1.86343e-08 4.5965e-09 1.61552e-09)
(-1.32152e-08 -8.45518e-10 -1.84686e-09)
(-1.15897e-08 -1.92895e-09 -1.55554e-09)
(-4.3069e-09 1.73463e-10 9.36193e-11)
(-4.43802e-09 -2.06502e-10 -1.34692e-09)
(-7.28363e-09 1.06879e-10 -1.47208e-09)
(-6.4122e-09 -9.44478e-10 -1.84746e-09)
(-2.27062e-09 6.93038e-10 -6.08379e-10)
(-3.86455e-09 4.93183e-10 -1.18675e-09)
(-4.20599e-09 -3.66315e-11 -1.20421e-09)
(-1.54729e-09 1.98313e-09 -1.94363e-09)
(-1.34476e-09 3.00652e-09 -1.01626e-09)
(-2.2789e-09 6.9517e-10 -6.19976e-10)
(1.03684e-09 4.20574e-09 -4.3302e-09)
(8.33775e-10 6.25091e-09 -7.39328e-10)
(-9.12688e-10 1.42194e-09 -2.64297e-10)
(7.21418e-09 -2.8123e-10 -1.04215e-09)
(7.69639e-09 -1.17668e-09 -4.71086e-10)
(6.99673e-09 9.31454e-10 -6.36048e-10)
(1.0247e-08 -9.31454e-10 -2.80209e-10)
(9.91656e-09 -2.15479e-09 1.80765e-09)
(9.17016e-09 -6.71445e-10 1.78283e-09)
(-1.50472e-09 -5.20234e-09 1.21673e-09)
(2.07672e-09 -5.2869e-09 1.90859e-09)
(-3.18013e-09 1.26053e-10 6.76397e-09)
(-1.41541e-08 -3.83935e-10 -1.74704e-09)
(-8.03884e-09 -2.61877e-09 6.70396e-10)
(-1.37802e-08 -1.30683e-08 1.26864e-08)
(-1.63427e-08 -6.41263e-09 9.47417e-09)
(-1.09243e-08 1.26271e-09 -5.96942e-10)
(-7.55677e-09 -2.01831e-10 -1.46912e-09)
(-7.19913e-09 -3.84053e-10 7.98903e-10)
(-1.2315e-08 2.50451e-09 -1.55602e-09)
(-8.47982e-09 8.53049e-10 -1.15524e-09)
(-3.84896e-09 6.76686e-10 -6.92883e-10)
(-4.21466e-09 1.13875e-09 2.77558e-10)
(-4.3069e-09 1.73463e-10 9.36193e-11)
(-2.95179e-09 6.53345e-10 -6.59148e-10)
(-2.54909e-09 6.36018e-10 -1.28144e-09)
(-2.29023e-09 6.29889e-10 -1.25374e-09)
(-2.27062e-09 6.93038e-10 -6.08379e-10)
(-1.92013e-09 9.43104e-10 -1.05365e-09)
(-7.21724e-10 6.28188e-10 -7.38746e-10)
(-1.59572e-09 1.13117e-09 -1.50402e-09)
(-1.54729e-09 1.98313e-09 -1.94363e-09)
(3.08754e-08 -1.40169e-08 -2.13518e-09)
(-4.61047e-10 9.48987e-10 -2.015e-09)
(2.30419e-09 6.67628e-10 -4.25057e-09)
(1.03684e-09 4.20574e-09 -4.3302e-09)
)
;
    }
    procBoundary5to1
    {
        type            processor;
        value           nonuniform List<vector> 
32
(
(-2.03182e-08 1.74458e-09 -7.55111e-10)
(-1.5842e-08 2.7907e-09 -1.56579e-10)
(-7.38272e-09 7.60995e-10 -1.1333e-09)
(-3.76629e-09 5.9373e-10 -8.62895e-10)
(-2.65718e-09 8.84446e-10 -1.448e-09)
(-4.27247e-10 6.84046e-10 -1.57358e-09)
(-4.41412e-09 -5.70561e-09 -9.31164e-09)
(-2.6881e-08 -5.62709e-09 -6.29452e-09)
(-1.95298e-08 9.33224e-10 -4.42948e-09)
(-9.62756e-09 7.14987e-10 -3.63398e-09)
(-5.9187e-09 9.30329e-10 -2.1241e-09)
(-4.07882e-09 8.25521e-10 -2.52782e-09)
(-1.42124e-09 8.28503e-11 -7.81274e-10)
(1.45684e-08 -6.62366e-09 -1.46394e-08)
(-3.50704e-12 -7.68882e-09 -1.48996e-08)
(-2.04847e-08 -6.64306e-09 -7.39597e-09)
(-2.37465e-08 -8.36872e-10 -1.15083e-08)
(-1.46761e-08 9.52233e-10 -8.21904e-09)
(-8.3871e-09 2.84582e-10 -3.78339e-09)
(-5.55579e-09 3.9985e-10 -3.68793e-09)
(-2.07502e-09 6.07806e-11 -8.40273e-10)
(6.30931e-09 2.23828e-10 -2.3137e-09)
(9.31144e-09 4.48078e-10 -1.93985e-09)
(-2.03227e-09 -4.12811e-09 -1.10717e-09)
(-2.03227e-09 -4.12811e-09 -1.10717e-09)
(-2.03227e-09 -4.12811e-09 -1.10717e-09)
(1.13579e-08 -3.77916e-10 -4.15499e-09)
(9.99643e-09 -3.10685e-09 -2.89751e-09)
(9.99643e-09 -3.10685e-09 -2.89751e-09)
(9.99643e-09 -3.10685e-09 -2.89751e-09)
(1.19295e-08 -1.88502e-09 -5.80882e-09)
(1.19295e-08 -1.88502e-09 -5.80882e-09)
)
;
    }
    procBoundary5to4
    {
        type            processor;
        value           nonuniform List<vector> 
12
(
(4.42665e-09 -1.65676e-10 -8.10725e-10)
(9.75199e-09 -1.90098e-09 -2.14941e-09)
(9.27156e-09 -5.90556e-10 -2.40444e-09)
(8.08745e-09 -7.03032e-10 -3.94952e-09)
(4.64241e-09 7.59925e-10 -9.19857e-11)
(7.23322e-09 4.98288e-10 -1.04114e-09)
(8.66267e-09 -4.70279e-10 -1.68531e-09)
(5.41522e-09 -1.35596e-09 -5.2948e-10)
(2.28415e-09 3.30716e-10 -5.69582e-10)
(3.67014e-09 9.09457e-11 -1.09835e-09)
(4.02626e-09 2.1151e-10 -5.85924e-10)
(3.67022e-09 9.27953e-11 -9.01255e-10)
)
;
    }
    procBoundary5to7
    {
        type            processor;
        value           nonuniform List<vector> 
44
(
(1.13742e-08 -1.59446e-09 -1.10746e-08)
(-3.23815e-09 -2.99846e-09 -1.14617e-08)
(-1.81359e-08 -7.13404e-10 -5.66888e-09)
(-1.73688e-08 -6.73544e-10 -6.35305e-09)
(-1.14092e-08 4.06357e-09 -3.24383e-09)
(-9.28268e-09 9.87895e-10 -3.49245e-09)
(-6.01944e-09 9.38312e-10 -2.18632e-09)
(-1.32571e-09 5.90865e-10 -1.20362e-09)
(1.10289e-08 2.11006e-10 -8.42177e-09)
(1.13742e-08 -1.59446e-09 -1.10746e-08)
(-3.97479e-09 -5.19601e-09 -2.20539e-10)
(-1.70899e-08 -3.12704e-09 -3.23157e-09)
(-1.44008e-08 -2.77203e-10 -3.13458e-09)
(-1.11428e-08 3.04401e-10 -2.97261e-09)
(-7.65644e-09 9.32567e-10 -2.35301e-09)
(-4.40025e-09 1.10211e-09 -1.96437e-09)
(-9.37523e-10 7.75081e-10 -4.49161e-10)
(9.02493e-09 -2.15712e-09 -5.50729e-09)
(-3.97479e-09 -5.19601e-09 -2.20539e-10)
(6.36973e-09 -3.52891e-09 -4.31033e-09)
(-3.97479e-09 -5.19601e-09 -2.20539e-10)
(-1.70899e-08 -3.12704e-09 -3.23157e-09)
(-1.4162e-08 -1.74034e-09 -3.01126e-09)
(-1.02125e-08 -5.35013e-10 -2.37391e-09)
(-6.24912e-09 4.15871e-10 -1.691e-09)
(-3.70092e-09 6.78916e-10 -1.42388e-09)
(-9.32046e-10 5.41733e-10 6.79021e-11)
(7.43031e-09 -2.08526e-09 -2.47648e-09)
(5.47833e-09 -4.23649e-09 -2.47572e-10)
(-3.14925e-09 -1.62482e-09 4.65578e-09)
(-1.4162e-08 -1.74034e-09 -3.01126e-09)
(-1.13735e-08 4.10589e-10 -2.13606e-09)
(-1.4162e-08 -1.74034e-09 -3.01126e-09)
(-1.02125e-08 -5.35013e-10 -2.37391e-09)
(-4.73698e-09 -2.35104e-10 -1.95754e-09)
(-3.24014e-09 3.3821e-10 -8.46725e-10)
(-8.94533e-10 8.18546e-10 9.4085e-10)
(4.88227e-09 7.88004e-10 -1.16018e-09)
(6.03063e-09 -1.46856e-10 1.51479e-09)
(-9.70835e-10 -3.70447e-09 3.28766e-09)
(-9.36315e-09 -9.20368e-10 -4.00663e-11)
(-8.55589e-09 -1.99824e-09 -1.1184e-09)
(-4.73698e-09 -2.35104e-10 -1.95754e-09)
(-8.28497e-09 -1.63963e-09 -1.06426e-09)
)
;
    }
}


// ************************************************************************* //
