/*--------------------------------*- C++ -*----------------------------------*\
| =========                 |                                                 |
| \\      /  F ield         | OpenFOAM: The Open Source CFD Toolbox           |
|  \\    /   O peration     | Version:  4.x                                   |
|   \\  /    A nd           | Web:      www.OpenFOAM.org                      |
|    \\/     M anipulation  |                                                 |
\*---------------------------------------------------------------------------*/
FoamFile
{
    version     2.0;
    format      ascii;
    class       volVectorField;
    location    "18";
    object      GField;
}
// * * * * * * * * * * * * * * * * * * * * * * * * * * * * * * * * * * * * * //

dimensions      [1 -2 -1 0 0 0 0];

internalField   nonuniform List<vector> 
114
(
(56.8584 -0.404293 -2.41472)
(109.063 -0.200674 -4.57063)
(65.5829 -0.358051 -2.38176)
(114.496 -0.414142 -4.10961)
(72.8473 -0.139319 -2.09687)
(120.155 -0.0950576 -3.25333)
(96.3004 0.30329 -3.70903)
(45.0408 0.171298 -2.19057)
(101.503 0.84414 -4.12239)
(54.1571 0.523239 -1.88572)
(106.327 0.786166 -3.39219)
(61.532 0.103773 -1.7275)
(111.635 0.174615 -3.63178)
(68.3561 -0.67083 -1.35921)
(117.406 -0.517319 -2.86253)
(97.1358 2.47107 -4.04224)
(46.7283 1.0696 -2.29002)
(103.316 2.03252 -4.08162)
(57.68 1.05335 -1.80929)
(109.332 1.81166 -2.86117)
(65.8827 0.558328 -1.18351)
(114.745 1.4157 -2.84268)
(73.5719 -0.206008 -1.27776)
(120.156 0.839268 -2.65149)
(97.7279 1.84997 -3.30281)
(50.4377 1.01571 -1.95258)
(106.378 1.61961 -3.1349)
(63.6605 0.868238 -1.49183)
(114.663 1.27285 -2.26964)
(74.1636 0.376303 -1.17423)
(122.462 0.817404 -2.51354)
(84.0559 -0.123898 -1.30179)
(129.817 0.512028 -2.63783)
(31.729 -0.136832 -3.25457)
(92.4932 -0.190522 -6.7545)
(26.7241 0.0253411 -2.61634)
(92.0487 0.668933 -3.59777)
(94.3839 1.0099 -7.90096)
(38.4426 0.180499 -4.20375)
(94.275 1.12568 -8.55576)
(36.1879 0.64707 -3.70477)
(94.0688 1.52697 -7.21336)
(33.5161 0.228265 -3.45521)
(94.1673 0.445348 -6.59404)
(28.9707 -0.318699 -2.95118)
(95.3534 -0.249899 -4.18876)
(94.7458 2.83837 -7.844)
(39.7481 1.293 -4.43853)
(95.1513 2.81105 -8.61229)
(39.8154 1.112 -3.90596)
(96.2443 2.54155 -7.08321)
(40.0195 0.675511 -3.47441)
(97.4496 2.33605 -7.09437)
(37.4396 -0.0245835 -3.27139)
(97.4111 1.86908 -4.58371)
(95.5827 2.5273 -7.13578)
(45.8715 1.38346 -4.3858)
(100.229 2.49046 -7.46173)
(53.2187 1.17837 -4.28281)
(105.256 2.22502 -6.46115)
(59.6826 0.990852 -4.71237)
(110.1 2.25686 -6.81075)
(64.3787 1.07755 -5.02279)
(114.525 2.30749 -6.50899)
(5.08005 -0.0570944 -0.536576)
(84.6204 -0.0651473 -0.296078)
(92.7574 1.80146 -6.31039)
(35.4305 0.62768 -3.33108)
(90.413 1.60924 -5.90329)
(28.4039 0.519369 -2.16808)
(88.6737 1.32073 -4.23778)
(21.7924 0.110023 -1.45246)
(87.1863 -0.00408679 -2.84291)
(13.5825 -0.0277089 -0.966181)
(86.6446 -0.228687 0.0536656)
(93.5883 3.26879 -6.26864)
(36.4883 1.31923 -3.43713)
(91.3817 3.29694 -6.16532)
(30.3098 1.14304 -2.63978)
(89.7879 2.85626 -4.7682)
(24.391 0.626441 -1.99579)
(88.5134 2.3692 -3.36158)
(15.4271 0.365731 -1.08934)
(87.2278 1.63714 -0.352012)
(94.6284 2.61488 -5.79187)
(42.4212 1.52901 -3.58007)
(96.5547 3.13381 -6.02933)
(45.7415 1.45178 -3.5461)
(99.222 2.92864 -5.14221)
(48.9899 1.01536 -3.29895)
(100.394 3.02479 -4.10727)
(49.7582 1.27136 -3.23748)
(102.132 2.17662 -2.96698)
(92.0025 1.48345 -5.81545)
(34.1747 0.925188 -2.77409)
(88.8945 1.99841 -5.44437)
(27.6694 0.758131 -2.35366)
(88.077 1.4752 -4.23485)
(22.6446 0.703801 -1.6411)
(88.0377 1.02403 -1.89819)
(16.884 0.643851 -1.34066)
(92.0322 3.43023 -4.82872)
(36.2829 1.49005 -2.60363)
(89.8086 2.93198 -4.4469)
(31.2735 0.775943 -2.3941)
(88.9192 2.231 -3.60932)
(26.8349 0.420138 -1.91709)
(88.8034 2.27913 -2.26452)
(93.8944 3.04581 -4.58552)
(42.899 1.65407 -3.04836)
(95.6384 2.94028 -5.09225)
(45.0621 1.37298 -3.62506)
(97.5048 2.50407 -5.00684)
(46.7347 1.2962 -3.13413)
)
;

boundaryField
{
    inlet
    {
        type            calculated;
        value           uniform (67 0 0);
    }
    outlet
    {
        type            calculated;
        value           nonuniform 0();
    }
    wall
    {
        type            calculated;
        value           uniform (0 0 0);
    }
    procBoundary2to0
    {
        type            processor;
        value           nonuniform List<vector> 
44
(
(56.0299 -1.65598 -2.11116)
(109.085 -1.97372 -3.64447)
(63.1334 -1.1451 -1.80479)
(113.83 -1.83167 -3.43524)
(68.9248 -1.14559 -0.979945)
(116.595 -1.83465 -3.00348)
(98.1536 -1.39421 -4.9008)
(46.9358 -0.453662 -2.40612)
(104.073 -0.618062 -4.63001)
(104.073 -0.618062 -4.63001)
(36.3201 -0.213856 -4.0669)
(93.3547 -0.0597483 -8.17138)
(33.0253 -0.797514 -3.01498)
(94.7142 -2.05238 -6.16479)
(27.4148 -0.761843 -2.11949)
(94.7369 -2.40617 -3.24561)
(93.8144 -0.779178 -9.23336)
(38.1245 -0.438614 -4.82128)
(94.4334 -0.644349 -9.61282)
(36.3201 -0.213856 -4.0669)
(93.3547 -0.0597483 -8.17138)
(93.3547 -0.0597483 -8.17138)
(12.8279 -0.224366 -1.34219)
(84.8777 -0.0462385 -2.82199)
(6.76121 -0.308869 -0.466827)
(85.8478 -1.43985 1.18301)
(92.1163 -0.421732 -6.61778)
(32.3211 -0.147958 -3.80002)
(88.6261 -0.159937 -6.92352)
(22.1212 -0.104144 -2.18193)
(85.9889 0.0281177 -4.48714)
(12.8279 -0.224366 -1.34219)
(84.8777 -0.0462385 -2.82199)
(84.8777 -0.0462385 -2.82199)
(13.2952 0.126233 -1.14648)
(84.9559 0.232508 -0.801271)
(92.2743 -0.930597 -4.39988)
(33.8078 -0.199433 -2.82472)
(88.0695 -0.215369 -4.4508)
(24.5112 0.142325 -2.03669)
(86.3379 0.0042775 -3.35109)
(18.1904 0.13445 -1.63116)
(85.3354 -0.556995 -2.06141)
(13.2952 0.126233 -1.14648)
)
;
    }
    procBoundary2to3
    {
        type            processor;
        value           nonuniform List<vector> 
12
(
(76.509 -0.366953 -1.12423)
(72.5873 -0.973254 0.0306519)
(77.8998 0.0696789 -0.86648)
(92.5467 0.095877 -1.08789)
(20.0607 0.219771 -1.4835)
(23.267 -0.342166 -1.80329)
(31.0249 0.0369724 -1.71151)
(67.0693 1.55202 -4.78937)
(-0.000832326 8.24218e-05 -0.0001091)
(5.16682 0.0900042 -0.168638)
(7.62383 0.357129 -0.20237)
(48.1692 1.13845 -2.43421)
)
;
    }
    procBoundary2to6
    {
        type            processor;
        value           nonuniform List<vector> 
32
(
(88.4037 1.45577 1.08067)
(22.7381 0.308126 -1.75751)
(89.558 1.73221 -0.671491)
(99.5946 2.4054 -3.54442)
(48.5029 1.25763 -3.67313)
(102.152 2.07386 -2.76644)
(89.9867 1.29519 -2.80452)
(29.9439 0.858179 -1.33822)
(85.4731 1.62245 -2.9789)
(16.983 0.4122 -1.13012)
(82.0706 1.13615 -2.25282)
(6.14188 0.155399 -0.521418)
(80.5415 0.292948 -1.06231)
(88.4037 1.45577 1.08067)
(22.7381 0.308126 -1.75751)
(-0.000438892 -8.11131e-05 -6.54833e-05)
(91.6228 4.54658 -2.17986)
(34.0975 1.56658 -1.40584)
(88.3656 4.06558 -2.59259)
(26.4933 1.07225 -1.5298)
(85.9898 2.76676 -2.20145)
(20.0638 0.660028 -1.32416)
(22.7381 0.308126 -1.75751)
(99.5946 2.4054 -3.54442)
(84.4578 1.98439 -1.8355)
(93.8662 2.98899 -2.36938)
(41.5875 1.52291 -1.75233)
(94.0827 2.83182 -3.00448)
(41.537 1.1031 -2.50192)
(93.1668 1.98909 -3.08492)
(99.5946 2.4054 -3.54442)
(39.1182 0.920438 -2.57095)
)
;
    }
}


// ************************************************************************* //
