/*--------------------------------*- C++ -*----------------------------------*\
| =========                 |                                                 |
| \\      /  F ield         | OpenFOAM: The Open Source CFD Toolbox           |
|  \\    /   O peration     | Version:  4.x                                   |
|   \\  /    A nd           | Web:      www.OpenFOAM.org                      |
|    \\/     M anipulation  |                                                 |
\*---------------------------------------------------------------------------*/
FoamFile
{
    version     2.0;
    format      ascii;
    class       volScalarField;
    location    "18";
    object      KslNext;
}
// * * * * * * * * * * * * * * * * * * * * * * * * * * * * * * * * * * * * * //

dimensions      [1 -3 -1 0 0 0 0];

internalField   nonuniform List<scalar> 
114
(
6121.88
3239.62
5416.96
3126.17
4889.76
2958.33
3498.36
7525.32
3406.57
6439.09
3321.04
5747.36
3191.5
5180.89
3019.25
3442.2
7202.1
3317.56
5992.42
3222.72
5346.03
3101.92
4823.06
2955.98
3375.05
6580.89
3180.08
5345.58
3021.15
4684.14
2857.3
4162.24
2709.76
11053.5
3830.88
13067.2
3804.14
3550.11
8820.1
3679.38
9597.11
3746.21
10423.6
3750.54
12024.4
3672.33
3514.73
8461.51
3628.27
8673.67
3637.79
8729.65
3619.51
9328.64
3603.2
3426.32
7217.31
3383
6363.78
3249.7
5756.34
3142.69
5347.23
3012.16
66283.2
3993.22
3595.8
9520.78
3801.1
12055.9
3896.96
15682.4
3939.7
24933.1
3916.68
3536.88
9162.03
3743.95
11223.9
3834.35
13964.6
3888.76
22003.4
3907.71
3450.98
7734.44
3473.64
7316.54
3394.95
6866.12
3378.47
6766.71
3299.74
3605.56
9790.55
3821.88
12157.8
3847.77
14748.5
3813.38
19450.7
3560.23
9132.58
3765.05
10721.3
3807.89
12428.5
3778.42
3438.49
7571.05
3472.75
7310.28
3421.59
7047.8
)
;

boundaryField
{
    inlet
    {
        type            zeroGradient;
    }
    outlet
    {
        type            zeroGradient;
    }
    wall
    {
        type            zeroGradient;
    }
    procBoundary2to0
    {
        type            processor;
        value           uniform 0;
    }
    procBoundary2to3
    {
        type            processor;
        value           uniform 0;
    }
    procBoundary2to6
    {
        type            processor;
        value           uniform 0;
    }
}


// ************************************************************************* //
