/*--------------------------------*- C++ -*----------------------------------*\
| =========                 |                                                 |
| \\      /  F ield         | OpenFOAM: The Open Source CFD Toolbox           |
|  \\    /   O peration     | Version:  4.x                                   |
|   \\  /    A nd           | Web:      www.OpenFOAM.org                      |
|    \\/     M anipulation  |                                                 |
\*---------------------------------------------------------------------------*/
FoamFile
{
    version     2.0;
    format      ascii;
    class       volScalarField;
    location    "18";
    object      pSmooth;
}
// * * * * * * * * * * * * * * * * * * * * * * * * * * * * * * * * * * * * * //

dimensions      [1 -1 -2 0 0 0 0];

internalField   nonuniform List<scalar> 
114
(
79.7094
96.8495
62.7234
88.9091
44.8585
80.6837
110.877
95.5435
104.076
79.6377
96.7742
62.5218
88.7046
44.6503
80.6838
110.695
95.5287
103.97
79.7329
97.3285
63.4467
89.537
45.7447
81.396
110.362
95.3664
103.734
79.5356
96.4936
62.5133
88.3281
44.7426
80.3094
62.975
89.737
45.3347
81.8376
111.518
95.9195
104.639
79.7641
97.2544
62.7619
89.5188
44.9568
81.7862
111.386
95.8747
104.483
79.6756
97.0682
62.5902
89.0839
44.9629
81.5607
110.906
95.6194
104.089
79.4956
96.673
62.5338
88.7337
44.7356
80.7964
46.083
81.9607
112.394
96.4264
105.441
80.3299
97.8976
63.4939
90.0036
45.8178
81.8771
112.184
96.4426
105.297
80.2054
97.7474
63.2896
89.8711
45.6473
81.8615
111.677
96.1086
104.76
79.9455
97.2252
63.1748
89.2531
45.3813
81.2835
112.741
96.6728
105.529
80.2253
97.8554
63.1664
89.8676
45.3178
112.583
96.6393
105.436
80.281
97.7488
63.2794
89.6231
111.978
96.2981
104.943
80.0181
97.3032
62.9998
)
;

boundaryField
{
    inlet
    {
        type            zeroGradient;
    }
    outlet
    {
        type            fixedValue;
        value           nonuniform 0();
    }
    wall
    {
        type            zeroGradient;
    }
    procBoundary2to0
    {
        type            processor;
        value           nonuniform List<scalar> 
44
(
79.6795
97.0032
62.8923
89.2838
45.2455
80.9038
110.836
95.6344
104.192
104.192
79.9661
97.5305
63.1027
89.996
45.5437
82.0536
111.672
95.9551
104.82
79.9661
97.5305
97.5305
63.5877
90.2674
46.227
82.0197
112.65
96.6544
105.715
80.509
98.2219
63.5877
90.2674
90.2674
46.1079
81.7393
112.978
97.0084
105.921
80.6576
98.208
63.8098
90.0723
46.1079
)
;
    }
    procBoundary2to3
    {
        type            processor;
        value           nonuniform List<scalar> 
12
(
26.392
26.6475
27.093
26.3837
27.1358
27.0138
27.1234
26.3874
27.6523
27.7754
27.5212
27.0877
)
;
    }
    procBoundary2to6
    {
        type            processor;
        value           nonuniform List<scalar> 
32
(
81.4797
45.4398
81.4669
89.1855
45.1992
81.0829
113.608
97.0631
106.315
80.9799
98.4489
63.9456
89.9862
81.4797
45.4398
46.3106
113.166
97.0168
105.964
80.8323
98.2178
63.8652
45.4398
89.1855
90.0489
112.558
96.7052
105.488
80.636
97.8557
89.1855
63.6253
)
;
    }
}


// ************************************************************************* //
