/*--------------------------------*- C++ -*----------------------------------*\
| =========                 |                                                 |
| \\      /  F ield         | OpenFOAM: The Open Source CFD Toolbox           |
|  \\    /   O peration     | Version:  4.x                                   |
|   \\  /    A nd           | Web:      www.OpenFOAM.org                      |
|    \\/     M anipulation  |                                                 |
\*---------------------------------------------------------------------------*/
FoamFile
{
    version     2.0;
    format      ascii;
    class       volVectorField;
    location    "18";
    object      UsNext;
}
// * * * * * * * * * * * * * * * * * * * * * * * * * * * * * * * * * * * * * //

dimensions      [0 1 -1 0 0 0 0];

internalField   nonuniform List<vector> 
114
(
(3.18666e-08 -3.14421e-08 -5.16988e-08)
(-1.66755e-08 -3.95709e-08 -7.37037e-08)
(-1.13162e-07 -6.24392e-08 -4.54137e-08)
(-1.66996e-07 -4.51404e-08 -6.22495e-08)
(-2.18653e-07 -2.64399e-08 -6.74652e-08)
(-2.68911e-07 1.04857e-08 -6.74708e-08)
(3.00834e-07 -1.1647e-07 -2.5295e-08)
(5.03045e-08 -1.61804e-08 -2.24747e-08)
(4.79799e-08 -1.60221e-08 -4.49924e-08)
(2.58298e-08 -2.10545e-08 -4.86497e-08)
(-2.12485e-08 -3.06195e-08 -5.34316e-08)
(-1.14169e-07 -3.63204e-08 -3.16952e-08)
(-2.00394e-07 -3.22893e-08 -3.81103e-08)
(-2.50768e-07 -4.26145e-08 -6.1667e-08)
(-2.63431e-07 8.45212e-09 -6.28121e-08)
(3.55726e-08 -1.32273e-08 -1.7302e-08)
(4.91938e-08 -4.33951e-09 -2.53227e-08)
(4.21281e-08 -5.08907e-10 -4.36087e-08)
(8.75642e-09 1.79427e-08 -5.43059e-08)
(-3.0575e-08 1.00539e-08 -5.14029e-08)
(-1.05933e-07 -1.71484e-11 -1.49426e-08)
(-1.78828e-07 -2.83245e-08 -3.0768e-08)
(-2.32249e-07 9.20434e-09 -4.23215e-08)
(-2.31242e-07 1.59562e-08 -6.07574e-08)
(6.3263e-08 -2.51212e-09 -3.02992e-09)
(3.95155e-08 1.69679e-09 -1.46132e-08)
(3.7216e-08 -9.44836e-10 -3.3671e-08)
(3.74431e-08 2.31313e-09 -2.13301e-08)
(3.25162e-09 2.68646e-08 -1.86589e-08)
(-4.04679e-08 9.60292e-09 -1.23917e-09)
(-9.99042e-08 -1.20584e-08 -3.42526e-08)
(-1.39887e-07 5.29314e-08 -2.28271e-08)
(-1.45572e-07 3.23982e-08 -3.79098e-08)
(-9.89295e-08 -5.42019e-08 -4.64682e-08)
(-1.53973e-07 -4.92929e-08 -6.41967e-08)
(-2.20306e-07 -2.30452e-08 -5.75187e-08)
(-2.50247e-07 5.03633e-09 -5.8826e-08)
(2.72906e-08 -1.1448e-08 -9.11793e-09)
(4.97313e-08 -1.77745e-08 -2.46168e-08)
(4.74345e-08 -1.68311e-08 -4.24496e-08)
(2.04283e-08 -1.29899e-08 -4.72264e-08)
(-5.75035e-09 -2.02738e-08 -4.57507e-08)
(-1.11174e-07 -4.43375e-08 -2.19712e-08)
(-1.76153e-07 -3.9584e-08 -3.87549e-08)
(-2.21162e-07 -2.81511e-08 -5.68941e-08)
(-2.56401e-07 -1.36709e-09 -5.65651e-08)
(4.23201e-08 -9.16374e-09 -1.46716e-08)
(4.50327e-08 -1.06136e-08 -2.34737e-08)
(4.12151e-08 -5.55203e-09 -3.71654e-08)
(2.21581e-08 -4.13114e-09 -4.48957e-08)
(-1.70615e-08 5.17239e-09 -2.69203e-08)
(-7.95914e-08 -6.78431e-09 -1.7084e-08)
(-1.45377e-07 -1.1816e-08 -2.45985e-08)
(-1.87922e-07 -1.05772e-08 -4.09e-08)
(-2.19746e-07 -2.7145e-09 -5.08706e-08)
(3.12741e-08 -4.19118e-09 -8.05067e-09)
(3.85844e-08 -2.8023e-09 -2.11661e-08)
(3.17889e-08 -4.15707e-10 -2.87645e-08)
(1.45292e-08 3.2759e-09 -2.09744e-08)
(-3.75034e-09 8.04316e-09 -3.45669e-09)
(-2.92027e-08 4.47686e-09 -8.43026e-09)
(-7.13881e-08 1.31383e-09 -2.84636e-08)
(-1.047e-07 4.73786e-09 -2.37654e-08)
(-8.50823e-08 5.84701e-10 -2.38987e-08)
(-2.04103e-07 -2.95785e-08 -4.57364e-08)
(-2.41902e-07 -8.32886e-10 -4.84937e-08)
(3.12664e-08 -4.06801e-09 -8.7407e-09)
(4.88696e-08 -1.56e-08 -2.00075e-08)
(4.99904e-08 -1.66592e-08 -3.48246e-08)
(1.32745e-08 -1.08814e-08 -4.55476e-08)
(-2.08521e-08 -2.28393e-08 -4.47741e-08)
(-9.18129e-08 -3.46708e-08 -3.13022e-08)
(-1.27178e-07 -2.87197e-08 -4.26053e-08)
(-1.86588e-07 -2.78524e-08 -4.72464e-08)
(-2.26755e-07 -9.54578e-09 -4.60708e-08)
(3.03005e-08 -7.46101e-09 -8.39646e-09)
(4.96517e-08 -1.24406e-08 -1.67644e-08)
(3.98635e-08 -8.03051e-09 -3.43537e-08)
(2.10145e-08 -7.25378e-09 -3.67595e-08)
(-1.81215e-08 -3.76618e-09 -2.31353e-08)
(-6.92802e-08 -1.53675e-08 -1.9387e-08)
(-1.10567e-07 -6.80321e-09 -2.95266e-08)
(-1.61068e-07 -2.08385e-08 -3.57113e-08)
(-1.96358e-07 -1.38616e-08 -3.89662e-08)
(2.83479e-08 -8.05274e-09 -8.42392e-09)
(3.9741e-08 -7.72406e-09 -1.60664e-08)
(3.54527e-08 1.55712e-09 -1.64695e-08)
(1.92932e-08 2.55148e-09 -1.80402e-08)
(-4.51029e-09 5.78498e-09 -1.2454e-08)
(-2.76799e-08 2.02192e-09 -1.57266e-08)
(-5.8233e-08 3.81072e-09 -1.5847e-08)
(-8.54681e-08 6.96094e-09 -2.84915e-08)
(-1.1477e-07 -1.80081e-08 -3.22806e-08)
(2.82184e-08 -2.59851e-09 -6.91155e-09)
(5.05046e-08 -1.33019e-08 -1.55293e-08)
(5.36117e-08 -1.80128e-08 -2.47968e-08)
(2.22191e-08 -1.58436e-08 -2.80022e-08)
(-1.98471e-08 -2.67715e-08 -2.79674e-08)
(-8.10066e-08 -2.38219e-08 -2.15799e-08)
(-1.26892e-07 -2.14615e-08 -3.36114e-08)
(-1.82355e-07 -2.29342e-08 -3.3605e-08)
(2.44215e-08 -3.67026e-09 -2.50226e-09)
(5.47838e-08 -9.9986e-09 -1.53786e-08)
(4.64072e-08 -4.37142e-09 -2.12e-08)
(2.39261e-08 -3.83106e-09 -2.32583e-08)
(-1.80072e-08 -1.06358e-08 -2.01321e-08)
(-5.98329e-08 -1.73081e-08 -2.19134e-08)
(-9.28168e-08 -6.11471e-09 -2.89308e-08)
(2.09349e-08 -3.07354e-09 -3.8117e-09)
(3.23176e-08 -1.0182e-08 -1.33438e-08)
(4.38362e-08 -4.61374e-09 -1.55612e-08)
(2.51184e-08 1.96082e-09 -1.00761e-08)
(-1.97098e-09 1.665e-09 -1.38741e-08)
(-2.6508e-08 -2.35976e-09 -1.13178e-08)
)
;

boundaryField
{
    inlet
    {
        type            calculated;
        value           nonuniform List<vector> 
12
(
(3.00834e-07 -1.1647e-07 -2.5295e-08)
(3.55726e-08 -1.32273e-08 -1.7302e-08)
(6.3263e-08 -2.51212e-09 -3.02992e-09)
(2.72906e-08 -1.1448e-08 -9.11793e-09)
(4.23201e-08 -9.16374e-09 -1.46716e-08)
(3.12741e-08 -4.19118e-09 -8.05067e-09)
(3.12664e-08 -4.06801e-09 -8.7407e-09)
(3.03005e-08 -7.46101e-09 -8.39646e-09)
(2.83479e-08 -8.05274e-09 -8.42392e-09)
(2.82184e-08 -2.59851e-09 -6.91155e-09)
(2.44215e-08 -3.67026e-09 -2.50226e-09)
(2.09349e-08 -3.07354e-09 -3.8117e-09)
)
;
    }
    outlet
    {
        type            calculated;
        value           nonuniform 0();
    }
    wall
    {
        type            calculated;
        value           nonuniform List<vector> 
66
(
(3.00834e-07 -1.1647e-07 -2.5295e-08)
(3.55726e-08 -1.32273e-08 -1.7302e-08)
(6.3263e-08 -2.51212e-09 -3.02992e-09)
(5.03045e-08 -1.61804e-08 -2.24747e-08)
(4.91938e-08 -4.33951e-09 -2.53227e-08)
(3.95155e-08 1.69679e-09 -1.46132e-08)
(4.79799e-08 -1.60221e-08 -4.49924e-08)
(4.21281e-08 -5.08907e-10 -4.36087e-08)
(3.7216e-08 -9.44836e-10 -3.3671e-08)
(3.18666e-08 -3.14421e-08 -5.16988e-08)
(2.58298e-08 -2.10545e-08 -4.86497e-08)
(8.75642e-09 1.79427e-08 -5.43059e-08)
(3.74431e-08 2.31313e-09 -2.13301e-08)
(-1.66755e-08 -3.95709e-08 -7.37037e-08)
(-2.12485e-08 -3.06195e-08 -5.34316e-08)
(-3.0575e-08 1.00539e-08 -5.14029e-08)
(3.25162e-09 2.68646e-08 -1.86589e-08)
(-1.13162e-07 -6.24392e-08 -4.54137e-08)
(-1.14169e-07 -3.63204e-08 -3.16952e-08)
(-1.05933e-07 -1.71484e-11 -1.49426e-08)
(-4.04679e-08 9.60292e-09 -1.23917e-09)
(-1.66996e-07 -4.51404e-08 -6.22495e-08)
(-2.00394e-07 -3.22893e-08 -3.81103e-08)
(-1.78828e-07 -2.83245e-08 -3.0768e-08)
(-9.99042e-08 -1.20584e-08 -3.42526e-08)
(-2.18653e-07 -2.64399e-08 -6.74652e-08)
(-2.50768e-07 -4.26145e-08 -6.1667e-08)
(-2.32249e-07 9.20434e-09 -4.23215e-08)
(-1.39887e-07 5.29314e-08 -2.28271e-08)
(-2.68911e-07 1.04857e-08 -6.74708e-08)
(-2.63431e-07 8.45212e-09 -6.28121e-08)
(-2.31242e-07 1.59562e-08 -6.07574e-08)
(-1.45572e-07 3.23982e-08 -3.79098e-08)
(6.3263e-08 -2.51212e-09 -3.02992e-09)
(3.12741e-08 -4.19118e-09 -8.05067e-09)
(2.83479e-08 -8.05274e-09 -8.42392e-09)
(2.09349e-08 -3.07354e-09 -3.8117e-09)
(3.95155e-08 1.69679e-09 -1.46132e-08)
(3.85844e-08 -2.8023e-09 -2.11661e-08)
(3.9741e-08 -7.72406e-09 -1.60664e-08)
(3.23176e-08 -1.0182e-08 -1.33438e-08)
(3.7216e-08 -9.44836e-10 -3.3671e-08)
(3.17889e-08 -4.15707e-10 -2.87645e-08)
(3.54527e-08 1.55712e-09 -1.64695e-08)
(4.38362e-08 -4.61374e-09 -1.55612e-08)
(3.74431e-08 2.31313e-09 -2.13301e-08)
(1.45292e-08 3.2759e-09 -2.09744e-08)
(1.92932e-08 2.55148e-09 -1.80402e-08)
(2.51184e-08 1.96082e-09 -1.00761e-08)
(3.25162e-09 2.68646e-08 -1.86589e-08)
(-3.75034e-09 8.04316e-09 -3.45669e-09)
(-4.51029e-09 5.78498e-09 -1.2454e-08)
(-1.97098e-09 1.665e-09 -1.38741e-08)
(-4.04679e-08 9.60292e-09 -1.23917e-09)
(-2.92027e-08 4.47686e-09 -8.43026e-09)
(-2.76799e-08 2.02192e-09 -1.57266e-08)
(-2.6508e-08 -2.35976e-09 -1.13178e-08)
(-9.99042e-08 -1.20584e-08 -3.42526e-08)
(-7.13881e-08 1.31383e-09 -2.84636e-08)
(-5.8233e-08 3.81072e-09 -1.5847e-08)
(-1.39887e-07 5.29314e-08 -2.28271e-08)
(-1.047e-07 4.73786e-09 -2.37654e-08)
(-8.54681e-08 6.96094e-09 -2.84915e-08)
(-1.45572e-07 3.23982e-08 -3.79098e-08)
(-8.50823e-08 5.84701e-10 -2.38987e-08)
(-1.1477e-07 -1.80081e-08 -3.22806e-08)
)
;
    }
    procBoundary2to0
    {
        type            processor;
        value           nonuniform List<vector> 
44
(
(2.584e-08 -4.54772e-08 -6.46071e-08)
(-8.6765e-09 -6.2304e-08 -8.17042e-08)
(-8.59735e-08 -6.44184e-08 -6.56881e-08)
(-1.33755e-07 -5.20303e-08 -6.00281e-08)
(-2.01222e-07 -4.22286e-08 -5.53883e-08)
(-2.51721e-07 -7.31395e-09 -5.56422e-08)
(2.18718e-08 -7.49822e-09 -1.37082e-08)
(5.49629e-08 -1.37405e-08 -2.64032e-08)
(5.39593e-08 -2.36641e-08 -3.9709e-08)
(5.39593e-08 -2.36641e-08 -3.9709e-08)
(1.60855e-08 -3.45968e-08 -5.35496e-08)
(-1.53454e-08 -4.81698e-08 -4.35889e-08)
(-8.95059e-08 -5.2872e-08 -6.41469e-08)
(-1.46778e-07 -4.95993e-08 -6.41812e-08)
(-1.89713e-07 -2.18797e-08 -5.12498e-08)
(-2.33557e-07 6.24031e-09 -4.85834e-08)
(3.23169e-08 -1.15678e-08 -1.38881e-08)
(5.13581e-08 -2.09555e-08 -2.52014e-08)
(5.44551e-08 -3.39239e-08 -4.43224e-08)
(1.60855e-08 -3.45968e-08 -5.35496e-08)
(-1.53454e-08 -4.81698e-08 -4.35889e-08)
(-1.53454e-08 -4.81698e-08 -4.35889e-08)
(-8.27305e-08 -4.18863e-08 -3.79056e-08)
(-1.47668e-07 -3.09105e-08 -5.70401e-08)
(-1.92103e-07 -2.31859e-08 -4.60736e-08)
(-2.27871e-07 -8.5113e-09 -3.34235e-08)
(2.97492e-08 -8.15258e-09 -1.2188e-08)
(5.21789e-08 -1.95438e-08 -2.48238e-08)
(5.90754e-08 -3.3486e-08 -3.85316e-08)
(2.59651e-08 -2.94133e-08 -4.70568e-08)
(-3.81636e-08 -3.8207e-08 -3.85196e-08)
(-8.27305e-08 -4.18863e-08 -3.79056e-08)
(-1.47668e-07 -3.09105e-08 -5.70401e-08)
(-1.47668e-07 -3.09105e-08 -5.70401e-08)
(-1.7776e-07 -2.59428e-08 -4.17254e-08)
(-2.24349e-07 -6.07469e-09 -4.11171e-08)
(3.69191e-08 -7.37519e-09 -1.25726e-08)
(5.53734e-08 -1.45872e-08 -2.04606e-08)
(6.87407e-08 -1.99698e-08 -2.63497e-08)
(2.35793e-08 -3.07735e-08 -3.32244e-08)
(-2.17501e-08 -4.21785e-08 -3.94194e-08)
(-9.4425e-08 -3.5028e-08 -4.01142e-08)
(-1.52321e-07 -2.94652e-08 -4.90635e-08)
(-1.7776e-07 -2.59428e-08 -4.17254e-08)
)
;
    }
    procBoundary2to3
    {
        type            processor;
        value           nonuniform List<vector> 
12
(
(-2.80263e-07 2.63497e-08 -5.8208e-08)
(-2.79416e-07 1.55319e-08 -5.80088e-08)
(-2.35517e-07 5.06476e-09 -4.50877e-08)
(-1.21137e-07 -7.87455e-10 -1.58277e-08)
(-2.9107e-07 2.86659e-08 -4.55753e-08)
(-2.69528e-07 1.13554e-08 -4.85984e-08)
(-2.35734e-07 -7.78031e-09 -4.99426e-08)
(-1.47172e-07 -7.47184e-09 -3.21596e-08)
(-2.79184e-07 2.66259e-08 -3.38347e-08)
(-2.59006e-07 2.23198e-08 -4.12527e-08)
(-2.34264e-07 2.27888e-08 -3.01811e-08)
(-1.4573e-07 1.94435e-08 -3.46409e-08)
)
;
    }
    procBoundary2to6
    {
        type            processor;
        value           nonuniform List<vector> 
32
(
(-2.03142e-07 -9.48256e-09 -3.04198e-08)
(-1.41337e-07 -2.23717e-08 -2.63551e-08)
(-1.83243e-07 -2.84315e-09 -3.26742e-08)
(-3.56022e-08 -3.17074e-09 -1.29248e-08)
(-7.56301e-08 -1.22382e-08 -2.76044e-08)
(-6.3277e-08 -2.65826e-09 -2.71299e-08)
(3.44018e-08 -4.05335e-09 -4.33459e-09)
(4.95416e-08 -1.41424e-08 -9.91425e-09)
(5.53647e-08 -1.76545e-08 -1.46311e-08)
(3.49484e-08 -2.25e-08 -1.59228e-08)
(-1.6869e-08 -2.03671e-08 -2.0794e-08)
(-8.52959e-08 -3.12594e-08 -1.1907e-08)
(-1.15029e-07 -3.2994e-08 -1.83004e-08)
(-2.03142e-07 -9.48256e-09 -3.04198e-08)
(-1.41337e-07 -2.23717e-08 -2.63551e-08)
(-1.53061e-07 -2.64743e-08 -2.02327e-08)
(4.67967e-08 8.81957e-10 -1.53175e-09)
(5.52531e-08 -1.04509e-08 -8.1387e-09)
(6.0063e-08 -8.56657e-09 -1.11693e-08)
(2.37293e-08 -8.97231e-09 -8.59369e-09)
(-4.07046e-09 -3.1897e-09 -1.87158e-08)
(-5.39171e-08 -1.26167e-08 -1.50794e-08)
(-1.41337e-07 -2.23717e-08 -2.63551e-08)
(-3.56022e-08 -3.17074e-09 -1.29248e-08)
(-1.0181e-07 -1.48723e-08 -2.42559e-08)
(1.52379e-08 1.46822e-09 -4.99174e-09)
(5.41665e-08 -6.76402e-09 -1.00547e-08)
(2.94107e-08 5.10278e-09 -5.66672e-09)
(1.72878e-08 1.08887e-09 -5.21741e-09)
(3.95138e-09 1.8618e-09 -6.20922e-09)
(-3.56022e-08 -3.17074e-09 -1.29248e-08)
(-2.6152e-08 -1.09e-09 -7.55805e-09)
)
;
    }
}


// ************************************************************************* //
