/*--------------------------------*- C++ -*----------------------------------*\
| =========                 |                                                 |
| \\      /  F ield         | OpenFOAM: The Open Source CFD Toolbox           |
|  \\    /   O peration     | Version:  4.x                                   |
|   \\  /    A nd           | Web:      www.OpenFOAM.org                      |
|    \\/     M anipulation  |                                                 |
\*---------------------------------------------------------------------------*/
FoamFile
{
    version     2.0;
    format      ascii;
    class       volVectorField;
    location    "5.5";
    object      DDtUrel;
}
// * * * * * * * * * * * * * * * * * * * * * * * * * * * * * * * * * * * * * //

dimensions      [0 1 -2 0 0 0 0];

internalField   nonuniform List<vector> 
114
(
(0.00130176 7.75849e-06 0.000291265)
(0.00131274 1.1553e-05 0.000225143)
(0.00139461 1.4533e-05 0.000157203)
(0.00151937 1.37012e-05 0.000105372)
(0.00163249 1.48515e-05 5.93087e-05)
(0.0017315 1.15022e-05 5.50081e-05)
(0.00232172 8.95631e-05 3.90658e-05)
(0.00177278 5.65484e-05 0.000206009)
(0.00147727 3.57009e-05 0.000281878)
(0.00135536 1.5023e-05 0.000305098)
(0.00133941 9.86289e-06 0.000233462)
(0.00142151 5.31869e-06 0.000159505)
(0.00154284 1.34793e-05 0.000106316)
(0.00166505 2.30711e-05 5.84873e-05)
(0.00175739 1.61685e-05 4.56953e-05)
(0.00240443 0.000140466 4.87845e-05)
(0.00187933 9.17885e-05 0.000209826)
(0.00159378 6.31404e-05 0.000293634)
(0.00147407 4.41899e-05 0.00032474)
(0.00144036 2.53855e-05 0.000262005)
(0.00151302 9.57117e-06 0.000197188)
(0.00163198 8.59401e-06 0.000130734)
(0.00176819 5.70525e-06 8.20847e-05)
(0.00185856 1.15442e-05 5.28233e-05)
(0.00249256 0.000160526 5.52823e-05)
(0.0019966 0.000113408 0.000214017)
(0.00173355 8.2787e-05 0.000304894)
(0.00163778 6.92389e-05 0.000347662)
(0.00160029 5.26577e-05 0.000304699)
(0.00166994 4.02138e-05 0.000244771)
(0.00178101 2.34093e-05 0.000173118)
(0.00191415 -2.51561e-06 0.000118403)
(0.00196766 -6.51901e-06 6.55957e-05)
(0.00139126 1.21878e-05 0.000144482)
(0.00149123 1.26237e-05 9.66915e-05)
(0.00158985 1.60085e-05 4.72002e-05)
(0.00168613 5.71856e-06 4.94526e-05)
(0.0022016 8.68172e-05 8.27367e-06)
(0.00163645 4.77582e-05 0.000207111)
(0.00139031 2.84162e-05 0.000271)
(0.00131998 8.92562e-06 0.000294388)
(0.00133714 5.44137e-06 0.000220638)
(0.00142209 2.59026e-06 0.000149299)
(0.00151582 8.87281e-06 0.000101269)
(0.001616 1.90943e-05 5.14462e-05)
(0.00168697 5.25796e-06 4.10636e-05)
(0.00228049 0.000143666 1.63993e-05)
(0.00172804 8.66903e-05 0.000209573)
(0.00148484 5.1856e-05 0.000284643)
(0.001415 2.65033e-05 0.000318419)
(0.00142845 1.49067e-05 0.000252945)
(0.00150998 2.24776e-06 0.000191579)
(0.00160578 2.65957e-06 0.000132157)
(0.0017096 7.10187e-07 7.47504e-05)
(0.00178732 6.29018e-06 4.81329e-05)
(0.0023698 0.000165626 2.25248e-05)
(0.00184686 0.000111084 0.000215455)
(0.00161777 7.25675e-05 0.000304546)
(0.00156529 5.15741e-05 0.000354178)
(0.00157921 3.59585e-05 0.000307029)
(0.00166901 1.4501e-05 0.000255656)
(0.00174177 8.85663e-06 0.000184602)
(0.00186826 -1.01918e-05 0.000124805)
(0.0019058 4.93419e-06 7.59665e-05)
(0.00151454 1.41453e-05 3.95637e-05)
(0.0015484 -1.01959e-06 1.59706e-05)
(0.00210892 8.42156e-05 7.19083e-06)
(0.00153262 4.20476e-05 0.00017764)
(0.00130867 2.29673e-05 0.000229617)
(0.00126539 5.12312e-06 0.000247186)
(0.00130043 3.65105e-06 0.0001894)
(0.00139145 1.74636e-06 0.000132806)
(0.0014691 7.19036e-06 8.77199e-05)
(0.00155148 1.04665e-05 3.84893e-05)
(0.00159421 9.85244e-07 2.14945e-05)
(0.00218042 0.000143774 1.10782e-05)
(0.0016134 8.21368e-05 0.00017982)
(0.00139161 4.39371e-05 0.000242689)
(0.00134767 1.55387e-05 0.000271319)
(0.00139116 6.59187e-06 0.000222146)
(0.00148315 -4.31026e-06 0.0001742)
(0.00157617 -6.91937e-07 0.000121889)
(0.00166654 -5.79591e-06 6.60499e-05)
(0.00173628 3.0303e-06 3.54552e-05)
(0.00226824 0.000165633 1.60306e-05)
(0.00172612 0.000107194 0.000185501)
(0.00151745 6.42369e-05 0.000263411)
(0.00149586 3.80728e-05 0.000309965)
(0.00154913 2.26481e-05 0.000279951)
(0.00166412 1.95357e-06 0.000246269)
(0.00174274 2.6054e-06 0.0001794)
(0.00188561 -1.1455e-05 0.000122671)
(0.00194626 1.17972e-05 6.15961e-05)
(0.00205604 7.51764e-05 2.01318e-05)
(0.00147087 3.816e-05 0.000147224)
(0.00125086 1.89105e-05 0.000180363)
(0.00121371 2.12369e-06 0.000193257)
(0.00126142 2.38211e-06 0.000147701)
(0.00135158 -1.0399e-06 9.98336e-05)
(0.00142873 3.31908e-06 6.24369e-05)
(0.00149404 6.78543e-06 1.17742e-05)
(0.00212569 0.000142806 2.19273e-05)
(0.00154778 7.42114e-05 0.000148232)
(0.00133103 3.53215e-05 0.000191721)
(0.00129178 6.24581e-06 0.00021408)
(0.00135004 1.27651e-06 0.000177172)
(0.00144946 -9.51117e-06 0.000141289)
(0.0015482 -6.28013e-06 9.25667e-05)
(0.002219 0.000165828 2.38475e-05)
(0.00166456 0.000101414 0.000152868)
(0.00146027 5.33724e-05 0.000211068)
(0.00144286 2.48285e-05 0.000246525)
(0.00151094 1.17772e-05 0.000228339)
(0.00164365 -8.84468e-06 0.000203433)
)
;

boundaryField
{
    inlet
    {
        type            calculated;
        value           nonuniform List<vector> 
12
(
(0.00435145 0.00035508 -0.000422963)
(0.00446822 0.000382845 -0.000364489)
(0.00474551 0.000359019 -0.000338865)
(0.00382976 0.000336118 -0.000745605)
(0.00396509 0.000444344 -0.000685991)
(0.00427297 0.000424987 -0.000664671)
(0.00373902 0.000339421 -0.000629373)
(0.00382833 0.000462335 -0.000588298)
(0.00413333 0.000421141 -0.000562013)
(0.00368648 0.000253415 -0.000556523)
(0.00381377 0.000511656 -0.00047566)
(0.00421497 0.000473465 -0.000449196)
)
;
    }
    outlet
    {
        type            calculated;
        value           nonuniform 0();
    }
    wall
    {
        type            calculated;
        value           nonuniform List<vector> 
66
(
(0.00435145 0.00035508 -0.000422963)
(0.00446822 0.000382845 -0.000364489)
(0.00474551 0.000359019 -0.000338865)
(0.001217 0.000110766 0.000475741)
(0.00153367 8.4296e-05 0.000460076)
(0.00205962 0.000133351 0.000442015)
(0.000997592 7.26677e-05 0.000475132)
(0.00131954 9.01238e-05 0.000492994)
(0.00197409 0.000118697 0.000496172)
(0.000618825 1.43907e-05 0.000509823)
(0.000921786 -8.33813e-05 0.000627642)
(0.0012395 0.000110291 0.000637992)
(0.00217224 0.000209705 0.000675405)
(0.000914609 2.78223e-05 0.000197921)
(0.000802105 -3.1231e-05 0.000218198)
(0.000952302 1.23952e-05 0.000252792)
(0.00180765 0.000173831 0.000482974)
(0.00110793 5.39879e-05 9.6816e-05)
(0.00109589 -6.86964e-05 1.53174e-05)
(0.00117328 -9.71818e-05 0.000189247)
(0.00201857 0.00022685 0.000395239)
(0.00150727 1.89748e-05 8.5299e-05)
(0.00142165 3.72534e-05 3.2527e-05)
(0.00147221 -2.7344e-05 1.29769e-05)
(0.00228552 0.000142376 0.00021259)
(0.00160059 2.68587e-05 -2.84799e-05)
(0.00169665 0.000167065 -0.000107178)
(0.00196512 -3.59893e-05 2.96985e-06)
(0.00275915 -7.51836e-05 0.000204096)
(0.00183224 5.70329e-05 0.000100551)
(0.00180122 0.000112841 3.1168e-05)
(0.00209288 0.000109539 0.000116614)
(0.00235282 -0.000112304 5.29349e-05)
(0.00474551 0.000359019 -0.000338865)
(0.00427297 0.000424987 -0.000664671)
(0.00413333 0.000421141 -0.000562013)
(0.00421497 0.000473465 -0.000449196)
(0.00205962 0.000133351 0.000442015)
(0.00117019 0.000138908 0.000666216)
(0.000809611 0.000139297 0.000507589)
(0.000803138 0.000145612 0.000376996)
(0.00197409 0.000118697 0.000496172)
(0.00140606 7.37825e-05 0.000617631)
(0.00116519 7.97621e-05 0.000462875)
(0.00119768 4.32209e-05 0.000340812)
(0.00217224 0.000209705 0.000675405)
(0.00180118 9.81903e-05 0.000932241)
(0.00165738 7.13466e-05 0.000734813)
(0.00159353 3.60298e-05 0.000531224)
(0.00180765 0.000173831 0.000482974)
(0.00182293 0.000108701 0.000576595)
(0.00185865 8.1183e-05 0.000543911)
(0.00182578 8.11478e-05 0.000447583)
(0.00201857 0.00022685 0.000395239)
(0.00222532 -3.94823e-05 0.000577722)
(0.00238282 -5.40678e-05 0.000675967)
(0.00246666 -3.99692e-05 0.000590997)
(0.00228552 0.000142376 0.00021259)
(0.00186274 4.52898e-05 0.000359925)
(0.00205019 8.89861e-05 0.000431136)
(0.00275915 -7.51836e-05 0.000204096)
(0.00244667 -0.000173826 0.000268439)
(0.00290608 -9.87797e-05 0.000432841)
(0.00235282 -0.000112304 5.29349e-05)
(0.00192353 3.1567e-05 0.000261866)
(0.00296023 0.000211681 0.000263549)
)
;
    }
    procBoundary2to0
    {
        type            processor;
        value           nonuniform List<vector> 
44
(
(0.00135752 -3.12315e-07 0.00030753)
(0.00134448 1.01848e-05 0.000241522)
(0.00141959 1.71808e-05 0.000170575)
(0.00153898 1.1196e-05 0.000113154)
(0.00166768 6.14235e-06 5.73969e-05)
(0.00176275 2.8164e-07 5.47085e-05)
(0.00227707 -1.04627e-05 3.42878e-05)
(0.00171558 -5.72494e-07 0.000209422)
(0.00142086 3.32525e-06 0.000273224)
(0.00142086 3.32525e-06 0.000273224)
(0.00127976 7.10958e-06 0.000278504)
(0.00131042 9.9656e-06 0.000210926)
(0.00143219 1.77184e-05 0.000160341)
(0.00152892 1.1101e-05 0.000106414)
(0.00162659 9.01804e-06 4.68984e-05)
(0.00169311 5.07474e-06 4.86716e-05)
(0.00216144 -1.042e-05 5.99734e-06)
(0.00159072 -1.28509e-06 0.000208744)
(0.0013517 3.16133e-06 0.000262447)
(0.00127976 7.10958e-06 0.000278504)
(0.00131042 9.9656e-06 0.000210926)
(0.00131042 9.9656e-06 0.000210926)
(0.00135952 9.05775e-06 0.000124668)
(0.00143895 1.08877e-05 8.23663e-05)
(0.00156689 2.15083e-05 3.76064e-05)
(0.00160528 7.10582e-07 2.52278e-05)
(0.00207514 -7.72728e-06 1.65297e-05)
(0.00149994 -1.23676e-06 0.000178362)
(0.00128065 2.74973e-06 0.000224851)
(0.00123462 5.6396e-06 0.000235668)
(0.00127595 7.43081e-06 0.000179911)
(0.00135952 9.05775e-06 0.000124668)
(0.00143895 1.08877e-05 8.23663e-05)
(0.00143895 1.08877e-05 8.23663e-05)
(0.0014494 7.27497e-06 1.41046e-05)
(0.00147676 -4.22947e-06 -9.8343e-06)
(0.0020331 -1.58309e-05 3.39171e-05)
(0.00144828 -6.6496e-07 0.000150238)
(0.00122637 3.64578e-06 0.00018006)
(0.0011845 7.75756e-06 0.00018671)
(0.00123464 7.46005e-06 0.000140717)
(0.00131931 9.57264e-06 9.54815e-05)
(0.00139315 8.15073e-06 5.71995e-05)
(0.0014494 7.27497e-06 1.41046e-05)
)
;
    }
    procBoundary2to3
    {
        type            processor;
        value           nonuniform List<vector> 
12
(
(0.0017881 5.31503e-06 5.18748e-05)
(0.00183032 -1.46423e-06 2.63635e-05)
(0.00193664 4.91933e-06 2.8931e-06)
(0.00206383 -5.943e-06 1.87142e-05)
(0.00165988 1.80104e-06 2.39045e-05)
(0.00171423 -1.78878e-05 1.33063e-05)
(0.00181035 -2.79861e-06 -8.24538e-06)
(0.00195314 1.50488e-05 1.97263e-05)
(0.00149387 -1.07842e-05 -2.55696e-05)
(0.00159616 -2.93409e-05 -8.93138e-06)
(0.00175436 -5.87874e-06 -1.09095e-05)
(0.0019636 2.12834e-05 -6.64563e-06)
)
;
    }
    procBoundary2to6
    {
        type            processor;
        value           nonuniform List<vector> 
32
(
(0.00152148 5.70102e-07 -3.21174e-06)
(0.00162721 -1.18428e-05 3.50555e-05)
(0.00167411 -7.66064e-06 7.70706e-06)
(0.00174307 -1.35578e-05 0.000138886)
(0.00187632 -2.96041e-05 8.01727e-05)
(0.00191389 -2.37719e-05 1.54312e-05)
(0.00204308 7.02859e-05 7.1438e-05)
(0.00144628 3.3856e-05 0.000127199)
(0.00122851 1.46174e-05 0.000137245)
(0.00118901 2.05117e-07 0.000132826)
(0.00124676 1.8862e-08 0.000104375)
(0.00133007 -9.66024e-07 6.88281e-05)
(0.00140912 -2.97233e-06 3.7442e-05)
(0.00152148 5.70102e-07 -3.21174e-06)
(0.00162721 -1.18428e-05 3.50555e-05)
(0.00146363 -9.02806e-06 -4.8378e-06)
(0.00210721 0.00013848 6.11991e-05)
(0.00151954 6.57899e-05 0.00012592)
(0.00129992 2.7384e-05 0.000145343)
(0.0012622 -3.02271e-06 0.000151389)
(0.00132667 -4.60413e-06 0.000126166)
(0.00141783 -1.27047e-05 9.33916e-05)
(0.00162721 -1.18428e-05 3.50555e-05)
(0.00174307 -1.35578e-05 0.000138886)
(0.00151972 -1.43831e-05 5.66195e-05)
(0.00219843 0.000156782 5.14534e-05)
(0.00163078 9.11659e-05 0.000126186)
(0.00142095 4.32907e-05 0.000159355)
(0.00140177 1.0212e-05 0.000178633)
(0.00146322 -3.2634e-06 0.000163068)
(0.00174307 -1.35578e-05 0.000138886)
(0.00158537 -2.6217e-05 0.00013845)
)
;
    }
}


// ************************************************************************* //
