/*--------------------------------*- C++ -*----------------------------------*\
| =========                 |                                                 |
| \\      /  F ield         | OpenFOAM: The Open Source CFD Toolbox           |
|  \\    /   O peration     | Version:  4.x                                   |
|   \\  /    A nd           | Web:      www.OpenFOAM.org                      |
|    \\/     M anipulation  |                                                 |
\*---------------------------------------------------------------------------*/
FoamFile
{
    version     2.0;
    format      ascii;
    class       volVectorField;
    location    "5.5";
    object      Us;
}
// * * * * * * * * * * * * * * * * * * * * * * * * * * * * * * * * * * * * * //

dimensions      [0 1 -1 0 0 0 0];

internalField   nonuniform List<vector> 
114
(
(-1.30531e-06 3.12129e-07 -1.82926e-07)
(-2.15543e-06 4.04655e-07 -4.00589e-07)
(-3.21524e-06 4.17568e-07 -2.88563e-07)
(-3.83271e-06 4.20126e-07 -7.78707e-07)
(-4.20807e-06 3.86093e-07 -9.42157e-07)
(-4.72396e-06 5.26697e-07 -1.06034e-06)
(1.2853e-06 -3.32755e-07 -3.00275e-08)
(-5.30989e-07 3.11553e-07 3.76067e-08)
(-9.97505e-07 4.31961e-07 -3.36862e-08)
(-1.43056e-06 4.67194e-07 -4.18148e-08)
(-2.3535e-06 5.9819e-07 -1.04218e-07)
(-3.47538e-06 7.71824e-07 -3.70902e-08)
(-4.07864e-06 9.88138e-07 -3.79167e-07)
(-4.28536e-06 7.20915e-07 -6.7795e-07)
(-4.3954e-06 3.43819e-07 -8.66379e-07)
(-6.35465e-08 8.95534e-08 1.09448e-07)
(-1.96058e-07 1.25669e-07 1.27272e-07)
(-1.32429e-06 7.87301e-07 2.55706e-07)
(-2.41961e-06 1.47018e-06 -1.53672e-07)
(-2.33632e-06 6.8365e-07 -2.08134e-07)
(-2.90977e-06 8.62124e-07 1.90136e-07)
(-3.17585e-06 3.11558e-07 -5.30143e-08)
(-3.9993e-06 6.47831e-07 -3.01503e-07)
(-3.94841e-06 1.97175e-07 -7.92817e-07)
(3.44412e-07 6.22816e-08 7.28291e-08)
(-2.22666e-08 1.36106e-07 1.69731e-08)
(-2.13745e-07 1.82717e-07 -2.99903e-08)
(-5.97319e-07 4.08963e-07 2.86314e-07)
(-1.2301e-06 5.62518e-07 4.90613e-07)
(-1.51319e-06 3.68595e-07 4.18814e-07)
(-2.10556e-06 9.53289e-08 -1.74228e-07)
(-2.45102e-06 5.71863e-07 -1.55485e-07)
(-2.40854e-06 7.29695e-07 -5.16669e-07)
(-2.91072e-06 2.48679e-07 -2.95028e-07)
(-3.46233e-06 2.6124e-07 -7.13373e-07)
(-4.1657e-06 3.19597e-07 -8.31971e-07)
(-4.45235e-06 3.50618e-07 -8.89839e-07)
(-6.49234e-08 1.20948e-07 7.59788e-08)
(-4.22106e-07 2.2704e-07 5.27567e-08)
(-7.93336e-07 2.78263e-07 -1.19755e-09)
(-1.31964e-06 4.10867e-07 -4.07259e-08)
(-1.79301e-06 4.55494e-07 -3.28948e-08)
(-3.08644e-06 3.71093e-07 4.38174e-08)
(-3.6557e-06 2.7921e-07 -3.47665e-07)
(-4.0037e-06 2.33334e-07 -6.18046e-07)
(-4.38393e-06 1.78951e-07 -7.07489e-07)
(-6.46199e-08 1.28515e-07 1.30886e-07)
(-2.81593e-07 2.30376e-07 7.45568e-08)
(-7.49794e-07 3.01696e-07 1.76501e-07)
(-1.1678e-06 3.44156e-07 2.69752e-08)
(-1.65086e-06 5.28683e-07 4.79926e-07)
(-2.38731e-06 5.96684e-07 1.85177e-07)
(-2.98697e-06 3.92172e-07 -1.47944e-08)
(-3.39289e-06 1.5587e-07 -3.09559e-07)
(-3.63311e-06 6.55095e-08 -5.64132e-07)
(8.71725e-08 6.51778e-08 7.34219e-08)
(-2.83395e-08 1.33589e-07 4.80836e-08)
(-3.16737e-07 1.64313e-07 1.44204e-07)
(-7.0646e-07 1.20336e-07 2.66836e-07)
(-1.00879e-06 2.10782e-07 8.04081e-07)
(-1.1378e-06 3.46452e-07 2.32105e-07)
(-1.59506e-06 2.916e-07 -1.40544e-07)
(-1.9479e-06 3.62888e-08 -7.88276e-08)
(-1.76096e-06 -1.29797e-08 -2.71008e-07)
(-3.9133e-06 1.09645e-07 -5.10681e-07)
(-4.27902e-06 1.06893e-07 -6.46737e-07)
(4.77023e-08 9.2757e-08 8.01765e-08)
(-1.59241e-07 1.89026e-07 7.36438e-08)
(-5.75306e-07 2.45013e-07 5.94587e-08)
(-1.14771e-06 3.2334e-07 -5.78298e-08)
(-1.77586e-06 3.21608e-07 -5.88285e-08)
(-2.54157e-06 9.67695e-08 -1.14531e-07)
(-2.98633e-06 1.02445e-07 -3.22334e-07)
(-3.62356e-06 -2.032e-08 -4.47546e-07)
(-4.03093e-06 -1.63789e-08 -4.98904e-07)
(4.55489e-08 3.83486e-08 8.68923e-08)
(-1.36438e-07 2.05249e-07 2.23669e-07)
(-6.31545e-07 2.58236e-07 8.62205e-08)
(-9.14722e-07 2.2374e-07 1.73508e-08)
(-1.52939e-06 2.85234e-07 2.00333e-07)
(-2.07487e-06 2.75193e-07 7.35919e-08)
(-2.56999e-06 2.88185e-07 -1.60837e-07)
(-3.06987e-06 -8.90453e-08 -2.60929e-07)
(-3.43745e-06 -2.13516e-07 -3.42824e-07)
(9.71328e-08 2.08219e-08 8.81632e-08)
(-2.46977e-08 8.22451e-08 1.63247e-07)
(-2.02064e-07 1.93873e-07 1.48027e-07)
(-7.08298e-07 1.97989e-07 1.88305e-07)
(-9.68678e-07 2.57473e-07 3.13751e-07)
(-9.85256e-07 2.50891e-07 9.84551e-08)
(-1.34062e-06 2.01144e-07 9.02511e-08)
(-1.66875e-06 1.20105e-07 -2.2492e-07)
(-2.08939e-06 -4.60968e-08 -4.17475e-07)
(6.92791e-08 8.20293e-08 1.04773e-07)
(-5.29019e-08 1.62667e-07 1.30305e-07)
(-3.55465e-07 2.11577e-07 1.05233e-07)
(-8.5422e-07 2.01978e-07 6.33424e-08)
(-1.47804e-06 1.44025e-07 -1.88432e-08)
(-2.33441e-06 7.48468e-08 1.11077e-08)
(-2.95692e-06 1.74581e-09 -2.04845e-07)
(-3.52539e-06 -1.67829e-07 -2.5501e-07)
(6.4136e-08 3.16313e-08 1.22362e-07)
(-7.60211e-08 1.6454e-07 1.89046e-07)
(-3.37148e-07 2.28961e-07 7.2399e-08)
(-7.42715e-07 2.70197e-07 7.4302e-08)
(-1.3556e-06 2.39786e-07 9.06889e-08)
(-1.82971e-06 1.14077e-07 6.7231e-09)
(-2.23789e-06 5.96501e-08 -1.18701e-07)
(7.40485e-08 1.38015e-08 6.17004e-08)
(1.44788e-09 9.02254e-08 1.61517e-07)
(-1.52887e-07 1.61172e-07 1.36812e-07)
(-2.83506e-07 1.84854e-07 1.14417e-07)
(-7.70401e-07 1.9476e-07 7.86526e-08)
(-8.42527e-07 1.06552e-07 4.52658e-08)
)
;

boundaryField
{
    inlet
    {
        type            zeroGradient;
    }
    outlet
    {
        type            zeroGradient;
    }
    wall
    {
        type            zeroGradient;
    }
    procBoundary2to0
    {
        type            processor;
        value           nonuniform List<vector> 
44
(
(-1.34615e-06 6.10042e-08 -2.95686e-07)
(-1.84061e-06 5.80124e-08 -5.24929e-07)
(-3.1565e-06 1.45113e-07 -3.29755e-07)
(-3.38902e-06 1.64624e-07 -5.53218e-07)
(-3.95753e-06 1.28132e-07 -7.63213e-07)
(-4.33834e-06 3.37316e-07 -1.06123e-06)
(-1.72276e-08 1.02321e-07 3.78595e-08)
(-5.62725e-07 2.78378e-07 -6.58399e-08)
(-9.47704e-07 3.49102e-07 -1.07509e-07)
(-9.47704e-07 3.49102e-07 -1.07509e-07)
(-1.43234e-06 3.08442e-07 -1.85158e-07)
(-1.91375e-06 2.28244e-07 -9.02777e-08)
(-2.81189e-06 1.73673e-07 -3.75984e-07)
(-3.42058e-06 1.97523e-07 -6.39161e-07)
(-3.73223e-06 3.9588e-07 -6.80398e-07)
(-4.01713e-06 5.50897e-07 -8.35143e-07)
(-8.66071e-08 7.85003e-08 5.58198e-08)
(-4.27393e-07 1.89399e-07 -4.57228e-08)
(-7.03507e-07 1.58963e-07 -1.0773e-07)
(-1.43234e-06 3.08442e-07 -1.85158e-07)
(-1.91375e-06 2.28244e-07 -9.02777e-08)
(-1.91375e-06 2.28244e-07 -9.02777e-08)
(-2.55391e-06 1.19733e-07 -1.83912e-07)
(-3.31302e-06 1.31843e-07 -4.94138e-07)
(-3.69829e-06 2.07398e-07 -5.31886e-07)
(-3.95304e-06 1.98673e-07 -5.36468e-07)
(3.53935e-08 8.14346e-08 6.09891e-08)
(-2.65493e-07 2.72509e-07 1.0748e-08)
(-5.65342e-07 1.38838e-07 -3.19623e-08)
(-1.14072e-06 2.63018e-07 -1.21191e-07)
(-2.01874e-06 1.96723e-07 -6.68191e-08)
(-2.55391e-06 1.19733e-07 -1.83912e-07)
(-3.31302e-06 1.31843e-07 -4.94138e-07)
(-3.31302e-06 1.31843e-07 -4.94138e-07)
(-3.55048e-06 3.39225e-08 -3.84958e-07)
(-4.04326e-06 -3.75948e-09 -5.43923e-07)
(1.56569e-07 1.15856e-07 6.80471e-08)
(-1.13195e-10 2.27204e-07 8.93467e-08)
(-2.2218e-07 2.05567e-07 1.01257e-07)
(-8.42735e-07 1.34278e-07 -2.52315e-08)
(-1.6761e-06 -6.69758e-08 -9.88574e-08)
(-2.61117e-06 -9.16738e-09 -2.35418e-07)
(-3.29985e-06 9.79129e-10 -3.68638e-07)
(-3.55048e-06 3.39225e-08 -3.84958e-07)
)
;
    }
    procBoundary2to3
    {
        type            processor;
        value           nonuniform List<vector> 
12
(
(-5.06758e-06 1.76805e-07 -8.82193e-07)
(-4.6306e-06 9.9592e-08 -8.18537e-07)
(-4.01744e-06 -1.59021e-06 -3.03004e-07)
(-2.05498e-06 -1.03876e-07 1.44617e-07)
(-5.01065e-06 1.45147e-07 -7.07415e-07)
(-4.57268e-06 -1.48275e-09 -6.62734e-07)
(-3.86737e-06 -2.28016e-07 -5.43227e-07)
(-2.51496e-06 -1.74529e-07 -3.29789e-07)
(-4.59484e-06 1.13257e-07 -5.4301e-07)
(-4.43585e-06 4.88493e-08 -4.9141e-07)
(-3.80286e-06 6.11547e-08 -2.12689e-07)
(-2.51365e-06 2.63783e-07 -1.79685e-07)
)
;
    }
    procBoundary2to6
    {
        type            processor;
        value           nonuniform List<vector> 
32
(
(-3.72185e-06 -1.20308e-07 -2.80725e-07)
(-2.88479e-06 -2.86948e-07 -1.18075e-07)
(-3.36553e-06 -1.05251e-07 -2.29077e-07)
(-9.60976e-07 2.3535e-08 5.03962e-08)
(-1.5465e-06 -1.6887e-07 -1.94757e-07)
(-1.21271e-06 -5.61619e-08 -2.55839e-07)
(7.49798e-08 7.21463e-08 1.07389e-07)
(4.30672e-08 1.49073e-07 1.08406e-07)
(-1.65579e-07 1.35114e-07 1.24438e-07)
(-4.88313e-07 1.12979e-07 1.17176e-07)
(-1.35049e-06 1.46585e-07 3.0859e-08)
(-2.44054e-06 -1.50387e-07 1.17903e-07)
(-2.80858e-06 -2.50328e-07 -1.19007e-08)
(-3.72185e-06 -1.20308e-07 -2.80725e-07)
(-2.88479e-06 -2.86948e-07 -1.18075e-07)
(-3.15325e-06 -2.62123e-07 -7.5956e-08)
(1.53741e-07 4.74546e-08 2.40888e-07)
(1.02714e-07 7.71444e-08 9.17108e-08)
(-1.32907e-07 2.01327e-07 7.68527e-08)
(-5.80439e-07 1.44143e-07 9.45323e-08)
(-1.05741e-06 2.12049e-07 -6.0732e-08)
(-1.75497e-06 4.07455e-08 3.50385e-08)
(-2.88479e-06 -2.86948e-07 -1.18075e-07)
(-9.60976e-07 2.3535e-08 5.03962e-08)
(-2.43619e-06 -1.84522e-07 -7.72117e-08)
(6.11815e-08 6.94699e-08 -9.17343e-09)
(2.76492e-07 1.07089e-07 1.21459e-07)
(3.45222e-08 1.33155e-07 7.9647e-08)
(-2.55499e-07 2.06848e-07 9.85369e-08)
(-3.98015e-07 1.73971e-07 4.70669e-08)
(-9.60976e-07 2.3535e-08 5.03962e-08)
(-9.2671e-07 1.05277e-07 5.18774e-08)
)
;
    }
}


// ************************************************************************* //
