/*--------------------------------*- C++ -*----------------------------------*\
| =========                 |                                                 |
| \\      /  F ield         | OpenFOAM: The Open Source CFD Toolbox           |
|  \\    /   O peration     | Version:  4.x                                   |
|   \\  /    A nd           | Web:      www.OpenFOAM.org                      |
|    \\/     M anipulation  |                                                 |
\*---------------------------------------------------------------------------*/
FoamFile
{
    version     2.0;
    format      ascii;
    class       volVectorField;
    location    "26";
    object      DDtUrel;
}
// * * * * * * * * * * * * * * * * * * * * * * * * * * * * * * * * * * * * * //

dimensions      [0 1 -2 0 0 0 0];

internalField   nonuniform List<vector> 
108
(
(0.00172759 -9.59882e-05 -6.89626e-05)
(0.00104619 -4.74892e-05 -3.80175e-05)
(0.000645446 -1.52218e-05 -1.71598e-05)
(0.000427645 3.78894e-06 4.87892e-07)
(0.000300263 9.46444e-06 8.9596e-06)
(0.000250199 9.48119e-06 1.49753e-05)
(0.000223248 4.61128e-06 1.87187e-05)
(0.000236856 -3.20316e-06 2.49651e-05)
(0.000234821 -3.96046e-06 1.70389e-05)
(0.0016767 -9.89466e-05 -6.54823e-05)
(0.000986878 -4.35733e-05 -3.52813e-05)
(0.000591478 -1.21951e-05 -1.53063e-05)
(0.000379602 6.17844e-06 8.03754e-08)
(0.000261223 8.86152e-06 8.45867e-06)
(0.00021472 8.1839e-06 1.47241e-05)
(0.0001953 4.84905e-06 1.91611e-05)
(0.000211202 -2.70493e-06 2.31994e-05)
(0.000213261 5.18287e-06 7.87366e-06)
(0.00163423 -6.82713e-05 -6.26833e-05)
(0.000936586 -2.89722e-05 -3.19804e-05)
(0.000549538 -8.02467e-06 -1.24685e-05)
(0.000342229 5.12847e-06 1.77859e-06)
(0.000233585 6.70092e-06 8.76678e-06)
(0.000192151 8.15792e-06 1.53577e-05)
(0.000181099 7.04746e-06 2.17969e-05)
(0.000203595 -4.30085e-07 2.84877e-05)
(0.000202858 4.10532e-06 -9.2313e-06)
(0.00161827 -1.45818e-05 -6.31174e-05)
(0.000916127 -3.25075e-06 -3.14579e-05)
(0.000532676 -1.09382e-06 -1.34674e-05)
(0.000326018 1.95659e-06 -9.22052e-08)
(0.000221954 4.09106e-07 7.6855e-06)
(0.000183076 -8.5429e-06 1.26268e-05)
(0.000176552 8.31805e-06 1.69569e-05)
(0.00018727 3.62908e-05 2.12505e-05)
(0.00019782 1.1769e-05 7.96475e-06)
(0.00175278 -9.25305e-05 -8.40095e-06)
(0.00107161 -4.53584e-05 -1.10884e-05)
(0.0006662 -1.44759e-05 -1.25108e-05)
(0.000443286 1.81882e-06 -6.30782e-06)
(0.000310621 7.28681e-06 1.76255e-06)
(0.000253178 8.17014e-06 1.17e-05)
(0.000219014 4.58788e-06 1.51132e-05)
(0.000221725 -1.06862e-06 1.87065e-05)
(0.000211721 -4.51168e-06 8.62848e-06)
(0.00170792 -9.45124e-05 -2.68072e-06)
(0.00101784 -4.18754e-05 -7.1383e-06)
(0.000615532 -1.03239e-05 -9.26812e-06)
(0.000398166 6.18874e-06 -5.50086e-06)
(0.000270098 9.84003e-06 1.08553e-06)
(0.000215908 1.14194e-05 9.60719e-06)
(0.000184634 5.07091e-06 1.264e-05)
(0.000189974 -2.23597e-06 1.70878e-05)
(0.000181775 -4.44575e-06 7.62343e-06)
(0.00166654 -6.83665e-05 2.8698e-06)
(0.000969775 -2.86404e-05 -4.75423e-06)
(0.000572531 -7.64185e-06 -6.6987e-06)
(0.000361166 5.36555e-06 -3.83568e-06)
(0.000241135 7.50722e-06 1.86394e-06)
(0.000194463 9.01239e-06 1.05891e-05)
(0.000166689 4.24169e-06 1.16991e-05)
(0.000174055 -3.94751e-06 1.80298e-05)
(0.00015621 -7.25154e-06 -2.56502e-06)
(0.00164868 -1.33353e-05 3.0311e-06)
(0.000947188 -3.21192e-06 -4.31394e-06)
(0.000552627 -1.68945e-06 -7.24779e-06)
(0.000343281 1.70554e-07 -4.41164e-06)
(0.000226299 -3.52298e-07 1.10242e-06)
(0.000180535 -1.47971e-06 6.60663e-06)
(0.00015203 1.90871e-06 6.12711e-06)
(0.000149157 4.36079e-06 1.36332e-05)
(0.000132102 -4.49215e-06 1.11412e-06)
(0.00178915 -8.92981e-05 3.0757e-06)
(0.00111111 -4.29278e-05 -4.20237e-06)
(0.000704024 -1.16317e-05 -1.10093e-05)
(0.000475838 4.64404e-06 -1.2404e-05)
(0.000335722 8.80509e-06 -5.93269e-06)
(0.000269946 6.97984e-06 3.46748e-06)
(0.000235982 -1.43496e-08 8.83442e-06)
(0.000234945 -8.98132e-06 7.26708e-06)
(0.000230977 -1.17988e-05 -2.99769e-06)
(0.00174859 -9.12893e-05 7.46724e-06)
(0.00105968 -3.99244e-05 -7.0321e-07)
(0.000655873 -8.2295e-06 -7.25405e-06)
(0.000435637 8.47855e-06 -8.82623e-06)
(0.000300822 1.059e-05 -4.28546e-06)
(0.000239822 8.99368e-06 1.68555e-06)
(0.000202759 4.69752e-07 3.577e-06)
(0.000202272 -8.24248e-06 4.57457e-07)
(0.00019257 -1.48227e-05 -7.04817e-06)
(0.00170881 -6.55922e-05 1.14255e-05)
(0.0010148 -2.85172e-05 1.65866e-06)
(0.000611978 -7.83099e-06 -5.75761e-06)
(0.000396139 6.01766e-06 -7.87894e-06)
(0.000267047 8.31052e-06 -5.55207e-06)
(0.000213272 7.44623e-06 -2.42975e-06)
(0.000178135 -4.85053e-08 -1.71379e-06)
(0.000172016 -9.19124e-06 -1.29163e-06)
(0.000158547 -1.57918e-05 -1.37858e-05)
(0.00169178 -1.1005e-05 1.45904e-05)
(0.000993784 -6.39975e-06 2.00309e-06)
(0.00059038 -3.41828e-06 -5.75422e-06)
(0.00037668 -1.23836e-06 -7.47065e-06)
(0.000247041 -1.26262e-06 -4.93511e-06)
(0.000192836 -3.14955e-06 -3.87828e-06)
(0.000152692 -1.61637e-06 -6.9271e-06)
(0.000141905 -4.68944e-07 -6.50565e-06)
(0.000125189 -1.01051e-05 -1.01567e-05)
)
;

boundaryField
{
    inlet
    {
        type            calculated;
        value           nonuniform List<vector> 
12
(
(0.00401017 -0.000263607 -0.00020331)
(0.00378261 -0.000405459 -0.000172527)
(0.00371003 -0.000268362 -0.000168013)
(0.00370625 -7.36852e-05 -0.00018741)
(0.00406272 -0.00023865 0.000133059)
(0.0039042 -0.000347545 0.000173496)
(0.00382093 -0.000294398 0.000218599)
(0.00377927 -6.4873e-05 0.000184486)
(0.00422173 -0.000223574 4.8357e-05)
(0.00410291 -0.000332671 6.63311e-05)
(0.00401717 -0.000265722 7.16634e-05)
(0.00397836 -2.50678e-05 0.000102131)
)
;
    }
    outlet
    {
        type            calculated;
        value           nonuniform 0();
    }
    wall
    {
        type            calculated;
        value           nonuniform List<vector> 
63
(
(0.00422173 -0.000223574 4.8357e-05)
(0.00410291 -0.000332671 6.63311e-05)
(0.00401717 -0.000265722 7.16634e-05)
(0.00397836 -2.50678e-05 0.000102131)
(0.000511627 4.11775e-06 4.60452e-06)
(0.000243477 3.97753e-06 1.71534e-05)
(0.000136403 -7.88004e-06 1.97642e-05)
(6.33857e-05 -1.69899e-05 2.36259e-05)
(0.00038773 3.53018e-05 -3.55332e-05)
(0.000171646 5.58775e-05 -1.03713e-05)
(5.87322e-05 1.43436e-06 -1.55527e-05)
(-1.95823e-05 -1.59724e-05 -1.01209e-05)
(0.0004135 4.07531e-05 -6.75793e-05)
(0.000271727 8.20186e-05 -3.08991e-05)
(0.000161318 6.01493e-05 -3.31144e-05)
(0.000121808 -9.68902e-06 -2.02551e-05)
(0.000279042 2.73095e-05 -4.40764e-05)
(0.000152716 3.72429e-05 -1.64378e-05)
(6.0714e-05 4.32955e-05 -3.66341e-05)
(-6.04994e-07 -9.02215e-06 -1.08964e-05)
(0.000310896 1.38478e-05 -3.20942e-06)
(0.000225212 3.49706e-05 -2.24338e-06)
(0.000192343 5.20142e-05 -4.27994e-05)
(0.000137923 -3.33432e-05 -2.40613e-05)
(0.000283388 -9.22926e-06 2.81373e-05)
(0.000113722 -9.97033e-06 -7.96805e-06)
(0.000122087 -4.48572e-06 -4.23079e-05)
(-1.47389e-05 9.06669e-07 -5.21279e-05)
(0.0003848 -5.54447e-05 2.12605e-05)
(0.000262636 -2.82837e-05 -5.19597e-05)
(0.000188947 -6.28913e-05 -7.84835e-06)
(0.000118773 5.15895e-05 -5.34497e-05)
(0.00033083 -3.00552e-05 -4.58169e-05)
(0.000152183 -7.5108e-05 -6.86318e-05)
(0.000174562 -6.84931e-05 -0.000132118)
(9.60005e-05 -5.22394e-05 -9.62125e-05)
(0.00401017 -0.000263607 -0.00020331)
(0.00406272 -0.00023865 0.000133059)
(0.00422173 -0.000223574 4.8357e-05)
(0.000194792 -1.83026e-05 -2.30163e-05)
(0.000299665 -4.26424e-06 3.40453e-05)
(0.000511627 4.11775e-06 4.60452e-06)
(9.13061e-05 1.36757e-05 -1.3462e-05)
(0.00017886 1.36685e-05 -3.75595e-05)
(0.00038773 3.53018e-05 -3.55332e-05)
(0.000152453 4.64998e-05 3.74692e-05)
(0.000237092 8.81243e-06 -1.70051e-05)
(0.0004135 4.07531e-05 -6.75793e-05)
(4.49124e-05 3.90284e-05 1.61364e-05)
(0.00014629 2.91133e-06 -6.8995e-07)
(0.000279042 2.73095e-05 -4.40764e-05)
(0.000163046 3.04129e-05 1.82137e-06)
(0.000250395 1.21219e-05 5.44087e-05)
(0.000310896 1.38478e-05 -3.20942e-06)
(5.69059e-05 -1.39186e-06 -3.47448e-06)
(0.000139963 2.38631e-05 3.02441e-05)
(0.000283388 -9.22926e-06 2.81373e-05)
(0.000223822 -7.4393e-05 7.81297e-05)
(0.000272748 2.63558e-05 8.3884e-05)
(0.0003848 -5.54447e-05 2.12605e-05)
(0.000190098 -3.25887e-05 8.20796e-05)
(0.000109648 1.39012e-05 6.17313e-06)
(0.00033083 -3.00552e-05 -4.58169e-05)
)
;
    }
    procBoundary4to0
    {
        type            processor;
        value           nonuniform List<vector> 
36
(
(0.00172887 -9.30854e-05 -0.000121891)
(0.00106109 -4.5936e-05 -6.19464e-05)
(0.000666405 -1.44543e-05 -2.15443e-05)
(0.000454619 3.58168e-06 5.29458e-06)
(0.000330566 8.53975e-06 1.69026e-05)
(0.000286902 1.03581e-05 2.52212e-05)
(0.000267025 9.30951e-06 2.64327e-05)
(0.000298369 9.91672e-06 3.05261e-05)
(0.000302016 2.03523e-05 1.155e-05)
(0.00167932 -9.5531e-05 -0.00012462)
(0.00100141 -4.37608e-05 -6.0967e-05)
(0.000610244 -1.27462e-05 -2.00362e-05)
(0.000401064 5.16711e-06 6.85569e-06)
(0.000285522 8.67811e-06 1.65468e-05)
(0.00024541 1.09273e-05 2.38392e-05)
(0.000235601 6.36682e-06 2.76805e-05)
(0.000275187 2.86949e-06 3.32882e-05)
(0.000304911 2.00156e-05 5.96436e-06)
(0.00163583 -6.74331e-05 -0.00012314)
(0.000951065 -2.97669e-05 -5.78054e-05)
(0.000563378 -7.82837e-06 -1.76458e-05)
(0.000357262 5.91722e-06 7.77157e-06)
(0.000249639 7.19265e-06 1.71563e-05)
(0.000213023 1.07524e-05 2.55885e-05)
(0.000215913 8.3045e-06 3.74301e-05)
(0.00026927 8.21726e-06 6.74068e-05)
(0.000339701 1.53362e-05 7.41553e-06)
(0.00161996 -1.34078e-05 -0.000123896)
(0.000929385 -2.40109e-06 -5.86425e-05)
(0.00054523 8.14883e-07 -1.86367e-05)
(0.000339789 3.508e-06 5.98008e-06)
(0.000236304 2.94156e-06 1.48262e-05)
(0.000198508 3.03777e-06 2.05949e-05)
(0.00020078 1.24196e-05 3.02361e-05)
(0.000237502 2.77728e-05 4.43195e-05)
(0.000303464 2.04376e-05 4.31685e-05)
)
;
    }
    procBoundary4to5
    {
        type            processor;
        value           nonuniform List<vector> 
12
(
(0.000224685 -2.74713e-05 1.05046e-05)
(0.000206827 1.10643e-05 -4.97371e-07)
(0.000171692 4.62945e-06 -9.69784e-06)
(0.000215794 -1.09253e-05 6.05177e-06)
(0.000221408 -7.54581e-06 3.29271e-06)
(0.000187177 -8.7539e-06 1.82386e-05)
(0.00012786 -2.38316e-05 -1.96444e-05)
(0.000104015 -7.41907e-06 -1.70055e-06)
(0.000250505 -1.29977e-05 -7.16234e-06)
(0.000201293 -1.45995e-05 -6.82448e-06)
(0.000141607 -2.04134e-05 -1.01639e-05)
(0.000106251 -1.37708e-05 8.42196e-06)
)
;
    }
    procBoundary4to6
    {
        type            processor;
        value           nonuniform List<vector> 
27
(
(0.00163095 4.39706e-05 -6.19448e-05)
(0.000931064 2.05672e-05 -3.25504e-05)
(0.000545308 6.56953e-06 -1.48659e-05)
(0.000338113 -2.0462e-06 -1.39271e-06)
(0.000231155 -1.96845e-06 5.39634e-06)
(0.000190835 -2.67445e-06 1.06123e-05)
(0.000218225 4.93045e-06 1.11445e-05)
(0.000161486 9.14272e-06 9.39651e-06)
(0.000118066 7.04326e-07 1.76701e-06)
(0.00166465 4.6739e-05 6.20985e-06)
(0.000966218 2.06703e-05 -7.84976e-06)
(0.000568081 5.6989e-06 -8.76507e-06)
(0.000357878 -3.20969e-06 -6.69704e-06)
(0.000233516 -5.14541e-06 6.57239e-07)
(0.000185675 -6.53512e-06 1.85475e-05)
(0.000151418 -3.16436e-06 -6.87116e-07)
(0.00010504 3.71799e-07 -2.61226e-05)
(0.000102011 8.63861e-07 -6.23515e-06)
(0.00170972 4.56302e-05 1.39675e-05)
(0.00101147 1.7721e-05 -3.54153e-06)
(0.000605347 4.2362e-06 -9.23941e-06)
(0.000385349 -4.81525e-06 -1.04859e-05)
(0.000249218 -7.19663e-06 -6.90703e-06)
(0.000188124 -9.13121e-06 -4.98547e-06)
(0.000151699 -7.0261e-06 -1.41687e-05)
(0.000118171 -2.23886e-06 -1.25426e-05)
(9.55184e-05 -3.04363e-06 -1.37578e-05)
)
;
    }
}


// ************************************************************************* //
