/*--------------------------------*- C++ -*----------------------------------*\
| =========                 |                                                 |
| \\      /  F ield         | OpenFOAM: The Open Source CFD Toolbox           |
|  \\    /   O peration     | Version:  4.x                                   |
|   \\  /    A nd           | Web:      www.OpenFOAM.org                      |
|    \\/     M anipulation  |                                                 |
\*---------------------------------------------------------------------------*/
FoamFile
{
    version     2.0;
    format      ascii;
    class       volScalarField;
    location    "26";
    object      QPartFluidCoeff;
}
// * * * * * * * * * * * * * * * * * * * * * * * * * * * * * * * * * * * * * //

dimensions      [1 -1 -3 -1 0 0 0];

internalField   nonuniform List<scalar> 
108
(
-1.64244e+07
-2.366e+07
-2.80805e+07
-1.98507e+07
-2.38205e+07
-1.97823e+07
-2.97093e+07
-2.26893e+07
-3.2086e+07
-2.34058e+07
-2.4276e+07
-3.13083e+07
-3.33886e+07
-3.3756e+07
-2.83928e+07
-2.70591e+07
-1.86738e+07
-3.73242e+07
-2.23027e+07
-3.42942e+07
-2.77615e+07
-3.12855e+07
-2.71846e+07
-2.10534e+07
-2.46122e+07
-3.50851e+07
-2.28722e+07
-1.15331e+07
-2.24637e+07
-3.14021e+07
-1.912e+07
-2.96288e+07
-2.27573e+07
-3.75309e+07
-2.086e+07
-2.43602e+07
-1.68817e+07
-1.83152e+07
-2.68737e+07
-2.78276e+07
-2.84804e+07
-1.8308e+07
-1.86617e+07
-2.52454e+07
-3.20237e+07
-2.08325e+07
-2.53444e+07
-2.52084e+07
-2.5311e+07
-2.58295e+07
-2.26547e+07
-2.83318e+07
-3.07821e+07
-3.50464e+07
-1.39888e+07
-2.44689e+07
-3.34943e+07
-2.77917e+07
-3.23377e+07
-2.77262e+07
-2.74075e+07
-2.43217e+07
-2.89881e+07
-2.06962e+07
-2.86226e+07
-2.51874e+07
-3.21906e+07
-3.52175e+07
-2.54852e+07
-3.97515e+07
-2.83658e+07
-2.73172e+07
-1.51878e+07
-2.09757e+07
-1.48237e+07
-2.01597e+07
-2.11725e+07
-2.66677e+07
-2.67378e+07
-2.16536e+07
-2.73375e+07
-1.62655e+07
-3.00042e+07
-2.3782e+07
-1.94474e+07
-2.49305e+07
-2.56729e+07
-2.4618e+07
-2.06473e+07
-2.85941e+07
-1.74591e+07
-2.48703e+07
-2.82443e+07
-2.39029e+07
-2.24078e+07
-2.31162e+07
-2.45576e+07
-2.62668e+07
-2.34896e+07
-2.42046e+07
-2.33289e+07
-2.23535e+07
-2.64513e+07
-2.81314e+07
-3.15544e+07
-1.65225e+07
-1.69565e+07
-2.35014e+07
)
;

boundaryField
{
    inlet
    {
        type            calculated;
        value           uniform 0;
    }
    outlet
    {
        type            calculated;
        value           nonuniform 0();
    }
    wall
    {
        type            calculated;
        value           uniform 0;
    }
    procBoundary4to0
    {
        type            processor;
        value           nonuniform List<scalar> 
36
(
328.98
378.002
512.03
394.226
537.602
592.316
449.485
330.874
460.268
388.162
726.509
688.396
612.824
546.349
509.801
795.924
556.361
527.371
392.113
425.004
685.753
469.63
661.212
657.567
632.516
391.797
716.424
364.909
508.764
743.891
774.654
417.477
747.808
652.672
431.116
198.857
)
;
    }
    procBoundary4to5
    {
        type            processor;
        value           nonuniform List<scalar> 
12
(
500.945
617.991
664.9
805.53
554.268
469.229
578.388
399.393
186.969
522.777
457.114
529.89
)
;
    }
    procBoundary4to6
    {
        type            processor;
        value           nonuniform List<scalar> 
27
(
753.473
679.011
462.731
614.22
848.987
484.947
670.252
512.603
766.209
555.964
682.507
732.761
658.969
507.703
606.107
605.519
473.705
728.084
371.689
408.701
562.817
531.314
542.845
490.059
778.413
657.535
342.74
)
;
    }
}


// ************************************************************************* //
