/*--------------------------------*- C++ -*----------------------------------*\
| =========                 |                                                 |
| \\      /  F ield         | OpenFOAM: The Open Source CFD Toolbox           |
|  \\    /   O peration     | Version:  4.x                                   |
|   \\  /    A nd           | Web:      www.OpenFOAM.org                      |
|    \\/     M anipulation  |                                                 |
\*---------------------------------------------------------------------------*/
FoamFile
{
    version     2.0;
    format      ascii;
    class       volScalarField;
    location    "26";
    object      QPartFluid;
}
// * * * * * * * * * * * * * * * * * * * * * * * * * * * * * * * * * * * * * //

dimensions      [1 -1 -3 0 0 0 0];

internalField   nonuniform List<scalar> 
108
(
4.92731e+09
7.098e+09
8.42416e+09
5.95521e+09
7.14615e+09
5.9347e+09
8.91278e+09
6.80679e+09
9.62581e+09
7.02174e+09
7.2828e+09
9.3925e+09
1.00166e+10
1.01268e+10
8.51784e+09
8.11772e+09
5.60212e+09
1.11973e+10
6.69082e+09
1.02883e+10
8.32845e+09
9.38564e+09
8.15537e+09
6.31603e+09
7.38365e+09
1.05255e+10
6.86167e+09
3.45994e+09
6.73912e+09
9.42062e+09
5.736e+09
8.88864e+09
6.82719e+09
1.12593e+10
6.25799e+09
7.30805e+09
5.06452e+09
5.49455e+09
8.0621e+09
8.34829e+09
8.54412e+09
5.49241e+09
5.5985e+09
7.57362e+09
9.60712e+09
6.24974e+09
7.60333e+09
7.56253e+09
7.59328e+09
7.74885e+09
6.7964e+09
8.49955e+09
9.23464e+09
1.05139e+10
4.19664e+09
7.34068e+09
1.00483e+10
8.33751e+09
9.70132e+09
8.31787e+09
8.22225e+09
7.29652e+09
8.69644e+09
6.20885e+09
8.58679e+09
7.55622e+09
9.65718e+09
1.05653e+10
7.64557e+09
1.19255e+10
8.50973e+09
8.19515e+09
4.55634e+09
6.29272e+09
4.44712e+09
6.0479e+09
6.35176e+09
8.00032e+09
8.02134e+09
6.49607e+09
8.20125e+09
4.87966e+09
9.00125e+09
7.1346e+09
5.83423e+09
7.47914e+09
7.70186e+09
7.38541e+09
6.1942e+09
8.57823e+09
5.23773e+09
7.46108e+09
8.4733e+09
7.17087e+09
6.72233e+09
6.93485e+09
7.36728e+09
7.88003e+09
7.04689e+09
7.26138e+09
6.99866e+09
6.70605e+09
7.9354e+09
8.43943e+09
9.46632e+09
4.95675e+09
5.08695e+09
7.05041e+09
)
;

boundaryField
{
    inlet
    {
        type            calculated;
        value           uniform 0;
    }
    outlet
    {
        type            calculated;
        value           nonuniform 0();
    }
    wall
    {
        type            calculated;
        value           uniform 0;
    }
    procBoundary4to0
    {
        type            processor;
        value           nonuniform List<scalar> 
36
(
4.3524e+09
5.00097e+09
6.77416e+09
5.2156e+09
7.11247e+09
7.83634e+09
5.94669e+09
4.37746e+09
6.08935e+09
5.13538e+09
9.61172e+09
9.10748e+09
8.10766e+09
7.2282e+09
6.74467e+09
1.05301e+10
7.36066e+09
6.97711e+09
5.18765e+09
5.62281e+09
9.07252e+09
6.2132e+09
8.74783e+09
8.69961e+09
8.36819e+09
5.18347e+09
9.47828e+09
4.82775e+09
6.73094e+09
9.84167e+09
1.02487e+10
5.52322e+09
9.89349e+09
8.63485e+09
5.70366e+09
2.63088e+09
)
;
    }
    procBoundary4to5
    {
        type            processor;
        value           nonuniform List<scalar> 
12
(
6.62751e+09
8.17602e+09
8.79663e+09
1.06572e+10
7.33296e+09
6.20789e+09
7.65208e+09
5.28397e+09
2.4736e+09
6.91635e+09
6.04761e+09
7.01045e+09
)
;
    }
    procBoundary4to6
    {
        type            processor;
        value           nonuniform List<scalar> 
27
(
9.96844e+09
8.98332e+09
6.12193e+09
8.12613e+09
1.12321e+10
6.41584e+09
8.86743e+09
6.78174e+09
1.01369e+10
7.3554e+09
9.02956e+09
9.69443e+09
8.71816e+09
6.71691e+09
8.0188e+09
8.01101e+09
6.26711e+09
9.63256e+09
4.91744e+09
5.40711e+09
7.44607e+09
7.02928e+09
7.18184e+09
6.48348e+09
1.02984e+10
8.69918e+09
4.53445e+09
)
;
    }
}


// ************************************************************************* //
