/*--------------------------------*- C++ -*----------------------------------*\
| =========                 |                                                 |
| \\      /  F ield         | OpenFOAM: The Open Source CFD Toolbox           |
|  \\    /   O peration     | Version:  4.x                                   |
|   \\  /    A nd           | Web:      www.OpenFOAM.org                      |
|    \\/     M anipulation  |                                                 |
\*---------------------------------------------------------------------------*/
FoamFile
{
    version     2.0;
    format      ascii;
    class       volScalarField;
    location    "26";
    object      Qsource;
}
// * * * * * * * * * * * * * * * * * * * * * * * * * * * * * * * * * * * * * //

dimensions      [1 -1 -3 0 0 0 0];

internalField   nonuniform List<scalar> 
108
(
5.75627e+09
7.50931e+09
9.25935e+09
6.38009e+09
7.99021e+09
6.36322e+09
9.76368e+09
7.22928e+09
1.04829e+10
7.02174e+09
7.2828e+09
9.3925e+09
1.00166e+10
1.01268e+10
8.51784e+09
8.11772e+09
5.60212e+09
1.11973e+10
6.69082e+09
1.02883e+10
8.32845e+09
9.38564e+09
8.15537e+09
6.31603e+09
7.38365e+09
1.05255e+10
6.86167e+09
3.45994e+09
6.73912e+09
9.42062e+09
5.736e+09
8.88864e+09
6.82719e+09
1.12593e+10
6.25799e+09
7.30805e+09
5.89094e+09
5.91959e+09
8.9031e+09
8.79773e+09
9.39752e+09
5.96353e+09
6.46793e+09
8.04581e+09
1.0484e+10
6.24974e+09
7.60333e+09
7.56253e+09
7.59328e+09
7.74885e+09
6.7964e+09
8.49955e+09
9.23464e+09
1.05139e+10
4.19664e+09
7.34068e+09
1.00483e+10
8.33751e+09
9.70132e+09
8.31787e+09
8.22225e+09
7.29652e+09
8.69644e+09
6.20885e+09
8.58679e+09
7.55622e+09
9.65718e+09
1.05653e+10
7.64557e+09
1.19255e+10
8.50973e+09
8.19515e+09
6.21821e+09
7.19963e+09
6.17829e+09
7.07984e+09
8.12585e+09
9.09495e+09
9.82517e+09
7.63385e+09
1.00552e+10
5.70609e+09
9.41979e+09
7.97362e+09
6.28472e+09
8.33256e+09
8.16922e+09
8.25013e+09
6.67012e+09
9.45738e+09
6.05536e+09
7.86084e+09
9.29262e+09
7.57662e+09
7.54978e+09
7.34742e+09
8.20457e+09
8.29866e+09
7.8938e+09
8.07223e+09
7.38553e+09
7.51902e+09
8.30937e+09
9.25533e+09
9.83352e+09
5.78349e+09
5.44863e+09
7.88485e+09
)
;

boundaryField
{
    inlet
    {
        type            calculated;
        value           uniform 0;
    }
    outlet
    {
        type            calculated;
        value           nonuniform 0();
    }
    wall
    {
        type            calculated;
        value           uniform 0;
    }
    procBoundary4to0
    {
        type            processor;
        value           nonuniform List<scalar> 
36
(
5.18486e+09
5.42194e+09
7.62422e+09
5.67055e+09
7.98028e+09
8.31046e+09
6.83133e+09
4.86128e+09
6.98714e+09
5.13538e+09
9.61172e+09
9.10748e+09
8.10766e+09
7.2282e+09
6.74467e+09
1.05301e+10
7.36066e+09
6.97711e+09
5.18765e+09
5.62281e+09
9.07252e+09
6.2132e+09
8.74783e+09
8.69961e+09
8.36819e+09
5.18347e+09
9.47828e+09
4.82775e+09
6.73094e+09
9.84167e+09
1.02487e+10
5.52322e+09
9.89349e+09
8.63485e+09
5.70366e+09
2.63088e+09
)
;
    }
    procBoundary4to5
    {
        type            processor;
        value           nonuniform List<scalar> 
12
(
7.04456e+09
8.17602e+09
8.79663e+09
1.06572e+10
7.79682e+09
6.20789e+09
7.65208e+09
5.28397e+09
3.65795e+09
7.39221e+09
6.46912e+09
7.36616e+09
)
;
    }
    procBoundary4to6
    {
        type            processor;
        value           nonuniform List<scalar> 
27
(
9.96844e+09
8.98332e+09
6.12193e+09
8.12613e+09
1.12321e+10
6.41584e+09
8.86743e+09
6.78174e+09
1.01369e+10
7.3554e+09
9.02956e+09
9.69443e+09
8.71816e+09
6.71691e+09
8.0188e+09
8.01101e+09
6.26711e+09
9.63256e+09
5.7363e+09
5.81513e+09
8.26744e+09
7.43433e+09
8.00294e+09
6.87305e+09
1.11154e+10
9.08521e+09
5.36249e+09
)
;
    }
}


// ************************************************************************* //
