/*--------------------------------*- C++ -*----------------------------------*\
| =========                 |                                                 |
| \\      /  F ield         | OpenFOAM: The Open Source CFD Toolbox           |
|  \\    /   O peration     | Version:  4.x                                   |
|   \\  /    A nd           | Web:      www.OpenFOAM.org                      |
|    \\/     M anipulation  |                                                 |
\*---------------------------------------------------------------------------*/
FoamFile
{
    version     2.0;
    format      ascii;
    class       volVectorField;
    location    "26";
    object      Us;
}
// * * * * * * * * * * * * * * * * * * * * * * * * * * * * * * * * * * * * * //

dimensions      [0 1 -1 0 0 0 0];

internalField   nonuniform List<vector> 
108
(
(2.90959e-09 1.99265e-10 -5.58091e-09)
(7.9504e-09 1.27474e-09 -9.07451e-09)
(1.50311e-08 -3.26829e-09 -1.63278e-08)
(3.74362e-08 -5.49112e-09 -2.29476e-08)
(6.25664e-08 -2.77705e-08 -4.4581e-08)
(8.39187e-08 -1.08695e-08 -7.29083e-08)
(7.49653e-08 -2.09342e-08 -7.53593e-08)
(5.01937e-08 -1.52133e-08 -7.78791e-08)
(-2.51234e-08 1.11913e-08 -1.85033e-08)
(6.35048e-09 5.36966e-10 -9.52821e-09)
(1.63577e-08 1.60695e-09 -1.80414e-08)
(3.36069e-08 -1.43313e-08 -2.9761e-08)
(4.83684e-08 -1.89553e-08 -4.31021e-08)
(6.95216e-08 -3.17097e-08 -6.72199e-08)
(8.29614e-08 -3.13767e-08 -8.4564e-08)
(8.40525e-08 -3.46905e-08 -9.53007e-08)
(6.86726e-08 -4.16114e-08 -9.68104e-08)
(-5.99073e-09 9.151e-09 -6.38802e-08)
(5.35123e-09 -3.87429e-09 -1.13662e-08)
(2.53045e-08 -7.54688e-09 -2.93095e-08)
(4.31521e-08 -2.04241e-08 -4.14261e-08)
(5.76559e-08 -2.44423e-08 -6.3441e-08)
(7.26622e-08 -3.518e-08 -7.68914e-08)
(8.48767e-08 -4.60817e-08 -9.01524e-08)
(8.3658e-08 -5.25232e-08 -1.12897e-07)
(7.31082e-08 -7.81674e-08 -1.20508e-07)
(-2.71489e-08 -3.29072e-08 -8.21758e-08)
(5.98439e-09 -5.32266e-09 -1.35307e-08)
(1.63007e-08 -1.15025e-08 -2.55212e-08)
(3.23345e-08 -2.30986e-08 -3.91088e-08)
(4.10211e-08 -2.82381e-08 -4.70384e-08)
(6.92104e-08 -4.28182e-08 -6.93436e-08)
(6.9386e-08 -6.00342e-08 -9.60584e-08)
(3.97377e-08 -4.92255e-08 -9.901e-08)
(-1.4963e-09 -7.744e-08 -1.07045e-07)
(-8.04061e-09 -6.88264e-08 -1.08848e-07)
(3.95824e-09 2.38751e-09 -5.30538e-09)
(5.98634e-09 3.61605e-09 -8.61539e-09)
(1.03787e-08 5.0722e-10 -1.19146e-08)
(1.47238e-08 -1.24534e-09 -1.47957e-08)
(2.19152e-08 -9.39297e-09 -2.34324e-08)
(2.27513e-08 -6.23096e-09 -3.41287e-08)
(3.33343e-08 -6.7785e-09 -3.32565e-08)
(2.70375e-08 -1.35763e-08 -3.97599e-08)
(6.79052e-10 -3.21053e-09 -1.58817e-08)
(4.70136e-09 5.94975e-10 -8.31574e-09)
(1.25514e-08 1.33053e-09 -1.50973e-08)
(1.78997e-08 -1.5793e-09 -1.85335e-08)
(3.22854e-08 -9.24623e-09 -3.53332e-08)
(3.51424e-08 -1.1695e-08 -4.30618e-08)
(4.08667e-08 -2.66688e-08 -5.14474e-08)
(4.16282e-08 -4.21943e-08 -6.01814e-08)
(1.54455e-08 -4.74401e-08 -6.59755e-08)
(-8.06092e-10 -4.23769e-09 -4.26243e-08)
(1.6588e-09 -1.33561e-09 -6.55665e-09)
(1.08493e-08 -2.11954e-09 -2.13169e-08)
(1.72687e-08 -1.07956e-08 -2.3073e-08)
(2.57156e-08 -1.81962e-08 -3.25479e-08)
(3.58968e-08 -2.51179e-08 -4.68309e-08)
(5.44948e-08 -3.14708e-08 -5.98183e-08)
(5.63661e-08 -4.13273e-08 -6.96855e-08)
(-1.61287e-08 -4.60576e-08 -6.48169e-08)
(-3.86409e-08 -1.81736e-08 -5.74143e-08)
(2.05137e-09 -3.54397e-09 -8.44094e-09)
(6.59475e-09 -8.20016e-09 -1.6541e-08)
(1.73475e-08 -2.00133e-08 -2.91254e-08)
(2.20619e-08 -2.14521e-08 -3.1842e-08)
(2.6534e-08 -2.24228e-08 -4.56767e-08)
(1.62939e-08 -3.73928e-08 -5.62708e-08)
(-4.3682e-09 -5.27941e-08 -6.51678e-08)
(-2.53979e-08 -5.22592e-08 -6.71854e-08)
(-4.92798e-08 -3.70983e-08 -6.91771e-08)
(4.8814e-10 5.60669e-10 -8.56382e-10)
(3.19441e-09 1.94113e-09 -4.65314e-09)
(3.39246e-09 1.17016e-09 -5.35231e-09)
(3.07825e-09 1.70103e-09 -7.1566e-09)
(8.92583e-09 1.29209e-09 -8.15949e-09)
(1.25946e-08 9.5894e-10 -1.12061e-08)
(3.07785e-08 9.36075e-10 -1.89931e-08)
(1.40931e-08 -4.98692e-09 -1.5435e-08)
(3.73179e-09 -3.58862e-10 -4.37061e-09)
(-2.3388e-10 8.71194e-10 -1.5344e-09)
(4.38119e-09 1.22558e-09 -7.07269e-09)
(1.04404e-08 -2.73364e-09 -1.04106e-08)
(1.25915e-08 -1.10404e-09 -9.65282e-09)
(1.66233e-08 -3.68286e-09 -1.62447e-08)
(2.10793e-08 -2.61337e-08 -1.46389e-08)
(1.94553e-08 -1.99188e-08 -1.15713e-08)
(6.9218e-09 -8.12865e-09 -2.27882e-08)
(3.56067e-09 3.43274e-09 -1.94202e-08)
(-3.59464e-10 -7.35638e-10 -2.1806e-09)
(5.4291e-09 1.20945e-10 -8.58558e-09)
(7.02078e-09 -5.28362e-09 -1.03844e-08)
(9.57705e-09 -6.0055e-09 -1.25394e-08)
(2.14856e-08 -8.13305e-09 -2.34786e-08)
(2.84759e-08 -2.81738e-08 -2.76793e-08)
(-1.359e-09 -3.00317e-08 -2.65337e-08)
(-1.15663e-08 -2.68209e-08 -2.74387e-08)
(-1.54136e-08 -3.66612e-10 -2.00175e-08)
(1.46885e-09 -7.65994e-10 -4.26295e-09)
(1.56211e-09 -3.71298e-09 -6.0656e-09)
(4.87788e-09 -7.4767e-09 -1.31686e-08)
(9.75134e-09 -1.51098e-08 -1.5672e-08)
(1.39233e-08 -2.32282e-08 -2.14584e-08)
(1.39863e-08 -2.64144e-08 -1.75701e-08)
(-7.43059e-09 -3.26424e-08 -2.53648e-08)
(7.42558e-08 -8.05661e-08 -1.83022e-08)
(-2.9424e-08 -2.87068e-08 -2.3339e-08)
)
;

boundaryField
{
    inlet
    {
        type            zeroGradient;
    }
    outlet
    {
        type            zeroGradient;
    }
    wall
    {
        type            zeroGradient;
    }
    procBoundary4to0
    {
        type            processor;
        value           nonuniform List<vector> 
36
(
(2.16491e-09 3.24025e-09 -5.09574e-09)
(8.98372e-09 1.21571e-10 -1.73474e-08)
(2.17197e-08 4.60326e-09 -2.07005e-08)
(4.6948e-08 -5.25529e-09 -3.3469e-08)
(7.43806e-08 7.98358e-11 -5.52385e-08)
(1.1694e-07 -7.29957e-09 -1.00396e-07)
(1.27676e-07 -3.05725e-08 -1.0444e-07)
(9.04697e-08 -1.58837e-08 -1.27246e-07)
(2.27365e-08 4.15663e-09 -7.63716e-08)
(4.74832e-09 1.885e-09 -9.26677e-09)
(2.15616e-08 -4.27639e-09 -2.40413e-08)
(4.16047e-08 -1.25294e-08 -3.78067e-08)
(9.58208e-08 -1.30155e-08 -6.38122e-08)
(1.36632e-07 -3.12722e-08 -8.67333e-08)
(1.47557e-07 -4.42431e-08 -1.17172e-07)
(1.5577e-07 -5.03665e-08 -1.11217e-07)
(1.12662e-07 -5.61823e-08 -1.42379e-07)
(9.47131e-08 2.62654e-09 -1.08456e-07)
(1.39986e-08 -8.42659e-09 -1.97182e-08)
(3.03336e-08 -1.10754e-08 -3.27378e-08)
(5.57317e-08 -2.28713e-08 -4.28904e-08)
(7.17314e-08 -3.42821e-08 -7.26664e-08)
(1.23765e-07 -4.43745e-08 -9.4997e-08)
(1.31357e-07 -6.63821e-08 -1.28026e-07)
(1.62171e-07 -7.24145e-08 -1.34531e-07)
(1.54507e-07 -9.71357e-08 -1.53659e-07)
(9.84275e-08 -2.05951e-08 -1.2815e-07)
(7.48178e-09 -8.38997e-09 -1.59943e-08)
(2.75084e-08 -1.87216e-08 -2.99143e-08)
(5.09086e-08 -2.43668e-08 -4.79297e-08)
(6.05411e-08 -4.05443e-08 -6.16663e-08)
(1.01637e-07 -4.49192e-08 -8.86918e-08)
(1.1764e-07 -6.93977e-08 -1.08252e-07)
(1.2914e-07 -8.80296e-08 -1.15562e-07)
(1.14786e-07 -9.93165e-08 -1.17361e-07)
(1.02565e-07 -9.13307e-08 -9.34036e-08)
)
;
    }
    procBoundary4to5
    {
        type            processor;
        value           nonuniform List<vector> 
12
(
(-5.78888e-09 -4.71487e-09 -1.3342e-08)
(4.67743e-09 -6.13809e-09 -3.54847e-08)
(-3.34016e-08 -2.45464e-08 -5.13577e-08)
(-2.89268e-08 -3.22205e-08 -7.8079e-08)
(-8.65219e-09 -3.08149e-09 -1.10459e-08)
(-1.89678e-08 -1.54419e-09 -2.12071e-08)
(-6.96593e-08 -1.53862e-08 -2.77149e-08)
(-6.97432e-08 -3.49783e-08 -3.07026e-08)
(-1.58067e-09 1.50698e-10 -1.96921e-09)
(-1.14902e-08 -4.09075e-09 -3.73604e-09)
(-2.83474e-08 -1.47173e-08 -1.23125e-09)
(-5.18864e-08 -2.57606e-08 -9.90224e-09)
)
;
    }
    procBoundary4to6
    {
        type            processor;
        value           nonuniform List<vector> 
27
(
(9.20454e-09 -7.28588e-09 -1.32056e-08)
(1.81359e-08 -1.67129e-08 -2.52246e-08)
(2.38392e-08 -2.40143e-08 -3.70325e-08)
(2.86428e-08 -3.21197e-08 -5.01253e-08)
(5.17861e-08 -4.38398e-08 -6.67131e-08)
(3.17083e-08 -5.00571e-08 -7.01606e-08)
(1.66226e-08 -6.48763e-08 -6.91166e-08)
(-1.04906e-08 -6.95801e-08 -6.76712e-08)
(-3.23321e-08 -6.45275e-08 -6.78266e-08)
(2.51061e-09 -6.00504e-09 -7.08304e-09)
(8.10626e-09 -1.51967e-08 -1.50341e-08)
(9.94648e-09 -1.98048e-08 -2.40008e-08)
(1.17619e-08 -2.03597e-08 -2.87183e-08)
(6.31365e-09 -2.15279e-08 -3.55516e-08)
(4.27199e-10 -3.25418e-08 -3.7176e-08)
(-9.89063e-09 -4.53906e-08 -4.48178e-08)
(-1.97977e-08 -5.27464e-08 -4.33373e-08)
(-3.5151e-08 -5.21892e-08 -5.31685e-08)
(1.28147e-09 -4.84713e-09 -3.12773e-09)
(5.58215e-10 -7.97569e-09 -5.75534e-09)
(2.69304e-09 -1.17156e-08 -1.26015e-08)
(1.64996e-09 -1.27621e-08 -1.26754e-08)
(3.0373e-09 -1.44966e-08 -1.18459e-08)
(1.96477e-09 -1.5546e-08 -1.37459e-08)
(1.19225e-08 -4.93481e-09 -1.88141e-08)
(-2.4795e-08 -2.90341e-08 -1.75419e-08)
(-3.50416e-08 -2.28486e-08 -2.20679e-08)
)
;
    }
}


// ************************************************************************* //
