/*--------------------------------*- C++ -*----------------------------------*\
| =========                 |                                                 |
| \\      /  F ield         | OpenFOAM: The Open Source CFD Toolbox           |
|  \\    /   O peration     | Version:  4.x                                   |
|   \\  /    A nd           | Web:      www.OpenFOAM.org                      |
|    \\/     M anipulation  |                                                 |
\*---------------------------------------------------------------------------*/
FoamFile
{
    version     2.0;
    format      ascii;
    class       volScalarField;
    location    "47";
    object      Ksl;
}
// * * * * * * * * * * * * * * * * * * * * * * * * * * * * * * * * * * * * * //

dimensions      [1 -3 -1 0 0 0 0];

internalField   nonuniform List<scalar> 
108
(
4876.66
2747
4721.94
2576.26
4835.41
2374.34
5584.66
2084.38
6464.09
6444.49
3126.35
7221.31
3127.57
9730.86
3361.65
26476.6
4295.78
1e+10
4916.96
2792.77
4850.72
2643.27
5057.42
2440.45
5708.41
2037.87
5778.31
3809.05
2513.44
3794.93
2440.76
3905.76
2278.73
4269.65
1924.71
5955.66
16289.9
3440.82
19265.9
3286.27
22073
3078.61
21235.9
2798.84
8653.84
47285.1
3722.26
256525
3708.35
7.17622e+09
3862.35
135033
4356.58
19376.2
11006.3
3311.78
10760.8
3091.67
9818.24
2742.79
7910.01
2234.98
4087.3
5365.02
2895.51
5437.41
2802.05
5855.62
2587.15
6672.74
2058.46
4799.29
28503.4
3636.59
34929.8
3579.28
30922.4
3567.23
21368.3
3727.61
8178.44
1e+10
4001.11
1e+10
3990.55
1e+10
4042.76
1e+10
4527.94
27771.4
79950
3711.42
659551
3598.23
69634.5
3503.54
17390.6
3489.63
5991.04
7586.88
3215.51
8226.73
3162.6
9606.79
3045.29
11147.4
2568.47
11317
)
;

boundaryField
{
    inlet
    {
        type            zeroGradient;
    }
    outlet
    {
        type            zeroGradient;
    }
    wall
    {
        type            zeroGradient;
    }
    procBoundary3to1
    {
        type            processor;
        value           nonuniform List<scalar> 
27
(
5383.91
2963.1
5502.17
2864.17
5777.28
2641.64
6135.62
2199.18
6363.73
43643.3
3728.62
358033
3726.28
9.77426e+09
3847.56
51235.6
4115.13
7345.92
44093.6
3738.78
56987.3
3699.83
46035.3
3643.74
21278.4
3704.29
8033.57
)
;
    }
    procBoundary3to2
    {
        type            processor;
        value           nonuniform List<scalar> 
12
(
2874.74
3129.75
2913.82
2635.63
3556.07
3713.67
3420.24
2966.19
3654.22
3931.34
3753.19
3261.84
)
;
    }
    procBoundary3to7
    {
        type            processor;
        value           nonuniform List<scalar> 
36
(
90274
3728.51
104541
3708.68
511349
3744.9
6.11233e+06
4158.12
25005.4
3.13212e+06
3795.74
1e+10
3836.95
136263
3954.04
21723.4
4230.14
7047.33
12059.4
3359.4
12081.6
3183
11703.3
2998.89
10956.6
2677.77
8429.52
6498.29
3019.09
6610.33
2897.65
7070.94
2791.52
8269.44
2564.37
9346.89
)
;
    }
}


// ************************************************************************* //
