/*--------------------------------*- C++ -*----------------------------------*\
| =========                 |                                                 |
| \\      /  F ield         | OpenFOAM: The Open Source CFD Toolbox           |
|  \\    /   O peration     | Version:  4.x                                   |
|   \\  /    A nd           | Web:      www.OpenFOAM.org                      |
|    \\/     M anipulation  |                                                 |
\*---------------------------------------------------------------------------*/
FoamFile
{
    version     2.0;
    format      ascii;
    class       volScalarField;
    location    "47";
    object      KslNext;
}
// * * * * * * * * * * * * * * * * * * * * * * * * * * * * * * * * * * * * * //

dimensions      [1 -3 -1 0 0 0 0];

internalField   nonuniform List<scalar> 
108
(
4876.66
2747
4721.94
2576.26
4835.41
2374.34
5584.66
2084.38
6464.09
6444.49
3126.35
7221.31
3127.57
9730.86
3361.65
26476.6
4295.78
1e+10
4916.96
2792.77
4850.72
2643.27
5057.42
2440.45
5708.41
2037.87
5778.31
3809.05
2513.44
3794.93
2440.76
3905.76
2278.73
4269.65
1924.71
5955.66
16289.9
3440.82
19265.9
3286.27
22073
3078.61
21235.9
2798.84
8653.84
47285.1
3722.26
256525
3708.35
7.17622e+09
3862.35
135033
4356.58
19376.2
11006.3
3311.78
10760.8
3091.67
9818.24
2742.79
7910.01
2234.98
4087.3
5365.02
2895.51
5437.41
2802.05
5855.62
2587.15
6672.74
2058.46
4799.29
28503.4
3636.59
34929.8
3579.28
30922.4
3567.23
21368.3
3727.61
8178.44
1e+10
4001.11
1e+10
3990.55
1e+10
4042.76
1e+10
4527.94
27771.4
79950
3711.42
659551
3598.23
69634.5
3503.54
17390.6
3489.63
5991.04
7586.88
3215.51
8226.73
3162.6
9606.79
3045.29
11147.4
2568.47
11317
)
;

boundaryField
{
    inlet
    {
        type            zeroGradient;
    }
    outlet
    {
        type            zeroGradient;
    }
    wall
    {
        type            zeroGradient;
    }
    procBoundary3to1
    {
        type            processor;
        value           uniform 0;
    }
    procBoundary3to2
    {
        type            processor;
        value           uniform 0;
    }
    procBoundary3to7
    {
        type            processor;
        value           uniform 0;
    }
}


// ************************************************************************* //
