/*--------------------------------*- C++ -*----------------------------------*\
| =========                 |                                                 |
| \\      /  F ield         | OpenFOAM: The Open Source CFD Toolbox           |
|  \\    /   O peration     | Version:  4.x                                   |
|   \\  /    A nd           | Web:      www.OpenFOAM.org                      |
|    \\/     M anipulation  |                                                 |
\*---------------------------------------------------------------------------*/
FoamFile
{
    version     2.0;
    format      ascii;
    class       volScalarField;
    location    "47";
    object      p;
}
// * * * * * * * * * * * * * * * * * * * * * * * * * * * * * * * * * * * * * //

dimensions      [1 -1 -2 0 0 0 0];

internalField   nonuniform List<scalar> 
108
(
5651.62
5707.91
5631.48
5702.18
5610.59
5698.2
5587.6
5697.53
5561.25
5652.84
5708.44
5633.46
5702.63
5614.27
5697.58
5595.72
5692.22
5580.82
5652.04
5707.98
5632.07
5702.21
5611.07
5698.07
5587.8
5697.32
5559.85
5652.59
5708.14
5633.04
5702.42
5612.29
5698.07
5589.76
5697.03
5562.4
3773.66
3830.29
3753.82
3824.13
3733.23
3818.96
3711.87
3816.17
3691.29
3774.87
3830.63
3755.78
3824.04
3736.82
3817.91
3718.68
3812.19
3704.06
3773.93
3830.1
3753.58
3824.02
3732.04
3819.31
3708.59
3818.3
3682.08
3774.38
3830.23
3754.7
3824.32
3733.7
3819.59
3710.65
3817.97
3681.95
1896.73
1952.26
1877.4
1945.86
1857.92
1940.51
1838.87
1936.57
1822.27
1898.85
1952.42
1880.77
1946.25
1862.99
1940.6
1845.25
1934.76
1829.48
1897.49
1952.44
1878.38
1945.75
1859.24
1939.96
1839.81
1935.67
1822.68
1897.61
1952.58
1878.72
1946.43
1859.2
1940.86
1838.61
1936.73
1815.93
)
;

boundaryField
{
    inlet
    {
        type            calculated;
        value           nonuniform 0();
    }
    outlet
    {
        type            calculated;
        value           nonuniform List<scalar> 
12
(
5633.74
5633.74
5633.74
5633.74
3755.83
3755.83
3755.83
3755.83
1877.91
1877.91
1877.91
1877.91
)
;
    }
    wall
    {
        type            calculated;
        value           nonuniform List<scalar> 
63
(
6590.58
6591.8
6591
6591.55
6646.87
6647.4
6646.94
6647.09
6570.44
6572.42
6571.03
6572
6641.14
6641.59
6641.17
6641.38
6549.55
6553.23
6550.03
6551.25
6637.16
6636.53
6637.02
6637.03
6526.56
6534.68
6526.76
6528.72
6636.49
6631.17
6636.28
6635.98
6500.04
6520.34
6498.71
6516.6
5652.59
3774.38
1897.61
5708.14
3830.23
1952.58
5633.04
3754.7
1878.72
5702.42
3824.32
1946.43
5612.29
3733.7
1859.2
5698.07
3819.59
1940.86
5589.76
3710.65
1838.61
5697.03
3817.97
1936.73
5562.4
3681.95
1815.93
)
;
    }
    procBoundary3to1
    {
        type            processor;
        value           nonuniform List<scalar> 
27
(
5652.63
5708.41
5633.46
5702.37
5612.91
5697.45
5591.3
5694.87
5565.19
3775.01
3830.76
3756.13
3824.05
3737.16
3817.88
3719.58
3811.65
3703.84
1897.57
1952.36
1878.79
1945.96
1859.62
1940.36
1840.76
1935.89
1823.55
)
;
    }
    procBoundary3to2
    {
        type            processor;
        value           nonuniform List<scalar> 
12
(
5714.54
5714.99
5714.66
5714.64
3837.03
3837.55
3836.97
3836.91
1959.11
1959.27
1959.46
1959.33
)
;
    }
    procBoundary3to7
    {
        type            processor;
        value           nonuniform List<scalar> 
36
(
20.4458
74.4034
1.72344
67.9674
-16.9345
62.1149
-35.4387
57.4243
-51.3116
20.5607
74.4945
1.83192
67.7482
-16.4229
60.8474
-34.0316
54.6066
-49.3097
18.7818
74.3201
-0.900267
67.9717
-21.1424
62.6749
-42.4904
60.0063
-64.5463
19.3328
74.4026
-0.176094
68.1395
-20.2689
62.8041
-41.4387
59.7244
-63.5667
)
;
    }
}


// ************************************************************************* //
