/*--------------------------------*- C++ -*----------------------------------*\
| =========                 |                                                 |
| \\      /  F ield         | OpenFOAM: The Open Source CFD Toolbox           |
|  \\    /   O peration     | Version:  4.x                                   |
|   \\  /    A nd           | Web:      www.OpenFOAM.org                      |
|    \\/     M anipulation  |                                                 |
\*---------------------------------------------------------------------------*/
FoamFile
{
    version     2.0;
    format      ascii;
    class       volScalarField;
    location    "47";
    object      QWallFluid;
}
// * * * * * * * * * * * * * * * * * * * * * * * * * * * * * * * * * * * * * //

dimensions      [1 -1 -3 0 0 0 0];

internalField   nonuniform List<scalar> 
108
(
6.59929e+08
1.0459e+09
6.75283e+08
1.09953e+09
6.60105e+08
1.1623e+09
5.75949e+08
1.24797e+09
4.90467e+08
5.26039e+08
9.40306e+08
4.79987e+08
9.37773e+08
3.75531e+08
8.79836e+08
1.6469e+08
6.93933e+08
12470
6.53196e+08
1.03059e+09
6.60661e+08
1.08188e+09
6.40477e+08
1.15263e+09
5.69106e+08
1.28319e+09
5.39602e+08
1.58086e+09
2.22184e+09
1.60535e+09
2.28664e+09
1.56595e+09
2.40816e+09
1.43084e+09
2.64886e+09
1.06772e+09
0
0
0
0
0
0
0
0
0
0
0
0
0
0
0
0
0
0
0
0
0
0
0
0
0
0
0
5.97365e+08
9.89425e+08
5.94616e+08
1.02227e+09
5.62009e+08
1.08911e+09
4.95895e+08
1.26078e+09
6.18826e+08
0
0
0
0
0
0
0
0
0
0
0
0
0
0
0
0
0
0
0
0
0
0
0
0
0
0
0
4.43559e+08
8.89715e+08
4.16209e+08
8.98196e+08
3.67956e+08
9.22945e+08
3.19925e+08
1.02826e+09
3.03353e+08
)
;

boundaryField
{
    inlet
    {
        type            calculated;
        value           nonuniform 0();
    }
    outlet
    {
        type            calculated;
        value           uniform 0;
    }
    wall
    {
        type            calculated;
        value           uniform 0;
    }
    procBoundary3to1
    {
        type            processor;
        value           nonuniform List<scalar> 
27
(
6.12667e+08
9.9517e+08
6.00946e+08
1.02058e+09
5.75621e+08
1.07928e+09
5.40007e+08
1.22524e+09
5.03688e+08
0
0
0
0
0
0
0
0
0
0
0
0
0
0
0
0
0
0
)
;
    }
    procBoundary3to2
    {
        type            processor;
        value           nonuniform List<scalar> 
12
(
1.00464e+09
9.36263e+08
9.95404e+08
2.14577e+09
0
0
0
9.63286e+08
0
0
0
8.77748e+08
)
;
    }
    procBoundary3to7
    {
        type            processor;
        value           nonuniform List<scalar> 
36
(
0
0
0
0
0
0
0
0
0
0
0
0
0
0
0
0
0
0
0
0
0
0
0
0
0
0
0
4.94476e+08
9.13617e+08
4.83136e+08
9.37292e+08
4.56631e+08
9.60854e+08
3.94462e+08
1.00404e+09
3.46233e+08
)
;
    }
}


// ************************************************************************* //
