/*--------------------------------*- C++ -*----------------------------------*\
| =========                 |                                                 |
| \\      /  F ield         | OpenFOAM: The Open Source CFD Toolbox           |
|  \\    /   O peration     | Version:  4.x                                   |
|   \\  /    A nd           | Web:      www.OpenFOAM.org                      |
|    \\/     M anipulation  |                                                 |
\*---------------------------------------------------------------------------*/
FoamFile
{
    version     2.0;
    format      ascii;
    class       volScalarField;
    location    "47";
    object      QWallFluidCoeff;
}
// * * * * * * * * * * * * * * * * * * * * * * * * * * * * * * * * * * * * * //

dimensions      [1 -1 -3 -1 0 0 0];

internalField   nonuniform List<scalar> 
108
(
-2.19976e+06
-3.48632e+06
-2.25094e+06
-3.66512e+06
-2.20035e+06
-3.87432e+06
-1.91983e+06
-4.15991e+06
-1.63489e+06
-1.75346e+06
-3.13435e+06
-1.59996e+06
-3.12591e+06
-1.25177e+06
-2.93279e+06
-548965
-2.31311e+06
-41.5666
-2.17732e+06
-3.43531e+06
-2.2022e+06
-3.60626e+06
-2.13492e+06
-3.84211e+06
-1.89702e+06
-4.2773e+06
-1.79867e+06
-5.26954e+06
-7.40612e+06
-5.35118e+06
-7.62213e+06
-5.21983e+06
-8.02721e+06
-4.76948e+06
-8.82953e+06
-3.55907e+06
0
0
0
0
0
0
0
0
0
0
0
0
0
0
0
0
0
0
0
0
0
0
0
0
0
0
0
-1.99122e+06
-3.29808e+06
-1.98205e+06
-3.40755e+06
-1.87336e+06
-3.63037e+06
-1.65298e+06
-4.20261e+06
-2.06275e+06
0
0
0
0
0
0
0
0
0
0
0
0
0
0
0
0
0
0
0
0
0
0
0
0
0
0
0
-1.47853e+06
-2.96572e+06
-1.38736e+06
-2.99399e+06
-1.22652e+06
-3.07648e+06
-1.06642e+06
-3.42754e+06
-1.01118e+06
)
;

boundaryField
{
    inlet
    {
        type            calculated;
        value           nonuniform 0();
    }
    outlet
    {
        type            calculated;
        value           uniform 0;
    }
    wall
    {
        type            calculated;
        value           uniform 0;
    }
    procBoundary3to1
    {
        type            processor;
        value           uniform 0;
    }
    procBoundary3to2
    {
        type            processor;
        value           uniform 0;
    }
    procBoundary3to7
    {
        type            processor;
        value           uniform 0;
    }
}


// ************************************************************************* //
