/*--------------------------------*- C++ -*----------------------------------*\
| =========                 |                                                 |
| \\      /  F ield         | OpenFOAM: The Open Source CFD Toolbox           |
|  \\    /   O peration     | Version:  4.x                                   |
|   \\  /    A nd           | Web:      www.OpenFOAM.org                      |
|    \\/     M anipulation  |                                                 |
\*---------------------------------------------------------------------------*/
FoamFile
{
    version     2.0;
    format      ascii;
    class       volScalarField;
    location    "19";
    object      magGField;
}
// * * * * * * * * * * * * * * * * * * * * * * * * * * * * * * * * * * * * * //

dimensions      [1 -2 -1 0 0 0 0];

internalField   nonuniform List<scalar> 
132
(
5.35224
83.0771
1.04414
81.4777
0.000269285
78.4251
0.000100624
73.7407
9.18158
13.3308
89.476
11.5923
90.9558
10.8681
91.0636
12.91
85.3239
23.7739
21.2987
91.3922
20.2689
93.0633
20.5017
93.2113
26.9173
89.0618
62.4577
50.5099
106.62
50.9535
113.554
51.1752
125.704
49.393
152.509
58.0396
0.00029519
81.7578
0.00021361
83.043
4.69776
86.7601
15.8754
0.000235957
77.4388
0.000281426
76.3714
0.000227536
74.7929
9.73627
72.0354
36.4492
5.54324
81.4758
0.000204624
78.8141
0.000207641
73.0382
9.52216e-05
60.3122
6.68872
36.5746
92.6961
33.0381
91.7076
29.2222
88.7393
25.4477
78.3445
24.4584
0.000181607
73.8142
7.0311e-05
62.8282
21.1641
9.78021
85.4306
5.95436
86.6673
3.90598
86.8335
4.3093
79.672
13.2101
19.8514
87.6563
19.0542
89.4137
22.3351
91.4795
31.1659
91.5687
65.665
50.0518
102.926
52.139
109.053
53.8343
122.677
53.996
159.402
59.8227
36.641
82.1524
39.2242
31.6759
91.0946
29.2973
89.7459
26.4703
85.4999
21.4676
71.8982
23.6549
46.2461
96.7455
46.864
96.4028
45.3935
93.9778
43.352
85.8702
43.0767
63.6461
107.068
61.643
107.543
60.2778
109.749
63.8983
115.824
83.0043
)
;

boundaryField
{
    inlet
    {
        type            calculated;
        value           nonuniform 0();
    }
    outlet
    {
        type            calculated;
        value           nonuniform List<scalar> 
16
(
20.3378
52.6474
138.074
126.445
35.2458
80.7368
14.8577
53.6466
46.8911
29.384
145.877
131.317
86.6518
52.1601
95.1793
180.726
)
;
    }
    wall
    {
        type            calculated;
        value           uniform 0;
    }
    procBoundary7to0
    {
        type            processor;
        value           uniform 84.3537;
    }
    procBoundary7to1
    {
        type            processor;
        value           uniform 12.8284;
    }
    procBoundary7to3
    {
        type            processor;
        value           nonuniform List<scalar> 
36
(
0.000327161
84.4939
0.000370945
84.847
0.000290646
84.88
0.000110801
80.2848
15.5033
4.12569
86.8919
0.000339898
87.9565
0.000259509
89.733
9.40138
92.8582
44.5004
6.89649
88.1067
0.000300562
89.6237
0.000221848
91.8068
6.7619
99.5862
25.8141
49.1946
104.928
47.3724
108.117
43.9887
115.825
38.6822
138.491
21.3291
)
;
    }
    procBoundary7to5
    {
        type            processor;
        value           nonuniform List<scalar> 
44
(
87.5334
8.83592
87.6074
5.67008
85.6502
5.583
77.2329
21.2566
0.000254025
80.9651
0.000256496
80.7558
0.000198606
78.5752
9.21257e-05
74.6576
9.78685
0.000254025
80.9651
80.9651
1.3022
78.7378
16.2728
89.8835
18.9337
82.2208
23.5297
6.34547
80.8794
1.3022
78.7378
78.7378
35.1551
87.5507
38.851
98.6361
31.6516
34.9193
91.0686
35.202
90.284
35.1551
87.5507
87.5507
)
;
    }
    procBoundary7to6
    {
        type            processor;
        value           nonuniform List<scalar> 
12
(
88.143
89.4241
102.667
78.634
82.7364
93.003
84.8476
87.2904
99.3217
91.0922
95.6448
106.949
)
;
    }
}


// ************************************************************************* //
