/*--------------------------------*- C++ -*----------------------------------*\
| =========                 |                                                 |
| \\      /  F ield         | OpenFOAM: The Open Source CFD Toolbox           |
|  \\    /   O peration     | Version:  4.x                                   |
|   \\  /    A nd           | Web:      www.OpenFOAM.org                      |
|    \\/     M anipulation  |                                                 |
\*---------------------------------------------------------------------------*/
FoamFile
{
    version     2.0;
    format      ascii;
    class       volScalarField;
    location    "19";
    object      SPartFluid;
}
// * * * * * * * * * * * * * * * * * * * * * * * * * * * * * * * * * * * * * //

dimensions      [1 -3 -1 0 0 0 0];

internalField   nonuniform List<scalar> 
132
(
9.91872e-65
7.82649e-65
6.43169e-65
6.7417e-65
1.03064e-64
1.0384e-64
7.9818e-65
5.65705e-65
8.36935e-65
7.67156e-65
9.45384e-65
7.28412e-65
6.89671e-65
8.29164e-65
5.65697e-65
7.51687e-65
6.35454e-65
8.05943e-65
4.80451e-65
7.43924e-65
6.1219e-65
7.12931e-65
7.43933e-65
8.05937e-65
7.51697e-65
7.20705e-65
8.60199e-65
6.50948e-65
6.58699e-65
8.6793e-65
5.50208e-65
7.28448e-65
6.7421e-65
7.90457e-65
5.88975e-65
4.33982e-65
6.43174e-65
7.36169e-65
6.7418e-65
6.89685e-65
8.60177e-65
8.44686e-65
7.36197e-65
3.95204e-65
8.52405e-65
7.43917e-65
7.51672e-65
8.13673e-65
7.05189e-65
5.73455e-65
7.67196e-65
5.73461e-65
5.50199e-65
8.21423e-65
6.97434e-65
6.04446e-65
7.3619e-65
8.60189e-65
8.91192e-65
7.05211e-65
7.98206e-65
6.742e-65
7.90442e-65
5.96704e-65
7.20701e-65
7.362e-65
6.19966e-65
6.58715e-65
7.98216e-65
5.34728e-65
5.03702e-65
5.81201e-65
7.36197e-65
6.04459e-65
5.81212e-65
8.05928e-65
7.3618e-65
6.81937e-65
5.19204e-65
8.52429e-65
7.05197e-65
7.12953e-65
8.75697e-65
7.51704e-65
7.05198e-65
7.36195e-65
7.51691e-65
6.97448e-65
7.98192e-65
7.59456e-65
7.67208e-65
7.05217e-65
7.74964e-65
5.57971e-65
6.35463e-65
7.05208e-65
6.89711e-65
6.12217e-65
5.26979e-65
7.59469e-65
7.05228e-65
5.81232e-65
5.50217e-65
6.43217e-65
6.12221e-65
6.89699e-65
5.8121e-65
7.67192e-65
7.43949e-65
5.19216e-65
3.87479e-65
6.89711e-65
6.66468e-65
5.42474e-65
5.96717e-65
6.04468e-65
6.04466e-65
6.19967e-65
6.89712e-65
6.35471e-65
7.20717e-65
6.43229e-65
7.28475e-65
6.04477e-65
7.43972e-65
5.65727e-65
5.81228e-65
6.58724e-65
6.50979e-65
6.50979e-65
6.35486e-65
4.10745e-65
)
;

boundaryField
{
    inlet
    {
        type            calculated;
        value           nonuniform 0();
    }
    outlet
    {
        type            calculated;
        value           uniform 0;
    }
    wall
    {
        type            calculated;
        value           uniform 0;
    }
    procBoundary7to0
    {
        type            processor;
        value           uniform 2.32468e-65;
    }
    procBoundary7to1
    {
        type            processor;
        value           uniform 5.7343e-65;
    }
    procBoundary7to3
    {
        type            processor;
        value           nonuniform List<scalar> 
36
(
7.67153e-65
9.06636e-65
8.75643e-65
8.52404e-65
6.12186e-65
6.27691e-65
8.52427e-65
7.12946e-65
7.43945e-65
9.06642e-65
5.03689e-65
7.74909e-65
4.33953e-65
4.64953e-65
7.90431e-65
7.28442e-65
8.83438e-65
6.12208e-65
5.11451e-65
8.13671e-65
8.21419e-65
5.81194e-65
6.8194e-65
7.98191e-65
6.66457e-65
7.20707e-65
5.42471e-65
8.52433e-65
4.02971e-65
5.42461e-65
6.12209e-65
5.57964e-65
7.12962e-65
6.19971e-65
7.90468e-65
8.52462e-65
)
;
    }
    procBoundary7to5
    {
        type            processor;
        value           nonuniform List<scalar> 
44
(
8.44645e-65
6.04428e-65
7.51665e-65
5.73439e-65
4.57206e-65
7.28438e-65
5.42458e-65
8.67934e-65
9.99635e-65
4.33948e-65
7.28419e-65
7.5942e-65
6.19939e-65
7.05189e-65
7.12942e-65
6.89699e-65
5.57961e-65
9.99635e-65
4.33948e-65
4.33948e-65
8.98915e-65
7.98177e-65
1.00742e-64
7.36194e-65
8.21442e-65
8.91193e-65
8.67946e-65
4.80453e-65
9.3766e-65
8.98915e-65
7.98177e-65
7.98177e-65
9.68678e-65
7.74951e-65
6.50962e-65
6.74216e-65
6.81968e-65
7.36194e-65
5.65707e-65
7.12944e-65
5.5796e-65
9.68678e-65
7.74951e-65
7.74951e-65
)
;
    }
    procBoundary7to6
    {
        type            processor;
        value           nonuniform List<scalar> 
12
(
6.74171e-65
7.1293e-65
4.95964e-65
8.52411e-65
7.59435e-65
7.517e-65
7.90431e-65
7.74942e-65
5.65722e-65
3.79728e-65
7.82709e-65
6.04479e-65
)
;
    }
}


// ************************************************************************* //
