/*--------------------------------*- C++ -*----------------------------------*\
| =========                 |                                                 |
| \\      /  F ield         | OpenFOAM: The Open Source CFD Toolbox           |
|  \\    /   O peration     | Version:  4.x                                   |
|   \\  /    A nd           | Web:      www.OpenFOAM.org                      |
|    \\/     M anipulation  |                                                 |
\*---------------------------------------------------------------------------*/
FoamFile
{
    version     2.0;
    format      ascii;
    class       volVectorField;
    location    "19";
    object      Urel;
}
// * * * * * * * * * * * * * * * * * * * * * * * * * * * * * * * * * * * * * //

dimensions      [0 1 -1 0 0 0 0];

internalField   nonuniform List<vector> 
132
(
(-0.0178191 4.04413e-05 9.56972e-05)
(-0.0195544 2.30849e-05 -7.07169e-05)
(-0.0176027 1.68371e-05 -0.000117835)
(-0.0194102 -6.85889e-06 -0.000253609)
(-0.0173744 -1.36194e-05 -0.000202058)
(-0.0190941 -5.17295e-05 -0.000235935)
(-0.0169123 -3.20891e-05 2.57863e-05)
(-0.0182209 -4.03081e-05 0.000214255)
(-0.0158604 -5.23234e-05 0.000888771)
(-0.018206 -9.79337e-05 0.000129707)
(-0.0199428 -0.000108989 -4.40031e-05)
(-0.0180642 -0.000134097 -6.24448e-05)
(-0.0198776 -0.00015871 -0.000209409)
(-0.0179246 -0.000236357 -0.000121113)
(-0.0197008 -0.000287779 -0.000175406)
(-0.0176006 -0.000470292 0.000190208)
(-0.0189265 -0.000525805 0.000345543)
(-0.0165562 -0.00107931 0.00141841)
(-0.0191862 -0.000185454 0.000229162)
(-0.0208207 -0.000210432 6.04468e-05)
(-0.0191273 -0.000224588 2.56457e-05)
(-0.0208559 -0.000282206 -0.000149637)
(-0.0190969 -0.000392208 -4.65756e-05)
(-0.020801 -0.000475025 -0.000143309)
(-0.0188474 -0.000873685 0.000283765)
(-0.0200662 -0.000979544 0.000382427)
(-0.0175274 -0.00253472 0.00175112)
(-0.0206961 -0.000267627 0.000373707)
(-0.0221194 -0.000279066 0.000220052)
(-0.0207937 -0.000316562 0.000166285)
(-0.0223514 -0.000342216 -2.49297e-05)
(-0.0208763 -0.000535968 5.34391e-05)
(-0.0225957 -0.000583414 -0.000138649)
(-0.0206241 -0.00114889 0.000325839)
(-0.0223155 -0.00124448 0.000211341)
(-0.018511 -0.00300789 0.00170879)
(-0.0172348 5.50058e-05 -0.000133535)
(-0.0190698 4.28058e-05 -0.000226416)
(-0.0170829 4.509e-05 -0.00017059)
(-0.0188346 -1.24705e-05 -0.000171885)
(-0.0167517 8.24066e-05 5.44213e-06)
(-0.0181533 2.09541e-05 0.000105664)
(-0.0158523 0.000283006 0.000631003)
(-0.017588 -6.29019e-05 4.24406e-05)
(-0.0193323 -5.24425e-05 -6.7032e-05)
(-0.0174626 -7.73296e-05 -8.24974e-05)
(-0.0192322 -0.000101044 -0.000166723)
(-0.0173252 -0.000141579 -0.00010423)
(-0.0190165 -0.000183405 -9.5807e-05)
(-0.0171045 -0.000270895 0.000149882)
(-0.0183116 -0.000343228 0.000271907)
(-0.0164228 -0.000443053 0.000967952)
(-0.0185406 -0.000170588 0.000133691)
(-0.0201838 -0.000168617 9.77502e-06)
(-0.0183779 -0.000192096 -7.26096e-06)
(-0.0201133 -0.000234679 -0.000124245)
(-0.0182888 -0.000309663 -5.26493e-05)
(-0.0199017 -0.000373867 -0.000101193)
(-0.0179488 -0.000636687 0.000140106)
(-0.0189951 -0.000785911 0.000211944)
(-0.0168232 -0.00158198 0.000790932)
(-0.0199987 -0.000258161 0.000262942)
(-0.0213893 -0.000263683 0.000143469)
(-0.0199676 -0.000289292 0.000130929)
(-0.0214423 -0.000303489 -1.88856e-05)
(-0.019931 -0.000456732 4.94068e-05)
(-0.0213842 -0.000522084 -0.000100812)
(-0.0195814 -0.00090989 0.000176635)
(-0.0206087 -0.00110482 6.42995e-05)
(-0.0180024 -0.00207225 0.000641487)
(-0.0176193 0.000162365 -0.000142481)
(-0.0191675 0.000162223 -0.000107734)
(-0.0171253 0.000280845 -1.96743e-05)
(-0.0182125 0.000271388 0.000156249)
(-0.0162891 0.000628826 0.00034772)
(-0.0181693 -4.94595e-05 -2.90458e-05)
(-0.0198323 -6.60843e-05 -8.52688e-05)
(-0.0180139 -6.21259e-05 -8.33935e-05)
(-0.0197596 -8.3766e-05 -0.000111407)
(-0.0178397 -0.000107656 -5.36952e-05)
(-0.0195103 -0.000140289 4.07765e-05)
(-0.0174 -0.000227167 0.000145419)
(-0.0186195 -0.000229556 0.0003847)
(-0.0164233 -0.000675062 0.000536013)
(-0.0191133 -0.000174277 4.28831e-05)
(-0.0206725 -0.000194947 -3.75057e-05)
(-0.0190882 -0.000208326 -1.23338e-05)
(-0.0207237 -0.000250265 -5.84096e-05)
(-0.0191224 -0.000358054 -2.9495e-06)
(-0.0206842 -0.000420983 2.68381e-05)
(-0.018935 -0.000815917 0.000168587)
(-0.020058 -0.000911006 0.000326974)
(-0.0178151 -0.00253767 0.00049362)
(-0.0205337 -0.000257665 0.000145115)
(-0.0218799 -0.000253053 7.60016e-05)
(-0.0206634 -0.000292336 7.57064e-05)
(-0.0221051 -0.000291695 5.36337e-06)
(-0.0208052 -0.000477691 3.83661e-05)
(-0.0223873 -0.000504823 6.81638e-06)
(-0.0207432 -0.00105417 0.000146748)
(-0.0224609 -0.00117262 0.000252378)
(-0.0190921 -0.00291245 0.000496584)
(-0.0184483 0.000584963 -4.81744e-05)
(-0.0191428 0.000486329 9.44689e-05)
(-0.0171747 0.00115826 7.69124e-05)
(-0.0192084 -1.48102e-05 -3.41414e-05)
(-0.0206172 -1.74219e-05 -6.39494e-05)
(-0.0191359 -1.75747e-05 -2.99361e-05)
(-0.0205294 -2.57001e-05 -2.86131e-05)
(-0.0188951 -4.61516e-05 4.00516e-05)
(-0.0200967 -6.31122e-05 8.26713e-05)
(-0.0181965 -0.000127432 0.000239804)
(-0.0189304 -0.00017763 0.000283317)
(-0.016963 -0.000358454 0.000612507)
(-0.0201938 -0.000138806 5.26106e-05)
(-0.0214702 -0.000154098 3.68804e-05)
(-0.0202191 -0.000184545 9.21145e-05)
(-0.0214758 -0.00023176 0.000107676)
(-0.0201263 -0.000336378 0.000216209)
(-0.021259 -0.000440139 0.000272069)
(-0.0196671 -0.000747247 0.000531808)
(-0.0203685 -0.000893103 0.000616014)
(-0.0183825 -0.0017635 0.00116564)
(-0.0213052 -0.000201144 0.000174643)
(-0.022461 -0.00020114 0.000159362)
(-0.0213486 -0.000252894 0.000210173)
(-0.0225586 -0.000278912 0.000195607)
(-0.0213952 -0.000446694 0.000338937)
(-0.0226484 -0.000541392 0.000326021)
(-0.0212899 -0.000986233 0.000779256)
(-0.0223147 -0.00119748 0.000787491)
(-0.0200937 -0.00228961 0.00226323)
)
;

boundaryField
{
    inlet
    {
        type            calculated;
        value           nonuniform 0();
    }
    outlet
    {
        type            calculated;
        value           nonuniform List<vector> 
16
(
(-0.00287464 -0.000751023 0.00115369)
(-0.00605158 -0.0028939 0.00511549)
(-0.010219 -0.0141941 0.0110425)
(-0.00950118 -0.0135157 0.00959947)
(-0.00467371 0.000769981 0.00278451)
(-0.0104168 0.00315817 0.00473931)
(-0.0022035 -0.000303075 0.000552501)
(-0.0082814 -0.00127116 -0.00077172)
(-0.00640468 0.000933152 0.00242611)
(-0.00379737 -0.00208517 0.000174736)
(-0.0121965 -0.01766 -0.00207301)
(-0.0123519 -0.014176 -0.00455627)
(-0.011916 0.00500936 -0.00111104)
(-0.00723724 -0.000319666 0.00186009)
(-0.0127867 -0.00490464 0.00333465)
(-0.0212058 -0.00553182 0.0158186)
)
;
    }
    wall
    {
        type            calculated;
        value           nonuniform List<vector> 
66
(
(-5.03347e-07 -5.43404e-08 -1.15023e-07)
(-8.34602e-07 -1.05015e-06 3.64799e-07)
(7.88009e-06 4.11783e-07 1.45445e-06)
(-8.22115e-07 1.74034e-07 -1.76302e-07)
(-8.7965e-07 4.88524e-08 4.63869e-08)
(4.00393e-06 1.04099e-07 1.34895e-05)
(-6.77993e-07 3.30579e-07 -1.71878e-07)
(-6.29945e-07 9.94065e-08 -6.50736e-08)
(-2.40033e-06 -3.03532e-07 6.37962e-06)
(-4.05473e-07 5.18502e-08 -3.82931e-08)
(-4.37858e-07 7.17693e-08 1.18528e-07)
(-3.38381e-07 6.97254e-08 5.21698e-08)
(-3.46238e-07 1.13085e-08 -3.51391e-08)
(-3.19571e-07 2.8195e-09 -2.59549e-08)
(-2.7481e-07 -2.05613e-09 -4.24898e-08)
(-4.18663e-07 1.899e-08 1.54235e-08)
(-2.52419e-07 3.58826e-08 -1.06825e-08)
(-1.71828e-07 1.79985e-08 -4.17407e-08)
(-2.1135e-07 4.79738e-08 -3.20165e-08)
(-2.49372e-07 5.26429e-08 -1.65642e-08)
(-1.98978e-07 5.97564e-09 -1.04939e-08)
(-1.12966e-07 -2.53291e-09 4.75736e-09)
(-1.50455e-07 1.74192e-08 -2.8449e-08)
(-1.31206e-07 8.4093e-09 -5.78852e-09)
(-1.38348e-07 -1.47655e-08 -2.37897e-08)
(-7.74963e-08 -2.48914e-08 -9.12029e-09)
(-4.81189e-08 4.35576e-09 -1.89589e-08)
(-4.26596e-08 1.68683e-08 -1.2128e-08)
(-5.87401e-08 -2.13327e-09 -7.57874e-09)
(-2.02273e-08 -8.07198e-05 -9.82097e-10)
(-2.23054e-05 6.97282e-06 3.30401e-05)
(-1.38786e-05 4.68506e-06 1.02568e-05)
(2.45975e-06 1.11605e-06 5.84641e-06)
(7.88009e-06 4.11783e-07 1.45445e-06)
(-7.90928e-06 3.07805e-06 7.7322e-06)
(-1.51262e-05 3.98993e-06 1.44998e-05)
(1.1917e-06 1.18623e-06 1.33497e-05)
(4.00393e-06 1.04099e-07 1.34895e-05)
(-2.03028e-06 2.19454e-07 9.85153e-07)
(-7.75319e-07 6.04287e-07 1.34388e-06)
(-1.35794e-07 2.41039e-07 2.66884e-07)
(-2.40033e-06 -3.03532e-07 6.37962e-06)
(-9.27678e-07 2.85562e-07 1.69232e-07)
(-5.02036e-07 1.43033e-07 1.43764e-07)
(-3.04459e-07 5.87463e-08 8.76045e-08)
(-3.38381e-07 6.97254e-08 5.21698e-08)
(-6.18612e-07 2.34209e-08 1.21847e-07)
(-4.81924e-07 7.86861e-08 1.17419e-08)
(-3.98344e-07 5.01527e-09 -3.60834e-08)
(-2.7481e-07 -2.05613e-09 -4.24898e-08)
(-5.73526e-07 -2.47677e-08 5.39582e-10)
(-3.52427e-07 -4.88881e-08 -4.27609e-08)
(-2.8239e-07 3.85011e-08 -6.77328e-08)
(-1.71828e-07 1.79985e-08 -4.17407e-08)
(-3.45615e-07 2.01231e-09 -5.35281e-11)
(-2.31963e-07 3.60095e-08 -3.65077e-08)
(-1.83895e-07 -9.86056e-09 -2.60433e-08)
(-1.12966e-07 -2.53291e-09 4.75736e-09)
(-1.51453e-07 -7.21489e-10 -4.4509e-08)
(-1.50603e-07 -3.98411e-09 -2.63041e-08)
(-8.47592e-08 -7.09941e-09 -1.37051e-08)
(-7.74963e-08 -2.48914e-08 -9.12029e-09)
(-5.20499e-08 8.39796e-10 -4.46659e-08)
(-6.09085e-08 -2.30852e-08 -2.66677e-08)
(-3.85159e-08 -2.13583e-08 -1.92345e-08)
(-2.02273e-08 -8.07198e-05 -9.82097e-10)
)
;
    }
    procBoundary7to0
    {
        type            processor;
        value           uniform (-0.019717 4.7804e-05 0.000216916);
    }
    procBoundary7to1
    {
        type            processor;
        value           uniform (-0.0183298 0.000197996 0.000105918);
    }
    procBoundary7to3
    {
        type            processor;
        value           nonuniform List<vector> 
36
(
(-0.0185825 4.66132e-05 0.000153954)
(-0.0204011 3.37867e-05 -5.09835e-05)
(-0.0184227 2.68533e-06 -0.000138139)
(-0.0202854 -3.26417e-05 -0.000316922)
(-0.0182052 -5.76621e-05 -0.000276693)
(-0.0199677 -0.000138298 -0.0003059)
(-0.0176882 -0.000140027 2.00791e-05)
(-0.0190304 -0.000221627 0.000341419)
(-0.016517 -0.000382631 0.00144823)
(-0.0189731 -5.86293e-05 0.000186211)
(-0.0207437 -5.42337e-05 -2.68113e-05)
(-0.0187717 -9.99518e-05 -0.000111349)
(-0.02067 -0.00013858 -0.000314854)
(-0.0186146 -0.000216993 -0.000269949)
(-0.0205256 -0.000317659 -0.000350453)
(-0.0183595 -0.000490692 6.83366e-05)
(-0.0198911 -0.000654271 0.000402097)
(-0.0173248 -0.00127993 0.00199212)
(-0.0199103 -0.000169352 0.000267277)
(-0.021611 -0.000190241 5.82828e-05)
(-0.0197591 -0.000207507 -4.622e-05)
(-0.021621 -0.000276721 -0.000280812)
(-0.0196642 -0.000378314 -0.000247493)
(-0.0215626 -0.000490109 -0.000384529)
(-0.0194143 -0.000837253 6.7958e-06)
(-0.020953 -0.000980098 0.000283385)
(-0.0179169 -0.00230759 0.00150078)
(-0.0216298 -0.000254633 0.000405903)
(-0.0230233 -0.000277893 0.00022222)
(-0.0217046 -0.000303498 8.05108e-05)
(-0.0232226 -0.000361071 -0.000143936)
(-0.0217174 -0.000557382 -0.000166227)
(-0.023401 -0.000678266 -0.000345097)
(-0.0214007 -0.00120376 3.33603e-05)
(-0.023104 -0.0014009 0.000198972)
(-0.0189158 -0.00284993 0.0017409)
)
;
    }
    procBoundary7to5
    {
        type            processor;
        value           nonuniform List<vector> 
44
(
(-0.0200563 0.000177128 -6.24958e-05)
(-0.0181645 0.000182116 -0.000120884)
(-0.0199794 0.000165805 -0.000265658)
(-0.017956 0.000224337 -0.000222418)
(-0.0196586 0.00021298 -0.000256109)
(-0.0173999 0.000418888 -4.30774e-05)
(-0.0186265 0.000428722 0.000123898)
(-0.0162408 0.00118422 0.00068401)
(-0.0173754 5.87498e-05 -1.40131e-06)
(-0.0191522 5.85602e-05 -0.00011988)
(-0.0177499 0.00018427 -0.000150956)
(-0.0195985 0.00018517 -0.000262322)
(-0.0176305 0.000251665 -0.000230343)
(-0.0193222 0.000258381 -0.00026221)
(-0.0171578 0.000488521 -0.000151875)
(-0.0184053 0.00054554 -3.33614e-05)
(-0.0160408 0.00111707 0.000171842)
(-0.0173754 5.87498e-05 -1.40131e-06)
(-0.0191522 5.85602e-05 -0.00011988)
(-0.0191522 5.85602e-05 -0.00011988)
(-0.0178072 0.000124118 -0.000142491)
(-0.0195141 0.000128488 -0.000190805)
(-0.0185909 0.000469496 -0.000253167)
(-0.0202089 0.000510225 -0.000236217)
(-0.0181768 0.000906459 -0.000281562)
(-0.0192572 0.000943879 -7.84518e-05)
(-0.0168912 0.00202706 -0.00032925)
(-0.017979 0.00011061 -8.31656e-05)
(-0.0196249 0.000116971 -0.000154012)
(-0.0178072 0.000124118 -0.000142491)
(-0.0195141 0.000128488 -0.000190805)
(-0.0195141 0.000128488 -0.000190805)
(-0.0190269 0.000328186 -0.000120661)
(-0.0201839 0.000317812 -8.30216e-05)
(-0.0195495 0.00124283 -0.000199002)
(-0.0204556 0.0013597 -0.000199398)
(-0.0179025 0.00265781 -0.000359928)
(-0.0191684 0.000164293 -0.000104642)
(-0.0205546 0.000167166 -0.0001486)
(-0.0191676 0.000217684 -0.000134652)
(-0.0205261 0.000221955 -0.000135939)
(-0.0190269 0.000328186 -0.000120661)
(-0.0201839 0.000317812 -8.30216e-05)
(-0.0201839 0.000317812 -8.30216e-05)
)
;
    }
    procBoundary7to6
    {
        type            processor;
        value           nonuniform List<vector> 
12
(
(-0.0200189 -0.000100616 0.000215786)
(-0.0208075 -0.000211413 0.00032216)
(-0.0219388 -0.000290105 0.000449824)
(-0.0194706 -8.38794e-05 0.000105814)
(-0.0202807 -0.00018652 0.000203479)
(-0.0213489 -0.000285582 0.000308461)
(-0.0199333 -5.13685e-05 -9.55962e-06)
(-0.0207018 -0.000200051 4.82565e-05)
(-0.0217358 -0.000285677 0.00015756)
(-0.0206343 -2.15899e-05 -3.663e-05)
(-0.0214309 -0.000150717 3.355e-05)
(-0.0223867 -0.000218702 0.000156725)
)
;
    }
}


// ************************************************************************* //
