/*--------------------------------*- C++ -*----------------------------------*\
  =========                 |
  \\      /  F ield         | OpenFOAM: The Open Source CFD Toolbox
   \\    /   O peration     | Website:  https://openfoam.org
    \\  /    A nd           | Version:  4.x
     \\/     M anipulation  |
\*---------------------------------------------------------------------------*/
FoamFile
{
    version     2.0;
    format      ascii;
    class       vectorField;
    location    0;
    object      v;
}
// * * * * * * * * * * * * * * * * * * * * * * * * * * * * * * * * * * * * * //

303
(
( -1.98301e-07 1.7712e-08 -7.0413e-08 )  
( -5.08187e-07 -2.24513e-10 -1.17952e-07 )  
( -5.11474e-07 8.06616e-09 -1.15752e-07 )  
( -3.95375e-07 -6.62264e-08 -1.06946e-07 )  
( -4.38921e-07 -2.1379e-08 -9.86142e-08 )  
( -5.64681e-07 3.28305e-08 -1.3878e-07 )  
( -2.24319e-07 3.55927e-09 -9.58809e-08 )  
( -5.30296e-07 1.92725e-08 -1.19384e-07 )  
( -4.83362e-07 5.52165e-08 -7.50627e-08 )  
( -4.9402e-07 -2.87048e-08 3.88716e-08 )  
( -2.02168e-07 -3.72202e-08 3.08922e-07 )  
( -7.63051e-08 2.62136e-08 2.1142e-08 )  
( -6.84946e-07 6.92473e-08 -5.85127e-09 )  
( -2.97989e-07 -2.77714e-08 2.37451e-07 )  
( -3.85437e-08 2.18146e-08 -7.08212e-08 )  
( -6.01458e-07 4.60013e-08 6.50044e-08 )  
( 3.66111e-07 7.28923e-08 2.02932e-08 )  
( -7.35917e-07 5.20083e-08 3.40514e-08 )  
( -7.05541e-07 5.16849e-08 3.10239e-08 )  
( -2.03386e-07 5.03853e-09 9.06493e-08 )  
( -6.87924e-07 6.35728e-08 4.24812e-09 )  
( -7.38987e-07 -3.24747e-08 1.0986e-07 )  
( -6.6611e-07 7.69424e-08 -2.40398e-08 )  
( -6.5556e-07 4.73028e-08 8.61146e-09 )  
( -6.02422e-07 6.15921e-08 -8.89289e-08 )  
( -6.02313e-07 6.52499e-08 -3.3767e-08 )  
( -1.76011e-07 -3.83155e-08 1.04478e-07 )  
( -4.05364e-08 2.74909e-09 -4.65853e-08 )  
( -6.51758e-07 6.91324e-08 -3.66594e-08 )  
( -3.58947e-07 -4.41201e-08 1.31321e-07 )  
( -4.58377e-08 -1.71744e-08 -1.57068e-08 )  
( -5.71327e-07 6.48145e-08 -4.98173e-08 )  
( -7.94083e-08 2.2331e-08 1.84835e-08 )  
( -3.95601e-07 -7.214e-08 1.08378e-07 )  
( -4.64559e-07 8.94862e-08 -7.96938e-09 )  
( -5.36156e-07 2.76754e-08 2.74654e-08 )  
( -6.65854e-07 5.60826e-08 1.61892e-10 )  
( -1.95022e-07 -4.03763e-08 4.88968e-08 )  
( -4.86963e-07 1.53696e-08 -5.10229e-08 )  
( -5.89714e-07 4.64773e-08 2.52994e-08 )  
( 4.60303e-07 1.13193e-07 1.08068e-08 )  
( -5.18588e-07 -7.92218e-08 9.76015e-08 )  
( -5.53153e-08 2.79337e-09 -8.20422e-08 )  
( -6.0355e-07 5.94248e-08 -5.57336e-09 )  
( -6.29223e-07 7.11771e-08 -5.46414e-08 )  
( -5.17059e-07 -3.44007e-08 1.71669e-07 )  
( -5.97636e-08 5.87074e-08 -6.54958e-08 )  
( -7.68215e-08 -4.3501e-08 4.69798e-08 )  
( -3.14748e-08 -5.94729e-08 7.70211e-08 )  
( -6.65916e-07 3.69767e-08 7.54024e-08 )  
( -6.71533e-07 5.46087e-08 -4.46188e-08 )  
( -5.02332e-07 6.08955e-08 -2.98416e-08 )  
( -4.75e-07 -7.38239e-08 5.05846e-09 )  
( -6.16393e-07 1.95933e-09 6.34533e-08 )  
( -3.40692e-07 2.52539e-08 -1.28465e-08 )  
( -3.86815e-07 -3.35998e-08 1.38292e-08 )  
( -4.69357e-08 -6.97962e-08 8.62211e-09 )  
( -2.62858e-07 1.26698e-08 -6.1625e-08 )  
( -2.59425e-07 -6.6846e-08 9.85211e-08 )  
( -4.51999e-07 1.46286e-08 7.83937e-09 )  
( -2.35066e-07 -1.90384e-08 -1.4998e-08 )  
( 6.21929e-08 6.05147e-08 -1.03949e-07 )  
( -3.32352e-08 2.49873e-08 -5.6629e-08 )  
( -1.70423e-07 -2.00892e-08 -1.7118e-07 )  
( -5.63086e-07 5.27615e-08 -6.94141e-08 )  
( -2.09291e-07 -6.22208e-08 -1.21032e-08 )  
( -6.04863e-07 4.48007e-08 -2.80071e-08 )  
( -5.61758e-07 -6.26656e-08 2.50551e-08 )  
( -3.59959e-07 -4.35798e-08 1.54125e-07 )  
( -6.16638e-07 4.66375e-08 -4.9128e-08 )  
( -6.23598e-07 6.99259e-08 -7.40342e-08 )  
( -7.9107e-08 -6.78677e-08 1.3762e-07 )  
( -4.9505e-07 -2.03217e-09 -8.95427e-08 )  
( -2.64888e-07 -8.45924e-08 5.8181e-08 )  
( -1.63574e-07 -3.42882e-08 3.39849e-08 )  
( 6.07056e-08 -2.25e-08 3.52534e-08 )  
( -5.06059e-07 -2.85973e-09 4.27771e-08 )  
( -6.45049e-07 4.87413e-08 -3.90025e-08 )  
( -1.38685e-07 6.41915e-09 -1.91005e-08 )  
( -5.58163e-07 -1.16903e-08 1.5469e-07 )  
( -4.22092e-07 3.99831e-08 -5.34845e-08 )  
( -6.00171e-07 5.46942e-08 -9.13002e-08 )  
( -2.77244e-07 -5.439e-08 1.11718e-07 )  
( -6.80788e-08 -3.64168e-08 2.01451e-08 )  
( -9.59281e-08 -1.32027e-07 1.70559e-07 )  
( -1.7442e-07 -6.38677e-08 1.75486e-07 )  
( -3.72274e-07 -1.50119e-08 1.55305e-08 )  
( -2.06975e-07 -4.68676e-08 7.73811e-08 )  
( -9.89617e-08 -5.51988e-08 6.60525e-08 )  
( -5.49762e-08 5.91845e-08 -1.94952e-07 )  
( -6.61671e-07 5.65826e-08 3.04164e-08 )  
( -4.08305e-07 -6.77987e-08 1.37524e-07 )  
( -1.44406e-07 -1.62898e-08 2.73529e-08 )  
( -1.22038e-07 -4.36322e-08 -3.39051e-08 )  
( -4.15659e-07 -2.36908e-08 1.43305e-07 )  
( -4.56621e-07 1.11175e-08 -1.5224e-08 )  
( -8.61863e-08 -9.38045e-08 1.05682e-07 )  
( -2.77986e-07 -2.71404e-07 -1.1042e-07 )  
( -3.85617e-07 -4.71862e-08 1.15574e-07 )  
( -6.53555e-07 4.8379e-08 7.47803e-08 )  
( -6.37957e-07 3.97233e-08 8.43948e-08 )  
( -4.16138e-07 -3.93393e-08 -6.11503e-08 )  
( -1.1437e-07 8.80438e-09 -1.34445e-07 )  
( -7.75522e-07 1.31134e-07 2.89712e-07 )  
( -2.7775e-08 -5.49884e-08 1.66268e-07 )  
( -1.48249e-07 -1.13424e-07 2.06118e-07 )  
( -3.86351e-07 -1.27845e-08 -3.03357e-08 )  
( -1.60378e-07 -3.97465e-08 4.3483e-08 )  
( -8.9841e-08 1.5308e-05 -6.00549e-07 )  
( -5.16046e-07 7.01749e-08 -5.45357e-08 )  
( -6.78767e-07 7.79026e-08 -8.93966e-09 )  
( -6.2577e-07 5.89337e-08 -5.17455e-08 )  
( -6.46106e-07 3.04362e-08 6.90391e-08 )  
( -4.84031e-08 2.59866e-07 -3.40483e-08 )  
( -1.87199e-07 -4.94545e-08 2.57131e-08 )  
( -4.97895e-07 1.10338e-07 9.13341e-09 )  
( -1.87163e-09 -4.91655e-09 -1.52264e-08 )  
( -4.50365e-07 -2.75869e-08 7.52028e-08 )  
( -1.10813e-07 2.91798e-08 2.65409e-08 )  
( 1.3028e-07 3.54377e-08 7.00217e-08 )  
( -5.8707e-07 6.40529e-08 -5.01275e-08 )  
( -5.23825e-07 2.52901e-08 -7.80487e-08 )  
( -5.84884e-07 -4.66358e-08 1.20484e-07 )  
( -1.49142e-07 -1.20762e-08 3.5159e-08 )  
( -5.94752e-07 7.0003e-08 -2.83185e-08 )  
( -3.45342e-07 -2.39154e-08 1.87839e-08 )  
( 2.05249e-08 -6.7038e-09 -2.55268e-08 )  
( -2.72807e-07 -4.55444e-08 1.13038e-07 )  
( -6.93386e-08 -7.35509e-08 -2.6836e-07 )  
( -2.69501e-07 -3.49004e-08 3.04978e-08 )  
( -7.69671e-08 7.27246e-08 -1.19588e-08 )  
( -1.10558e-07 -8.38786e-08 8.21861e-08 )  
( -2.44845e-07 -4.65104e-08 -1.2952e-08 )  
( -2.50973e-07 -1.13062e-08 6.85489e-08 )  
( -1.74624e-08 -5.14736e-08 -1.4775e-08 )  
( -5.95245e-07 6.9594e-08 -7.99148e-08 )  
( -4.48705e-07 -3.03522e-07 1.06797e-07 )  
( -3.30624e-08 -2.30179e-08 1.26212e-09 )  
( -6.95051e-07 1.63272e-08 7.96797e-08 )  
( -2.53785e-07 -9.10118e-10 2.3919e-09 )  
( -6.64591e-08 2.84211e-09 -4.28553e-08 )  
( -2.40111e-07 -2.56874e-08 6.69534e-08 )  
( -6.64176e-07 4.21246e-08 4.75408e-08 )  
( -3.46913e-07 -6.53854e-08 1.76176e-10 )  
( -5.91284e-08 -1.57442e-08 -1.92748e-08 )  
( 1.57083e-07 5.78311e-08 -9.39531e-08 )  
( -2.61777e-07 -5.68311e-08 5.94142e-08 )  
( -4.94871e-07 8.08281e-08 -3.18666e-08 )  
( -9.8303e-08 3.00333e-09 1.15699e-08 )  
( -2.07012e-07 -4.13259e-08 -2.2017e-09 )  
( -6.29701e-07 6.75377e-08 -3.77431e-08 )  
( -2.53758e-07 1.94975e-09 -6.06714e-08 )  
( -5.7919e-07 6.611e-08 -5.40103e-08 )  
( -6.23468e-07 4.43171e-09 4.11047e-08 )  
( -4.50812e-07 -3.13615e-08 2.00435e-08 )  
( -4.23002e-07 -4.40429e-09 1.49362e-07 )  
( -1.62503e-07 -5.83324e-08 -6.21866e-08 )  
( -2.45967e-07 -8.19739e-08 1.27868e-07 )  
( -1.39199e-07 -2.69211e-08 5.29598e-08 )  
( -4.73574e-07 6.55174e-08 -2.06066e-08 )  
( -3.85586e-07 -5.54216e-08 -1.21069e-08 )  
( -8.58606e-09 5.39943e-08 -2.09972e-07 )  
( -2.52592e-07 -4.03567e-08 1.24555e-07 )  
( -6.42086e-07 7.55469e-08 -3.49379e-08 )  
( -4.56091e-08 -6.97568e-09 -8.4719e-09 )  
( -1.20547e-08 -2.14039e-08 -1.4532e-07 )  
( -4.63208e-07 -7.37222e-09 -7.49056e-08 )  
( -4.08802e-07 7.87244e-08 -3.83287e-08 )  
( 2.96329e-08 -3.98868e-08 -6.37901e-08 )  
( -5.33457e-07 4.90012e-08 -1.16592e-08 )  
( -6.34997e-08 4.55889e-08 -1.51733e-08 )  
( -8.63285e-08 -1.32078e-08 -2.99065e-08 )  
( -5.2296e-07 1.8825e-08 -1.04153e-07 )  
( -1.57633e-07 -1.53502e-07 1.05958e-07 )  
( -2.74105e-07 6.51868e-09 9.68336e-09 )  
( -2.38886e-07 4.93772e-08 9.07531e-10 )  
( -1.17287e-07 -4.12852e-09 -3.2216e-08 )  
( -4.51332e-08 -2.42778e-08 -2.11804e-08 )  
( -3.61534e-07 -2.85204e-08 1.16177e-07 )  
( -6.78784e-08 -1.31424e-07 1.38809e-07 )  
( -2.08939e-07 -3.04806e-08 -1.3303e-08 )  
( -1.95786e-07 -1.2862e-08 -3.56424e-08 )  
( -2.43317e-07 -4.65629e-08 -3.23935e-08 )  
( -2.70418e-08 -7.59569e-08 -2.90306e-09 )  
( 1.37154e-07 -5.71746e-08 2.61933e-09 )  
( -4.69634e-07 2.30238e-08 2.78171e-08 )  
( -3.13147e-07 2.36481e-08 3.06479e-08 )  
( 1.04263e-07 -3.234e-08 -3.65303e-09 )  
( -5.10255e-07 7.73635e-08 -2.1535e-08 )  
( -5.24161e-07 5.92762e-08 -4.16163e-08 )  
( -1.05335e-07 -1.0443e-07 1.01911e-07 )  
( -6.33714e-07 7.54281e-08 -2.40748e-08 )  
( -9.31012e-08 7.13499e-09 -2.52313e-08 )  
( -3.12874e-07 -5.08499e-08 -2.62663e-08 )  
( -2.46426e-07 9.85475e-09 1.27024e-08 )  
( -5.70809e-07 5.67804e-08 -2.53433e-08 )  
( -1.33937e-07 -3.61595e-08 1.07986e-08 )  
( -4.48899e-07 -6.0578e-10 3.53405e-08 )  
( -9.45534e-08 8.73044e-08 -4.99788e-08 )  
( -4.87363e-07 1.29284e-08 -2.94681e-08 )  
( -3.45963e-07 -9.94198e-08 6.47373e-09 )  
( -3.24054e-07 -8.49513e-08 4.78929e-08 )  
( -1.87831e-07 9.75913e-09 3.44296e-08 )  
( -1.39944e-07 3.1914e-09 2.248e-08 )  
( -3.49618e-07 -3.83524e-08 -3.30781e-08 )  
( -3.74118e-07 -4.62743e-08 -9.27059e-09 )  
( -1.79053e-07 -2.20149e-08 4.92776e-08 )  
( -2.39708e-07 -5.45837e-08 4.02575e-08 )  
( -2.98798e-07 -2.24274e-08 1.02446e-08 )  
( -2.91793e-07 -8.31052e-08 1.79798e-08 )  
( -1.35661e-07 -2.0408e-09 2.34352e-08 )  
( -1.57557e-08 -3.6882e-08 -1.14938e-07 )  
( -2.27243e-07 -5.98485e-09 3.76594e-08 )  
( -5.8858e-07 6.22704e-08 -3.11125e-08 )  
( -2.43613e-07 -3.08475e-08 7.49446e-08 )  
( -2.27535e-07 1.08874e-07 -5.46526e-08 )  
( -6.4047e-07 6.00423e-08 2.02225e-09 )  
( -2.66745e-07 3.44426e-09 4.58981e-09 )  
( -3.80139e-07 -2.74816e-08 -1.84745e-08 )  
( -5.24726e-07 6.90668e-08 -6.42093e-08 )  
( -3.0977e-07 -5.26749e-08 -1.01871e-08 )  
( -3.9897e-08 -2.66831e-08 -5.38039e-08 )  
( -1.76032e-08 -4.27432e-08 -4.00165e-08 )  
( -5.10544e-07 2.38822e-09 -1.16674e-07 )  
( -5.64089e-07 5.25043e-08 -9.59971e-08 )  
( -7.53304e-08 -8.8861e-09 2.34665e-08 )  
( -6.39581e-07 7.20913e-08 -1.40624e-08 )  
( -5.06684e-07 -1.01657e-08 1.30846e-07 )  
( -4.405e-08 -5.58817e-08 -4.13931e-09 )  
( -6.58452e-07 7.08746e-08 -1.17452e-08 )  
( -1.32696e-07 2.78011e-08 -1.32291e-07 )  
( -3.18099e-07 -5.70686e-10 1.74621e-07 )  
( -6.08676e-07 3.32733e-08 -8.03266e-08 )  
( -4.6656e-07 8.27091e-08 -2.94067e-08 )  
( -1.12468e-07 -1.77326e-08 1.85903e-08 )  
( -1.01317e-07 1.78328e-08 1.93408e-08 )  
( -4.34951e-07 6.58636e-09 -8.60562e-08 )  
( -4.48955e-07 -1.39831e-08 1.15897e-07 )  
( -1.75837e-07 -1.57617e-07 1.75134e-07 )  
( -5.62831e-07 5.69563e-08 -6.02666e-08 )  
( -2.06216e-07 -1.74641e-08 7.11239e-08 )  
( -5.75303e-07 5.45868e-08 -7.24723e-08 )  
( -6.70126e-07 -3.06938e-08 -5.33065e-08 )  
( -7.16423e-07 5.36105e-08 5.27669e-08 )  
( -5.5604e-07 3.64318e-08 -1.28447e-07 )  
( -5.4125e-07 1.96781e-08 -2.01431e-08 )  
( -2.76286e-08 -9.41873e-09 -2.90754e-09 )  
( -5.96135e-07 -1.21105e-09 1.56828e-07 )  
( -5.44918e-07 7.67571e-08 -4.17749e-08 )  
( -3.25641e-07 -5.78603e-08 9.09014e-08 )  
( -4.95124e-07 -1.52957e-08 -1.16505e-07 )  
( -6.29152e-07 5.97747e-08 -6.25542e-08 )  
( -5.80119e-07 -5.26383e-09 8.33783e-08 )  
( -6.30478e-07 8.08568e-08 -3.29503e-08 )  
( -2.92509e-07 -5.42217e-08 5.99246e-08 )  
( -6.35241e-07 1.29954e-08 2.06909e-08 )  
( -4.35146e-08 2.07777e-08 5.64346e-09 )  
( -5.63653e-07 5.8716e-08 -3.9085e-08 )  
( -4.16522e-07 6.50703e-08 -3.48939e-08 )  
( -4.58603e-07 -2.159e-08 -3.94801e-09 )  
( -6.11311e-07 5.7584e-08 2.1726e-08 )  
( -1.85964e-07 -2.29222e-08 4.6658e-08 )  
( -3.19278e-07 1.20755e-07 -4.29265e-08 )  
( -1.17679e-07 -1.18867e-09 4.33727e-10 )  
( -5.24476e-07 3.79832e-08 -8.78437e-08 )  
( -2.08758e-07 -1.56848e-08 6.61201e-08 )  
( -5.16793e-07 -1.55345e-08 7.30934e-08 )  
( -9.51181e-08 1.17077e-08 -3.14086e-08 )  
( -6.0476e-07 7.05754e-08 -3.91005e-08 )  
( -2.07161e-07 -1.39861e-08 2.85876e-08 )  
( -5.90633e-07 6.72181e-08 -3.14375e-08 )  
( -1.11843e-07 -7.71238e-09 2.87959e-08 )  
( -3.38519e-07 -9.45752e-08 1.73053e-08 )  
( -2.01797e-07 -1.48671e-08 4.18365e-08 )  
( -7.63857e-07 5.44331e-08 4.23302e-08 )  
( -6.19477e-07 5.2226e-08 -7.19819e-08 )  
( -9.7211e-08 -3.92798e-08 -3.19223e-08 )  
( -3.96789e-07 -7.07431e-08 1.66442e-07 )  
( -3.91054e-07 -6.29233e-08 1.35622e-07 )  
( -4.71823e-07 1.04609e-07 -2.87468e-08 )  
( -6.74574e-07 -4.28534e-08 9.85178e-08 )  
( 1.091e-07 3.7597e-08 1.5697e-07 )  
( -3.61144e-07 -3.40418e-08 -5.37313e-08 )  
( -6.05366e-07 2.42324e-08 -6.92267e-08 )  
( -7.55112e-07 3.44245e-07 1.88435e-08 )  
( -5.0077e-07 3.08367e-08 -6.97409e-08 )  
( -3.78045e-07 -6.89603e-08 4.46941e-08 )  
( -3.55957e-07 1.01418e-07 1.57921e-08 )  
( -6.06975e-07 1.34219e-07 -4.63817e-08 )  
( -5.65314e-07 3.5713e-08 -1.23603e-07 )  
( -6.20668e-07 -3.58807e-08 3.74492e-08 )  
( -5.15656e-07 -3.64116e-08 5.39686e-09 )  
( -5.01132e-08 -1.02945e-07 8.87183e-09 )  
( -1.66985e-07 2.3877e-08 -1.1401e-08 )  
( -1.78736e-07 -9.6062e-08 1.66814e-07 )  
( -6.21635e-07 7.41516e-08 -2.61746e-08 )  
( -1.04476e-07 -1.67222e-07 1.35175e-07 )  
( -4.35299e-07 8.98188e-09 -9.19008e-08 )  
( -6.38026e-07 9.60026e-08 -6.06652e-08 )  
( -6.23285e-07 2.16143e-08 -5.4077e-08 )  
( -3.46934e-07 2.16392e-07 2.06743e-08 )  
( -5.36948e-07 7.73857e-08 -1.05966e-07 )  
( -5.7009e-07 8.75926e-08 2.01729e-08 )  
)
