/*--------------------------------*- C++ -*----------------------------------*\
| =========                 |                                                 |
| \\      /  F ield         | OpenFOAM: The Open Source CFD Toolbox           |
|  \\    /   O peration     | Version:  4.x                                   |
|   \\  /    A nd           | Web:      www.OpenFOAM.org                      |
|    \\/     M anipulation  |                                                 |
\*---------------------------------------------------------------------------*/
FoamFile
{
    version     2.0;
    format      ascii;
    class       volScalarField;
    location    "59.5";
    object      KslNext;
}
// * * * * * * * * * * * * * * * * * * * * * * * * * * * * * * * * * * * * * //

dimensions      [1 -3 -1 0 0 0 0];

internalField   nonuniform List<scalar> 
87
(
3796.26
12049.3
3474.44
3217.38
6571.76
3122.33
3574.3
12784.5
3867.11
29665.7
4012.39
256710
4064.14
1e+10
4060.48
3482.81
10833.8
3683.33
16038.7
3787.47
27810.9
3824.07
78738.9
3815.68
3368.04
8197.98
3394.94
8096.05
3436.93
8630.9
3443.99
9689.45
3478.23
3517.73
10655.8
3708.34
15102.3
3761.59
23380.5
3797.28
45350.3
3771.02
3442.35
9071.39
3561.94
9956.62
3586.75
10932.3
3602.84
12473.4
3543.38
3361
7536.19
3300.15
6922.13
3264.05
6612.72
3220.76
6453.38
3156.89
3427.81
8109.21
3460.71
8111.41
3424.19
8172.54
3424.63
8665.07
3361.91
3369.48
7564.96
3342.13
7047.05
3288.43
6745.53
3254.15
6651.27
3174.8
3315.73
6985.42
3199.21
6035.35
3070.1
5512.35
3022.5
5276.59
2975
)
;

boundaryField
{
    inlet
    {
        type            zeroGradient;
    }
    outlet
    {
        type            zeroGradient;
    }
    wall
    {
        type            zeroGradient;
    }
    procBoundary6to0
    {
        type            processor;
        value           uniform 0;
    }
    procBoundary6to2
    {
        type            processor;
        value           uniform 0;
    }
    procBoundary6to4
    {
        type            processor;
        value           uniform 0;
    }
    procBoundary6to7
    {
        type            processor;
        value           uniform 0;
    }
}


// ************************************************************************* //
