/*--------------------------------*- C++ -*----------------------------------*\
| =========                 |                                                 |
| \\      /  F ield         | OpenFOAM: The Open Source CFD Toolbox           |
|  \\    /   O peration     | Version:  4.x                                   |
|   \\  /    A nd           | Web:      www.OpenFOAM.org                      |
|    \\/     M anipulation  |                                                 |
\*---------------------------------------------------------------------------*/
FoamFile
{
    version     2.0;
    format      ascii;
    class       volScalarField;
    location    "59.5";
    object      p;
}
// * * * * * * * * * * * * * * * * * * * * * * * * * * * * * * * * * * * * * //

dimensions      [1 -1 -2 0 0 0 0];

internalField   nonuniform List<scalar> 
87
(
82.1142
38.0138
81.5808
88.6191
38.3378
81.6139
-1765.77
-1784.02
-1773.06
-1801.52
-1780.78
-1819.53
-1788.72
-1837.28
-1796.02
-1766.43
-1784.29
-1773.55
-1802.08
-1780.98
-1820.33
-1788.45
-1838.66
-1795.82
-1767
-1784.53
-1774.06
-1802.16
-1781.33
-1820.35
-1788.71
-1838.5
-1795.63
-3643.93
-3661.99
-3651.24
-3679.81
-3658.77
-3697.89
-3666.28
-3716.15
-3673.59
-3644.62
-3662.31
-3651.89
-3680.09
-3659.38
-3698.24
-3666.78
-3716.59
-3674
-3645.11
-3662.54
-3652.25
-3680.17
-3659.62
-3698.34
-3666.96
-3716.6
-3674.06
-5522.32
-5540.06
-5529.56
-5557.77
-5537.08
-5575.85
-5544.55
-5594.21
-5551.74
-5522.82
-5540.33
-5530
-5557.99
-5537.43
-5576.22
-5544.81
-5594.44
-5551.96
-5523.19
-5540.44
-5530.28
-5558.06
-5537.58
-5576.12
-5544.91
-5594.23
-5551.88
)
;

boundaryField
{
    inlet
    {
        type            calculated;
        value           nonuniform List<scalar> 9(-1765.77 -1766.43 -1767 -3643.93 -3644.62 -3645.11 -5522.32 -5522.82 -5523.19);
    }
    outlet
    {
        type            calculated;
        value           nonuniform 0();
    }
    wall
    {
        type            calculated;
        value           nonuniform List<scalar> 
57
(
-6461.27
-6461.78
-6462.15
-6479.02
-6479.29
-6479.4
-6468.52
-6468.96
-6469.23
-6496.73
-6496.95
-6497.02
-6476.04
-6476.38
-6476.54
-6514.8
-6515.18
-6515.08
-6483.51
-6483.77
-6483.86
-6533.17
-6533.39
-6533.18
-6490.69
-6490.91
-6490.84
-1767
-3645.11
-5523.19
-1784.53
-3662.54
-5540.44
-1774.06
-3652.25
-5530.28
-1802.16
-3680.17
-5558.06
-1781.33
-3659.62
-5537.58
-1820.35
-3698.34
-5576.12
88.6191
-1788.71
-3666.96
-5544.91
38.3378
-1838.5
-3716.6
-5594.23
81.6139
-1795.63
-3674.06
-5551.88
)
;
    }
    procBoundary6to0
    {
        type            processor;
        value           uniform 81.9713;
    }
    procBoundary6to2
    {
        type            processor;
        value           nonuniform List<scalar> 
32
(
1959.67
1916.41
1959.91
1966.7
1916.5
1959.8
111.486
93.6656
104.347
75.6273
96.9027
57.4306
89.4341
39.152
39.152
39.152
110.819
93.1624
103.625
75.1325
96.1665
56.7666
88.7276
88.7276
88.7276
110.322
92.9534
103.257
75.0626
95.9176
56.8052
56.8052
)
;
    }
    procBoundary6to4
    {
        type            processor;
        value           nonuniform List<scalar> 
27
(
-1766.23
-1784.07
-1773.42
-1801.96
-1781
-1820.21
-1788.63
-1838.61
-1796.07
-3644.1
-3662.06
-3651.39
-3679.9
-3659.03
-3698.33
-3666.62
-3716.96
-3673.93
-5522.35
-5540.26
-5529.72
-5558.01
-5537.36
-5576.44
-5544.97
-5594.82
-5552.1
)
;
    }
    procBoundary6to7
    {
        type            processor;
        value           nonuniform List<scalar> 
12
(
20.9438
19.0766
19.6475
-1854.86
-1856.87
-1856.7
-3734.39
-3735.27
-3735
-5612.31
-5612.9
-5612.51
)
;
    }
}


// ************************************************************************* //
