/*--------------------------------*- C++ -*----------------------------------*\
| =========                 |                                                 |
| \\      /  F ield         | OpenFOAM: The Open Source CFD Toolbox           |
|  \\    /   O peration     | Version:  4.x                                   |
|   \\  /    A nd           | Web:      www.OpenFOAM.org                      |
|    \\/     M anipulation  |                                                 |
\*---------------------------------------------------------------------------*/
FoamFile
{
    version     2.0;
    format      ascii;
    class       volScalarField;
    location    "59.5";
    object      p_rgh;
}
// * * * * * * * * * * * * * * * * * * * * * * * * * * * * * * * * * * * * * //

dimensions      [1 -1 -2 0 0 0 0];

internalField   nonuniform List<scalar> 
87
(
82.1142
38.0138
81.5808
88.6191
38.3378
81.6139
112.147
93.8972
104.852
76.3906
97.1317
58.3886
89.1914
40.6315
81.8984
111.485
93.6201
104.365
75.8349
96.9323
57.5859
89.4604
39.259
82.0907
110.914
93.3856
103.853
75.7587
96.5795
57.5638
89.2044
39.4176
82.2863
111.898
93.8385
104.59
76.0138
97.0582
57.9388
89.5484
39.6759
82.2431
111.205
93.5165
103.938
75.7351
96.4515
57.5865
89.0516
39.2403
81.8237
110.72
93.2883
103.582
75.6561
96.2066
57.4858
88.8727
39.2311
81.7661
111.426
93.6812
104.184
75.9688
96.6628
57.8976
89.1928
39.5325
82.0063
110.923
93.4119
103.745
75.7501
96.3169
57.5244
88.9299
39.3059
81.7866
110.553
93.3039
103.466
75.6812
96.1616
57.6209
88.8357
39.5176
81.8592
)
;

boundaryField
{
    inlet
    {
        type            fixedFluxPressure;
        gradient        nonuniform List<scalar> 9(5.84207e-05 5.12596e-05 4.86946e-05 9.89396e-05 9.31348e-05 9.02844e-05 0.000143709 0.000135988 0.000132042);
        value           nonuniform List<scalar> 9(112.147 111.485 110.914 111.898 111.205 110.72 111.426 110.923 110.553);
    }
    outlet
    {
        type            fixedValue;
        value           nonuniform 0();
    }
    wall
    {
        type            fixedFluxPressure;
        gradient        nonuniform List<scalar> 
57
(
-1.80479e-07
-2.21732e-07
-1.9402e-09
-6.34392e-07
-5.07567e-07
-3.16923e-07
-5.14413e-07
-2.40492e-07
-8.65457e-09
-1.17203e-06
-7.18946e-07
-3.34711e-07
-4.9634e-07
-3.59836e-07
-2.51373e-07
-1.61861e-06
-1.16034e-06
-4.99163e-07
-9.73904e-07
-6.13768e-07
-3.0199e-07
-1.82205e-06
-3.53432e-07
-2.56345e-07
-1.15647e-06
-5.95604e-07
-7.8168e-07
-8.45136e-08
-1.642e-07
-5.5531e-07
-1.5544e-06
-2.36268e-06
-2.01846e-07
-2.30456e-07
-5.73035e-07
-3.05403e-07
-9.61665e-07
-7.37286e-07
-3.56925e-07
-3.99644e-07
-3.65576e-07
-2.64988e-07
-1.09203e-06
-7.47734e-07
-4.90112e-07
-4.02096e-07
-4.36712e-07
-4.77827e-07
-3.40147e-07
-9.24402e-07
-1.75524e-06
-5.58105e-07
3.28122e-07
-3.17217e-07
-5.83516e-07
-4.78872e-07
7.45891e-08
)
;
        value           nonuniform List<scalar> 
57
(
111.426
110.923
110.553
93.6812
93.4119
93.3039
104.184
103.745
103.466
75.9688
75.7501
75.6812
96.6628
96.3169
96.1616
57.8976
57.5244
57.6209
89.1928
88.9299
88.8357
39.5325
39.3059
39.5176
82.0063
81.7866
81.8592
110.914
110.72
110.553
93.3856
93.2883
93.3039
103.853
103.582
103.466
75.7587
75.6561
75.6812
96.5795
96.2066
96.1616
57.5638
57.4858
57.6209
88.6191
89.2044
88.8727
88.8357
38.3378
39.4176
39.2311
39.5176
81.6139
82.2863
81.7661
81.8592
)
;
    }
    procBoundary6to0
    {
        type            processor;
        value           uniform 81.9713;
    }
    procBoundary6to2
    {
        type            processor;
        value           nonuniform List<scalar> 
32
(
81.7513
38.496
81.9932
88.7895
38.5845
81.8878
111.486
93.6656
104.347
75.6273
96.9027
57.4306
89.4341
39.152
39.152
39.152
110.819
93.1624
103.625
75.1325
96.1665
56.7666
88.7276
88.7276
88.7276
110.322
92.9534
103.257
75.0626
95.9176
56.8052
56.8052
)
;
    }
    procBoundary6to4
    {
        type            processor;
        value           nonuniform List<scalar> 
27
(
111.684
93.8456
104.49
75.9509
96.9177
57.7067
89.2871
39.3083
81.8395
111.727
93.7647
104.442
75.9304
96.7956
57.5019
89.2087
38.8682
81.8998
111.397
93.4784
104.026
75.7303
96.3853
57.2991
88.776
38.9188
81.6381
)
;
    }
    procBoundary6to7
    {
        type            processor;
        value           nonuniform List<scalar> 
12
(
20.9438
19.0766
19.6475
23.0542
21.0457
21.2099
21.4371
20.5607
20.8256
21.436
20.8411
21.2347
)
;
    }
}


// ************************************************************************* //
