/*--------------------------------*- C++ -*----------------------------------*\
| =========                 |                                                 |
| \\      /  F ield         | OpenFOAM: The Open Source CFD Toolbox           |
|  \\    /   O peration     | Version:  4.x                                   |
|   \\  /    A nd           | Web:      www.OpenFOAM.org                      |
|    \\/     M anipulation  |                                                 |
\*---------------------------------------------------------------------------*/
FoamFile
{
    version     2.0;
    format      ascii;
    class       volVectorField;
    location    "59";
    object      ddtUrel;
}
// * * * * * * * * * * * * * * * * * * * * * * * * * * * * * * * * * * * * * //

dimensions      [0 1 -2 0 0 0 0];

internalField   nonuniform List<vector> 
108
(
(6.34994e-09 -2.94129e-09 -3.26357e-09)
(7.07721e-09 -3.18795e-09 -2.69634e-09)
(8.09853e-09 -3.4844e-09 -2.91832e-10)
(1.00355e-08 -4.24941e-09 5.49228e-09)
(1.28612e-08 -6.05414e-09 1.56393e-08)
(1.73705e-08 -8.49347e-09 2.89283e-08)
(2.35047e-08 -1.00053e-08 4.40635e-08)
(2.96529e-08 -9.8557e-09 6.34054e-08)
(3.29305e-08 -1.44616e-08 8.29819e-08)
(6.35661e-09 -3.06373e-09 -4.66271e-09)
(7.06789e-09 -3.26648e-09 -4.03601e-09)
(8.1733e-09 -3.53501e-09 -1.15702e-09)
(9.71329e-09 -4.30401e-09 5.55525e-09)
(1.19644e-08 -6.03349e-09 1.7162e-08)
(1.55764e-08 -7.9904e-09 3.18414e-08)
(2.11781e-08 -8.58175e-09 4.78131e-08)
(2.76758e-08 -1.04905e-08 7.0231e-08)
(3.31251e-08 -1.48327e-08 9.25909e-08)
(5.84597e-09 -3.16149e-09 -6.87594e-09)
(6.57846e-09 -3.20789e-09 -5.83408e-09)
(7.59536e-09 -3.10819e-09 -1.96607e-09)
(8.74355e-09 -3.32272e-09 5.58807e-09)
(9.72906e-09 -4.47802e-09 1.75237e-08)
(1.14921e-08 -5.70338e-09 3.18592e-08)
(1.47808e-08 -6.08777e-09 4.89434e-08)
(1.87022e-08 -7.82933e-09 7.21214e-08)
(2.21216e-08 -8.41558e-09 9.43382e-08)
(5.24449e-09 -3.34429e-09 -1.02567e-08)
(5.61733e-09 -2.83083e-09 -8.10301e-09)
(6.37081e-09 -1.70606e-09 -3.07881e-09)
(7.07288e-09 -7.11925e-10 4.8229e-09)
(6.87281e-09 -9.71274e-10 1.64313e-08)
(6.61915e-09 -1.89924e-09 3.085e-08)
(7.70713e-09 -2.05166e-09 4.85529e-08)
(8.4498e-09 -2.65698e-09 6.84241e-08)
(1.05335e-08 -1.30159e-09 8.68284e-08)
(5.00513e-09 -2.53275e-09 -3.64869e-09)
(5.252e-09 -2.79022e-09 -2.9448e-09)
(5.25658e-09 -3.19523e-09 -1.78748e-10)
(5.5942e-09 -3.97551e-09 5.31136e-09)
(6.51558e-09 -4.99894e-09 1.36267e-08)
(8.56751e-09 -5.92129e-09 2.3631e-08)
(1.12794e-08 -6.57799e-09 3.60208e-08)
(1.63797e-08 -8.04235e-09 5.09204e-08)
(1.94592e-08 -1.20266e-08 6.28623e-08)
(4.84561e-09 -2.60368e-09 -4.9325e-09)
(4.93847e-09 -2.83325e-09 -4.07218e-09)
(4.96214e-09 -3.16491e-09 -8.60816e-10)
(5.16327e-09 -3.75065e-09 5.22835e-09)
(6.02148e-09 -4.44645e-09 1.41231e-08)
(7.53843e-09 -4.84396e-09 2.48289e-08)
(1.00001e-08 -5.43092e-09 3.78502e-08)
(1.5031e-08 -6.97137e-09 5.37796e-08)
(1.84662e-08 -1.14354e-08 7.07443e-08)
(4.11202e-09 -2.44069e-09 -6.86623e-09)
(4.18398e-09 -2.40642e-09 -5.71052e-09)
(4.1408e-09 -2.22941e-09 -1.85509e-09)
(4.17554e-09 -2.12818e-09 4.63711e-09)
(4.32662e-09 -2.26284e-09 1.36445e-08)
(4.79989e-09 -2.38062e-09 2.44092e-08)
(5.80622e-09 -2.90138e-09 3.83419e-08)
(9.60016e-09 -3.3795e-09 5.41006e-08)
(1.25316e-08 -4.93884e-09 6.95467e-08)
(3.11573e-09 -2.04074e-09 -9.49132e-09)
(2.95319e-09 -1.41674e-09 -7.77982e-09)
(2.70241e-09 -2.70495e-10 -3.48869e-09)
(2.44575e-09 6.45847e-10 3.2748e-09)
(2.08803e-09 6.40842e-10 1.25472e-08)
(1.56116e-09 5.05964e-10 2.32558e-08)
(1.76112e-09 1.04162e-09 3.65037e-08)
(3.42386e-09 8.92079e-10 5.14502e-08)
(5.33161e-09 2.24005e-09 6.21832e-08)
(4.2087e-09 -2.33919e-09 -3.75351e-09)
(4.1127e-09 -2.66378e-09 -2.84818e-09)
(3.61411e-09 -3.20863e-09 8.92361e-11)
(3.23733e-09 -3.86644e-09 5.24075e-09)
(3.26785e-09 -4.41282e-09 1.21697e-08)
(3.63794e-09 -4.62539e-09 2.05987e-08)
(3.24297e-09 -5.25096e-09 3.12591e-08)
(6.38444e-09 -7.20852e-09 4.28993e-08)
(9.44647e-09 -1.13283e-08 5.29012e-08)
(3.9232e-09 -2.338e-09 -4.87067e-09)
(3.62312e-09 -2.63095e-09 -3.73568e-09)
(3.09163e-09 -3.01474e-09 -3.7641e-10)
(2.74125e-09 -3.36569e-09 4.99096e-09)
(2.8861e-09 -3.35718e-09 1.2075e-08)
(3.03857e-09 -3.02465e-09 2.07232e-08)
(3.02456e-09 -4.30004e-09 3.18705e-08)
(5.08488e-09 -6.73202e-09 4.37948e-08)
(6.15823e-09 -1.21758e-08 5.44354e-08)
(3.06079e-09 -2.01307e-09 -6.56197e-09)
(2.66751e-09 -1.96036e-09 -5.17063e-09)
(2.1634e-09 -1.79271e-09 -1.49292e-09)
(1.88646e-09 -1.61147e-09 4.11615e-09)
(1.52483e-09 -1.34322e-09 1.14594e-08)
(1.09844e-09 -1.25921e-09 2.04487e-08)
(2.87297e-10 -2.36282e-09 3.10028e-08)
(1.63748e-09 -3.63777e-09 4.2204e-08)
(3.78304e-09 -8.26148e-09 5.09246e-08)
(1.89048e-09 -1.35818e-09 -8.93175e-09)
(1.50606e-09 -6.67938e-10 -7.11803e-09)
(7.92615e-10 2.65534e-10 -3.25611e-09)
(3.02305e-10 8.16939e-10 2.65343e-09)
(-6.2577e-10 5.89584e-10 1.03305e-08)
(-1.71291e-09 6.5398e-10 1.8946e-08)
(-3.06725e-09 1.37688e-09 2.84168e-08)
(-3.327e-09 1.82598e-09 3.85881e-08)
(-1.36561e-09 1.15003e-09 4.58389e-08)
)
;

boundaryField
{
    inlet
    {
        type            calculated;
        value           nonuniform List<vector> 
12
(
(6.86441e-10 -2.68383e-11 -2.89115e-10)
(1.47638e-09 -4.44713e-11 -4.94303e-10)
(1.25478e-09 -3.90163e-10 -6.54281e-10)
(1.41984e-09 -4.55862e-10 -8.9464e-10)
(6.70398e-10 6.15107e-11 -2.68584e-10)
(6.38332e-10 -1.51826e-10 -3.64727e-10)
(1.84557e-10 -1.63761e-10 -3.7538e-10)
(1.61458e-10 -3.24013e-10 -4.32005e-10)
(1.15969e-10 3.77434e-12 -5.89923e-11)
(-2.62317e-12 -7.99046e-12 -8.13296e-11)
(9.87533e-11 -3.88248e-11 -1.58665e-10)
(-2.24952e-10 -6.28732e-12 -1.78236e-10)
)
;
    }
    outlet
    {
        type            calculated;
        value           nonuniform 0();
    }
    wall
    {
        type            calculated;
        value           nonuniform List<vector> 
63
(
(1.48441e-10 3.56353e-12 -5.57122e-11)
(9.43394e-11 -1.44339e-11 -7.75874e-11)
(2.46352e-10 -4.59958e-11 -1.51353e-10)
(5.55063e-11 -1.29506e-11 -1.65166e-10)
(1.22781e-10 -5.37903e-11 -1.1013e-10)
(2.9754e-10 -1.58313e-10 -2.34685e-10)
(1.87832e-10 -3.1631e-10 -2.75907e-10)
(-4.43665e-10 -4.05777e-10 -5.72717e-11)
(-8.58167e-10 -2.93148e-10 1.0683e-10)
(-5.11076e-10 -4.17956e-10 1.05135e-10)
(-3.00025e-10 -6.65181e-10 -1.32843e-11)
(-2.5568e-09 -1.54996e-09 1.37173e-10)
(-1.72404e-09 -4.54497e-10 6.11377e-10)
(-2.25702e-09 -1.19737e-09 7.92278e-10)
(-2.52985e-09 -1.15696e-09 8.28519e-10)
(-3.37185e-09 -3.33459e-10 8.88567e-10)
(-4.75616e-09 -7.30155e-10 1.08002e-09)
(-7.97009e-09 -1.10477e-09 2.23683e-09)
(-1.22087e-08 -9.38758e-10 3.06418e-09)
(-1.30163e-08 1.27995e-09 3.10784e-09)
(-5.63761e-09 -1.49223e-09 1.91347e-09)
(-7.16412e-09 8.49849e-10 2.56811e-09)
(-1.13155e-08 -7.43196e-11 5.65603e-09)
(-1.65011e-08 1.62153e-09 6.44446e-09)
(-3.80563e-08 -3.89532e-09 8.26082e-09)
(-1.92552e-08 -1.84352e-09 4.8451e-09)
(-3.63981e-08 -6.98788e-10 1.09604e-08)
(-3.97902e-08 2.67141e-09 1.27153e-08)
(-2.59067e-08 -3.7233e-09 1.39305e-08)
(-3.89264e-08 -3.69284e-09 2.14798e-08)
(-3.81518e-08 2.63566e-09 2.05868e-08)
(-5.08871e-08 -1.47399e-09 1.74615e-08)
(-7.77333e-08 -1.37315e-08 2.17745e-08)
(-1.25838e-07 -2.2014e-08 4.10198e-08)
(-7.46496e-08 -3.51885e-08 2.81346e-08)
(-7.89918e-08 1.0107e-08 2.8082e-08)
(3.95962e-10 -1.49491e-11 -2.74746e-10)
(4.85361e-10 6.91265e-11 -2.67051e-10)
(8.12163e-11 4.99054e-12 -5.72291e-11)
(8.66609e-10 5.54934e-11 -3.71133e-10)
(4.67512e-10 6.92345e-12 -3.05578e-10)
(4.38492e-11 -5.15649e-11 -1.10226e-10)
(1.78255e-10 -5.75162e-10 -5.36981e-10)
(-1.787e-10 -3.43671e-10 -1.64993e-11)
(-1.05148e-09 -2.94332e-10 1.11134e-10)
(2.99826e-09 -7.93685e-10 7.61628e-10)
(1.66731e-10 -4.85423e-10 1.07568e-09)
(-1.56315e-09 -4.60924e-10 6.33854e-10)
(-2.61464e-09 -3.7151e-09 2.44994e-09)
(-2.08259e-09 -1.24868e-09 2.31196e-09)
(-4.1846e-09 -7.4416e-10 1.10798e-09)
(3.40636e-09 -5.45634e-09 4.64976e-09)
(-1.38796e-09 -2.14651e-09 3.06403e-09)
(-5.10314e-09 -1.49078e-09 1.94861e-09)
(5.70312e-09 -7.06869e-09 2.13175e-08)
(-1.40755e-08 -6.68528e-09 1.32033e-08)
(-3.11314e-08 -3.91416e-09 8.53738e-09)
(3.71637e-08 5.96091e-09 4.99798e-08)
(1.31032e-09 -5.83183e-09 3.61708e-08)
(-1.64483e-08 -3.74049e-09 1.44064e-08)
(-8.7942e-08 -4.72402e-08 1.40121e-07)
(-2.22506e-08 -2.17978e-08 5.49347e-08)
(-6.23227e-08 -1.39452e-08 2.19523e-08)
)
;
    }
    procBoundary4to0
    {
        type            processor;
        value           nonuniform List<vector> 
36
(
(8.23872e-09 -3.1583e-09 -2.45416e-09)
(9.41362e-09 -3.26275e-09 -1.70913e-09)
(1.20579e-08 -3.68384e-09 1.06468e-09)
(1.62497e-08 -4.82463e-09 7.47251e-09)
(2.19895e-08 -7.30226e-09 1.91077e-08)
(3.02939e-08 -9.94466e-09 3.47576e-08)
(3.88382e-08 -1.13988e-08 5.22775e-08)
(4.74796e-08 -1.41761e-08 7.7256e-08)
(5.43056e-08 -1.62133e-08 1.00455e-07)
(8.31258e-09 -3.32551e-09 -3.59729e-09)
(9.60846e-09 -3.47877e-09 -2.77428e-09)
(1.21903e-08 -3.95555e-09 5.45752e-10)
(1.62114e-08 -5.23696e-09 8.09086e-09)
(2.13467e-08 -7.76941e-09 2.08246e-08)
(2.90679e-08 -1.03532e-08 3.68541e-08)
(3.7476e-08 -1.2002e-08 5.70072e-08)
(4.61086e-08 -1.62435e-08 8.42053e-08)
(5.19863e-08 -1.60196e-08 1.11978e-07)
(8.22047e-09 -3.6945e-09 -5.691e-09)
(9.59153e-09 -3.77179e-09 -4.42792e-09)
(1.19209e-08 -3.93768e-09 -2.56506e-10)
(1.4843e-08 -4.84643e-09 8.51379e-09)
(1.86341e-08 -6.9873e-09 2.19457e-08)
(2.37955e-08 -9.16704e-09 3.83415e-08)
(2.94204e-08 -1.04745e-08 5.8862e-08)
(3.32583e-08 -1.16819e-08 8.82837e-08)
(3.65339e-08 -6.88017e-09 1.16835e-07)
(7.72998e-09 -4.18966e-09 -8.74198e-09)
(8.9871e-09 -3.86634e-09 -6.40471e-09)
(1.0783e-08 -3.04273e-09 -1.13583e-09)
(1.24791e-08 -2.68135e-09 7.82986e-09)
(1.43258e-08 -3.54356e-09 2.03695e-08)
(1.64979e-08 -5.1811e-09 3.72248e-08)
(1.7793e-08 -5.05927e-09 5.79334e-08)
(1.74532e-08 -3.74789e-09 8.27264e-08)
(2.02723e-08 -3.26098e-09 1.09149e-07)
)
;
    }
    procBoundary4to5
    {
        type            processor;
        value           nonuniform List<vector> 
12
(
(4.79881e-08 -1.24152e-08 8.64967e-08)
(4.10823e-08 -9.42044e-09 1.01436e-07)
(3.23345e-08 -2.40064e-10 1.04887e-07)
(1.75605e-08 6.37933e-09 1.01909e-07)
(3.37771e-08 -1.2869e-08 6.58056e-08)
(3.12213e-08 -1.10642e-08 7.30515e-08)
(2.68854e-08 -3.0947e-09 7.65534e-08)
(1.72861e-08 7.00834e-09 6.54654e-08)
(2.43144e-08 -1.34481e-08 5.44677e-08)
(2.01513e-08 -1.38076e-08 5.60152e-08)
(1.61939e-08 -7.3308e-09 5.34594e-08)
(1.02354e-08 2.44985e-09 4.55504e-08)
)
;
    }
    procBoundary4to6
    {
        type            processor;
        value           nonuniform List<vector> 
27
(
(4.28857e-09 -2.97811e-09 -1.04326e-08)
(4.52859e-09 -2.17146e-09 -8.38633e-09)
(4.88985e-09 -2.10893e-10 -3.31286e-09)
(4.75098e-09 1.80712e-09 4.36471e-09)
(4.16452e-09 2.65681e-09 1.45932e-08)
(3.17957e-09 3.15009e-09 2.75528e-08)
(2.60577e-09 5.41962e-09 4.15179e-08)
(2.27103e-09 8.16965e-09 5.64337e-08)
(4.68606e-09 1.17047e-08 7.00722e-08)
(2.19682e-09 -1.54033e-09 -9.46182e-09)
(1.84093e-09 -6.47389e-10 -7.8401e-09)
(1.46411e-09 1.05458e-09 -3.60179e-09)
(8.35649e-10 2.49101e-09 2.85772e-09)
(-1.87844e-10 3.01925e-09 1.12202e-08)
(-1.26768e-09 3.5893e-09 2.12669e-08)
(-2.61461e-09 5.29306e-09 3.20244e-08)
(-2.91449e-09 7.95311e-09 4.27872e-08)
(-8.20556e-10 1.31349e-08 5.08091e-08)
(9.06372e-10 -6.84083e-10 -8.89729e-09)
(4.69931e-10 2.30116e-10 -7.30609e-09)
(-1.31119e-10 1.55124e-09 -3.5241e-09)
(-9.80829e-10 2.35395e-09 2.19401e-09)
(-2.17319e-09 2.48243e-09 9.07061e-09)
(-3.70599e-09 3.21307e-09 1.69078e-08)
(-5.6837e-09 4.77457e-09 2.56336e-08)
(-6.76258e-09 6.7431e-09 3.32905e-08)
(-4.40015e-09 9.16338e-09 3.76682e-08)
)
;
    }
}


// ************************************************************************* //
