/*--------------------------------*- C++ -*----------------------------------*\
| =========                 |                                                 |
| \\      /  F ield         | OpenFOAM: The Open Source CFD Toolbox           |
|  \\    /   O peration     | Version:  4.x                                   |
|   \\  /    A nd           | Web:      www.OpenFOAM.org                      |
|    \\/     M anipulation  |                                                 |
\*---------------------------------------------------------------------------*/
FoamFile
{
    version     2.0;
    format      ascii;
    class       volVectorField;
    location    "59";
    object      U;
}
// * * * * * * * * * * * * * * * * * * * * * * * * * * * * * * * * * * * * * //

dimensions      [0 1 -1 0 0 0 0];

internalField   nonuniform List<vector> 
108
(
(0.0299133 -0.000866995 -0.000569253)
(0.0128857 -0.000388988 -0.000370207)
(0.0309715 -0.000915264 -0.000555562)
(0.0138798 -0.000358435 -0.000421258)
(0.0316747 -0.000672157 -0.000280826)
(0.0145469 -0.000183486 -0.00030885)
(0.0324322 -0.000463489 -0.000230095)
(0.0148199 -0.000170293 -0.000309368)
(0.0334281 -0.000449689 0.00020276)
(0.0296969 -0.00172087 -0.000469209)
(0.010609 -0.00082685 -0.000247314)
(0.0294549 -0.00181425 -0.000352686)
(0.00855253 -0.000638252 -0.000243678)
(0.0293424 -0.00136589 -0.000124299)
(0.00705109 -0.000467468 -0.000142964)
(0.0294494 -0.00102464 1.10636e-05)
(0.0056543 -0.000448065 -0.00013259)
(0.0299726 -0.000602452 0.000279856)
(0.0296933 -0.000894092 -0.000432501)
(0.00946136 -0.000487063 -0.000201397)
(0.0287258 -0.000997495 -0.00019949)
(0.00615691 -0.000322134 -6.38292e-05)
(0.0283494 -0.00087237 3.85374e-05)
(0.00371884 -0.000221886 4.27366e-05)
(0.028333 -0.000551324 -0.000214244)
(0.00123505 -7.86253e-05 4.84924e-05)
(0.0284649 -4.04364e-05 -0.000206393)
(0.029745 -0.000618507 -0.000689798)
(0.00963972 -0.00017124 -0.00026796)
(0.0287623 -0.000588445 -0.000522484)
(0.0062537 -0.000250012 -0.000257073)
(0.0282555 -0.000495898 -0.000390925)
(0.00322098 -0.000177989 -8.92728e-05)
(0.0280176 8.62105e-05 -0.000253832)
(0.000845285 -7.6015e-05 -1.73185e-05)
(0.0276859 -5.87375e-05 0.000116506)
(0.0299144 -0.000678146 0.000193148)
(0.0129514 -0.000275963 7.28367e-05)
(0.0310216 -0.000563472 0.000218208)
(0.0138935 -0.000195161 -0.000169197)
(0.0316807 -0.000431224 -1.65558e-05)
(0.0144289 -0.000151278 -0.000256447)
(0.0321602 -0.000280352 2.12176e-05)
(0.0143284 3.12268e-05 -0.00026106)
(0.0327083 -7.37094e-05 0.000146197)
(0.0298084 -0.00148706 0.000400844)
(0.0115512 -0.000801326 0.000149624)
(0.0300221 -0.00160419 0.000600214)
(0.0107197 -0.000588847 4.44056e-05)
(0.0301125 -0.00127776 0.000369123)
(0.00970577 -0.000424915 -7.11902e-05)
(0.0301767 -0.000817123 0.000346443)
(0.00832736 -0.000268351 -7.18499e-05)
(0.0305353 -0.000520038 0.000404662)
(0.0297877 -0.000924703 0.000557025)
(0.0102385 -0.000390003 0.000228309)
(0.0292388 -0.000851869 0.000715598)
(0.00754638 -0.000252954 0.000165077)
(0.0287893 -0.000476932 0.000535102)
(0.00514812 -7.61303e-05 8.68582e-05)
(0.0286426 -3.74028e-05 0.000474834)
(0.0028928 1.63748e-05 6.35039e-05)
(0.0287407 9.41107e-05 0.000218733)
(0.0297154 -0.000296624 0.000386296)
(0.0100742 2.90115e-05 0.000317005)
(0.0290057 -2.97679e-05 0.000756495)
(0.0072154 -5.68642e-06 0.000196585)
(0.0287726 -1.30185e-05 0.000810737)
(0.00486243 -7.88852e-05 0.000204422)
(0.0288425 -3.36357e-05 0.000805938)
(0.00317022 -6.6385e-05 0.000133656)
(0.0290569 -6.01368e-05 0.00035269)
(0.0300343 -0.000650872 0.000457101)
(0.0143957 -0.000325084 0.000334961)
(0.0320416 -0.000535267 0.000693242)
(0.0171732 -0.000156665 0.000254275)
(0.0336319 -0.0002888 0.000536758)
(0.0188405 -2.37119e-05 0.000170227)
(0.0347632 -0.0001538 0.000700625)
(0.019996 -1.00532e-05 0.000483226)
(0.0361349 -0.000213651 0.000947083)
(0.0299881 -0.0013845 0.000482112)
(0.0132698 -0.000799896 0.000288896)
(0.0310707 -0.00140412 0.000720592)
(0.0147274 -0.000586651 0.000292117)
(0.0321843 -0.000961037 0.000675034)
(0.0158366 -0.000469509 0.000289086)
(0.033118 -0.000745467 0.0008261)
(0.0165735 -0.000550332 0.000385934)
(0.0342798 -0.000752939 0.000775413)
(0.0298055 -0.000906189 0.000565678)
(0.0124306 -0.000401766 0.000389793)
(0.0304427 -0.000882244 0.00092034)
(0.0128481 -0.000359449 0.00037546)
(0.0309998 -0.000508018 0.000916148)
(0.013356 -0.000125422 0.00029427)
(0.031711 -0.000162971 0.000869046)
(0.0139005 -0.000129613 0.000333767)
(0.032436 -0.000207167 0.000780299)
(0.029716 -0.000168049 0.000485916)
(0.012214 -7.58883e-05 0.000326269)
(0.0301708 -0.00026652 0.000712099)
(0.0123163 -0.000185271 0.000302687)
(0.0309483 -0.000298914 0.000693249)
(0.0129493 -0.000280798 0.000314514)
(0.031723 -0.000372714 0.000745471)
(0.0139408 -0.000320428 0.000155159)
(0.0327308 -0.000473262 0.000442699)
)
;

boundaryField
{
    inlet
    {
        type            fixedValue;
        value           uniform (0.01 0 0);
    }
    outlet
    {
        type            zeroGradient;
    }
    wall
    {
        type            fixedValue;
        value           uniform (0 0 0);
    }
    procBoundary4to0
    {
        type            processor;
        value           nonuniform List<vector> 
36
(
(0.0299283 -0.000779149 -0.00130902)
(0.0125253 -0.000342169 -0.000843119)
(0.0310168 -0.000746143 -0.00138032)
(0.0136628 -0.000241049 -0.000818018)
(0.0317161 -0.00052454 -0.00108593)
(0.0141173 -0.000181811 -0.000761942)
(0.0320647 -0.000453395 -0.000858446)
(0.0136929 2.22737e-05 -0.000791173)
(0.0321415 -4.84018e-05 -0.000604395)
(0.0298195 -0.00162085 -0.00149413)
(0.0102876 -0.000804459 -0.000783038)
(0.0296539 -0.00187108 -0.00152737)
(0.00839701 -0.000643419 -0.000582514)
(0.029305 -0.00146297 -0.00103382)
(0.00637727 -0.000495526 -0.000401664)
(0.029155 -0.000717188 -0.000736181)
(0.00399866 -0.000378818 -0.000331848)
(0.0290134 1.63276e-05 -0.000693465)
(0.0296442 -0.000706364 -0.0015261)
(0.00897016 -0.000309531 -0.000742424)
(0.0286914 -0.000662891 -0.00133318)
(0.00485104 -0.000107656 -0.000356629)
(0.0277418 -0.000164048 -0.000765)
(0.00130734 -1.02609e-05 -0.000101493)
(0.0269771 0.000275817 -0.00053634)
(1.07051e-08 -2.7659e-10 -1.28596e-09)
(0.0261302 0.000299845 -9.78163e-05)
(0.0296909 -0.000133868 -0.00137275)
(0.00967238 4.06764e-05 -0.000794171)
(0.0291182 0.000185615 -0.0014136)
(0.00670316 0.000143334 -0.000545138)
(0.0287991 0.000300716 -0.00114004)
(0.00482683 0.000160115 -0.000453129)
(0.0289306 -4.91735e-05 -0.000886518)
(0.00359498 0.00020071 -0.00042496)
(0.0286008 -3.19149e-05 -0.000423761)
)
;
    }
    procBoundary4to5
    {
        type            processor;
        value           nonuniform List<vector> 
12
(
(0.0146029 -0.000217003 0.000207789)
(0.00366258 -0.000452828 6.57072e-05)
(1.07301e-08 -1.55789e-09 1.27175e-09)
(1.04141e-08 -1.78078e-09 3.29173e-10)
(0.0136292 0.00017263 -0.000317133)
(0.00710518 -0.000380849 -6.77334e-05)
(0.000926418 -2.62319e-05 2.96592e-05)
(0.00225809 -8.0491e-05 0.000182488)
(0.0211776 -1.90715e-06 0.000670306)
(0.0171534 -0.00091859 0.000371534)
(0.0140388 -0.00042606 0.000364988)
(0.014376 -0.000663765 0.000178177)
)
;
    }
    procBoundary4to6
    {
        type            processor;
        value           nonuniform List<vector> 
27
(
(0.029486 0.000246667 -0.000588251)
(0.00833459 0.000158308 -0.000187532)
(0.0278127 0.000220657 -0.000411906)
(0.0036314 4.21109e-05 -0.000123187)
(0.0270712 1.99968e-06 -0.000242621)
(0.000432121 4.25477e-06 -1.74582e-05)
(0.0265078 -0.000243796 -0.000136817)
(1.0012e-08 -1.20863e-10 -6.3799e-10)
(0.026296 -0.000362229 -0.00015865)
(0.0296354 0.00070231 0.000985406)
(0.00990561 0.000282535 0.000327442)
(0.0289247 0.000787973 0.00103936)
(0.00706725 0.000184513 0.000321844)
(0.0285312 0.000547193 0.000773737)
(0.00456545 1.6146e-05 0.000216671)
(0.0283173 0.000256038 0.000111685)
(0.00232587 -4.53652e-05 0.00019743)
(0.0282205 0.000126868 -5.79453e-05)
(0.0298614 0.000655887 0.000701227)
(0.0126917 0.000200787 0.000290559)
(0.0303833 0.000472239 0.000691128)
(0.0129285 9.39681e-05 0.000196202)
(0.0308349 0.000143596 0.000629867)
(0.0128795 -0.000130184 0.000179771)
(0.0310874 -0.000237059 0.000566379)
(0.0120813 -0.000310737 0.000229801)
(0.0311098 -0.000307743 0.000441282)
)
;
    }
}


// ************************************************************************* //
