/*--------------------------------*- C++ -*----------------------------------*\
| =========                 |                                                 |
| \\      /  F ield         | OpenFOAM: The Open Source CFD Toolbox           |
|  \\    /   O peration     | Version:  4.x                                   |
|   \\  /    A nd           | Web:      www.OpenFOAM.org                      |
|    \\/     M anipulation  |                                                 |
\*---------------------------------------------------------------------------*/
FoamFile
{
    version     2.0;
    format      ascii;
    class       surfaceScalarField;
    location    "43.5";
    object      phi;
}
// * * * * * * * * * * * * * * * * * * * * * * * * * * * * * * * * * * * * * //

dimensions      [0 3 -1 0 0 0 0];

internalField   nonuniform List<scalar> 
308
(
9.09801e-06
-2.69665e-07
-6.65078e-07
9.69637e-06
-1.8704e-07
-4.11323e-07
1.07305e-05
-3.32483e-07
-7.01677e-07
1.12583e-05
-1.59592e-07
-3.68127e-07
1.20617e-05
-2.61555e-07
-5.4192e-07
1.24553e-05
-1.04718e-07
-2.88812e-07
1.31023e-05
-2.15628e-07
-4.3145e-07
1.35123e-05
-1.33664e-07
-2.7635e-07
-1.77586e-07
-3.33567e-07
8.95753e-06
-3.09657e-07
-7.54268e-07
9.3747e-06
-2.08784e-07
-3.95429e-07
1.01768e-05
-3.75983e-07
-7.58563e-07
1.05843e-05
-2.03538e-07
-3.63612e-07
1.12371e-05
-2.93759e-07
-6.20548e-07
1.15379e-05
-1.3024e-07
-2.75278e-07
1.20699e-05
-2.50792e-07
-4.96866e-07
1.23274e-05
-1.60382e-07
-2.30779e-07
-2.27861e-07
-3.45705e-07
8.88729e-06
-2.10717e-07
-8.22961e-07
9.15834e-06
-1.01496e-07
-3.78337e-07
9.8031e-06
-2.017e-07
-8.19045e-07
1.00522e-05
-3.42175e-07
1.05585e-05
-6.52274e-07
1.0755e-05
-2.58623e-07
1.1097e-05
-4.67844e-07
1.11139e-05
-1.5577e-07
-2.866e-07
8.88809e-06
-8.55808e-07
9.21751e-06
-4.04104e-07
-8.45722e-07
8.60897e-06
-3.57823e-07
-7.5296e-07
8.7963e-06
-1.60004e-07
-4.38644e-07
9.23166e-06
-3.80429e-07
-7.56611e-07
9.40694e-06
-1.49169e-07
-3.94241e-07
9.77362e-06
-3.39079e-07
-5.69519e-07
9.90936e-06
-9.65866e-08
-3.27963e-07
1.01906e-05
-2.80875e-07
-4.31856e-07
1.02765e-05
-4.21468e-08
-3.20017e-07
-1.84706e-07
-3.39088e-07
8.28928e-06
-3.88025e-07
-8.50082e-07
8.32101e-06
-1.59774e-07
-4.27383e-07
8.40961e-06
-4.00759e-07
-8.26841e-07
8.38154e-06
-1.42847e-07
-3.41856e-07
8.36327e-06
-3.36162e-07
-6.052e-07
8.33348e-06
-8.50331e-08
-2.57041e-07
8.2597e-06
-2.40942e-07
-4.63023e-07
8.22998e-06
-3.7632e-08
-2.05572e-07
-1.55146e-07
-2.98956e-07
8.02378e-06
-1.78669e-07
-8.92831e-07
7.96218e-06
-6.0993e-08
-4.15518e-07
7.80077e-06
-1.67185e-07
-8.91207e-07
7.65956e-06
-3.76078e-08
-3.06209e-07
7.37323e-06
-9.72573e-08
-6.04844e-07
7.22598e-06
-1.93951e-07
6.83523e-06
-2.87498e-07
6.74568e-06
-1.41992e-07
-6.40487e-08
8.02337e-06
-9.2787e-07
8.01604e-06
-4.56102e-07
7.89723e-06
-9.30958e-07
7.77783e-06
-3.00631e-07
-6.28563e-07
8.42394e-06
-4.09552e-07
-6.0408e-07
8.54682e-06
-1.87173e-07
-3.74357e-07
8.87164e-06
-4.5082e-07
-6.3061e-07
9.0181e-06
-1.74072e-07
-3.6663e-07
9.33769e-06
-3.78777e-07
-5.10328e-07
9.46707e-06
-1.09443e-07
-3.479e-07
9.71387e-06
-2.67456e-07
-4.112e-07
9.84603e-06
-7.11021e-08
-3.81075e-07
-1.55497e-07
-3.54947e-07
8.05382e-06
-4.65503e-07
-6.84685e-07
8.01532e-06
-2.14434e-07
-3.61623e-07
7.94673e-06
-5.1984e-07
-6.89232e-07
7.88639e-06
-1.74517e-07
-2.8107e-07
7.79068e-06
-3.96255e-07
-4.92009e-07
7.75954e-06
-1.05806e-07
-2.29541e-07
7.66199e-06
-2.51217e-07
-3.81707e-07
7.68751e-06
-9.30149e-08
-2.09184e-07
-1.94937e-07
-3.24532e-07
7.74858e-06
-2.50152e-07
-6.93498e-07
7.58654e-06
-1.16112e-07
-3.51794e-07
7.13296e-06
-2.8147e-07
-6.75999e-07
6.95405e-06
-8.62743e-08
-2.15545e-07
6.6083e-06
-2.22522e-07
-4.32823e-07
6.51133e-06
-7.32214e-08
-1.29565e-07
6.36223e-06
-1.69178e-07
-2.2044e-07
6.31022e-06
-1.10477e-07
-2.22359e-08
7.64363e-06
-6.78702e-07
7.458e-06
-3.69898e-07
6.97428e-06
-6.98335e-07
6.84067e-06
-2.21326e-07
6.55285e-06
-4.79942e-07
6.5081e-06
-1.61054e-07
-3.25178e-07
8.38274e-06
-4.62336e-07
8.45893e-06
-2.18995e-07
8.69079e-06
-4.96544e-07
8.728e-06
-1.68512e-07
8.85556e-06
-3.79974e-07
8.84214e-06
-1.30599e-07
8.87275e-06
-2.3625e-07
8.77514e-06
-7.33483e-08
-2.64816e-08
7.85082e-06
-4.56591e-07
7.68425e-06
-2.16529e-07
7.35516e-06
-5.01084e-07
7.21028e-06
-1.45269e-07
6.89119e-06
-3.34358e-07
6.73403e-06
-9.5006e-08
6.3542e-06
-1.04314e-07
6.23103e-06
-6.85428e-08
6.83143e-08
7.56757e-06
-1.85106e-07
7.24039e-06
-6.44417e-08
6.48131e-06
-1.33618e-07
6.20486e-06
-6.07383e-09
5.58844e-06
-1.89579e-08
5.35792e-06
1.65647e-08
5.14198e-06
1.87388e-08
4.93014e-06
2.03304e-08
4.64127e-08
7.61082e-06
7.30987e-06
6.64236e-06
6.48898e-06
6.07857e-06
5.96313e-06
5.76402e-06
5.65204e-06
)
;

boundaryField
{
    inlet
    {
        type            calculated;
        value           nonuniform List<scalar> 
16
(
-8.16327e-06
-8.16327e-06
-8.16327e-06
-8.16327e-06
-8.16327e-06
-8.16327e-06
-8.16327e-06
-8.16327e-06
-8.16327e-06
-8.16327e-06
-8.16327e-06
-8.16327e-06
-8.16327e-06
-8.16327e-06
-8.16327e-06
-8.16327e-06
)
;
    }
    outlet
    {
        type            calculated;
        value           nonuniform 0();
    }
    wall
    {
        type            calculated;
        value           uniform 0;
    }
    procBoundary0to1
    {
        type            processor;
        value           nonuniform List<scalar> 
12
(
1.40235e-05
1.27234e-05
1.12501e-05
1.04667e-05
8.15367e-06
6.33773e-06
1.00174e-05
7.75253e-06
6.1756e-06
8.52618e-06
5.88587e-06
4.98179e-06
)
;
    }
    procBoundary0to2
    {
        type            processor;
        value           nonuniform List<scalar> 
44
(
-1.1044e-07
-1.478e-07
-6.81566e-08
-1.24889e-07
-2.15049e-08
-7.74722e-08
-7.97335e-08
-2.68109e-08
9.89713e-06
-3.55989e-08
3.46107e-07
6.8849e-07
-2.45746e-09
-3.05404e-08
3.81405e-08
3.02528e-08
3.32883e-08
-1.66193e-09
3.68608e-08
3.63108e-08
7.53292e-06
8.77252e-08
2.02599e-07
3.98877e-07
-7.25147e-08
-1.02134e-07
2.03126e-08
-1.66841e-08
-3.03711e-08
-3.19706e-08
-8.33217e-08
-7.00142e-08
6.44099e-06
-1.75765e-07
1.46771e-07
1.50409e-07
8.39398e-08
6.66021e-08
1.87539e-07
6.52047e-08
1.78307e-07
5.05058e-08
8.01974e-08
3.40057e-08
)
;
    }
    procBoundary0to4
    {
        type            processor;
        value           nonuniform List<scalar> 
36
(
-3.61217e-07
-2.31552e-07
-3.65928e-07
-2.35333e-07
-2.5791e-07
-2.03886e-07
-2.05554e-07
-2.10118e-07
-7.95051e-08
-3.77989e-07
-1.97516e-07
-3.55597e-07
-1.59436e-07
-2.18533e-07
-1.07979e-07
-1.33814e-07
-9.08197e-08
-7.41622e-08
-3.69292e-07
-1.76699e-07
-2.84382e-07
-7.82875e-08
-1.31804e-07
-1.062e-08
-1.2755e-07
1.24861e-08
-5.19828e-08
-3.95299e-07
-1.99991e-07
-3.51985e-07
-1.39224e-07
-2.66795e-07
-7.95614e-08
-1.87524e-07
-4.84643e-08
-2.09345e-08
)
;
    }
    procBoundary0to6
    {
        type            processor;
        value           uniform 7.82096e-08;
    }
    procBoundary0to7
    {
        type            processor;
        value           uniform 5.49077e-06;
    }
}


// ************************************************************************* //
