/*--------------------------------*- C++ -*----------------------------------*\
| =========                 |                                                 |
| \\      /  F ield         | OpenFOAM: The Open Source CFD Toolbox           |
|  \\    /   O peration     | Version:  4.x                                   |
|   \\  /    A nd           | Web:      www.OpenFOAM.org                      |
|    \\/     M anipulation  |                                                 |
\*---------------------------------------------------------------------------*/
FoamFile
{
    version     2.0;
    format      ascii;
    class       volVectorField;
    location    "43.5";
    object      UsPrev;
}
// * * * * * * * * * * * * * * * * * * * * * * * * * * * * * * * * * * * * * //

dimensions      [0 1 -1 0 0 0 0];

internalField   nonuniform List<vector> 
132
(
(4.27995e-10 -1.75901e-10 -1.09665e-10)
(5.10853e-10 -4.11533e-10 -2.87168e-10)
(-4.21856e-09 1.82018e-09 -1.00979e-09)
(-1.69102e-09 1.06656e-09 1.2464e-09)
(1.01274e-09 9.64609e-10 7.82333e-10)
(9.00476e-10 3.72758e-10 6.07121e-10)
(8.58721e-11 4.3957e-10 9.96185e-10)
(-2.50692e-10 4.51183e-10 9.91331e-11)
(-3.94221e-11 1.01055e-10 4.48677e-10)
(1.68566e-10 -3.34813e-10 8.2359e-12)
(9.05944e-12 -7.46527e-10 1.45964e-11)
(-1.89169e-09 -9.45402e-10 2.50994e-10)
(-1.08855e-09 1.24448e-09 7.90056e-10)
(-2.41054e-10 9.14421e-10 8.78391e-10)
(6.0505e-10 5.57364e-10 8.35926e-10)
(1.13164e-09 1.17907e-10 1.20399e-09)
(2.04968e-09 -2.28707e-10 1.83434e-09)
(3.47992e-09 -2.47113e-09 3.95828e-09)
(6.243e-11 -3.73506e-10 1.19003e-10)
(-2.44768e-11 -4.45687e-10 3.44564e-10)
(-5.12047e-10 -4.50015e-10 5.03868e-10)
(-1.87102e-10 5.50983e-10 7.00514e-10)
(-6.97551e-11 8.77573e-10 8.74915e-10)
(9.01254e-10 3.92803e-10 8.68255e-10)
(1.27532e-09 -4.47081e-12 1.25578e-09)
(2.20557e-09 -9.18021e-10 1.99448e-09)
(2.45476e-09 -2.11839e-09 2.72824e-09)
(-2.23139e-11 -3.71283e-10 1.06775e-10)
(1.94949e-10 -2.85253e-10 4.48905e-10)
(5.22292e-11 -2.34986e-10 5.56636e-10)
(1.07667e-10 -1.0065e-10 -4.22221e-10)
(-1.44153e-10 -2.4287e-10 -7.22195e-10)
(-1.30401e-09 -1.14376e-10 -9.71981e-10)
(-1.66713e-09 4.95349e-10 1.69399e-09)
(-1.80342e-10 3.9138e-10 1.12964e-09)
(1.95508e-10 1.99093e-10 7.57414e-10)
(5.30796e-11 3.92704e-11 9.68494e-10)
(4.7543e-10 1.11632e-10 -3.80516e-10)
(-1.31866e-09 -1.25916e-09 3.22876e-09)
(1.25546e-11 -2.63627e-10 -1.91001e-10)
(-2.27306e-10 -4.76188e-10 -2.59218e-10)
(-1.31508e-09 -4.33927e-10 -4.69329e-12)
(-1.1307e-09 4.79522e-10 9.90104e-10)
(-3.49815e-10 6.72393e-10 1.09711e-09)
(2.20848e-10 3.43241e-10 9.59077e-10)
(2.99879e-10 1.42929e-10 1.1685e-09)
(4.32612e-10 -2.61831e-10 1.79528e-09)
(-1.42968e-10 1.91753e-10 4.74807e-09)
(-6.71799e-12 -1.85281e-10 -2.46969e-11)
(-1.36325e-10 -3.29407e-10 1.93329e-10)
(-4.11821e-10 -9.89746e-11 4.54404e-10)
(-3.45446e-10 2.93288e-10 7.04873e-10)
(4.76912e-11 4.75106e-10 9.21499e-10)
(5.12794e-10 2.5652e-10 9.29384e-10)
(1.01467e-09 9.7005e-13 1.3347e-09)
(1.05517e-09 -4.56481e-10 2.01517e-09)
(1.66971e-09 -7.47509e-10 3.23004e-09)
(1.39927e-11 -2.15531e-10 1.04338e-10)
(1.74586e-11 -2.67774e-10 3.88622e-10)
(-1.69068e-10 -4.9927e-11 6.86973e-10)
(1.19278e-10 8.15297e-11 7.84472e-10)
(2.27008e-10 4.03834e-11 1.06277e-09)
(-6.45778e-11 -3.36045e-11 -2.95467e-10)
(-1.90041e-10 -3.43617e-11 -3.18103e-10)
(-6.72971e-10 -2.93946e-11 -2.42376e-10)
(-4.22232e-10 4.47101e-11 6.50985e-10)
(-3.42242e-10 1.49295e-10 7.63487e-10)
(-1.51761e-10 2.03833e-10 8.77594e-10)
(-3.30891e-10 5.30181e-11 1.08621e-09)
(4.57113e-11 2.24481e-11 7.0095e-10)
(-1.35178e-09 -7.1941e-10 4.25693e-09)
(-5.91132e-11 -1.57955e-10 -1.55565e-10)
(-2.40852e-10 -1.5797e-10 -1.09143e-10)
(-5.94922e-10 -1.2245e-10 1.78296e-10)
(-2.88235e-10 2.17186e-10 8.03352e-10)
(-3.87216e-10 2.61498e-10 9.71821e-10)
(-3.12165e-11 1.32053e-10 1.02805e-09)
(3.06396e-11 -3.19135e-11 1.22131e-09)
(1.10314e-11 -3.0495e-10 1.66875e-09)
(-1.67613e-09 1.54281e-09 4.78636e-09)
(-2.3575e-11 -9.74818e-11 1.85106e-11)
(-5.08207e-11 -8.26561e-11 1.75211e-10)
(-1.33157e-10 -1.49028e-11 4.65387e-10)
(1.03087e-10 2.25548e-10 7.59554e-10)
(3.03436e-10 3.59428e-10 9.65368e-10)
(9.32811e-10 2.5202e-10 1.12788e-09)
(4.61773e-10 2.2175e-11 1.11942e-09)
(6.5002e-10 2.87199e-10 1.91443e-09)
(1.92462e-10 1.66256e-09 3.32581e-09)
(-6.04129e-11 -1.88898e-10 1.68091e-10)
(1.90127e-10 -3.80464e-10 4.61483e-10)
(1.63137e-10 -1.87469e-10 7.18267e-10)
(5.256e-10 -1.09855e-10 9.36078e-10)
(7.34989e-10 -1.53087e-10 1.17819e-09)
(1.22532e-09 2.666e-12 1.18987e-09)
(1.87682e-09 1.72473e-10 1.13439e-09)
(-5.40565e-11 -1.36746e-11 -1.84557e-10)
(-1.45862e-10 4.57798e-11 -1.08951e-10)
(-3.94588e-10 -2.41145e-11 8.53145e-12)
(-1.5927e-10 1.05842e-10 3.34858e-10)
(-2.34513e-10 8.20501e-11 5.10711e-10)
(-2.45344e-10 1.25014e-10 6.99542e-10)
(-2.99934e-10 1.88473e-10 8.50567e-10)
(-5.39746e-11 -6.50421e-12 1.37289e-09)
(-1.69887e-10 -2.59546e-10 3.04395e-09)
(-7.45968e-11 -5.76336e-11 -1.35188e-10)
(-1.61012e-10 3.54634e-11 -4.18928e-11)
(-3.37855e-10 9.19371e-11 2.00382e-10)
(-7.08548e-11 3.09173e-10 5.20959e-10)
(-5.53704e-11 3.58224e-10 6.52965e-10)
(4.37499e-11 3.7113e-10 8.3254e-10)
(-2.43796e-11 2.76583e-10 9.61534e-10)
(2.811e-11 1.69079e-10 1.39121e-09)
(-1.86506e-10 4.40696e-10 2.10959e-09)
(8.45947e-11 3.4586e-11 4.3602e-11)
(1.18685e-10 5.91073e-11 1.78763e-10)
(1.85308e-10 1.56617e-10 3.72611e-10)
(5.16419e-10 3.9359e-10 5.41405e-10)
(8.56653e-10 5.45078e-10 8.05301e-10)
(1.12154e-09 5.26916e-10 9.30303e-10)
(1.31205e-09 5.51033e-10 9.05532e-10)
(1.33326e-09 4.6379e-10 1.5788e-09)
(1.07487e-09 8.25338e-10 2.20951e-09)
(1.98905e-11 -2.85394e-11 1.3908e-10)
(3.7073e-10 -2.02637e-10 2.91062e-10)
(6.00603e-10 -3.12087e-11 2.81286e-10)
(1.61366e-09 2.84757e-10 5.61964e-10)
(2.14685e-09 5.64906e-10 7.60784e-10)
(2.36167e-09 2.58473e-10 1.06082e-09)
(2.76994e-09 4.71953e-10 1.01936e-09)
(2.70867e-09 3.31649e-10 1.27166e-09)
(3.55737e-09 -4.16396e-10 1.66628e-09)
)
;

boundaryField
{
    inlet
    {
        type            calculated;
        value           uniform (0 0 0);
    }
    outlet
    {
        type            calculated;
        value           nonuniform 0();
    }
    wall
    {
        type            calculated;
        value           uniform (0 0 0);
    }
    procBoundary0to1
    {
        type            processor;
        value           uniform (0 0 0);
    }
    procBoundary0to2
    {
        type            processor;
        value           uniform (0 0 0);
    }
    procBoundary0to4
    {
        type            processor;
        value           uniform (0 0 0);
    }
    procBoundary0to6
    {
        type            processor;
        value           uniform (0 0 0);
    }
    procBoundary0to7
    {
        type            processor;
        value           uniform (0 0 0);
    }
}


// ************************************************************************* //
