/*--------------------------------*- C++ -*----------------------------------*\
| =========                 |                                                 |
| \\      /  F ield         | OpenFOAM: The Open Source CFD Toolbox           |
|  \\    /   O peration     | Version:  4.x                                   |
|   \\  /    A nd           | Web:      www.OpenFOAM.org                      |
|    \\/     M anipulation  |                                                 |
\*---------------------------------------------------------------------------*/
FoamFile
{
    version     2.0;
    format      ascii;
    class       volVectorField;
    location    "56";
    object      impParticleForces;
}
// * * * * * * * * * * * * * * * * * * * * * * * * * * * * * * * * * * * * * //

dimensions      [1 1 -2 0 0 0 0];

internalField   nonuniform List<vector> 
108
(
(0.00229683 -2.88563e-05 -5.40944e-05)
(0.00232387 -2.9606e-05 -5.39931e-05)
(0.00238257 -3.03157e-05 -5.30177e-05)
(0.00239106 -2.80739e-05 -5.00861e-05)
(0.00242375 -2.58356e-05 -4.6541e-05)
(0.0024066 -2.21214e-05 -4.21233e-05)
(0.00243623 -1.93786e-05 -3.74982e-05)
(0.00240264 -1.55907e-05 -3.23727e-05)
(0.00241987 -1.27413e-05 -2.70884e-05)
(0.00234525 -2.76547e-05 -5.49288e-05)
(0.00238031 -2.88241e-05 -5.4779e-05)
(0.00244434 -3.01285e-05 -5.37086e-05)
(0.00244725 -2.74874e-05 -5.07249e-05)
(0.00246692 -2.5061e-05 -4.67298e-05)
(0.00244088 -2.11093e-05 -4.20316e-05)
(0.00246013 -1.8502e-05 -3.73009e-05)
(0.0024195 -1.46629e-05 -3.23182e-05)
(0.00245239 -1.21116e-05 -2.74e-05)
(0.00236688 -2.00183e-05 -5.53034e-05)
(0.00241347 -2.12885e-05 -5.55035e-05)
(0.00245886 -2.1653e-05 -5.36666e-05)
(0.00245078 -1.95735e-05 -5.03751e-05)
(0.00246551 -1.79111e-05 -4.60805e-05)
(0.00243118 -1.4985e-05 -4.13972e-05)
(0.00244621 -1.2957e-05 -3.68961e-05)
(0.0024166 -1.0768e-05 -3.21529e-05)
(0.00241979 -8.7852e-06 -2.75368e-05)
(0.00235455 -7.90663e-06 -5.51079e-05)
(0.00240574 -8.45508e-06 -5.50116e-05)
(0.00245887 -8.48058e-06 -5.36162e-05)
(0.00243923 -7.84198e-06 -5.00814e-05)
(0.00246356 -7.52219e-06 -4.61225e-05)
(0.00243187 -6.6613e-06 -4.15364e-05)
(0.00245698 -6.04706e-06 -3.711e-05)
(0.00239777 -5.57457e-06 -3.23765e-05)
(0.002406 -5.08544e-06 -2.81354e-05)
(0.0022835 -2.83797e-05 -4.28962e-05)
(0.00230835 -2.8898e-05 -4.22585e-05)
(0.00236189 -2.90488e-05 -4.07205e-05)
(0.00238171 -2.7215e-05 -3.87627e-05)
(0.00241722 -2.49469e-05 -3.59019e-05)
(0.00238737 -2.12478e-05 -3.25606e-05)
(0.00240999 -1.85023e-05 -2.84611e-05)
(0.00240051 -1.56065e-05 -2.4446e-05)
(0.00242137 -1.32702e-05 -1.97768e-05)
(0.00233377 -2.74356e-05 -4.24925e-05)
(0.00236106 -2.79888e-05 -4.17486e-05)
(0.00241473 -2.84778e-05 -3.9786e-05)
(0.00241679 -2.5929e-05 -3.80878e-05)
(0.00244525 -2.38313e-05 -3.49161e-05)
(0.0024193 -2.01105e-05 -3.17839e-05)
(0.00244181 -1.77603e-05 -2.77705e-05)
(0.00242486 -1.49682e-05 -2.3975e-05)
(0.00244849 -1.29775e-05 -1.96479e-05)
(0.00234111 -1.93259e-05 -4.22728e-05)
(0.00238368 -2.03668e-05 -4.12752e-05)
(0.00244611 -2.1046e-05 -3.87388e-05)
(0.00243455 -1.89468e-05 -3.68808e-05)
(0.00246194 -1.7517e-05 -3.36065e-05)
(0.00242783 -1.48476e-05 -3.07527e-05)
(0.0024369 -1.29722e-05 -2.71435e-05)
(0.00240367 -1.10938e-05 -2.39672e-05)
(0.00242176 -9.79823e-06 -2.03435e-05)
(0.00235686 -7.97741e-06 -4.2018e-05)
(0.00239596 -8.23474e-06 -4.09177e-05)
(0.0024376 -8.20948e-06 -3.87171e-05)
(0.00243727 -7.73438e-06 -3.64583e-05)
(0.00246436 -7.55198e-06 -3.3087e-05)
(0.00242938 -6.97016e-06 -3.05393e-05)
(0.00245078 -6.60828e-06 -2.69066e-05)
(0.0023957 -6.36354e-06 -2.44901e-05)
(0.0024018 -6.26256e-06 -2.15213e-05)
(0.00226247 -2.7374e-05 -3.68453e-05)
(0.00227475 -2.74535e-05 -3.60552e-05)
(0.00230408 -2.69073e-05 -3.46604e-05)
(0.00232455 -2.50019e-05 -3.2934e-05)
(0.00236947 -2.30481e-05 -3.00107e-05)
(0.00236924 -2.0225e-05 -2.70509e-05)
(0.0023924 -1.77036e-05 -2.30321e-05)
(0.00237363 -1.5203e-05 -1.96375e-05)
(0.00238429 -1.31594e-05 -1.55163e-05)
(0.00229662 -2.57665e-05 -3.62869e-05)
(0.00232571 -2.64372e-05 -3.50956e-05)
(0.00236673 -2.642e-05 -3.31381e-05)
(0.00236394 -2.37784e-05 -3.17844e-05)
(0.00240151 -2.2014e-05 -2.88614e-05)
(0.00239142 -1.90639e-05 -2.62146e-05)
(0.00240111 -1.67603e-05 -2.26134e-05)
(0.00238335 -1.45273e-05 -1.95359e-05)
(0.00239364 -1.28721e-05 -1.59238e-05)
(0.00231658 -1.85354e-05 -3.57199e-05)
(0.00234006 -1.89417e-05 -3.44833e-05)
(0.00238832 -1.92831e-05 -3.2149e-05)
(0.00238237 -1.74901e-05 -3.06935e-05)
(0.0024129 -1.62869e-05 -2.77489e-05)
(0.00239321 -1.41712e-05 -2.54897e-05)
(0.0023984 -1.25563e-05 -2.22808e-05)
(0.00237733 -1.12245e-05 -1.96993e-05)
(0.0023771 -1.03034e-05 -1.68145e-05)
(0.00233637 -7.87017e-06 -3.52956e-05)
(0.0023454 -7.79463e-06 -3.42997e-05)
(0.00239013 -7.97583e-06 -3.20423e-05)
(0.00239411 -7.75896e-06 -3.02252e-05)
(0.00242411 -7.59011e-06 -2.7323e-05)
(0.00240016 -7.15889e-06 -2.52787e-05)
(0.00238726 -6.84163e-06 -2.28757e-05)
(0.00236223 -6.83667e-06 -2.07524e-05)
(0.00236747 -7.03279e-06 -1.82807e-05)
)
;

boundaryField
{
    inlet
    {
        type            zeroGradient;
    }
    outlet
    {
        type            zeroGradient;
    }
    wall
    {
        type            zeroGradient;
    }
    procBoundary4to0
    {
        type            processor;
        value           nonuniform List<vector> 
36
(
(0.00229938 -2.83853e-05 -6.72375e-05)
(0.00232941 -2.92936e-05 -6.76737e-05)
(0.00238751 -2.98829e-05 -6.73817e-05)
(0.00238642 -2.74405e-05 -6.28461e-05)
(0.00242404 -2.54425e-05 -5.89719e-05)
(0.00242319 -2.21622e-05 -5.36135e-05)
(0.00244108 -1.90711e-05 -4.81925e-05)
(0.00240737 -1.50056e-05 -4.19564e-05)
(0.00242314 -1.16124e-05 -3.64139e-05)
(0.00234335 -2.70297e-05 -6.93395e-05)
(0.00239432 -2.88517e-05 -7.07031e-05)
(0.00244619 -2.95105e-05 -6.98783e-05)
(0.00244593 -2.68285e-05 -6.52895e-05)
(0.00246396 -2.44332e-05 -6.03101e-05)
(0.0024487 -2.07507e-05 -5.40596e-05)
(0.00248447 -1.82722e-05 -4.90115e-05)
(0.00243641 -1.42359e-05 -4.23338e-05)
(0.00245109 -1.08311e-05 -3.68135e-05)
(0.00236369 -1.94092e-05 -7.03657e-05)
(0.0023981 -2.01028e-05 -7.09888e-05)
(0.00246344 -2.07664e-05 -7.08683e-05)
(0.00244891 -1.8809e-05 -6.54966e-05)
(0.00247546 -1.73595e-05 -6.0691e-05)
(0.00245387 -1.46747e-05 -5.39645e-05)
(0.00247105 -1.23229e-05 -4.82641e-05)
(0.00241678 -1.00573e-05 -4.14255e-05)
(0.00243349 -7.97384e-06 -3.58615e-05)
(0.0023623 -7.81977e-06 -7.03038e-05)
(0.00240739 -7.91384e-06 -7.15655e-05)
(0.00247399 -7.83347e-06 -7.1496e-05)
(0.0024644 -7.22429e-06 -6.6385e-05)
(0.00246757 -6.67888e-06 -6.06202e-05)
(0.00245601 -6.19181e-06 -5.42835e-05)
(0.00246719 -5.68859e-06 -4.83355e-05)
(0.0024106 -4.96732e-06 -4.14524e-05)
(0.00240459 -4.24798e-06 -3.56998e-05)
)
;
    }
    procBoundary4to5
    {
        type            processor;
        value           nonuniform List<vector> 
12
(
(0.00239219 -9.38266e-06 -2.23305e-05)
(0.00242024 -8.9832e-06 -2.26601e-05)
(0.00239913 -6.86642e-06 -2.32273e-05)
(0.00239331 -4.52788e-06 -2.43118e-05)
(0.00238651 -1.03435e-05 -1.63578e-05)
(0.0024041 -1.02717e-05 -1.64397e-05)
(0.00238772 -8.35647e-06 -1.74264e-05)
(0.00237856 -6.07086e-06 -1.88765e-05)
(0.00233636 -1.0722e-05 -1.29984e-05)
(0.00237138 -1.11505e-05 -1.30682e-05)
(0.00235492 -9.38906e-06 -1.43837e-05)
(0.00235029 -7.27324e-06 -1.61997e-05)
)
;
    }
    procBoundary4to6
    {
        type            processor;
        value           nonuniform List<vector> 
27
(
(0.00238961 5.03534e-06 -5.56673e-05)
(0.00241455 5.14813e-06 -5.51572e-05)
(0.00243842 5.32038e-06 -5.34233e-05)
(0.00243467 4.43607e-06 -5.02075e-05)
(0.00246237 3.70146e-06 -4.67573e-05)
(0.00242249 2.1553e-06 -4.19294e-05)
(0.00244219 9.06811e-07 -3.77025e-05)
(0.00239905 -3.74108e-07 -3.33262e-05)
(0.00242055 -1.55475e-06 -2.9493e-05)
(0.00236546 4.64936e-06 -4.16322e-05)
(0.00239436 5.09939e-06 -4.07907e-05)
(0.00243439 5.28369e-06 -3.86349e-05)
(0.00242076 4.11741e-06 -3.69032e-05)
(0.00243472 3.17495e-06 -3.41045e-05)
(0.00241744 1.62661e-06 -3.14098e-05)
(0.00243818 4.805e-07 -2.82731e-05)
(0.00238854 -1.19132e-06 -2.57634e-05)
(0.00241289 -2.40289e-06 -2.30748e-05)
(0.00232194 3.77594e-06 -3.53884e-05)
(0.00233378 3.85582e-06 -3.45873e-05)
(0.00238494 3.97023e-06 -3.23402e-05)
(0.00237704 2.95499e-06 -3.10002e-05)
(0.00239443 2.00123e-06 -2.85741e-05)
(0.002385 6.8536e-07 -2.64498e-05)
(0.00241418 -6.68056e-07 -2.35269e-05)
(0.00237035 -2.13573e-06 -2.19143e-05)
(0.00237106 -3.35767e-06 -1.9941e-05)
)
;
    }
}


// ************************************************************************* //
