/*--------------------------------*- C++ -*----------------------------------*\
| =========                 |                                                 |
| \\      /  F ield         | OpenFOAM: The Open Source CFD Toolbox           |
|  \\    /   O peration     | Version:  4.x                                   |
|   \\  /    A nd           | Web:      www.OpenFOAM.org                      |
|    \\/     M anipulation  |                                                 |
\*---------------------------------------------------------------------------*/
FoamFile
{
    version     2.0;
    format      ascii;
    class       volVectorField;
    location    "26.5";
    object      impParticleForces;
}
// * * * * * * * * * * * * * * * * * * * * * * * * * * * * * * * * * * * * * //

dimensions      [1 1 -2 0 0 0 0];

internalField   nonuniform List<vector> 
114
(
(0.00243692 9.03134e-06 6.52049e-06)
(0.00239588 3.95924e-06 1.81961e-05)
(0.00240199 -1.40055e-06 3.08327e-05)
(0.00234443 -8.83591e-06 4.13459e-05)
(0.00232535 -1.69307e-05 5.24882e-05)
(0.00223716 -2.83311e-05 5.73669e-05)
(0.00243035 1.00213e-05 -6.35809e-06)
(0.00244639 8.15477e-06 6.52426e-06)
(0.00240578 3.81295e-06 1.80755e-05)
(0.00242405 -2.37534e-07 3.10601e-05)
(0.00236546 -7.13307e-06 4.05817e-05)
(0.00235313 -1.26727e-05 5.20816e-05)
(0.00225628 -2.57464e-05 5.17535e-05)
(0.00244983 8.78739e-06 -1.8295e-05)
(0.00240915 9.34177e-06 -7.70733e-06)
(0.00242923 8.46842e-06 4.75208e-06)
(0.00238911 5.45263e-06 1.60482e-05)
(0.00238784 1.91222e-06 2.8054e-05)
(0.00234052 -2.07999e-06 3.64463e-05)
(0.00231333 -5.94863e-06 4.25503e-05)
(0.00224374 -1.43883e-05 4.0843e-05)
(0.00239663 -8.2625e-07 -1.83502e-05)
(0.00240455 1.87615e-06 -1.00175e-05)
(0.0023981 1.79367e-06 5.38164e-09)
(0.00240951 -1.52194e-07 1.13889e-05)
(0.00238727 -4.89204e-06 2.31821e-05)
(0.00241078 -1.05277e-05 3.62942e-05)
(0.00235615 -1.93123e-05 4.89996e-05)
(0.00233981 -2.8404e-05 6.1251e-05)
(0.00224296 -4.57638e-05 7.86086e-05)
(0.00242483 -1.08759e-06 -1.89025e-05)
(0.00243618 1.16743e-06 -1.10586e-05)
(0.00241481 1.35171e-06 -9.47611e-07)
(0.00243671 -4.46427e-07 1.09409e-05)
(0.00240281 -4.91118e-06 2.2455e-05)
(0.00242536 -1.00101e-05 3.57782e-05)
(0.00236106 -1.77635e-05 4.64641e-05)
(0.00236265 -2.60601e-05 6.03971e-05)
(0.00226294 -4.43964e-05 7.28088e-05)
(0.00240527 8.87362e-07 -1.94274e-05)
(0.00241013 2.3868e-06 -1.20908e-05)
(0.00238991 2.3799e-06 -2.95116e-06)
(0.00241285 7.85698e-07 8.27981e-06)
(0.00237459 -2.61583e-06 1.89217e-05)
(0.00238515 -7.36497e-06 3.0949e-05)
(0.0023319 -1.27712e-05 4.04416e-05)
(0.00231256 -1.81445e-05 4.92217e-05)
(0.00223348 -2.86123e-05 5.58884e-05)
(0.00239907 4.39334e-06 -2.10142e-05)
(0.00240258 5.31137e-06 -1.38271e-05)
(0.00239138 -5.62645e-06 -1.35601e-05)
(0.00241437 -4.44827e-06 -6.0782e-06)
(0.00239113 -4.77526e-06 2.58086e-06)
(0.00240969 -7.27087e-06 1.27019e-05)
(0.00239744 -1.1428e-05 2.3789e-05)
(0.00241483 -1.69287e-05 3.48694e-05)
(0.00237748 -2.64867e-05 4.84047e-05)
(0.00238926 -3.73856e-05 5.96236e-05)
(0.00226169 -5.46047e-05 7.90513e-05)
(0.00240811 -5.60621e-06 -1.38145e-05)
(0.00244798 -5.11385e-06 -6.63499e-06)
(0.00240693 -5.57186e-06 1.88246e-06)
(0.00243009 -8.01013e-06 1.18809e-05)
(0.00241253 -1.23645e-05 2.28694e-05)
(0.0024373 -1.76715e-05 3.45455e-05)
(0.00240452 -2.74964e-05 4.74122e-05)
(0.00239709 -3.55466e-05 5.81037e-05)
(0.00226931 -5.71819e-05 7.7234e-05)
(0.00239221 -3.28166e-06 -1.44866e-05)
(0.00241473 -2.94661e-06 -8.03605e-06)
(0.00239214 -3.72289e-06 -3.13278e-08)
(0.00240264 -5.77037e-06 9.09889e-06)
(0.00239314 -9.97778e-06 1.97251e-05)
(0.00240137 -1.46518e-05 3.02492e-05)
(0.00235371 -2.19697e-05 4.12873e-05)
(0.00234276 -3.02661e-05 5.19755e-05)
(0.00225006 -4.68562e-05 6.71547e-05)
(0.00237739 8.38015e-07 -1.62249e-05)
(0.00241994 9.57899e-07 -1.00971e-05)
(0.0023773 5.36439e-07 -3.32393e-06)
(0.00239259 -7.59083e-07 4.24892e-06)
(0.00233871 -7.41937e-06 -1.11122e-05)
(0.00236233 -6.98329e-06 -4.41983e-06)
(0.00234415 -7.8393e-06 3.23397e-06)
(0.00237191 -1.06615e-05 1.2199e-05)
(0.00236462 -1.49741e-05 2.21526e-05)
(0.00238635 -2.06422e-05 3.23668e-05)
(0.00236272 -3.07859e-05 4.52562e-05)
(0.0023858 -4.02352e-05 5.45137e-05)
(0.00225009 -5.71324e-05 7.00859e-05)
(0.00237164 -7.77148e-06 -1.1339e-05)
(0.00239947 -7.90306e-06 -4.69911e-06)
(0.00236717 -9.13169e-06 2.58609e-06)
(0.00238843 -1.15545e-05 1.13121e-05)
(0.00238091 -1.6159e-05 2.10245e-05)
(0.00239193 -2.10102e-05 3.1188e-05)
(0.00236699 -3.04445e-05 4.26043e-05)
(0.00237583 -3.82017e-05 5.26752e-05)
(0.00225463 -5.86103e-05 6.87638e-05)
(0.00235266 -5.15729e-06 -1.23481e-05)
(0.00237977 -5.54078e-06 -6.31471e-06)
(0.00236258 -6.84313e-06 7.1106e-07)
(0.00237138 -9.11994e-06 8.77242e-06)
(0.00235418 -1.30556e-05 1.81162e-05)
(0.00236988 -1.78258e-05 2.75859e-05)
(0.00232525 -2.44086e-05 3.7799e-05)
(0.00231461 -3.10167e-05 4.67534e-05)
(0.00222653 -4.7129e-05 6.17955e-05)
(0.00234225 -9.44281e-07 -1.39648e-05)
(0.0023657 -1.129e-06 -8.39288e-06)
(0.00234432 -2.06959e-06 -2.34067e-06)
(0.00235574 -3.67545e-06 4.50744e-06)
(0.00233263 -6.5147e-06 1.26933e-05)
(0.00232137 -8.68314e-06 2.05941e-05)
)
;

boundaryField
{
    inlet
    {
        type            zeroGradient;
    }
    outlet
    {
        type            zeroGradient;
    }
    wall
    {
        type            zeroGradient;
    }
    procBoundary5to1
    {
        type            processor;
        value           nonuniform List<vector> 
32
(
(0.00248585 2.03911e-05 1.89907e-07)
(0.00243621 1.27849e-05 1.20938e-05)
(0.00244249 6.42078e-06 2.35348e-05)
(0.00239432 -7.45693e-07 3.17179e-05)
(0.00236947 -7.81222e-06 4.08946e-05)
(0.0022547 -1.86776e-05 3.39312e-05)
(0.00246625 2.15014e-05 -1.10464e-05)
(0.00249971 1.76808e-05 8.70525e-07)
(0.00245975 1.16143e-05 1.3222e-05)
(0.00246907 6.46764e-06 2.59844e-05)
(0.00241166 -4.20347e-08 3.40704e-05)
(0.00239556 -4.67734e-06 4.24661e-05)
(0.0022676 -1.78217e-05 3.25585e-05)
(0.00247381 1.58028e-05 -2.21112e-05)
(0.00244565 1.69686e-05 -1.13053e-05)
(0.00248193 1.66129e-05 8.86185e-07)
(0.00243507 1.22757e-05 1.32481e-05)
(0.00244482 8.60675e-06 2.65018e-05)
(0.00238603 5.28765e-06 3.42035e-05)
(0.00236767 3.30384e-06 4.0758e-05)
(0.00226292 -6.03794e-06 2.93175e-05)
(0.00240483 7.4307e-06 -2.48911e-05)
(0.00241424 1.23681e-05 -1.60706e-05)
(0.00241407 1.21489e-05 -5.66292e-06)
(0.00241407 1.21489e-05 -5.66292e-06)
(0.00241407 1.21489e-05 -5.66292e-06)
(0.00243774 5.68374e-06 -2.59339e-05)
(0.00247286 9.69497e-06 -1.8654e-05)
(0.00247286 9.69497e-06 -1.8654e-05)
(0.00247286 9.69497e-06 -1.8654e-05)
(0.00241909 6.24959e-06 -2.5866e-05)
(0.00241909 6.24959e-06 -2.5866e-05)
)
;
    }
    procBoundary5to4
    {
        type            processor;
        value           nonuniform List<vector> 
12
(
(0.00242355 -4.92695e-06 -2.55365e-05)
(0.00245767 -4.59989e-06 -2.59411e-05)
(0.00242679 -1.56142e-06 -2.60237e-05)
(0.00241342 2.72608e-06 -2.77337e-05)
(0.00242547 -8.42226e-06 -1.94858e-05)
(0.00245214 -7.92481e-06 -1.96326e-05)
(0.00242667 -4.6274e-06 -2.0254e-05)
(0.00240401 -1.343e-07 -2.16118e-05)
(0.00238628 -9.48088e-06 -1.62283e-05)
(0.002395 -8.84519e-06 -1.65376e-05)
(0.00237741 -5.82259e-06 -1.73e-05)
(0.00236436 -1.30263e-06 -1.85779e-05)
)
;
    }
    procBoundary5to7
    {
        type            processor;
        value           nonuniform List<vector> 
44
(
(0.00244376 1.04928e-05 -1.92796e-05)
(0.00240367 1.0841e-05 -1.08686e-05)
(0.00241896 1.04689e-05 2.58723e-07)
(0.00239928 9.28954e-06 1.20185e-05)
(0.0024098 8.35477e-06 2.40358e-05)
(0.00233547 6.93301e-06 2.97339e-05)
(0.00230571 6.46062e-06 3.3265e-05)
(0.00223628 8.55108e-06 2.64809e-05)
(0.00242208 8.82364e-06 -2.68558e-05)
(0.00244376 1.04928e-05 -1.92796e-05)
(0.00237697 5.39406e-06 -5.99623e-06)
(0.0023961 4.37419e-06 3.86995e-06)
(0.00236122 2.91991e-06 1.36266e-05)
(0.00236711 8.51961e-07 2.4412e-05)
(0.00231428 -7.7153e-07 3.1151e-05)
(0.00229466 -1.07697e-06 3.68877e-05)
(0.0022153 -2.86872e-06 3.86286e-05)
(0.00238562 8.3261e-06 -2.29027e-05)
(0.00237697 5.39406e-06 -5.99623e-06)
(0.00242575 9.43957e-06 -1.62998e-05)
(0.00237697 5.39406e-06 -5.99623e-06)
(0.0023961 4.37419e-06 3.86995e-06)
(0.00234369 -2.44912e-06 1.33501e-05)
(0.00235358 -4.9577e-06 2.24566e-05)
(0.00230758 -7.85063e-06 3.03896e-05)
(0.00228855 -9.50916e-06 3.61271e-05)
(0.00220073 -1.39344e-05 4.53949e-05)
(0.00238417 5.89641e-06 -1.85262e-05)
(0.00241179 6.50235e-06 -1.32422e-05)
(0.00236518 6.14296e-06 -6.98681e-06)
(0.00234369 -2.44912e-06 1.33501e-05)
(0.00237876 5.77336e-06 -8.11152e-08)
(0.00234369 -2.44912e-06 1.33501e-05)
(0.00235358 -4.9577e-06 2.24566e-05)
(0.00227575 -1.21745e-05 2.87428e-05)
(0.00226662 -1.42509e-05 3.60442e-05)
(0.00217862 -2.13643e-05 4.45568e-05)
(0.00234962 4.30297e-06 -1.61817e-05)
(0.00236257 4.41217e-06 -1.16304e-05)
(0.00233421 4.02047e-06 -6.28514e-06)
(0.00235169 3.65444e-06 -5.67367e-07)
(0.00230843 2.87666e-06 6.17916e-06)
(0.00227575 -1.21745e-05 2.87428e-05)
(0.00230462 2.33162e-06 1.24647e-05)
)
;
    }
}


// ************************************************************************* //
