/*--------------------------------*- C++ -*----------------------------------*\
| =========                 |                                                 |
| \\      /  F ield         | OpenFOAM: The Open Source CFD Toolbox           |
|  \\    /   O peration     | Version:  4.x                                   |
|   \\  /    A nd           | Web:      www.OpenFOAM.org                      |
|    \\/     M anipulation  |                                                 |
\*---------------------------------------------------------------------------*/
FoamFile
{
    version     2.0;
    format      ascii;
    class       volScalarField;
    location    "26.5";
    object      KslNext;
}
// * * * * * * * * * * * * * * * * * * * * * * * * * * * * * * * * * * * * * //

dimensions      [1 -3 -1 0 0 0 0];

internalField   nonuniform List<scalar> 
114
(
3158.54
9894.42
3293.35
15038.5
3859.68
15008.2
34322.4
3520.21
63181.7
3461.8
61389.3
3496.52
29009.4
3899.35
138731
3962.53
1e+10
4002.88
182875
4283.79
9637.64
8327.32
3161.06
9246.04
3048.71
10540.9
2901.87
10061.7
2569.15
5589.17
47763.5
3644.45
817140
3657.84
66922.4
3637.91
32295.7
3638.12
6563.35
459329
3890.63
9.16694e+08
3923.01
92849.8
3972.43
23528.8
4290.81
13932.5
80611.7
3719.7
7057.12
3059.68
7181.27
2885.92
7065
2671.07
7393.97
2319.03
9521.95
16523.6
3401.02
18183.6
3223.42
18813.8
3007.6
13945.6
2610.22
6014.06
22516.7
3547.64
25062.6
3502.82
23530
3538.15
15683.5
3600.01
6570.11
93464.2
3584.21
1.56151e+06
3548.83
5113.46
2752.88
4983.32
2570.52
4904.37
2308.42
5312.41
1876.12
8552.78
6675.02
3016.19
6635.61
2824.45
6806.33
2619.12
7343.6
2295.85
8029.3
8024.94
3177.05
8819.43
3059.63
9479.78
2903.9
9601.08
2567.9
9826.39
9330.58
3219.39
9725.36
3139.15
11886.6
3058.34
)
;

boundaryField
{
    inlet
    {
        type            zeroGradient;
    }
    outlet
    {
        type            zeroGradient;
    }
    wall
    {
        type            zeroGradient;
    }
    procBoundary5to1
    {
        type            processor;
        value           uniform 0;
    }
    procBoundary5to4
    {
        type            processor;
        value           uniform 0;
    }
    procBoundary5to7
    {
        type            processor;
        value           uniform 0;
    }
}


// ************************************************************************* //
