/*--------------------------------*- C++ -*----------------------------------*\
| =========                 |                                                 |
| \\      /  F ield         | OpenFOAM: The Open Source CFD Toolbox           |
|  \\    /   O peration     | Version:  4.x                                   |
|   \\  /    A nd           | Web:      www.OpenFOAM.org                      |
|    \\/     M anipulation  |                                                 |
\*---------------------------------------------------------------------------*/
FoamFile
{
    version     2.0;
    format      ascii;
    class       volScalarField;
    location    "26.5";
    object      KslPrev;
}
// * * * * * * * * * * * * * * * * * * * * * * * * * * * * * * * * * * * * * //

dimensions      [1 -3 -1 0 0 0 0];

internalField   nonuniform List<scalar> 
114
(
3158.48
9893.85
3293.25
15036.5
3859.49
15013.6
34318.7
3520.2
63173.2
3461.74
61376.4
3496.43
29005.9
3899.3
138673
3962.5
1e+10
4002.74
182837
4283.9
9637.59
8327.34
3161.07
9246.05
3048.71
10541.3
2901.89
10061.4
2569.21
5588.86
47763.2
3644.49
814387
3657.89
66906
3637.99
32304.8
3638.09
6564.06
458656
3890.68
9.19013e+08
3923.17
92897.6
3972.7
23527.4
4291.21
13934.1
80609.6
3719.45
7057.13
3059.67
7181.29
2885.88
7064.87
2670.99
7393.58
2318.9
9519.54
16523.8
3401.03
18183.5
3223.42
18814.6
3007.6
13945.7
2610.24
6013.22
22515.6
3547.62
25060.9
3502.77
23528.5
3538.11
15684
3599.9
6570.23
93478.3
3584.2
1.56916e+06
3548.86
5113.5
2752.88
4983.4
2570.5
4904.37
2308.38
5312.31
1876.05
8551.51
6675.11
3016.2
6635.59
2824.44
6806.39
2619.11
7343.41
2295.82
8027.49
8024.84
3177.05
8819.43
3059.62
9479.87
2903.89
9600.78
2567.92
9826.08
9330.8
3219.41
9724.79
3139.16
11886.7
3058.38
)
;

boundaryField
{
    inlet
    {
        type            zeroGradient;
    }
    outlet
    {
        type            zeroGradient;
    }
    wall
    {
        type            zeroGradient;
    }
    procBoundary5to1
    {
        type            processor;
        value           uniform 0;
    }
    procBoundary5to4
    {
        type            processor;
        value           uniform 0;
    }
    procBoundary5to7
    {
        type            processor;
        value           uniform 0;
    }
}


// ************************************************************************* //
