/*--------------------------------*- C++ -*----------------------------------*\
| =========                 |                                                 |
| \\      /  F ield         | OpenFOAM: The Open Source CFD Toolbox           |
|  \\    /   O peration     | Version:  4.x                                   |
|   \\  /    A nd           | Web:      www.OpenFOAM.org                      |
|    \\/     M anipulation  |                                                 |
\*---------------------------------------------------------------------------*/
FoamFile
{
    version     2.0;
    format      ascii;
    class       volScalarField;
    location    "26.5";
    object      p;
}
// * * * * * * * * * * * * * * * * * * * * * * * * * * * * * * * * * * * * * //

dimensions      [1 -1 -2 0 0 0 0];

internalField   nonuniform List<scalar> 
114
(
69.1814
-18.2843
63.7408
-36.7311
58.0844
-53.1756
0.776191
69.047
-18.4673
63.3985
-37.5422
58.7667
-54.5932
75.1712
4.12161
68.7309
-13.6496
62.7426
-30.8908
55.2719
-46.6721
-1858.8
-1802.99
-1878.14
-1809.14
-1898.34
-1814.7
-1920
-1817.99
-1943.27
-1858.58
-1803.17
-1877.57
-1809.37
-1896.81
-1815.23
-1916.24
-1819.97
-1933.4
-1856.38
-1803.09
-1874.45
-1809.54
-1893.37
-1815.72
-1912.55
-1819.88
-1930.12
-1855.39
-1803.75
-3736.36
-3680.81
-3755.8
-3687.01
-3776.07
-3692.28
-3797.46
-3695.34
-3820.31
-3736.41
-3680.78
-3756.06
-3687.05
-3776.39
-3692.73
-3797.91
-3696.27
-3821.04
-3735.54
-3680.72
-3754.22
-3687.22
-3772.99
-3693.49
-3791.73
-3699.24
-3808.48
-3735.42
-3680.85
-3754.36
-3687.21
-5614.35
-5558.89
-5633.84
-5564.9
-5654.65
-5569.69
-5677.75
-5570.83
-5707.3
-5614.3
-5558.89
-5633.85
-5564.88
-5654.28
-5570.08
-5676.37
-5572.74
-5700.96
-5613.42
-5558.63
-5632.41
-5564.98
-5652.08
-5570.7
-5672.87
-5574.62
-5695.46
-5613.51
-5558.82
-5632.58
-5564.69
-5652.04
-5570.44
)
;

boundaryField
{
    inlet
    {
        type            calculated;
        value           nonuniform 0();
    }
    outlet
    {
        type            calculated;
        value           nonuniform List<scalar> 
12
(
0
0
0
-1877.91
-1877.91
-1877.91
-3755.83
-3755.83
-3755.83
-5633.74
-5633.74
-5633.74
)
;
    }
    wall
    {
        type            calculated;
        value           nonuniform List<scalar> 
66
(
-6553.31
-6553.25
-6552.37
-6552.47
-6497.85
-6497.85
-6497.59
-6497.77
-6572.8
-6572.8
-6571.36
-6571.53
-6503.86
-6503.83
-6503.93
-6503.63
-6593.6
-6593.23
-6591.02
-6590.97
-6508.63
-6509.02
-6509.63
-6509.36
-6616.69
-6615.3
-6611.79
-6509.77
-6511.67
-6513.53
-6650.81
-6639.7
-6634.21
-1858.8
-3736.36
-5614.35
-1802.99
-3680.81
-5558.89
-1878.14
-3755.8
-5633.84
69.1814
-1809.14
-3687.01
-5564.9
-18.2843
-1898.34
-3776.07
-5654.65
63.7408
-1814.7
-3692.28
-5569.69
-36.7311
-1920
-3797.46
-5677.75
58.0844
-1817.99
-3695.34
-5570.83
-53.1756
-1943.27
-3820.31
-5707.3
)
;
    }
    procBoundary5to1
    {
        type            processor;
        value           nonuniform List<scalar> 
32
(
1946.92
1857.17
1941.76
1836.38
1938.06
1815.87
1876.98
1946.91
1856.69
1941.11
1836.01
1937.59
1816.19
1952.67
1878.24
1946.57
1860.3
1940.72
1842.57
1935.36
1826.18
19.7404
75.2611
0.882321
0.882321
0.882321
19.9188
75.2595
75.2595
75.2595
22.0318
22.0318
)
;
    }
    procBoundary5to4
    {
        type            processor;
        value           nonuniform List<scalar> 
12
(
-1796.44
-1796.34
-1796.29
-1796.29
-3674.19
-3674
-3673.92
-3673.95
-5552.4
-5552.21
-5552.05
-5552.05
)
;
    }
    procBoundary5to7
    {
        type            processor;
        value           nonuniform List<scalar> 
44
(
74.8378
5.06925
69.1386
-14.5528
63.4728
-33.5748
58.1989
-51.3622
21.6631
74.8378
-1872.2
-1808.73
-1890.17
-1814.82
-1907.72
-1821.57
-1924.74
-1856.03
-1872.2
-1802.93
-1872.2
-1808.73
-3773.49
-3693.04
-3792.35
-3697.66
-3809.84
-3734.86
-3680.66
-3753.43
-3773.49
-3687.07
-3773.49
-3693.04
-5672.06
-5575.02
-5692.6
-5612.75
-5558.42
-5631.24
-5564.67
-5649.71
-5672.06
-5570.56
)
;
    }
}


// ************************************************************************* //
