/*--------------------------------*- C++ -*----------------------------------*\
| =========                 |                                                 |
| \\      /  F ield         | OpenFOAM: The Open Source CFD Toolbox           |
|  \\    /   O peration     | Version:  4.x                                   |
|   \\  /    A nd           | Web:      www.OpenFOAM.org                      |
|    \\/     M anipulation  |                                                 |
\*---------------------------------------------------------------------------*/
FoamFile
{
    version     2.0;
    format      ascii;
    class       volScalarField;
    location    "26.5";
    object      pSmooth;
}
// * * * * * * * * * * * * * * * * * * * * * * * * * * * * * * * * * * * * * //

dimensions      [1 -1 -2 0 0 0 0];

internalField   nonuniform List<scalar> 
114
(
68.9618
0.1
64.02
0.1
59.5422
0.1
2.82033
68.682
0.1
63.4512
0.1
59.1192
0.1
75.1063
4.20476
68.5923
0.1
63.1499
0.1
55.6291
0.1
19.4747
74.4589
2.59096
68.4824
0.1
63.0422
0.1
58.882
0.1
19.6802
75.2282
2.17714
67.4195
0.1
62.6848
0.1
56.4191
0.1
21.176
74.2417
5.39033
68.1185
0.1
62.7948
0.1
55.8944
0.1
20.9726
75.1602
19.8573
74.4297
2.24174
68.5489
0.1
63.5593
0.1
61.1245
0.1
19.7387
74.4365
1.9588
68.4186
0.1
62.8008
0.1
59.1161
0.1
20.5995
74.545
3.13595
68.3085
0.1
62.3752
0.1
57.0783
0.1
20.3087
75.0903
2.58678
68.0951
19.8573
74.3082
2.14348
68.502
0.1
63.8714
0.1
62.9141
0.1
19.8098
74.4044
1.83952
68.3991
0.1
63.2283
0.1
60.0976
0.1
20.5858
74.5545
2.94525
68.4851
0.1
62.917
0.1
58.74
0.1
20.2688
74.6179
2.5143
68.4238
0.1
62.5856
)
;

boundaryField
{
    inlet
    {
        type            zeroGradient;
    }
    outlet
    {
        type            fixedValue;
        value           uniform 0;
    }
    wall
    {
        type            zeroGradient;
    }
    procBoundary5to1
    {
        type            processor;
        value           nonuniform List<scalar> 
32
(
68.8325
0.1
63.812
0.1
60.3357
0.1
2.17188
68.7934
0.1
63.3749
0.1
59.6493
0.1
73.2458
2.73811
68.77
0.1
62.8378
0.1
56.9988
0.1
19.9831
74.6514
3.18507
3.18507
3.18507
19.9296
74.6107
74.6107
74.6107
20.4325
20.4325
)
;
    }
    procBoundary5to4
    {
        type            processor;
        value           nonuniform List<scalar> 
12
(
80.958
81.2696
81.3595
81.6916
80.9041
81.1301
81.1606
81.2475
80.6785
80.9719
81.0217
81.2265
)
;
    }
    procBoundary5to7
    {
        type            processor;
        value           nonuniform List<scalar> 
44
(
75.1591
2.45378
68.379
0.1
63.3521
0.1
57.7952
0.1
19.9747
75.1591
4.40928
67.6088
0.1
61.8354
0.1
55.843
0.1
21.7916
4.40928
74.7081
4.40928
67.6088
0.1
62.4408
0.1
56.9234
0.1
20.9566
74.5344
3.41101
0.1
68.3162
0.1
62.4408
0.1
57.4867
0.1
21.022
74.7137
3.71157
68.5697
0.1
0.1
62.7341
)
;
    }
}


// ************************************************************************* //
