/*--------------------------------*- C++ -*----------------------------------*\
| =========                 |                                                 |
| \\      /  F ield         | OpenFOAM: The Open Source CFD Toolbox           |
|  \\    /   O peration     | Version:  4.x                                   |
|   \\  /    A nd           | Web:      www.OpenFOAM.org                      |
|    \\/     M anipulation  |                                                 |
\*---------------------------------------------------------------------------*/
FoamFile
{
    version     2.0;
    format      ascii;
    class       volVectorField;
    location    "56.5";
    object      UsNext;
}
// * * * * * * * * * * * * * * * * * * * * * * * * * * * * * * * * * * * * * //

dimensions      [0 1 -1 0 0 0 0];

internalField   nonuniform List<vector> 
114
(
(-8.02164e-09 -8.53649e-10 1.43655e-09)
(-5.51704e-09 2.92495e-10 7.94269e-10)
(-4.16997e-09 2.11107e-10 3.18431e-10)
(-1.47564e-09 2.42969e-10 -2.855e-11)
(-8.70424e-10 3.68182e-10 -3.6756e-10)
(9.4893e-09 1.93749e-10 -1.14287e-09)
(-3.05557e-09 -5.63424e-09 6.84939e-09)
(-8.30801e-09 -2.14739e-09 3.4263e-09)
(-7.58008e-09 -1.02025e-09 1.41421e-09)
(-4.89459e-09 -1.40664e-10 3.31187e-10)
(-3.36983e-09 1.00285e-10 -1.02638e-10)
(-1.67796e-09 7.81833e-10 -5.39303e-10)
(-8.40809e-10 6.86175e-10 -4.47514e-10)
(2.64109e-09 -1.78905e-09 4.3009e-09)
(-2.89655e-09 -4.52503e-09 7.75509e-09)
(-7.96901e-09 -2.65973e-09 5.0877e-09)
(-7.89317e-09 -9.76343e-10 1.94494e-09)
(-6.19004e-09 -5.29613e-10 1.03401e-10)
(-4.25431e-09 -1.87927e-10 -5.19378e-10)
(-2.32293e-09 5.92008e-10 -6.07322e-10)
(-7.70592e-10 8.49035e-10 -2.21687e-10)
(3.57457e-09 -2.51193e-10 8.11011e-10)
(5.72685e-09 -8.70916e-10 1.797e-09)
(-1.38995e-09 -4.10075e-09 3.37682e-09)
(-4.52855e-09 -2.05865e-09 1.5251e-09)
(-3.90517e-09 -5.70209e-10 8.98513e-11)
(-1.86241e-09 -2.03892e-11 1.31889e-10)
(-1.23165e-09 1.39597e-10 -3.83806e-10)
(-2.31362e-10 1.95692e-10 -4.52697e-10)
(-2.84577e-10 4.67414e-10 -1.7557e-09)
(1.46706e-08 6.29057e-09 3.90832e-10)
(3.32899e-08 1.79858e-08 1.17919e-09)
(2.20316e-09 -6.23772e-09 6.08905e-09)
(-7.21071e-09 -4.35887e-09 4.49728e-09)
(-6.29953e-09 -2.03413e-09 1.57877e-09)
(-3.8765e-09 -5.04799e-10 9.45836e-11)
(-2.76056e-09 2.84291e-10 -5.8734e-10)
(-1.07677e-09 8.11125e-10 -6.5074e-10)
(3.08607e-10 5.12322e-10 -9.14814e-10)
(4.24374e-09 -1.19646e-09 1.71545e-09)
(4.73032e-09 -5.0805e-09 6.64966e-09)
(-3.42188e-10 -5.76415e-09 8.68443e-09)
(-6.78092e-09 -4.02319e-09 5.10429e-09)
(-6.37673e-09 -1.51178e-09 1.56979e-09)
(-5.18933e-09 -5.99465e-10 3.98085e-11)
(-3.66202e-09 1.48514e-10 -3.58136e-10)
(-1.99914e-09 6.93167e-10 -4.4046e-10)
(-5.04699e-10 6.69908e-10 -3.10432e-11)
(3.50263e-09 -1.21949e-09 2.20139e-09)
(3.24184e-09 -3.22617e-09 5.00286e-09)
(4.10368e-09 -1.126e-09 7.6481e-10)
(5.68967e-09 -1.72113e-09 2.36703e-09)
(1.18666e-09 -4.10645e-09 2.88255e-09)
(-8.00465e-09 -8.63199e-09 8.35217e-09)
(-3.7357e-09 -6.22537e-10 1.13627e-09)
(-2.33701e-09 2.95293e-10 4.04629e-10)
(-1.24114e-09 1.58844e-10 -5.67085e-10)
(-1.0177e-09 6.45544e-10 -9.26284e-10)
(1.82721e-09 3.72397e-10 -3.97226e-09)
(6.52856e-09 -1.98787e-09 1.04747e-09)
(8.53706e-09 -2.86583e-09 3.90565e-09)
(1.9575e-09 -7.56376e-09 5.76098e-09)
(-6.01057e-08 -2.56863e-08 6.12163e-09)
(-3.98329e-09 -1.0666e-09 1.79825e-09)
(-2.86971e-09 -6.94045e-10 -1.09929e-13)
(-1.99061e-09 5.8435e-10 -7.56412e-10)
(-1.07052e-09 1.3894e-09 -9.2648e-10)
(8.70098e-11 1.81657e-09 -1.08012e-09)
(5.11141e-09 -2.1144e-09 1.11621e-09)
(7.24621e-09 -3.93919e-09 5.02564e-09)
(1.27243e-09 -8.61541e-09 9.09364e-09)
(-7.96572e-09 -5.4809e-09 4.38148e-09)
(-6.10403e-09 -2.2315e-09 9.18083e-10)
(-4.78401e-09 -4.19305e-10 2.1796e-13)
(-3.08398e-09 1.39778e-10 -3.99586e-10)
(-1.58437e-09 8.21146e-10 -4.45483e-10)
(-7.78442e-10 1.11412e-09 -9.37178e-11)
(4.32568e-09 -1.1398e-09 1.00447e-09)
(6.04481e-09 -3.24668e-09 4.0933e-09)
(-9.117e-10 -5.4518e-09 8.17944e-09)
(-9.17986e-09 -2.84177e-09 2.52102e-09)
(3.85508e-09 2.90625e-10 7.06708e-11)
(5.00311e-09 -5.86778e-10 1.77879e-09)
(-1.95781e-09 4.25843e-10 4.26452e-09)
(-9.51992e-09 -4.52165e-09 6.14559e-09)
(-7.08923e-09 1.31826e-09 -7.17064e-10)
(-2.47493e-09 -2.54854e-11 1.58609e-10)
(-1.46443e-09 3.79259e-10 -2.60227e-10)
(-1.14461e-09 1.58919e-09 -1.53913e-09)
(9.67592e-10 3.95795e-09 -4.00574e-09)
(5.47774e-09 -5.42143e-10 -3.6281e-10)
(6.73056e-09 -1.11913e-09 2.57909e-09)
(-1.2704e-08 -1.24907e-09 8.92755e-09)
(-1.23451e-07 -4.04213e-08 7.04904e-09)
(-1.02525e-08 2.57738e-09 1.27832e-09)
(-1.81747e-09 -2.82793e-10 -3.49116e-10)
(-1.81414e-09 2.08528e-10 -4.08045e-10)
(-7.09256e-10 2.65189e-09 -5.43696e-10)
(7.83788e-10 6.08595e-09 -3.91273e-10)
(1.98839e-09 -5.77562e-10 -8.65981e-11)
(6.29803e-09 -1.39969e-09 2.58289e-09)
(1.41781e-09 -6.55167e-09 6.2132e-09)
(-2.79814e-08 -4.0251e-09 1.87277e-09)
(-6.79671e-09 -9.39725e-10 -2.07398e-10)
(-3.47637e-09 -1.01578e-10 -1.2263e-10)
(-2.04539e-09 1.265e-11 -3.22898e-10)
(-1.21179e-09 5.98854e-10 -8.21897e-11)
(-6.07003e-10 1.35764e-09 1.40586e-10)
(2.39594e-09 -6.22668e-10 2.3186e-10)
(6.30458e-09 -1.50866e-09 2.37358e-09)
(1.61484e-10 -9.31266e-09 4.5857e-09)
(-5.76762e-09 -2.35269e-09 2.67594e-09)
(-5.71366e-09 -1.27524e-09 9.53636e-11)
(-3.16023e-09 -6.06444e-10 -5.12594e-10)
)
;

boundaryField
{
    inlet
    {
        type            calculated;
        value           nonuniform 0();
    }
    outlet
    {
        type            calculated;
        value           nonuniform List<vector> 
12
(
(9.4893e-09 1.93749e-10 -1.14287e-09)
(-8.40809e-10 6.86175e-10 -4.47514e-10)
(-7.70592e-10 8.49035e-10 -2.21687e-10)
(-2.84577e-10 4.67414e-10 -1.7557e-09)
(3.08607e-10 5.12322e-10 -9.14814e-10)
(-5.04699e-10 6.69908e-10 -3.10432e-11)
(1.82721e-09 3.72397e-10 -3.97226e-09)
(8.70098e-11 1.81657e-09 -1.08012e-09)
(-7.78442e-10 1.11412e-09 -9.37178e-11)
(9.67592e-10 3.95795e-09 -4.00574e-09)
(7.83788e-10 6.08595e-09 -3.91273e-10)
(-6.07003e-10 1.35764e-09 1.40586e-10)
)
;
    }
    wall
    {
        type            calculated;
        value           nonuniform List<vector> 
66
(
(3.85508e-09 2.90625e-10 7.06708e-11)
(5.47774e-09 -5.42143e-10 -3.6281e-10)
(1.98839e-09 -5.77562e-10 -8.65981e-11)
(2.39594e-09 -6.22668e-10 2.3186e-10)
(5.00311e-09 -5.86778e-10 1.77879e-09)
(6.73056e-09 -1.11913e-09 2.57909e-09)
(6.29803e-09 -1.39969e-09 2.58289e-09)
(6.30458e-09 -1.50866e-09 2.37358e-09)
(-1.95781e-09 4.25843e-10 4.26452e-09)
(-1.2704e-08 -1.24907e-09 8.92755e-09)
(1.41781e-09 -6.55167e-09 6.2132e-09)
(1.61484e-10 -9.31266e-09 4.5857e-09)
(-9.51992e-09 -4.52165e-09 6.14559e-09)
(-1.23451e-07 -4.04213e-08 7.04904e-09)
(-2.79814e-08 -4.0251e-09 1.87277e-09)
(-5.76762e-09 -2.35269e-09 2.67594e-09)
(-7.08923e-09 1.31826e-09 -7.17064e-10)
(-1.02525e-08 2.57738e-09 1.27832e-09)
(-6.79671e-09 -9.39725e-10 -2.07398e-10)
(-5.71366e-09 -1.27524e-09 9.53636e-11)
(-2.47493e-09 -2.54854e-11 1.58609e-10)
(-1.81747e-09 -2.82793e-10 -3.49116e-10)
(-3.47637e-09 -1.01578e-10 -1.2263e-10)
(-3.16023e-09 -6.06444e-10 -5.12594e-10)
(-1.46443e-09 3.79259e-10 -2.60227e-10)
(-1.81414e-09 2.08528e-10 -4.08045e-10)
(-2.04539e-09 1.265e-11 -3.22898e-10)
(-1.14461e-09 1.58919e-09 -1.53913e-09)
(-7.09256e-10 2.65189e-09 -5.43696e-10)
(-1.21179e-09 5.98854e-10 -8.21897e-11)
(9.67592e-10 3.95795e-09 -4.00574e-09)
(7.83788e-10 6.08595e-09 -3.91273e-10)
(-6.07003e-10 1.35764e-09 1.40586e-10)
(3.57457e-09 -2.51193e-10 8.11011e-10)
(4.10368e-09 -1.126e-09 7.6481e-10)
(3.85508e-09 2.90625e-10 7.06708e-11)
(5.72685e-09 -8.70916e-10 1.797e-09)
(5.68967e-09 -1.72113e-09 2.36703e-09)
(5.00311e-09 -5.86778e-10 1.77879e-09)
(-1.38995e-09 -4.10075e-09 3.37682e-09)
(1.18666e-09 -4.10645e-09 2.88255e-09)
(-1.95781e-09 4.25843e-10 4.26452e-09)
(-8.02164e-09 -8.53649e-10 1.43655e-09)
(-4.52855e-09 -2.05865e-09 1.5251e-09)
(-8.00465e-09 -8.63199e-09 8.35217e-09)
(-9.51992e-09 -4.52165e-09 6.14559e-09)
(-5.51704e-09 2.92495e-10 7.94269e-10)
(-3.90517e-09 -5.70209e-10 8.98513e-11)
(-3.7357e-09 -6.22537e-10 1.13627e-09)
(-7.08923e-09 1.31826e-09 -7.17064e-10)
(-4.16997e-09 2.11107e-10 3.18431e-10)
(-1.86241e-09 -2.03892e-11 1.31889e-10)
(-2.33701e-09 2.95293e-10 4.04629e-10)
(-2.47493e-09 -2.54854e-11 1.58609e-10)
(-1.47564e-09 2.42969e-10 -2.855e-11)
(-1.23165e-09 1.39597e-10 -3.83806e-10)
(-1.24114e-09 1.58844e-10 -5.67085e-10)
(-1.46443e-09 3.79259e-10 -2.60227e-10)
(-8.70424e-10 3.68182e-10 -3.6756e-10)
(-2.31362e-10 1.95692e-10 -4.52697e-10)
(-1.0177e-09 6.45544e-10 -9.26284e-10)
(-1.14461e-09 1.58919e-09 -1.53913e-09)
(9.4893e-09 1.93749e-10 -1.14287e-09)
(-2.84577e-10 4.67414e-10 -1.7557e-09)
(1.82721e-09 3.72397e-10 -3.97226e-09)
(9.67592e-10 3.95795e-09 -4.00574e-09)
)
;
    }
    procBoundary5to1
    {
        type            processor;
        value           nonuniform List<vector> 
32
(
(-1.01146e-08 -1.35717e-09 2.11298e-09)
(-6.88347e-09 2.81169e-10 1.37117e-09)
(-3.53759e-09 4.45184e-10 3.17761e-10)
(-1.76072e-09 3.29746e-10 -1.09772e-10)
(-1.26092e-09 3.79045e-10 -6.17296e-10)
(-1.13801e-10 -9.36844e-11 -1.02822e-09)
(-4.71914e-09 -5.69164e-09 3.48136e-09)
(-9.71562e-09 -4.69546e-09 2.87334e-09)
(-7.58559e-09 -1.91511e-09 1.10761e-09)
(-4.69937e-09 2.79892e-10 -7.00457e-11)
(-2.5582e-09 3.36473e-10 -4.97006e-10)
(-1.57073e-09 3.03024e-10 -1.07233e-09)
(-6.8477e-10 1.86907e-10 -1.0653e-10)
(6.34698e-09 -3.95347e-09 4.89234e-09)
(-1.20113e-09 -1.24815e-09 3.52688e-09)
(-1.0565e-08 -3.21664e-09 5.65572e-09)
(-1.11338e-08 -1.42951e-09 1.17978e-09)
(-7.45722e-09 -4.83313e-10 -3.04739e-10)
(-3.67436e-09 -3.98853e-10 -8.62516e-10)
(-2.38867e-09 4.55793e-11 -9.6768e-10)
(-1.06142e-09 5.38008e-11 1.82284e-11)
(1.67345e-09 -6.88423e-10 9.32459e-10)
(4.76337e-09 4.17614e-10 9.10272e-10)
(-2.29985e-09 -2.2159e-09 2.3593e-09)
(-2.29985e-09 -2.2159e-09 2.3593e-09)
(-2.29985e-09 -2.2159e-09 2.3593e-09)
(2.89347e-09 -1.10959e-09 2.56333e-09)
(3.2163e-09 -2.00715e-09 5.28699e-09)
(3.2163e-09 -2.00715e-09 5.28699e-09)
(3.2163e-09 -2.00715e-09 5.28699e-09)
(4.20951e-09 -1.33462e-09 2.50055e-09)
(4.20951e-09 -1.33462e-09 2.50055e-09)
)
;
    }
    procBoundary5to4
    {
        type            processor;
        value           nonuniform List<vector> 
12
(
(2.13013e-09 -3.19471e-10 3.35296e-10)
(4.11501e-09 -1.82066e-09 6.53753e-10)
(3.76808e-09 -1.08327e-09 7.51988e-10)
(2.74462e-09 -4.08997e-10 9.37875e-10)
(2.25401e-09 1.63768e-10 4.12331e-10)
(3.2677e-09 -4.96301e-10 6.95229e-10)
(3.1389e-09 -1.45554e-09 4.7854e-10)
(2.33652e-09 -8.6172e-10 1.18118e-09)
(1.15923e-09 -5.65184e-12 -1.34117e-10)
(1.43323e-09 -4.4517e-10 2.94926e-12)
(1.67581e-09 -8.65394e-10 2.62598e-10)
(1.32888e-09 -3.13255e-10 6.87857e-11)
)
;
    }
    procBoundary5to7
    {
        type            processor;
        value           nonuniform List<vector> 
44
(
(4.37284e-09 -1.36462e-09 4.321e-09)
(-2.34853e-09 -2.45024e-09 6.41116e-09)
(-9.16596e-09 -1.18878e-09 4.75498e-09)
(-8.49069e-09 -1.23323e-09 2.26275e-09)
(-5.49606e-09 -2.59081e-10 7.16343e-10)
(-4.37891e-09 -3.89027e-10 -3.13348e-10)
(-2.58355e-09 2.15209e-10 -4.45714e-10)
(-5.55695e-10 3.35341e-10 -2.46141e-10)
(4.33547e-09 -6.8278e-10 2.25535e-09)
(4.37284e-09 -1.36462e-09 4.321e-09)
(-2.09935e-09 -4.49977e-09 7.15656e-09)
(-8.22989e-09 -2.58743e-09 4.03476e-09)
(-7.04079e-09 -1.2434e-09 1.30171e-09)
(-5.30345e-09 -7.05448e-10 2.36409e-10)
(-3.68064e-09 -6.67573e-11 -1.89893e-10)
(-1.9366e-09 4.25988e-10 -3.32388e-10)
(-3.28177e-10 5.77091e-10 3.34039e-10)
(3.40327e-09 -6.15506e-10 1.4104e-09)
(-2.09935e-09 -4.49977e-09 7.15656e-09)
(2.57562e-09 -2.01098e-09 3.07543e-09)
(-2.09935e-09 -4.49977e-09 7.15656e-09)
(-8.22989e-09 -2.58743e-09 4.03476e-09)
(-7.00872e-09 -1.38806e-09 4.67292e-10)
(-5.24826e-09 -7.22412e-10 -1.77033e-10)
(-3.22849e-09 1.11974e-10 -2.77687e-10)
(-1.81674e-09 3.9004e-10 -1.14562e-10)
(-4.2275e-10 4.98368e-10 5.74325e-10)
(3.34292e-09 -4.13455e-10 8.43191e-10)
(2.53798e-09 -1.88862e-09 3.54266e-09)
(-2.31232e-09 -2.14484e-10 6.67454e-09)
(-7.00872e-09 -1.38806e-09 4.67292e-10)
(-5.7632e-09 2.72155e-10 1.47283e-09)
(-7.00872e-09 -1.38806e-09 4.67292e-10)
(-5.24826e-09 -7.22412e-10 -1.77033e-10)
(-2.34722e-09 -1.53562e-10 -6.46145e-10)
(-1.53891e-09 3.02143e-10 -6.69694e-12)
(-7.64618e-10 6.94597e-10 1.16823e-09)
(2.4804e-09 7.41224e-10 3.08793e-10)
(3.27345e-09 -1.23783e-10 2.1391e-09)
(-6.17852e-10 -2.08467e-09 3.10887e-09)
(-4.79853e-09 -5.9682e-10 8.46431e-10)
(-4.3456e-09 -1.04941e-09 1.76258e-10)
(-2.34722e-09 -1.53562e-10 -6.46145e-10)
(-4.30659e-09 -1.04842e-09 -3.0936e-11)
)
;
    }
}


// ************************************************************************* //
