/*--------------------------------*- C++ -*----------------------------------*\
| =========                 |                                                 |
| \\      /  F ield         | OpenFOAM: The Open Source CFD Toolbox           |
|  \\    /   O peration     | Version:  4.x                                   |
|   \\  /    A nd           | Web:      www.OpenFOAM.org                      |
|    \\/     M anipulation  |                                                 |
\*---------------------------------------------------------------------------*/
FoamFile
{
    version     2.0;
    format      ascii;
    class       volScalarField;
    location    "16.5";
    object      Cs;
}
// * * * * * * * * * * * * * * * * * * * * * * * * * * * * * * * * * * * * * //

dimensions      [1 -3 0 0 0 0 0];

internalField   nonuniform List<scalar> 
114
(
334.925
334.895
334.859
334.852
334.826
334.632
334.946
334.926
334.938
334.948
334.982
334.979
335.15
334.942
334.938
334.946
334.969
335
335.038
335.067
335.283
334.98
334.973
334.961
334.942
334.925
334.899
334.891
334.871
334.865
334.966
334.965
334.973
334.985
335.015
335.024
335.052
335.021
335.108
334.958
334.957
334.967
334.987
335.019
335.05
335.081
335.086
335.347
334.951
334.952
334.986
334.981
334.973
334.963
334.953
334.94
334.938
334.93
335.029
334.972
334.968
334.968
334.974
334.984
334.994
335.01
335.004
335.116
334.968
334.963
334.963
334.969
334.981
334.996
335.018
335.023
335.125
334.96
334.955
334.96
334.975
334.988
334.983
334.977
334.969
334.96
334.952
334.944
334.939
338.137
334.984
334.978
334.971
334.963
334.955
334.948
334.944
334.94
334.971
334.981
334.974
334.967
334.959
334.951
334.944
334.941
334.938
334.998
334.977
334.969
334.962
334.955
334.949
334.944
)
;

boundaryField
{
    inlet
    {
        type            calculated;
        value           nonuniform 0();
    }
    outlet
    {
        type            calculated;
        value           uniform 335;
    }
    wall
    {
        type            calculated;
        value           nonuniform List<scalar> 
66
(
334.988
334.984
334.981
334.977
334.983
334.978
334.974
334.969
334.977
334.971
334.967
334.962
334.969
334.963
334.959
334.955
334.96
334.955
334.951
334.949
334.952
334.948
334.944
334.944
334.944
334.944
334.941
334.939
334.94
334.938
338.137
334.971
334.998
334.98
334.986
334.988
334.973
334.981
334.983
334.961
334.973
334.977
334.925
334.942
334.963
334.969
334.895
334.925
334.953
334.96
334.859
334.899
334.94
334.952
334.852
334.891
334.938
334.944
334.826
334.871
334.93
334.939
334.632
334.865
335.029
338.137
)
;
    }
    procBoundary5to1
    {
        type            processor;
        value           nonuniform List<scalar> 
32
(
334.882
334.84
334.803
334.794
334.773
334.635
334.758
334.789
334.841
334.877
334.938
334.941
335.146
334.918
334.912
334.924
334.968
335.016
335.065
335.088
335.201
334.98
334.973
334.955
334.955
334.955
334.984
334.965
334.965
334.965
334.951
334.951
)
;
    }
    procBoundary5to4
    {
        type            processor;
        value           nonuniform List<scalar> 
12
(
334.985
334.969
334.964
334.959
334.991
334.979
334.975
334.97
334.992
334.989
334.987
334.983
)
;
    }
    procBoundary5to7
    {
        type            processor;
        value           nonuniform List<scalar> 
44
(
334.923
334.922
334.932
334.956
334.988
335.025
335.061
335.281
334.935
334.923
334.966
334.989
335.021
335.054
335.08
335.093
335.326
334.952
334.966
334.958
334.966
334.989
335.001
335.031
335.063
335.069
335.182
334.965
334.961
334.963
335.001
334.97
335.001
335.031
334.944
334.944
335.085
334.978
334.97
334.96
334.951
334.943
334.944
334.942
)
;
    }
}


// ************************************************************************* //
