/*--------------------------------*- C++ -*----------------------------------*\
| =========                 |                                                 |
| \\      /  F ield         | OpenFOAM: The Open Source CFD Toolbox           |
|  \\    /   O peration     | Version:  4.x                                   |
|   \\  /    A nd           | Web:      www.OpenFOAM.org                      |
|    \\/     M anipulation  |                                                 |
\*---------------------------------------------------------------------------*/
FoamFile
{
    version     2.0;
    format      ascii;
    class       volVectorField;
    location    "16.5";
    object      GField;
}
// * * * * * * * * * * * * * * * * * * * * * * * * * * * * * * * * * * * * * //

dimensions      [1 -2 -1 0 0 0 0];

internalField   nonuniform List<vector> 
114
(
(109.081 2.4091 6.46206)
(42.3825 -2.99111 1.64596)
(124.632 5.27655 9.29185)
(39.8103 -9.84392 -4.52537)
(154.288 11.1392 15.2997)
(30.5658 -38.5946 -30.9842)
(5.01703 1.22494 5.11129)
(90.801 1.09354 8.22665)
(14.3377 -1.02451 0.694815)
(96.0768 2.5435 4.9501)
(20.6507 -8.2452 -6.74283)
(91.3263 7.56514 5.42036)
(28.9561 -43.1541 -26.9988)
(79.8062 1.48555 6.42775)
(-0.945175 0.736884 4.19356)
(87.707 1.12412 6.2578)
(0.921104 -0.207114 2.05687)
(91.5511 3.93307 3.20899)
(-0.251199 0.0455049 0.877749)
(89.1133 9.39148 2.69635)
(8.50955 -5.82276 -4.02442)
(25.6398 -2.23088 2.4974)
(87.5692 -1.20528 5.07121)
(27.6729 -1.88282 3.53222)
(94.7929 1.73991 7.28286)
(25.7876 -3.30422 2.98384)
(97.2467 5.09897 9.90676)
(17.4717 -4.94463 2.65946)
(84.3134 10.3123 11.0764)
(7.90245 -3.14987 2.0386)
(-11.4156 0.372829 3.67643)
(72.0004 2.7704 6.42359)
(-10.4426 1.34792 4.53139)
(76.3117 2.78925 6.60213)
(-5.37799 0.934449 2.84648)
(74.5564 5.69181 5.39255)
(-0.938718 0.089656 0.944122)
(60.5484 10.537 7.07281)
(6.06528 -0.810358 -1.41735)
(-17.0653 1.5627 3.54062)
(70.5287 3.36094 7.26215)
(-10.9859 2.04294 3.97274)
(75.8522 2.5274 5.58413)
(-6.18888 1.56079 2.67204)
(78.8666 3.41884 3.49326)
(-0.921882 0.62321 0.757244)
(80.4675 7.6894 4.04427)
(10.6677 3.5634 -4.9659)
(-16.0212 1.70933 2.46107)
(68.0835 1.35143 5.71502)
(33.9912 -1.88754 1.97085)
(92.7755 -0.434749 4.15934)
(38.983 -2.741 4.18967)
(105.199 2.29694 5.83219)
(43.3871 -5.5027 7.7163)
(122.69 5.07332 7.41382)
(44.7844 -13.7887 19.1416)
(153.56 12.5641 3.17865)
(31.1577 -47.2725 49.5806)
(-3.40272 -0.0609685 2.45844)
(77.0275 0.492832 5.54394)
(1.5871 -0.289136 3.16847)
(84.7828 1.00071 3.9809)
(11.6544 -2.7688 3.46559)
(91.56 2.77281 2.16561)
(21.569 -10.7858 7.18605)
(91.8908 10.2441 -0.023376)
(32.7058 -52.1708 21.3964)
(-2.4853 -0.592766 2.7916)
(77.8805 -0.177024 3.17491)
(3.5491 -1.3009 3.67911)
(84.7179 -0.0187421 3.35469)
(8.50589 -3.27954 3.67279)
(88.8835 1.58502 -0.461931)
(12.1344 -7.42361 3.98267)
(83.5248 8.60602 -7.50032)
(18.6013 -14.4194 2.42192)
(-4.30027 0.410975 2.29834)
(69.0825 0.533102 4.21734)
(-5.18545 1.07817 2.16943)
(70.4103 1.12969 3.35882)
(46.7446 -1.44691 -0.260189)
(98.5969 0.00521298 0.620448)
(51.676 -2.26003 -0.889553)
(111.011 1.04538 0.220937)
(56.9835 -5.97132 -1.09822)
(134.516 3.15521 0.316227)
(60.4093 -16.1668 1.22361)
(192.897 7.98056 0.4512)
(48.0385 -69.1719 2.92733)
(36.2267 -1.21654 0.837455)
(90.4742 -0.244147 1.60195)
(42.7507 -2.58713 0.315362)
(99.0306 -0.18237 -0.703618)
(47.096 -6.4051 -0.838871)
(106.505 0.471681 -1.42812)
(49.6541 -17.9965 -0.592235)
(112.956 6.84239 -1.48893)
(50.1923 -76.6559 3.94584)
(28.8646 -1.76174 0.727729)
(86.725 0.285311 1.21041)
(32.2339 -3.16848 0.377279)
(93.6706 0.110487 0.777011)
(36.0865 -6.11841 -0.000524926)
(99.2479 0.816932 0.233067)
(34.8555 -11.3005 0.281904)
(99.48 4.79963 0.888337)
(27.3216 -16.4912 1.88923)
(20.846 -0.825387 2.28393)
(80.3666 0.409873 3.33286)
(27.3376 -1.44927 2.66722)
(84.4448 -0.076089 1.44109)
(31.3201 -3.67022 2.60377)
(85.2102 0.913643 0.677444)
)
;

boundaryField
{
    inlet
    {
        type            calculated;
        value           nonuniform 0();
    }
    outlet
    {
        type            calculated;
        value           nonuniform List<vector> 
12
(
(67.1397 -84.7754 -68.0588)
(63.6268 -94.8249 -59.326)
(18.7604 -12.837 -8.87234)
(17.3555 -6.91779 4.4772)
(13.3855 -1.78838 -3.12795)
(23.5604 7.87001 -10.9675)
(68.5752 -104.042 109.122)
(72.0689 -114.961 47.148)
(41.4692 -32.1462 5.39935)
(104.501 -150.473 6.36798)
(110.539 -168.82 8.68996)
(60.5609 -36.5543 4.18765)
)
;
    }
    wall
    {
        type            calculated;
        value           uniform (0 0 0);
    }
    procBoundary5to1
    {
        type            processor;
        value           nonuniform List<vector> 
32
(
(106.58 0.962314 9.01993)
(41.058 -2.80965 7.3733)
(122.355 3.06579 14.2761)
(42.5692 -8.98317 8.54114)
(158.172 7.84579 22.1746)
(31.899 -36.2106 5.75345)
(6.46076 1.10795 7.97297)
(90.6975 0.30659 11.6541)
(10.4211 -1.54268 3.95189)
(96.2542 1.57421 9.69744)
(21.4528 -10.0387 -0.0779346)
(97.3468 9.14451 15.1046)
(35.0561 -50.0086 -13.988)
(73.9017 5.57247 10.046)
(-6.15651 3.6426 5.72241)
(81.8214 3.91684 6.75113)
(-1.5993 1.91635 3.09133)
(85.3223 1.71391 1.80628)
(2.29971 0.128214 1.52418)
(79.9936 5.77383 10.5967)
(7.57319 -2.18959 -1.31088)
(30.9433 -1.61505 4.64725)
(96.1654 -0.629938 5.04901)
(40.5318 -0.86488 4.13485)
(40.5318 -0.86488 4.13485)
(40.5318 -0.86488 4.13485)
(-4.14299 1.04517 5.84988)
(80.5097 0.0481007 8.43261)
(80.5097 0.0481007 8.43261)
(80.5097 0.0481007 8.43261)
(-4.28764 0.821757 4.25376)
(-4.28764 0.821757 4.25376)
)
;
    }
    procBoundary5to4
    {
        type            processor;
        value           nonuniform List<vector> 
12
(
(78.6988 -3.21617 0.144765)
(68.4508 -3.48101 2.49835)
(66.6838 -1.08045 3.10657)
(64.5069 3.21059 2.75637)
(84.9354 -1.36587 1.3933)
(72.5115 -0.709624 4.47704)
(72.694 -0.793944 5.3987)
(68.1796 0.0429361 6.43717)
(91.5389 -1.0559 0.344085)
(84.3477 -0.673129 1.17303)
(81.1346 0.116339 0.962637)
(75.8725 0.175507 2.83158)
)
;
    }
    procBoundary5to7
    {
        type            processor;
        value           nonuniform List<vector> 
44
(
(72.2528 3.76635 5.81602)
(-4.67453 2.94826 3.01601)
(76.2839 2.83685 5.2131)
(-5.45665 2.16788 2.508)
(76.906 2.43833 4.8536)
(-1.07105 0.93236 0.739629)
(76.5129 3.72368 4.91739)
(8.75015 0.638263 -3.26161)
(-5.65515 2.72381 2.52058)
(72.2528 3.76635 5.81602)
(-10.7482 2.20976 3.09709)
(73.9125 2.07877 5.46175)
(-6.03111 1.60507 2.09618)
(80.0328 4.11608 2.27552)
(-0.729537 0.384557 0.423428)
(85.682 7.83661 5.93048)
(13.2406 -4.32168 -8.23228)
(-15.8016 1.51443 1.5884)
(-10.7482 2.20976 3.09709)
(65.5883 0.392089 4.09586)
(-10.7482 2.20976 3.09709)
(73.9125 2.07877 5.46175)
(-3.36039 0.848514 1.36495)
(69.5856 1.85078 1.0373)
(-1.38952 0.355622 0.487036)
(62.0855 5.49339 -2.03136)
(18.8789 -3.12994 -8.17395)
(-4.14593 1.49063 1.76929)
(74.925 3.14986 2.60811)
(-4.41584 2.01782 2.03795)
(-3.36039 0.848514 1.36495)
(79.917 2.28831 1.80891)
(-3.36039 0.848514 1.36495)
(69.5856 1.85078 1.0373)
(33.2971 -9.06517 3.6396)
(81.4134 6.72696 -1.70476)
(34.9063 -16.2873 3.36865)
(16.6421 0.733216 0.660424)
(80.6121 0.733933 1.71556)
(19.5827 1.36864 0.109342)
(83.2079 0.71852 0.738508)
(19.2163 1.49411 -0.720346)
(33.2971 -9.06517 3.6396)
(81.4159 -0.146105 1.2008)
)
;
    }
}


// ************************************************************************* //
