/*--------------------------------*- C++ -*----------------------------------*\
| =========                 |                                                 |
| \\      /  F ield         | OpenFOAM: The Open Source CFD Toolbox           |
|  \\    /   O peration     | Version:  4.x                                   |
|   \\  /    A nd           | Web:      www.OpenFOAM.org                      |
|    \\/     M anipulation  |                                                 |
\*---------------------------------------------------------------------------*/
FoamFile
{
    version     2.0;
    format      ascii;
    class       volScalarField;
    location    "16.5";
    object      SPartFluid;
}
// * * * * * * * * * * * * * * * * * * * * * * * * * * * * * * * * * * * * * //

dimensions      [1 -3 -1 0 0 0 0];

internalField   nonuniform List<scalar> 
114
(
6.83858e-65
8.0776e-65
6.3658e-65
6.75186e-65
7.60415e-65
8.45707e-65
6.84021e-65
5.67144e-65
5.82403e-65
6.67516e-65
8.22576e-65
8.53472e-65
7.91359e-65
8.47082e-65
6.05996e-65
7.53315e-65
5.74486e-65
4.57864e-65
7.2935e-65
5.43062e-65
8.68878e-65
6.3654e-65
4.81465e-65
6.98961e-65
5.43558e-65
6.4433e-65
6.82951e-65
7.13865e-65
5.66338e-65
5.97342e-65
7.06382e-65
6.83351e-65
8.5415e-65
7.1426e-65
8.3827e-65
8.14818e-65
5.27619e-65
8.61113e-65
6.90409e-65
8.22441e-65
4.57933e-65
7.29698e-65
7.60678e-65
6.20829e-65
7.06074e-65
7.13738e-65
6.90388e-65
5.58504e-65
1.00058e-64
4.3448e-65
6.67214e-65
8.2263e-65
6.75251e-65
7.37338e-65
6.98461e-65
6.90594e-65
6.67212e-65
7.29205e-65
6.59354e-65
5.43002e-65
8.38133e-65
6.05311e-65
7.13976e-65
7.13928e-65
7.06077e-65
9.15435e-65
6.43839e-65
5.50723e-65
6.90251e-65
6.36114e-65
6.90562e-65
6.05224e-65
1.00867e-64
7.37047e-65
8.22283e-65
8.92002e-65
8.68676e-65
4.80755e-65
9.38493e-65
8.99841e-65
7.99064e-65
2.63711e-65
6.90489e-65
4.57807e-65
7.13938e-65
6.05247e-65
4.96562e-65
6.982e-65
6.28328e-65
6.05019e-65
6.35877e-65
6.59386e-65
4.3452e-65
5.66434e-65
7.44865e-65
6.51704e-65
4.57691e-65
7.05861e-65
6.04987e-65
6.12538e-65
6.43781e-65
8.53373e-65
6.98248e-65
5.89623e-65
8.068e-65
6.5159e-65
6.74795e-65
6.82504e-65
7.36561e-65
5.66169e-65
7.13631e-65
5.5853e-65
9.69685e-65
7.75704e-65
)
;

boundaryField
{
    inlet
    {
        type            calculated;
        value           nonuniform 0();
    }
    outlet
    {
        type            calculated;
        value           uniform 0;
    }
    wall
    {
        type            calculated;
        value           uniform 0;
    }
    procBoundary5to1
    {
        type            processor;
        value           nonuniform List<scalar> 
32
(
8.01311e-65
5.75108e-65
8.46502e-65
7.06429e-65
5.74281e-65
4.19012e-65
5.68749e-65
6.14431e-65
6.99285e-65
6.98901e-65
6.59754e-65
7.21696e-65
4.42268e-65
6.38794e-65
5.13625e-65
9.09503e-65
8.31132e-65
8.77251e-65
6.82942e-65
7.9145e-65
3.49148e-65
6.61125e-65
5.28998e-65
8.08734e-65
8.08734e-65
8.08734e-65
7.07883e-65
1.00349e-64
1.00349e-64
1.00349e-64
5.75131e-65
5.75131e-65
)
;
    }
    procBoundary5to4
    {
        type            processor;
        value           nonuniform List<scalar> 
12
(
8.91686e-65
9.07188e-65
5.65911e-65
5.96774e-65
8.21735e-65
8.13905e-65
6.82044e-65
6.8194e-65
7.20836e-65
7.59571e-65
6.27737e-65
6.35476e-65
)
;
    }
    procBoundary5to7
    {
        type            processor;
        value           nonuniform List<scalar> 
44
(
7.84242e-65
6.44357e-65
6.75339e-65
1.03226e-64
1.03976e-64
7.99079e-65
5.66278e-65
8.37778e-65
9.9353e-65
7.84242e-65
6.44089e-65
7.37184e-65
6.75071e-65
6.90472e-65
8.61055e-65
8.45458e-65
7.36835e-65
3.95445e-65
6.44089e-65
8.53237e-65
6.44089e-65
7.37184e-65
5.04272e-65
5.81785e-65
7.36867e-65
6.04964e-65
5.81658e-65
8.06272e-65
7.3675e-65
6.82553e-65
5.04272e-65
5.19723e-65
5.04272e-65
5.81785e-65
5.50689e-65
6.4371e-65
6.12651e-65
6.89956e-65
5.81601e-65
7.67831e-65
7.44633e-65
5.19691e-65
5.50689e-65
3.87807e-65
)
;
    }
}


// ************************************************************************* //
