/*--------------------------------*- C++ -*----------------------------------*\
| =========                 |                                                 |
| \\      /  F ield         | OpenFOAM: The Open Source CFD Toolbox           |
|  \\    /   O peration     | Version:  4.x                                   |
|   \\  /    A nd           | Web:      www.OpenFOAM.org                      |
|    \\/     M anipulation  |                                                 |
\*---------------------------------------------------------------------------*/
FoamFile
{
    version     2.0;
    format      ascii;
    class       volScalarField;
    location    "55.5";
    object      alpha.iron;
}
// * * * * * * * * * * * * * * * * * * * * * * * * * * * * * * * * * * * * * //

dimensions      [0 0 0 0 0 0 0];

internalField   nonuniform List<scalar> 
132
(
1
1
1
1
0.999999
1
0.999999
0.999999
0.99999
1
1
1
1
1
1
0.999999
0.999999
0.999984
1
1
1
1
1
1
1
1
0.999964
1
1
1
1
1
1
1
1
0.99993
1
1
1
1
0.999999
0.999999
0.999977
1
1
1
1
1
0.999999
0.999999
0.999998
0.999888
1
1
1
1
1
1
0.999999
0.999999
0.999991
1
1
1
1
1
1
1
1
0.999997
1
1
1
1
0.999984
1
1
1
1
1
1
1
1
0.999969
1
1
1
1
1
1
1
1
0.9999
1
1
1
1
1
1
1
1
0.996767
1
1
0.999451
1
1
1
1
1
1
1
1
0.999634
1
1
1
1
1
1
1
1
0.99865
1
1
1
1
1
1
1
1
0.999645
)
;

boundaryField
{
    inlet
    {
        type            fixedValue;
        value           nonuniform 0();
    }
    outlet
    {
        type            fixedValue;
        value           uniform 1;
    }
    wall
    {
        type            zeroGradient;
    }
    procBoundary7to0
    {
        type            processor;
        value           uniform 1;
    }
    procBoundary7to1
    {
        type            processor;
        value           uniform 1;
    }
    procBoundary7to3
    {
        type            processor;
        value           nonuniform List<scalar> 
36
(
1
1
1
1
1
1
1
0.999999
0.999991
1
1
1
1
1
1
0.999999
0.999999
0.999994
1
1
1
1
1
1
1
1
0.999981
1
1
1
1
1
1
1
1
0.99992
)
;
    }
    procBoundary7to5
    {
        type            processor;
        value           nonuniform List<scalar> 
44
(
0.999999
1
1
1
1
0.999999
0.999998
0.999965
1
1
1
1
1
1
0.999999
0.999999
0.999987
1
1
1
1
1
1
1
1
1
0.999987
1
1
1
1
1
1
1
1
1
0.999269
1
1
1
1
1
1
1
)
;
    }
    procBoundary7to6
    {
        type            processor;
        value           nonuniform List<scalar> 
12
(
1
1
1
1
1
1
1
1
1
1
1
1
)
;
    }
}


// ************************************************************************* //
