/*--------------------------------*- C++ -*----------------------------------*\
| =========                 |                                                 |
| \\      /  F ield         | OpenFOAM: The Open Source CFD Toolbox           |
|  \\    /   O peration     | Version:  4.x                                   |
|   \\  /    A nd           | Web:      www.OpenFOAM.org                      |
|    \\/     M anipulation  |                                                 |
\*---------------------------------------------------------------------------*/
FoamFile
{
    version     2.0;
    format      ascii;
    class       volScalarField;
    location    "55.5";
    object      magGField;
}
// * * * * * * * * * * * * * * * * * * * * * * * * * * * * * * * * * * * * * //

dimensions      [1 -2 -1 0 0 0 0];

internalField   nonuniform List<scalar> 
132
(
6.38413
88.7156
4.6764
88.5043
1.52968
86.2719
0.94651
75.6611
12.4905
1.17077
87.0242
8.44627e-05
85.3343
2.29266
81.9313
14.0861
74.0919
42.7431
28.8791
99.8299
28.7277
104.463
28.7399
110.324
29.1898
119.547
36.363
51.0878
109.421
49.8254
112.915
46.0967
116.258
37.5302
123.048
32.2909
2.76924e-05
83.8017
4.93708e-05
82.0573
1.94305e-05
73.3103
17.2523
8.7226e-05
81.2488
3.7154e-05
82.3338
4.02091e-05
83.0829
1.64219e-05
82.0432
10.8545
0.141004
84.9308
6.42933e-05
81.7902
3.90782e-05
74.0074
1.97638e-05
57.7359
10.5353
25.2343
91.0077
12.4005
86.4239
0.65811
78.0149
1.28724e-05
60.935
8.49109
7.12134
93.2524
14.3205
88.8612
44.0237
1.71939
86.2619
3.10258e-05
85.6251
1.38615
83.8006
8.91242
77.2784
36.8945
22.8802
95.3762
22.6996
101.758
25.6183
112.992
30.8904
133.916
44.0859
50.806
105.181
49.5451
108.206
46.7006
115.715
40.807
133.196
32.8807
37.4395
127.423
37.2904
35.1227
96.0856
30.6952
94.7479
25.199
92.6957
17.8543
86.2919
11.761
48.216
103.518
45.7699
104.578
40.4883
106.413
32.6239
110.911
20.6482
61.4138
109.222
59.5763
109.031
55.996
106.822
52.7901
99.4802
56.9702
)
;

boundaryField
{
    inlet
    {
        type            calculated;
        value           nonuniform 0();
    }
    outlet
    {
        type            calculated;
        value           nonuniform List<scalar> 
16
(
27.6922
94.6793
80.4049
70.2702
38.3607
24.0651
23.4079
18.6127
97.5975
82.0889
97.9671
72.3841
82.4263
25.9431
45.6677
123.967
)
;
    }
    wall
    {
        type            calculated;
        value           uniform 0;
    }
    procBoundary7to0
    {
        type            processor;
        value           uniform 89.1889;
    }
    procBoundary7to1
    {
        type            processor;
        value           uniform 9.60656e-05;
    }
    procBoundary7to3
    {
        type            processor;
        value           nonuniform List<scalar> 
36
(
12.5811
93.4617
10.3876
94.7033
11.6419
94.079
15.9789
86.9712
39.3354
0.000128763
84.6101
0.000139993
83.7976
8.80498e-05
81.3731
3.68923e-05
70.0851
11.839
3.00499
91.9707
0.117837
94.1539
3.78679
95.6566
17.3613
92.5386
50.8036
43.4533
104.859
39.6301
105.826
33.4639
108.918
27.0536
123.183
26.8424
)
;
    }
    procBoundary7to5
    {
        type            processor;
        value           nonuniform List<scalar> 
44
(
79.1978
4.44591e-05
77.6115
5.98296e-05
74.8482
1.03696
65.7844
20.8876
8.63878e-05
84.4795
4.58215e-05
87.4159
2.13801
88.7084
8.96356
84.1022
22.6752
8.63878e-05
84.4795
84.4795
4.0728
91.8823
3.81949e-05
81.7945
6.37352
74.082
37.3416
6.34436
90.0276
4.0728
91.8823
91.8823
39.2268
112.56
39.6226
130.737
36.119
43.8641
103.248
42.3362
106.527
39.2268
112.56
112.56
)
;
    }
    procBoundary7to6
    {
        type            processor;
        value           nonuniform List<scalar> 
12
(
87.2177
96.25
106.192
80.7107
85.8237
93.8359
86.133
92.387
103.187
96.312
101.566
108.712
)
;
    }
}


// ************************************************************************* //
