/*--------------------------------*- C++ -*----------------------------------*\
| =========                 |                                                 |
| \\      /  F ield         | OpenFOAM: The Open Source CFD Toolbox           |
|  \\    /   O peration     | Version:  4.x                                   |
|   \\  /    A nd           | Web:      www.OpenFOAM.org                      |
|    \\/     M anipulation  |                                                 |
\*---------------------------------------------------------------------------*/
FoamFile
{
    version     2.0;
    format      ascii;
    class       surfaceScalarField;
    location    "55.5";
    object      phi;
}
// * * * * * * * * * * * * * * * * * * * * * * * * * * * * * * * * * * * * * //

dimensions      [0 3 -1 0 0 0 0];

internalField   nonuniform List<scalar> 
308
(
5.72507e-06
5.05118e-08
5.73853e-06
9.95837e-08
5.58647e-06
5.83576e-08
-7.23867e-08
5.55036e-06
1.0937e-07
8.77502e-08
5.25268e-06
6.43065e-08
-3.25236e-08
5.38854e-06
-1.94662e-08
2.76324e-07
4.51869e-06
4.10164e-07
-2.54125e-08
5.29575e-06
-7.72844e-07
7.01677e-07
2.10653e-06
-8.67007e-08
5.31235e-06
1.75392e-07
-8.88299e-09
5.3328e-06
1.44194e-07
-2.75148e-08
5.16086e-06
2.30298e-07
-7.82979e-12
5.4073e-06
-1.5977e-08
5.28733e-08
5.03694e-06
4.36873e-07
-1.50872e-08
5.82915e-06
-4.77693e-07
1.751e-07
5.13223e-06
1.10921e-06
-4.62444e-08
6.32919e-06
-1.55573e-06
3.46019e-07
3.51842e-06
1.55281e-07
7.76321e-06
6.92133e-08
-1.38009e-07
7.86936e-06
3.6499e-08
-6.357e-08
8.00707e-06
9.49139e-08
-2.16417e-07
8.109e-06
-1.23513e-07
-4.12685e-08
8.2842e-06
2.27491e-07
-3.59126e-07
8.31167e-06
-4.5026e-07
6.98478e-08
8.59743e-06
5.38489e-07
-5.96122e-07
8.38043e-06
-9.97275e-07
4.94641e-07
1.55594e-06
-8.76489e-07
9.70122e-06
-3.56561e-07
9.74506e-06
-2.68484e-07
9.81501e-06
-4.21208e-07
9.71517e-06
-1.6013e-07
9.74893e-06
-5.02652e-07
9.29937e-06
1.76905e-07
9.49634e-06
-8.17594e-07
8.71365e-06
6.9707e-07
-1.4888e-06
5.06722e-06
-1.46395e-12
5.14038e-06
-7.91403e-08
4.95419e-06
-1.50361e-12
1.17226e-07
5.03911e-06
8.32536e-08
1.23116e-07
4.39992e-06
-1.01591e-12
4.10774e-07
5.54032e-06
5.6788e-07
-2.92513e-07
-3.24938e-07
2.33696e-06
4.91929e-06
1.26979e-09
1.20802e-08
4.97988e-06
-1.63501e-07
-1.01338e-08
4.97987e-06
1.29111e-12
2.85577e-13
5.05163e-06
-1.18861e-07
2.08333e-08
5.01892e-06
5.90548e-13
1.76202e-08
5.10197e-06
1.48192e-07
2.71069e-08
4.94607e-06
2.66762e-13
1.0966e-07
5.74107e-06
1.91437e-07
-7.25377e-08
-2.0969e-07
4.55967e-07
5.12824e-06
-1.74144e-08
3.50461e-08
5.20345e-06
-3.02599e-07
3.15906e-10
4.94395e-06
-1.58515e-08
5.89322e-08
5.018e-06
-2.71181e-07
3.7001e-08
4.46336e-06
7.47881e-11
1.95442e-07
4.54751e-06
6.00292e-08
7.38619e-08
3.46185e-06
-3.95711e-13
4.89539e-07
4.23405e-06
7.2301e-08
-1.58419e-07
-8.61376e-08
1.61021e-06
7.01232e-06
-8.36587e-08
6.35549e-06
8.57488e-08
5.93848e-06
-2.00499e-08
5.37615e-06
1.31017e-07
4.71027e-06
1.63307e-07
4.79296e-06
1.54238e-07
3.65353e-06
3.21839e-07
4.30292e-06
1.1998e-07
1.46528e-06
6.01228e-06
-1.46313e-08
6.53486e-06
-8.5539e-08
6.05893e-06
1.00519e-07
7.06174e-07
7.10943e-06
-5.06311e-07
-7.52794e-07
1.28998e-06
3.19543e-06
5.30024e-06
7.07139e-08
3.08435e-08
5.28609e-06
8.56504e-08
-2.40856e-08
5.17932e-06
9.48059e-08
2.66554e-09
5.37305e-06
-7.76333e-08
-8.58964e-08
5.10598e-06
2.20306e-07
4.97484e-08
5.70129e-06
-4.14451e-07
-2.39289e-07
5.09829e-06
6.73346e-07
1.39831e-07
6.45319e-06
-1.32892e-06
-6.04824e-07
3.05711e-06
5.4773e-07
7.14097e-06
4.07206e-08
-3.96432e-09
7.25464e-06
1.63645e-08
-4.4063e-08
7.5041e-06
-1.33391e-08
-8.23892e-08
7.8108e-06
-1.62878e-07
-1.84449e-07
8.32219e-06
-5.70524e-09
-8.99336e-08
8.70306e-06
-4.3567e-07
-2.8579e-07
9.72788e-06
1.84233e-07
-4.61683e-08
9.56595e-06
-9.01976e-07
-4.23435e-07
1.3341e-06
9.15357e-07
9.43983e-06
-4.81061e-08
9.48744e-06
5.44984e-08
9.53219e-06
-7.81366e-08
9.49997e-06
3.57003e-10
9.79258e-06
-1.35004e-07
9.58095e-06
-6.98079e-08
1.04484e-05
-3.61345e-07
9.64247e-06
2.39014e-08
1.29444e-08
9.80614e-06
-8.78136e-07
9.268e-06
3.01412e-07
-1.64041e-06
7.93169e-06
-2.95393e-08
7.78544e-06
-2.48873e-08
7.56623e-06
-6.62443e-08
7.37397e-06
-8.19611e-08
7.08271e-06
-1.24611e-07
6.79235e-06
-1.04126e-07
6.20376e-06
-1.49717e-07
5.97933e-06
-7.89823e-08
-2.22132e-07
9.18215e-06
-3.68619e-08
9.15666e-06
-4.34547e-08
9.08057e-06
-7.25471e-08
8.8967e-06
-8.25403e-08
8.84289e-06
-1.60732e-07
8.48104e-06
-2.80643e-08
8.56477e-06
-2.79613e-07
7.95675e-06
1.05603e-07
-8.59364e-07
1.03319e-05
1.03429e-05
1.01922e-05
1.011e-05
9.81431e-06
9.71643e-06
9.07548e-06
9.20498e-06
)
;

boundaryField
{
    inlet
    {
        type            calculated;
        value           nonuniform 0();
    }
    outlet
    {
        type            calculated;
        value           nonuniform List<scalar> 
16
(
1.59171e-06
4.81291e-06
9.01954e-06
9.23217e-06
2.64448e-06
5.32513e-06
1.62379e-06
1.2627e-06
4.3615e-06
4.59429e-06
1.19838e-05
1.24289e-05
1.24386e-05
5.10878e-06
9.50933e-06
8.35856e-06
)
;
    }
    wall
    {
        type            calculated;
        value           nonuniform List<scalar> 
66
(
0
0
0
0
0
0
0
0
0
0
0
0
0
0
0
-4.93038e-32
0
4.93038e-32
1.97215e-31
0
0
0
0
0
0
0
0
0
0
0
0
0
0
0
0
0
-2.46519e-32
0
0
0
0
0
0
0
0
0
0
0
0
0
0
0
0
0
0
0
0
0
0
0
0
0
0
0
0
0
)
;
    }
    procBoundary7to0
    {
        type            processor;
        value           uniform -5.86934e-06;
    }
    procBoundary7to1
    {
        type            processor;
        value           uniform -4.31115e-08;
    }
    procBoundary7to3
    {
        type            processor;
        value           nonuniform List<scalar> 
36
(
1.98228e-07
6.34706e-08
2.26042e-07
-2.62497e-08
2.93032e-07
-3.45807e-07
5.09238e-07
-1.23037e-06
2.00495e-06
7.79488e-09
-3.75468e-08
1.13448e-11
-1.73967e-07
1.2882e-08
-5.09085e-07
4.41219e-08
-7.60092e-07
-5.08903e-08
1.43938e-07
6.51129e-08
2.14094e-07
4.68745e-08
3.93311e-07
-1.24755e-07
8.81078e-07
-8.36098e-07
2.19986e-06
3.49353e-07
2.61145e-07
4.46176e-07
1.36456e-07
6.9638e-07
-1.77601e-07
1.15911e-06
-9.11655e-07
2.52622e-06
)
;
    }
    procBoundary7to5
    {
        type            processor;
        value           nonuniform List<scalar> 
44
(
-1.49751e-07
-5.99568e-08
-1.34762e-07
-2.71331e-08
-4.69173e-08
-2.41402e-08
5.24483e-07
-3.20739e-07
-6.13593e-08
-2.67575e-08
3.37267e-12
2.36376e-08
3.64451e-08
-1.4969e-08
2.03004e-07
-7.14089e-07
7.97112e-07
1.97067e-12
-5.17738e-06
8.55314e-08
3.77777e-08
7.00904e-08
1.8331e-08
-1.47363e-07
8.00104e-08
-8.39129e-08
5.99478e-07
1.49236e-08
-5.7549e-08
9.30601e-09
-6.09209e-06
-9.37033e-09
1.93336e-07
-1.66556e-07
8.86608e-07
-5.1607e-07
1.66529e-06
1.88158e-07
1.47055e-07
2.88121e-07
1.88318e-07
4.65623e-07
-9.10844e-06
1.55201e-07
)
;
    }
    procBoundary7to6
    {
        type            processor;
        value           nonuniform List<scalar> 
12
(
-5.43615e-06
-7.66296e-06
-9.6248e-06
-4.94152e-06
-5.28261e-06
-7.30264e-06
-5.40464e-06
-7.07197e-06
-9.43466e-06
-8.05947e-06
-9.1788e-06
-1.04168e-05
)
;
    }
}


// ************************************************************************* //
