/*--------------------------------*- C++ -*----------------------------------*\
| =========                 |                                                 |
| \\      /  F ield         | OpenFOAM: The Open Source CFD Toolbox           |
|  \\    /   O peration     | Version:  4.x                                   |
|   \\  /    A nd           | Web:      www.OpenFOAM.org                      |
|    \\/     M anipulation  |                                                 |
\*---------------------------------------------------------------------------*/
FoamFile
{
    version     2.0;
    format      ascii;
    class       volVectorField;
    location    "55.5";
    object      UsPrev;
}
// * * * * * * * * * * * * * * * * * * * * * * * * * * * * * * * * * * * * * //

dimensions      [0 1 -1 0 0 0 0];

internalField   nonuniform List<vector> 
132
(
(1.87487e-08 1.11714e-09 -1.40092e-08)
(1.91456e-08 -2.47572e-09 -1.84447e-08)
(-4.99783e-09 -4.37486e-09 -1.99617e-08)
(-2.9412e-08 -4.83205e-10 -1.01075e-08)
(-2.88555e-08 -1.90129e-09 -1.05124e-08)
(-1.95929e-08 1.38439e-09 -5.84387e-09)
(-1.6316e-08 -2.26598e-10 -4.7576e-09)
(-1.03686e-08 9.14734e-10 -2.60932e-09)
(-2.25127e-09 1.90297e-09 -1.68636e-09)
(2.14039e-08 8.04714e-10 -1.50849e-08)
(2.82646e-08 -1.02798e-09 -2.03915e-08)
(-2.6322e-09 3.87309e-09 -2.45979e-08)
(-2.85736e-08 1.08645e-09 -1.66825e-08)
(-2.58134e-08 -2.1241e-09 -9.43304e-09)
(-2.13254e-08 -2.1179e-09 -9.03102e-09)
(-1.55092e-08 -1.07211e-09 -6.34538e-09)
(-1.08572e-08 -9.98883e-10 -3.50402e-09)
(-4.12153e-09 8.42935e-10 -1.74935e-09)
(2.105e-08 2.34852e-09 -7.70876e-09)
(2.68156e-08 1.78536e-09 -1.92876e-08)
(-4.42507e-09 1.18795e-09 -2.5632e-08)
(-2.46743e-08 2.95315e-09 -1.63543e-08)
(-2.4776e-08 -7.33437e-10 -1.05867e-08)
(-1.98853e-08 -3.40987e-09 -8.34193e-09)
(-1.52633e-08 -1.39503e-09 -6.53266e-09)
(-9.69314e-09 -2.09203e-09 -2.8641e-09)
(9.95001e-10 1.46613e-09 -9.21568e-10)
(2.05111e-08 1.368e-09 -3.65216e-09)
(2.30049e-08 8.84678e-10 -7.87742e-09)
(-1.0924e-09 3.8578e-09 -1.5761e-08)
(-2.37266e-08 6.89758e-09 -9.84248e-09)
(-2.2637e-08 -1.0471e-09 -7.15867e-09)
(-1.58285e-08 -2.05114e-09 -5.52862e-09)
(-9.81651e-09 -2.28084e-09 -3.55489e-09)
(-5.00162e-09 -1.03951e-09 -1.52535e-09)
(1.4048e-09 5.75912e-10 -5.75968e-10)
(-5.73966e-09 -6.40067e-09 -1.82655e-09)
(-2.85922e-08 -4.26949e-09 -6.51338e-09)
(-2.4179e-08 -8.16257e-10 -5.85135e-09)
(-1.96573e-08 -1.44577e-09 -5.58508e-09)
(-1.3943e-08 -3.2331e-10 -3.84636e-09)
(-8.07389e-09 4.14163e-10 -2.85757e-09)
(-2.10353e-09 1.19068e-09 -8.40668e-10)
(1.6814e-08 -3.40471e-09 -9.65455e-09)
(1.21962e-08 -4.31938e-09 -8.07936e-09)
(-4.44142e-09 3.48191e-09 -9.91754e-09)
(-2.04437e-08 3.728e-09 -9.9104e-09)
(-2.01473e-08 -1.56021e-09 -6.93867e-09)
(-1.63321e-08 -2.29711e-09 -5.61012e-09)
(-1.1911e-08 -5.79831e-10 -4.35884e-09)
(-8.44276e-09 -2.56174e-10 -2.23113e-09)
(-2.24659e-09 1.89978e-10 -8.10803e-10)
(2.00595e-08 -2.91864e-09 -7.53793e-09)
(1.97504e-08 -7.54206e-09 -1.30165e-08)
(-1.08908e-09 -3.03704e-09 -1.76697e-08)
(-2.43773e-08 3.81545e-09 -1.11668e-08)
(-1.8986e-08 -1.27567e-09 -6.72453e-09)
(-1.65847e-08 -3.5446e-09 -5.62247e-09)
(-1.24017e-08 -1.35251e-09 -3.77687e-09)
(-6.32914e-09 -9.91304e-10 -1.64528e-09)
(6.768e-09 3.14122e-09 -7.09719e-10)
(2.33532e-08 6.59869e-10 -4.8264e-09)
(2.80423e-08 4.11514e-10 -7.27821e-09)
(5.17849e-09 -5.44535e-09 -2.0748e-08)
(-2.59178e-08 4.92138e-09 -5.39276e-09)
(-1.60875e-08 -1.26211e-09 -3.60081e-09)
(-1.15595e-08 -1.89533e-09 -4.18419e-09)
(-6.82733e-09 -7.11118e-10 -1.68518e-09)
(-3.66297e-09 -8.81751e-10 -9.50234e-10)
(2.54599e-09 5.79843e-10 -4.47715e-10)
(-2.36994e-08 -2.83687e-09 -5.74867e-09)
(-1.73826e-08 -1.73092e-09 -4.35425e-09)
(-1.10487e-08 -2.54649e-10 -3.03753e-09)
(-6.89481e-09 -6.33441e-11 -2.55342e-09)
(-2.01936e-09 5.7835e-10 -3.26543e-10)
(1.37548e-08 -2.78519e-09 -4.44772e-09)
(1.09406e-08 -6.26988e-09 -1.19269e-09)
(-2.81549e-09 -2.98408e-09 5.0134e-09)
(-1.79721e-08 1.16057e-09 -5.33012e-09)
(-1.90551e-08 -1.85927e-09 -4.81553e-09)
(-1.54134e-08 -3.03276e-09 -3.57877e-09)
(-1.03382e-08 -4.28158e-10 -2.39136e-09)
(-6.60924e-09 -3.08121e-11 -1.08781e-09)
(-2.38937e-09 -7.28148e-10 -3.90362e-10)
(1.96662e-08 -2.9764e-10 -6.84189e-09)
(2.73671e-08 -6.26553e-09 2.55625e-09)
(1.07176e-09 1.31439e-10 2.79605e-09)
(-1.74362e-08 9.83499e-10 -3.67696e-09)
(-1.58038e-08 -1.40774e-09 -4.33271e-09)
(-1.29319e-08 -2.33917e-09 -3.55625e-09)
(-7.8223e-09 -6.72506e-10 -2.41235e-09)
(-3.25604e-09 -6.70112e-10 -9.21318e-10)
(-1.23446e-09 -9.55445e-10 -7.82771e-10)
(1.75115e-08 -2.51642e-09 -6.13686e-09)
(2.13723e-08 1.21696e-09 -2.57723e-09)
(-1.20967e-10 1.37718e-09 -8.76124e-10)
(-2.07533e-08 1.62226e-10 -2.64437e-09)
(-1.16349e-08 -8.18376e-10 -2.91192e-09)
(-5.89529e-09 -1.57509e-10 -2.35024e-09)
(-3.94522e-09 -1.08852e-09 -1.33232e-09)
(-9.03191e-10 -4.37802e-10 -4.77485e-10)
(-3.88135e-10 -4.30969e-10 -3.54369e-10)
(-8.46916e-09 -8.61374e-10 -3.38771e-09)
(-6.27766e-09 7.6365e-13 -1.7103e-09)
(-1.53045e-09 9.8743e-10 6.96854e-10)
(9.27366e-09 1.98094e-09 -2.04311e-09)
(1.13009e-08 2.35885e-10 2.31677e-09)
(-2.87478e-10 -5.82066e-09 5.02577e-09)
(-1.50769e-08 -1.26156e-09 -5.34639e-10)
(-1.37751e-08 -3.37957e-09 -2.39164e-09)
(-1.35456e-08 -2.82616e-09 -1.86837e-09)
(-8.28555e-09 -3.4932e-10 -2.2318e-09)
(-4.57818e-09 -5.3791e-10 -3.18535e-10)
(-1.47323e-09 -5.0394e-10 3.12352e-10)
(1.18695e-08 3.6168e-09 -3.42526e-09)
(1.42514e-08 1.25485e-09 5.38305e-10)
(3.38794e-09 -2.66974e-09 1.89506e-09)
(-1.05214e-08 -2.03141e-11 7.84303e-10)
(-1.01474e-08 -1.6618e-09 -2.32404e-09)
(-7.59338e-09 -2.06772e-09 -1.81167e-09)
(-5.12324e-09 -1.31372e-09 -2.11378e-09)
(-2.28589e-09 -8.98691e-10 -5.52908e-10)
(-2.61783e-10 -3.33075e-11 -6.53186e-10)
(7.40516e-09 -1.63689e-09 -2.20464e-09)
(1.29915e-08 9.85232e-10 1.11573e-11)
(3.47205e-09 2.30682e-10 1.51909e-09)
(-1.04159e-08 3.76192e-10 -9.94257e-10)
(-6.30149e-09 -1.26028e-08 -1.57293e-09)
(-4.26524e-09 -1.13825e-09 -2.41865e-09)
(-2.65665e-09 -8.38919e-10 -6.46776e-10)
(-8.91425e-11 -5.00426e-10 -3.19625e-10)
(-5.70151e-10 2.95525e-09 4.92438e-10)
)
;

boundaryField
{
    inlet
    {
        type            calculated;
        value           nonuniform 0();
    }
    outlet
    {
        type            calculated;
        value           uniform (0 0 0);
    }
    wall
    {
        type            calculated;
        value           uniform (0 0 0);
    }
    procBoundary7to0
    {
        type            processor;
        value           uniform (0 0 0);
    }
    procBoundary7to1
    {
        type            processor;
        value           uniform (0 0 0);
    }
    procBoundary7to3
    {
        type            processor;
        value           uniform (0 0 0);
    }
    procBoundary7to5
    {
        type            processor;
        value           uniform (0 0 0);
    }
    procBoundary7to6
    {
        type            processor;
        value           uniform (0 0 0);
    }
}


// ************************************************************************* //
