/*--------------------------------*- C++ -*----------------------------------*\
  =========                 |
  \\      /  F ield         | OpenFOAM: The Open Source CFD Toolbox
   \\    /   O peration     | Website:  https://openfoam.org
    \\  /    A nd           | Version:  4.x
     \\/     M anipulation  |
\*---------------------------------------------------------------------------*/
FoamFile
{
    version     2.0;
    format      ascii;
    class       vectorField;
    location    0;
    object      v;
}
// * * * * * * * * * * * * * * * * * * * * * * * * * * * * * * * * * * * * * //

312
(
( -2.7682e-07 -3.00921e-08 -8.20835e-08 )  
( -2.14518e-07 -5.42791e-08 -6.89657e-08 )  
( -2.96585e-07 4.44435e-09 -6.65855e-08 )  
( -2.56496e-07 -3.61652e-08 -5.27583e-08 )  
( -3.34001e-07 1.2708e-08 -8.5881e-08 )  
( -2.92058e-07 -1.90218e-08 -5.60272e-08 )  
( -1.76446e-07 -6.01514e-08 -7.71668e-08 )  
( -3.17295e-07 2.4065e-08 -7.06354e-08 )  
( -2.73551e-07 -3.80515e-08 -5.93228e-08 )  
( -1.67169e-07 -6.12072e-08 -7.91425e-08 )  
( -2.73528e-07 -1.71359e-08 -5.46534e-08 )  
( -2.83273e-07 -2.22361e-08 -4.72387e-08 )  
( 5.44247e-08 -2.42134e-08 -3.84439e-08 )  
( -2.67138e-07 -2.26043e-08 -5.41662e-08 )  
( -2.6311e-07 -5.39233e-08 -4.50738e-08 )  
( 3.77508e-09 -1.45525e-08 -4.43884e-08 )  
( 5.31184e-08 -6.18925e-09 -2.12827e-08 )  
( -2.15363e-07 -2.29471e-08 -3.47085e-08 )  
( -2.92894e-07 -3.28413e-08 -5.71871e-08 )  
( 3.23342e-08 4.94808e-10 -5.03132e-08 )  
( 4.84091e-08 -1.85328e-08 -5.18207e-08 )  
( 5.20895e-08 -1.15453e-08 -2.78209e-08 )  
( -2.23339e-07 -5.51789e-08 -4.24599e-08 )  
( -4.30024e-08 1.29272e-08 -1.02201e-08 )  
( 4.75081e-08 -1.24999e-08 -2.17564e-08 )  
( 3.73441e-08 -5.46087e-09 -1.15824e-08 )  
( 4.0674e-08 -8.63885e-10 -2.47336e-08 )  
( 5.01567e-08 -7.4531e-09 -4.31423e-08 )  
( 2.90023e-08 2.31271e-10 -4.67541e-08 )  
( -7.94502e-08 9.58312e-09 -3.25053e-08 )  
( -1.97175e-07 -6.3149e-09 -2.38286e-08 )  
( 5.96509e-08 -2.18498e-08 -4.54385e-08 )  
( -2.52671e-07 -4.5426e-08 -5.07123e-08 )  
( 1.73741e-08 -1.78583e-08 -4.92435e-08 )  
( 2.7954e-08 -6.0458e-09 -4.92861e-08 )  
( -3.04786e-07 -3.85953e-09 -6.78111e-08 )  
( -1.36832e-07 -1.98082e-08 -1.25295e-08 )  
( -1.48602e-07 1.48774e-08 -3.51075e-08 )  
( -1.51139e-07 -4.43781e-08 -4.21465e-08 )  
( -1.3831e-07 -3.41289e-09 -9.05241e-09 )  
( 3.38022e-08 4.59528e-11 -5.44999e-08 )  
( -6.11491e-08 -6.16095e-10 -2.02244e-08 )  
( -2.40112e-08 1.00146e-08 -7.95612e-09 )  
( -1.09731e-07 -1.90419e-08 -1.75891e-08 )  
( -5.58113e-08 -1.47091e-08 -5.30214e-08 )  
( -2.18797e-07 -1.35386e-08 -1.98122e-08 )  
( 5.09918e-08 -2.69087e-09 -2.11003e-08 )  
( -2.45699e-07 -4.18926e-08 -3.79811e-08 )  
( -1.03314e-07 6.6225e-09 -8.60079e-08 )  
( -2.92006e-08 5.74938e-09 -1.28218e-08 )  
( -2.63271e-07 1.91022e-08 -5.33519e-08 )  
( 5.73837e-09 -3.13616e-08 -4.98626e-08 )  
( 3.25098e-09 7.7865e-09 -1.28183e-09 )  
( 3.31108e-08 -1.03443e-09 -4.03273e-08 )  
( 2.50391e-08 7.62422e-09 -2.75737e-08 )  
( -5.21612e-08 -3.89398e-08 -5.75538e-08 )  
( -2.64203e-07 -2.98948e-08 -3.1519e-08 )  
( -1.05732e-07 -1.00351e-07 -3.6516e-08 )  
( -3.06363e-07 -2.6599e-08 -6.46326e-08 )  
( 4.32758e-08 -1.07436e-08 -1.37852e-08 )  
( 1.41337e-08 -2.40409e-08 -5.24856e-08 )  
( 1.08756e-09 -5.5147e-09 -5.4111e-08 )  
( -4.30798e-08 -1.17515e-08 -5.91137e-08 )  
( -2.57585e-08 1.8584e-09 -2.07829e-08 )  
( 2.46525e-08 -4.88294e-09 -8.01616e-09 )  
( -3.00128e-08 1.70821e-08 -7.36858e-08 )  
( 5.10949e-08 -1.7421e-09 -3.53619e-08 )  
( 6.18707e-09 -1.36463e-08 -5.53816e-08 )  
( -1.7848e-07 -5.7307e-08 -2.58939e-09 )  
( -2.45394e-07 -6.20023e-09 -4.51601e-08 )  
( -1.41611e-07 -5.5643e-08 -3.80204e-08 )  
( -1.93474e-07 -4.71542e-08 -4.33875e-08 )  
( -2.83537e-07 -3.48483e-08 -6.21553e-08 )  
( 2.53688e-08 -1.08647e-08 -4.54042e-08 )  
( 1.69274e-08 3.45881e-09 -4.05352e-08 )  
( -4.11092e-08 4.95741e-09 -2.78997e-08 )  
( 2.2346e-08 -4.88886e-09 -4.17978e-08 )  
( -1.9287e-07 -2.01046e-08 -2.0587e-08 )  
( -2.03037e-07 -2.63939e-08 -4.26029e-08 )  
( 5.50057e-08 -1.72192e-08 -2.5711e-08 )  
( -3.60386e-08 1.52337e-08 -1.52686e-08 )  
( 5.39662e-08 -1.24569e-08 -3.90285e-08 )  
( 3.50786e-08 8.97399e-09 -1.46017e-08 )  
( -1.29096e-07 -1.05209e-08 -1.74509e-08 )  
( 3.74856e-08 -1.05694e-08 -6.38842e-09 )  
( -1.99096e-07 -4.57776e-08 -5.61578e-08 )  
( 5.94595e-08 -1.91136e-08 -2.69036e-08 )  
( -7.80777e-08 -6.18099e-09 -2.22611e-08 )  
( 2.89676e-08 -1.18738e-08 -1.00564e-08 )  
( 5.17794e-08 -8.36936e-09 -2.13458e-08 )  
( -1.44022e-07 -3.15537e-08 -4.19873e-08 )  
( 4.855e-08 -7.56231e-10 -3.43411e-08 )  
( -1.84242e-08 7.4273e-09 -1.86452e-09 )  
( 4.1566e-08 -1.74813e-08 -2.4053e-08 )  
( -1.27265e-08 -2.16546e-08 -5.68531e-08 )  
( -3.07764e-07 -1.11657e-08 -6.07492e-08 )  
( -2.57056e-07 -9.18174e-09 -4.38676e-08 )  
( 4.57798e-08 -4.28026e-09 -1.21794e-08 )  
( -2.8894e-07 -3.19769e-08 -6.33189e-08 )  
( 1.87083e-08 1.1641e-08 -1.81628e-08 )  
( -1.25889e-07 -5.19923e-09 1.16172e-09 )  
( -5.83017e-08 1.22217e-08 -8.7987e-09 )  
( -3.40759e-07 3.49171e-09 -6.92485e-08 )  
( -3.41589e-07 6.14982e-09 -6.78555e-08 )  
( -2.29919e-07 -1.42866e-08 -5.33476e-08 )  
( -2.21078e-07 -4.20194e-08 -1.64578e-08 )  
( 4.49719e-08 -6.39817e-09 -3.84905e-08 )  
( -3.37479e-07 1.45931e-08 -5.96411e-08 )  
( -1.51114e-07 1.38881e-08 -1.66874e-08 )  
( 2.07028e-08 -7.80512e-09 -5.93786e-08 )  
( -9.42041e-08 2.36949e-09 -1.68598e-08 )  
( -2.03341e-07 -4.31034e-08 -9.37907e-09 )  
( -1.8203e-07 -1.68205e-08 -1.91665e-08 )  
( -7.14402e-09 6.58449e-09 -7.66012e-09 )  
( -9.98482e-08 -9.60981e-09 -3.01431e-08 )  
( -1.57561e-07 -5.16173e-08 -3.18979e-08 )  
( -1.03142e-07 4.77573e-09 -2.98599e-08 )  
( -2.5462e-07 -5.93385e-08 -6.49793e-08 )  
( 1.38083e-08 1.88763e-08 -2.46384e-08 )  
( 6.6048e-08 -2.2438e-08 -4.07143e-08 )  
( 6.00546e-08 -1.74388e-08 -1.73162e-08 )  
( 1.47601e-08 -5.86324e-09 -5.52315e-08 )  
( 3.17099e-08 -1.86084e-08 -2.06317e-09 )  
( -3.19193e-07 -5.70064e-09 -6.56061e-08 )  
( -1.32981e-08 2.10546e-08 -1.81899e-09 )  
( 4.90658e-08 -1.51177e-08 -3.50419e-08 )  
( -8.35321e-08 -4.94479e-09 1.08928e-08 )  
( -1.42802e-07 2.52834e-09 -2.22194e-08 )  
( 2.63195e-08 -7.4148e-09 -1.39518e-08 )  
( -7.22324e-08 2.3195e-08 -2.94755e-08 )  
( -2.5771e-07 -1.18913e-08 -4.81624e-08 )  
( 1.31779e-08 -2.36671e-09 -2.48159e-08 )  
( -3.23717e-07 -7.59689e-09 -6.3704e-08 )  
( -3.04734e-07 -4.39218e-08 -6.54631e-08 )  
( -7.21901e-09 2.89623e-09 6.04942e-09 )  
( 5.87424e-08 -1.03815e-08 -1.64888e-08 )  
( 5.09306e-08 -6.26184e-09 -2.54654e-08 )  
( -3.20972e-07 -6.6266e-09 -6.20085e-08 )  
( 3.13044e-08 -9.6912e-09 -8.60175e-09 )  
( -9.32954e-08 -3.74177e-09 -2.76943e-08 )  
( -2.05987e-08 4.20108e-09 -1.72314e-08 )  
( 4.03591e-08 -1.11858e-09 -1.08229e-08 )  
( -1.36627e-07 -4.65696e-08 -1.89451e-08 )  
( -7.59139e-08 -7.49942e-08 -4.06024e-08 )  
( 4.63693e-08 -6.90949e-09 -2.52319e-08 )  
( -2.09106e-07 -5.60528e-08 -6.03218e-08 )  
( -2.13579e-08 -2.39497e-09 -6.65919e-09 )  
( -2.63402e-07 -5.32976e-08 -6.71916e-08 )  
( -1.46887e-08 1.18279e-08 -1.7112e-08 )  
( 6.02632e-08 -1.70406e-08 -1.95724e-08 )  
( -3.72742e-08 -8.24512e-09 -1.54809e-08 )  
( 3.80426e-08 -1.3837e-09 -3.79043e-08 )  
( 3.4161e-08 -6.47723e-09 -2.76596e-08 )  
( -2.56342e-07 -2.118e-08 -2.99513e-08 )  
( 2.30133e-09 -4.06409e-08 -1.73432e-08 )  
( 5.79301e-08 -1.214e-08 -1.16716e-08 )  
( -1.86061e-08 -1.45949e-08 -3.36144e-08 )  
( -1.60564e-07 -1.84684e-08 -3.72464e-08 )  
( -1.35501e-07 -1.20881e-08 -3.74365e-08 )  
( -8.41399e-08 -1.12353e-09 -2.0232e-08 )  
( -3.69983e-08 -1.79628e-08 -1.91907e-08 )  
( -1.12245e-07 -1.83912e-08 -1.39452e-08 )  
( 2.89162e-08 -9.48372e-09 -1.14173e-08 )  
( -5.76081e-08 -3.13379e-08 -4.19717e-08 )  
( 2.06975e-08 -4.32979e-09 2.46091e-09 )  
( 3.75832e-08 -8.57362e-09 -4.83923e-09 )  
( 2.76438e-08 1.02871e-08 -6.96417e-09 )  
( -8.96594e-08 -2.77194e-09 -1.41568e-08 )  
( -1.64549e-07 -1.68312e-08 -2.5707e-08 )  
( 2.30889e-08 -1.53296e-08 -7.79235e-09 )  
( 4.85096e-08 -3.69642e-09 -1.11063e-08 )  
( 2.46665e-08 -2.76617e-09 -5.06296e-09 )  
( 5.84443e-08 -2.66477e-08 -2.78171e-08 )  
( 4.92998e-08 4.53838e-10 -1.72451e-08 )  
( -2.29239e-07 -3.35001e-08 -4.76466e-08 )  
( -7.16021e-08 -2.21046e-08 -2.42743e-08 )  
( 6.54948e-08 -6.62495e-09 -1.30297e-08 )  
( 2.12999e-08 -4.6762e-09 -1.90884e-10 )  
( -1.2083e-08 5.93161e-09 -1.84383e-08 )  
( -1.63993e-07 -2.02678e-08 -4.39683e-08 )  
( -5.3326e-08 -1.40991e-08 -1.18622e-08 )  
( -1.53361e-07 -3.14709e-08 -2.08049e-08 )  
( -2.35948e-08 3.7445e-09 -6.96738e-09 )  
( 1.72961e-08 -2.71105e-08 -2.31517e-08 )  
( 4.00565e-08 -1.33795e-09 -3.03391e-08 )  
( 3.70973e-08 -2.18704e-09 -7.93667e-09 )  
( 4.44434e-08 -9.61211e-09 -2.10506e-08 )  
( 6.51797e-08 -1.89592e-08 -2.1126e-08 )  
( 3.3013e-08 1.08568e-08 -1.35862e-08 )  
( 6.49741e-08 -1.01408e-08 -1.3258e-08 )  
( -1.10836e-09 5.28954e-09 -3.39748e-08 )  
( -1.7035e-08 8.95917e-09 -1.68521e-08 )  
( 4.74333e-08 -6.95783e-09 -8.99037e-09 )  
( -8.37069e-08 -3.14302e-08 -2.8353e-08 )  
( -2.42546e-07 -2.1928e-08 -3.84861e-08 )  
( -9.15261e-08 -4.01228e-08 -2.92166e-08 )  
( -1.9734e-08 -2.63373e-09 -2.50922e-08 )  
( 5.14525e-08 1.06396e-08 -1.11832e-08 )  
( 3.79866e-08 -2.02145e-09 -6.7874e-09 )  
( 5.128e-08 -1.57996e-08 -1.70522e-08 )  
( -1.87803e-07 -1.92109e-08 -4.20429e-08 )  
( -2.36732e-09 3.99803e-09 -1.08852e-08 )  
( -2.11031e-07 -2.72501e-08 -3.75058e-08 )  
( -2.09824e-08 -1.82201e-08 -4.79928e-08 )  
( 3.77722e-08 -1.10682e-08 -3.35144e-08 )  
( 1.63513e-08 -3.17911e-09 -1.72916e-08 )  
( -1.78238e-07 -3.15467e-08 -3.55757e-08 )  
( 6.66114e-08 -7.33015e-09 -1.79372e-08 )  
( -1.09339e-07 1.7204e-09 -2.55387e-08 )  
( 2.62408e-08 2.45526e-09 -3.51134e-09 )  
( 1.73595e-08 -7.79315e-09 -4.67095e-08 )  
( 2.16848e-08 -1.87792e-09 -2.36045e-09 )  
( -2.33047e-07 -2.06258e-08 -4.34897e-08 )  
( -6.23223e-08 -1.61496e-08 -1.04334e-08 )  
( 5.64227e-08 -2.14497e-08 -2.18784e-08 )  
( 2.41272e-08 -1.99123e-09 -6.58826e-09 )  
( 1.52291e-08 7.27522e-10 -2.07456e-09 )  
( 5.72037e-08 -2.2136e-08 -3.04291e-08 )  
( -3.11351e-07 1.84313e-08 -6.86407e-08 )  
( 4.31856e-08 -8.22174e-09 -2.05189e-08 )  
( -1.36737e-07 -7.93038e-08 -6.92417e-08 )  
( 2.97674e-08 -9.02398e-09 -1.13044e-08 )  
( -1.02328e-07 3.23056e-08 -2.25681e-08 )  
( 1.86965e-08 -1.03408e-08 -5.68314e-08 )  
( -3.1643e-07 -2.99229e-09 -6.10003e-08 )  
( -2.73868e-07 -3.33634e-08 -4.7611e-08 )  
( -2.37345e-07 -1.43647e-08 -3.85074e-08 )  
( 3.01327e-08 4.48078e-09 -2.90786e-08 )  
( -2.75619e-07 1.83544e-09 -5.51025e-08 )  
( 5.24982e-09 -3.65135e-09 -3.74207e-08 )  
( -1.3789e-07 -4.2801e-08 -4.84508e-08 )  
( -7.88649e-08 1.76389e-08 -2.03042e-08 )  
( -1.01562e-07 -2.88922e-08 -4.4422e-08 )  
( -3.47632e-07 2.70416e-08 -5.28036e-08 )  
( 4.3083e-08 -2.36925e-09 -1.41176e-08 )  
( -5.64261e-09 -7.24568e-09 -3.12027e-08 )  
( -6.81697e-08 -2.3111e-08 -2.39347e-08 )  
( -6.25131e-08 -1.19729e-09 -1.55172e-08 )  
( -1.30987e-07 -4.33215e-08 -3.36766e-08 )  
( -1.83063e-07 -1.85375e-08 -4.42386e-08 )  
( -5.91104e-10 6.18503e-09 -1.75423e-08 )  
( 5.46674e-08 -1.57427e-08 -1.83851e-08 )  
( 5.74538e-08 -8.98549e-09 -2.17681e-08 )  
( -1.46963e-07 -3.06336e-08 -5.2201e-08 )  
( -9.27684e-08 -7.67197e-09 -3.35779e-08 )  
( -1.38993e-07 -2.36928e-10 -4.2442e-08 )  
( 1.62468e-08 -5.68139e-09 -4.82852e-08 )  
( 3.95068e-08 -4.72789e-09 -2.86141e-08 )  
( -1.97019e-07 -4.10963e-08 -5.43458e-08 )  
( -1.6532e-07 -3.35283e-08 -4.25547e-08 )  
( 5.14379e-08 -1.73346e-08 -2.44743e-08 )  
( 5.668e-08 -1.52784e-08 -1.53348e-08 )  
( 3.6679e-08 6.36679e-09 -1.22379e-08 )  
( 4.66199e-08 -1.78518e-09 -9.28954e-09 )  
( 1.49324e-08 1.67619e-08 -2.7052e-08 )  
( -2.42157e-07 -2.92974e-08 -1.9225e-08 )  
( 5.82765e-08 -1.87597e-08 -1.9582e-08 )  
( -2.09239e-07 3.71494e-08 -5.29501e-08 )  
( -1.73444e-07 3.03661e-08 -1.06952e-08 )  
( -2.00916e-07 -5.88549e-08 -7.43379e-08 )  
( 5.72994e-08 -1.8218e-08 -3.89256e-08 )  
( 5.82545e-10 -4.34882e-08 -6.10254e-08 )  
( 5.57117e-08 -3.07886e-08 -5.08548e-08 )  
( 3.96671e-08 6.9573e-10 -4.99853e-08 )  
( -8.80666e-08 1.34782e-09 -3.84555e-08 )  
( -2.04719e-07 1.17829e-07 -2.33627e-08 )  
( 5.30326e-08 -1.91095e-08 -2.24221e-08 )  
( -1.28834e-07 -1.66898e-08 -2.79004e-08 )  
( 4.03948e-08 -2.42781e-09 -5.9511e-08 )  
( 5.5386e-08 2.48464e-10 -3.80124e-08 )  
( -2.10811e-07 -5.57676e-08 -3.08127e-08 )  
( 5.70948e-08 -1.32233e-08 -3.49954e-08 )  
( 4.12297e-08 -1.25566e-09 -2.69478e-08 )  
( 3.93694e-08 -3.1952e-08 -5.80838e-08 )  
( 4.25751e-08 3.64113e-09 -4.44893e-08 )  
( -2.50904e-08 -5.51056e-08 -7.08366e-08 )  
( -4.4841e-08 -4.8825e-08 -8.0297e-08 )  
( -1.78513e-07 1.86967e-08 3.33762e-09 )  
( -2.45082e-07 -4.6626e-08 -6.17878e-08 )  
( 3.2429e-08 4.83725e-09 -2.14701e-09 )  
( -3.57917e-07 2.27242e-08 -7.68251e-08 )  
( 4.74415e-08 -3.88069e-08 -6.64243e-08 )  
( -3.32849e-07 -3.73739e-08 -8.22279e-08 )  
( 4.89568e-08 -1.87401e-08 -8.42965e-09 )  
( -3.1076e-07 3.39483e-08 -3.38046e-08 )  
( 1.16501e-07 -6.9898e-09 -4.30434e-09 )  
( -5.21425e-09 4.0838e-08 -2.1689e-08 )  
( 2.56255e-08 -2.0138e-08 -5.54391e-08 )  
( 4.9959e-08 -1.25917e-08 -5.60022e-08 )  
( -4.01273e-08 2.52965e-08 -8.66653e-08 )  
( 5.51598e-08 -6.64136e-09 -2.80043e-08 )  
( -1.44207e-07 -3.57363e-08 -2.17617e-08 )  
( -1.14887e-08 4.25824e-08 -7.37167e-08 )  
( -3.45038e-07 -8.4225e-08 -4.8117e-08 )  
( -8.04501e-09 -4.30038e-08 -5.3316e-08 )  
( -3.55039e-08 1.8939e-08 3.52943e-09 )  
( 3.49461e-08 -1.82867e-09 -3.91855e-08 )  
( -3.37158e-07 1.27148e-08 -7.15953e-08 )  
( -2.43299e-07 -1.73249e-08 -3.7097e-08 )  
( 8.03837e-08 -2.70811e-08 -2.859e-08 )  
( 3.16572e-08 -1.42545e-08 -2.08804e-08 )  
( 8.41718e-07 -3.25841e-07 -6.27227e-08 )  
( 4.80767e-08 -1.84583e-08 -1.83944e-08 )  
( -3.24557e-07 -9.10225e-08 -6.11184e-08 )  
( 5.61254e-08 9.54527e-09 -1.71747e-08 )  
( 2.00552e-08 1.42786e-08 -5.96445e-08 )  
( 4.52813e-08 -2.06883e-08 -5.4808e-08 )  
( -9.04523e-08 -1.01204e-08 -5.05217e-08 )  
( -3.12735e-08 -4.54783e-08 -9.83433e-08 )  
( -2.89977e-07 3.67063e-08 -6.71687e-08 )  
( 6.35759e-08 -5.77068e-10 -5.71163e-08 )  
( -2.60471e-07 -4.32223e-08 -3.59254e-08 )  
)
