/*--------------------------------*- C++ -*----------------------------------*\
| =========                 |                                                 |
| \\      /  F ield         | OpenFOAM: The Open Source CFD Toolbox           |
|  \\    /   O peration     | Version:  4.x                                   |
|   \\  /    A nd           | Web:      www.OpenFOAM.org                      |
|    \\/     M anipulation  |                                                 |
\*---------------------------------------------------------------------------*/
FoamFile
{
    version     2.0;
    format      ascii;
    class       volVectorField;
    location    "3.5";
    object      DDtUrel;
}
// * * * * * * * * * * * * * * * * * * * * * * * * * * * * * * * * * * * * * //

dimensions      [0 1 -2 0 0 0 0];

internalField   nonuniform List<vector> 
87
(
(0.00928993 -1.36139e-05 0.000282191)
(0.0098225 -1.80892e-05 0.000407942)
(0.0100565 -4.82869e-05 0.000330137)
(0.0100243 -1.22689e-05 0.000576029)
(0.0108079 -7.35858e-05 0.000451801)
(0.0111223 -0.000165634 0.000379127)
(0.00459943 0.000130902 0.000773695)
(0.0045286 8.52182e-05 0.000734413)
(0.00512835 6.08332e-05 0.000666441)
(0.00595759 3.59583e-05 0.000579418)
(0.00689801 2.25316e-05 0.000492368)
(0.00775615 7.92075e-06 0.000399863)
(0.0084569 8.20082e-06 0.000322263)
(0.00888107 -8.48256e-06 0.000235824)
(0.00911335 -2.83338e-05 0.000170029)
(0.00474247 0.00024266 0.000742576)
(0.00472003 0.000136525 0.000741544)
(0.0053523 8.07122e-05 0.000689615)
(0.00624336 3.11854e-05 0.00061542)
(0.00722846 1.44614e-05 0.00052892)
(0.00816684 -1.18113e-05 0.000435942)
(0.00898243 -1.91869e-05 0.000353587)
(0.00944247 -3.24718e-05 0.000259911)
(0.00955562 -0.000111573 0.000190063)
(0.00492095 0.000250439 0.000735746)
(0.00497873 0.000178406 0.000760986)
(0.00567623 0.00011267 0.000733453)
(0.00668808 5.65892e-05 0.000663428)
(0.0076873 1.55843e-05 0.000571003)
(0.00876638 -3.33381e-05 0.000484357)
(0.0096492 -9.81421e-05 0.000380466)
(0.0102304 -0.00018841 0.000250293)
(0.0103759 -0.000259806 0.000187934)
(0.00461879 0.000103018 0.000681828)
(0.00455671 7.32417e-05 0.000606092)
(0.00513545 5.18081e-05 0.000527267)
(0.00598536 2.58032e-05 0.000438352)
(0.00694883 7.17779e-06 0.000361206)
(0.00782694 -1.30676e-05 0.000268351)
(0.00851001 -2.65861e-05 0.000195922)
(0.00889164 -5.62248e-05 0.000109404)
(0.00888811 -5.56526e-05 -3.82393e-05)
(0.00470697 0.000195183 0.000628424)
(0.00468185 0.000122342 0.000591146)
(0.0053013 6.9168e-05 0.000527947)
(0.00620722 2.21584e-05 0.000455534)
(0.00722907 -1.78139e-06 0.000380861)
(0.00816795 -3.52165e-05 0.000286676)
(0.00896888 -5.87881e-05 0.000203866)
(0.0093833 -9.62777e-05 0.000104129)
(0.00932752 -0.00013411 -9.65785e-06)
(0.00483225 0.000211547 0.000588929)
(0.00487059 0.000157413 0.000587535)
(0.0055554 9.24586e-05 0.000553073)
(0.00655361 3.79554e-05 0.000482488)
(0.00759508 -6.78901e-06 0.000397114)
(0.00866929 -7.93304e-05 0.000323183)
(0.00949968 -0.000160883 0.000217968)
(0.0100789 -0.000247961 6.71472e-05)
(0.0100831 -0.000312521 -9.12622e-05)
(0.00471232 8.12486e-05 0.000600562)
(0.0047092 6.0587e-05 0.000551286)
(0.00530407 4.6474e-05 0.000480344)
(0.00621956 2.23526e-05 0.000390355)
(0.00715439 -2.30021e-05 0.000289763)
(0.00804476 -4.23399e-05 0.000170502)
(0.00864727 -5.71683e-05 4.05485e-05)
(0.00898193 -0.000134932 -0.000119244)
(0.00895428 -0.000122773 -0.000181101)
(0.00475424 0.000149051 0.000559056)
(0.00476359 0.000102387 0.000523572)
(0.00539003 6.81201e-05 0.000470478)
(0.00637118 2.88391e-05 0.000397243)
(0.00736444 -9.49719e-06 0.000299229)
(0.00831307 -1.66447e-05 0.000189208)
(0.00908092 -4.47711e-05 6.59786e-05)
(0.00955617 -9.25208e-05 -0.000115283)
(0.00940856 -0.000133516 -0.000225932)
(0.00479752 0.000158984 0.000515893)
(0.00482187 0.000124205 0.000499144)
(0.00549886 7.78558e-05 0.000462419)
(0.00656206 2.20563e-05 0.000391205)
(0.00761482 -4.21147e-05 0.00028752)
(0.00870444 -9.01166e-05 0.000208075)
(0.0096307 -0.000168177 8.74123e-05)
(0.0103599 -0.000273303 -0.000134573)
(0.0104147 -0.000338957 -0.000270292)
)
;

boundaryField
{
    inlet
    {
        type            calculated;
        value           nonuniform List<vector> 9((0.00407265 0.000338398 0.000777152) (0.00440939 0.00097393 0.000454194) (0.00509406 0.000536909 0.000417078) (0.00438156 0.000208517 0.00102304) (0.00441961 0.000658779 0.000568469) (0.00492338 0.000478836 0.00024472) (0.00493965 0.00012607 0.000577591) (0.00486191 0.000335369 0.000465649) (0.00474761 0.000140947 0.000213552));
    }
    outlet
    {
        type            calculated;
        value           nonuniform 0();
    }
    wall
    {
        type            calculated;
        value           nonuniform List<vector> 
57
(
(0.00493965 0.00012607 0.000577591)
(0.00486191 0.000335369 0.000465649)
(0.00474761 0.000140947 0.000213552)
(0.00310679 4.02441e-05 0.000448297)
(0.00300065 6.21783e-05 0.000359404)
(0.00274376 0.000125435 0.000217265)
(0.00448928 0.000102204 0.000347082)
(0.00444742 0.000117694 0.000353654)
(0.00440951 9.35462e-05 0.000269262)
(0.00633667 7.28175e-05 0.000171726)
(0.00671821 8.68955e-05 0.00033477)
(0.007213 -1.99538e-05 0.000198394)
(0.00709653 -0.000276514 -3.94844e-05)
(0.00780617 6.1168e-06 0.000147736)
(0.00833572 -0.000303534 -0.000162171)
(0.00814534 -0.000204783 -0.00027827)
(0.00897241 0.000410947 -6.98535e-05)
(0.0105468 -0.000252793 4.54786e-05)
(0.00775442 8.17862e-05 -0.000521753)
(0.0100195 0.000474808 -0.000156651)
(0.0123574 -0.000480451 8.60469e-05)
(0.00718327 -0.000797455 -0.00135184)
(0.0114081 0.00057813 -0.000948153)
(0.0158783 -0.00103416 -0.00108994)
(0.00642938 -0.000497783 -0.000466689)
(0.00946481 0.000415532 -0.000910764)
(0.0163682 -0.00121876 -0.00124551)
(0.00509406 0.000536909 0.000417078)
(0.00492338 0.000478836 0.00024472)
(0.00474761 0.000140947 0.000213552)
(0.00341174 0.000271837 0.000761545)
(0.00317287 0.000336757 0.000421211)
(0.00274376 0.000125435 0.000217265)
(0.005271 0.000172731 0.000791756)
(0.00512225 0.00011297 0.000468346)
(0.00440951 9.35462e-05 0.000269262)
(0.00776426 5.875e-05 0.000741117)
(0.00704307 4.59859e-05 0.000334613)
(0.007213 -1.99538e-05 0.000198394)
(0.0082436 -3.34164e-05 0.000562612)
(0.00826808 0.000108316 0.000211498)
(0.00833572 -0.000303534 -0.000162171)
(0.0104695 -5.26695e-05 0.000508704)
(0.0106058 -0.00029151 0.000396697)
(0.0105468 -0.000252793 4.54786e-05)
(0.0132382 0.000278511 0.000767808)
(0.0119785 -0.000329999 0.000442016)
(0.011089 -0.000630006 0.000311511)
(0.0123574 -0.000480451 8.60469e-05)
(0.0166149 0.000200799 0.000367896)
(0.0127537 -0.000894878 -5.36628e-05)
(0.0127539 -0.000893347 3.50037e-05)
(0.0158783 -0.00103416 -0.00108994)
(0.0188878 -0.000238965 0.000957417)
(0.013392 -0.000723466 0.000664654)
(0.0119569 -0.000883636 -0.000770782)
(0.0163682 -0.00121876 -0.00124551)
)
;
    }
    procBoundary6to0
    {
        type            processor;
        value           uniform (0.00904492 -6.91504e-07 0.000220459);
    }
    procBoundary6to2
    {
        type            processor;
        value           nonuniform List<vector> 
32
(
(0.00978519 -6.63172e-06 0.000425875)
(0.0102369 -3.68005e-06 0.000558087)
(0.0104406 -4.53899e-05 0.000464879)
(0.0102279 -5.37135e-06 0.00075842)
(0.0109759 -7.21491e-05 0.000670686)
(0.0111929 -0.000139339 0.000561734)
(0.00470712 0.00015048 0.000920571)
(0.0046919 9.46733e-05 0.000949028)
(0.0053236 6.89459e-05 0.000879891)
(0.00618852 3.82687e-05 0.000781189)
(0.00713778 2.77156e-05 0.000664549)
(0.0080137 1.39971e-05 0.000551367)
(0.00872048 2.27032e-05 0.000460335)
(0.00917467 1.47728e-05 0.000339036)
(0.00917467 1.47728e-05 0.000339036)
(0.00917467 1.47728e-05 0.000339036)
(0.00487306 0.000266506 0.000926283)
(0.00490061 0.000156001 0.000969594)
(0.00557885 9.97817e-05 0.000917796)
(0.00647142 4.57837e-05 0.00082654)
(0.00747759 2.72399e-05 0.000712623)
(0.00845142 7.4085e-06 0.000610046)
(0.00927607 7.66135e-06 0.000518108)
(0.00927607 7.66135e-06 0.000518108)
(0.00927607 7.66135e-06 0.000518108)
(0.00506694 0.000279442 0.000951206)
(0.00518012 0.000204339 0.00100884)
(0.00592294 0.000135178 0.000981216)
(0.00693122 8.47836e-05 0.000889618)
(0.00797705 6.34034e-05 0.000781227)
(0.00912188 1.55798e-05 0.000702258)
(0.00912188 1.55798e-05 0.000702258)
)
;
    }
    procBoundary6to4
    {
        type            processor;
        value           nonuniform List<vector> 
27
(
(0.00457157 4.13581e-06 0.000791127)
(0.00449988 2.67266e-05 0.000754782)
(0.00506228 3.37546e-05 0.000674046)
(0.00587913 3.27966e-05 0.000576387)
(0.00680418 2.5428e-05 0.00049)
(0.00764177 1.33015e-05 0.000407464)
(0.00831238 6.60384e-06 0.000322649)
(0.00871409 -1.82224e-05 0.000234888)
(0.00877993 2.39239e-07 0.000147186)
(0.00459774 2.20669e-07 0.000690756)
(0.00453476 1.78187e-05 0.000632121)
(0.00509905 2.19869e-05 0.000544311)
(0.00594612 2.30958e-05 0.000448533)
(0.00690002 1.05566e-05 0.000368635)
(0.0077977 -8.52612e-06 0.000282475)
(0.00848868 -2.06292e-05 0.000196194)
(0.00889311 -3.8849e-05 9.31486e-05)
(0.00899672 -1.99996e-05 2.906e-06)
(0.00469126 -1.77801e-06 0.000617251)
(0.00469656 4.80984e-06 0.000576843)
(0.00531589 1.145e-05 0.000501963)
(0.00624786 1.86655e-05 0.000414302)
(0.0072188 -1.2195e-05 0.00033224)
(0.00826917 -4.9966e-05 0.00020796)
(0.00893121 -8.01428e-05 7.61681e-05)
(0.00947166 -0.000135774 -5.66317e-05)
(0.00972038 -8.83985e-05 -0.000153617)
)
;
    }
    procBoundary6to7
    {
        type            processor;
        value           nonuniform List<vector> 
12
(
(0.00896134 -9.19093e-05 0.000231461)
(0.00965966 -0.000120347 0.000228991)
(0.010691 -0.000283043 0.000185031)
(0.0084472 -6.56472e-05 6.10451e-05)
(0.0090379 -0.000206301 9.72346e-05)
(0.00993742 -0.000367521 5.82451e-05)
(0.00830017 -5.40752e-05 -0.000234788)
(0.00871851 -0.000169977 -0.000139302)
(0.00964099 -0.000395164 -0.000208974)
(0.00862738 -8.0204e-05 -0.000275256)
(0.00880581 -0.00015915 -0.00033275)
(0.00990263 -0.000352539 -0.000316507)
)
;
    }
}


// ************************************************************************* //
