/*--------------------------------*- C++ -*----------------------------------*\
| =========                 |                                                 |
| \\      /  F ield         | OpenFOAM: The Open Source CFD Toolbox           |
|  \\    /   O peration     | Version:  4.x                                   |
|   \\  /    A nd           | Web:      www.OpenFOAM.org                      |
|    \\/     M anipulation  |                                                 |
\*---------------------------------------------------------------------------*/
FoamFile
{
    version     2.0;
    format      ascii;
    class       volScalarField;
    location    "3.5";
    object      QWallFluid;
}
// * * * * * * * * * * * * * * * * * * * * * * * * * * * * * * * * * * * * * //

dimensions      [1 -1 -3 0 0 0 0];

internalField   nonuniform List<scalar> 
87
(
0
0
0
9.89941e+08
7.08438e+08
1.04473e+09
0
0
0
0
0
0
0
0
0
0
0
0
0
0
0
0
0
0
8.44919e+08
4.36422e+08
8.72073e+08
5.31467e+08
9.10819e+08
6.10448e+08
9.6534e+08
6.79973e+08
1.01453e+09
0
0
0
0
0
0
0
0
0
0
0
0
0
0
0
0
0
0
8.43935e+08
4.32724e+08
8.71398e+08
5.26971e+08
9.10482e+08
6.26119e+08
9.68564e+08
7.10124e+08
1.03547e+09
8.31332e+08
4.15954e+08
8.49644e+08
4.72248e+08
8.6953e+08
4.90586e+08
8.54515e+08
4.07215e+08
7.77963e+08
8.38203e+08
4.18069e+08
8.58108e+08
4.94249e+08
8.90344e+08
5.65764e+08
9.21339e+08
5.84881e+08
9.38299e+08
1.68541e+09
8.54784e+08
1.73024e+09
1.01816e+09
1.81924e+09
1.21537e+09
1.9378e+09
1.41617e+09
2.08295e+09
)
;

boundaryField
{
    inlet
    {
        type            calculated;
        value           uniform 0;
    }
    outlet
    {
        type            calculated;
        value           nonuniform 0();
    }
    wall
    {
        type            calculated;
        value           uniform 0;
    }
    procBoundary6to0
    {
        type            processor;
        value           uniform 0;
    }
    procBoundary6to2
    {
        type            processor;
        value           nonuniform List<scalar> 
32
(
0
0
0
9.93475e+08
6.85113e+08
1.02999e+09
0
0
0
0
0
0
0
0
0
0
0
0
0
0
0
0
0
0
0
8.47637e+08
4.30848e+08
8.74416e+08
5.34779e+08
9.27869e+08
6.41026e+08
6.41026e+08
)
;
    }
    procBoundary6to4
    {
        type            processor;
        value           nonuniform List<scalar> 
27
(
0
0
0
0
0
0
0
0
0
0
0
0
0
0
0
0
0
0
8.23423e+08
4.01169e+08
8.44606e+08
4.80618e+08
8.87842e+08
5.83147e+08
9.46844e+08
6.67333e+08
9.84033e+08
)
;
    }
    procBoundary6to7
    {
        type            processor;
        value           nonuniform List<scalar> 
12
(
0
0
7.51351e+08
0
0
7.44777e+08
0
0
7.69183e+08
2.11704e+08
5.5652e+08
1.5771e+09
)
;
    }
}


// ************************************************************************* //
