/*--------------------------------*- C++ -*----------------------------------*\
| =========                 |                                                 |
| \\      /  F ield         | OpenFOAM: The Open Source CFD Toolbox           |
|  \\    /   O peration     | Version:  4.x                                   |
|   \\  /    A nd           | Web:      www.OpenFOAM.org                      |
|    \\/     M anipulation  |                                                 |
\*---------------------------------------------------------------------------*/
FoamFile
{
    version     2.0;
    format      ascii;
    class       volScalarField;
    location    "3.5";
    object      thCond;
}
// * * * * * * * * * * * * * * * * * * * * * * * * * * * * * * * * * * * * * //

dimensions      [1 1 -3 -1 0 0 0];

internalField   nonuniform List<scalar> 
87
(
190.499
190.646
190.559
190.928
190.939
190.926
190.8
190.83
190.839
190.473
190.219
190.389
190.15
190.229
190.08
191.307
190.943
190.843
190.478
190.382
190.318
190.257
190.184
190.185
191.663
191.195
191.111
190.769
190.481
190.308
190.504
190.48
190.403
190.908
190.774
190.584
190.374
190.368
190.234
190.143
190.187
190.027
191.326
190.97
190.766
190.495
190.45
190.428
190.242
190.324
190.118
191.635
191.199
191.022
190.588
190.451
190.459
190.481
190.527
190.469
191.327
191.11
190.792
190.442
190.293
190.185
189.989
190.036
190.377
191.457
191.234
190.859
190.647
190.286
190.399
190.316
190.38
190.187
191.792
191.329
191.027
190.736
190.645
190.341
190.665
190.681
190.471
)
;

boundaryField
{
    inlet
    {
        type            zeroGradient;
    }
    outlet
    {
        type            zeroGradient;
    }
    wall
    {
        type            zeroGradient;
    }
    procBoundary6to0
    {
        type            processor;
        value           uniform 190.82;
    }
    procBoundary6to2
    {
        type            processor;
        value           nonuniform List<scalar> 
32
(
191.007
190.989
190.877
191.148
191.395
191.206
191.539
191.117
190.85
190.804
190.731
190.627
190.517
190.481
190.481
190.481
191.533
191.239
190.919
190.9
190.754
190.668
190.508
190.508
190.508
191.834
191.442
191.236
191.008
191.033
190.871
190.871
)
;
    }
    procBoundary6to4
    {
        type            processor;
        value           nonuniform List<scalar> 
27
(
191.409
191.08
190.718
190.589
190.345
190.329
190.006
190.274
190.275
191.1
190.852
190.667
190.242
190.085
190.137
189.893
190.041
190.115
190.995
190.849
190.711
190.282
190.161
189.95
190.285
190.312
190.228
)
;
    }
    procBoundary6to7
    {
        type            processor;
        value           nonuniform List<scalar> 
12
(
190.184
190.536
190.771
190.221
190.273
190.449
189.934
190.089
190.395
190.085
190.204
190.309
)
;
    }
}


// ************************************************************************* //
