/*--------------------------------*- C++ -*----------------------------------*\
| =========                 |                                                 |
| \\      /  F ield         | OpenFOAM: The Open Source CFD Toolbox           |
|  \\    /   O peration     | Version:  4.x                                   |
|   \\  /    A nd           | Web:      www.OpenFOAM.org                      |
|    \\/     M anipulation  |                                                 |
\*---------------------------------------------------------------------------*/
FoamFile
{
    version     2.0;
    format      ascii;
    class       volVectorField;
    location    "3.5";
    object      U;
}
// * * * * * * * * * * * * * * * * * * * * * * * * * * * * * * * * * * * * * //

dimensions      [0 1 -1 0 0 0 0];

internalField   nonuniform List<vector> 
87
(
(0.0300237 -0.00168044 -0.00190148)
(-0.000119469 2.39228e-05 7.72971e-05)
(0.0233996 -0.000582404 -0.000264484)
(0.038051 0.00249961 0.00381731)
(0.0249294 0.00284222 0.00249032)
(0.0406865 0.00320737 0.00392325)
(0.02878 0.000887244 -0.000378631)
(0.0064728 0.000481442 4.53223e-05)
(0.0262792 0.000769415 0.000826337)
(0.00140853 0.000182852 2.35234e-05)
(0.0254325 0.000297838 0.000792838)
(0.00067161 0.000164635 -5.15894e-05)
(0.0252713 0.000206972 0.000212109)
(0.00188148 0.00072817 -0.000263663)
(0.0255453 0.000454161 -0.000414255)
(0.0303249 0.00287598 -0.000618245)
(0.00834982 0.00107297 -8.47542e-05)
(0.0294507 0.00264332 0.000659409)
(0.00490573 0.000620803 0.000262368)
(0.0287678 0.000997926 0.00141596)
(0.00261986 0.000232017 0.000173438)
(0.0282604 0.000156393 0.000961423)
(0.00144963 9.40622e-05 -1.44366e-05)
(0.0287506 0.000638333 0.000849299)
(0.0307473 0.00161544 -0.000831162)
(0.0136253 0.000926307 -0.000318352)
(0.0324552 0.00223724 0.000444916)
(0.0176383 0.00119407 0.000615524)
(0.0348553 0.00205642 0.00197873)
(0.0212061 0.00123933 0.00178196)
(0.0374166 0.00154527 0.00321137)
(0.0241099 0.000936606 0.00262303)
(0.0399028 0.00115126 0.00390842)
(0.0300852 0.000590921 0.00163547)
(0.00868689 0.000246331 0.000788901)
(0.0294628 0.000406363 0.00236894)
(0.00523699 0.000183306 0.000771368)
(0.0290949 0.000285162 0.00122477)
(0.00294287 0.000142218 0.00022904)
(0.0296815 0.000392105 -0.000594687)
(0.00254326 0.000203183 -9.25163e-05)
(0.0315148 -1.10931e-06 -0.000787238)
(0.0306981 0.00194045 0.000708595)
(0.00894061 0.00059611 0.0003222)
(0.030113 0.0020814 0.00188393)
(0.00568955 0.000208008 0.000466835)
(0.0291104 0.00132639 0.00187503)
(0.00235956 3.25782e-05 7.95711e-05)
(0.0276537 0.000369016 0.000665292)
(5.93098e-06 5.35552e-06 -1.68544e-05)
(0.0272603 -0.00103953 -0.000558356)
(0.0307395 0.001556 -3.04413e-05)
(0.0134859 0.000877635 -2.92223e-05)
(0.0324969 0.00226205 0.000783266)
(0.0175428 0.00108776 0.000719154)
(0.0348648 0.00240341 0.00163163)
(0.0218346 0.00118744 0.00128997)
(0.0376676 0.00179448 0.00202706)
(0.0255244 0.000725034 0.00161313)
(0.0409899 0.00116244 0.00222352)
(0.030436 0.000697027 0.00102012)
(0.0128835 0.000257449 0.000476367)
(0.0317219 0.000426773 0.00179955)
(0.015386 0.000216408 0.000678863)
(0.0331422 0.000124484 0.001605)
(0.0162765 8.26553e-05 -3.09024e-05)
(0.0327557 -0.000246085 -6.3502e-05)
(0.0128623 3.978e-05 -0.00151022)
(0.0286527 -0.000251124 -0.00293079)
(0.0306263 0.00121241 0.000976666)
(0.0129121 0.000485788 0.000534955)
(0.032027 0.00122727 0.00197275)
(0.0161751 0.000444514 0.000963612)
(0.0340828 0.00109051 0.00237276)
(0.0192858 0.000582828 0.00119966)
(0.0355873 0.00124968 0.00160325)
(0.0201305 0.00105032 0.000368143)
(0.0365852 0.00124453 0.000214055)
(0.0305822 0.000785352 0.000233157)
(0.0132539 0.000374513 6.12646e-05)
(0.0322674 0.000926954 0.000656969)
(0.0167698 0.000375609 0.000333869)
(0.0347235 0.000935014 0.00100078)
(0.0211668 0.000181709 0.000498306)
(0.0375626 0.000704806 0.00105424)
(0.0253781 7.59619e-06 0.000480985)
(0.0413579 0.000299219 0.000630703)
)
;

boundaryField
{
    inlet
    {
        type            fixedValue;
        value           uniform (0.01 0 0);
    }
    outlet
    {
        type            zeroGradient;
    }
    wall
    {
        type            fixedValue;
        value           uniform (0 0 0);
    }
    procBoundary6to0
    {
        type            processor;
        value           uniform (0.0293703 -0.000187168 -0.000177275);
    }
    procBoundary6to2
    {
        type            processor;
        value           nonuniform List<vector> 
32
(
(0.0298593 0.000342767 -0.000780823)
(0.00438078 0.000164244 -0.000625322)
(0.0288947 -0.000445461 -0.00176581)
(0.0380346 0.0018418 0.00383981)
(0.0237496 0.00165619 0.00194972)
(0.0397988 0.00095947 0.00362619)
(0.0299822 0.00102509 -0.0024904)
(0.00652853 0.000398414 -0.000718221)
(0.0288002 0.000908158 0.000123835)
(0.003058 0.000173238 -0.000103576)
(0.0289205 -9.63549e-05 0.00163445)
(0.0024012 0.000108042 -8.99582e-05)
(0.0295355 -0.000364204 0.000900407)
(0.00220883 0.000141758 -0.00025428)
(0.00220883 0.000141758 -0.00025428)
(0.00220883 0.000141758 -0.00025428)
(0.0303161 0.0024034 -0.00212122)
(0.00864863 0.000894392 -0.000695166)
(0.0293455 0.00245544 -1.6889e-05)
(0.00611199 0.000448998 0.000104985)
(0.0282582 0.00119376 0.00160168)
(0.00304806 -2.18595e-06 0.000140005)
(0.026307 0.000181551 0.00129777)
(0.026307 0.000181551 0.00129777)
(0.026307 0.000181551 0.00129777)
(0.030671 0.00181128 -0.00189779)
(0.0132732 0.00111848 -0.00091517)
(0.0324373 0.00251219 7.26917e-05)
(0.017629 0.0016249 0.000470144)
(0.0350538 0.00279211 0.00229225)
(0.0220832 0.00233643 0.0020827)
(0.0220832 0.00233643 0.0020827)
)
;
    }
    procBoundary6to4
    {
        type            processor;
        value           nonuniform List<vector> 
27
(
(0.0299238 -0.000527255 -0.000154365)
(0.00790859 -0.000125957 0.000213585)
(0.0284279 -0.000117385 0.00143012)
(0.0044448 -0.000126393 0.000365652)
(0.0273695 0.000119743 0.00118772)
(0.00246887 -1.25961e-05 0.000153797)
(0.0263795 0.000285625 0.000315632)
(0.000631494 1.73764e-05 -3.06357e-05)
(0.0250374 -0.000558627 -0.000694602)
(0.0305599 -0.000555842 0.000940233)
(0.00929237 -6.78316e-05 0.00081834)
(0.0300265 -0.000317405 0.00249411)
(0.00749512 -2.05868e-05 0.00127777)
(0.0295162 0.00012659 0.00248354)
(0.00471066 3.90037e-05 0.00116704)
(0.0282102 0.000143095 0.00152656)
(0.00099553 2.90235e-05 0.000307616)
(0.0266075 0.000596702 0.000428539)
(0.0303641 -0.000216093 0.000864443)
(0.0124003 -9.82985e-05 0.000598118)
(0.031544 -0.00039603 0.00203755)
(0.0157726 -0.000315187 0.00115191)
(0.0340736 -0.000597415 0.00272537)
(0.020255 -0.000721536 0.0017327)
(0.0368085 -0.00118737 0.00256801)
(0.0237046 -0.00172987 0.0016039)
(0.0387332 -0.00200112 0.00111066)
)
;
    }
    procBoundary6to7
    {
        type            processor;
        value           nonuniform List<vector> 
12
(
(0.0016882 0.00037798 -0.000337103)
(-0.00795315 0.000452282 -0.00378134)
(0.0268383 0.00419017 0.00231614)
(-0.000884099 0.00383756 -0.00148635)
(0.000479482 5.1362e-05 -0.000118969)
(0.0270082 0.00120887 0.00308493)
(0.00601014 0.000822898 -0.00081557)
(-0.000991843 -0.000111766 -0.000618833)
(0.0283296 0.000386755 0.00157171)
(0.00545322 0.000390784 -0.00163175)
(0.018799 0.00295431 -0.000548147)
(0.0293462 3.92989e-05 0.000286693)
)
;
    }
}


// ************************************************************************* //
