/*--------------------------------*- C++ -*----------------------------------*\
| =========                 |                                                 |
| \\      /  F ield         | OpenFOAM: The Open Source CFD Toolbox           |
|  \\    /   O peration     | Version:  4.x                                   |
|   \\  /    A nd           | Web:      www.OpenFOAM.org                      |
|    \\/     M anipulation  |                                                 |
\*---------------------------------------------------------------------------*/
FoamFile
{
    version     2.0;
    format      ascii;
    class       volVectorField;
    location    "54";
    object      DDtUrel;
}
// * * * * * * * * * * * * * * * * * * * * * * * * * * * * * * * * * * * * * //

dimensions      [0 1 -2 0 0 0 0];

internalField   nonuniform List<vector> 
114
(
(-0.000150301 -2.03143e-05 -3.23137e-06)
(-0.000286181 -5.01324e-05 -1.18646e-05)
(-0.000480035 -9.45085e-05 -3.79883e-05)
(-0.000848661 -0.000160277 -7.32311e-05)
(-0.00135992 -0.00027015 -0.000142598)
(-0.00197032 -0.000375917 -0.000217918)
(-5.43656e-05 2.71768e-06 6.50699e-06)
(-0.000138659 -1.94347e-05 -7.60696e-06)
(-0.000265756 -4.12457e-05 -1.39097e-05)
(-0.000477468 -8.60997e-05 -5.21547e-05)
(-0.000828871 -0.000139624 -8.61937e-05)
(-0.00129251 -0.000282164 -0.000208701)
(-0.00190169 -0.000426331 -0.000313601)
(-1.6709e-05 2.15067e-06 5.01106e-06)
(-6.37415e-05 -5.99131e-06 6.86674e-07)
(-0.000140506 -1.7054e-05 -1.08546e-05)
(-0.000270265 -3.39852e-05 -2.33788e-05)
(-0.000468036 -6.07482e-05 -6.04647e-05)
(-0.000801011 -0.000103026 -0.000108585)
(-0.00117888 -0.000178239 -0.00020853)
(-0.00169155 -0.000245017 -0.000292898)
(4.63087e-05 1.72885e-05 2.41074e-05)
(-1.7393e-06 9.0352e-06 2.34674e-05)
(-1.60597e-05 4.54269e-06 2.22813e-05)
(-0.000114821 -2.35202e-05 2.81199e-05)
(-0.000190118 -4.00033e-05 1.99292e-05)
(-0.000434184 -0.000107822 5.60077e-05)
(-0.000694934 -0.00016386 6.43999e-05)
(-0.00138154 -0.000362751 0.000229744)
(-0.00234214 -0.000514864 0.000384069)
(2.61828e-05 1.50017e-05 1.22783e-05)
(-1.14468e-05 6.99929e-06 1.12729e-05)
(-3.9468e-05 2.13673e-06 1.01387e-05)
(-0.000124168 -1.82439e-05 1.28818e-05)
(-0.000230908 -3.34607e-05 1.5338e-05)
(-0.000444129 -9.7167e-05 3.61957e-05)
(-0.000763187 -0.000151383 5.78358e-05)
(-0.0012714 -0.000378226 0.000188438)
(-0.00199245 -0.000539547 0.000293358)
(8.73486e-06 5.86698e-06 7.6429e-06)
(-1.93732e-05 2.01355e-07 5.7917e-06)
(-5.65666e-05 -5.88573e-06 6.92828e-06)
(-0.000132536 -1.77667e-05 6.80616e-06)
(-0.000243711 -3.29906e-05 9.55701e-06)
(-0.000441548 -6.89925e-05 2.04893e-05)
(-0.000754824 -0.000101855 2.97997e-05)
(-0.00115718 -0.000228801 0.000118776)
(-0.00174379 -0.000344639 0.00020596)
(4.65376e-06 -3.64118e-06 2.1843e-06)
(-2.54901e-05 -4.77558e-06 1.66896e-06)
(6.03631e-05 1.28548e-05 1.21918e-05)
(2.57645e-05 7.95396e-06 1.69347e-05)
(1.88031e-05 4.94606e-07 2.07591e-05)
(-6.79156e-05 -2.04684e-05 3.83673e-05)
(-0.000137281 -4.42358e-05 5.0944e-05)
(-0.000387567 -0.0001049 0.000115232)
(-0.000680188 -0.0001835 0.000177382)
(-0.00149236 -0.000357059 0.000457663)
(-0.00252063 -0.000509788 0.000721849)
(4.56994e-05 9.6147e-06 6.12225e-06)
(1.03988e-05 1.84508e-06 1.02566e-05)
(-3.3156e-06 -5.2858e-07 1.05537e-05)
(-8.86773e-05 -2.06197e-05 2.62803e-05)
(-0.00017157 -3.20669e-05 3.64445e-05)
(-0.000406066 -9.25469e-05 9.37373e-05)
(-0.000709252 -0.00014618 0.000154887)
(-0.00139265 -0.000351834 0.000409278)
(-0.0022888 -0.000523077 0.000604753)
(2.29137e-05 1.63761e-06 -3.76231e-07)
(-7.54839e-06 -3.03805e-06 4.02559e-06)
(-4.02403e-05 -6.23652e-06 7.73342e-06)
(-0.000109956 -1.96031e-05 1.83586e-05)
(-0.000216711 -3.47886e-05 3.06691e-05)
(-0.000414147 -7.18461e-05 7.89313e-05)
(-0.000723273 -0.000119938 0.000140742)
(-0.00125407 -0.000248642 0.000384711)
(-0.00193931 -0.000347993 0.000552836)
(1.69092e-05 -4.4366e-06 -4.7506e-06)
(-2.06075e-05 -8.29279e-06 -1.29248e-06)
(-4.97968e-05 -1.2242e-05 1.08351e-06)
(-0.000125741 -1.77692e-05 1.18322e-05)
(0.000120537 8.67732e-06 1.007e-05)
(8.62592e-05 3.60653e-06 1.91747e-05)
(0.000109131 -4.38564e-06 2.13034e-05)
(1.00495e-05 -3.08872e-05 5.79504e-05)
(1.86781e-05 -5.18227e-05 6.53111e-05)
(-0.000292865 -0.000132396 0.0001784)
(-0.000404512 -0.00020332 0.000234672)
(-0.00172393 -0.000501832 0.000710525)
(-0.00329526 -0.00076465 0.00119324)
(8.91602e-05 2.3826e-06 2.74152e-06)
(5.1807e-05 -4.88765e-06 9.43012e-06)
(6.26096e-05 -4.21672e-06 1.00874e-05)
(-3.4835e-05 -2.98766e-05 3.75486e-05)
(-6.94834e-05 -3.55203e-05 4.5809e-05)
(-0.000357368 -0.000106088 0.000131696)
(-0.000597446 -0.000143606 0.000192716)
(-0.0015721 -0.000392763 0.000516588)
(-0.00279859 -0.000654203 0.000841748)
(5.71614e-05 -5.51593e-06 -4.72058e-06)
(1.72803e-05 -1.00283e-05 4.90707e-06)
(1.30979e-05 -1.05174e-05 6.5089e-06)
(-7.25117e-05 -2.61809e-05 3.27747e-05)
(-0.000119586 -3.34834e-05 3.58302e-05)
(-0.000364776 -7.9322e-05 0.000117942)
(-0.000578334 -0.000110632 0.000159516)
(-0.00142068 -0.000267257 0.000480155)
(-0.00250655 -0.000423587 0.000763175)
(3.85292e-05 -1.12658e-05 -1.07723e-05)
(-8.53424e-06 -1.64668e-05 -5.3202e-06)
(-2.26861e-05 -1.82642e-05 -5.75484e-06)
(-0.000109421 -2.98565e-05 1.53241e-05)
(-0.000164979 -3.15434e-05 2.60764e-05)
(-0.000384012 -6.9164e-05 8.55834e-05)
)
;

boundaryField
{
    inlet
    {
        type            calculated;
        value           nonuniform 0();
    }
    outlet
    {
        type            calculated;
        value           nonuniform List<vector> 
12
(
(-0.0010221 -0.000137604 -0.000250138)
(-0.00233139 -0.000913858 -0.00132532)
(-0.00165482 9.86001e-07 -0.000344752)
(-0.00711645 -0.00137331 0.00197067)
(-0.00339045 -0.00213089 0.00152825)
(-0.00279455 -0.00114527 0.0010274)
(-0.00473785 -0.000168017 0.00152739)
(-0.004898 -0.00120281 0.00126611)
(-0.00225364 -0.000473284 0.00165328)
(-0.0122799 -0.00273522 0.00527766)
(-0.00770656 -0.00227086 0.00178546)
(-0.00758272 -0.000605884 0.00274113)
)
;
    }
    wall
    {
        type            calculated;
        value           nonuniform List<vector> 
66
(
(0.000554386 4.05675e-05 -1.68049e-05)
(0.000363681 2.39248e-05 -3.91788e-05)
(0.000244568 -1.21129e-05 -6.93348e-05)
(0.00026884 -1.60985e-05 -5.6494e-05)
(0.000192039 2.56924e-05 7.85183e-05)
(2.2766e-05 -6.16455e-05 1.05608e-05)
(-4.91531e-05 -4.06228e-05 5.1176e-05)
(-7.71807e-05 -6.73732e-05 -3.50745e-06)
(0.000923466 4.00034e-05 -5.44176e-05)
(0.000624523 8.94598e-05 -0.000101499)
(0.000398046 2.98736e-05 -5.04384e-05)
(0.000328627 -2.52614e-05 -0.000112769)
(3.71891e-05 -8.40483e-05 0.000275339)
(-9.62104e-05 -0.000131331 8.64831e-05)
(-8.54601e-05 -5.07679e-05 0.000190811)
(-0.000161124 -0.000133572 5.99033e-05)
(0.00180324 6.81692e-05 -0.000173588)
(0.000947479 0.000207729 -0.000206693)
(0.000805924 9.55781e-05 -0.00020542)
(0.000634947 3.83887e-05 -6.51735e-05)
(-0.000452297 -0.00032876 0.000698663)
(-0.000538917 -0.000255653 0.000227844)
(-0.000279864 -9.81436e-05 0.000425521)
(-0.000234904 -0.000372857 0.00024263)
(0.00494336 0.000290545 -0.000820742)
(0.00147521 0.000631933 -0.000570253)
(0.00202097 0.000297415 -0.000723972)
(-0.00208286 -0.00139444 0.00205701)
(-0.00130405 -0.000529015 0.000358417)
(-0.00102506 -0.00012145 0.00112671)
(-0.0122799 -0.00273522 0.00527766)
(-0.00770656 -0.00227086 0.00178546)
(-0.00758272 -0.000605884 0.00274113)
(0.000263261 4.14165e-05 0.000114079)
(6.76959e-05 4.12598e-05 -1.85806e-05)
(0.000554386 4.05675e-05 -1.68049e-05)
(-9.14286e-05 -1.85938e-05 0.000125382)
(-0.000117563 4.49091e-05 1.35591e-05)
(0.000192039 2.56924e-05 7.85183e-05)
(0.000405604 9.1009e-05 8.87472e-05)
(0.000175412 4.97647e-05 1.03393e-06)
(0.000923466 4.00034e-05 -5.44176e-05)
(-0.000254174 -2.04447e-05 3.18591e-05)
(-0.000197219 -9.65997e-05 0.00018487)
(-0.000156035 3.02588e-05 6.31943e-05)
(3.71891e-05 -8.40483e-05 0.000275339)
(-0.000790926 -0.000103622 4.46171e-05)
(0.000613456 0.000150265 -0.00010707)
(0.000238043 4.81584e-05 -2.14073e-05)
(0.00180324 6.81692e-05 -0.000173588)
(-5.90324e-05 -1.98066e-05 4.32555e-05)
(-0.000352129 -0.000228424 0.000312679)
(-0.000341921 8.5246e-06 0.000175976)
(-0.000452297 -0.00032876 0.000698663)
(-0.00101461 -0.000107224 -1.9797e-05)
(0.0013195 0.000309793 -0.000348499)
(0.000294208 9.99335e-06 -0.000290388)
(0.00494336 0.000290545 -0.000820742)
(-0.000402358 5.27241e-05 -5.08932e-05)
(-0.000558133 -0.000767766 0.000834236)
(-0.000728086 2.02509e-05 0.000581636)
(-0.00208286 -0.00139444 0.00205701)
(-0.0010221 -0.000137604 -0.000250138)
(-0.00711645 -0.00137331 0.00197067)
(-0.00473785 -0.000168017 0.00152739)
(-0.0122799 -0.00273522 0.00527766)
)
;
    }
    procBoundary5to1
    {
        type            processor;
        value           nonuniform List<vector> 
32
(
(-9.85388e-05 -1.61807e-05 -4.32137e-05)
(-0.000176281 -3.64485e-05 -4.15306e-05)
(-0.000481342 -9.12887e-05 -0.000134877)
(-0.000816837 -0.000148035 -0.00017914)
(-0.001613 -0.000275232 -0.00047244)
(-0.00262224 -0.000376556 -0.000793377)
(1.69387e-05 5.49787e-06 -1.9886e-06)
(-9.87106e-05 -2.29507e-05 -3.65356e-05)
(-0.000188293 -2.97561e-05 -4.83052e-05)
(-0.000471332 -9.50247e-05 -0.000140636)
(-0.000797888 -0.000124286 -0.000207038)
(-0.00152822 -0.000337553 -0.000515084)
(-0.00245695 -0.00053818 -0.000817509)
(1.17079e-05 3.23455e-06 3.51418e-06)
(-2.65094e-05 -1.29389e-06 -6.40916e-06)
(-0.00011985 -1.84273e-05 -3.15948e-05)
(-0.000242395 -3.07463e-05 -5.75592e-05)
(-0.000476669 -7.12881e-05 -0.000145634)
(-0.00082847 -0.000102461 -0.000239839)
(-0.00135365 -0.000258805 -0.000520751)
(-0.00203554 -0.000368054 -0.000776274)
(2.6175e-05 2.75665e-05 1.90474e-05)
(-2.5974e-05 1.71606e-05 9.4927e-06)
(-7.57733e-05 7.56534e-06 6.8088e-06)
(-7.57733e-05 7.56534e-06 6.8088e-06)
(-7.57733e-05 7.56534e-06 6.8088e-06)
(2.84361e-05 1.96042e-05 1.49612e-05)
(-1.27576e-05 1.02915e-05 8.34766e-06)
(-1.27576e-05 1.02915e-05 8.34766e-06)
(-1.27576e-05 1.02915e-05 8.34766e-06)
(1.39252e-05 8.80904e-06 1.07599e-05)
(1.39252e-05 8.80904e-06 1.07599e-05)
)
;
    }
    procBoundary5to4
    {
        type            processor;
        value           nonuniform List<vector> 
12
(
(5.20944e-05 1.48653e-05 2.42027e-05)
(3.70139e-05 1.21273e-05 1.47164e-05)
(2.70056e-05 6.26935e-06 7.90653e-06)
(2.18403e-05 -1.78231e-06 4.9623e-06)
(6.29206e-05 1.18251e-05 1.34149e-05)
(4.90579e-05 6.07148e-06 8.35033e-06)
(3.49261e-05 5.25701e-07 2.49617e-06)
(2.64794e-05 -5.58325e-06 -1.73502e-06)
(0.000107441 5.90077e-06 1.41725e-05)
(8.34975e-05 -2.32435e-06 5.91652e-06)
(5.90092e-05 -7.78494e-06 1.70833e-07)
(4.39213e-05 -1.29978e-05 -5.61507e-06)
)
;
    }
    procBoundary5to7
    {
        type            processor;
        value           nonuniform List<vector> 
44
(
(-1.99029e-05 -2.25701e-06 2.32139e-06)
(-6.67036e-05 -5.74864e-06 -2.00665e-06)
(-0.000145481 -1.06607e-05 -1.32585e-05)
(-0.000273667 -1.28437e-05 -2.79874e-05)
(-0.000468494 -1.76044e-05 -7.12245e-05)
(-0.000798209 -2.92019e-05 -0.000122058)
(-0.00114794 -8.17148e-06 -0.00024747)
(-0.0016396 7.6713e-06 -0.000360198)
(1.62667e-05 1.5764e-06 8.98292e-06)
(-1.99029e-05 -2.25701e-06 2.32139e-06)
(-6.65712e-05 -7.84369e-06 3.73952e-06)
(-0.000139257 -1.15164e-05 -1.71843e-08)
(-0.000255615 -1.46697e-05 -4.33059e-07)
(-0.000439611 -2.51244e-05 -2.24024e-06)
(-0.000746852 -3.02207e-05 3.63178e-06)
(-0.00110287 -6.99849e-05 4.76712e-05)
(-0.00162962 -0.000107419 9.44607e-05)
(8.01573e-06 -8.78161e-06 7.20525e-07)
(-6.65712e-05 -7.84369e-06 3.73952e-06)
(-2.65563e-05 -8.34682e-06 -2.16565e-06)
(-6.65712e-05 -7.84369e-06 3.73952e-06)
(-0.000139257 -1.15164e-05 -1.71843e-08)
(-0.000221433 -2.39844e-05 2.14198e-05)
(-0.000412715 -4.13142e-05 6.13979e-05)
(-0.000708135 -6.37906e-05 9.98956e-05)
(-0.00117172 -0.000106196 0.000319747)
(-0.00184064 -0.000165223 0.000456104)
(5.89869e-06 -1.17744e-05 -7.34737e-06)
(-2.94289e-05 -1.2459e-05 -6.48212e-06)
(-6.61749e-05 -1.48271e-05 -4.67047e-06)
(-0.000221433 -2.39844e-05 2.14198e-05)
(-0.000137273 -1.25457e-05 -8.93578e-07)
(-0.000221433 -2.39844e-05 2.14198e-05)
(-0.000412715 -4.13142e-05 6.13979e-05)
(-0.000597706 -6.88432e-05 0.00013831)
(-0.00130719 -0.000208311 0.000367764)
(-0.00227311 -0.00037452 0.000548406)
(1.03213e-05 -1.48006e-05 -1.89925e-05)
(-3.46668e-05 -1.80029e-05 -1.38598e-05)
(-6.93933e-05 -1.9266e-05 -1.2655e-05)
(-0.000145899 -2.22472e-05 -2.3698e-06)
(-0.000241764 -2.19238e-05 -1.12366e-06)
(-0.000597706 -6.88432e-05 0.00013831)
(-0.000428409 -2.78146e-05 3.30669e-05)
)
;
    }
}


// ************************************************************************* //
