/*--------------------------------*- C++ -*----------------------------------*\
| =========                 |                                                 |
| \\      /  F ield         | OpenFOAM: The Open Source CFD Toolbox           |
|  \\    /   O peration     | Version:  4.x                                   |
|   \\  /    A nd           | Web:      www.OpenFOAM.org                      |
|    \\/     M anipulation  |                                                 |
\*---------------------------------------------------------------------------*/
FoamFile
{
    version     2.0;
    format      ascii;
    class       volScalarField;
    location    "54";
    object      p_rgh;
}
// * * * * * * * * * * * * * * * * * * * * * * * * * * * * * * * * * * * * * //

dimensions      [1 -1 -2 0 0 0 0];

internalField   nonuniform List<scalar> 
114
(
69.28
-16.0495
62.5627
-33.0113
55.8235
-46.7541
1.45534
68.594
-16.9796
62.369
-35.1869
56.4671
-50.9471
75.149
5.02545
68.4746
-12.3292
61.6985
-29.2242
53.7171
-44.4213
19.6189
74.9208
0.413029
68.7212
-19.8186
63.5149
-41.4147
60.3966
-65.1646
19.7544
75.0369
0.768931
68.4807
-18.7876
62.6099
-38.0237
58.2404
-55.8306
21.1965
74.8675
2.9574
68.3053
-15.7578
62.1895
-34.481
57.1846
-52.1945
21.5383
74.8217
20.3791
75.1663
1.37462
68.6616
-18.1423
62.6545
-38.1465
57.7386
-58.2311
20.1559
75.1265
0.89951
68.5085
-18.8441
62.3977
-38.9685
57.5111
-58.9401
20.9928
75.1141
2.45625
68.2522
-16.0388
61.3166
-33.9066
54.4091
-49.7059
20.5886
74.9132
1.52249
68.0591
20.0719
74.7844
0.743633
68.6013
-19.9477
63.5938
-43.2765
62.0103
-78.2116
20.0152
74.8253
0.639176
68.5781
-19.6833
63.2719
-41.5762
60.4702
-68.5945
20.788
74.9245
1.79649
68.3351
-18.0037
62.4526
-39.1588
58.4892
-67.331
20.5019
74.8599
1.36964
68.4267
-18.5644
62.7074
)
;

boundaryField
{
    inlet
    {
        type            fixedFluxPressure;
        gradient        nonuniform 0();
        value           nonuniform 0();
    }
    outlet
    {
        type            fixedValue;
        value           uniform 0;
    }
    wall
    {
        type            fixedFluxPressure;
        gradient        nonuniform List<scalar> 
66
(
2.55549e-07
7.08877e-07
3.57931e-07
4.97441e-07
1.28577e-06
1.7289e-06
6.15886e-07
5.14318e-07
2.44606e-08
5.459e-06
2.91677e-06
7.29094e-07
1.80235e-07
4.69529e-07
9.55554e-07
6.52505e-07
1.85526e-07
-5.93929e-07
9.60167e-07
1.06351e-06
-4.56411e-07
-1.107e-07
8.49159e-07
7.44834e-07
-1.451e-06
-5.84999e-06
4.53991e-07
-5.68648e-06
-2.38442e-06
2.78758e-07
-4.91896e-05
-1.03142e-05
1.85981e-06
-4.76616e-06
-9.41099e-07
-2.11219e-07
-2.31308e-06
-4.27653e-07
-2.90033e-08
-7.17448e-07
1.76849e-06
-4.06188e-06
1.01103e-06
6.3548e-07
1.65266e-07
2.91143e-07
9.9642e-06
-1.25987e-07
3.85888e-07
3.85107e-07
7.9386e-07
8.36782e-08
2.83517e-07
-1.5046e-08
-0.0928137
-6.65592e-07
-1.03901e-06
-2.16857e-06
6.4394e-07
4.82618e-08
-2.45566e-06
-5.68521e-06
-1.62915e-06
-2.33594e-06
-4.54646e-06
-4.70753e-05
)
;
        value           nonuniform List<scalar> 
66
(
20.0719
20.0152
20.788
20.5019
74.7844
74.8253
74.9245
74.8599
0.743633
0.639176
1.79649
1.36964
68.6013
68.5781
68.3351
68.4267
-19.9477
-19.6833
-18.0037
-18.5644
63.5938
63.2719
62.4526
62.7074
-43.2765
-41.5762
-39.1588
62.0103
60.4702
58.4892
-78.2116
-68.5945
-67.331
19.6189
20.3791
20.0719
74.9208
75.1663
74.7844
0.413029
1.37462
0.743633
69.28
68.7212
68.6616
68.6013
-16.0495
-19.8186
-18.1423
-19.9477
62.5627
63.5149
62.6545
63.5938
-33.0127
-41.4147
-38.1465
-43.2765
55.8235
60.3966
57.7386
62.0103
-46.7541
-65.1646
-58.2311
-78.2116
)
;
    }
    procBoundary5to1
    {
        type            processor;
        value           nonuniform List<scalar> 
32
(
69.0313
-21.059
64.3515
-43.0289
62.0228
-65.6581
-1.0902
68.7756
-21.6983
63.8703
-43.2828
61.3384
-65.6316
74.8802
1.40662
68.4732
-17.7025
62.7896
-36.5957
58.0834
-54.1443
20.5903
75.6524
2.19787
2.19787
2.19787
20.3501
75.2669
75.2669
75.2669
22.6034
22.6034
)
;
    }
    procBoundary5to4
    {
        type            processor;
        value           nonuniform List<scalar> 
12
(
81.5986
81.8808
81.922
81.853
81.9496
82.0205
82.2476
81.9634
81.4176
81.5846
81.7711
81.6924
)
;
    }
    procBoundary5to7
    {
        type            processor;
        value           nonuniform List<scalar> 
44
(
74.8738
1.91966
68.4151
-16.8795
62.5464
-35.6288
57.7434
-51.8819
20.7566
74.8738
3.52839
68.2923
-14.7101
62.4606
-32.6785
56.711
-49.1517
23.0572
3.52839
75.0581
3.52839
68.2923
-17.83
61.9817
-37.063
57.1846
-55.0634
21.4761
74.9446
2.98052
-17.83
68.1643
-17.83
61.9817
-39.6492
58.9582
-66.3573
21.4462
75.0873
2.90057
68.4778
-15.8557
-39.6492
62.2269
)
;
    }
}


// ************************************************************************* //
