/*--------------------------------*- C++ -*----------------------------------*\
| =========                 |                                                 |
| \\      /  F ield         | OpenFOAM: The Open Source CFD Toolbox           |
|  \\    /   O peration     | Version:  4.x                                   |
|   \\  /    A nd           | Web:      www.OpenFOAM.org                      |
|    \\/     M anipulation  |                                                 |
\*---------------------------------------------------------------------------*/
FoamFile
{
    version     2.0;
    format      ascii;
    class       surfaceScalarField;
    location    "54";
    object      phi;
}
// * * * * * * * * * * * * * * * * * * * * * * * * * * * * * * * * * * * * * //

dimensions      [0 3 -1 0 0 0 0];

internalField   nonuniform List<scalar> 
259
(
6.11287e-06
4.11974e-07
2.58966e-07
5.16931e-06
1.85619e-08
2.78048e-07
4.79612e-06
2.79057e-07
2.91436e-07
3.30007e-06
-8.01775e-08
6.2158e-07
3.7516e-06
3.99853e-07
1.61721e-07
-6.71084e-08
1.41528e-06
5.45644e-06
-1.57165e-08
6.17409e-09
5.63728e-06
2.41421e-07
8.05191e-08
5.26944e-06
-2.90805e-08
7.59767e-09
5.6244e-06
1.47901e-07
2.78521e-07
4.72313e-06
-8.39658e-08
7.76237e-08
5.80673e-06
2.44791e-07
5.29627e-07
-1.26531e-07
2.47912e-07
4.86155e-06
2.34725e-08
4.7087e-06
1.98526e-12
4.78079e-06
9.42178e-08
4.53855e-06
2.72103e-08
4.62101e-06
2.29999e-07
3.89559e-06
1.84076e-07
5.2576e-06
8.26332e-08
3.45594e-07
9.18811e-06
-1.23091e-07
-1.38465e-08
9.2171e-06
-6.39088e-08
1.52285e-07
9.30847e-06
-1.17509e-07
1.09745e-07
9.21837e-06
1.20855e-07
2.2821e-07
9.36938e-06
-2.11561e-07
3.386e-07
9.07676e-06
4.80805e-07
1.03252e-07
9.58374e-06
-7.01473e-07
8.16071e-07
9.17843e-06
1.09896e-06
-5.31932e-07
-2.98133e-06
2.28947e-06
6.24879e-06
-7.91954e-08
-6.2253e-10
6.03787e-06
3.82741e-08
9.41728e-08
5.96078e-06
-5.942e-08
2.51765e-08
6.03172e-06
1.35943e-07
-5.51411e-09
5.84261e-06
-1.00215e-07
8.53599e-08
6.41412e-06
3.55828e-07
-1.68004e-07
5.9447e-06
-5.37302e-07
3.82865e-07
7.23835e-06
1.07323e-06
-7.38293e-07
-2.40349e-06
2.26106e-06
5.27843e-06
2.49171e-14
7.15306e-09
5.34155e-06
-2.34579e-09
9.76094e-10
5.28213e-06
8.08622e-13
5.485e-06
4.59383e-08
5.41416e-06
2.57824e-08
5.95609e-06
3.01004e-08
5.49505e-06
3.10376e-07
6.39411e-06
-4.53608e-07
2.04966e-06
5.11558e-06
3.11595e-08
-4.77285e-09
8.66587e-06
-3.66378e-08
7.12105e-08
8.64048e-06
8.70738e-09
1.68971e-07
8.62322e-06
-1.00311e-08
1.37036e-07
8.58402e-06
1.42182e-07
1.25226e-07
8.55799e-06
-2.07866e-08
3.85415e-07
8.2658e-06
4.10551e-07
-1.51e-08
8.1767e-06
-1.23141e-07
1.02831e-06
7.53544e-06
8.89837e-07
-7.80512e-07
-7.9907e-07
3.21006e-06
7.02865e-06
-7.05143e-08
5.59698e-08
6.93727e-06
3.9744e-08
1.54518e-07
6.94672e-06
-8.02935e-08
8.59916e-08
6.89133e-06
1.92988e-07
-9.37008e-10
6.87828e-06
-1.20387e-07
1.98013e-07
6.99682e-06
4.14772e-07
-2.90761e-07
7.00336e-06
-2.75826e-07
5.29007e-07
7.36544e-06
8.90017e-07
-1.10056e-06
-1.35483e-06
1.86782e-06
5.52272e-06
-1.96958e-08
7.6159e-08
5.40581e-06
9.07951e-08
6.68337e-08
5.22151e-06
-8.0848e-09
1.1209e-07
5.29584e-06
1.41199e-07
2.33934e-08
4.94167e-06
2.78403e-07
5.44257e-06
-2.17971e-07
4.78302e-06
7.77502e-07
6.15395e-06
-1.02085e-06
3.21317e-06
5.81139e-06
6.59368e-08
5.79551e-06
3.16132e-08
5.76799e-06
6.74273e-08
-9.71961e-08
1.11097e-05
-1.66899e-07
1.14059e-05
-1.27161e-07
1.17406e-05
-1.97691e-07
1.18971e-05
-3.12848e-08
1.26386e-05
-3.56042e-07
1.24623e-05
1.61202e-07
1.42881e-05
-7.97564e-07
1.2744e-05
7.63603e-07
-2.38702e-06
9.7898e-06
-2.40898e-07
9.97606e-06
-1.58912e-07
1.01896e-05
-3.25186e-07
1.02167e-05
-5.93287e-08
1.053e-05
-4.71329e-07
1.02208e-05
1.79616e-07
1.07347e-05
-7.82505e-07
9.53968e-06
8.58094e-07
-1.49411e-06
8.83744e-06
-1.99076e-07
8.88733e-06
-1.41972e-07
8.96744e-06
-2.93211e-07
9.0655e-06
-1.3399e-07
9.33191e-06
-4.59334e-07
9.30697e-06
-1.34147e-08
1.01891e-05
9.51574e-06
8.8682e-06
8.90072e-06
8.95753e-06
8.91048e-06
9.111e-06
)
;

boundaryField
{
    inlet
    {
        type            calculated;
        value           nonuniform 0();
    }
    outlet
    {
        type            calculated;
        value           nonuniform List<scalar> 
12
(
7.20534e-07
3.10154e-06
3.29743e-06
1.12856e-05
4.64737e-06
3.095e-06
7.41393e-06
8.31445e-06
4.24495e-06
1.83411e-05
1.05146e-05
1.2894e-05
)
;
    }
    wall
    {
        type            calculated;
        value           nonuniform List<scalar> 
66
(
0
0
0
0
0
0
0
1.54074e-33
0
0
0
0
0
0
0
0
0
0
-3.08149e-33
0
0
0
0
0
0
0
0
0
0
0
0
0
0
0
0
0
0
0
0
0
0
-1.2326e-32
3.08149e-33
0
0
0
0
3.85186e-34
0
0
0
0
0
0
0
0
0
0
0
0
0
0
0
0
0
0
)
;
    }
    procBoundary5to1
    {
        type            processor;
        value           nonuniform List<scalar> 
32
(
1.90304e-07
6.4695e-07
-1.97299e-07
9.5465e-07
-1.01311e-06
1.68289e-06
2.26065e-07
-9.08012e-08
4.07886e-07
-5.02327e-07
8.27433e-07
-1.45817e-06
2.5167e-06
-4.51074e-08
8.09811e-08
-6.02556e-08
1.61052e-07
-2.34851e-07
4.43817e-07
-6.82557e-07
1.17753e-06
3.3763e-08
-1.17361e-07
-6.97411e-06
-6.78563e-08
-8.36044e-08
1.83971e-08
-5.60511e-06
-2.11657e-07
1.45689e-08
-4.80005e-06
-1.35005e-12
)
;
    }
    procBoundary5to4
    {
        type            processor;
        value           nonuniform List<scalar> 
12
(
-9.08494e-06
-6.31046e-06
-5.36478e-06
-5.20312e-06
-8.71429e-06
-7.05137e-06
-5.64254e-06
-5.851e-06
-1.08716e-05
-9.65983e-06
-8.8031e-06
-8.81833e-06
)
;
    }
    procBoundary5to7
    {
        type            processor;
        value           nonuniform List<scalar> 
44
(
1.71784e-07
5.61566e-08
1.35365e-07
2.49004e-08
7.02953e-08
1.35558e-08
-5.17287e-07
3.10513e-07
5.63765e-08
3.05136e-08
-1.57426e-13
-1.86481e-08
-2.79477e-08
1.37945e-08
-2.02561e-07
7.10408e-07
-8.08445e-07
-7.14448e-13
5.17794e-06
-9.04439e-08
-3.88078e-08
-7.2457e-08
-1.88388e-08
1.61945e-07
-8.34018e-08
8.63381e-08
-6.09341e-07
-1.4863e-08
7.02912e-08
-9.18477e-09
6.08228e-06
-3.4384e-09
-1.9753e-07
1.60694e-07
-8.87097e-07
5.10559e-07
-1.65922e-06
-1.83014e-07
-1.42875e-07
-2.82599e-07
-1.84133e-07
-4.62326e-07
9.08922e-06
-1.52322e-07
)
;
    }
}


// ************************************************************************* //
