/*--------------------------------*- C++ -*----------------------------------*\
| =========                 |                                                 |
| \\      /  F ield         | OpenFOAM: The Open Source CFD Toolbox           |
|  \\    /   O peration     | Version:  4.x                                   |
|   \\  /    A nd           | Web:      www.OpenFOAM.org                      |
|    \\/     M anipulation  |                                                 |
\*---------------------------------------------------------------------------*/
FoamFile
{
    version     2.0;
    format      ascii;
    class       volVectorField;
    location    "54";
    object      U;
}
// * * * * * * * * * * * * * * * * * * * * * * * * * * * * * * * * * * * * * //

dimensions      [0 1 -1 0 0 0 0];

internalField   nonuniform List<vector> 
114
(
(0.0294983 0.00112246 0.000216723)
(0.0026872 0.000247323 -0.000253736)
(0.0254828 0.000363373 0.000961998)
(9.43721e-09 1.78737e-09 -1.36063e-09)
(0.0180084 -0.000670514 0.00197306)
(0.00165309 0.000574202 -4.77006e-05)
(0.00038393 -8.07834e-05 -5.57153e-05)
(0.029076 0.00113448 0.000345216)
(0.000543786 -0.000152871 -0.000131288)
(0.0282174 0.00117836 0.00162634)
(0.00152088 -0.000456098 -0.000641921)
(0.0245391 0.00290354 0.00410784)
(0.00628958 -0.000966503 -0.00513019)
(0.0258754 0.000544026 5.25601e-05)
(1.10763e-08 7.56543e-10 1.29022e-09)
(0.0254972 0.000190913 0.000218107)
(1.07238e-08 2.52997e-10 -8.97675e-10)
(0.0246045 -0.000363652 0.000721786)
(1.06943e-08 5.66185e-10 -1.74601e-09)
(0.0212204 -0.00154857 0.00123307)
(0.00662501 0.000298683 -0.000801909)
(0.014693 -0.000242972 0.000237422)
(0.0343828 -0.000269098 0.000781912)
(0.0142597 -0.000323994 0.000853333)
(0.0359633 0.000171876 0.00120644)
(0.0130202 -0.000780473 0.00177684)
(0.0380487 0.000865662 0.000656274)
(0.0104751 -0.00204029 0.00344211)
(0.041789 0.0020875 -0.00105675)
(0.00701239 -0.00640876 0.00779691)
(0.00353383 -0.000433505 6.81937e-05)
(0.0302485 -7.97302e-05 0.000255674)
(0.00173119 -0.000327065 8.5419e-05)
(0.0308121 0.000496828 9.71466e-05)
(0.00129548 -0.000395752 0.0001703)
(0.0309298 0.00181555 -8.53593e-05)
(0.00341438 -0.00185977 0.0010591)
(0.0294638 0.00403869 -0.00115703)
(0.00928159 -0.0101235 0.00650314)
(1.101e-08 -7.99011e-10 2.45954e-09)
(0.0283766 0.000289422 7.51763e-05)
(1.15792e-08 -1.58025e-09 3.85795e-09)
(0.0288215 0.000258363 0.000304803)
(0.000488051 -0.000158416 0.000147812)
(0.0294046 0.000173757 0.000559861)
(0.00251103 -0.00113773 0.00102427)
(0.0279245 0.00196947 -0.000765335)
(0.00629314 -0.00326042 0.00269289)
(1.11019e-08 -8.74778e-10 8.84486e-10)
(0.027616 -0.000303749 -3.62314e-05)
(0.0136455 0.000146137 -0.000310411)
(0.0330728 0.000114904 5.13665e-05)
(0.0128999 0.00038144 -0.000243957)
(0.0339047 0.000370955 5.09583e-05)
(0.0119697 0.00054385 0.000111123)
(0.0348038 0.000602196 -8.72787e-05)
(0.00943927 0.000541466 0.00112568)
(0.0354015 0.000612493 -0.00191983)
(0.00479663 0.00014611 0.00494834)
(0.00704074 -0.000349186 -7.00816e-05)
(0.0310529 -6.71695e-05 0.000265205)
(0.00590189 -0.000440982 5.55391e-05)
(0.0320037 0.000418365 -0.00012787)
(0.00483589 -0.000668617 0.000309975)
(0.0330713 0.00169378 -0.000857204)
(0.00452433 -0.0012466 0.00108767)
(0.0341018 0.00436203 -0.00297883)
(0.00528543 -0.00459966 0.00607605)
(0.00111888 -3.50999e-05 3.9453e-05)
(0.0289074 0.000287317 -6.90049e-05)
(1.13327e-08 7.73915e-11 2.00376e-09)
(0.0285173 0.000656437 -4.88439e-05)
(1.11461e-08 -6.02926e-10 1.93388e-09)
(0.0272545 0.000628077 -0.000397976)
(0.00203659 -0.000286125 0.00073484)
(0.0246845 0.000605956 -0.00180397)
(0.00849074 -0.00292938 0.00883932)
(0.00208232 -7.67841e-05 0.000170702)
(0.0297601 0.000216405 1.03817e-05)
(0.00134488 -4.84363e-05 0.000215297)
(0.0304709 0.000131452 -0.000117078)
(0.0212215 -5.15443e-05 0.000689353)
(0.0379747 -9.00827e-05 0.000872879)
(0.0223162 5.2684e-05 0.000987013)
(0.0408941 5.33906e-05 0.000641129)
(0.0226171 -0.000256302 0.00201557)
(0.0457844 0.000259752 6.74889e-06)
(0.0207208 -0.00145029 0.00457341)
(0.0570096 0.00100617 -0.00240486)
(0.0110167 -0.00677533 0.012773)
(0.0170949 -0.000863041 0.000375581)
(0.0354988 -0.0006087 0.000585194)
(0.0174105 -0.00113837 0.000415439)
(0.0376072 -0.000226092 0.000122125)
(0.0170116 -0.0017287 0.000792976)
(0.0405194 0.000636303 -0.000764384)
(0.0142513 -0.0029757 0.00185588)
(0.0444293 0.0032435 -0.00315391)
(0.00657305 -0.00643245 0.00428082)
(0.0142383 -0.00045581 0.000379267)
(0.0334929 -0.000266008 0.000437342)
(0.0140155 -0.000651498 0.00062409)
(0.0349934 -0.000103496 0.000179577)
(0.0137804 -0.000898227 0.00155573)
(0.0376339 0.000365615 -0.00082353)
(0.0126603 -0.00137271 0.00360605)
(0.0433278 0.00154075 -0.0039077)
(0.00779875 -0.00187721 0.00912447)
(0.0142159 -0.000644696 0.000194179)
(0.0337851 -0.000519678 0.000164354)
(0.013854 -0.000989013 0.000164305)
(0.0351336 -0.000643499 -0.000424433)
(0.0129031 -0.00169232 0.00046098)
(0.0373521 -0.000438046 -0.000789526)
)
;

boundaryField
{
    inlet
    {
        type            fixedValue;
        value           nonuniform 0();
    }
    outlet
    {
        type            zeroGradient;
    }
    wall
    {
        type            fixedValue;
        value           uniform (0 0 0);
    }
    procBoundary5to1
    {
        type            processor;
        value           nonuniform List<vector> 
32
(
(0.0373742 0.000713995 -0.00124464)
(0.0141419 0.000681743 -0.00323657)
(0.0392296 0.00104333 0.000118641)
(0.0108617 0.000388178 -0.00519972)
(0.0404573 0.00120307 0.00353656)
(0.00616427 -2.75578e-05 -0.00891209)
(0.00885818 -0.0010161 -0.00115419)
(0.0346534 0.00029554 0.000150661)
(0.00854571 -0.00181661 -0.00207401)
(0.036697 0.00143198 0.00113254)
(0.00809188 -0.00340213 -0.00386935)
(0.0389574 0.00426701 0.00391269)
(0.00626877 -0.00762595 -0.00851895)
(0.0292057 4.81258e-06 0.000194351)
(0.00129669 -0.000102768 -0.000434665)
(0.0296805 0.000514809 0.00011435)
(0.00186613 -0.000300563 -0.000876733)
(0.0298102 0.000974961 0.000569446)
(0.00407408 -0.00149316 -0.00242845)
(0.0282352 0.00284179 0.00250574)
(0.00886682 -0.00691894 -0.00554735)
(0.0118783 0.000153641 -0.000422658)
(0.0315438 0.000581929 -0.00014393)
(0.00807176 0.000446134 -0.000400441)
(0.00807176 0.000446134 -0.000400441)
(0.00807176 0.000446134 -0.000400441)
(0.00184409 -0.0002771 -0.00017202)
(0.0292405 0.000621746 -0.000336832)
(0.0292405 0.000621746 -0.000336832)
(0.0292405 0.000621746 -0.000336832)
(9.95102e-09 4.302e-10 8.94689e-10)
(9.95102e-09 4.302e-10 8.94689e-10)
)
;
    }
    procBoundary5to4
    {
        type            processor;
        value           nonuniform List<vector> 
12
(
(0.0334395 -0.000475696 0.000216919)
(0.0299505 -0.000612661 0.000280428)
(0.0284632 2.52538e-05 -0.000191483)
(0.027608 -1.58052e-05 9.87946e-05)
(0.0327005 -9.87912e-05 0.000154031)
(0.0304907 -0.000507072 0.000407116)
(0.0288132 8.56512e-05 0.000267237)
(0.0289727 -5.40427e-05 0.000288709)
(0.0361466 -0.000250809 0.000960164)
(0.0342335 -0.000714248 0.000779732)
(0.0325217 -0.000215236 0.00081037)
(0.0326436 -0.000438491 0.000458026)
)
;
    }
    procBoundary5to7
    {
        type            processor;
        value           nonuniform List<vector> 
44
(
(0.029119 0.000403701 -0.000132963)
(0.00136215 0.000305857 -0.00038744)
(0.0291206 0.000559687 -5.2809e-05)
(0.000419551 0.000132903 -0.000173061)
(0.028727 0.000769393 0.000750771)
(0.000152629 6.71704e-05 -8.5289e-05)
(0.0246495 -0.00130287 0.00315179)
(0.00336787 0.00140337 -0.00185994)
(0.00183496 0.000214825 -0.000312651)
(0.029119 0.000403701 -0.000132963)
(1.11018e-08 -1.37182e-09 1.1983e-09)
(0.0277301 -0.000363282 0.000520568)
(1.01823e-08 -2.01637e-09 1.0607e-09)
(0.0273297 -9.532e-05 0.000848013)
(9.36308e-09 -2.13293e-09 1.19836e-09)
(0.0244564 0.0020198 0.000818888)
(0.00549568 -0.00124832 0.00142095)
(1.06947e-08 6.14526e-10 -1.41419e-10)
(1.11018e-08 -1.37182e-09 1.1983e-09)
(0.0268461 -0.00019632 -2.51031e-05)
(1.11018e-08 -1.37182e-09 1.1983e-09)
(0.0277301 -0.000363282 0.000520568)
(0.00223575 -0.000110977 0.000649679)
(0.0309006 0.000285829 -0.000109792)
(0.00417697 -0.000203203 0.00231174)
(0.0293786 -0.000103613 -0.00244248)
(0.00876113 -0.000525882 0.0116177)
(0.000399126 -1.38422e-06 4.8924e-05)
(0.0284929 0.000176072 -7.65637e-06)
(1.10847e-08 5.22725e-10 1.87611e-09)
(0.00223575 -0.000110977 0.000649679)
(0.0282989 -0.000149262 0.000127053)
(0.00223575 -0.000110977 0.000649679)
(0.0309006 0.000285829 -0.000109792)
(0.0116697 -0.00359289 0.00166081)
(0.0420354 0.00132039 -0.00176817)
(0.00757045 -0.00738472 0.00618031)
(0.01155 -0.000361909 0.000129966)
(0.0315638 -0.000269716 -0.000131067)
(0.0102488 -0.00058244 3.04339e-05)
(0.0314818 -0.000383941 -0.000423759)
(0.0086141 -0.000893378 0.000241115)
(0.0116697 -0.00359289 0.00166081)
(0.0306635 -0.000414203 -0.00146784)
)
;
    }
}


// ************************************************************************* //
