/*--------------------------------*- C++ -*----------------------------------*\
| =========                 |                                                 |
| \\      /  F ield         | OpenFOAM: The Open Source CFD Toolbox           |
|  \\    /   O peration     | Version:  4.x                                   |
|   \\  /    A nd           | Web:      www.OpenFOAM.org                      |
|    \\/     M anipulation  |                                                 |
\*---------------------------------------------------------------------------*/
FoamFile
{
    version     2.0;
    format      ascii;
    class       volVectorField;
    location    "54";
    object      Us;
}
// * * * * * * * * * * * * * * * * * * * * * * * * * * * * * * * * * * * * * //

dimensions      [0 1 -1 0 0 0 0];

internalField   nonuniform List<vector> 
114
(
(9.89714e-10 -1.28221e-10 1.2816e-09)
(6.3279e-10 -1.17409e-10 3.95749e-10)
(6.04649e-10 -8.7959e-11 4.23137e-11)
(2.66617e-10 4.23106e-12 -2.08307e-10)
(3.25352e-10 -5.22586e-11 -2.71349e-10)
(1.82102e-09 1.32446e-11 -6.19529e-10)
(2.04715e-09 9.96515e-10 4.51713e-09)
(1.72894e-09 1.64448e-10 2.03109e-09)
(1.29009e-09 -1.65565e-11 6.49697e-10)
(9.50214e-10 7.30994e-11 8.82706e-11)
(6.2747e-10 1.88039e-10 -3.19769e-10)
(3.79882e-10 1.61853e-10 -4.2278e-10)
(2.41159e-10 1.5949e-10 -3.30448e-10)
(1.25943e-09 7.58254e-10 2.71663e-09)
(1.82707e-09 1.05077e-09 2.52764e-09)
(2.04855e-09 6.11289e-10 1.45088e-09)
(1.53715e-09 3.06379e-10 6.23924e-10)
(1.20495e-09 1.98515e-10 1.24587e-10)
(8.0364e-10 2.67464e-10 -1.68432e-10)
(5.6297e-10 1.77265e-10 -3.35205e-10)
(2.54294e-10 6.28423e-11 -2.69492e-11)
(-1.33079e-10 3.06245e-10 4.12477e-10)
(5.15769e-10 3.47267e-10 6.83651e-10)
(7.03183e-10 4.44717e-11 9.79034e-10)
(7.93731e-10 -9.88441e-11 5.10862e-10)
(7.53792e-10 7.20518e-12 3.48463e-10)
(5.55049e-10 -1.36949e-11 2.52951e-11)
(4.32257e-10 3.2908e-11 -2.89332e-10)
(5.20385e-10 -9.01339e-12 -4.40165e-10)
(6.86844e-11 1.33758e-10 -1.76745e-09)
(7.42678e-10 6.30108e-10 8.03337e-10)
(1.91832e-09 8.62682e-10 9.67076e-10)
(1.74103e-09 4.04053e-10 1.99415e-09)
(1.55309e-09 2.56483e-11 1.03946e-09)
(1.32316e-09 4.57914e-11 5.02861e-10)
(1.02697e-09 1.53844e-10 1.0741e-10)
(1.03287e-09 1.69156e-10 -3.44094e-10)
(8.18858e-10 1.80482e-10 -4.28103e-10)
(8.71985e-10 1.39454e-10 -8.74021e-10)
(6.8048e-10 6.21422e-10 1.20385e-09)
(1.56851e-09 4.29287e-10 1.62014e-09)
(1.71095e-09 5.6817e-10 1.80307e-09)
(1.76738e-09 4.90749e-10 1.00549e-09)
(1.44866e-09 1.86938e-10 3.3779e-10)
(1.02092e-09 2.23227e-10 1.15348e-10)
(7.79405e-10 3.34981e-10 -1.34108e-10)
(3.82465e-10 4.47902e-10 -2.16345e-10)
(7.07836e-11 3.33026e-10 1.18561e-11)
(1.09347e-09 6.0477e-10 7.35957e-10)
(1.34066e-09 4.85158e-10 9.992e-10)
(1.88729e-10 5.61199e-11 2.06343e-10)
(3.18028e-10 6.08315e-11 3.81544e-10)
(4.53293e-10 -9.92887e-11 5.60251e-10)
(6.78575e-10 -2.41009e-11 1.07846e-10)
(7.62458e-10 -1.99903e-11 1.38648e-10)
(3.35086e-10 -4.25378e-11 -1.27013e-10)
(2.66499e-11 4.34011e-11 -3.26376e-10)
(-3.26085e-10 3.82736e-10 -7.63959e-10)
(1.88493e-09 1.45284e-10 -4.21447e-09)
(4.33157e-10 3.7803e-11 4.6637e-10)
(6.57735e-10 -3.77427e-11 7.30685e-10)
(8.63738e-10 7.74784e-12 1.33119e-09)
(8.38757e-10 -3.98796e-10 7.11528e-10)
(1.26116e-09 1.24738e-11 2.7449e-10)
(9.4967e-10 1.09272e-10 -6.80327e-11)
(3.83373e-10 3.71868e-10 -5.03138e-10)
(4.42433e-10 1.04677e-09 -6.71045e-10)
(3.41167e-10 1.65304e-09 -1.25666e-09)
(6.26745e-10 6.28145e-10 7.03501e-10)
(8.03789e-10 2.10409e-10 7.05795e-10)
(1.09083e-09 5.25395e-10 1.09429e-09)
(1.42125e-09 8.17092e-11 6.21194e-10)
(1.07494e-09 8.78867e-11 1.83647e-10)
(6.43027e-10 2.67912e-10 1.36813e-10)
(2.60162e-10 4.59678e-10 -1.18099e-10)
(-4.65571e-11 7.86202e-10 -1.38411e-10)
(-9.05442e-11 1.04022e-09 -1.37705e-10)
(1.16615e-09 5.10055e-10 2.23872e-10)
(1.17825e-09 4.8824e-10 3.931e-10)
(1.27854e-09 3.56194e-10 3.895e-10)
(1.04557e-09 3.18576e-10 2.5698e-10)
(7.06152e-11 2.02894e-11 2.45477e-11)
(3.74486e-11 4.87232e-12 2.15999e-10)
(2.14485e-11 4.05595e-10 2.44249e-12)
(4.48128e-10 -5.20954e-11 3.22501e-11)
(4.68076e-10 -3.84156e-11 1.85067e-11)
(4.64108e-11 3.01481e-12 -9.14525e-11)
(-5.18123e-10 2.03322e-10 -1.36045e-10)
(-7.1151e-10 1.4219e-09 -1.42222e-09)
(1.12233e-09 3.98068e-09 -4.15946e-09)
(1.66216e-10 8.13354e-12 5.33886e-11)
(1.65528e-10 4.49357e-11 2.65854e-10)
(1.23803e-09 -4.3603e-10 4.19203e-10)
(-3.02843e-10 -5.03303e-10 7.64763e-11)
(4.72097e-10 -3.32359e-10 -4.38597e-11)
(6.14343e-10 1.07038e-10 -1.93514e-11)
(3.10733e-10 4.10839e-10 -3.76774e-10)
(-6.86393e-11 2.55223e-09 -4.65096e-10)
(1.00104e-09 6.10421e-09 -4.8272e-10)
(2.37597e-10 2.57916e-10 2.24992e-11)
(3.28228e-10 1.3164e-10 8.94546e-11)
(2.08069e-10 3.18135e-10 1.77046e-10)
(5.35818e-10 -7.00405e-11 1.43866e-10)
(4.74598e-10 4.51291e-11 5.75847e-11)
(3.87115e-10 2.18567e-10 1.36566e-10)
(1.78271e-10 3.83627e-10 2.63032e-11)
(-8.6192e-11 7.4119e-10 5.33563e-11)
(-1.4744e-10 1.42548e-09 1.036e-10)
(7.52869e-10 2.46443e-10 3.11654e-11)
(8.33797e-10 2.57602e-10 7.54814e-11)
(7.58004e-10 -2.07543e-10 4.38775e-11)
(6.26581e-10 5.27702e-11 9.87167e-11)
(5.0475e-10 2.4969e-10 5.93795e-11)
(3.40999e-10 2.92277e-10 1.20409e-10)
)
;

boundaryField
{
    inlet
    {
        type            zeroGradient;
    }
    outlet
    {
        type            zeroGradient;
    }
    wall
    {
        type            zeroGradient;
    }
    procBoundary5to1
    {
        type            processor;
        value           nonuniform List<vector> 
32
(
(1.30937e-09 -2.15965e-10 1.26216e-09)
(7.02108e-10 1.43539e-11 5.82811e-10)
(2.391e-10 -5.05034e-11 -9.98397e-11)
(1.63154e-10 2.44583e-11 -2.43927e-10)
(-3.37041e-10 -7.77242e-11 -4.59362e-10)
(1.48274e-10 -2.55726e-10 -1.39106e-09)
(1.59551e-09 7.2987e-10 7.50025e-09)
(6.34741e-10 -4.57092e-10 2.22329e-09)
(7.99359e-10 -9.67161e-11 4.7736e-10)
(5.00572e-10 1.97747e-10 -1.56382e-10)
(5.07797e-10 1.92838e-11 -5.23849e-10)
(5.26009e-10 -2.61696e-10 -8.06181e-10)
(1.05287e-10 -3.47523e-10 -2.41648e-10)
(1.49361e-09 1.34558e-09 4.25758e-09)
(1.91235e-09 1.58978e-09 4.92148e-09)
(1.45539e-09 2.95358e-10 1.92781e-09)
(1.08794e-09 -1.17368e-10 3.9654e-10)
(1.05202e-09 5.78155e-11 -1.51678e-10)
(9.65455e-10 1.05263e-11 -4.275e-10)
(8.82435e-10 9.36256e-11 -2.49717e-10)
(5.94678e-10 -4.77659e-10 1.04726e-10)
(-3.814e-10 2.98348e-10 1.99666e-09)
(4.71924e-10 7.97502e-10 7.20118e-10)
(5.26585e-10 5.76577e-10 1.65767e-09)
(5.26585e-10 5.76577e-10 1.65767e-09)
(5.26585e-10 5.76577e-10 1.65767e-09)
(-6.03869e-10 7.59174e-10 2.17913e-09)
(7.31926e-10 1.16454e-09 3.70029e-09)
(7.31926e-10 1.16454e-09 3.70029e-09)
(7.31926e-10 1.16454e-09 3.70029e-09)
(3.43036e-10 7.12127e-10 1.74145e-09)
(3.43036e-10 7.12127e-10 1.74145e-09)
)
;
    }
    procBoundary5to4
    {
        type            processor;
        value           nonuniform List<vector> 
12
(
(-3.67272e-10 7.51547e-11 8.1007e-10)
(-1.84796e-10 3.32578e-10 1.11026e-09)
(9.04422e-10 1.4675e-10 7.05332e-10)
(1.15598e-09 4.55098e-10 5.20588e-10)
(1.01691e-10 -1.24418e-11 2.34872e-10)
(1.90789e-10 -3.71985e-11 4.55987e-10)
(2.20194e-10 2.89449e-10 4.1958e-10)
(1.09308e-09 1.54284e-10 3.6869e-10)
(2.08954e-11 4.54975e-12 6.79421e-11)
(-1.8795e-11 -6.04508e-11 1.51895e-10)
(9.14923e-12 4.14178e-11 1.23566e-10)
(5.39791e-10 1.71588e-10 7.13824e-11)
)
;
    }
    procBoundary5to7
    {
        type            processor;
        value           nonuniform List<vector> 
44
(
(1.3832e-09 5.22816e-10 1.2041e-09)
(1.70224e-09 8.47751e-10 1.62702e-09)
(1.72293e-09 4.69753e-10 6.04674e-10)
(1.54892e-09 3.31138e-10 2.81912e-10)
(1.21825e-09 3.00328e-10 -2.71378e-10)
(7.5405e-10 2.94892e-10 -3.08732e-10)
(5.82167e-10 2.52137e-10 -3.28911e-10)
(2.968e-10 6.0288e-11 9.16333e-11)
(1.23213e-09 5.16166e-10 1.10494e-09)
(1.3832e-09 5.22816e-10 1.2041e-09)
(1.52417e-09 3.74338e-10 8.884e-10)
(1.56062e-09 4.35453e-10 6.00972e-10)
(1.22289e-09 2.46573e-10 2.31828e-10)
(1.05101e-09 4.43546e-10 5.20637e-11)
(6.37019e-10 4.95916e-10 -5.39682e-11)
(4.49382e-10 4.46035e-10 -5.71468e-11)
(2.62192e-10 3.8961e-10 4.48603e-10)
(1.1547e-09 3.59435e-10 2.56555e-10)
(1.52417e-09 3.74338e-10 8.884e-10)
(1.29672e-09 4.56459e-10 4.009e-10)
(1.52417e-09 3.74338e-10 8.884e-10)
(1.56062e-09 4.35453e-10 6.00972e-10)
(9.02852e-10 3.64665e-10 1.90159e-10)
(6.18426e-10 4.55366e-10 9.94816e-11)
(3.04802e-10 5.09899e-10 1.1619e-10)
(2.29247e-10 5.67587e-10 3.67084e-10)
(1.78841e-10 4.87754e-10 6.32113e-10)
(9.8954e-10 4.07049e-10 2.00145e-10)
(1.16385e-09 5.32616e-10 1.66884e-10)
(1.08503e-09 3.8543e-10 1.39249e-10)
(9.02852e-10 3.64665e-10 1.90159e-10)
(9.55801e-10 4.71113e-10 4.90949e-11)
(9.02852e-10 3.64665e-10 1.90159e-10)
(6.18426e-10 4.55366e-10 9.94816e-11)
(2.82297e-10 3.74108e-10 1.67616e-10)
(3.74639e-10 4.91242e-10 3.72446e-10)
(-3.71877e-10 9.31274e-10 1.13473e-09)
(3.00126e-10 2.23481e-10 5.48408e-11)
(3.6485e-10 3.10478e-10 -4.21997e-11)
(4.27437e-10 2.15751e-10 -1.77629e-11)
(3.88712e-10 2.5445e-10 7.36503e-12)
(2.5199e-10 3.23643e-10 9.93108e-11)
(2.82297e-10 3.74108e-10 1.67616e-10)
(1.52096e-10 3.52011e-10 8.66938e-12)
)
;
    }
}


// ************************************************************************* //
