/*--------------------------------*- C++ -*----------------------------------*\
| =========                 |                                                 |
| \\      /  F ield         | OpenFOAM: The Open Source CFD Toolbox           |
|  \\    /   O peration     | Version:  4.x                                   |
|   \\  /    A nd           | Web:      www.OpenFOAM.org                      |
|    \\/     M anipulation  |                                                 |
\*---------------------------------------------------------------------------*/
FoamFile
{
    version     2.0;
    format      ascii;
    class       volVectorField;
    location    "56";
    object      DDtUrel;
}
// * * * * * * * * * * * * * * * * * * * * * * * * * * * * * * * * * * * * * //

dimensions      [0 1 -2 0 0 0 0];

internalField   nonuniform List<vector> 
132
(
(1.36188e-05 1.10519e-06 5.95689e-06)
(-2.28102e-05 -1.91518e-06 -5.86002e-07)
(-6.97341e-05 -4.33969e-06 -3.76461e-06)
(-0.000148247 -9.82632e-06 -1.39096e-05)
(-0.000275863 -1.29115e-05 -2.8374e-05)
(-0.000470131 -1.68437e-05 -7.11549e-05)
(-0.000798498 -2.78312e-05 -0.000121369)
(-0.00114853 -7.3517e-06 -0.000246461)
(-0.00164101 8.83281e-06 -0.000359712)
(2.1218e-05 -9.97569e-06 3.40945e-06)
(-1.68421e-05 -7.01452e-06 -2.36874e-06)
(-6.46077e-05 -5.78331e-06 -6.38541e-06)
(-0.000141072 1.26738e-06 -2.18637e-05)
(-0.000263486 6.62343e-06 -4.01043e-05)
(-0.000455821 4.22342e-05 -9.15986e-05)
(-0.000767378 6.38877e-05 -0.000157298)
(-0.00117451 0.00022579 -0.000273011)
(-0.00171778 0.000351224 -0.00041413)
(5.27967e-05 -1.98054e-05 1.72405e-08)
(-3.11984e-07 -1.05036e-05 -9.92237e-06)
(-2.38398e-05 -1.18589e-05 -1.51633e-05)
(-0.000120174 1.04588e-05 -3.63067e-05)
(-0.00020006 8.0013e-06 -5.4142e-05)
(-0.000435445 6.98384e-05 -0.00012165)
(-0.000703464 8.7767e-05 -0.000184878)
(-0.00131637 0.00030378 -0.000388254)
(-0.00213535 0.000507309 -0.000631384)
(6.43634e-05 -2.88786e-05 -4.25148e-06)
(3.5015e-06 -2.21151e-05 -1.2932e-05)
(-1.8513e-05 -1.5638e-05 -1.26725e-05)
(-0.000122317 1.85482e-06 -4.10836e-05)
(-0.00019609 2.24463e-05 -4.84451e-05)
(-0.000440684 6.42385e-05 -0.000136132)
(-0.000701535 0.000121524 -0.000201232)
(-0.00139469 0.000221447 -0.000462746)
(-0.00233242 0.000284142 -0.000745017)
(-6.94757e-05 -7.01607e-06 1.90352e-06)
(-0.000142094 -1.08562e-05 -1.13667e-06)
(-0.000258458 -1.39241e-05 -1.40764e-06)
(-0.000441709 -2.42684e-05 -2.35822e-06)
(-0.000748224 -2.9253e-05 4.04544e-06)
(-0.00110363 -6.83664e-05 4.70912e-05)
(-0.00162876 -0.000105706 9.3025e-05)
(6.25726e-06 -9.04435e-06 -1.41349e-06)
(-2.83614e-05 -8.29147e-06 -4.01527e-06)
(-6.81936e-05 -6.74828e-06 -4.9082e-06)
(-0.000141755 -3.45893e-06 -9.84827e-06)
(-0.000250687 4.54476e-06 -1.60923e-05)
(-0.00043392 1.52043e-05 -2.69399e-05)
(-0.000719519 3.65095e-05 -3.62168e-05)
(-0.00111583 8.88484e-05 -4.01179e-05)
(-0.00168567 0.00013103 -4.81054e-05)
(8.04133e-06 -1.96313e-05 -2.38138e-06)
(-2.81382e-05 -1.31187e-05 -6.67816e-06)
(-7.16772e-05 -8.56509e-06 -8.3998e-06)
(-0.000138496 1.26259e-06 -1.62885e-05)
(-0.000252446 1.51106e-05 -2.60397e-05)
(-0.000427568 3.59836e-05 -4.74803e-05)
(-0.000733241 6.73861e-05 -7.26927e-05)
(-0.00119341 0.000161865 -0.000101022)
(-0.00177393 0.000264667 -0.000134432)
(1.12424e-06 -3.07635e-05 -3.84858e-06)
(-4.01405e-05 -2.03619e-05 -6.67402e-06)
(-8.18777e-05 -1.30965e-05 -9.03796e-06)
(-0.000146155 -1.42445e-06 -1.62167e-05)
(-0.000258544 1.89498e-05 -3.0192e-05)
(-0.000433389 3.70191e-05 -6.07771e-05)
(-0.000744248 7.2626e-05 -9.50578e-05)
(-0.00123112 0.000125525 -0.000147707)
(-0.00185147 0.000156323 -0.000215178)
(-0.000223056 -2.4023e-05 2.09646e-05)
(-0.000414306 -4.02844e-05 6.13033e-05)
(-0.000708912 -6.18795e-05 9.96129e-05)
(-0.00117177 -0.000104013 0.000317156)
(-0.00183988 -0.000163342 0.00045107)
(4.90072e-06 -1.18797e-05 -9.13785e-06)
(-3.08734e-05 -1.22349e-05 -8.29227e-06)
(-6.76693e-05 -1.44616e-05 -6.44322e-06)
(-0.000139334 -1.17676e-05 -1.42606e-06)
(-0.000239298 -1.30224e-05 2.82044e-06)
(-0.000422712 -6.12022e-07 2.442e-05)
(-0.000707985 1.0934e-06 4.94283e-05)
(-0.00116958 0.000100963 0.00015912)
(-0.00180536 0.000160388 0.000243125)
(1.95178e-05 -2.33221e-05 -1.3365e-05)
(-2.60103e-05 -1.71481e-05 -1.12517e-05)
(-4.03806e-05 -1.91214e-05 -1.36119e-05)
(-0.000126004 -6.08981e-06 -6.1687e-06)
(-0.000173173 -1.22503e-05 -1.2837e-05)
(-0.000390364 2.28611e-05 7.7182e-06)
(-0.000579293 1.03585e-05 4.93108e-06)
(-0.00126044 0.000166358 0.000135612)
(-0.00219723 0.000300217 0.000248323)
(1.92717e-05 -3.13819e-05 -9.09e-06)
(-2.9848e-05 -2.78419e-05 -9.92317e-06)
(-5.49323e-05 -2.40719e-05 -1.4441e-05)
(-0.000138164 -1.83988e-05 -1.18991e-05)
(-0.000189574 -5.13927e-06 -2.53495e-05)
(-0.000403428 4.6915e-06 -1.49461e-05)
(-0.000594004 3.402e-05 -1.28838e-05)
(-0.00127645 5.63624e-05 8.37899e-05)
(-0.00225562 4.21511e-05 0.00014861)
(-0.000598505 -6.68946e-05 0.000137787)
(-0.00130617 -0.000207606 0.000363949)
(-0.00226942 -0.0003758 0.000540993)
(8.53714e-06 -1.48025e-05 -1.9519e-05)
(-3.65749e-05 -1.75684e-05 -1.5484e-05)
(-7.23482e-05 -1.85804e-05 -1.58464e-05)
(-0.000149127 -2.102e-05 -3.76993e-06)
(-0.000244651 -2.05781e-05 4.16396e-07)
(-0.000429304 -2.57781e-05 3.32026e-05)
(-0.000716059 -2.50937e-05 7.74896e-05)
(-0.0012252 -4.61576e-05 0.000181661)
(-0.00195424 -9.76093e-05 0.000282672)
(1.48692e-05 -2.22969e-05 -2.32472e-05)
(-3.7942e-05 -1.94617e-05 -2.62762e-05)
(-7.08307e-05 -2.03461e-05 -2.70838e-05)
(-0.000156562 -1.60163e-05 -2.57623e-05)
(-0.000235134 -1.20474e-05 -1.64217e-05)
(-0.000434754 -4.74756e-06 -1.11515e-05)
(-0.000689439 -4.83802e-06 3.9321e-05)
(-0.00125686 1.39523e-05 6.68777e-05)
(-0.00212978 3.13593e-05 6.10489e-05)
(1.44147e-05 -2.98836e-05 -2.22812e-05)
(-3.9988e-05 -2.63417e-05 -2.64064e-05)
(-8.26949e-05 -2.1674e-05 -2.7001e-05)
(-0.000164536 -2.15827e-05 -3.39235e-05)
(-0.000260397 -5.76529e-06 -2.40049e-05)
(-0.000449986 -1.27911e-05 -4.28372e-05)
(-0.000754568 8.89403e-06 6.44586e-06)
(-0.00124599 -5.40753e-05 -4.22538e-05)
(-0.0020242 -0.000109192 -0.000105068)
)
;

boundaryField
{
    inlet
    {
        type            calculated;
        value           nonuniform 0();
    }
    outlet
    {
        type            calculated;
        value           nonuniform List<vector> 
16
(
(-0.00202805 0.000488918 -0.000792075)
(-0.00206996 0.00215815 -0.000433799)
(-0.00618059 0.00259061 -0.00199589)
(-0.00647075 -0.000232813 -0.00234009)
(-0.00212676 -0.000397493 0.000623425)
(-0.00296993 -0.000181103 -1.26656e-05)
(-0.00128469 0.000486982 8.99834e-05)
(-0.001388 -0.000117021 -0.000173036)
(-0.00314162 -0.000311264 0.00205543)
(-0.00247084 0.001796 0.000633127)
(-0.00775746 0.0028844 0.00268024)
(-0.00755374 -0.000680993 0.00194439)
(-0.00697375 -0.00228761 0.00153821)
(-0.00326891 -0.000597056 0.000618344)
(-0.00561281 8.89495e-05 -0.000701439)
(-0.00351377 -0.00118183 -0.00159386)
)
;
    }
    wall
    {
        type            calculated;
        value           nonuniform List<vector> 
66
(
(1.37323e-05 2.09033e-07 -9.64128e-05)
(0.000146576 -2.81591e-05 -7.78259e-05)
(0.000103625 -5.40115e-05 -5.80355e-05)
(-0.000160547 -3.84683e-05 -1.55982e-05)
(-0.000137088 7.81059e-07 -0.000112015)
(-0.000115159 -4.64427e-05 -8.8647e-05)
(-0.000104599 -2.42992e-05 -7.48183e-05)
(4.84052e-05 -4.2359e-05 -0.000109959)
(-7.66122e-05 -3.55892e-06 -4.4687e-05)
(-0.00020904 -4.8196e-05 2.73514e-05)
(-0.000271558 -1.28361e-05 -0.000154102)
(-0.000224739 -9.92024e-05 -0.000180896)
(-0.000240006 -1.94262e-05 -0.00012726)
(7.32409e-05 -1.51401e-05 -4.26701e-05)
(-0.000250845 8.5627e-05 4.98329e-05)
(-0.000236327 -5.49544e-05 -2.18603e-06)
(-0.00036243 2.3489e-05 -0.000254465)
(-0.000267063 -0.000184261 -0.000445945)
(0.00165247 0.000381719 -0.000188733)
(-0.000461768 3.10329e-05 -9.87201e-05)
(0.000267496 -9.27742e-05 0.000202477)
(-0.000841472 0.000247844 0.00028237)
(-0.000793618 -0.00075402 0.000890185)
(-0.000337995 -8.79295e-05 5.38064e-05)
(-0.000386324 -5.58396e-05 -5.30714e-05)
(-0.000189937 -0.000626699 -0.000716869)
(-0.00697375 -0.00228761 0.00153821)
(-0.00326891 -0.000597056 0.000618344)
(-0.00561281 8.89495e-05 -0.000701439)
(-0.00351377 -0.00118183 -0.00159386)
(0.000405104 -5.46261e-05 -4.52764e-05)
(-0.000193785 -0.000108931 1.22509e-05)
(0.000205167 -7.65048e-05 2.58039e-05)
(0.000103625 -5.40115e-05 -5.80355e-05)
(-5.22082e-05 -4.44187e-05 -0.00010868)
(-0.000240694 -4.00644e-06 2.0833e-05)
(-5.68329e-05 -8.88205e-05 4.66382e-05)
(-0.000115159 -4.64427e-05 -8.8647e-05)
(0.000392547 -5.00658e-05 5.31455e-05)
(-0.000316444 -8.27281e-09 3.23408e-05)
(0.000256728 -8.63749e-05 -1.78166e-05)
(-7.66122e-05 -3.55892e-06 -4.4687e-05)
(-0.000228981 -3.56875e-05 -0.000205902)
(-0.000111195 3.8973e-06 6.89081e-05)
(-0.000172985 -0.000122998 0.000103036)
(-0.000224739 -9.92024e-05 -0.000180896)
(0.000460223 -1.89184e-05 0.000232348)
(-0.000477456 0.000101051 5.19485e-05)
(0.000714055 -4.38513e-05 -0.000130212)
(-0.000250845 8.5627e-05 4.98329e-05)
(-0.000513617 -1.14117e-05 -0.000349246)
(-8.00484e-05 -8.31057e-07 7.1213e-07)
(-0.000284169 -0.000159741 0.000168401)
(-0.000267063 -0.000184261 -0.000445945)
(0.000718663 9.29733e-05 0.00043221)
(-0.000798431 7.78644e-07 -3.05765e-05)
(0.00190643 8.76433e-05 -0.000181688)
(-0.000841472 0.000247844 0.00028237)
(-0.000901267 7.69758e-06 -0.000708639)
(-0.000274737 3.74314e-06 1.31954e-05)
(-0.000596743 -3.55208e-05 0.00112293)
(-0.000189937 -0.000626699 -0.000716869)
(-0.00647075 -0.000232813 -0.00234009)
(-0.001388 -0.000117021 -0.000173036)
(-0.00755374 -0.000680993 0.00194439)
(-0.00351377 -0.00118183 -0.00159386)
)
;
    }
    procBoundary7to0
    {
        type            processor;
        value           uniform (2.95424e-05 1.04482e-07 8.21602e-06);
    }
    procBoundary7to1
    {
        type            processor;
        value           uniform (9.85526e-06 8.56573e-06 6.96078e-06);
    }
    procBoundary7to3
    {
        type            processor;
        value           nonuniform List<vector> 
36
(
(4.78884e-05 -4.83442e-07 1.1698e-05)
(2.02854e-06 -3.23325e-06 1.42327e-06)
(-3.79764e-05 -7.82639e-06 -4.37818e-06)
(-0.000131292 -1.33234e-05 -3.0507e-05)
(-0.000258097 -1.55231e-05 -5.40392e-05)
(-0.000482693 -2.43342e-05 -0.000145858)
(-0.000830846 -1.98685e-05 -0.000248215)
(-0.00130268 -6.89032e-05 -0.000548095)
(-0.00191907 -0.000107861 -0.000805805)
(4.26065e-05 -6.28649e-06 1.17843e-05)
(4.51219e-06 -6.18006e-06 2.87142e-06)
(-4.32403e-05 -3.27806e-06 -4.11009e-06)
(-0.000126957 2.60554e-06 -2.82806e-05)
(-0.000254416 1.64577e-05 -5.84236e-05)
(-0.00046859 4.07689e-05 -0.000148553)
(-0.000823979 8.1548e-05 -0.000273828)
(-0.00128463 0.000188876 -0.000515509)
(-0.00186873 0.000300685 -0.000760429)
(7.17113e-05 -1.90245e-05 9.94362e-06)
(2.32864e-05 -1.37693e-05 1.20379e-06)
(-7.49448e-06 -8.52483e-06 -5.23063e-06)
(-0.000100813 1.28336e-05 -3.46478e-05)
(-0.00019061 3.24215e-05 -6.67798e-05)
(-0.000430562 0.000100204 -0.000178504)
(-0.000753667 0.000154056 -0.000310346)
(-0.00142638 0.000431351 -0.000681296)
(-0.00226266 0.000663839 -0.00104372)
(8.88957e-05 -3.35645e-05 1.00806e-05)
(2.78693e-05 -2.79532e-05 -5.04016e-07)
(2.49724e-06 -2.23545e-05 -4.97907e-06)
(-9.74778e-05 5.35721e-06 -3.9178e-05)
(-0.000163035 3.13203e-05 -6.77396e-05)
(-0.000412138 9.39998e-05 -0.0001804)
(-0.000663334 0.00016836 -0.000322732)
(-0.00153898 0.000344234 -0.000750118)
(-0.00265152 0.000423904 -0.00116643)
)
;
    }
    procBoundary7to5
    {
        type            processor;
        value           nonuniform List<vector> 
44
(
(-2.11654e-05 2.66699e-06 2.07318e-06)
(-6.82271e-05 -4.79116e-06 -1.18254e-06)
(-0.000144163 -1.55868e-05 -1.15288e-05)
(-0.000273286 -3.25045e-05 -2.39113e-05)
(-0.000470988 -5.95933e-05 -6.01912e-05)
(-0.000800793 -0.00010224 -0.000106495)
(-0.00117895 -0.000176118 -0.00020592)
(-0.00169287 -0.000241668 -0.000290959)
(2.32006e-06 -3.73102e-06 -2.72517e-07)
(-2.82237e-05 -4.53435e-06 -6.63157e-07)
(-6.004e-05 -5.04237e-06 4.87339e-06)
(-0.000135828 -1.68875e-05 5.59597e-06)
(-0.00024684 -3.19663e-05 8.12072e-06)
(-0.000443841 -6.78752e-05 2.04224e-05)
(-0.000756796 -0.000101172 3.16597e-05)
(-0.00115779 -0.000227461 0.00011849)
(-0.00174145 -0.000343548 0.000204194)
(2.32006e-06 -3.73102e-06 -2.72517e-07)
(-2.82237e-05 -4.53435e-06 -6.63157e-07)
(-2.82237e-05 -4.53435e-06 -6.63157e-07)
(-5.17628e-05 -1.0926e-05 -9.12005e-07)
(-0.000128118 -1.70698e-05 1.08304e-05)
(-0.000218626 -3.42576e-05 3.01963e-05)
(-0.00041626 -7.09045e-05 7.82613e-05)
(-0.000725116 -0.000118661 0.000140213)
(-0.00125398 -0.000247228 0.000379995)
(-0.00193743 -0.00034645 0.000544823)
(1.54545e-05 -5.1582e-06 -7.07494e-06)
(-2.26199e-05 -8.05271e-06 -3.35881e-06)
(-5.17628e-05 -1.0926e-05 -9.12005e-07)
(-0.000128118 -1.70698e-05 1.08304e-05)
(-0.000128118 -1.70698e-05 1.08304e-05)
(-0.000166696 -3.09908e-05 2.61462e-05)
(-0.000385779 -6.84177e-05 8.55648e-05)
(-0.000582369 -0.000109333 0.000158491)
(-0.00141836 -0.00026525 0.000472723)
(-0.00249742 -0.000420278 0.000750861)
(3.73998e-05 -1.1549e-05 -1.22282e-05)
(-1.04812e-05 -1.62457e-05 -7.1993e-06)
(-2.47316e-05 -1.75482e-05 -8.05576e-06)
(-0.000112263 -2.93009e-05 1.40399e-05)
(-0.000166696 -3.09908e-05 2.61462e-05)
(-0.000385779 -6.84177e-05 8.55648e-05)
(-0.000385779 -6.84177e-05 8.55648e-05)
)
;
    }
    procBoundary7to6
    {
        type            processor;
        value           nonuniform List<vector> 
12
(
(3.68496e-05 -8.50543e-06 6.83196e-06)
(5.61662e-05 -1.72946e-05 2.9144e-06)
(6.75552e-05 -3.0289e-05 -7.73307e-07)
(2.15808e-05 -9.95437e-06 3.89537e-07)
(2.51328e-05 -1.99082e-05 -4.97828e-07)
(1.89309e-05 -2.88155e-05 -2.13801e-06)
(1.87341e-05 -1.21419e-05 -7.13548e-06)
(2.4412e-05 -2.11628e-05 -8.25742e-06)
(3.23285e-05 -3.06435e-05 -7.47543e-06)
(2.21986e-05 -1.57396e-05 -1.29423e-05)
(2.89724e-05 -2.22942e-05 -1.72137e-05)
(3.61827e-05 -3.16677e-05 -1.86285e-05)
)
;
    }
}


// ************************************************************************* //
