/*--------------------------------*- C++ -*----------------------------------*\
| =========                 |                                                 |
| \\      /  F ield         | OpenFOAM: The Open Source CFD Toolbox           |
|  \\    /   O peration     | Version:  4.x                                   |
|   \\  /    A nd           | Web:      www.OpenFOAM.org                      |
|    \\/     M anipulation  |                                                 |
\*---------------------------------------------------------------------------*/
FoamFile
{
    version     2.0;
    format      ascii;
    class       volVectorField;
    location    "56";
    object      ddtUrel;
}
// * * * * * * * * * * * * * * * * * * * * * * * * * * * * * * * * * * * * * //

dimensions      [0 1 -2 0 0 0 0];

internalField   nonuniform List<vector> 
132
(
(2.28158e-07 -4.91983e-08 2.49423e-06)
(3.87155e-07 -1.75749e-07 2.68466e-06)
(6.60316e-07 -7.1647e-07 2.00689e-06)
(7.72482e-07 -6.73076e-07 7.33024e-07)
(7.41145e-07 -5.86598e-07 -1.68575e-08)
(5.61821e-07 -1.67728e-08 -9.06713e-07)
(7.82572e-07 5.10651e-07 -1.71474e-06)
(6.28355e-07 8.76e-07 -1.90331e-06)
(4.53251e-07 1.24735e-06 -1.75877e-06)
(1.89589e-07 2.67233e-09 1.99778e-06)
(2.50994e-07 -6.39923e-08 2.06398e-06)
(3.86116e-07 -4.28134e-07 1.49769e-06)
(6.71642e-07 -3.19727e-07 6.55882e-07)
(7.44649e-07 -2.9562e-07 2.62394e-09)
(7.07841e-07 6.89696e-08 -7.15565e-07)
(7.11053e-07 5.29549e-07 -1.18923e-06)
(7.16441e-07 9.90744e-07 -1.36843e-06)
(4.87258e-07 1.25705e-06 -1.29506e-06)
(1.69201e-07 3.76344e-08 1.49034e-06)
(3.04833e-07 -8.33223e-08 1.40305e-06)
(4.27745e-07 -2.84109e-07 1.01045e-06)
(6.13803e-07 -1.69338e-07 4.2971e-07)
(7.20089e-07 3.76373e-08 -8.36375e-08)
(6.04427e-07 1.78264e-07 -4.55869e-07)
(5.35165e-07 4.78979e-07 -7.572e-07)
(4.79151e-07 8.07731e-07 -8.79002e-07)
(3.54413e-07 8.63249e-07 -8.82005e-07)
(1.61561e-07 -5.3378e-08 1.14692e-06)
(3.2129e-07 -1.63272e-07 9.91815e-07)
(4.69485e-07 -2.5135e-07 7.16342e-07)
(5.8509e-07 -1.43186e-07 3.41759e-07)
(6.09815e-07 1.00132e-07 3.78438e-08)
(5.15145e-07 1.9735e-07 -2.94432e-07)
(3.6926e-07 3.66695e-07 -5.19763e-07)
(1.87824e-07 5.95874e-07 -6.20017e-07)
(1.9828e-07 6.42903e-07 -6.30959e-07)
(7.30746e-07 -2.29228e-07 1.54938e-06)
(7.78886e-07 -3.50531e-07 7.85163e-07)
(6.92085e-07 -3.2723e-07 3.09003e-08)
(6.29283e-07 -9.72679e-08 -7.21978e-07)
(5.87896e-07 1.52132e-07 -1.29571e-06)
(4.29977e-07 3.86648e-07 -1.46445e-06)
(3.36201e-07 5.45825e-07 -1.43541e-06)
(1.29053e-07 1.68862e-07 1.65497e-06)
(3.12764e-07 1.46693e-07 1.6342e-06)
(4.86064e-07 -1.07708e-07 1.19177e-06)
(6.02156e-07 -1.69786e-07 5.81312e-07)
(6.52011e-07 -1.57617e-07 1.47593e-09)
(6.45843e-07 -1.03111e-08 -5.25162e-07)
(6.0446e-07 1.97402e-07 -9.1179e-07)
(5.28042e-07 4.6904e-07 -1.00665e-06)
(4.02809e-07 6.35451e-07 -9.26997e-07)
(1.05619e-07 2.11232e-07 1.20852e-06)
(2.85081e-07 1.20565e-07 1.11463e-06)
(4.42056e-07 -4.20525e-08 7.91269e-07)
(5.65838e-07 -8.10653e-08 3.83415e-07)
(6.2234e-07 -2.69089e-08 -1.86423e-08)
(5.97185e-07 7.76577e-08 -3.63091e-07)
(5.00254e-07 2.05308e-07 -6.13029e-07)
(3.8978e-07 3.9695e-07 -6.81234e-07)
(3.24089e-07 4.74491e-07 -6.57623e-07)
(7.99495e-08 9.46691e-08 8.91174e-07)
(2.4142e-07 2.77253e-08 8.00343e-07)
(4.14383e-07 -4.08743e-08 5.87694e-07)
(5.23917e-07 -3.24027e-08 2.86886e-07)
(5.6125e-07 3.56074e-08 7.74486e-09)
(5.07471e-07 1.03211e-07 -2.41926e-07)
(3.86763e-07 1.99039e-07 -4.19099e-07)
(2.72991e-07 3.23434e-07 -4.86014e-07)
(2.50127e-07 3.88537e-07 -4.85144e-07)
(7.80746e-07 -1.89381e-07 -2.74674e-08)
(6.85864e-07 -1.02814e-07 -6.16059e-07)
(5.3269e-07 -3.58568e-08 -1.03248e-06)
(4.31202e-07 2.48948e-08 -1.18555e-06)
(3.5108e-07 1.40666e-07 -1.15457e-06)
(1.52078e-07 2.19142e-07 1.17722e-06)
(3.43063e-07 1.87525e-07 1.12736e-06)
(5.41128e-07 4.858e-08 8.40304e-07)
(6.6533e-07 -4.42575e-08 4.32167e-07)
(7.0136e-07 -6.436e-08 6.18654e-09)
(6.64129e-07 -3.54105e-08 -4.36638e-07)
(5.5652e-07 1.88999e-08 -7.34386e-07)
(4.51063e-07 1.12175e-07 -8.17891e-07)
(3.57142e-07 2.05771e-07 -7.82207e-07)
(9.15066e-08 2.26647e-07 8.84361e-07)
(2.71789e-07 1.49786e-07 8.11835e-07)
(4.58764e-07 4.68315e-08 5.85174e-07)
(5.67762e-07 3.58922e-09 3.0679e-07)
(6.23075e-07 6.49624e-11 -1.74529e-09)
(5.98128e-07 1.62619e-08 -2.92496e-07)
(4.89587e-07 5.74829e-08 -4.98448e-07)
(3.81076e-07 1.43872e-07 -5.52977e-07)
(3.12338e-07 2.03432e-07 -5.41467e-07)
(2.39992e-08 1.70109e-07 6.98539e-07)
(2.10191e-07 1.08815e-07 6.25208e-07)
(3.93257e-07 4.63609e-08 4.59905e-07)
(5.09614e-07 3.11901e-08 2.45451e-07)
(5.61932e-07 3.09878e-08 1.77508e-08)
(5.23645e-07 3.76465e-08 -1.92627e-07)
(4.15139e-07 8.61073e-08 -3.51756e-07)
(3.16305e-07 1.46806e-07 -4.11645e-07)
(2.70979e-07 1.91701e-07 -4.19638e-07)
(6.4491e-07 -6.70797e-08 -9.00892e-07)
(5.55304e-07 -6.97386e-08 -1.05153e-06)
(4.08303e-07 -2.35953e-08 -1.01063e-06)
(9.94743e-08 1.43995e-07 8.71987e-07)
(2.43733e-07 4.78057e-08 8.16199e-07)
(4.76177e-07 1.06882e-08 6.13676e-07)
(6.0652e-07 -3.35567e-08 3.28405e-07)
(7.02718e-07 -4.6749e-08 -3.30588e-08)
(7.0892e-07 -5.14857e-08 -3.96988e-07)
(5.97466e-07 -5.35293e-08 -6.1517e-07)
(4.7699e-07 -1.51279e-08 -7.13585e-07)
(3.61521e-07 3.56796e-08 -6.93658e-07)
(6.55771e-08 2.12932e-07 6.79832e-07)
(2.4237e-07 1.1087e-07 6.2376e-07)
(4.18922e-07 5.78555e-08 4.68598e-07)
(5.29267e-07 3.52366e-08 2.52995e-07)
(5.99266e-07 1.12148e-08 1.20222e-09)
(5.9517e-07 -1.63764e-08 -2.43829e-07)
(5.06375e-07 -5.64183e-09 -4.16975e-07)
(3.96985e-07 3.96795e-08 -4.83766e-07)
(3.14135e-07 7.64294e-08 -4.89978e-07)
(2.97023e-09 1.97631e-07 5.89789e-07)
(1.94967e-07 1.20176e-07 5.17358e-07)
(3.73724e-07 7.43864e-08 3.88192e-07)
(4.8305e-07 5.4961e-08 2.1837e-07)
(5.35422e-07 2.70795e-08 2.81629e-08)
(5.10243e-07 9.73269e-09 -1.67847e-07)
(4.21545e-07 2.65018e-08 -3.12465e-07)
(3.29638e-07 6.46219e-08 -3.73357e-07)
(2.79692e-07 9.48789e-08 -3.82416e-07)
)
;

boundaryField
{
    inlet
    {
        type            calculated;
        value           nonuniform 0();
    }
    outlet
    {
        type            calculated;
        value           nonuniform List<vector> 
16
(
(1.14991e-06 7.054e-06 2.08488e-06)
(4.55725e-07 4.3199e-06 4.87923e-08)
(4.34998e-07 1.20632e-06 -4.57584e-07)
(1.33141e-07 4.64047e-07 5.41733e-07)
(-3.19966e-07 1.08167e-06 -1.29139e-07)
(6.04379e-07 1.611e-06 6.6931e-07)
(7.20852e-08 4.33949e-07 2.75891e-07)
(4.92535e-08 2.35532e-07 3.70558e-07)
(1.06947e-07 -2.1305e-07 -3.19982e-07)
(4.77472e-08 4.7431e-08 1.89287e-07)
(9.29888e-08 8.93192e-08 2.1183e-07)
(6.89337e-08 1.85919e-08 1.06636e-07)
(4.4946e-08 -2.06229e-07 -1.14115e-07)
(-2.03142e-09 -2.07119e-07 9.2727e-08)
(9.9179e-08 -7.9324e-08 4.45487e-08)
(2.35823e-08 -2.46084e-08 3.08429e-08)
)
;
    }
    wall
    {
        type            calculated;
        value           nonuniform List<vector> 
66
(
(-4.48941e-07 4.84314e-07 7.58228e-07)
(2.32798e-07 6.42064e-07 1.55969e-07)
(-1.3243e-07 2.72688e-07 3.92901e-08)
(-1.40415e-06 2.2615e-07 7.36603e-07)
(2.39403e-07 7.28804e-08 4.60027e-08)
(-4.14795e-08 1.09221e-07 6.01075e-08)
(3.19655e-07 3.775e-07 4.70681e-07)
(3.57641e-07 1.79526e-07 1.70124e-07)
(2.85773e-07 6.99018e-08 2.96673e-08)
(1.30929e-07 1.23029e-07 2.96621e-07)
(3.93463e-07 1.57535e-07 6.98216e-08)
(2.81484e-07 7.91971e-08 5.3891e-08)
(7.55821e-07 2.15029e-07 5.96791e-08)
(5.54448e-07 4.8701e-08 2.49344e-08)
(4.19437e-07 -4.74766e-08 7.9402e-08)
(1.54919e-06 -1.66768e-07 -2.88929e-07)
(7.61084e-07 -2.41835e-07 -9.87132e-08)
(4.28906e-07 -1.00495e-07 -3.1935e-08)
(1.17155e-06 -3.98473e-07 -5.45969e-07)
(7.93677e-07 -4.94752e-07 -1.75779e-07)
(6.26942e-07 -1.8608e-07 -1.73509e-07)
(2.30782e-07 -7.9674e-08 -6.71257e-08)
(2.35646e-06 -5.61911e-07 -7.54119e-07)
(6.7312e-07 -2.88256e-07 -2.02224e-07)
(2.44115e-07 -7.84178e-08 5.24826e-09)
(2.98738e-08 -2.28191e-08 1.32414e-08)
(1.24346e-07 -2.73597e-07 -9.60265e-08)
(-1.39124e-09 -1.93632e-07 9.43499e-08)
(2.48799e-08 -7.2345e-08 5.01394e-08)
(-9.39167e-09 -2.01948e-08 4.43216e-08)
(-2.59684e-07 7.94783e-08 4.11952e-07)
(1.38341e-07 6.06831e-08 2.27738e-07)
(-1.67218e-07 2.93252e-07 1.24112e-07)
(-3.1781e-07 2.78245e-07 4.45437e-08)
(5.2265e-07 -1.06049e-08 4.58436e-07)
(-1.90858e-07 2.06186e-07 3.35573e-07)
(-4.02724e-07 2.78439e-07 1.76401e-07)
(-1.01817e-07 1.10999e-07 6.06924e-08)
(9.36183e-07 -2.95305e-07 2.41075e-07)
(4.10626e-07 2.43154e-07 3.41136e-07)
(2.80755e-07 1.2109e-07 5.0603e-08)
(2.56306e-07 7.11075e-08 3.04567e-08)
(9.80019e-07 1.10829e-08 -2.36558e-08)
(4.1745e-07 1.01783e-07 -5.4564e-08)
(4.03089e-07 1.17759e-07 2.57141e-08)
(2.55684e-07 7.91027e-08 5.13656e-08)
(4.1145e-07 1.13649e-06 8.64805e-07)
(5.43689e-07 -7.65492e-09 -7.50091e-08)
(6.39418e-07 1.47637e-08 -3.47355e-08)
(5.12053e-07 -5.28339e-08 6.26559e-08)
(6.61311e-07 3.61389e-08 -9.66348e-08)
(3.29513e-07 7.64088e-08 1.46068e-08)
(9.31421e-07 -2.38799e-07 -5.83696e-08)
(5.23407e-07 -1.00577e-07 -3.65631e-08)
(2.05615e-07 1.85019e-07 -6.72403e-09)
(1.75145e-07 -4.44505e-08 -2.71606e-08)
(2.33849e-07 -4.39213e-08 -9.75881e-08)
(2.44016e-07 -8.43215e-08 -6.90754e-08)
(-2.09978e-06 7.54661e-07 1.83694e-07)
(-2.65876e-07 2.06354e-07 1.78378e-07)
(-1.56655e-08 2.43125e-08 7.81416e-08)
(6.35255e-08 -1.98315e-08 1.50843e-08)
(-1.4864e-07 5.65897e-07 7.01448e-07)
(1.09874e-08 2.32092e-07 3.66486e-07)
(2.72784e-08 2.60989e-08 1.04471e-07)
(3.44064e-08 -3.44259e-08 1.8847e-08)
)
;
    }
    procBoundary7to0
    {
        type            processor;
        value           uniform (4.188e-07 -6.85765e-08 2.19019e-06);
    }
    procBoundary7to1
    {
        type            processor;
        value           uniform (6.52944e-07 -1.54125e-07 2.72556e-06);
    }
    procBoundary7to3
    {
        type            processor;
        value           nonuniform List<vector> 
36
(
(5.11433e-07 -3.40372e-07 2.86989e-06)
(5.75187e-07 -3.23353e-07 2.8336e-06)
(6.05672e-07 -2.61331e-07 2.35678e-06)
(8.70089e-07 -7.29514e-07 8.42136e-07)
(7.63946e-07 -3.88567e-07 -3.03012e-08)
(6.24179e-07 9.66015e-08 -1.27414e-06)
(7.76521e-07 7.51835e-07 -2.31055e-06)
(9.83099e-07 1.14244e-06 -2.44697e-06)
(6.56056e-07 1.17759e-06 -2.40714e-06)
(3.73665e-07 -2.4086e-07 2.25008e-06)
(3.60726e-07 -4.88771e-07 2.28318e-06)
(3.62804e-07 -6.80139e-07 1.75446e-06)
(5.53732e-07 -4.95738e-07 8.78383e-07)
(6.14753e-07 -1.61643e-07 1.86605e-08)
(6.73333e-07 2.3555e-07 -9.10897e-07)
(7.24077e-07 8.18496e-07 -1.53409e-06)
(7.5403e-07 1.34626e-06 -1.76409e-06)
(5.88055e-07 1.51717e-06 -1.66881e-06)
(3.53361e-07 -1.88684e-07 1.65016e-06)
(4.03315e-07 -4.05767e-07 1.58855e-06)
(4.13528e-07 -5.5078e-07 1.20649e-06)
(6.06254e-07 -1.74282e-07 5.01632e-07)
(6.02452e-07 4.55662e-08 -1.21092e-07)
(5.6542e-07 3.20236e-07 -5.46457e-07)
(5.37057e-07 7.44033e-07 -9.27339e-07)
(5.5398e-07 1.18151e-06 -1.11592e-06)
(4.19972e-07 1.20501e-06 -1.19301e-06)
(3.71454e-07 -2.31257e-07 1.28341e-06)
(4.44739e-07 -3.375e-07 1.1258e-06)
(4.91623e-07 -4.74264e-07 8.26621e-07)
(5.77964e-07 -2.64514e-07 3.98957e-07)
(5.33564e-07 7.28559e-08 2.00975e-08)
(4.33901e-07 2.92994e-07 -3.69402e-07)
(3.10662e-07 5.63289e-07 -6.56204e-07)
(1.33901e-07 8.81731e-07 -7.90845e-07)
(2.02038e-07 8.54026e-07 -8.22845e-07)
)
;
    }
    procBoundary7to5
    {
        type            processor;
        value           nonuniform List<vector> 
44
(
(1.03608e-06 -3.21948e-07 2.47406e-06)
(1.12816e-06 -6.38128e-07 1.99757e-06)
(1.00427e-06 -1.04219e-06 7.4728e-07)
(7.91159e-07 -8.67477e-07 -5.53281e-08)
(5.19387e-07 -4.09602e-07 -1.10415e-06)
(2.23175e-07 2.04971e-07 -2.24935e-06)
(3.88105e-07 4.60563e-07 -2.83923e-06)
(2.4094e-07 5.14436e-07 -2.61712e-06)
(3.60452e-07 1.23738e-07 2.04764e-06)
(5.53817e-07 1.41449e-08 1.98416e-06)
(1.08073e-06 -4.41943e-07 1.79704e-06)
(9.60056e-07 -7.34886e-07 8.8038e-07)
(7.46218e-07 -5.90701e-07 5.74698e-08)
(5.84417e-07 -3.02552e-07 -8.56648e-07)
(3.21607e-07 2.34499e-08 -1.80335e-06)
(2.73719e-07 2.02203e-07 -2.16155e-06)
(1.68271e-07 3.19491e-07 -2.12857e-06)
(3.60452e-07 1.23738e-07 2.04764e-06)
(5.53817e-07 1.41449e-08 1.98416e-06)
(5.53817e-07 1.41449e-08 1.98416e-06)
(7.23794e-07 -1.56816e-07 1.14128e-06)
(7.83218e-07 -2.51477e-07 5.7979e-07)
(8.68656e-07 -3.43181e-07 9.79366e-08)
(6.97558e-07 -1.73196e-07 -6.02763e-07)
(4.71247e-07 -8.82489e-08 -1.28883e-06)
(3.29474e-07 -1.72444e-08 -1.57977e-06)
(2.8156e-07 4.76233e-08 -1.6536e-06)
(3.53676e-07 1.36113e-07 1.31711e-06)
(5.42395e-07 2.14643e-08 1.37363e-06)
(7.23794e-07 -1.56816e-07 1.14128e-06)
(7.83218e-07 -2.51477e-07 5.7979e-07)
(7.83218e-07 -2.51477e-07 5.7979e-07)
(7.47464e-07 -8.59405e-08 1.10449e-08)
(7.42654e-07 -2.04765e-08 -4.46649e-07)
(6.36006e-07 -7.37444e-08 -9.55261e-07)
(5.36819e-07 -6.15845e-08 -1.22254e-06)
(3.84982e-07 -2.55523e-08 -1.30305e-06)
(2.10242e-07 4.50403e-08 9.17422e-07)
(3.76092e-07 -5.62978e-08 9.2074e-07)
(5.99363e-07 -1.30039e-07 7.99077e-07)
(7.10743e-07 -1.60834e-07 4.49723e-07)
(7.47464e-07 -8.59405e-08 1.10449e-08)
(7.42654e-07 -2.04765e-08 -4.46649e-07)
(7.42654e-07 -2.04765e-08 -4.46649e-07)
)
;
    }
    procBoundary7to6
    {
        type            processor;
        value           nonuniform List<vector> 
12
(
(2.13612e-07 4.51923e-08 1.69367e-06)
(1.23138e-07 1.24025e-07 1.34079e-06)
(1.19883e-07 3.40482e-08 1.08671e-06)
(1.03659e-07 2.32938e-07 1.40621e-06)
(1.48902e-09 2.21641e-07 1.12127e-06)
(-2.87947e-08 1.50426e-07 8.81518e-07)
(-8.60818e-09 2.61921e-07 1.02029e-06)
(-8.36347e-08 2.62175e-07 8.7006e-07)
(-1.28127e-07 2.03586e-07 6.96778e-07)
(-8.1542e-08 1.82599e-07 7.56815e-07)
(-1.3444e-07 2.21306e-07 6.72438e-07)
(-1.57259e-07 1.9697e-07 5.88412e-07)
)
;
    }
}


// ************************************************************************* //
