/*--------------------------------*- C++ -*----------------------------------*\
| =========                 |                                                 |
| \\      /  F ield         | OpenFOAM: The Open Source CFD Toolbox           |
|  \\    /   O peration     | Version:  4.x                                   |
|   \\  /    A nd           | Web:      www.OpenFOAM.org                      |
|    \\/     M anipulation  |                                                 |
\*---------------------------------------------------------------------------*/
FoamFile
{
    version     2.0;
    format      ascii;
    class       volScalarField;
    location    "26.5";
    object      Cs;
}
// * * * * * * * * * * * * * * * * * * * * * * * * * * * * * * * * * * * * * //

dimensions      [1 -3 0 0 0 0 0];

internalField   nonuniform List<scalar> 
108
(
334.991
334.991
334.993
334.995
334.994
334.992
334.985
334.976
335.669
334.997
334.998
334.998
334.998
334.996
334.994
334.988
334.978
337.254
334.993
334.99
334.985
334.979
334.973
334.965
334.958
334.95
335.468
334.997
334.996
334.996
334.995
334.994
334.994
334.99
334.989
342.596
334.993
334.982
334.971
334.963
334.944
334.93
334.908
334.91
334.773
334.996
334.992
334.984
334.974
334.957
334.946
334.925
334.919
334.681
334.997
334.995
334.991
334.983
334.968
334.954
334.931
334.925
334.701
334.998
334.998
334.997
334.997
334.995
334.992
334.984
334.979
334.487
334.974
334.948
334.947
334.938
334.916
334.904
334.902
334.899
334.92
334.992
334.982
334.97
334.952
334.933
334.918
334.906
334.9
334.803
334.994
334.987
334.977
334.96
334.937
334.93
334.912
334.909
334.795
334.999
334.997
334.995
334.995
334.992
334.987
334.977
334.969
334.698
)
;

boundaryField
{
    inlet
    {
        type            calculated;
        value           nonuniform 0();
    }
    outlet
    {
        type            calculated;
        value           uniform 335;
    }
    wall
    {
        type            calculated;
        value           nonuniform List<scalar> 
63
(
334.991
334.997
334.993
334.997
334.991
334.998
334.99
334.996
334.993
334.998
334.985
334.996
334.995
334.998
334.979
334.995
334.994
334.996
334.973
334.994
334.992
334.994
334.965
334.994
334.985
334.988
334.958
334.99
334.976
334.978
334.95
334.989
335.669
337.254
335.468
342.596
334.997
334.998
334.999
334.996
334.998
334.997
334.996
334.997
334.995
334.995
334.997
334.995
334.994
334.995
334.992
334.994
334.992
334.987
334.99
334.984
334.977
334.989
334.979
334.969
342.596
334.487
334.698
)
;
    }
    procBoundary3to1
    {
        type            processor;
        value           nonuniform List<scalar> 
27
(
334.998
334.998
334.997
334.996
334.993
334.988
334.978
334.966
334.884
334.99
334.985
334.977
334.964
334.943
334.932
334.913
334.916
334.859
334.974
334.966
334.959
334.946
334.936
334.926
334.925
334.917
334.909
)
;
    }
    procBoundary3to2
    {
        type            processor;
        value           nonuniform List<scalar> 
12
(
334.991
334.997
334.995
334.998
334.996
334.997
334.998
334.999
334.992
334.996
334.997
334.999
)
;
    }
    procBoundary3to7
    {
        type            processor;
        value           nonuniform List<scalar> 
36
(
334.991
334.982
334.973
334.963
334.95
334.937
334.937
334.931
335.074
334.995
334.99
334.984
334.975
334.965
334.952
334.945
334.933
334.976
334.997
334.993
334.989
334.983
334.974
334.964
334.954
334.945
334.898
334.999
334.998
334.998
334.997
334.994
334.991
334.984
334.978
334.562
)
;
    }
}


// ************************************************************************* //
