/*--------------------------------*- C++ -*----------------------------------*\
| =========                 |                                                 |
| \\      /  F ield         | OpenFOAM: The Open Source CFD Toolbox           |
|  \\    /   O peration     | Version:  4.x                                   |
|   \\  /    A nd           | Web:      www.OpenFOAM.org                      |
|    \\/     M anipulation  |                                                 |
\*---------------------------------------------------------------------------*/
FoamFile
{
    version     2.0;
    format      ascii;
    class       volVectorField;
    location    "26.5";
    object      GField;
}
// * * * * * * * * * * * * * * * * * * * * * * * * * * * * * * * * * * * * * //

dimensions      [1 -2 -1 0 0 0 0];

internalField   nonuniform List<vector> 
108
(
(65.512 -0.35206 -0.288361)
(127.112 0.467407 -9.30564)
(74.9101 1.5931 -3.74402)
(136.289 2.13395 -1.16266)
(75.6755 2.24826 1.17803)
(139.284 1.51416 6.09318)
(59.4645 2.27753 1.84712)
(136.576 -2.59246 14.0499)
(21.2795 0.433255 -2.09186)
(59.903 0.176124 -0.496061)
(118.382 -0.985914 -1.88028)
(60.6875 -1.18783 -0.51521)
(123.234 -0.72398 0.773213)
(57.9117 -0.0742949 0.879302)
(124.57 -0.162005 5.68429)
(44.6382 2.10152 1.57555)
(118.732 1.56317 11.514)
(17.1227 4.6934 -8.7766)
(68.8175 1.23227 0.0929455)
(125.509 1.43637 -2.45404)
(69.9792 1.97542 0.300165)
(132.366 1.16865 -0.494983)
(67.3267 5.73673 3.04657)
(136.311 0.972107 6.64601)
(53.142 13.3779 6.46743)
(138.135 -6.40685 11.3026)
(22.4149 30.1807 1.63665)
(89.8781 -0.421948 -0.110519)
(140.23 -0.801728 -1.07527)
(91.3991 -1.95641 0.785435)
(146.225 -1.72992 0.727118)
(89.9881 -0.894769 2.80732)
(157.733 -1.67025 4.11698)
(82.3106 4.0916 7.02553)
(179.796 -4.23808 9.22793)
(49.7341 23.8678 -46.8084)
(22.0199 0.0477348 -6.64721)
(99.0453 -1.81078 -1.60792)
(1.25187 0.0210946 -0.247025)
(102.224 1.04252 0.0465343)
(4.40986 0.465996 -1.10388)
(107.484 0.403684 8.92047)
(7.35876 1.83481 -3.01605)
(114.554 -6.4966 25.1116)
(17.7008 14.0562 -22.1991)
(21.5343 -0.249151 -2.06295)
(100.394 3.39174 -2.2414)
(14.0008 -0.14818 -2.34151)
(102.495 -2.54151 0.211167)
(12.7353 0.449308 -2.71335)
(105.109 -0.658994 5.13519)
(11.8806 2.37411 -3.11245)
(105.044 -4.46493 16.8023)
(11.3819 5.62319 -10.3776)
(23.9555 0.670479 -2.4315)
(104.352 1.7381 -1.25739)
(21.9681 1.34256 -3.97029)
(108.331 -0.0761825 1.34545)
(14.599 2.31139 -3.10968)
(115.423 -3.62855 5.95827)
(16.2536 7.54181 -6.52894)
(124.703 -15.5087 21.9269)
(15.9698 48.0223 -30.339)
(62.5042 -0.620748 -3.47948)
(121.608 0.431737 -2.21788)
(62.6168 -1.29548 -4.34192)
(128.557 -0.208365 -2.71489)
(61.0829 -0.603423 -6.64709)
(142.222 -3.12438 -0.451871)
(54.7663 3.56228 -8.34385)
(174.669 -6.49471 10.3449)
(31.6327 32.2263 -63.0953)
(1.16469 -0.0528433 -0.343319)
(65.3901 1.41477 3.13718)
(-0.751954 -0.818662 -3.83324)
(74.4313 0.513903 -1.78528)
(2.55879 -0.0773527 -1.53724)
(79.2106 -0.874523 3.5308)
(5.92676 0.486773 -4.03835)
(78.4296 -4.76982 12.1591)
(27.4146 5.97618 -22.2988)
(14.0998 2.53634 -2.20735)
(91.2905 -1.36077 0.0222015)
(5.86992 -0.289079 -1.51171)
(91.4166 -0.891708 0.440019)
(1.79492 0.0550491 -0.70097)
(91.7554 -0.877388 7.3608)
(1.32821 0.16794 -0.661406)
(93.819 -0.487505 17.3412)
(11.518 1.3408 -5.95542)
(3.42675 0.223249 -0.426528)
(93.7707 3.77463 0.200099)
(-8.02967e-05 3.29867e-05 -0.000168252)
(89.2268 0.556799 1.91632)
(9.52809e-05 3.15468e-05 -6.17342e-05)
(87.5067 -2.20058 4.01422)
(1.14785 0.628162 -0.374904)
(78.5532 -9.90805 9.46246)
(18.7773 21.88 -4.88131)
(43.7049 1.09389 -2.56687)
(108.394 0.247333 -1.35402)
(46.1919 3.31589 -3.73755)
(114.093 -0.774908 -0.811831)
(43.0084 3.06499 -6.39678)
(119.794 -1.13791 0.386791)
(36.5279 10.0104 -11.3369)
(135.26 -7.44532 6.52443)
(18.1126 27.8287 -21.6967)
)
;

boundaryField
{
    inlet
    {
        type            calculated;
        value           nonuniform 0();
    }
    outlet
    {
        type            calculated;
        value           nonuniform List<vector> 
12
(
(44.255 0.901043 -4.35044)
(35.6316 9.76675 -18.2637)
(46.7074 62.8896 3.4104)
(101.185 48.5594 -95.2325)
(38.0513 30.2164 -47.7212)
(24.4421 12.0755 -22.2853)
(34.2656 103.039 -65.0969)
(67.4386 68.7043 -134.515)
(59.7746 13.0304 -48.6201)
(25.1047 2.92243 -12.9805)
(40.8067 47.5493 -10.608)
(39.5114 60.7065 -47.33)
)
;
    }
    wall
    {
        type            calculated;
        value           uniform (0 0 0);
    }
    procBoundary3to1
    {
        type            processor;
        value           nonuniform List<vector> 
27
(
(67.1681 -1.50904 -2.89122)
(122.007 0.066897 -2.07323)
(62.4918 1.61398 -1.07497)
(121.594 1.85007 0.69681)
(53.2132 -0.155069 -2.19778)
(118.928 1.67935 4.46349)
(36.5121 -5.69922 -4.98882)
(111.988 5.61544 11.6641)
(16.2129 -16.8389 -11.385)
(4.49345 0.119883 -0.355224)
(96.0971 -3.09979 2.38389)
(3.7947 0.395169 -0.163919)
(97.346 2.84631 2.31114)
(-0.000235935 -8.51504e-05 -0.000141102)
(91.9451 3.13031 7.68092)
(0.0379529 -0.00532814 -0.0130969)
(77.8551 8.263 16.4416)
(14.5483 -6.40856 -7.71584)
(3.32476 -1.07521 -1.04752)
(81.5602 -1.37656 -2.05821)
(2.78633 -0.331977 -1.06915)
(84.4259 4.01173 1.51503)
(0.314255 -0.0720143 -0.13957)
(84.7287 0.211709 4.62501)
(4.22557 -2.05764 -2.12002)
(79.4922 8.72229 12.619)
(29.7063 -19.9159 -7.11595)
)
;
    }
    procBoundary3to2
    {
        type            processor;
        value           nonuniform List<vector> 
12
(
(119.943 0.25619 -1.76345)
(115.416 0.0807214 -2.58557)
(120.583 0.826945 -2.17873)
(133.892 0.908009 -1.58123)
(96.4965 3.2613 -3.0533)
(97.3247 -0.664729 -0.770129)
(101.4 1.45034 -2.88085)
(117.129 1.41902 -3.55161)
(73.198 -1.34896 -0.247341)
(90.4894 0.00365746 -0.860784)
(91.339 -1.26794 -0.594924)
(105.156 1.24765 -1.82068)
)
;
    }
    procBoundary3to7
    {
        type            processor;
        value           nonuniform List<vector> 
36
(
(15.161 1.33584 -0.454194)
(89.8948 0.49232 -1.56592)
(14.005 1.39361 -7.19751)
(85.6311 0.34303 -1.19991)
(6.57672 0.860791 -3.27157)
(85.8921 1.87271 3.46954)
(2.50499 0.601666 -1.20808)
(79.5075 -4.67647 8.8106)
(18.1303 3.19588 -8.68417)
(9.42366 1.071 -1.18686)
(88.1098 1.21138 1.61958)
(6.94961 2.06351 -0.965502)
(86.9006 1.40019 1.79568)
(2.17762 0.881577 -0.389113)
(84.1487 0.700626 3.92175)
(9.64905 5.3132 -2.1861)
(77.7494 -5.40286 7.92285)
(31.072 24.1352 -7.94583)
(17.349 1.79339 -1.5243)
(95.8118 1.23093 -0.871942)
(16.8214 3.4548 -1.70673)
(99.6771 1.52304 -0.135248)
(16.087 5.62233 -2.95061)
(102.523 -3.44832 2.69008)
(15.8139 9.47766 -4.10598)
(109.923 -16.0446 7.38767)
(16.8601 22.459 -6.04668)
(48.7057 0.227628 -3.47165)
(109.308 -0.186553 -3.01374)
(47.3815 0.526131 -4.41622)
(113.974 0.115391 -2.38844)
(46.0083 0.9068 -6.4936)
(118.474 -1.18025 -0.381454)
(37.272 0.943848 -10.0592)
(121.627 -4.37804 7.96438)
(15.5983 -0.768753 -7.59267)
)
;
    }
}


// ************************************************************************* //
