/*--------------------------------*- C++ -*----------------------------------*\
| =========                 |                                                 |
| \\      /  F ield         | OpenFOAM: The Open Source CFD Toolbox           |
|  \\    /   O peration     | Version:  4.x                                   |
|   \\  /    A nd           | Web:      www.OpenFOAM.org                      |
|    \\/     M anipulation  |                                                 |
\*---------------------------------------------------------------------------*/
FoamFile
{
    version     2.0;
    format      ascii;
    class       volScalarField;
    location    "6.5";
    object      Cs;
}
// * * * * * * * * * * * * * * * * * * * * * * * * * * * * * * * * * * * * * //

dimensions      [1 -3 0 0 0 0 0];

internalField   nonuniform List<scalar> 
108
(
334.871
335.001
335.103
335.171
335.201
335.209
335.196
335.177
335.584
334.798
334.925
335.034
335.121
335.183
335.222
335.236
335.238
336.142
334.715
334.853
334.963
335.067
335.15
335.203
335.235
335.242
336.046
334.5
334.568
334.648
334.74
334.835
334.908
334.98
335.02
342.307
334.975
335.064
335.141
335.199
335.226
335.236
335.224
335.199
335.344
334.944
335.028
335.104
335.17
335.219
335.245
335.248
335.237
335.446
334.898
334.995
335.088
335.171
335.224
335.23
335.24
335.219
335.537
334.635
334.677
334.742
334.818
334.903
334.958
335.013
335.043
337.174
334.98
335.034
335.08
335.139
335.181
335.207
335.198
335.17
335.12
334.993
335.049
335.1
335.151
335.19
335.219
335.226
335.224
335.288
334.974
335.051
335.121
335.153
335.189
335.199
335.218
335.207
335.538
334.742
334.768
334.808
334.849
334.894
334.932
334.983
335.015
336.776
)
;

boundaryField
{
    inlet
    {
        type            calculated;
        value           nonuniform 0();
    }
    outlet
    {
        type            calculated;
        value           uniform 335;
    }
    wall
    {
        type            calculated;
        value           nonuniform List<scalar> 
63
(
334.871
334.798
334.715
334.5
335.001
334.925
334.853
334.568
335.103
335.034
334.963
334.648
335.171
335.121
335.067
334.74
335.201
335.183
335.15
334.835
335.209
335.222
335.203
334.908
335.196
335.236
335.235
334.98
335.177
335.238
335.242
335.02
335.584
336.142
336.046
342.307
334.5
334.635
334.742
334.568
334.677
334.768
334.648
334.742
334.808
334.74
334.818
334.849
334.835
334.903
334.894
334.908
334.958
334.932
334.98
335.013
334.983
335.02
335.043
335.015
342.307
337.174
336.776
)
;
    }
    procBoundary3to1
    {
        type            processor;
        value           nonuniform List<scalar> 
27
(
334.828
334.971
335.085
335.163
335.202
335.2
335.17
335.129
335.134
335
335.092
335.166
335.215
335.238
335.238
335.22
335.189
335.315
335.032
335.1
335.163
335.207
335.227
335.226
335.213
335.19
335.336
)
;
    }
    procBoundary3to2
    {
        type            processor;
        value           nonuniform List<scalar> 
12
(
334.726
334.662
334.584
334.467
334.877
334.854
334.8
334.612
334.924
334.935
334.903
334.73
)
;
    }
    procBoundary3to7
    {
        type            processor;
        value           nonuniform List<scalar> 
36
(
334.994
335.041
335.078
335.119
335.151
335.155
335.108
335.05
335.012
335.021
335.063
335.098
335.135
335.166
335.185
335.17
335.16
335.107
335.008
335.059
335.108
335.142
335.174
335.175
335.18
335.169
335.169
334.832
334.842
334.864
334.889
334.924
334.947
334.991
335.009
335.633
)
;
    }
}


// ************************************************************************* //
