/*--------------------------------*- C++ -*----------------------------------*\
| =========                 |                                                 |
| \\      /  F ield         | OpenFOAM: The Open Source CFD Toolbox           |
|  \\    /   O peration     | Version:  4.x                                   |
|   \\  /    A nd           | Web:      www.OpenFOAM.org                      |
|    \\/     M anipulation  |                                                 |
\*---------------------------------------------------------------------------*/
FoamFile
{
    version     2.0;
    format      ascii;
    class       volScalarField;
    location    "6.5";
    object      Ksl;
}
// * * * * * * * * * * * * * * * * * * * * * * * * * * * * * * * * * * * * * //

dimensions      [1 -3 -1 0 0 0 0];

internalField   nonuniform List<scalar> 
108
(
29227.7
3436.68
30493.6
3286.24
23312.3
3005.06
9846.51
2451.2
6469.77
11309.5
3342.59
11031.7
3136.18
9418.36
2874.36
8727.99
2364.69
7153.99
9080.37
3265.48
9695.85
3114.93
8875.78
2906.66
9058.89
2671.75
14766.7
4012.38
2647.02
4601.34
2656.3
4961.13
2453.25
5077.94
2117.12
3484.65
17078
3657.07
18759.4
3633.37
13230.1
3536.94
12240.6
3766.09
6609.24
14312.6
3554.8
14208.2
3484.69
15440.9
3460.04
14364.4
3442.22
5841.38
16478.2
3622.25
20231.6
3568.66
28873.2
3494.29
36708.4
3312.8
7350.49
4532.85
2774.13
4917.78
2752.07
5657.09
2605.5
6831.21
2231.81
3154.51
45256
3993.21
48312.8
3909.34
23428.8
3902.95
33173.2
4403.21
35420.3
15721.9
3699.43
16922.3
3600.37
16460.3
3485.84
14491.5
3271.54
7833.32
24322.8
3815.63
35065
3602.12
22480.1
3316.03
18714.1
2731.35
5178.25
4708.51
2843.85
4521.68
2709.29
4933.54
2540.14
5887.04
2039.67
4901.73
)
;

boundaryField
{
    inlet
    {
        type            zeroGradient;
    }
    outlet
    {
        type            zeroGradient;
    }
    wall
    {
        type            zeroGradient;
    }
    procBoundary3to1
    {
        type            processor;
        value           nonuniform List<scalar> 
27
(
17348.5
3485.98
25920.5
3408.63
68870.6
3317.99
21138.7
3512.5
9579.83
23859.5
3612.97
27103
3596.46
21426.4
3597.61
50673
3972.69
18626.9
22495.5
3811.72
44104.3
3822.68
41898.4
3805.91
42632.1
3697.76
14425.1
)
;
    }
    procBoundary3to2
    {
        type            processor;
        value           nonuniform List<scalar> 
12
(
3511.67
3380.16
3211.9
2589.44
3712.97
3617.5
3637
2815.86
3933
3742
3870.6
3012.1
)
;
    }
    procBoundary3to7
    {
        type            processor;
        value           nonuniform List<scalar> 
36
(
17530.8
3968.81
15099.6
4076.69
15095.8
4631.54
28323.7
6603.41
40466
17018.9
3755.95
14239.7
3631.02
13700.2
3497.75
10426.6
3534.49
7757.76
17955.6
3811.28
16907.8
3580.54
18213.9
3596.92
10842.3
3460.41
3612.71
4670.77
2834.92
4566.53
2656.64
4653.62
2409.55
5010.15
1892.75
3038.18
)
;
    }
}


// ************************************************************************* //
