/*--------------------------------*- C++ -*----------------------------------*\
| =========                 |                                                 |
| \\      /  F ield         | OpenFOAM: The Open Source CFD Toolbox           |
|  \\    /   O peration     | Version:  4.x                                   |
|   \\  /    A nd           | Web:      www.OpenFOAM.org                      |
|    \\/     M anipulation  |                                                 |
\*---------------------------------------------------------------------------*/
FoamFile
{
    version     2.0;
    format      ascii;
    class       volScalarField;
    location    "6.5";
    object      QWallFluid;
}
// * * * * * * * * * * * * * * * * * * * * * * * * * * * * * * * * * * * * * //

dimensions      [1 -1 -3 0 0 0 0];

internalField   nonuniform List<scalar> 
108
(
1.49502e+08
8.33215e+08
1.44331e+08
8.65088e+08
1.79446e+08
9.28281e+08
3.54177e+08
1.0681e+09
4.81993e+08
3.2147e+08
8.55115e+08
3.28699e+08
9.03823e+08
3.74216e+08
9.76521e+08
3.94234e+08
1.10997e+09
4.48101e+08
3.85979e+08
8.78181e+08
3.66397e+08
9.19104e+08
3.97209e+08
9.78642e+08
3.86655e+08
1.0211e+09
2.54876e+08
1.47659e+09
2.07299e+09
1.3351e+09
2.08014e+09
1.26331e+09
2.22875e+09
1.23055e+09
2.44397e+09
1.65607e+09
0
0
0
0
0
0
0
0
0
0
0
0
0
0
0
0
0
0
0
0
0
0
0
0
0
0
0
6.73823e+08
1.00904e+09
6.35855e+08
1.02503e+09
5.72848e+08
1.07785e+09
4.87639e+08
1.19047e+09
8.86135e+08
0
0
0
0
0
0
0
0
0
0
0
0
0
0
0
0
0
0
0
0
0
0
0
0
0
0
0
6.53533e+08
9.8742e+08
6.78731e+08
1.03064e+09
6.391e+08
1.09245e+09
5.4903e+08
1.28341e+09
6.19355e+08
)
;

boundaryField
{
    inlet
    {
        type            calculated;
        value           nonuniform 0();
    }
    outlet
    {
        type            calculated;
        value           uniform 0;
    }
    wall
    {
        type            calculated;
        value           uniform 0;
    }
    procBoundary3to1
    {
        type            processor;
        value           nonuniform List<scalar> 
27
(
2.29117e+08
8.29857e+08
1.64924e+08
8.40814e+08
7.52049e+07
8.54488e+08
1.90888e+08
8.00289e+08
3.51302e+08
0
0
0
0
0
0
0
0
0
0
0
0
0
0
0
0
0
0
)
;
    }
    procBoundary3to2
    {
        type            processor;
        value           nonuniform List<scalar> 
12
(
8.21931e+08
8.48448e+08
8.91612e+08
2.12277e+09
0
0
0
9.89141e+08
0
0
0
9.31562e+08
)
;
    }
    procBoundary3to7
    {
        type            processor;
        value           nonuniform List<scalar> 
36
(
0
0
0
0
0
0
0
0
0
0
0
0
0
0
0
0
0
0
0
0
0
0
0
0
0
0
0
6.53617e+08
9.78047e+08
6.66289e+08
1.03355e+09
6.61169e+08
1.12408e+09
6.16419e+08
1.35266e+09
8.95594e+08
)
;
    }
}


// ************************************************************************* //
