/*--------------------------------*- C++ -*----------------------------------*\
| =========                 |                                                 |
| \\      /  F ield         | OpenFOAM: The Open Source CFD Toolbox           |
|  \\    /   O peration     | Version:  4.x                                   |
|   \\  /    A nd           | Web:      www.OpenFOAM.org                      |
|    \\/     M anipulation  |                                                 |
\*---------------------------------------------------------------------------*/
FoamFile
{
    version     2.0;
    format      ascii;
    class       volScalarField;
    location    "6.5";
    object      rho;
}
// * * * * * * * * * * * * * * * * * * * * * * * * * * * * * * * * * * * * * //

dimensions      [1 -3 0 0 0 0 0];

internalField   nonuniform List<scalar> 
108
(
6697.41
6700.02
6702.07
6703.42
6704.02
6704.18
6703.91
6703.54
6711.68
6695.95
6698.51
6700.68
6702.43
6703.66
6704.44
6704.72
6704.75
6722.85
6694.3
6697.07
6699.27
6701.34
6702.99
6704.07
6704.7
6704.85
6720.92
6690.01
6691.36
6692.96
6694.81
6696.69
6698.15
6699.6
6700.41
6846.14
6699.5
6701.29
6702.82
6703.97
6704.53
6704.72
6704.48
6703.98
6706.87
6698.88
6700.57
6702.07
6703.41
6704.37
6704.89
6704.97
6704.74
6708.92
6697.96
6699.89
6701.77
6703.43
6704.48
6704.61
6704.8
6704.37
6710.75
6692.7
6693.54
6694.85
6696.37
6698.05
6699.16
6700.25
6700.86
6743.49
6699.61
6700.68
6701.6
6702.78
6703.62
6704.13
6703.95
6703.4
6702.41
6699.87
6700.98
6702.01
6703.02
6703.81
6704.39
6704.52
6704.47
6705.76
6699.49
6701.02
6702.42
6703.05
6703.77
6703.98
6704.37
6704.13
6710.76
6694.83
6695.36
6696.17
6696.98
6697.88
6698.64
6699.66
6700.29
6735.53
)
;

boundaryField
{
    inlet
    {
        type            calculated;
        value           nonuniform 0();
    }
    outlet
    {
        type            calculated;
        value           uniform 6700;
    }
    wall
    {
        type            calculated;
        value           nonuniform List<scalar> 
63
(
6697.41
6695.95
6694.3
6690.01
6700.02
6698.51
6697.07
6691.36
6702.07
6700.68
6699.27
6692.96
6703.42
6702.43
6701.34
6694.81
6704.02
6703.66
6702.99
6696.69
6704.18
6704.44
6704.07
6698.15
6703.91
6704.72
6704.7
6699.6
6703.54
6704.75
6704.85
6700.41
6711.68
6722.85
6720.92
6846.14
6690.01
6692.7
6694.83
6691.36
6693.54
6695.36
6692.96
6694.85
6696.17
6694.81
6696.37
6696.98
6696.69
6698.05
6697.88
6698.15
6699.16
6698.64
6699.6
6700.25
6699.66
6700.41
6700.86
6700.29
6846.14
6743.49
6735.53
)
;
    }
    procBoundary3to1
    {
        type            processor;
        value           nonuniform List<scalar> 
27
(
6696.56
6699.42
6701.7
6703.26
6704.04
6704
6703.39
6702.58
6702.68
6700.01
6701.85
6703.33
6704.31
6704.76
6704.76
6704.4
6703.78
6706.29
6700.65
6702.01
6703.27
6704.14
6704.54
6704.53
6704.25
6703.81
6706.72
)
;
    }
    procBoundary3to2
    {
        type            processor;
        value           nonuniform List<scalar> 
12
(
6694.53
6693.24
6691.68
6689.35
6697.54
6697.08
6696
6692.23
6698.49
6698.69
6698.07
6694.6
)
;
    }
    procBoundary3to7
    {
        type            processor;
        value           nonuniform List<scalar> 
36
(
6699.87
6700.81
6701.56
6702.39
6703.02
6703.09
6702.16
6700.99
6700.24
6700.42
6701.26
6701.97
6702.69
6703.32
6703.69
6703.41
6703.2
6702.15
6700.16
6701.18
6702.17
6702.84
6703.48
6703.5
6703.61
6703.38
6703.38
6696.65
6696.83
6697.29
6697.77
6698.47
6698.95
6699.82
6700.18
6712.67
)
;
    }
}


// ************************************************************************* //
