/*--------------------------------*- C++ -*----------------------------------*\
| =========                 |                                                 |
| \\      /  F ield         | OpenFOAM: The Open Source CFD Toolbox           |
|  \\    /   O peration     | Version:  4.x                                   |
|   \\  /    A nd           | Web:      www.OpenFOAM.org                      |
|    \\/     M anipulation  |                                                 |
\*---------------------------------------------------------------------------*/
FoamFile
{
    version     2.0;
    format      ascii;
    class       volScalarField;
    location    "6.5";
    object      Sm;
}
// * * * * * * * * * * * * * * * * * * * * * * * * * * * * * * * * * * * * * //

dimensions      [1 -3 -1 0 0 0 0];

internalField   nonuniform List<scalar> 
108
(
6.97263e-65
3.25409e-65
5.8108e-65
2.55683e-65
4.10613e-65
3.02143e-65
4.72515e-65
3.8728e-65
4.5694e-65
5.03592e-65
7.74788e-65
4.26134e-65
4.64872e-65
5.42333e-65
3.87366e-65
5.5e-65
4.95747e-65
5.42164e-65
5.5011e-65
5.19138e-65
6.19851e-65
3.71922e-65
5.11379e-65
3.79645e-65
5.73296e-65
5.26793e-65
4.02802e-65
4.64924e-65
3.56446e-65
4.10687e-65
5.88908e-65
4.26175e-65
4.88166e-65
3.17687e-65
5.34619e-65
4.41632e-65
7.51474e-65
6.27531e-65
8.98708e-65
8.52215e-65
7.59203e-65
6.27462e-65
6.04129e-65
6.42756e-65
9.0599e-65
6.50769e-65
6.198e-65
7.67011e-65
7.2826e-65
6.81755e-65
6.27459e-65
8.59776e-65
7.04796e-65
6.96959e-65
1.0382e-64
7.51547e-65
7.438e-65
8.44519e-65
6.81795e-65
7.20486e-65
6.7394e-65
7.20356e-65
7.90008e-65
7.74818e-65
5.65638e-65
6.35375e-65
6.19873e-65
8.21301e-65
5.65605e-65
6.8951e-65
6.81756e-65
5.65513e-65
7.66939e-65
8.98668e-65
8.83189e-65
8.52191e-65
6.11986e-65
6.19672e-65
8.59683e-65
6.81418e-65
7.74276e-65
8.98647e-65
5.11318e-65
7.74735e-65
4.33845e-65
4.64805e-65
7.90112e-65
7.28063e-65
8.82845e-65
6.11736e-65
5.65574e-65
8.29003e-65
8.21255e-65
5.81066e-65
6.8175e-65
7.97916e-65
6.6618e-65
7.20295e-65
5.42142e-65
5.73355e-65
3.87414e-65
5.42383e-65
6.12112e-65
5.57851e-65
7.1279e-65
6.1977e-65
7.90168e-65
8.52059e-65
)
;

boundaryField
{
    inlet
    {
        type            calculated;
        value           nonuniform 0();
    }
    outlet
    {
        type            calculated;
        value           uniform 0;
    }
    wall
    {
        type            calculated;
        value           uniform 0;
    }
    procBoundary3to1
    {
        type            processor;
        value           nonuniform List<scalar> 
27
(
3.48652e-65
5.50114e-65
5.50107e-65
7.43799e-65
5.50068e-65
4.33854e-65
4.95738e-65
4.56967e-65
4.49179e-65
8.13472e-65
6.58557e-65
6.19821e-65
5.26839e-65
5.26803e-65
7.35889e-65
8.05532e-65
1.02999e-64
4.87807e-65
7.90198e-65
6.35288e-65
5.11337e-65
9.06445e-65
8.28915e-65
8.75294e-65
6.81524e-65
7.89857e-65
3.48408e-65
)
;
    }
    procBoundary3to2
    {
        type            processor;
        value           nonuniform List<scalar> 
12
(
2.63408e-65
3.95131e-65
3.09914e-65
3.0995e-65
9.37371e-65
5.19059e-65
6.27547e-65
4.26153e-65
7.97895e-65
4.88041e-65
8.36701e-65
8.91003e-65
)
;
    }
    procBoundary3to7
    {
        type            processor;
        value           nonuniform List<scalar> 
36
(
9.91587e-65
7.82455e-65
6.43022e-65
6.73999e-65
1.03031e-64
1.03792e-64
7.97681e-65
5.65256e-65
8.36182e-65
7.6695e-65
9.45161e-65
7.28248e-65
6.74006e-65
8.44397e-65
5.65464e-65
7.51284e-65
6.35017e-65
8.05296e-65
5.50067e-65
7.36029e-65
6.19822e-65
7.12779e-65
7.43741e-65
8.05669e-65
7.51368e-65
7.20301e-65
8.59628e-65
5.11364e-65
7.28332e-65
8.75545e-65
5.50116e-65
7.20562e-65
6.81785e-65
7.90187e-65
5.88751e-65
4.33796e-65
)
;
    }
}


// ************************************************************************* //
