/*--------------------------------*- C++ -*----------------------------------*\
| =========                 |                                                 |
| \\      /  F ield         | OpenFOAM: The Open Source CFD Toolbox           |
|  \\    /   O peration     | Version:  4.x                                   |
|   \\  /    A nd           | Web:      www.OpenFOAM.org                      |
|    \\/     M anipulation  |                                                 |
\*---------------------------------------------------------------------------*/
FoamFile
{
    version     2.0;
    format      ascii;
    class       volVectorField;
    location    "6.5";
    object      UsPrev;
}
// * * * * * * * * * * * * * * * * * * * * * * * * * * * * * * * * * * * * * //

dimensions      [0 1 -1 0 0 0 0];

internalField   nonuniform List<vector> 
108
(
(-1.90077e-06 -2.48008e-07 -2.97893e-08)
(-2.00018e-06 -1.40848e-07 -9.16395e-09)
(-2.16442e-06 2.74622e-09 -3.07913e-08)
(-2.10332e-06 -1.96312e-07 2.86562e-08)
(-1.95899e-06 -3.52551e-07 1.40225e-07)
(-1.92198e-06 -1.62626e-07 4.06317e-08)
(-1.46252e-06 -7.96274e-08 2.5523e-07)
(-9.91889e-07 -1.83079e-07 2.46421e-07)
(9.04641e-07 -1.92103e-08 2.14495e-07)
(-1.77772e-06 -2.31638e-07 -8.44646e-08)
(-1.90879e-06 -2.29604e-07 -7.68404e-08)
(-1.91004e-06 -2.3445e-07 -6.12865e-08)
(-2.12669e-06 -2.96301e-07 1.46666e-07)
(-1.95281e-06 -2.65113e-07 3.22317e-07)
(-1.82367e-06 -1.08055e-07 3.0579e-08)
(-1.38866e-06 -4.21327e-08 2.55938e-07)
(-1.09518e-06 -1.1927e-07 3.8181e-07)
(1.60657e-06 2.44677e-08 3.92165e-07)
(-1.56685e-06 -8.21781e-07 -1.33593e-08)
(-1.72422e-06 -9.55637e-08 -2.65086e-09)
(-1.6381e-06 -1.78088e-07 -1.22263e-08)
(-1.63085e-06 -1.6522e-07 8.13721e-08)
(-2.87128e-06 3.23143e-07 6.59523e-07)
(-1.69231e-06 -1.12457e-07 -3.98976e-08)
(-1.51752e-06 -4.14393e-08 6.20246e-08)
(-9.06064e-07 -3.25535e-07 2.82303e-07)
(-9.4868e-08 -5.27111e-07 2.16129e-07)
(-7.74487e-07 -1.35019e-07 8.40779e-08)
(-1.0213e-06 -1.90664e-07 6.32233e-08)
(-8.62225e-07 -2.09653e-07 7.30581e-08)
(-7.24756e-07 -3.47163e-08 -2.30018e-08)
(-3.42369e-06 7.80248e-07 8.69066e-07)
(-2.08101e-06 4.81879e-09 1.65495e-07)
(-8.86987e-07 -2.59601e-07 -2.73191e-07)
(-4.46481e-07 -1.61021e-07 1.30535e-07)
(-1.14987e-07 -1.53426e-05 6.8045e-07)
(-1.8696e-06 -1.94695e-07 1.94672e-08)
(-1.88386e-06 -1.55701e-07 -1.78963e-08)
(-1.94523e-06 -1.69326e-07 -3.91673e-08)
(-1.93571e-06 -2.12174e-07 4.92107e-08)
(-1.80015e-06 -2.07478e-07 9.75988e-08)
(-1.65659e-06 -1.321e-07 3.61795e-08)
(-1.21632e-06 -2.86753e-08 1.23926e-07)
(-6.66798e-07 -5.68274e-08 1.2397e-07)
(5.87647e-08 -1.37822e-08 1.57664e-07)
(-1.71335e-06 -2.01472e-07 -3.13015e-08)
(-1.83511e-06 -1.84026e-07 -6.77843e-08)
(-1.87239e-06 -2.11754e-07 -5.82289e-08)
(-1.87142e-06 -2.12675e-07 1.22593e-07)
(-1.74987e-06 -3.86283e-07 3.1523e-07)
(-1.60302e-06 -1.5731e-07 7.26511e-08)
(-1.15712e-06 -6.34554e-08 1.19929e-07)
(-7.04651e-07 -4.44811e-08 1.88794e-07)
(-2.0582e-07 -6.30556e-08 1.99602e-07)
(-1.46938e-06 -2.42353e-07 -8.31562e-08)
(-1.50329e-06 -1.60688e-07 -1.50396e-08)
(-1.55438e-06 -1.561e-07 -4.69197e-08)
(-1.54369e-06 -1.35431e-07 5.0102e-08)
(-1.46441e-06 -8.37188e-08 1.76136e-07)
(-1.37777e-06 -6.89926e-08 4.75055e-08)
(-1.10157e-06 -6.98732e-08 8.61239e-08)
(-5.7481e-07 -5.28265e-08 2.08057e-07)
(-1.87337e-07 -7.53109e-08 1.38004e-07)
(-9.61824e-07 -1.19133e-07 -8.93641e-08)
(-9.79841e-07 -6.18346e-08 4.98432e-10)
(-8.06139e-07 -8.72223e-08 -2.57668e-08)
(-8.5644e-07 -6.16217e-08 -1.79931e-08)
(-7.74927e-07 3.17651e-08 4.55268e-08)
(-9.5185e-07 -3.07335e-08 -5.53938e-08)
(-5.24535e-07 -8.04093e-08 -7.7994e-09)
(-3.18974e-07 -6.91946e-08 1.19824e-07)
(-8.99454e-08 -2.97222e-08 4.26288e-07)
(-1.69817e-06 -9.51966e-08 2.57571e-08)
(-1.74747e-06 -9.08819e-08 6.34533e-09)
(-1.7808e-06 -5.42715e-08 -1.37744e-08)
(-1.73579e-06 -1.27032e-07 6.16532e-09)
(-1.59528e-06 -1.05278e-07 1.50893e-08)
(-1.40642e-06 -8.39307e-08 6.66473e-08)
(-1.05572e-06 -3.63025e-08 4.86754e-08)
(-5.98002e-07 3.24069e-08 4.11422e-08)
(-3.01988e-07 6.16135e-09 5.90644e-08)
(-1.65412e-06 -1.03945e-07 2.3072e-09)
(-1.70449e-06 -1.16699e-07 -1.57508e-08)
(-1.73101e-06 -1.08668e-07 -2.29055e-08)
(-1.62935e-06 -9.76853e-08 1.04288e-07)
(-1.50929e-06 -9.62073e-08 1.28157e-07)
(-1.35838e-06 -1.87336e-07 3.49187e-08)
(-9.70136e-07 -6.42767e-08 5.15616e-09)
(-6.31312e-07 -1.77008e-08 2.39663e-08)
(-3.01785e-07 -3.99303e-09 5.37085e-08)
(-1.43882e-06 -4.17164e-08 1.36204e-08)
(-1.46762e-06 -9.41796e-08 -6.33059e-09)
(-1.56244e-06 -1.49825e-07 -5.45501e-08)
(-1.35246e-06 -6.67233e-09 9.14391e-08)
(-1.29534e-06 -8.57029e-08 1.57126e-07)
(-1.2227e-06 -2.11835e-07 6.01245e-09)
(-9.81051e-07 -1.09755e-07 -1.9156e-09)
(-4.81111e-07 3.33457e-09 8.02968e-08)
(-1.87651e-07 1.6071e-09 1.20594e-07)
(-9.65365e-07 8.25572e-08 -2.94358e-08)
(-8.49248e-07 -3.74015e-08 -6.58344e-08)
(-9.15897e-07 -1.27598e-07 -4.89777e-08)
(-7.78512e-07 -1.12696e-07 3.87017e-09)
(-8.60653e-07 -2.36589e-08 4.91773e-08)
(-7.33923e-07 -1.19602e-07 -7.23603e-08)
(-4.4036e-07 -3.58173e-08 -2.64316e-08)
(-2.29944e-07 -5.68345e-08 1.17027e-07)
(-1.08552e-07 2.97028e-08 1.56529e-07)
)
;

boundaryField
{
    inlet
    {
        type            calculated;
        value           nonuniform 0();
    }
    outlet
    {
        type            calculated;
        value           uniform (0 0 0);
    }
    wall
    {
        type            calculated;
        value           uniform (0 0 0);
    }
    procBoundary3to1
    {
        type            processor;
        value           uniform (0 0 0);
    }
    procBoundary3to2
    {
        type            processor;
        value           uniform (0 0 0);
    }
    procBoundary3to7
    {
        type            processor;
        value           uniform (0 0 0);
    }
}


// ************************************************************************* //
