/*--------------------------------*- C++ -*----------------------------------*\
| =========                 |                                                 |
| \\      /  F ield         | OpenFOAM: The Open Source CFD Toolbox           |
|  \\    /   O peration     | Version:  4.x                                   |
|   \\  /    A nd           | Web:      www.OpenFOAM.org                      |
|    \\/     M anipulation  |                                                 |
\*---------------------------------------------------------------------------*/
FoamFile
{
    version     2.0;
    format      ascii;
    class       volScalarField;
    location    "34.5";
    object      KslPrev;
}
// * * * * * * * * * * * * * * * * * * * * * * * * * * * * * * * * * * * * * //

dimensions      [1 -3 -1 0 0 0 0];

internalField   nonuniform List<scalar> 
87
(
3821.95
2544.29
3748.81
2394.48
3763.4
2115.15
4133.41
1698.82
5380.34
4508.05
2717.42
4464.23
2592.21
4624.27
2360.01
5341.2
2028.79
7339.86
5237.87
2918.98
5307.36
2800.88
5564.24
2577.73
6048.27
2181.16
6384.12
5963.4
3010.83
6000.84
2918.31
6271.09
2704.72
7217.03
2385.16
9441.4
10647.8
3380.93
11412.1
3275.11
13216.8
3055.28
13846.5
2814.87
10512.3
28064
3659.62
87125.3
3628.44
1e+10
3688.49
85898.4
3895.59
8454.33
6388.18
3016.87
6697.52
2907.54
7264.02
2683.06
8025.5
2445.83
8019.68
14342.7
3408.01
15164.7
3270.17
15246.3
3067.49
12263.2
2793.51
8240.4
40049
3650.44
40035.2
3590.64
29649
3528.37
15844.7
3590.78
7285.09
8119.71
3287.79
10375.5
48877.5
3758.07
1e+10
)
;

boundaryField
{
    inlet
    {
        type            zeroGradient;
    }
    outlet
    {
        type            zeroGradient;
    }
    wall
    {
        type            zeroGradient;
    }
    procBoundary1to0
    {
        type            processor;
        value           uniform 0;
    }
    procBoundary1to3
    {
        type            processor;
        value           uniform 0;
    }
    procBoundary1to5
    {
        type            processor;
        value           uniform 0;
    }
    procBoundary1to7
    {
        type            processor;
        value           uniform 0;
    }
}


// ************************************************************************* //
