/*--------------------------------*- C++ -*----------------------------------*\
| =========                 |                                                 |
| \\      /  F ield         | OpenFOAM: The Open Source CFD Toolbox           |
|  \\    /   O peration     | Version:  4.x                                   |
|   \\  /    A nd           | Web:      www.OpenFOAM.org                      |
|    \\/     M anipulation  |                                                 |
\*---------------------------------------------------------------------------*/
FoamFile
{
    version     2.0;
    format      ascii;
    class       volScalarField;
    location    "48.5";
    object      pSmooth;
}
// * * * * * * * * * * * * * * * * * * * * * * * * * * * * * * * * * * * * * //

dimensions      [1 -1 -2 0 0 0 0];

internalField   nonuniform List<scalar> 
132
(
108.067
91.4723
101.479
74.1525
94.7153
56.17
87.7701
37.6104
81.1398
108.289
91.6094
101.685
74.1192
94.8298
56.054
87.8368
37.4387
81.1158
108.718
91.9988
102.125
74.4137
95.2498
56.2979
88.3013
37.9886
81.5543
108.675
91.8533
102.038
108.897
92.0726
102.229
74.4622
95.3517
56.3642
88.3532
37.8997
81.611
109.235
92.1762
102.521
74.5276
95.5946
56.2955
88.5358
37.6838
81.6764
109.769
92.5287
103.062
74.8157
96.1349
56.5852
89.0749
38.0338
82.1619
109.714
92.2967
102.891
74.6406
95.8462
109.459
92.309
102.545
74.6133
95.4
56.4352
88.2499
37.7976
81.3413
109.889
92.4724
102.926
74.7152
95.7308
56.3885
88.5029
37.606
81.4062
110.489
92.8809
103.57
75.1311
96.2604
56.7853
88.8688
38.2899
81.7654
110.61
92.9051
103.595
75.0362
96.1879
56.6026
88.739
110.147
92.9281
103.264
75.182
96.1522
57.0603
88.9491
38.8082
82.116
110.67
93.1477
103.694
75.2603
96.4683
57.1338
89.2462
38.6623
82.1856
111.28
93.6753
104.386
75.8411
97.0295
57.8151
89.34
39.9228
82.0205
111.207
93.5108
104.15
75.4596
96.6173
57.2534
89.0801
38.76
81.9576
)
;

boundaryField
{
    inlet
    {
        type            zeroGradient;
    }
    outlet
    {
        type            fixedValue;
        value           nonuniform 0();
    }
    wall
    {
        type            zeroGradient;
    }
    procBoundary0to1
    {
        type            processor;
        value           nonuniform List<scalar> 
12
(
19.1043
18.551
19.2906
19.3533
18.8965
19.5845
19.0928
18.5609
20.0615
20.5112
20.3136
22.4857
)
;
    }
    procBoundary0to2
    {
        type            processor;
        value           nonuniform List<scalar> 
44
(
74.3015
95.0091
56.0325
88.0063
37.3416
81.2478
109.046
92.0532
74.3015
102.33
74.3015
95.0091
56.2169
88.5871
37.3244
81.6327
109.897
92.5957
103.168
74.7729
56.2169
96.1536
56.2169
88.5871
37.8974
81.6159
110.74
93.0787
103.86
75.4359
96.5833
57.4639
37.8974
89.174
37.8974
81.6159
111.377
93.5795
104.262
75.5678
96.8501
57.4028
89.4126
39.1404
)
;
    }
    procBoundary0to4
    {
        type            processor;
        value           nonuniform List<scalar> 
36
(
110.369
93.0013
103.284
75.2073
95.9408
57.0425
88.6362
38.5163
81.5166
110.966
93.256
103.84
75.3917
96.3395
57.0803
88.9377
38.6144
81.8164
111.577
93.7092
104.345
75.847
96.7269
57.6446
89.2282
39.3639
81.8426
111.638
93.847
104.479
75.9841
96.9174
57.8226
89.253
39.5179
81.708
)
;
    }
    procBoundary0to6
    {
        type            processor;
        value           uniform 82.0979;
    }
    procBoundary0to7
    {
        type            processor;
        value           uniform 20.8124;
    }
}


// ************************************************************************* //
