/*--------------------------------*- C++ -*----------------------------------*\
| =========                 |                                                 |
| \\      /  F ield         | OpenFOAM: The Open Source CFD Toolbox           |
|  \\    /   O peration     | Version:  4.x                                   |
|   \\  /    A nd           | Web:      www.OpenFOAM.org                      |
|    \\/     M anipulation  |                                                 |
\*---------------------------------------------------------------------------*/
FoamFile
{
    version     2.0;
    format      ascii;
    class       volScalarField;
    location    "48.5";
    object      Qsource;
}
// * * * * * * * * * * * * * * * * * * * * * * * * * * * * * * * * * * * * * //

dimensions      [1 -1 -3 0 0 0 0];

internalField   nonuniform List<scalar> 
132
(
6.89434e+09
5.22141e+09
5.5499e+09
4.17934e+09
6.29347e+09
5.87989e+09
7.9543e+09
5.46074e+09
4.19964e+09
5.50739e+09
5.56346e+09
6.43322e+09
6.15453e+09
4.79821e+09
7.3465e+09
6.31166e+09
6.47378e+09
6.28035e+09
3.11681e+09
6.31999e+09
6.64314e+09
5.58753e+09
6.49377e+09
5.46812e+09
4.93886e+09
5.78073e+09
9.47627e+09
3.8377e+09
4.98319e+09
4.40782e+09
5.11602e+09
7.40217e+09
9.50979e+09
8.04994e+09
8.64303e+09
8.11716e+09
8.04e+09
7.31302e+09
8.19902e+09
4.98229e+09
9.45784e+09
8.01669e+09
8.4992e+09
9.60413e+09
8.61393e+09
9.20091e+09
9.19243e+09
8.96884e+09
5.30174e+09
9.44789e+09
8.40849e+09
7.53137e+09
9.07308e+09
6.73753e+09
1.05149e+10
6.89028e+09
6.34506e+09
7.96366e+09
7.0372e+09
7.79607e+09
5.51128e+09
1.13174e+10
6.42077e+09
7.3889e+09
8.99065e+09
7.42507e+09
8.36521e+09
6.16141e+09
8.95339e+09
7.57574e+09
6.33747e+09
6.24753e+09
8.28144e+09
7.98899e+09
6.92338e+09
9.27999e+09
6.72059e+09
9.45377e+09
1.01854e+10
1.01424e+10
6.70873e+09
7.20635e+09
8.09253e+09
9.30307e+09
9.8342e+09
8.07783e+09
9.20443e+09
6.43509e+09
5.39357e+09
6.90543e+09
8.67092e+09
9.57528e+09
9.00212e+09
9.9763e+09
8.04178e+09
8.77902e+09
5.18823e+09
5.40085e+09
7.61482e+09
5.62362e+09
7.93974e+09
8.21792e+09
6.76362e+09
4.76693e+09
6.89919e+09
5.13673e+09
9.59541e+09
9.09253e+09
8.08576e+09
7.19913e+09
6.62505e+09
1.04291e+10
7.18104e+09
6.92837e+09
5.18864e+09
5.58404e+09
9.05251e+09
6.10181e+09
8.69493e+09
8.40082e+09
8.24324e+09
4.94472e+09
9.33339e+09
4.82814e+09
6.73425e+09
9.83573e+09
1.02362e+10
5.51638e+09
9.83672e+09
8.57203e+09
5.57376e+09
2.62164e+09
)
;

boundaryField
{
    inlet
    {
        type            calculated;
        value           uniform 0;
    }
    outlet
    {
        type            calculated;
        value           nonuniform 0();
    }
    wall
    {
        type            calculated;
        value           uniform 0;
    }
    procBoundary0to1
    {
        type            processor;
        value           nonuniform List<scalar> 
12
(
5.90929e+09
5.25038e+09
4.56059e+09
7.97822e+09
9.01843e+09
7.91275e+09
7.63693e+09
6.48252e+09
9.45615e+09
6.85734e+09
7.85808e+09
5.89968e+09
)
;
    }
    procBoundary0to2
    {
        type            processor;
        value           nonuniform List<scalar> 
44
(
7.66796e+09
6.52616e+09
3.65059e+09
6.94043e+09
4.27667e+09
5.60405e+09
6.66406e+09
7.35595e+09
7.66796e+09
7.01091e+09
7.66796e+09
6.52616e+09
9.84857e+09
1.23029e+10
6.61335e+09
1.12278e+10
4.73245e+09
7.93564e+09
9.59171e+09
9.17097e+09
9.84857e+09
8.87978e+09
9.84857e+09
1.23029e+10
8.07462e+09
9.30022e+09
6.86068e+09
5.73402e+09
6.74448e+09
6.85188e+09
6.75163e+09
7.65722e+09
8.07462e+09
9.81085e+09
8.07462e+09
9.30022e+09
4.89838e+09
9.4861e+09
1.03012e+10
7.15697e+09
8.24019e+09
6.27806e+09
7.58779e+09
7.50901e+09
)
;
    }
    procBoundary0to4
    {
        type            processor;
        value           nonuniform List<scalar> 
36
(
5.75121e+09
7.52665e+09
9.26291e+09
6.42041e+09
8.00648e+09
6.4484e+09
9.80378e+09
7.33343e+09
1.05235e+10
7.01805e+09
7.29828e+09
9.38931e+09
1.00429e+10
1.0117e+10
8.59466e+09
8.14439e+09
5.77761e+09
1.11105e+10
6.68865e+09
1.02797e+10
8.3174e+09
9.37606e+09
8.12848e+09
6.31188e+09
7.31281e+09
1.03005e+10
6.74458e+09
3.45822e+09
6.73354e+09
9.40057e+09
5.71071e+09
8.80794e+09
6.6818e+09
1.10363e+10
5.99911e+09
7.07173e+09
)
;
    }
    procBoundary0to6
    {
        type            processor;
        value           uniform 8.11477e+09;
    }
    procBoundary0to7
    {
        type            processor;
        value           uniform 1.0134e+10;
    }
}


// ************************************************************************* //
