/*--------------------------------*- C++ -*----------------------------------*\
| =========                 |                                                 |
| \\      /  F ield         | OpenFOAM: The Open Source CFD Toolbox           |
|  \\    /   O peration     | Version:  4.x                                   |
|   \\  /    A nd           | Web:      www.OpenFOAM.org                      |
|    \\/     M anipulation  |                                                 |
\*---------------------------------------------------------------------------*/
FoamFile
{
    version     2.0;
    format      ascii;
    class       volScalarField;
    location    "48.5";
    object      QWallFluidCoeff;
}
// * * * * * * * * * * * * * * * * * * * * * * * * * * * * * * * * * * * * * //

dimensions      [1 -1 -3 -1 0 0 0];

internalField   nonuniform List<scalar> 
132
(
-5.70065e+06
-3.21404e+06
-6.16603e+06
-4.04975e+06
-6.57936e+06
-4.63919e+06
-6.91394e+06
-5.07293e+06
-7.27384e+06
-2.85922e+06
-1.53913e+06
-3.02572e+06
-1.8614e+06
-3.19331e+06
-2.10118e+06
-3.329e+06
-2.27898e+06
-3.45753e+06
0
-1.4869e+06
-2.98779e+06
-1.74686e+06
-3.09746e+06
-1.93085e+06
-3.19567e+06
-2.03384e+06
-3.23641e+06
-2.86364e+06
-1.50061e+06
-2.9966e+06
-2.82726e+06
-1.42636e+06
-2.90741e+06
-1.59686e+06
-2.98912e+06
-1.72512e+06
-3.06538e+06
-1.80602e+06
-3.13199e+06
0
0
0
0
0
0
0
0
0
0
0
0
0
0
0
0
0
0
0
0
0
0
0
-2.78323e+06
-1.39386e+06
-2.8399e+06
-1.51845e+06
-2.91123e+06
-1.62844e+06
-2.98428e+06
-1.6962e+06
-3.06654e+06
0
0
0
0
0
0
0
0
0
0
0
0
0
0
0
0
0
0
0
0
0
0
0
0
0
-2.77937e+06
-1.37672e+06
-2.81882e+06
-1.46116e+06
-2.85048e+06
-1.48874e+06
-2.87171e+06
-1.46135e+06
-2.86915e+06
0
0
0
0
0
0
0
0
0
0
0
0
0
0
0
0
0
0
0
0
0
0
0
0
0
0
0
)
;

boundaryField
{
    inlet
    {
        type            calculated;
        value           uniform 0;
    }
    outlet
    {
        type            calculated;
        value           nonuniform 0();
    }
    wall
    {
        type            calculated;
        value           uniform 0;
    }
    procBoundary0to1
    {
        type            processor;
        value           uniform 0;
    }
    procBoundary0to2
    {
        type            processor;
        value           uniform 0;
    }
    procBoundary0to4
    {
        type            processor;
        value           uniform 0;
    }
    procBoundary0to6
    {
        type            processor;
        value           uniform 0;
    }
    procBoundary0to7
    {
        type            processor;
        value           uniform 0;
    }
}


// ************************************************************************* //
