/*--------------------------------*- C++ -*----------------------------------*\
| =========                 |                                                 |
| \\      /  F ield         | OpenFOAM: The Open Source CFD Toolbox           |
|  \\    /   O peration     | Version:  4.x                                   |
|   \\  /    A nd           | Web:      www.OpenFOAM.org                      |
|    \\/     M anipulation  |                                                 |
\*---------------------------------------------------------------------------*/
FoamFile
{
    version     2.0;
    format      ascii;
    class       surfaceScalarField;
    location    "54";
    object      phi;
}
// * * * * * * * * * * * * * * * * * * * * * * * * * * * * * * * * * * * * * //

dimensions      [0 3 -1 0 0 0 0];

internalField   nonuniform List<scalar> 
308
(
5.69172e-06
3.96525e-08
5.73038e-06
1.07727e-07
5.581e-06
5.45662e-08
-7.00292e-08
5.55351e-06
1.05396e-07
8.36881e-08
5.25546e-06
5.94664e-08
-3.07291e-08
5.37624e-06
1.19031e-08
2.84628e-07
4.49629e-06
4.05564e-07
-1.51577e-08
5.28494e-06
-7.72672e-07
7.12953e-07
2.09862e-06
-8.10376e-08
5.26476e-06
1.68835e-07
-1.9481e-09
5.33772e-06
1.25371e-07
-2.60529e-08
5.16152e-06
2.30775e-07
-1.50167e-12
5.3995e-06
-7.47879e-09
4.31586e-08
5.0256e-06
4.35584e-07
-1.43175e-08
5.83074e-06
-4.72033e-07
1.90123e-07
5.12698e-06
1.11135e-06
-4.9935e-08
6.31344e-06
-1.55137e-06
3.43756e-07
3.50861e-06
1.62739e-07
7.75706e-06
6.96664e-08
-1.34651e-07
7.85714e-06
2.44579e-08
-6.24312e-08
7.99369e-06
9.65148e-08
-2.17213e-07
8.10056e-06
-1.15807e-07
-4.02703e-08
8.27011e-06
2.30774e-07
-3.63015e-07
8.3015e-06
-4.47866e-07
7.21509e-08
8.58362e-06
5.39807e-07
-5.99798e-07
8.36479e-06
-9.95973e-07
5.04637e-07
1.55549e-06
-8.77358e-07
9.70355e-06
-3.57325e-07
9.74009e-06
-2.72919e-07
9.80883e-06
-4.21723e-07
9.71889e-06
-1.69194e-07
9.74976e-06
-5.02925e-07
9.30079e-06
1.83163e-07
9.49519e-06
-8.22633e-07
8.70758e-06
7.00294e-07
-1.49399e-06
5.0691e-06
-7.8904e-13
5.14217e-06
-8.04882e-08
4.96678e-06
-8.81794e-13
1.16712e-07
5.05161e-06
8.17233e-08
1.31877e-07
4.42226e-06
-6.8833e-13
4.11632e-07
5.57704e-06
5.58786e-07
-2.90205e-07
-3.32492e-07
2.33455e-06
4.92907e-06
1.21446e-12
9.18006e-09
4.98958e-06
-1.71245e-07
-5.76163e-09
4.98958e-06
1.40142e-12
1.2889e-12
5.06128e-06
-1.29148e-07
2.01128e-08
5.04183e-06
1.28156e-12
5.1291e-09
5.12485e-06
1.54184e-07
3.46473e-08
4.95965e-06
7.59869e-13
1.1526e-07
5.75087e-06
1.92504e-07
-8.11774e-08
-2.12345e-07
5.08919e-07
5.13232e-06
-2.09768e-08
3.11651e-08
5.19498e-06
-3.01877e-07
5.54227e-09
4.93813e-06
-1.64804e-08
5.61162e-08
5.01218e-06
-2.8341e-07
3.99451e-08
4.45617e-06
7.84852e-11
1.92919e-07
4.54027e-06
6.78685e-08
7.4357e-08
3.45823e-06
9.03071e-14
4.8225e-07
4.23545e-06
7.25485e-08
-1.52631e-07
-8.81539e-08
1.59573e-06
7.03049e-06
-8.63973e-08
6.37071e-06
8.4982e-08
5.95365e-06
-2.11434e-08
5.36465e-06
1.36398e-07
4.69357e-06
1.68224e-07
4.79301e-06
1.51593e-07
3.64994e-06
3.20438e-07
4.29871e-06
1.24071e-07
1.45558e-06
6.00276e-06
-2.0138e-08
6.53196e-06
-7.46876e-08
6.05624e-06
9.49442e-08
7.09006e-07
7.10889e-06
-5.03404e-07
-7.53108e-07
1.26857e-06
3.19235e-06
5.2795e-06
6.9974e-08
3.20561e-08
5.29495e-06
7.42601e-08
-2.51764e-08
5.18989e-06
9.03936e-08
5.47571e-09
5.31945e-06
-5.95267e-08
-5.33574e-08
5.04545e-06
2.11131e-07
4.78605e-08
5.6788e-06
-4.25648e-07
-2.47738e-07
5.08054e-06
6.52683e-07
1.55782e-07
6.45404e-06
-1.32691e-06
-6.3117e-07
3.02018e-06
6.19617e-07
7.11638e-06
4.17367e-08
-6.67753e-09
7.22807e-06
7.31964e-09
-3.92051e-08
7.47208e-06
-1.51507e-08
-8.23571e-08
7.77588e-06
-1.45277e-07
-1.78102e-07
8.27432e-06
-5.14894e-09
-8.92446e-08
8.65387e-06
-4.45461e-07
-2.85382e-07
9.66362e-06
1.74788e-07
-4.95956e-08
9.52105e-06
-9.06671e-07
-4.30308e-07
1.31844e-06
9.12345e-07
9.4323e-06
-4.84129e-08
9.46815e-06
5.64519e-08
9.50798e-06
-7.61167e-08
9.48862e-06
1.04813e-08
9.78037e-06
-1.28675e-07
9.56036e-06
-7.3862e-08
1.04129e-05
-3.57335e-07
9.61263e-06
1.76881e-08
2.34119e-08
9.7911e-06
-8.79972e-07
9.25919e-06
2.89356e-07
-1.63646e-06
7.96699e-06
-2.97162e-08
7.82808e-06
-2.91394e-08
7.6217e-06
-7.07407e-08
7.47197e-06
-8.77686e-08
7.19795e-06
-1.40444e-07
6.9091e-06
-1.11205e-07
6.36722e-06
-1.82309e-07
6.10067e-06
-7.52639e-08
-2.66575e-07
9.17103e-06
-3.75227e-08
9.14865e-06
-4.59622e-08
9.07184e-06
-7.62903e-08
8.89501e-06
-8.90418e-08
8.83642e-06
-1.71095e-07
8.4745e-06
-3.46663e-08
8.53915e-06
-2.96558e-07
7.92348e-06
1.10097e-07
-8.7685e-07
1.03287e-05
1.03392e-05
1.01868e-05
1.01083e-05
9.8085e-06
9.69997e-06
9.04608e-06
9.17386e-06
)
;

boundaryField
{
    inlet
    {
        type            calculated;
        value           nonuniform 0();
    }
    outlet
    {
        type            calculated;
        value           nonuniform List<scalar> 
16
(
1.57677e-06
4.79703e-06
8.99679e-06
9.23033e-06
2.6855e-06
5.28454e-06
1.63817e-06
1.26099e-06
4.37317e-06
4.59174e-06
1.19062e-05
1.23632e-05
1.24288e-05
5.3504e-06
9.4461e-06
8.32043e-06
)
;
    }
    wall
    {
        type            calculated;
        value           nonuniform List<scalar> 
66
(
0
0
1.54074e-33
0
0
0
0
0
0
0
0
0
0
0
0
1.92593e-34
0
0
0
0
6.16298e-33
0
0
0
0
0
0
0
0
0
0
0
0
0
0
0
0
0
0
0
0
0
0
0
0
0
0
0
0
0
0
0
0
0
0
0
0
0
0
0
4.81482e-35
0
0
0
0
0
)
;
    }
    procBoundary7to0
    {
        type            processor;
        value           uniform -5.82549e-06;
    }
    procBoundary7to1
    {
        type            processor;
        value           uniform -3.93393e-08;
    }
    procBoundary7to3
    {
        type            processor;
        value           nonuniform List<scalar> 
36
(
1.89837e-07
5.59044e-08
2.21007e-07
-2.62369e-08
2.94219e-07
-3.47021e-07
5.03098e-07
-1.24622e-06
2.0011e-06
1.12152e-09
-6.45551e-08
-8.40924e-13
-1.68266e-07
1.21005e-08
-5.1133e-07
4.79113e-08
-7.51521e-07
-5.63167e-08
1.41347e-07
6.32694e-08
2.14925e-07
4.17285e-08
3.98275e-07
-1.27709e-07
8.8922e-07
-8.41205e-07
2.19848e-06
3.51121e-07
2.60839e-07
4.49492e-07
1.43327e-07
7.02836e-07
-1.82065e-07
1.16804e-06
-9.08654e-07
2.52673e-06
)
;
    }
    procBoundary7to5
    {
        type            processor;
        value           nonuniform List<scalar> 
44
(
-1.71784e-07
-5.61566e-08
-1.35365e-07
-2.49004e-08
-7.02953e-08
-1.35558e-08
5.17287e-07
-3.10513e-07
-5.63765e-08
-3.05136e-08
1.57426e-13
1.86481e-08
2.79477e-08
-1.37945e-08
2.02561e-07
-7.10408e-07
8.08445e-07
7.14448e-13
-5.17794e-06
9.04439e-08
3.88078e-08
7.2457e-08
1.88388e-08
-1.61945e-07
8.34018e-08
-8.63381e-08
6.09341e-07
1.4863e-08
-7.02912e-08
9.18477e-09
-6.08228e-06
3.4384e-09
1.9753e-07
-1.60694e-07
8.87097e-07
-5.10559e-07
1.65922e-06
1.83014e-07
1.42875e-07
2.82599e-07
1.84133e-07
4.62326e-07
-9.08922e-06
1.52322e-07
)
;
    }
    procBoundary7to6
    {
        type            processor;
        value           nonuniform List<scalar> 
12
(
-5.39312e-06
-7.66459e-06
-9.62768e-06
-4.9402e-06
-5.27716e-06
-7.32239e-06
-5.38721e-06
-7.0503e-06
-9.42855e-06
-8.08823e-06
-9.1699e-06
-1.04147e-05
)
;
    }
}


// ************************************************************************* //
