/*--------------------------------*- C++ -*----------------------------------*\
| =========                 |                                                 |
| \\      /  F ield         | OpenFOAM: The Open Source CFD Toolbox           |
|  \\    /   O peration     | Version:  4.x                                   |
|   \\  /    A nd           | Web:      www.OpenFOAM.org                      |
|    \\/     M anipulation  |                                                 |
\*---------------------------------------------------------------------------*/
FoamFile
{
    version     2.0;
    format      ascii;
    class       volScalarField;
    location    "54";
    object      pSmooth;
}
// * * * * * * * * * * * * * * * * * * * * * * * * * * * * * * * * * * * * * //

dimensions      [1 -1 -2 0 0 0 0];

internalField   nonuniform List<scalar> 
132
(
20.7755
74.8749
1.94877
68.4146
0.1
62.5532
0.1
57.7328
0.1
21.0144
74.9184
2.23778
68.1358
0.1
61.1456
0.1
54.6773
0.1
19.1733
74.7469
0.1
68.4018
0.1
63.0888
0.1
60.3276
0.1
19.7384
74.8208
0.174844
68.5507
0.1
63.1737
0.1
59.9369
0.1
3.55894
68.2985
0.1
62.472
0.1
56.6915
0.1
23.0348
75.0507
5.08407
68.5465
0.1
62.272
0.1
55.6739
0.1
21.1452
74.9478
2.84014
68.3534
0.1
62.0908
0.1
55.9031
0.1
21.2962
75.561
2.93117
68.9797
0.1
62.0487
0.1
55.5665
0.1
0.1
61.9782
0.1
57.1448
0.1
21.4568
74.9356
2.97045
68.1487
0.1
61.098
0.1
54.4341
0.1
20.6555
74.7845
1.40041
68.1612
0.1
62.4468
0.1
59.1955
0.1
20.8802
74.8718
1.99602
68.4121
0.1
62.617
0.1
58.7616
0.1
0.1
58.9127
0.1
21.4179
75.0638
2.87232
68.4578
0.1
62.188
0.1
56.3298
0.1
20.9231
74.9324
2.21337
68.5283
0.1
62.7353
0.1
58.4127
0.1
21.2824
75.0519
2.69983
68.5948
0.1
62.3555
0.1
56.8419
0.1
)
;

boundaryField
{
    inlet
    {
        type            zeroGradient;
    }
    outlet
    {
        type            fixedValue;
        value           uniform 0;
    }
    wall
    {
        type            zeroGradient;
    }
    procBoundary7to0
    {
        type            processor;
        value           uniform 82.0129;
    }
    procBoundary7to1
    {
        type            processor;
        value           uniform 22.5995;
    }
    procBoundary7to3
    {
        type            processor;
        value           nonuniform List<scalar> 
36
(
19.3054
74.7909
0.1
68.3399
0.1
63.0059
0.1
58.9004
0.1
21.4708
74.9719
3.38921
68.7217
0.1
62.967
0.1
56.7915
0.1
19.9863
74.9564
0.837759
68.3092
0.1
62.3636
0.1
57.8383
0.1
20.1724
75.1488
1.24833
68.9235
0.1
63.1885
0.1
58.7431
0.1
)
;
    }
    procBoundary7to5
    {
        type            processor;
        value           nonuniform List<scalar> 
44
(
75.1478
5.02776
68.4538
0.1
61.662
0.1
53.7095
0.1
21.555
74.8174
2.9198
68.2951
0.1
62.1969
0.1
57.2028
0.1
21.555
74.8174
74.8174
1.54822
68.0611
0.1
61.3148
0.1
54.4165
0.1
20.5935
74.9022
1.54822
68.0611
68.0611
0.1
62.689
0.1
58.518
0.1
20.4985
74.8472
1.38411
68.423
0.1
62.689
62.689
)
;
    }
    procBoundary7to6
    {
        type            processor;
        value           nonuniform List<scalar> 
12
(
82.1504
81.6178
81.6424
81.9058
82.1103
82.266
82.2459
81.8503
81.7708
81.9559
81.7877
81.8346
)
;
    }
}


// ************************************************************************* //
