/*--------------------------------*- C++ -*----------------------------------*\
| =========                 |                                                 |
| \\      /  F ield         | OpenFOAM: The Open Source CFD Toolbox           |
|  \\    /   O peration     | Version:  4.x                                   |
|   \\  /    A nd           | Web:      www.OpenFOAM.org                      |
|    \\/     M anipulation  |                                                 |
\*---------------------------------------------------------------------------*/
FoamFile
{
    version     2.0;
    format      ascii;
    class       volScalarField;
    location    "20.5";
    object      Cs;
}
// * * * * * * * * * * * * * * * * * * * * * * * * * * * * * * * * * * * * * //

dimensions      [1 -3 0 0 0 0 0];

internalField   nonuniform List<scalar> 
132
(
334.967
334.951
334.939
334.929
334.931
334.941
334.966
334.993
335.256
334.974
334.961
334.949
334.937
334.936
334.937
334.957
334.968
335.1
334.98
334.967
334.955
334.94
334.935
334.929
334.941
334.937
335.025
334.994
334.99
334.984
334.976
334.965
334.952
334.94
334.921
334.565
334.958
334.96
334.974
334.993
335.019
335.04
335.519
334.964
334.958
334.959
334.966
334.982
334.998
335.022
335.035
335.233
334.978
334.969
334.963
334.96
334.967
334.975
334.996
334.996
335.045
334.993
334.989
334.983
334.974
334.965
334.951
334.939
334.921
334.788
334.971
334.988
335.012
335.029
335.143
334.982
334.975
334.969
334.967
334.968
334.975
334.985
334.996
335.034
334.988
334.981
334.974
334.97
334.969
334.971
334.976
334.979
335.021
334.996
334.993
334.99
334.985
334.98
334.974
334.97
334.963
334.678
334.958
334.953
334.931
334.992
334.988
334.982
334.975
334.967
334.959
334.952
334.95
334.945
334.995
334.992
334.988
334.983
334.977
334.97
334.962
334.955
334.839
334.998
334.996
334.994
334.99
334.985
334.98
334.973
334.966
334.651
)
;

boundaryField
{
    inlet
    {
        type            calculated;
        value           nonuniform 0();
    }
    outlet
    {
        type            calculated;
        value           uniform 335;
    }
    wall
    {
        type            calculated;
        value           nonuniform List<scalar> 
66
(
334.992
334.995
334.998
334.988
334.992
334.996
334.982
334.988
334.994
334.975
334.983
334.99
334.967
334.977
334.985
334.959
334.97
334.98
334.958
334.952
334.962
334.973
334.953
334.95
334.955
334.966
334.931
334.945
334.839
334.651
334.994
334.993
334.996
334.998
334.99
334.989
334.993
334.996
334.984
334.983
334.99
334.994
334.976
334.974
334.985
334.99
334.965
334.965
334.98
334.985
334.952
334.951
334.974
334.98
334.94
334.939
334.97
334.973
334.921
334.921
334.963
334.966
334.565
334.788
334.678
334.651
)
;
    }
    procBoundary7to0
    {
        type            processor;
        value           uniform 334.98;
    }
    procBoundary7to1
    {
        type            processor;
        value           uniform 334.973;
    }
    procBoundary7to3
    {
        type            processor;
        value           nonuniform List<scalar> 
36
(
334.937
334.913
334.895
334.884
334.888
334.899
334.929
334.952
335.049
334.959
334.935
334.911
334.891
334.886
334.884
334.907
334.906
335.007
334.965
334.94
334.913
334.888
334.877
334.867
334.882
334.875
335.081
334.992
334.984
334.972
334.955
334.936
334.915
334.895
334.875
334.609
)
;
    }
    procBoundary7to5
    {
        type            processor;
        value           nonuniform List<scalar> 
44
(
334.962
334.953
334.946
334.946
334.954
334.973
334.991
335.138
334.971
334.962
334.963
334.965
334.977
334.995
335.022
335.036
335.383
334.971
334.962
334.962
334.964
334.963
334.969
334.973
334.985
334.992
335.074
334.98
334.971
334.964
334.963
334.963
334.969
334.963
334.962
334.956
334.936
334.992
334.987
334.981
334.975
334.969
334.963
334.963
)
;
    }
    procBoundary7to6
    {
        type            processor;
        value           nonuniform List<scalar> 
12
(
334.985
334.989
334.997
334.973
334.987
334.996
334.989
334.993
334.997
334.996
334.997
334.998
)
;
    }
}


// ************************************************************************* //
