/*--------------------------------*- C++ -*----------------------------------*\
| =========                 |                                                 |
| \\      /  F ield         | OpenFOAM: The Open Source CFD Toolbox           |
|  \\    /   O peration     | Version:  4.x                                   |
|   \\  /    A nd           | Web:      www.OpenFOAM.org                      |
|    \\/     M anipulation  |                                                 |
\*---------------------------------------------------------------------------*/
FoamFile
{
    version     2.0;
    format      ascii;
    class       volScalarField;
    location    "20.5";
    object      nu;
}
// * * * * * * * * * * * * * * * * * * * * * * * * * * * * * * * * * * * * * //

dimensions      [0 2 -1 0 0 0 0];

internalField   nonuniform List<scalar> 
132
(
1.0001e-06
1.00015e-06
1.00018e-06
1.00021e-06
1.00021e-06
1.00018e-06
1.0001e-06
1.00002e-06
9.99235e-07
1.00008e-06
1.00012e-06
1.00015e-06
1.00019e-06
1.00019e-06
1.00019e-06
1.00013e-06
1.0001e-06
9.99702e-07
1.00006e-06
1.0001e-06
1.00013e-06
1.00018e-06
1.00019e-06
1.00021e-06
1.00018e-06
1.00019e-06
9.99925e-07
1.00002e-06
1.00003e-06
1.00005e-06
1.00007e-06
1.0001e-06
1.00014e-06
1.00018e-06
1.00024e-06
1.0013e-06
1.00013e-06
1.00012e-06
1.00008e-06
1.00002e-06
9.99942e-07
9.99881e-07
9.98453e-07
1.00011e-06
1.00013e-06
1.00012e-06
1.0001e-06
1.00005e-06
1e-06
9.99936e-07
9.99896e-07
9.99305e-07
1.00007e-06
1.00009e-06
1.00011e-06
1.00012e-06
1.0001e-06
1.00007e-06
1.00001e-06
1.00001e-06
9.99866e-07
1.00002e-06
1.00003e-06
1.00005e-06
1.00008e-06
1.00011e-06
1.00014e-06
1.00018e-06
1.00024e-06
1.00063e-06
1.00009e-06
1.00004e-06
9.99966e-07
9.99913e-07
9.99574e-07
1.00005e-06
1.00007e-06
1.00009e-06
1.0001e-06
1.0001e-06
1.00008e-06
1.00005e-06
1.00001e-06
9.99897e-07
1.00004e-06
1.00006e-06
1.00008e-06
1.00009e-06
1.00009e-06
1.00009e-06
1.00007e-06
1.00006e-06
9.99937e-07
1.00001e-06
1.00002e-06
1.00003e-06
1.00004e-06
1.00006e-06
1.00008e-06
1.00009e-06
1.00011e-06
1.00096e-06
1.00013e-06
1.00014e-06
1.0002e-06
1.00002e-06
1.00004e-06
1.00005e-06
1.00007e-06
1.0001e-06
1.00012e-06
1.00014e-06
1.00015e-06
1.00017e-06
1.00002e-06
1.00002e-06
1.00004e-06
1.00005e-06
1.00007e-06
1.00009e-06
1.00011e-06
1.00014e-06
1.00048e-06
1.00001e-06
1.00001e-06
1.00002e-06
1.00003e-06
1.00004e-06
1.00006e-06
1.00008e-06
1.0001e-06
1.00104e-06
)
;

boundaryField
{
    inlet
    {
        type            calculated;
        value           nonuniform 0();
    }
    outlet
    {
        type            calculated;
        value           uniform 1e-06;
    }
    wall
    {
        type            calculated;
        value           nonuniform List<scalar> 
66
(
1.00002e-06
1.00002e-06
1.00001e-06
1.00004e-06
1.00002e-06
1.00001e-06
1.00005e-06
1.00004e-06
1.00002e-06
1.00007e-06
1.00005e-06
1.00003e-06
1.0001e-06
1.00007e-06
1.00004e-06
1.00012e-06
1.00009e-06
1.00006e-06
1.00013e-06
1.00014e-06
1.00011e-06
1.00008e-06
1.00014e-06
1.00015e-06
1.00014e-06
1.0001e-06
1.0002e-06
1.00017e-06
1.00048e-06
1.00104e-06
1.00002e-06
1.00002e-06
1.00001e-06
1.00001e-06
1.00003e-06
1.00003e-06
1.00002e-06
1.00001e-06
1.00005e-06
1.00005e-06
1.00003e-06
1.00002e-06
1.00007e-06
1.00008e-06
1.00004e-06
1.00003e-06
1.0001e-06
1.00011e-06
1.00006e-06
1.00004e-06
1.00014e-06
1.00014e-06
1.00008e-06
1.00006e-06
1.00018e-06
1.00018e-06
1.00009e-06
1.00008e-06
1.00024e-06
1.00024e-06
1.00011e-06
1.0001e-06
1.0013e-06
1.00063e-06
1.00096e-06
1.00104e-06
)
;
    }
    procBoundary7to0
    {
        type            processor;
        value           uniform 1.00006e-06;
    }
    procBoundary7to1
    {
        type            processor;
        value           uniform 1.00008e-06;
    }
    procBoundary7to3
    {
        type            processor;
        value           nonuniform List<scalar> 
36
(
1.00019e-06
1.00026e-06
1.00031e-06
1.00035e-06
1.00033e-06
1.0003e-06
1.00021e-06
1.00014e-06
9.99854e-07
1.00012e-06
1.0002e-06
1.00027e-06
1.00033e-06
1.00034e-06
1.00035e-06
1.00028e-06
1.00028e-06
9.99978e-07
1.00011e-06
1.00018e-06
1.00026e-06
1.00033e-06
1.00037e-06
1.0004e-06
1.00035e-06
1.00037e-06
9.99758e-07
1.00002e-06
1.00005e-06
1.00008e-06
1.00013e-06
1.00019e-06
1.00026e-06
1.00031e-06
1.00037e-06
1.00117e-06
)
;
    }
    procBoundary7to5
    {
        type            processor;
        value           nonuniform List<scalar> 
44
(
1.00011e-06
1.00014e-06
1.00016e-06
1.00016e-06
1.00014e-06
1.00008e-06
1.00003e-06
9.99589e-07
1.00009e-06
1.00011e-06
1.00011e-06
1.00011e-06
1.00007e-06
1.00002e-06
9.99934e-07
9.99892e-07
9.98859e-07
1.00009e-06
1.00011e-06
1.00011e-06
1.00011e-06
1.00011e-06
1.00009e-06
1.00008e-06
1.00004e-06
1.00003e-06
9.9978e-07
1.00006e-06
1.00009e-06
1.00011e-06
1.00011e-06
1.00011e-06
1.00009e-06
1.00011e-06
1.00011e-06
1.00013e-06
1.00019e-06
1.00003e-06
1.00004e-06
1.00006e-06
1.00007e-06
1.00009e-06
1.00011e-06
1.00011e-06
)
;
    }
    procBoundary7to6
    {
        type            processor;
        value           nonuniform List<scalar> 
12
(
1.00004e-06
1.00003e-06
1.00001e-06
1.00008e-06
1.00004e-06
1.00001e-06
1.00003e-06
1.00002e-06
1.00001e-06
1.00001e-06
1.00001e-06
1e-06
)
;
    }
}


// ************************************************************************* //
