/*--------------------------------*- C++ -*----------------------------------*\
| =========                 |                                                 |
| \\      /  F ield         | OpenFOAM: The Open Source CFD Toolbox           |
|  \\    /   O peration     | Version:  4.x                                   |
|   \\  /    A nd           | Web:      www.OpenFOAM.org                      |
|    \\/     M anipulation  |                                                 |
\*---------------------------------------------------------------------------*/
FoamFile
{
    version     2.0;
    format      ascii;
    class       surfaceScalarField;
    location    "20.5";
    object      phi;
}
// * * * * * * * * * * * * * * * * * * * * * * * * * * * * * * * * * * * * * //

dimensions      [0 3 -1 0 0 0 0];

internalField   nonuniform List<scalar> 
308
(
5.16168e-06
9.72386e-08
5.05314e-06
1.30058e-07
4.86056e-06
1.11662e-07
-1.05931e-12
4.92821e-06
6.92185e-08
3.16155e-07
4.71439e-06
1.51437e-07
1.08876e-13
4.79188e-06
6.7518e-08
5.23405e-07
4.47247e-06
2.50149e-07
-3.1593e-08
5.12859e-06
-3.26149e-07
8.36003e-07
5.88432e-07
-6.21491e-07
6.16451e-06
1.24866e-07
-8.03581e-08
6.14336e-06
1.77711e-07
1.14186e-07
6.08142e-06
1.759e-07
-9.94933e-08
6.12496e-06
1.17784e-07
2.74787e-07
5.94992e-06
3.2991e-07
-1.23629e-07
6.14002e-06
6.63666e-08
5.11983e-07
5.53794e-06
8.48992e-07
-3.31814e-07
6.12319e-06
-6.02675e-07
9.04606e-07
3.11679e-06
-1.25453e-06
6.81764e-06
1.15484e-07
-1.42757e-07
6.86096e-06
1.73645e-07
6.30669e-08
6.83036e-06
2.07881e-07
-1.40256e-07
6.94616e-06
1.10444e-07
3.02719e-07
6.78742e-06
4.91131e-07
-2.07339e-07
7.17668e-06
-1.30746e-07
5.07943e-07
6.67501e-06
1.35004e-06
-4.51531e-07
7.3172e-06
-1.05589e-06
8.9539e-07
5.13539e-06
-1.69512e-06
9.61316e-06
-4.5543e-07
9.74642e-06
-2.61576e-07
1.00278e-05
-5.52871e-07
1.0149e-05
-8.58293e-08
1.06992e-05
-6.89951e-07
1.05896e-05
3.41644e-07
1.19131e-05
-1.00174e-06
1.10549e-05
1.28483e-06
-1.12623e-06
4.95527e-06
1.05642e-12
5.02153e-06
3.11941e-08
5.02153e-06
-8.12885e-13
2.38803e-14
5.41528e-06
1.78932e-07
3.00401e-07
5.46779e-06
-8.26228e-08
-3.20091e-08
6.2e-06
3.59939e-07
4.12998e-07
-7.7787e-07
-9.03827e-07
4.65047e-06
2.09782e-08
3.01568e-08
4.70644e-06
-5.97246e-08
7.89655e-08
4.57252e-06
1.35793e-12
3.44309e-08
4.63831e-06
2.30283e-08
2.17164e-07
4.47347e-06
1.0332e-12
4.12092e-08
5.15754e-06
-1.28544e-07
1.35383e-07
4.85362e-06
-4.89789e-08
-6.15295e-08
6.48187e-06
-3.27769e-07
-3.59399e-08
-5.90312e-07
-5.83017e-07
5.14642e-06
8.33992e-08
-1.47615e-08
4.95032e-06
4.22943e-08
1.57141e-07
4.70699e-06
8.12159e-08
2.18685e-08
4.77409e-06
-1.11234e-08
2.69762e-07
4.34557e-06
1.40088e-07
8.10955e-08
4.42146e-06
-1.0695e-07
4.10462e-07
3.54655e-06
1.9446e-07
1.79936e-07
4.10557e-06
-4.57089e-07
4.65691e-07
2.74041e-07
4.62497e-07
7.84717e-06
-2.26215e-07
7.68882e-06
-6.09349e-08
7.46734e-06
-2.50176e-07
7.30989e-06
6.05028e-08
6.9225e-06
-1.62479e-07
6.81214e-06
3.45054e-07
5.92668e-06
7.81864e-08
6.06117e-06
6.93248e-07
1.43079e-06
4.46718e-06
3.59333e-08
4.54308e-06
9.56848e-08
3.78983e-06
9.23305e-08
1.46636e-07
5.10656e-06
-1.18637e-07
-1.017e-07
2.2363e-07
-2.22105e-07
5.68822e-06
8.33152e-08
1.78699e-08
5.57167e-06
1.93382e-07
4.27161e-08
5.52648e-06
1.13766e-07
-9.29849e-09
5.56253e-06
1.23641e-07
8.58147e-08
5.42271e-06
2.46609e-07
-2.96442e-08
5.62378e-06
5.50663e-08
-2.50735e-08
5.00899e-06
7.57895e-07
-1.12302e-07
5.65458e-06
-7.25617e-07
-7.45543e-08
3.64474e-06
-2.86622e-07
6.59835e-06
1.61094e-07
-2.6107e-08
6.65302e-06
1.96465e-07
9.93797e-08
6.64166e-06
2.36556e-07
-8.95606e-08
6.92e-06
9.37105e-08
2.13556e-08
6.90084e-06
4.92885e-07
-1.46023e-07
7.46871e-06
-1.40217e-07
3.7874e-08
7.30765e-06
1.36342e-06
-2.64521e-07
7.94883e-06
-9.19726e-07
1.86226e-08
5.89152e-06
-1.08116e-07
9.37412e-06
-1.61906e-07
9.58488e-06
-7.52334e-08
9.82441e-06
-2.53149e-07
1.00477e-05
-6.91196e-08
1.07383e-05
-3.60143e-07
1.08381e-05
1.04986e-07
1.29445e-05
-6.64785e-07
1.2259e-05
4.59033e-07
-1.83556e-06
6.96446e-06
-4.55228e-07
7.21819e-06
2.63264e-07
-8.08563e-07
7.48027e-06
5.9262e-08
7.38928e-06
9.67813e-08
7.16782e-06
8.82741e-08
7.12011e-06
8.59745e-08
6.72637e-06
1.60025e-07
6.61728e-06
7.37043e-08
5.65217e-06
3.97585e-07
5.95096e-06
-1.10083e-07
8.77979e-07
8.69756e-06
9.91881e-08
8.78507e-06
1.08643e-07
8.61529e-06
1.68501e-07
8.62882e-06
9.37956e-08
8.32552e-06
3.17305e-07
8.32476e-06
1.12331e-07
7.67264e-06
7.8519e-07
7.69338e-06
-1.12206e-07
1.78768e-06
1.04885e-05
1.05219e-05
1.04372e-05
1.04619e-05
1.04191e-05
1.06364e-05
1.07568e-05
1.11036e-05
)
;

boundaryField
{
    inlet
    {
        type            calculated;
        value           nonuniform 0();
    }
    outlet
    {
        type            calculated;
        value           nonuniform List<scalar> 
16
(
4.06518e-06
2.63365e-06
5.19471e-06
1.55501e-05
7.28994e-06
5.6228e-06
1.0836e-06
3.7782e-06
3.21873e-06
1.93708e-06
6.27266e-06
2.14169e-05
6.04189e-06
3.9778e-06
6.67557e-06
1.10558e-05
)
;
    }
    wall
    {
        type            calculated;
        value           nonuniform List<scalar> 
66
(
0
0
0
-1.2326e-32
0
0
0
0
0
0
0
0
0
0
0
0
0
0
0
0
0
0
0
-2.46519e-32
0
0
0
0
-1.2326e-32
0
0
0
0
0
0
0
0
0
0
0
0
0
0
0
0
0
0
0
6.16298e-33
0
0
-1.2326e-32
0
0
0
0
0
0
0
1.2326e-32
0
0
0
0
0
0
)
;
    }
    procBoundary7to0
    {
        type            processor;
        value           uniform -5.33804e-06;
    }
    procBoundary7to1
    {
        type            processor;
        value           uniform 7.87809e-08;
    }
    procBoundary7to3
    {
        type            processor;
        value           nonuniform List<scalar> 
36
(
2.22246e-08
-1.54543e-07
1.94841e-12
-3.98196e-07
-1.03812e-12
-5.70714e-07
-2.25412e-12
-8.81592e-07
6.95668e-07
9.40153e-08
-1.4069e-07
9.71912e-08
-3.66893e-07
1.20203e-07
-7.00931e-07
3.35046e-07
-1.21333e-06
2.21571e-06
1.40816e-07
-1.02316e-07
1.38874e-07
-4.11183e-07
2.04863e-07
-7.00089e-07
4.52147e-07
-1.08436e-06
1.79901e-06
4.37035e-07
3.01967e-07
4.79322e-07
7.50838e-08
6.30886e-07
-3.62761e-07
1.02828e-06
-1.48255e-06
1.76644e-06
)
;
    }
    procBoundary7to5
    {
        type            processor;
        value           nonuniform List<scalar> 
44
(
1.64929e-08
8.09137e-08
-5.48223e-08
6.23777e-08
-9.76923e-08
1.00855e-07
-2.84382e-07
4.00799e-07
-2.18855e-08
1.16531e-07
-1.06177e-12
-5.51202e-08
3.27368e-13
-3.49676e-07
3.05279e-08
-6.69145e-07
-2.97369e-08
-4.40553e-13
-4.95528e-06
3.89686e-08
1.2596e-13
2.73826e-07
2.38441e-07
-4.39061e-08
4.82271e-07
-6.83392e-07
9.82473e-07
-7.66905e-09
-4.05868e-08
-2.48422e-08
-4.81028e-06
-2.83411e-08
6.87334e-08
1.72723e-07
1.10455e-06
-6.18696e-07
1.76276e-06
8.47302e-08
3.69255e-08
1.23882e-07
4.75501e-08
2.0407e-07
-7.46714e-06
1.03122e-08
)
;
    }
    procBoundary7to6
    {
        type            processor;
        value           nonuniform List<scalar> 
12
(
-6.20579e-06
-6.80632e-06
-9.47928e-06
-4.78196e-06
-5.33683e-06
-7.99299e-06
-5.75158e-06
-6.66478e-06
-9.27733e-06
-7.60639e-06
-8.76359e-06
-1.05512e-05
)
;
    }
}


// ************************************************************************* //
