/*--------------------------------*- C++ -*----------------------------------*\
| =========                 |                                                 |
| \\      /  F ield         | OpenFOAM: The Open Source CFD Toolbox           |
|  \\    /   O peration     | Version:  4.x                                   |
|   \\  /    A nd           | Web:      www.OpenFOAM.org                      |
|    \\/     M anipulation  |                                                 |
\*---------------------------------------------------------------------------*/
FoamFile
{
    version     2.0;
    format      ascii;
    class       volScalarField;
    location    "20.5";
    object      SPartFluid;
}
// * * * * * * * * * * * * * * * * * * * * * * * * * * * * * * * * * * * * * //

dimensions      [1 -3 -1 0 0 0 0];

internalField   nonuniform List<scalar> 
132
(
9.91938e-65
7.827e-65
6.43208e-65
6.74207e-65
1.03069e-64
1.03844e-64
7.98205e-65
5.65719e-65
8.36955e-65
7.67204e-65
9.45442e-65
7.28454e-65
6.89707e-65
8.29201e-65
5.65718e-65
7.5171e-65
6.35469e-65
8.0596e-65
4.80476e-65
7.43962e-65
6.12219e-65
7.12963e-65
7.43962e-65
8.05962e-65
7.51717e-65
7.2072e-65
8.60214e-65
6.50976e-65
6.58726e-65
8.67965e-65
5.50228e-65
7.28472e-65
6.74227e-65
7.90474e-65
5.88984e-65
4.33988e-65
6.43209e-65
7.36205e-65
6.7421e-65
6.89711e-65
8.60203e-65
8.44706e-65
7.36212e-65
3.95226e-65
8.5245e-65
7.43956e-65
7.51706e-65
8.13705e-65
7.05213e-65
5.7347e-65
7.67213e-65
5.73472e-65
5.50225e-65
8.21461e-65
6.97465e-65
6.0447e-65
7.36215e-65
8.60213e-65
8.91212e-65
7.05223e-65
7.98219e-65
6.74226e-65
7.90471e-65
5.96726e-65
7.20724e-65
7.36222e-65
6.1998e-65
6.58728e-65
7.98227e-65
5.34734e-65
5.03721e-65
5.8122e-65
7.36215e-65
6.04472e-65
5.81223e-65
8.05964e-65
7.36213e-65
6.81966e-65
5.19224e-65
8.52458e-65
7.05217e-65
7.12969e-65
8.75713e-65
7.51717e-65
7.05224e-65
7.36222e-65
7.51718e-65
6.97471e-65
7.98216e-65
7.59473e-65
7.67223e-65
7.05228e-65
7.74975e-65
5.57987e-65
6.35482e-65
7.05228e-65
6.89729e-65
6.12231e-65
5.26987e-65
7.59481e-65
7.05236e-65
5.81237e-65
5.50229e-65
6.43227e-65
6.1223e-65
6.89724e-65
5.81229e-65
7.67219e-65
7.43971e-65
5.1923e-65
3.87487e-65
6.89725e-65
6.66478e-65
5.42482e-65
5.96734e-65
6.04484e-65
6.04482e-65
6.19982e-65
6.89728e-65
6.35483e-65
7.20729e-65
6.43236e-65
7.28483e-65
6.0449e-65
7.43987e-65
5.65739e-65
5.81239e-65
6.58736e-65
6.50989e-65
6.50987e-65
6.35491e-65
4.10747e-65
)
;

boundaryField
{
    inlet
    {
        type            calculated;
        value           nonuniform 0();
    }
    outlet
    {
        type            calculated;
        value           uniform 0;
    }
    wall
    {
        type            calculated;
        value           uniform 0;
    }
    procBoundary7to0
    {
        type            processor;
        value           uniform 2.32485e-65;
    }
    procBoundary7to1
    {
        type            processor;
        value           uniform 5.73467e-65;
    }
    procBoundary7to3
    {
        type            processor;
        value           nonuniform List<scalar> 
36
(
7.67205e-65
9.06696e-65
8.75697e-65
8.52451e-65
6.12215e-65
6.27716e-65
8.52455e-65
7.12964e-65
7.43963e-65
9.06701e-65
5.03721e-65
7.74955e-65
4.33975e-65
4.64974e-65
7.9046e-65
7.28464e-65
8.83459e-65
6.12221e-65
5.11478e-65
8.13714e-65
8.2146e-65
5.81221e-65
6.81967e-65
7.98215e-65
6.66474e-65
7.20722e-65
5.4248e-65
8.52471e-65
4.02987e-65
5.42482e-65
6.1223e-65
5.57981e-65
7.12979e-65
6.19982e-65
7.90479e-65
8.52474e-65
)
;
    }
    procBoundary7to5
    {
        type            processor;
        value           nonuniform List<scalar> 
44
(
8.44699e-65
6.04463e-65
7.51705e-65
5.73466e-65
4.57225e-65
7.28461e-65
5.42473e-65
8.67955e-65
9.99692e-65
4.33973e-65
7.28458e-65
7.59457e-65
6.19966e-65
7.05214e-65
7.12964e-65
6.89717e-65
5.57973e-65
9.99692e-65
4.33973e-65
4.33973e-65
8.98954e-65
7.98209e-65
1.00745e-64
7.36217e-65
8.21464e-65
8.91212e-65
8.67963e-65
4.80476e-65
9.37703e-65
8.98954e-65
7.98209e-65
7.98209e-65
9.68708e-65
7.7497e-65
6.50977e-65
6.74228e-65
6.81978e-65
7.36222e-65
5.65728e-65
7.1297e-65
5.57978e-65
9.68708e-65
7.7497e-65
7.7497e-65
)
;
    }
    procBoundary7to6
    {
        type            processor;
        value           nonuniform List<scalar> 
12
(
6.74214e-65
7.12968e-65
4.95984e-65
8.52457e-65
7.59469e-65
7.51727e-65
7.90466e-65
7.74972e-65
5.65738e-65
3.7974e-65
7.82731e-65
6.04492e-65
)
;
    }
}


// ************************************************************************* //
