/*--------------------------------*- C++ -*----------------------------------*\
| =========                 |                                                 |
| \\      /  F ield         | OpenFOAM: The Open Source CFD Toolbox           |
|  \\    /   O peration     | Version:  4.x                                   |
|   \\  /    A nd           | Web:      www.OpenFOAM.org                      |
|    \\/     M anipulation  |                                                 |
\*---------------------------------------------------------------------------*/
FoamFile
{
    version     2.0;
    format      ascii;
    class       volVectorField;
    location    "51.5";
    object      ddtUrel;
}
// * * * * * * * * * * * * * * * * * * * * * * * * * * * * * * * * * * * * * //

dimensions      [0 1 -2 0 0 0 0];

internalField   nonuniform List<vector> 
87
(
(-6.47942e-08 -1.69411e-10 1.29365e-09)
(-1.77551e-07 -2.79829e-10 3.64327e-09)
(-6.32865e-08 -2.27849e-10 1.3619e-09)
(-2.45009e-08 -2.16449e-10 5.98316e-10)
(-9.73214e-09 -2.33303e-10 4.21188e-10)
(-2.8549e-09 -1.93461e-10 5.50679e-10)
(1.60862e-09 2.55699e-11 1.1137e-09)
(8.08421e-09 9.18355e-10 3.00682e-09)
(1.3771e-08 6.19932e-10 3.31139e-09)
(-3.27276e-08 -7.71405e-11 6.24683e-10)
(-5.56237e-08 -1.07672e-10 1.11636e-09)
(-3.19912e-08 -1.5594e-10 7.03916e-10)
(-1.57898e-08 -2.20366e-10 4.03663e-10)
(-7.18337e-09 -2.83153e-10 3.09301e-10)
(-2.3777e-09 -3.22964e-10 3.87624e-10)
(6.91566e-10 -3.17762e-10 6.41993e-10)
(3.72966e-09 -1.54119e-10 1.18509e-09)
(5.423e-09 -3.69893e-10 1.16829e-09)
(-1.51064e-08 -6.60365e-11 2.57461e-10)
(-2.04355e-08 -9.22118e-11 3.90779e-10)
(-1.47444e-08 -1.44048e-10 3.22937e-10)
(-8.69713e-09 -2.52967e-10 2.14259e-10)
(-4.39678e-09 -3.77433e-10 1.63717e-10)
(-1.57868e-09 -4.82339e-10 1.79046e-10)
(3.59354e-10 -5.99035e-10 2.5083e-10)
(2.15415e-09 -6.82488e-10 4.40984e-10)
(2.94983e-09 -7.73783e-10 4.15365e-10)
(-3.13488e-08 -1.09989e-10 6.19371e-10)
(-5.3049e-08 -1.68644e-10 1.09884e-09)
(-3.07756e-08 -2.08671e-10 6.79425e-10)
(-1.52533e-08 -2.60467e-10 3.99618e-10)
(-7.03662e-09 -3.28128e-10 3.0956e-10)
(-2.52056e-09 -3.7929e-10 3.92784e-10)
(4.38986e-10 -3.57046e-10 6.62098e-10)
(3.21025e-09 -2.00363e-10 1.20402e-09)
(5.12824e-09 -2.37652e-10 1.37645e-09)
(-1.91646e-08 -9.02166e-11 3.4882e-10)
(-2.68632e-08 -1.43978e-10 5.30832e-10)
(-1.88322e-08 -2.05101e-10 4.09651e-10)
(-1.07742e-08 -2.89293e-10 2.82769e-10)
(-5.42215e-09 -3.94361e-10 2.31356e-10)
(-2.09163e-09 -5.01334e-10 2.87831e-10)
(1.49723e-10 -5.90295e-10 4.38425e-10)
(1.96515e-09 -6.01986e-10 6.95258e-10)
(3.16878e-09 -6.33073e-10 8.05356e-10)
(-1.01978e-08 -8.96081e-11 1.46835e-10)
(-1.26209e-08 -1.36977e-10 2.19642e-10)
(-9.97721e-09 -2.24947e-10 2.0138e-10)
(-6.37567e-09 -3.58166e-10 1.47692e-10)
(-3.44845e-09 -5.25904e-10 1.09455e-10)
(-1.34871e-09 -7.03227e-10 1.19172e-10)
(1.87146e-10 -9.0438e-10 1.63816e-10)
(1.38911e-09 -1.0845e-09 2.66466e-10)
(2.1262e-09 -1.20211e-09 2.6961e-10)
(-1.41164e-08 -1.13833e-10 2.43121e-10)
(-1.89626e-08 -1.78094e-10 3.71563e-10)
(-1.38618e-08 -2.51967e-10 2.96874e-10)
(-8.22474e-09 -3.53403e-10 2.12326e-10)
(-4.30089e-09 -4.81804e-10 1.78764e-10)
(-1.74457e-09 -6.2483e-10 2.23871e-10)
(2.60911e-12 -7.54445e-10 3.25048e-10)
(1.34901e-09 -8.33909e-10 4.8098e-10)
(2.1794e-09 -9.0256e-10 5.70612e-10)
(-9.93291e-09 -1.16871e-10 1.45166e-10)
(-1.22939e-08 -1.90644e-10 2.20281e-10)
(-9.72953e-09 -2.84425e-10 1.91179e-10)
(-6.25573e-09 -4.13913e-10 1.51325e-10)
(-3.42998e-09 -5.9089e-10 1.27063e-10)
(-1.41292e-09 -7.99862e-10 1.57462e-10)
(3.28004e-11 -1.02044e-09 2.13125e-10)
(1.09572e-09 -1.1942e-09 2.95653e-10)
(1.75608e-09 -1.30847e-09 3.29427e-10)
(-6.01954e-09 -1.32698e-10 5.24231e-11)
(-6.96078e-09 -2.19134e-10 9.26973e-11)
(-5.85661e-09 -3.52011e-10 8.5699e-11)
(-3.99269e-09 -5.43796e-10 6.09524e-11)
(-2.23894e-09 -8.15562e-10 2.82619e-11)
(-8.28995e-10 -1.14562e-09 1.92413e-11)
(2.86104e-10 -1.54153e-09 9.97409e-12)
(1.12409e-09 -1.89285e-09 1.29461e-11)
(1.64504e-09 -2.12157e-09 -6.13581e-12)
(-6.4413e-09 -1.34847e-10 6.93551e-11)
(-7.69459e-09 -2.19164e-10 1.13706e-10)
(-6.2912e-09 -3.28431e-10 9.58244e-11)
(-4.97242e-09 -1.49583e-10 3.30338e-11)
(-5.70036e-09 -2.48295e-10 6.1085e-11)
(-3.34561e-09 -1.7844e-10 -6.21265e-12)
)
;

boundaryField
{
    inlet
    {
        type            calculated;
        value           nonuniform 0();
    }
    outlet
    {
        type            calculated;
        value           nonuniform List<vector> 9((7.83415e-10 -1.64759e-09 -5.88058e-09) (2.16093e-09 -1.42888e-09 -1.33234e-09) (5.71302e-10 8.21981e-11 1.13638e-10) (-7.22662e-11 2.58416e-10 2.35514e-10) (-3.94421e-10 3.86331e-10 6.61409e-10) (1.30028e-10 1.90255e-10 6.78194e-10) (-6.5282e-11 -4.57436e-11 4.09355e-10) (1.38584e-10 6.46265e-11 2.84013e-10) (6.43463e-11 1.58003e-10 3.29334e-10));
    }
    wall
    {
        type            calculated;
        value           nonuniform List<vector> 
57
(
(-5.67714e-08 -1.26613e-09 1.56215e-09)
(-2.02087e-08 5.53585e-10 6.23149e-10)
(-7.03028e-09 1.0012e-10 2.40653e-10)
(-1.83391e-06 -3.62373e-09 3.86063e-08)
(-6.25444e-08 1.11865e-09 1.32899e-09)
(-1.98797e-08 1.9244e-10 4.96217e-10)
(-3.3764e-08 -8.96174e-10 1.67994e-09)
(-1.41866e-08 5.86244e-10 8.99283e-10)
(-6.44918e-09 2.47612e-10 5.17528e-10)
(-4.65099e-09 -9.42213e-12 -2.75655e-11)
(-2.92506e-09 1.03113e-10 1.23983e-10)
(-3.33854e-09 2.51475e-10 1.34781e-10)
(-4.00317e-10 2.94907e-11 1.31227e-10)
(-1.16368e-09 1.49679e-10 1.07358e-10)
(-4.20886e-10 1.74181e-10 1.40322e-10)
(3.95034e-09 2.2161e-10 1.19771e-10)
(3.57781e-09 1.76984e-10 2.66533e-10)
(6.64418e-10 4.42709e-10 2.14771e-10)
(3.25181e-09 9.4903e-11 -7.61066e-10)
(3.13701e-09 -5.98966e-10 -3.89234e-10)
(3.59233e-10 2.28511e-10 -1.8216e-10)
(6.90098e-08 1.21053e-08 2.01771e-08)
(1.31142e-08 1.07011e-09 1.56907e-09)
(1.1133e-08 3.85886e-10 1.88105e-09)
(9.45618e-08 2.21559e-09 8.44573e-09)
(3.52494e-09 -5.27196e-09 -5.26747e-09)
(2.95818e-09 1.09368e-10 4.77208e-10)
(-3.48504e-08 -8.94004e-10 7.17277e-10)
(-2.69085e-09 -3.50446e-11 1.96854e-10)
(1.67926e-11 2.75541e-11 -9.75832e-12)
(-2.54336e-10 3.01009e-11 -1.08255e-10)
(-3.2739e-06 -3.83497e-08 6.64728e-08)
(-2.78756e-09 6.84211e-13 2.15382e-10)
(-3.88665e-09 -5.43587e-11 1.53867e-10)
(-1.9065e-09 -4.13541e-11 -2.70528e-11)
(-1.53269e-08 -4.51335e-10 6.15204e-10)
(9.34178e-10 -5.43465e-11 1.66071e-10)
(-6.31096e-10 -3.69761e-11 2.20616e-10)
(-3.47104e-10 4.45434e-11 -8.17605e-11)
(-7.23378e-10 4.89892e-11 -1.14028e-10)
(3.06166e-09 5.99115e-11 1.02985e-10)
(8.49547e-10 5.35457e-11 6.79387e-11)
(-4.80967e-10 1.48617e-11 1.37444e-10)
(-2.31761e-10 1.33662e-11 5.24583e-11)
(-4.38239e-11 3.93947e-11 3.68264e-11)
(4.06643e-09 2.25564e-10 1.22105e-10)
(-7.75493e-11 -4.86317e-11 1.46865e-10)
(4.71577e-11 1.95636e-11 1.90437e-10)
(2.85008e-09 2.13209e-10 -6.74044e-10)
(-1.23038e-10 -4.12155e-12 7.87342e-11)
(-2.32689e-10 -4.06574e-11 1.82836e-10)
(3.20971e-08 1.14789e-08 1.90081e-08)
(2.21026e-09 9.08164e-11 7.88117e-10)
(-3.87571e-11 -3.96532e-11 1.68767e-10)
(8.75842e-08 5.34977e-09 1.41473e-08)
(4.78025e-10 6.19214e-10 -2.49372e-10)
(6.29567e-11 -6.49875e-12 3.37936e-10)
)
;
    }
    procBoundary1to0
    {
        type            processor;
        value           nonuniform List<vector> 
12
(
(-2.54352e-08 -8.44412e-11 4.53878e-10)
(-1.67332e-08 -5.47309e-11 2.67032e-10)
(-9.34239e-09 -5.31657e-11 1.09231e-10)
(-1.58673e-08 -7.42692e-11 2.56819e-10)
(-1.12612e-08 -6.65876e-11 1.50887e-10)
(-6.78552e-09 -6.45795e-11 4.93537e-11)
(-8.59853e-09 -7.62555e-11 9.76631e-11)
(-6.58268e-09 -8.05855e-11 4.83636e-11)
(-4.31548e-09 -8.54677e-11 -1.37228e-12)
(-4.47739e-09 -8.38655e-11 8.85488e-12)
(-3.63559e-09 -9.18784e-11 -1.04972e-11)
(-2.57171e-09 -1.05131e-10 -3.09381e-11)
)
;
    }
    procBoundary1to3
    {
        type            processor;
        value           nonuniform List<vector> 
27
(
(-7.00097e-09 -8.2889e-11 7.2258e-11)
(-8.37191e-09 -1.19065e-10 1.194e-10)
(-6.77097e-09 -1.49182e-10 1.10907e-10)
(-4.39754e-09 -3.29387e-10 6.22724e-11)
(-2.28979e-09 -5.27248e-10 1.07042e-11)
(-6.01712e-10 -7.07321e-10 -3.67684e-11)
(6.03512e-10 -8.97169e-10 -1.03777e-10)
(1.67054e-09 -1.07543e-09 -1.98199e-10)
(2.27104e-09 -1.23387e-09 -3.91422e-10)
(-5.19851e-09 -1.10415e-10 2.9472e-11)
(-5.95457e-09 -1.7732e-10 5.80439e-11)
(-5.0098e-09 -2.88467e-10 5.17384e-11)
(-3.40311e-09 -4.81686e-10 1.95115e-11)
(-1.82749e-09 -7.36581e-10 -3.27827e-11)
(-4.8347e-10 -1.02889e-09 -8.82145e-11)
(5.89552e-10 -1.35885e-09 -1.59863e-10)
(1.48321e-09 -1.66139e-09 -2.1108e-10)
(2.09824e-09 -1.87196e-09 -3.33069e-10)
(-3.4044e-09 -1.55648e-10 -1.19142e-11)
(-3.74701e-09 -2.67386e-10 2.71395e-12)
(-3.22342e-09 -4.53258e-10 -8.59727e-12)
(-2.23788e-09 -7.39721e-10 -4.06862e-11)
(-1.15016e-09 -1.15547e-09 -1.0358e-10)
(-1.2773e-10 -1.69317e-09 -1.87641e-10)
(7.79884e-10 -2.35416e-09 -2.86597e-10)
(1.52279e-09 -2.98598e-09 -3.81425e-10)
(2.04577e-09 -3.40924e-09 -4.63979e-10)
)
;
    }
    procBoundary1to5
    {
        type            processor;
        value           nonuniform List<vector> 
32
(
(-4.18134e-09 -4.75785e-10 7.34174e-11)
(-2.3723e-09 -6.78175e-10 6.08024e-11)
(-9.87803e-10 -9.18935e-10 7.27302e-11)
(3.22993e-11 -1.17139e-09 9.22092e-11)
(7.81791e-10 -1.38344e-09 1.18229e-10)
(1.24451e-09 -1.51652e-09 1.45473e-10)
(-4.81806e-09 -3.83178e-10 4.77249e-11)
(-3.34747e-09 -5.77193e-10 3.81772e-11)
(-1.91339e-09 -8.50114e-10 1.84265e-11)
(-7.38657e-10 -1.19263e-09 1.39528e-11)
(1.83817e-10 -1.57714e-09 7.04772e-12)
(8.61128e-10 -1.92254e-09 -3.50164e-12)
(1.27734e-09 -2.13872e-09 2.28213e-13)
(-3.6925e-09 -2.95821e-10 9.12174e-12)
(-3.19384e-09 -4.90847e-10 -3.27082e-12)
(-2.24825e-09 -7.83923e-10 -2.66427e-11)
(-1.21288e-09 -1.21093e-09 -7.05379e-11)
(-2.57183e-10 -1.779e-09 -1.22264e-10)
(5.76439e-10 -2.46016e-09 -1.90427e-10)
(1.22869e-09 -3.12117e-09 -2.64252e-10)
(1.64155e-09 -3.55517e-09 -3.17927e-10)
(-3.08055e-09 -1.61502e-10 8.90776e-12)
(-3.4401e-09 -2.61853e-10 2.11061e-11)
(-4.18134e-09 -4.75785e-10 7.34174e-11)
(-4.81806e-09 -3.83178e-10 4.77249e-11)
(-2.96168e-09 -4.0872e-10 1.06451e-11)
(-2.53697e-09 -1.81369e-10 -7.22098e-12)
(-4.81806e-09 -3.83178e-10 4.77249e-11)
(-3.6925e-09 -2.95821e-10 9.12174e-12)
(-2.76143e-09 -3.0094e-10 2.21092e-15)
(-3.6925e-09 -2.95821e-10 9.12174e-12)
(-1.84707e-09 -2.20447e-10 -3.12776e-11)
)
;
    }
    procBoundary1to7
    {
        type            processor;
        value           uniform (-2.07455e-09 -2.20336e-10 -4.06491e-11);
    }
}


// ************************************************************************* //
