/*--------------------------------*- C++ -*----------------------------------*\
| =========                 |                                                 |
| \\      /  F ield         | OpenFOAM: The Open Source CFD Toolbox           |
|  \\    /   O peration     | Version:  4.x                                   |
|   \\  /    A nd           | Web:      www.OpenFOAM.org                      |
|    \\/     M anipulation  |                                                 |
\*---------------------------------------------------------------------------*/
FoamFile
{
    version     2.0;
    format      ascii;
    class       volScalarField;
    location    "51.5";
    object      Ksl;
}
// * * * * * * * * * * * * * * * * * * * * * * * * * * * * * * * * * * * * * //

dimensions      [1 -3 -1 0 0 0 0];

internalField   nonuniform List<scalar> 
87
(
3831.66
2567.3
3769.25
2404.61
3778.21
2118.65
4128.21
1686.47
5921.22
4463.4
2694.81
4406.11
2552.47
4519.64
2296.36
5073.39
1937.52
5872.06
5377.13
2965.58
5493.04
2868.11
5765.75
2646.32
6131.3
2201.4
6306.51
6052.73
3042.01
6124.73
2973.41
6498.33
2825.84
7870.8
2680.55
12021.7
11495.8
3399.46
12966.2
3287.52
15706.6
3048.69
16680.3
2796.98
10011.8
42820
3731.98
319958
3735.27
9.79001e+09
3858.94
47622.6
4113.27
7085.41
6367.83
3028.35
6692.85
2932.57
7369.06
2742.24
8687.55
2568.35
9090.75
12130.9
3350.87
12111.8
3195.7
12103
2981.61
11086.9
2700.31
7680.41
54100.4
3756.82
72661.7
3718.59
51031.4
3656.78
21502.9
3709.36
8034.24
8869.78
3363.84
12983.4
57957.5
3724.95
1e+10
)
;

boundaryField
{
    inlet
    {
        type            zeroGradient;
    }
    outlet
    {
        type            zeroGradient;
    }
    wall
    {
        type            zeroGradient;
    }
    procBoundary1to0
    {
        type            processor;
        value           nonuniform List<scalar> 
12
(
2617.75
2818.21
3038.92
3117.76
3487.1
3714.49
3121.28
3483.98
3763.63
3326.48
3732.39
4103.84
)
;
    }
    procBoundary1to3
    {
        type            processor;
        value           nonuniform List<scalar> 
27
(
4876.43
2747.22
4723.15
2576.09
4835.72
2373.29
5583.5
2082.87
6453.86
16104.4
3438.05
18782.6
3279.59
21162.2
3064.14
20313.1
2775.46
8416.23
27528.7
3632.83
32879.6
3567.16
28482.6
3547.17
20231
3701.28
7950.94
)
;
    }
    procBoundary1to5
    {
        type            processor;
        value           nonuniform List<scalar> 
32
(
3620.33
37847.8
4123.02
1e+10
5619.51
57611.3
302137
3709.52
184090
3774.39
57049.7
4126.22
11897.3
4172.86
1e+10
4215.86
1e+10
4301.32
1e+10
4820.37
15040.7
7170.09
3074.82
3620.33
302137
7369.75
30930.6
302137
4172.86
3548.23
4172.86
1e+10
)
;
    }
    procBoundary1to7
    {
        type            processor;
        value           uniform 62441.2;
    }
}


// ************************************************************************* //
