/*--------------------------------*- C++ -*----------------------------------*\
| =========                 |                                                 |
| \\      /  F ield         | OpenFOAM: The Open Source CFD Toolbox           |
|  \\    /   O peration     | Version:  4.x                                   |
|   \\  /    A nd           | Web:      www.OpenFOAM.org                      |
|    \\/     M anipulation  |                                                 |
\*---------------------------------------------------------------------------*/
FoamFile
{
    version     2.0;
    format      ascii;
    class       volVectorField;
    location    "51.5";
    object      Us;
}
// * * * * * * * * * * * * * * * * * * * * * * * * * * * * * * * * * * * * * //

dimensions      [0 1 -1 0 0 0 0];

internalField   nonuniform List<vector> 
87
(
(9.33704e-09 7.02438e-09 2.51273e-08)
(-4.27497e-08 1.03419e-06 1.01409e-07)
(-1.1983e-08 1.22082e-09 1.63074e-08)
(-6.69125e-09 -5.47721e-10 1.71364e-09)
(-2.71315e-09 2.71171e-10 1.93302e-10)
(-3.97043e-10 -6.8578e-10 -6.11008e-10)
(2.14883e-09 -1.27307e-09 -1.38668e-09)
(1.62291e-07 2.66607e-09 -1.02356e-08)
(8.37152e-08 -6.19123e-09 -1.60284e-08)
(2.96526e-09 -4.86641e-09 1.11089e-08)
(1.28149e-09 -8.21514e-09 2.13315e-08)
(-1.28696e-08 -6.90266e-09 7.79393e-09)
(-3.01891e-09 -1.9829e-09 8.9567e-10)
(-4.53927e-11 -3.11061e-09 2.0317e-10)
(4.97701e-10 -1.29809e-10 -9.8553e-10)
(8.88497e-10 -1.10254e-09 -2.14667e-09)
(-2.57881e-10 -3.67729e-09 -2.98443e-09)
(-2.38083e-09 -1.08762e-08 -6.78807e-09)
(3.30063e-09 -6.05216e-09 4.54502e-09)
(1.38131e-09 -9.17115e-09 7.40829e-09)
(1.25137e-09 -5.13781e-09 4.319e-09)
(-1.30522e-10 -1.30783e-09 1.26336e-09)
(1.94719e-10 -1.11653e-09 1.16663e-10)
(9.85115e-10 -2.06359e-10 -3.03656e-10)
(1.71097e-09 -2.34491e-10 -7.20196e-10)
(1.5506e-09 -2.0784e-09 -2.50754e-09)
(3.03488e-09 2.55917e-11 -5.66093e-10)
(-5.94873e-09 4.84158e-09 1.71155e-08)
(2.63608e-10 3.04291e-09 3.95532e-08)
(2.34345e-09 1.71785e-09 1.46349e-08)
(1.84541e-09 -1.10618e-09 1.04084e-09)
(2.26864e-10 1.79897e-10 5.77795e-10)
(1.88677e-10 -9.91169e-11 -3.62579e-10)
(9.13121e-10 -3.47345e-10 -1.03548e-09)
(8.25016e-10 -1.11192e-09 -2.55072e-09)
(4.34454e-11 -2.3618e-09 -5.10011e-09)
(-3.53263e-09 9.30254e-10 1.1902e-08)
(-1.65641e-09 -2.84371e-09 1.95544e-08)
(2.67136e-09 1.54687e-09 1.01058e-08)
(5.50805e-11 -1.69745e-09 1.53875e-09)
(7.37317e-11 -8.20412e-10 5.6731e-11)
(3.84419e-10 -2.92517e-10 -7.71613e-10)
(1.04194e-09 -7.07996e-10 -1.65409e-09)
(1.29958e-09 -1.13249e-09 -2.16363e-09)
(3.36975e-09 -2.71657e-09 -4.54647e-09)
(1.11699e-09 -1.09753e-09 3.78776e-09)
(1.77773e-09 -1.41016e-09 6.65085e-09)
(1.79089e-09 -1.00897e-09 3.61737e-09)
(3.60997e-10 -1.51033e-09 1.5698e-09)
(7.02151e-10 -1.15512e-09 -1.0473e-10)
(1.04657e-09 -5.16437e-10 -5.74495e-10)
(1.90537e-09 -2.1287e-10 -1.40134e-09)
(2.38139e-09 -4.74016e-10 -7.42801e-10)
(9.47854e-10 -1.42669e-09 -1.94259e-09)
(-1.34888e-09 2.31551e-10 3.30374e-09)
(-1.04272e-10 1.66702e-09 4.94232e-09)
(-8.23815e-12 1.45539e-09 6.65038e-09)
(1.45487e-09 -2.49501e-10 1.22752e-09)
(8.21349e-10 -1.86995e-11 5.04863e-10)
(3.36848e-10 -8.21636e-11 -2.69018e-10)
(2.36147e-10 2.02225e-11 -4.24263e-10)
(-4.35094e-10 -1.05636e-10 -6.95117e-10)
(1.5542e-10 -2.81227e-10 -1.91724e-09)
(-1.39583e-09 1.10762e-09 4.7595e-09)
(1.29741e-09 6.89171e-10 6.38393e-09)
(1.87286e-09 6.69875e-10 7.53959e-09)
(9.0121e-10 -4.98865e-10 2.17232e-09)
(9.78678e-10 -1.5154e-10 3.77141e-10)
(6.33927e-10 2.11354e-10 -4.24112e-10)
(6.59365e-10 1.68296e-12 -9.08646e-10)
(5.87549e-10 -3.83101e-10 -1.30242e-09)
(8.36199e-11 -4.59914e-10 -6.22358e-10)
(8.9671e-10 8.48469e-10 3.07646e-09)
(1.76079e-09 1.32941e-09 4.28612e-09)
(2.22308e-09 1.54409e-09 4.92539e-09)
(1.83489e-09 2.61219e-10 1.82571e-09)
(1.42125e-09 -1.4258e-10 2.29557e-10)
(1.33691e-09 -9.90891e-12 -4.37002e-10)
(1.22717e-09 -2.73587e-11 -8.59385e-10)
(1.05602e-09 4.93523e-11 -7.27243e-10)
(6.94001e-10 -6.55113e-10 -2.31959e-10)
(-2.74385e-10 2.90151e-10 2.01612e-09)
(5.9217e-10 8.45937e-10 6.94891e-10)
(6.74045e-10 6.02816e-10 1.62698e-09)
(-4.0538e-10 7.34583e-10 2.20003e-09)
(1.0185e-09 1.15077e-09 3.69599e-09)
(5.98251e-10 6.87191e-10 1.80064e-09)
)
;

boundaryField
{
    inlet
    {
        type            zeroGradient;
    }
    outlet
    {
        type            zeroGradient;
    }
    wall
    {
        type            zeroGradient;
    }
    procBoundary1to0
    {
        type            processor;
        value           nonuniform List<vector> 
12
(
(-3.93576e-10 1.35487e-10 3.18567e-10)
(2.5539e-09 -2.08756e-09 3.61528e-09)
(1.90594e-09 -1.73927e-09 1.97859e-09)
(-1.87325e-09 -1.27892e-09 3.03794e-09)
(-9.21375e-10 6.02629e-10 4.4209e-09)
(8.99744e-10 -6.20351e-11 2.59594e-09)
(-1.83095e-09 -5.79013e-10 3.93836e-09)
(-2.36987e-09 2.05647e-09 4.43258e-09)
(-7.37926e-10 2.11922e-09 2.91558e-09)
(-4.87199e-10 -1.66894e-10 2.658e-09)
(-8.21459e-10 6.89489e-10 1.72753e-09)
(-1.968e-10 1.12583e-09 1.92044e-09)
)
;
    }
    procBoundary1to3
    {
        type            processor;
        value           nonuniform List<vector> 
27
(
(1.98816e-09 -3.16613e-09 1.41399e-09)
(2.51278e-09 -4.89167e-09 1.91325e-09)
(2.59585e-09 -5.43182e-09 6.60398e-10)
(1.46034e-09 -1.80467e-09 2.43973e-10)
(8.48135e-10 -9.224e-10 -2.97576e-10)
(1.41293e-09 -3.15099e-10 -4.77725e-10)
(1.00233e-09 -2.36897e-10 4.26761e-11)
(-3.74816e-09 -2.47886e-10 6.94381e-10)
(-3.96361e-09 -4.53273e-10 9.17929e-10)
(1.90259e-09 -1.89967e-09 1.20482e-09)
(1.95177e-09 -8.60013e-10 1.31948e-09)
(1.64794e-09 -1.23167e-09 1.05322e-09)
(1.5703e-09 -7.10452e-10 3.97157e-10)
(1.60622e-09 -6.32181e-10 -2.89465e-10)
(1.52798e-09 -3.80024e-10 -7.22234e-10)
(1.33351e-09 -8.8335e-11 -9.52097e-10)
(5.74638e-10 3.01247e-10 4.41459e-10)
(2.36657e-10 -4.71258e-10 5.45694e-10)
(1.64697e-09 -8.10031e-11 1.10261e-09)
(1.80464e-09 1.52377e-10 1.52045e-09)
(1.68738e-09 1.09537e-09 2.11372e-09)
(1.90534e-09 -2.55247e-10 6.86215e-10)
(1.81762e-09 -3.96867e-10 -7.5141e-11)
(1.65221e-09 -1.81967e-11 -7.99576e-10)
(1.35874e-09 -3.93825e-11 -1.00129e-09)
(9.6377e-10 5.43279e-11 -5.376e-10)
(7.3398e-10 -7.00855e-11 -1.49045e-10)
)
;
    }
    procBoundary1to5
    {
        type            processor;
        value           nonuniform List<vector> 
32
(
(1.19344e-09 -1.40841e-10 1.21493e-09)
(7.955e-10 -1.2535e-10 3.03302e-10)
(7.36958e-10 -9.30632e-11 -1.33182e-10)
(3.22129e-10 3.34362e-12 -3.39554e-10)
(3.88726e-10 -7.93428e-11 -4.24986e-10)
(6.81198e-10 9.77774e-12 -6.37668e-10)
(2.39584e-09 9.78156e-10 4.51067e-09)
(2.07656e-09 1.2093e-10 1.90796e-09)
(1.56888e-09 -7.52937e-11 4.51884e-10)
(1.08135e-09 6.22426e-11 -1.77683e-10)
(7.44935e-10 2.11352e-10 -6.44826e-10)
(4.55584e-10 1.57344e-10 -7.55803e-10)
(2.34306e-10 1.51741e-10 -5.75851e-10)
(1.59189e-09 7.08493e-10 2.73129e-09)
(2.21342e-09 1.05619e-09 2.4937e-09)
(2.43113e-09 5.94055e-10 1.29926e-09)
(1.85159e-09 2.91264e-10 4.39398e-10)
(1.41528e-09 1.87362e-10 -1.25977e-10)
(9.44375e-10 2.96058e-10 -4.6596e-10)
(6.70637e-10 1.75996e-10 -7.22348e-10)
(2.606e-10 1.67828e-11 -2.44721e-10)
(-3.40491e-11 2.99867e-10 4.3408e-10)
(6.42363e-10 3.6226e-10 6.79689e-10)
(1.19344e-09 -1.40841e-10 1.21493e-09)
(2.39584e-09 9.78156e-10 4.51067e-09)
(8.51664e-10 5.15118e-11 9.51408e-10)
(9.6132e-10 6.20502e-10 8.48148e-10)
(2.39584e-09 9.78156e-10 4.51067e-09)
(1.59189e-09 7.08493e-10 2.73129e-09)
(2.21313e-09 8.96671e-10 9.31347e-10)
(1.59189e-09 7.08493e-10 2.73129e-09)
(9.66072e-10 6.13996e-10 1.27988e-09)
)
;
    }
    procBoundary1to7
    {
        type            processor;
        value           uniform (1.6145e-09 4.53969e-10 1.18586e-09);
    }
}


// ************************************************************************* //
