/*--------------------------------*- C++ -*----------------------------------*\
  =========                 |
  \\      /  F ield         | OpenFOAM: The Open Source CFD Toolbox
   \\    /   O peration     | Website:  https://openfoam.org
    \\  /    A nd           | Version:  4.x
     \\/     M anipulation  |
\*---------------------------------------------------------------------------*/
FoamFile
{
    version     2.0;
    format      ascii;
    class       vectorField;
    location    0;
    object      v;
}
// * * * * * * * * * * * * * * * * * * * * * * * * * * * * * * * * * * * * * //

356
(
( 4.1157e-07 -2.56164e-07 -2.49038e-07 )  
( 3.09922e-07 -2.37193e-07 -2.8572e-07 )  
( -1.10881e-06 1.25125e-08 -2.18618e-07 )  
( 4.04526e-07 -1.44963e-07 -1.71827e-07 )  
( -1.86595e-07 -8.17194e-08 -3.33904e-07 )  
( 2.98294e-07 8.80329e-09 -1.6857e-07 )  
( -7.80237e-07 -2.54138e-07 -3.62246e-07 )  
( -7.81023e-08 -2.12346e-07 -1.97918e-07 )  
( 3.53694e-07 -1.53445e-08 -1.62694e-07 )  
( 4.19972e-07 -1.33916e-07 -1.73522e-07 )  
( 1.72924e-07 -3.34537e-08 -8.36074e-08 )  
( -7.51771e-07 -1.38363e-07 -2.27285e-07 )  
( -7.33305e-07 -1.39947e-07 -3.10344e-07 )  
( -9.77821e-07 -1.04255e-07 -3.08552e-07 )  
( 2.87694e-07 -2.12097e-07 -3.08734e-07 )  
( -3.52941e-07 -2.29667e-07 -4.09096e-07 )  
( -6.77398e-07 -2.97006e-07 -3.18736e-07 )  
( -7.9255e-07 -2.90538e-07 -4.45775e-07 )  
( 1.68602e-07 -2.22757e-07 -3.41416e-07 )  
( -1.08558e-06 -9.48652e-08 -2.1763e-07 )  
( -1.22857e-06 2.69327e-08 -4.00625e-07 )  
( -8.89504e-07 -9.86394e-08 -1.95637e-07 )  
( 3.19186e-07 -1.85537e-07 -2.80562e-07 )  
( -3.95323e-08 -2.41097e-07 -2.46226e-07 )  
( -8.46083e-07 -1.26313e-07 -2.94115e-07 )  
( 3.17424e-07 -1.56647e-07 -3.13028e-07 )  
( 3.60944e-07 -1.54572e-07 -2.70062e-07 )  
( -8.1524e-07 -3.1662e-08 -3.57898e-07 )  
( 2.83795e-07 -8.69555e-08 -1.16075e-07 )  
( 2.7834e-07 -1.09517e-07 -1.59768e-07 )  
( -4.76699e-07 -5.00483e-08 -2.89616e-07 )  
( 8.57728e-08 -1.93527e-07 -2.96751e-07 )  
( -1.0283e-06 -1.37281e-08 -2.73055e-07 )  
( 2.63121e-07 -9.52093e-08 -1.2813e-07 )  
( 8.38832e-09 -2.21522e-07 -2.45112e-07 )  
( 2.50726e-07 -3.50952e-08 -8.12183e-08 )  
( -2.29659e-07 -3.7764e-07 -4.07355e-07 )  
( 2.6075e-07 -2.2379e-08 -1.18869e-07 )  
( 1.1723e-07 -1.25391e-07 -1.68395e-07 )  
( 3.04024e-07 -6.51687e-08 -1.25015e-07 )  
( 9.46487e-08 -1.08975e-07 -1.88958e-07 )  
( -1.42191e-07 -3.48605e-07 -3.6354e-07 )  
( -2.20008e-07 -3.20194e-07 -3.37383e-07 )  
( -1.20275e-06 -2.28281e-08 -4.07442e-07 )  
( -5.57482e-07 -2.97101e-07 -3.78093e-07 )  
( 2.93479e-08 -6.96934e-08 -1.07441e-07 )  
( -8.74041e-07 -1.93138e-07 -1.76551e-07 )  
( 3.03918e-07 -6.92648e-08 -8.61974e-08 )  
( -4.08428e-07 -2.02862e-07 -2.64157e-07 )  
( 1.09698e-07 -1.58779e-07 -2.02377e-07 )  
( 2.73986e-07 -2.25695e-07 -3.32449e-07 )  
( -1.90701e-08 -1.95398e-07 -1.44646e-07 )  
( -5.96269e-07 -2.38607e-07 -2.5864e-07 )  
( -2.13353e-07 -2.74022e-07 -2.12151e-07 )  
( 3.1419e-07 -2.23579e-07 -3.35385e-07 )  
( 5.77251e-08 -2.16969e-07 -2.85459e-07 )  
( 2.30358e-07 -1.77907e-07 -3.37087e-07 )  
( -3.50035e-07 -2.891e-07 -2.7719e-07 )  
( 3.25669e-07 -1.00714e-07 -1.50017e-07 )  
( 3.67258e-07 -1.86833e-07 -2.47882e-07 )  
( 3.19695e-07 -7.67218e-08 -1.30225e-07 )  
( -1.50766e-07 -2.46993e-07 -1.88086e-07 )  
( 4.10657e-07 -7.24809e-08 -1.08154e-07 )  
( 2.38948e-07 -1.52276e-07 -2.47537e-07 )  
( 4.84666e-08 -1.62846e-07 -1.91607e-07 )  
( 1.57385e-07 -5.04552e-08 -6.68238e-08 )  
( -1.22152e-06 -8.16272e-08 -2.44411e-07 )  
( -1.9655e-07 -2.62966e-07 -2.75394e-07 )  
( -2.38965e-07 -2.07318e-07 -3.07042e-07 )  
( -5.0196e-07 -9.83088e-08 -1.67001e-07 )  
( -4.95325e-07 -2.78292e-07 -3.76424e-07 )  
( -6.84946e-07 -2.89478e-07 -3.52749e-07 )  
( 1.74679e-08 -2.56012e-07 -2.609e-07 )  
( -2.07633e-07 -2.06919e-07 -3.59522e-07 )  
( 2.95033e-07 -5.94276e-08 -1.2314e-07 )  
( 3.63483e-07 -8.55032e-08 -2.59952e-07 )  
( 2.02422e-07 -1.93659e-08 -5.43967e-08 )  
( 3.43277e-07 -2.00125e-07 -3.16937e-07 )  
( -5.16749e-07 -2.36908e-07 -3.94557e-07 )  
( -3.09365e-07 -2.95793e-07 -3.26445e-07 )  
( 1.05778e-07 -5.50553e-08 -6.36881e-08 )  
( 2.93889e-07 -1.00992e-07 -1.60924e-07 )  
( 3.82898e-07 -1.6246e-07 -1.84862e-07 )  
( 2.25981e-07 -2.2058e-07 -2.57464e-07 )  
( 2.6308e-07 -3.66057e-08 -1.05541e-07 )  
( 3.78173e-07 -1.01194e-07 -2.08069e-07 )  
( 3.08955e-07 -1.34251e-07 -1.96783e-07 )  
( -6.70102e-07 -3.12872e-07 -3.9934e-07 )  
( 8.64451e-08 6.87784e-09 -5.90857e-08 )  
( 1.21349e-07 2.55672e-08 -2.83298e-08 )  
( -7.5727e-07 -1.81467e-07 -2.97588e-07 )  
( 2.79028e-08 -2.71715e-07 -3.06237e-07 )  
( -2.39105e-07 -5.47347e-08 -2.7096e-07 )  
( -5.26994e-07 -1.87173e-07 -8.32321e-08 )  
( 1.5274e-07 -1.55899e-07 -2.22647e-07 )  
( 3.50388e-07 -1.84173e-07 -2.53953e-07 )  
( 1.34084e-07 -1.24042e-08 -7.45465e-08 )  
( 2.33821e-07 -2.16835e-07 -3.71288e-07 )  
( -8.24083e-07 -4.66485e-09 -2.10025e-07 )  
( -4.78508e-07 -2.57468e-07 -2.41328e-07 )  
( -1.10488e-06 -9.23897e-08 -2.4801e-07 )  
( -9.54395e-07 -1.69852e-07 -2.86064e-07 )  
( 2.70719e-07 -2.5472e-08 -1.39267e-07 )  
( -5.83026e-07 -3.35412e-08 -1.08273e-07 )  
( -4.9581e-07 -1.01341e-07 -7.63067e-08 )  
( 1.91418e-07 -4.02879e-08 -9.85226e-08 )  
( 2.11683e-07 -2.1609e-07 -3.44269e-07 )  
( -8.1445e-07 -1.15246e-07 -2.75346e-07 )  
( 6.86121e-11 -3.32299e-07 -2.52905e-07 )  
( -2.89669e-07 -9.2267e-08 -2.17298e-07 )  
( -4.90785e-08 -9.25077e-08 -2.38793e-07 )  
( -7.07769e-08 -2.23653e-07 -1.8332e-07 )  
( -4.72426e-07 -1.55164e-07 -2.74675e-07 )  
( -6.29262e-07 -2.08417e-07 -2.45984e-07 )  
( 4.04641e-07 -1.12505e-07 -2.47298e-07 )  
( -1.0191e-06 -7.22489e-08 -1.77464e-07 )  
( 4.39526e-08 -1.9569e-07 -1.9268e-07 )  
( -6.78174e-07 -2.2182e-07 -3.15657e-07 )  
( -1.13548e-06 -7.35194e-08 -2.0454e-07 )  
( -3.91241e-07 -2.78565e-07 -2.66739e-07 )  
( 1.8652e-07 -2.41785e-08 -1.36016e-07 )  
( -2.73994e-07 5.12905e-09 -7.77965e-08 )  
( 1.27583e-08 -1.58897e-07 -7.16498e-08 )  
( -2.83596e-07 -2.4145e-07 -2.98217e-07 )  
( 3.306e-07 -1.08894e-07 -1.75908e-07 )  
( 1.22317e-07 -3.51009e-08 -8.50164e-08 )  
( -2.64443e-07 -3.33867e-07 -2.81152e-07 )  
( -6.6707e-08 -2.0814e-07 -3.81147e-07 )  
( -9.06859e-08 -2.95028e-07 -2.1879e-07 )  
( 2.19556e-07 -1.73862e-07 -4.0378e-07 )  
( -8.68473e-07 -1.60039e-07 -3.07397e-07 )  
( 1.97824e-07 -5.24709e-08 -9.10853e-08 )  
( 1.635e-07 -2.73545e-07 -3.57138e-07 )  
( 2.19325e-07 -1.62528e-08 -1.01429e-07 )  
( 8.79371e-08 -5.91535e-08 -9.28333e-08 )  
( 2.56085e-07 -1.07838e-07 -8.32374e-08 )  
( 1.81087e-07 -1.02629e-07 -7.70033e-08 )  
( 3.74267e-07 -1.73609e-07 -2.45568e-07 )  
( 1.41768e-07 1.961e-09 -7.92732e-08 )  
( 9.32744e-08 -1.45666e-07 -2.36607e-07 )  
( 1.2864e-07 -4.12218e-08 -6.95784e-08 )  
( -3.29882e-08 -2.24555e-07 -2.3231e-07 )  
( 1.86946e-07 -1.29762e-08 -3.171e-08 )  
( -8.54263e-07 -1.89148e-07 -2.21412e-07 )  
( 1.53613e-07 -5.6565e-08 -7.07011e-08 )  
( 8.87814e-08 -2.70175e-07 -1.55599e-07 )  
( 1.72515e-07 -2.02653e-07 -1.43383e-07 )  
( -5.08036e-08 -2.74982e-07 -2.09377e-07 )  
( -1.99676e-07 -1.48649e-07 -2.0062e-07 )  
( 3.64839e-07 -2.44236e-08 -1.12514e-07 )  
( 3.3918e-07 -9.86094e-08 -1.62688e-07 )  
( -1.02187e-06 -1.16074e-07 -1.78672e-07 )  
( -1.46055e-08 -1.89568e-07 -2.06861e-07 )  
( 2.37886e-07 -6.72965e-08 -1.06215e-07 )  
( -9.29489e-07 -1.67874e-07 -2.88955e-07 )  
( 9.17645e-09 -2.04166e-07 -2.55776e-07 )  
( -6.54854e-07 -2.27365e-07 -2.56139e-07 )  
( 4.92712e-07 -1.39366e-07 -1.69452e-07 )  
( 2.7839e-07 -7.52507e-08 -9.0075e-08 )  
( -4.97333e-07 -1.99393e-07 -3.69734e-07 )  
( 4.46998e-07 -1.16193e-07 -1.89313e-07 )  
( 5.5239e-09 -2.93472e-07 -2.48166e-07 )  
( 4.02332e-07 -1.3241e-07 -1.48543e-07 )  
( 1.71766e-07 -2.15552e-07 -1.12844e-07 )  
( -3.27613e-07 -1.70616e-07 -2.78147e-07 )  
( -9.02455e-07 -3.03311e-08 -1.55884e-07 )  
( 2.79842e-07 -1.45441e-07 -1.84351e-07 )  
( -6.58051e-07 -3.44674e-08 -1.64095e-07 )  
( -8.29323e-07 -1.39837e-07 -2.68579e-07 )  
( -2.50873e-07 -2.14198e-07 -1.83248e-07 )  
( -1.05915e-07 -1.40836e-07 -2.62557e-07 )  
( -8.63859e-08 -1.1567e-07 -1.15982e-07 )  
( -4.5118e-07 -1.98742e-07 -1.9535e-07 )  
( -6.78144e-07 3.13036e-08 -8.23784e-08 )  
( 1.8483e-07 -1.4767e-10 -8.27267e-08 )  
( -1.01717e-06 -8.37761e-08 -1.73915e-07 )  
( -6.12655e-07 -1.58299e-07 -3.39202e-07 )  
( 3.38762e-07 -6.24894e-08 -1.272e-07 )  
( -7.91218e-07 -1.0713e-07 -1.54426e-07 )  
( 4.02264e-07 -9.2661e-08 -1.60126e-07 )  
( -3.55771e-07 -3.88949e-08 -3.5362e-08 )  
( 2.18305e-07 -2.75893e-08 -5.48305e-08 )  
( -9.35128e-07 -1.25259e-07 -2.42303e-07 )  
( 3.01464e-07 -1.29552e-07 -1.36191e-07 )  
( -5.34244e-07 -2.67942e-07 -2.87293e-07 )  
( 2.04088e-07 -1.83614e-07 -1.37266e-07 )  
( -1.33676e-07 -2.50983e-07 -2.35484e-07 )  
( 4.34969e-07 -1.25384e-07 -1.44132e-07 )  
( -8.27144e-07 -2.85424e-08 -1.76596e-07 )  
( -2.77456e-07 -1.81752e-07 -2.88929e-07 )  
( 1.28113e-07 -2.26007e-08 -3.56734e-08 )  
( -8.81735e-07 -1.39817e-07 -2.67432e-07 )  
( 1.55365e-07 -4.51125e-08 -5.16157e-08 )  
( -7.62961e-07 -1.82267e-07 -2.7743e-07 )  
( 5.84691e-08 -3.26924e-07 -1.50375e-07 )  
( -6.41018e-07 -5.96666e-08 -1.92688e-07 )  
( -1.8975e-07 -2.97318e-07 -2.21831e-07 )  
( 1.09364e-07 -7.66156e-08 -8.7241e-08 )  
( 3.31474e-07 1.33655e-08 -1.33765e-07 )  
( -7.66208e-08 -9.23908e-08 -1.38835e-07 )  
( 8.39757e-08 -1.35841e-08 -1.11681e-07 )  
( -2.98705e-07 -1.98843e-07 -2.75668e-07 )  
( 1.09914e-07 4.2944e-08 -2.27243e-08 )  
( 9.33336e-08 4.36597e-08 -3.08971e-08 )  
( -5.54746e-07 -1.41692e-07 -1.20865e-07 )  
( -5.83553e-07 -2.48806e-07 -2.1071e-07 )  
( -1.04117e-06 -5.17251e-08 -1.97318e-07 )  
( -2.41872e-07 -3.19418e-07 -2.42732e-07 )  
( 1.06048e-07 2.04593e-09 -3.87515e-08 )  
( 1.48821e-08 -2.75646e-07 -2.17216e-07 )  
( 1.11025e-07 -1.50495e-08 -1.3153e-07 )  
( 4.48217e-07 -9.29429e-08 -1.67628e-07 )  
( 1.6737e-07 8.07595e-09 -6.47162e-08 )  
( 4.38269e-07 -2.0021e-07 -1.82954e-07 )  
( 2.48107e-07 -2.25957e-08 -6.86537e-08 )  
( 2.41343e-07 -6.18307e-08 -1.00064e-07 )  
( -9.596e-07 -1.40058e-07 -1.7578e-07 )  
( 4.22907e-07 -1.57677e-07 -1.95481e-07 )  
( -4.8509e-07 -2.02882e-07 -2.47247e-07 )  
( -7.91158e-07 -1.68503e-07 -2.9682e-07 )  
( -1.06401e-07 -2.30009e-07 -2.59829e-07 )  
( -2.57494e-08 -3.33285e-07 -1.81868e-07 )  
( 3.51316e-07 -7.77509e-08 -1.49875e-07 )  
( -1.11432e-07 -5.76018e-08 -1.04766e-07 )  
( -5.61603e-07 -1.87076e-07 -3.36712e-07 )  
( 3.40778e-07 -1.79508e-07 -2.67787e-07 )  
( 4.99409e-08 -3.25649e-07 -2.37308e-07 )  
( 3.96713e-07 -1.60461e-07 -1.77261e-07 )  
( 1.22697e-07 -2.97999e-08 -5.07282e-08 )  
( 3.8395e-07 -1.97246e-07 -2.69901e-07 )  
( 6.06704e-08 -3.10552e-07 -2.99605e-07 )  
( -2.91893e-07 -2.27928e-07 -1.67991e-07 )  
( 2.9324e-07 -1.16357e-07 -1.05998e-07 )  
( 1.057e-07 -1.63897e-07 -2.37576e-07 )  
( 3.77331e-07 -1.51607e-07 -2.01759e-07 )  
( 1.45543e-07 -2.0179e-07 -3.19347e-07 )  
( -6.41055e-07 -1.74884e-07 -3.47929e-07 )  
( 1.74977e-07 -1.85882e-08 -5.22207e-08 )  
( 3.33199e-07 -1.45464e-07 -2.28801e-07 )  
( 3.93201e-07 -1.25672e-07 -1.38656e-07 )  
( -8.31632e-07 -1.74358e-07 -2.50019e-07 )  
( 3.93538e-07 -1.27313e-07 -1.69663e-07 )  
( 2.59102e-07 -1.41258e-07 -1.38926e-07 )  
( -2.64772e-07 -1.95974e-07 -1.67144e-07 )  
( 6.01019e-08 -1.94446e-07 -2.40506e-07 )  
( -4.11159e-07 -1.81536e-07 -1.83259e-07 )  
( -5.86789e-07 -2.02115e-07 -3.45517e-07 )  
( 2.9673e-07 -7.69361e-08 -1.07446e-07 )  
( -8.49073e-08 -2.70437e-07 -2.52245e-07 )  
( 4.16793e-07 -1.79182e-07 -2.18236e-07 )  
( 1.03088e-07 -1.21452e-08 -1.19354e-08 )  
( 3.70739e-07 -5.61973e-08 -1.35951e-07 )  
( 3.62718e-07 -2.30738e-07 -2.82137e-07 )  
( 3.12974e-07 -1.27995e-07 -8.75789e-08 )  
( 1.03236e-07 -6.14013e-08 -5.04051e-08 )  
( -1.07411e-06 -6.35499e-08 -2.65422e-07 )  
( -3.58358e-07 -3.36506e-07 -3.81292e-07 )  
( -1.02936e-07 -1.39809e-07 -1.55647e-07 )  
( 3.21582e-07 -1.19594e-07 -1.21765e-07 )  
( 5.5295e-08 -1.17086e-07 -1.06545e-07 )  
( 2.1223e-07 -5.15325e-08 -8.72254e-08 )  
( 2.1007e-07 -7.01198e-08 -1.93243e-07 )  
( 4.30059e-07 -1.87103e-07 -2.25459e-07 )  
( 9.03267e-08 -1.37898e-07 -2.69292e-07 )  
( 2.98684e-07 -1.0391e-07 -1.05298e-07 )  
( 3.62972e-07 -6.12884e-08 -1.49193e-07 )  
( -1.23726e-06 -8.01782e-09 -2.64041e-07 )  
( 2.46225e-07 -1.78225e-07 -3.15762e-07 )  
( 4.44082e-08 -8.69383e-08 -1.02732e-07 )  
( -2.81836e-07 -2.55805e-07 -2.30165e-07 )  
( -6.48072e-07 -1.9585e-07 -4.224e-07 )  
( -9.61759e-07 -3.31821e-08 -2.94096e-07 )  
( -7.60587e-07 -1.58058e-07 -2.15375e-07 )  
( -1.00494e-06 -9.92365e-08 -2.25438e-07 )  
( -1.61923e-07 -2.49614e-07 -2.03119e-07 )  
( 2.05735e-07 -1.82283e-07 -1.55168e-07 )  
( 2.20926e-07 -2.54466e-08 -7.17024e-08 )  
( -7.13243e-07 -3.38359e-08 -2.22879e-07 )  
( -7.99101e-07 -1.49625e-07 -2.6527e-07 )  
( -5.89095e-08 -2.12305e-07 -2.59624e-07 )  
( 4.18397e-07 -2.06585e-07 -2.51037e-07 )  
( 1.34593e-07 -7.15033e-09 -4.43046e-08 )  
( -4.07695e-07 -2.224e-07 -3.04709e-07 )  
( -1.17717e-07 -1.64862e-07 -2.61589e-07 )  
( 1.79988e-07 -1.79935e-07 -2.16841e-07 )  
( 2.53451e-07 -2.66226e-07 -2.31658e-07 )  
( -4.14817e-07 -2.18476e-07 -3.58498e-07 )  
( -2.13489e-07 -2.33196e-07 -2.20814e-07 )  
( 1.2146e-07 2.82912e-08 -4.66988e-08 )  
( 4.23214e-07 -1.27165e-07 -1.71359e-07 )  
( 2.99886e-07 -6.59264e-08 -1.29263e-07 )  
( -3.90168e-07 -2.21363e-07 -3.24317e-07 )  
( -2.33466e-07 -2.14502e-07 -2.08677e-07 )  
( -5.15285e-07 -1.23345e-07 -1.13031e-07 )  
( 6.57701e-08 -9.11821e-08 -2.43001e-07 )  
( 3.75081e-07 -1.83492e-07 -2.66193e-07 )  
( -1.07492e-06 -1.0469e-07 -2.26192e-07 )  
( 3.11591e-07 -7.59917e-08 -1.11243e-07 )  
( 1.63116e-07 -1.93112e-08 -5.79584e-08 )  
( -2.5725e-08 -1.04043e-07 -2.67856e-07 )  
( -7.20566e-07 -1.69672e-07 -2.33797e-07 )  
( 1.02491e-07 -5.45206e-08 -9.87719e-08 )  
( 3.47324e-07 -4.76677e-08 -1.1951e-07 )  
( -1.25873e-07 -3.7152e-07 -2.88288e-07 )  
( -4.89979e-07 -3.37479e-07 -3.30749e-07 )  
( 2.3053e-07 -1.29115e-07 -1.84638e-07 )  
( 1.57875e-07 1.2293e-08 -1.08553e-07 )  
( 2.54979e-07 -7.33767e-08 -1.57853e-07 )  
( 3.48578e-07 -9.53433e-08 -2.79182e-07 )  
( 3.97744e-07 -1.67469e-07 -1.9071e-07 )  
( 1.42049e-07 -2.04669e-08 -1.0148e-07 )  
( -4.31377e-07 -1.62303e-07 -1.73545e-07 )  
( -1.31005e-06 -8.65308e-08 -3.37516e-07 )  
( -1.24247e-06 -8.73268e-08 -3.469e-07 )  
( 3.07758e-07 -2.02047e-07 -3.20179e-07 )  
( -8.29801e-07 8.90652e-08 -2.57279e-07 )  
( 1.87577e-07 -3.08201e-08 -7.02497e-08 )  
( 2.81875e-07 -2.225e-07 -3.4846e-07 )  
( 1.99721e-07 -2.81184e-07 -4.6184e-07 )  
( -9.36775e-07 -1.93092e-07 -2.70705e-07 )  
( -5.63752e-07 -2.84039e-07 -3.24044e-07 )  
( -2.62414e-07 -1.44505e-07 -2.30287e-07 )  
( 6.46274e-08 -4.06511e-07 -5.12674e-07 )  
( 3.36176e-07 -1.19745e-07 -1.75912e-07 )  
( -7.34726e-08 -2.96268e-07 -9.6617e-08 )  
( 4.33231e-07 -7.1336e-08 -1.86753e-07 )  
( 2.00425e-07 -3.22472e-07 -3.32345e-07 )  
( 3.88374e-07 -3.37951e-07 -8.85916e-08 )  
( 4.75335e-07 -7.13271e-08 -7.70674e-08 )  
( 9.31787e-08 -8.14094e-08 -1.40834e-07 )  
( -3.26485e-07 -3.1365e-07 -3.2616e-07 )  
( -3.68811e-07 -2.86641e-07 -3.17008e-07 )  
( -9.76735e-07 -3.3302e-07 -3.75763e-07 )  
( -4.24071e-07 -3.53835e-07 -3.88118e-07 )  
( 3.64415e-07 -2.50568e-07 -3.08238e-07 )  
( 2.235e-07 -3.08954e-08 -1.40834e-07 )  
( 3.54224e-07 -1.54569e-07 -1.86536e-07 )  
( 3.26691e-07 -7.91965e-08 -9.95984e-08 )  
( 3.82622e-07 -1.44705e-07 -2.0759e-07 )  
( -1.08074e-06 -2.01934e-08 -2.18517e-07 )  
( 2.39017e-07 -2.44653e-07 -1.25124e-07 )  
( -2.02249e-07 -4.40223e-07 -3.74281e-07 )  
( -1.40427e-06 -4.62656e-08 -4.75282e-07 )  
( 9.30606e-08 -3.8685e-10 -2.68324e-08 )  
( 1.91548e-07 -2.63408e-07 -2.72142e-07 )  
( -1.45889e-06 -1.68787e-07 -2.83821e-07 )  
( 3.74177e-07 -1.34376e-07 -2.29526e-07 )  
( 1.74663e-07 -6.72374e-08 -1.03374e-07 )  
( -1.63481e-07 -1.38918e-07 -1.17071e-07 )  
( 4.0341e-07 -1.83311e-07 -1.64181e-07 )  
( 9.61588e-08 -4.00343e-08 -7.61388e-08 )  
( -7.78975e-07 -2.97698e-07 -3.41298e-07 )  
( 3.64547e-07 -1.86424e-08 -1.40424e-07 )  
( 1.07852e-07 -4.15624e-08 -5.28782e-08 )  
( 2.34408e-07 -2.42193e-07 -3.34531e-07 )  
( 1.0645e-07 -3.52291e-08 -5.52854e-08 )  
)
