/*--------------------------------*- C++ -*----------------------------------*\
| =========                 |                                                 |
| \\      /  F ield         | OpenFOAM: The Open Source CFD Toolbox           |
|  \\    /   O peration     | Version:  4.x                                   |
|   \\  /    A nd           | Web:      www.OpenFOAM.org                      |
|    \\/     M anipulation  |                                                 |
\*---------------------------------------------------------------------------*/
FoamFile
{
    version     2.0;
    format      ascii;
    class       volScalarField;
    location    "56.5";
    object      KslNext;
}
// * * * * * * * * * * * * * * * * * * * * * * * * * * * * * * * * * * * * * //

dimensions      [1 -3 -1 0 0 0 0];

internalField   nonuniform List<scalar> 
108
(
3387.15
7940.32
3393.24
7585.76
3375.71
7287.05
3313.5
7136.12
3192.38
3479.59
9853.49
3656.1
12565
3707.22
15220
3685.35
18874
3611.21
3516.53
11194.6
3775.18
17383.1
3835.86
28391
3809.21
81720.7
3750.63
3491.9
11008.8
3773.29
17294.8
3850.03
33918.4
3873.6
129058
3838.79
3368.02
7850.87
3359.26
7551.41
3366.34
7287.12
3305.99
7375.29
3265.71
3450.63
8986.23
3544.14
9924.54
3580.69
10982.9
3570.34
12842.5
3539.59
3466.48
10226.2
3688.74
14112.9
3771.16
20493.6
3751.59
35455.9
3714.82
3499.35
10481
3708.1
14924.9
3780.39
22248.8
3752
34354.9
3652.11
3323.14
6959.86
3171.66
5964.17
3107.46
5539.9
3034.57
5225.84
2908.35
3375.56
7709.24
3357.05
7069.17
3290.42
6653.95
3197.47
6336.8
3080
3427.84
8279.04
3458.23
8149.72
3430.76
7870.68
3332.64
7498.6
3227.33
3468.71
8460.43
3494.81
8567.39
3455.99
8173.28
3320.83
7483.53
3193.29
)
;

boundaryField
{
    inlet
    {
        type            zeroGradient;
    }
    outlet
    {
        type            zeroGradient;
    }
    wall
    {
        type            zeroGradient;
    }
    procBoundary4to0
    {
        type            processor;
        value           uniform 0;
    }
    procBoundary4to5
    {
        type            processor;
        value           uniform 0;
    }
    procBoundary4to6
    {
        type            processor;
        value           uniform 0;
    }
}


// ************************************************************************* //
