/*--------------------------------*- C++ -*----------------------------------*\
| =========                 |                                                 |
| \\      /  F ield         | OpenFOAM: The Open Source CFD Toolbox           |
|  \\    /   O peration     | Version:  4.x                                   |
|   \\  /    A nd           | Web:      www.OpenFOAM.org                      |
|    \\/     M anipulation  |                                                 |
\*---------------------------------------------------------------------------*/
FoamFile
{
    version     2.0;
    format      ascii;
    class       volScalarField;
    location    "56.5";
    object      particleRelTemp;
}
// * * * * * * * * * * * * * * * * * * * * * * * * * * * * * * * * * * * * * //

dimensions      [0 0 0 0 0 0 0];

internalField   nonuniform List<scalar> 
108
(
-4.48341e-10
5.03217e-11
5.42148e-10
9.70087e-10
1.3644e-09
1.63966e-09
2.15337e-09
2.15349e-09
1.37937e-09
-4.10825e-10
6.6102e-11
6.99352e-10
1.16945e-09
1.65588e-09
1.9632e-09
2.20398e-09
2.25685e-09
1.93387e-09
-4.19616e-10
1.79204e-10
8.41188e-10
1.25281e-09
1.65305e-09
1.77734e-09
1.94277e-09
2.16939e-09
9.01667e-10
-4.43946e-10
6.15205e-11
5.11813e-10
9.28258e-10
1.40141e-09
1.55706e-09
1.48432e-09
8.59319e-10
7.37681e-10
-4.62744e-10
-1.13356e-10
2.40527e-10
5.01146e-10
6.33675e-10
6.98394e-10
6.14051e-10
6.23847e-10
-6.72053e-11
-4.26653e-10
-3.77265e-11
3.12396e-10
7.19559e-10
8.39996e-10
8.8516e-10
9.76467e-10
6.23391e-10
-7.39331e-11
-5.65653e-10
-3.35012e-11
3.61647e-10
6.29689e-10
8.87072e-10
8.97427e-10
9.04201e-10
3.84095e-10
-3.2003e-10
-5.03714e-10
-1.21571e-10
2.89375e-10
4.60047e-10
6.58011e-10
6.45139e-10
4.63666e-10
-4.46697e-11
-6.93932e-10
-6.44786e-10
-2.5573e-10
-1.15087e-11
1.71184e-10
1.93065e-10
2.44476e-10
8.01626e-11
-2.02425e-10
-8.13251e-10
-5.65375e-10
-2.19579e-10
1.40022e-10
2.73678e-10
3.78486e-10
3.38471e-10
1.56532e-10
-1.9227e-10
-7.66747e-10
-5.61841e-10
-1.66811e-10
1.43415e-10
3.11705e-10
4.42391e-10
3.93482e-10
1.10355e-10
-2.52694e-10
-9.33848e-10
-5.39161e-10
-2.38451e-10
1.38871e-11
2.64342e-10
2.80378e-10
1.9084e-10
-9.33823e-11
-5.67672e-10
-1.04589e-09
)
;

boundaryField
{
    inlet
    {
        type            calculated;
        value           nonuniform List<scalar> 
12
(
-4.48341e-10
-4.10825e-10
-4.19616e-10
-4.43946e-10
-4.62744e-10
-4.26653e-10
-5.65653e-10
-5.03714e-10
-6.44786e-10
-5.65375e-10
-5.61841e-10
-5.39161e-10
)
;
    }
    outlet
    {
        type            calculated;
        value           nonuniform 0();
    }
    wall
    {
        type            calculated;
        value           nonuniform List<scalar> 
63
(
-6.44786e-10
-5.65375e-10
-5.61841e-10
-5.39161e-10
-2.5573e-10
-2.19579e-10
-1.66811e-10
-2.38451e-10
-1.15087e-11
1.40022e-10
1.43415e-10
1.38871e-11
1.71184e-10
2.73678e-10
3.11705e-10
2.64342e-10
1.93065e-10
3.78486e-10
4.42391e-10
2.80378e-10
2.44476e-10
3.38471e-10
3.93482e-10
1.9084e-10
8.01626e-11
1.56532e-10
1.10355e-10
-9.33823e-11
-2.02425e-10
-1.9227e-10
-2.52694e-10
-5.67672e-10
-8.13251e-10
-7.66747e-10
-9.33848e-10
-1.04589e-09
-4.48341e-10
-4.62744e-10
-6.44786e-10
5.03217e-11
-1.13356e-10
-2.5573e-10
5.42148e-10
2.40527e-10
-1.15087e-11
9.70087e-10
5.01146e-10
1.71184e-10
1.3644e-09
6.33675e-10
1.93065e-10
1.63966e-09
6.98394e-10
2.44476e-10
2.15337e-09
6.14051e-10
8.01626e-11
2.15349e-09
6.23847e-10
-2.02425e-10
1.37937e-09
-6.72053e-11
-8.13251e-10
)
;
    }
    procBoundary4to0
    {
        type            processor;
        value           nonuniform List<scalar> 
36
(
-4.58788e-10
3.49625e-10
9.38328e-10
1.53186e-09
2.30234e-09
3.13054e-09
3.57696e-09
4.52161e-09
3.66418e-09
-3.60758e-10
2.90989e-10
9.50117e-10
1.79917e-09
2.52082e-09
3.26683e-09
3.80515e-09
4.12163e-09
3.94878e-09
-1.33999e-10
4.20927e-10
9.66233e-10
1.89567e-09
2.51652e-09
3.14285e-09
3.74258e-09
4.3037e-09
3.3279e-09
-3.5218e-10
2.46228e-10
8.3969e-10
1.39013e-09
1.92608e-09
2.37612e-09
2.97282e-09
2.96943e-09
2.83694e-09
)
;
    }
    procBoundary4to5
    {
        type            processor;
        value           nonuniform List<scalar> 
12
(
2.25078e-10
2.52478e-10
-2.53196e-10
-5.63663e-10
-6.47793e-10
-1.03628e-09
-1.24347e-09
-1.56102e-09
-1.47186e-09
-1.52303e-09
-1.6996e-09
-1.77501e-09
)
;
    }
    procBoundary4to6
    {
        type            processor;
        value           nonuniform List<scalar> 
27
(
-4.32028e-10
6.28528e-12
3.5908e-10
6.73405e-10
9.53081e-10
8.04922e-10
8.73868e-10
2.80016e-10
-2.9693e-10
-5.43489e-10
-1.45033e-10
1.08457e-10
2.46628e-10
2.27129e-10
2.20387e-10
-6.47447e-11
-3.40964e-10
-8.90951e-10
-5.9772e-10
-3.28191e-10
-6.70156e-11
3.5826e-11
5.19485e-11
-1.12648e-10
-3.15804e-10
-7.61907e-10
-1.1633e-09
)
;
    }
}


// ************************************************************************* //
