/*--------------------------------*- C++ -*----------------------------------*\
| =========                 |                                                 |
| \\      /  F ield         | OpenFOAM: The Open Source CFD Toolbox           |
|  \\    /   O peration     | Version:  4.x                                   |
|   \\  /    A nd           | Web:      www.OpenFOAM.org                      |
|    \\/     M anipulation  |                                                 |
\*---------------------------------------------------------------------------*/
FoamFile
{
    version     2.0;
    format      ascii;
    class       volVectorField;
    location    "23";
    object      GField;
}
// * * * * * * * * * * * * * * * * * * * * * * * * * * * * * * * * * * * * * //

dimensions      [1 -2 -1 0 0 0 0];

internalField   nonuniform List<vector> 
132
(
(97.2416 -1.61832 -3.49103)
(51.5683 -1.14256 -2.51532)
(107.958 -1.9676 -3.89995)
(67.9871 -0.912549 -2.2196)
(117.701 -1.3978 -2.97785)
(80.2704 -0.472069 -1.49886)
(125.776 -0.815215 -2.28311)
(89.8764 -0.0825773 -1.23318)
(134.415 0.112814 -1.85277)
(97.5736 -2.86127 -4.17383)
(48.8849 -2.15178 -2.5212)
(105.15 -3.56705 -4.32468)
(61.3597 -1.9077 -2.51091)
(113.012 -2.92027 -3.76903)
(71.4202 -1.33008 -1.86825)
(119.566 -2.57803 -3.04748)
(79.7482 -1.95707 -1.31716)
(125.969 -2.56922 -2.23089)
(98.1646 -2.14599 -4.43494)
(47.1462 -1.39686 -2.24817)
(103.433 -2.55767 -4.25826)
(57.0177 -1.53816 -2.17141)
(108.834 -1.86691 -3.79101)
(64.7059 -0.792084 -1.86919)
(113.856 -1.48195 -3.27553)
(69.8371 -0.566374 -0.656286)
(116.118 -1.34874 -2.48038)
(97.8054 -1.36728 -4.923)
(47.3106 -0.44619 -2.44641)
(103.754 -0.800214 -4.79633)
(95.934 -2.22747 -7.45307)
(45.5139 -1.11939 -4.71708)
(100.11 -2.30307 -7.90893)
(52.4881 -1.10377 -4.3484)
(104.571 -2.01129 -6.36498)
(58.259 -0.66851 -3.82147)
(109.021 -1.36951 -5.58032)
(62.5288 -0.0425256 -4.04217)
(113.315 -0.226315 -4.75997)
(95.5035 -3.5828 -8.30262)
(40.928 -1.72745 -4.53599)
(97.007 -3.7537 -8.5627)
(42.735 -1.53829 -4.1242)
(98.0322 -3.38603 -7.12)
(42.9638 -1.1491 -3.36738)
(99.5843 -3.09307 -6.22176)
(42.6776 -0.764762 -3.21383)
(101.947 -2.93293 -4.80773)
(94.5934 -2.69718 -8.88426)
(38.1112 -1.1049 -4.40471)
(94.8661 -2.78727 -9.31421)
(36.3711 -1.07133 -3.97862)
(94.3308 -2.46669 -7.55968)
(32.2797 -0.63592 -2.9849)
(93.7453 -1.78503 -5.58264)
(26.738 -0.268649 -2.20602)
(94.3736 -1.73652 -3.35161)
(93.6292 -0.764343 -9.29365)
(38.1306 -0.434917 -4.8627)
(94.0566 -0.749242 -9.76382)
(35.6394 -0.229929 -4.00294)
(92.7458 -0.0432827 -7.89114)
(94.3826 -2.51756 -5.52725)
(42.8365 -1.25794 -3.49052)
(96.3214 -2.70006 -5.64779)
(46.2776 -1.19787 -3.35347)
(98.7262 -2.45008 -4.50623)
(49.1447 -0.819872 -3.08776)
(100.894 -1.9276 -3.56311)
(50.284 -0.441437 -3.29213)
(102.99 -0.886477 -3.15787)
(93.6463 -4.3037 -6.39917)
(37.386 -2.08218 -3.60789)
(92.6902 -4.95525 -6.34294)
(34.1003 -1.90747 -2.78118)
(91.4816 -4.19485 -4.54251)
(29.6955 -1.23001 -2.32168)
(90.7304 -2.96315 -3.68615)
(24.3522 -1.02365 -1.96902)
(90.7283 -1.94558 -2.74327)
(92.4628 -3.20681 -6.11138)
(33.366 -1.55434 -3.3443)
(89.3223 -3.58559 -6.11412)
(22.9804 -0.970951 -2.10365)
(86.1608 -2.48765 -3.91652)
(13.0018 -0.387766 -1.14324)
(84.6309 -1.24785 -2.22461)
(5.58348 -0.161269 -0.636034)
(84.1039 -0.814932 -0.648167)
(91.9944 -0.411651 -6.62351)
(32.0017 -0.155606 -3.75769)
(88.2227 -0.200705 -6.85104)
(20.8006 -0.121095 -2.06977)
(85.5183 -0.0138163 -4.2399)
(11.6243 -0.221192 -1.28463)
(84.7411 -0.200003 -3.0215)
(93.8881 -3.1711 -4.13992)
(44.0169 -1.72594 -2.90404)
(96.3574 -3.2724 -4.44026)
(48.0125 -1.42193 -2.90976)
(98.8422 -2.54961 -3.65184)
(50.5195 -1.23507 -2.85613)
(101.348 -2.26823 -3.19681)
(52.7006 -0.702588 -3.23339)
(103.956 -1.24398 -2.75231)
(92.7878 -4.21796 -4.76325)
(36.6383 -2.15944 -2.78315)
(90.935 -4.46443 -4.95095)
(32.2295 -1.68538 -2.29801)
(90.1007 -3.49547 -3.54413)
(28.6704 -1.35744 -1.87406)
(89.7163 -2.76651 -2.74495)
(24.9451 -1.37237 -1.99301)
(90.5174 -2.47735 -2.5987)
(91.9033 -2.98947 -4.57716)
(34.8448 -1.69103 -2.62516)
(88.3872 -3.47472 -4.04697)
(26.0661 -1.21636 -1.71064)
(86.0847 -2.47133 -2.46604)
(18.685 -0.917797 -1.2848)
(84.9053 -1.61255 -2.04078)
(12.9321 -0.912391 -1.14104)
(84.2217 -1.73247 -0.611916)
(91.9171 -0.878116 -4.29028)
(33.3052 -0.157991 -2.72351)
(87.169 -0.143992 -4.19547)
(22.3879 0.208594 -1.87627)
(84.9569 0.401827 -3.22039)
(14.8206 0.268869 -1.46553)
(83.5675 0.302655 -2.55904)
(8.92572 0.298601 -1.07288)
(82.5018 0.818346 -1.21724)
)
;

boundaryField
{
    inlet
    {
        type            calculated;
        value           uniform (67 0 0);
    }
    outlet
    {
        type            calculated;
        value           nonuniform 0();
    }
    wall
    {
        type            calculated;
        value           uniform (0 0 0);
    }
    procBoundary0to1
    {
        type            processor;
        value           nonuniform List<vector> 
12
(
(96.9654 1.65014 0.0219835)
(86.3013 -1.30834 -0.318045)
(70.9394 -0.63913 -0.259807)
(65.1777 1.05141 -3.96676)
(42.9659 -0.993168 -3.04784)
(19.382 -0.333975 -2.10271)
(49.434 0.451904 -3.3015)
(20.4896 -1.36511 -1.89791)
(2.9184e-05 1.93402e-05 -4.55968e-06)
(52.7002 -0.573292 -2.30722)
(21.799 -2.01131 -1.69784)
(6.67842 -0.961914 -0.508411)
)
;
    }
    procBoundary0to2
    {
        type            processor;
        value           nonuniform List<vector> 
44
(
(57.4764 -0.484495 -2.49411)
(108.846 -0.484072 -4.65818)
(66.352 -0.457196 -2.31987)
(114.5 -0.375117 -3.68797)
(73.0901 0.121923 -1.52832)
(120.287 0.376859 -2.7651)
(95.9381 0.445736 -3.69678)
(45.0521 0.270135 -2.20339)
(57.4764 -0.484495 -2.49411)
(100.853 0.89649 -4.17288)
(57.4764 -0.484495 -2.49411)
(108.846 -0.484072 -4.65818)
(30.3886 -0.100169 -2.9805)
(92.008 0.197773 -5.87317)
(26.1965 0.120786 -2.55528)
(92.9255 1.05114 -3.85541)
(94.103 1.10906 -7.95804)
(38.3076 0.251313 -4.25741)
(93.6338 1.17768 -8.68052)
(35.0241 0.675574 -3.69169)
(30.3886 -0.100169 -2.9805)
(92.9165 1.52168 -7.09178)
(30.3886 -0.100169 -2.9805)
(92.008 0.197773 -5.87317)
(6.01296 -0.0798998 -0.868667)
(84.6936 -0.150383 -1.84968)
(92.4596 1.87177 -6.22775)
(34.978 0.658181 -3.25092)
(89.5809 1.70842 -5.59594)
(26.4695 0.490971 -2.00235)
(87.306 1.29559 -3.63415)
(18.5125 0.0413066 -1.21937)
(6.01296 -0.0798998 -0.868667)
(85.7031 -0.10872 -2.29232)
(6.01296 -0.0798998 -0.868667)
(84.6936 -0.150383 -1.84968)
(91.4828 1.7047 -5.44548)
(34.0237 1.06872 -2.54324)
(87.9186 2.38168 -4.71991)
(26.5354 0.898523 -2.06674)
(86.765 1.90527 -3.36292)
(21.5192 0.865163 -1.47301)
(86.7163 1.51219 -1.99154)
(17.3729 0.937596 -1.66988)
)
;
    }
    procBoundary0to4
    {
        type            processor;
        value           nonuniform List<vector> 
36
(
(93.4058 -3.2341 -2.33445)
(43.1393 -1.68773 -1.67297)
(94.3324 -3.56823 -2.64225)
(45.0194 -1.61665 -1.99848)
(95.5351 -2.87053 -1.994)
(45.9224 -1.07315 -1.93025)
(96.2177 -2.19076 -2.07295)
(45.1505 -1.04816 -2.40263)
(96.5502 -1.98737 -1.10188)
(91.6387 -4.75289 -2.06919)
(35.4962 -2.27425 -1.26633)
(88.6527 -4.82711 -2.23836)
(27.0109 -1.59652 -1.32136)
(86.3892 -3.51176 -1.92246)
(20.3426 -1.01955 -1.10396)
(85.4988 -2.64294 -1.8118)
(13.7845 -0.89795 -1.08323)
(84.3828 -1.28241 -0.672583)
(91.4404 -2.74822 -2.17027)
(32.6589 -1.66194 -1.24969)
(86.4142 -2.91827 -2.02292)
(21.73 -1.17189 -0.825017)
(83.684 -2.41633 -1.16664)
(13.5707 -0.858597 -0.425787)
(82.2716 -1.42574 -0.65661)
(5.52141 -0.362062 -0.134299)
(81.1481 -0.0613372 0.857357)
(91.5298 -1.3515 -2.48286)
(32.9215 -0.178481 -1.16122)
(85.7873 -0.956044 -2.11501)
(21.5025 -0.413028 -1.11034)
(82.5177 -0.887744 -1.78724)
(11.6292 -0.221005 -0.526152)
(80.5939 -0.0812231 -1.36162)
(3.73628 -0.0956718 -0.171357)
(80.3691 0.868746 0.171724)
)
;
    }
    procBoundary0to6
    {
        type            processor;
        value           uniform (87.0098 1.99514 0.160104);
    }
    procBoundary0to7
    {
        type            processor;
        value           uniform (1.77363 0.115626 -0.253879);
    }
}


// ************************************************************************* //
