/*--------------------------------*- C++ -*----------------------------------*\
| =========                 |                                                 |
| \\      /  F ield         | OpenFOAM: The Open Source CFD Toolbox           |
|  \\    /   O peration     | Version:  4.x                                   |
|   \\  /    A nd           | Web:      www.OpenFOAM.org                      |
|    \\/     M anipulation  |                                                 |
\*---------------------------------------------------------------------------*/
FoamFile
{
    version     2.0;
    format      ascii;
    class       volScalarField;
    location    "23";
    object      Ksl;
}
// * * * * * * * * * * * * * * * * * * * * * * * * * * * * * * * * * * * * * //

dimensions      [1 -3 -1 0 0 0 0];

internalField   nonuniform List<scalar> 
132
(
3404.49
6461.87
3152.02
5044.14
2956.04
4373.13
2831.37
3945.59
2650.01
3424.31
6896.31
3270.69
5634.32
3112.43
4951.86
2984.22
4470.25
2860.27
3440.64
7198.8
3338.72
6084.18
3252.23
5462.08
3127.6
5085.66
3078.67
3451.7
7152.04
3309.2
3458.3
7293.72
3364.16
6478.34
3304.7
5952.72
3232.79
5571.45
3099.36
3491.12
8234.04
3544.91
8073.9
3593.05
8176.1
3567.45
8239.12
3480.29
3536.72
8872.79
3634.35
9505.41
3719.5
10829.1
3773.12
13052.1
3723.94
3577.77
8851.62
3667.01
9674.31
3775.74
3483.67
7699.38
3479.33
7252.6
3448.99
6933.23
3403.58
6743.96
3311.47
3543.47
8954.23
3676.4
9987.81
3778.63
11561.7
3823.55
13986.1
3780.2
3595.21
10065.7
3830.9
14812.1
4009.43
26192.5
4067.81
60189.7
4030.21
3620.65
10481.2
3880.68
16312.7
4016.59
29118.4
4033.29
3479.74
7449.06
3458.25
6916.22
3397.87
6612.59
3331.61
6323.85
3214
3555.22
9079.62
3719.18
10453.1
3766.72
11716.8
3778.64
13325.7
3698.17
3617.82
9588.69
3840.36
12889.8
3928.82
17820.1
3958.02
25359.8
3915.24
3602.55
10027.7
3889.63
14954
3969.17
22299.1
3989.31
36459
3968.58
)
;

boundaryField
{
    inlet
    {
        type            zeroGradient;
    }
    outlet
    {
        type            zeroGradient;
    }
    wall
    {
        type            zeroGradient;
    }
    procBoundary0to1
    {
        type            processor;
        value           nonuniform List<scalar> 
12
(
3680.05
4170.35
5021.89
5364.94
8223.22
17868.7
6810.24
16495.4
1e+10
6229.61
15039.7
48077.1
)
;
    }
    procBoundary0to2
    {
        type            processor;
        value           nonuniform List<scalar> 
44
(
6016
3222.34
5312.9
3102.33
4840.42
2939.09
3494.02
7483.42
6016
3407.69
6016
3222.34
11448.9
3821.78
13234.9
3746.55
3542.85
8801.94
3680.6
9839.31
11448.9
3761.09
11448.9
3821.78
55309.9
3961.75
3590.25
9593.79
3812.92
12841.6
3926.37
18297.6
55309.9
3973.59
55309.9
3961.75
3611.01
9790.66
3843.44
12600
3878.9
15403.3
3842.13
18734.1
)
;
    }
    procBoundary0to4
    {
        type            processor;
        value           nonuniform List<scalar> 
36
(
3460.72
7493
3480.75
7310.92
3479.9
7171.95
3439.99
7201.92
3359.4
3559.21
9272.27
3777.97
12306.7
3874.56
16245.3
3893.09
23599.5
3880.69
3595.68
10151.8
3888.75
15266.1
3987.25
24189.7
4003.93
58368.4
3992.82
3580.59
10082.4
3910.95
15408.1
4024.04
28109.3
4060.16
85918.4
4001.15
)
;
    }
    procBoundary0to6
    {
        type            processor;
        value           uniform 3777.08;
    }
    procBoundary0to7
    {
        type            processor;
        value           uniform 178743;
    }
}


// ************************************************************************* //
