/*--------------------------------*- C++ -*----------------------------------*\
| =========                 |                                                 |
| \\      /  F ield         | OpenFOAM: The Open Source CFD Toolbox           |
|  \\    /   O peration     | Version:  4.x                                   |
|   \\  /    A nd           | Web:      www.OpenFOAM.org                      |
|    \\/     M anipulation  |                                                 |
\*---------------------------------------------------------------------------*/
FoamFile
{
    version     2.0;
    format      ascii;
    class       surfaceScalarField;
    location    "23";
    object      phi;
}
// * * * * * * * * * * * * * * * * * * * * * * * * * * * * * * * * * * * * * //

dimensions      [0 3 -1 0 0 0 0];

internalField   nonuniform List<scalar> 
308
(
9.07758e-06
-2.657e-07
-6.48613e-07
9.70288e-06
-1.96002e-07
-4.29298e-07
1.07344e-05
-3.29992e-07
-7.01574e-07
1.12863e-05
-1.64924e-07
-3.86923e-07
1.20938e-05
-2.5497e-07
-5.5259e-07
1.25151e-05
-1.06454e-07
-3.14772e-07
1.31816e-05
-2.00885e-07
-4.65683e-07
1.36146e-05
-1.20652e-07
-3.12277e-07
-1.4541e-07
-3.91705e-07
8.9338e-06
-2.96918e-07
-7.39316e-07
9.36695e-06
-2.1076e-07
-4.18396e-07
1.01641e-05
-3.63335e-07
-7.63786e-07
1.05954e-05
-2.03629e-07
-3.92632e-07
1.12683e-05
-2.83136e-07
-6.44711e-07
1.15972e-05
-1.25532e-07
-3.09865e-07
1.21858e-05
-2.40504e-07
-5.48989e-07
1.2483e-05
-1.49689e-07
-2.68146e-07
-2.32274e-07
-4.16894e-07
8.86369e-06
-2.08204e-07
-7.89137e-07
9.15644e-06
-1.09354e-07
-3.94153e-07
9.79611e-06
-1.99025e-07
-8.03982e-07
1.00763e-05
-3.64172e-07
1.06045e-05
-6.7229e-07
1.08401e-05
-2.87345e-07
1.12341e-05
-5.24738e-07
1.12795e-05
-1.69163e-07
-3.45614e-07
8.85188e-06
-8.42291e-07
9.18597e-06
-4.32933e-07
-8.62489e-07
8.62846e-06
-3.44463e-07
-7.69345e-07
8.85487e-06
-1.68995e-07
-4.86717e-07
9.31622e-06
-3.59239e-07
-8.03679e-07
9.54123e-06
-1.5615e-07
-4.55785e-07
9.95169e-06
-3.19456e-07
-6.43598e-07
1.01536e-05
-1.07478e-07
-4.09197e-07
1.04938e-05
-2.64272e-07
-5.41635e-07
1.06638e-05
-4.7678e-08
-4.34606e-07
-1.86974e-07
-4.69053e-07
8.32282e-06
-3.72168e-07
-8.71167e-07
8.3862e-06
-1.68055e-07
-4.82712e-07
8.53401e-06
-3.87603e-07
-8.83229e-07
8.54854e-06
-1.54381e-07
-4.08939e-07
8.62152e-06
-3.46436e-07
-6.90706e-07
8.64682e-06
-1.05653e-07
-3.36988e-07
8.7095e-06
-2.88978e-07
-5.86961e-07
8.76222e-06
-6.13188e-08
-3.07233e-07
-2.76871e-07
-4.47356e-07
8.09579e-06
-2.05271e-07
-8.88559e-07
8.08417e-06
-9.13397e-08
-4.59246e-07
8.01639e-06
-2.09623e-07
-9.14189e-07
7.93534e-06
-7.7066e-08
-3.60429e-07
7.7451e-06
-1.48601e-07
-6.79889e-07
7.64017e-06
-2.44649e-07
7.38281e-06
-4.62507e-07
7.32964e-06
-1.68736e-07
-2.36786e-07
8.03838e-06
-9.43025e-07
8.03593e-06
-5.10817e-07
7.92276e-06
-9.84344e-07
7.7943e-06
-3.59835e-07
-7.18629e-07
8.37073e-06
-4.04243e-07
-5.72569e-07
8.46086e-06
-1.97976e-07
-3.78863e-07
8.70813e-06
-4.5357e-07
-5.97381e-07
8.80701e-06
-1.83907e-07
-3.70764e-07
9.03982e-06
-3.93608e-07
-4.82794e-07
9.10366e-06
-1.21316e-07
-3.51727e-07
9.25181e-06
-2.89755e-07
-4.00025e-07
9.29007e-06
-8.66267e-08
-3.86244e-07
-1.67744e-07
-3.49857e-07
7.99396e-06
-4.44983e-07
-6.61125e-07
7.90743e-06
-2.15529e-07
-3.78628e-07
7.74538e-06
-5.05989e-07
-6.68763e-07
7.62371e-06
-1.70527e-07
-3.00647e-07
7.41374e-06
-3.95766e-07
-4.78579e-07
7.29959e-06
-9.58563e-08
-2.4829e-07
7.0528e-06
-2.49384e-07
-3.80545e-07
6.96372e-06
-7.04108e-08
-2.34371e-07
-1.63562e-07
-3.16173e-07
7.67708e-06
-2.145e-07
-6.32852e-07
7.45727e-06
-1.01428e-07
-3.53539e-07
6.86291e-06
-2.24333e-07
-6.01486e-07
6.62229e-06
-6.46246e-08
-2.25714e-07
6.07236e-06
-1.48092e-07
-3.77634e-07
5.91135e-06
-3.58833e-08
-1.43607e-07
5.53743e-06
-8.56566e-08
-2.52312e-07
5.41729e-06
-1.05008e-07
-7.4624e-08
7.56547e-06
-6.46235e-07
7.30722e-06
-3.83812e-07
6.66321e-06
-6.54032e-07
6.45042e-06
-2.33555e-07
5.94927e-06
-4.41566e-07
5.83424e-06
-1.62803e-07
-3.30279e-07
8.41246e-06
-4.37931e-07
8.53519e-06
-2.30265e-07
8.81604e-06
-4.58449e-07
8.92015e-06
-1.84067e-07
9.1301e-06
-3.58172e-07
9.21554e-06
-1.53546e-07
9.42618e-06
-2.98328e-07
9.49664e-06
-1.22728e-07
-2.20425e-07
7.89604e-06
-4.26824e-07
7.75525e-06
-2.28063e-07
7.52434e-06
-4.70152e-07
7.42604e-06
-1.71904e-07
7.26664e-06
-3.53336e-07
7.17599e-06
-1.3476e-07
7.02653e-06
-2.59293e-07
6.98742e-06
-1.35557e-07
-2.49398e-07
7.73296e-06
-2.29301e-07
7.49076e-06
-1.0971e-07
6.99359e-06
-2.14568e-07
6.80612e-06
-5.97794e-08
6.41328e-06
-1.22691e-07
6.27499e-06
-3.85762e-08
6.00106e-06
-7.76363e-08
5.87277e-06
-3.64419e-08
-5.41336e-08
7.64006e-06
7.32273e-06
6.69534e-06
6.51337e-06
6.10909e-06
5.95836e-06
5.67525e-06
5.52415e-06
)
;

boundaryField
{
    inlet
    {
        type            calculated;
        value           nonuniform List<scalar> 
16
(
-8.16327e-06
-8.16327e-06
-8.16327e-06
-8.16327e-06
-8.16327e-06
-8.16327e-06
-8.16327e-06
-8.16327e-06
-8.16327e-06
-8.16327e-06
-8.16327e-06
-8.16327e-06
-8.16327e-06
-8.16327e-06
-8.16327e-06
-8.16327e-06
)
;
    }
    outlet
    {
        type            calculated;
        value           nonuniform 0();
    }
    wall
    {
        type            calculated;
        value           nonuniform List<scalar> 
66
(
0
0
0
0
0
0
0
0
0
0
0
0
0
0
0
0
0
0
0
0
0
0
0
0
0
0
0
0
0
0
0
0
0
0
0
0
0
0
0
0
0
0
0
0
-6.16298e-33
0
0
0
0
0
0
0
0
0
0
0
0
0
0
0
0
0
0
0
0
0
)
;
    }
    procBoundary0to1
    {
        type            processor;
        value           nonuniform List<scalar> 
12
(
1.41517e-05
1.29868e-05
1.14502e-05
1.09282e-05
8.88258e-06
6.98428e-06
9.33862e-06
6.82836e-06
5.14864e-06
9.59565e-06
6.89424e-06
5.58837e-06
)
;
    }
    procBoundary0to2
    {
        type            processor;
        value           nonuniform List<scalar> 
44
(
-1.19698e-07
-1.38995e-07
-7.3754e-08
-1.09765e-07
-2.59502e-08
-5.73415e-08
-5.45315e-08
-1.05065e-08
9.84378e-06
5.65115e-09
3.84795e-07
7.43434e-07
-4.34196e-08
-9.38481e-08
-8.57589e-09
-4.03348e-08
2.03495e-08
-1.1009e-08
2.54022e-08
2.6431e-08
7.53319e-06
8.77089e-08
2.52754e-07
5.26908e-07
-1.40082e-08
-5.70688e-08
8.65048e-08
2.98168e-08
8.93678e-08
2.18828e-08
7.59912e-08
-1.0805e-08
5.57022e-06
-1.82574e-08
1.14926e-07
1.81631e-07
4.90578e-08
5.40897e-08
1.32772e-07
6.57645e-08
1.36872e-07
6.74895e-08
1.07632e-07
7.35988e-08
)
;
    }
    procBoundary0to4
    {
        type            processor;
        value           nonuniform List<scalar> 
36
(
-3.83836e-07
-2.71326e-07
-4.19776e-07
-2.90808e-07
-3.3458e-07
-2.8362e-07
-3.1234e-07
-3.33975e-07
-2.28442e-07
-4.05008e-07
-2.40043e-07
-4.26147e-07
-2.14512e-07
-3.24009e-07
-1.76429e-07
-2.70117e-07
-1.82436e-07
-1.9402e-07
-4.00069e-07
-2.29698e-07
-3.59898e-07
-1.50366e-07
-2.1544e-07
-1.01495e-07
-1.60046e-07
-7.58315e-08
1.45173e-08
-4.0139e-07
-2.30275e-07
-3.73986e-07
-1.77124e-07
-2.96854e-07
-1.18141e-07
-2.32433e-07
-7.38717e-08
-6.19492e-08
)
;
    }
    procBoundary0to6
    {
        type            processor;
        value           uniform 1.66736e-07;
    }
    procBoundary0to7
    {
        type            processor;
        value           uniform 5.1836e-06;
    }
}


// ************************************************************************* //
