/*--------------------------------*- C++ -*----------------------------------*\
| =========                 |                                                 |
| \\      /  F ield         | OpenFOAM: The Open Source CFD Toolbox           |
|  \\    /   O peration     | Version:  4.x                                   |
|   \\  /    A nd           | Web:      www.OpenFOAM.org                      |
|    \\/     M anipulation  |                                                 |
\*---------------------------------------------------------------------------*/
FoamFile
{
    version     2.0;
    format      ascii;
    class       volScalarField;
    location    "23";
    object      Qsource;
}
// * * * * * * * * * * * * * * * * * * * * * * * * * * * * * * * * * * * * * //

dimensions      [1 -1 -3 0 0 0 0];

internalField   nonuniform List<scalar> 
132
(
6.82815e+09
5.27454e+09
5.4925e+09
4.22821e+09
6.25292e+09
5.95748e+09
7.91976e+09
5.54168e+09
4.19071e+09
5.46705e+09
5.60133e+09
6.40585e+09
6.2027e+09
4.79044e+09
7.42082e+09
6.32123e+09
6.56193e+09
6.30527e+09
3.09793e+09
6.3553e+09
6.60495e+09
5.64917e+09
6.46768e+09
5.53934e+09
4.9471e+09
5.86939e+09
9.4855e+09
3.78992e+09
5.01259e+09
4.37517e+09
5.0644e+09
7.45994e+09
9.46334e+09
8.15828e+09
8.6062e+09
8.18197e+09
8.03282e+09
7.43941e+09
8.21441e+09
4.95756e+09
9.48425e+09
7.98695e+09
8.56659e+09
9.58311e+09
8.68468e+09
9.19523e+09
9.35683e+09
9.0098e+09
5.27464e+09
9.4983e+09
8.39391e+09
7.54927e+09
8.21313e+09
7.70549e+09
1.05217e+10
6.99233e+09
6.33769e+09
7.92538e+09
7.07334e+09
7.75528e+09
5.52832e+09
1.12822e+10
6.373e+09
7.42785e+09
8.91419e+09
7.43586e+09
8.28353e+09
6.14555e+09
8.8498e+09
7.5186e+09
6.24218e+09
6.22455e+09
8.30016e+09
7.96574e+09
6.92241e+09
9.22965e+09
6.70941e+09
9.35263e+09
1.00976e+10
1.00872e+10
6.68618e+09
7.22279e+09
8.05481e+09
9.29061e+09
9.73505e+09
8.01186e+09
9.09462e+09
6.27489e+09
5.32913e+09
6.87376e+09
8.688e+09
9.50941e+09
8.97038e+09
9.89515e+09
7.98938e+09
8.63477e+09
5.1314e+09
5.47807e+09
7.56459e+09
5.71717e+09
7.90537e+09
8.37184e+09
6.76761e+09
4.92518e+09
6.95005e+09
5.11164e+09
9.63606e+09
9.07707e+09
8.11014e+09
7.20096e+09
6.7678e+09
1.0446e+10
7.39915e+09
6.94639e+09
5.16713e+09
5.66057e+09
9.03432e+09
6.26961e+09
8.71557e+09
8.70918e+09
8.24656e+09
5.12363e+09
9.35195e+09
4.81461e+09
6.76739e+09
9.62934e+09
1.04525e+10
5.47848e+09
9.87525e+09
8.48186e+09
5.54871e+09
2.59275e+09
)
;

boundaryField
{
    inlet
    {
        type            calculated;
        value           uniform 0;
    }
    outlet
    {
        type            calculated;
        value           nonuniform 0();
    }
    wall
    {
        type            calculated;
        value           uniform 0;
    }
    procBoundary0to1
    {
        type            processor;
        value           nonuniform List<scalar> 
12
(
6.01737e+09
5.38e+09
4.63248e+09
8.11952e+09
9.1627e+09
9.16748e+09
7.5549e+09
6.41125e+09
8.05355e+09
7.1963e+09
8.03984e+09
5.89814e+09
)
;
    }
    procBoundary0to2
    {
        type            processor;
        value           nonuniform List<scalar> 
44
(
7.71396e+09
6.48555e+09
3.68644e+09
6.92832e+09
3.4908e+09
4.02714e+09
6.60929e+09
7.40255e+09
7.71396e+09
6.95947e+09
7.71396e+09
6.48555e+09
9.8879e+09
1.22056e+10
6.64101e+09
1.11989e+10
4.70943e+09
7.97674e+09
9.57766e+09
9.25524e+09
9.8879e+09
8.88032e+09
9.8879e+09
1.22056e+10
7.8627e+09
9.14894e+09
6.83682e+09
5.76792e+09
6.73876e+09
6.84586e+09
6.75674e+09
7.80407e+09
7.8627e+09
9.84823e+09
7.8627e+09
9.14894e+09
4.87461e+09
9.54309e+09
1.02942e+10
7.3706e+09
8.25989e+09
6.41702e+09
7.60194e+09
7.92711e+09
)
;
    }
    procBoundary0to4
    {
        type            processor;
        value           nonuniform List<scalar> 
36
(
5.70129e+09
7.57958e+09
9.19087e+09
6.43951e+09
7.91884e+09
6.44283e+09
9.67491e+09
7.29713e+09
1.03606e+10
6.99813e+09
7.32366e+09
9.33543e+09
1.00411e+10
1.0075e+10
8.55409e+09
8.03538e+09
5.69902e+09
1.10374e+10
6.65911e+09
1.03139e+10
8.28499e+09
9.43186e+09
8.08821e+09
6.33745e+09
7.25323e+09
1.03386e+10
6.65417e+09
3.45751e+09
6.75391e+09
9.36382e+09
5.74954e+09
8.78181e+09
6.74649e+09
1.09479e+10
6.01189e+09
6.99301e+09
)
;
    }
    procBoundary0to6
    {
        type            processor;
        value           uniform 8.11023e+09;
    }
    procBoundary0to7
    {
        type            processor;
        value           uniform 9.96752e+09;
    }
}


// ************************************************************************* //
