/*--------------------------------*- C++ -*----------------------------------*\
| =========                 |                                                 |
| \\      /  F ield         | OpenFOAM: The Open Source CFD Toolbox           |
|  \\    /   O peration     | Version:  4.x                                   |
|   \\  /    A nd           | Web:      www.OpenFOAM.org                      |
|    \\/     M anipulation  |                                                 |
\*---------------------------------------------------------------------------*/
FoamFile
{
    version     2.0;
    format      ascii;
    class       volScalarField;
    location    "23";
    object      QWallFluid;
}
// * * * * * * * * * * * * * * * * * * * * * * * * * * * * * * * * * * * * * //

dimensions      [1 -1 -3 0 0 0 0];

internalField   nonuniform List<scalar> 
132
(
1.66879e+09
1.0052e+09
1.81441e+09
1.25316e+09
1.94361e+09
1.43074e+09
2.04923e+09
1.56602e+09
2.16093e+09
8.3705e+08
4.81898e+08
8.88708e+08
5.77542e+08
9.41084e+08
6.51711e+08
9.84235e+08
7.11783e+08
1.02602e+09
0
4.67867e+08
8.76894e+08
5.44508e+08
9.13044e+08
6.02205e+08
9.46401e+08
6.39903e+08
9.6126e+08
8.38653e+08
4.69099e+08
8.79028e+08
8.27056e+08
4.56346e+08
8.55803e+08
5.1066e+08
8.85225e+08
5.5447e+08
9.14764e+08
5.86688e+08
9.43092e+08
0
0
0
0
0
0
0
0
0
0
0
0
0
0
0
0
0
0
0
0
0
0
0
8.15549e+08
4.34078e+08
8.28952e+08
4.61467e+08
8.44954e+08
4.83874e+08
8.5939e+08
4.92855e+08
8.73438e+08
0
0
0
0
0
0
0
0
0
0
0
0
0
0
0
0
0
0
0
0
0
0
0
0
0
8.11787e+08
4.43337e+08
8.28887e+08
4.74997e+08
8.45522e+08
4.94588e+08
8.62442e+08
5.11628e+08
8.79924e+08
0
0
0
0
0
0
0
0
0
0
0
0
0
0
0
0
0
0
0
0
0
0
0
0
0
0
0
)
;

boundaryField
{
    inlet
    {
        type            calculated;
        value           uniform 0;
    }
    outlet
    {
        type            calculated;
        value           nonuniform 0();
    }
    wall
    {
        type            calculated;
        value           uniform 0;
    }
    procBoundary0to1
    {
        type            processor;
        value           nonuniform List<scalar> 
12
(
1.66415e+09
7.5801e+08
6.47955e+08
6.06437e+08
0
0
4.86213e+08
0
0
5.11236e+08
0
0
)
;
    }
    procBoundary0to2
    {
        type            processor;
        value           nonuniform List<scalar> 
44
(
5.47961e+08
9.13248e+08
6.14501e+08
9.50701e+08
6.63715e+08
9.88752e+08
8.25416e+08
4.51037e+08
5.47961e+08
8.59174e+08
5.47961e+08
9.13248e+08
0
0
0
0
0
0
0
0
0
0
0
0
0
0
0
0
0
0
0
0
0
0
0
0
0
0
0
0
0
0
0
0
)
;
    }
    procBoundary0to4
    {
        type            processor;
        value           nonuniform List<scalar> 
36
(
8.08042e+08
4.35756e+08
8.14576e+08
4.50924e+08
8.22586e+08
4.57973e+08
8.27167e+08
4.51994e+08
8.29311e+08
0
0
0
0
0
0
0
0
0
0
0
0
0
0
0
0
0
0
0
0
0
0
0
0
0
0
0
)
;
    }
    procBoundary0to6
    {
        type            processor;
        value           uniform 0;
    }
    procBoundary0to7
    {
        type            processor;
        value           uniform 0;
    }
}


// ************************************************************************* //
