/*--------------------------------*- C++ -*----------------------------------*\
| =========                 |                                                 |
| \\      /  F ield         | OpenFOAM: The Open Source CFD Toolbox           |
|  \\    /   O peration     | Version:  4.x                                   |
|   \\  /    A nd           | Web:      www.OpenFOAM.org                      |
|    \\/     M anipulation  |                                                 |
\*---------------------------------------------------------------------------*/
FoamFile
{
    version     2.0;
    format      ascii;
    class       volScalarField;
    location    "39.5";
    object      Cs;
}
// * * * * * * * * * * * * * * * * * * * * * * * * * * * * * * * * * * * * * //

dimensions      [1 -3 0 0 0 0 0];

internalField   nonuniform List<scalar> 
132
(
335
335
334.999
334.998
334.996
334.992
334.987
334.979
334.941
335
335
334.999
334.998
334.997
334.995
334.992
334.989
334.912
335
335
335
334.999
334.999
334.998
334.996
334.995
334.86
335
335
335
335
335
335
334.999
334.999
334.846
334.999
334.998
334.996
334.993
334.989
334.984
334.958
335
334.999
334.998
334.997
334.994
334.991
334.987
334.983
334.923
335
335
334.999
334.999
334.997
334.995
334.992
334.99
334.965
335
335
335
335
335
335
334.999
334.999
334.933
334.998
334.997
334.995
334.993
334.967
335
335
335
334.999
334.998
334.997
334.995
334.994
334.958
335
335
335
335
335
334.999
334.998
334.998
334.881
335
335
335
335
335
335
335
335
333.848
334.999
334.999
334.808
335
335
335
335
335
335
334.999
334.999
334.802
335
335
335
335
335
335
335
335
334.647
335
335
335
335
335
335
335
335
334.809
)
;

boundaryField
{
    inlet
    {
        type            calculated;
        value           nonuniform 0();
    }
    outlet
    {
        type            calculated;
        value           uniform 335;
    }
    wall
    {
        type            calculated;
        value           nonuniform List<scalar> 
66
(
335
335
335
335
335
335
335
335
335
335
335
335
335
335
335
335
335
335
334.999
334.999
335
335
334.999
334.999
335
335
334.808
334.802
334.647
334.809
335
335
335
335
335
335
335
335
335
335
335
335
335
335
335
335
335
335
335
335
335
335
335
335
334.999
334.999
335
335
334.999
334.999
335
335
334.846
334.933
333.848
334.809
)
;
    }
    procBoundary7to0
    {
        type            processor;
        value           uniform 335;
    }
    procBoundary7to1
    {
        type            processor;
        value           uniform 335;
    }
    procBoundary7to3
    {
        type            processor;
        value           nonuniform List<scalar> 
36
(
335
334.999
334.998
334.996
334.991
334.986
334.979
334.977
334.925
335
335
334.999
334.998
334.997
334.994
334.99
334.986
334.944
335
335
335
334.999
334.998
334.997
334.995
334.994
334.919
335
335
335
335
335
335
334.999
334.999
334.807
)
;
    }
    procBoundary7to5
    {
        type            processor;
        value           nonuniform List<scalar> 
44
(
335
334.999
334.998
334.996
334.993
334.988
334.982
334.9
335
334.999
334.999
334.998
334.997
334.995
334.992
334.99
334.964
335
334.999
334.999
335
334.999
334.999
334.998
334.996
334.995
334.971
335
335
335
334.999
334.999
335
335
334.999
334.999
334.827
335
335
335
335
335
335
335
)
;
    }
    procBoundary7to6
    {
        type            processor;
        value           nonuniform List<scalar> 
12
(
335
335
335
335
335
335
335
335
335
335
335
335
)
;
    }
}


// ************************************************************************* //
