/*--------------------------------*- C++ -*----------------------------------*\
| =========                 |                                                 |
| \\      /  F ield         | OpenFOAM: The Open Source CFD Toolbox           |
|  \\    /   O peration     | Version:  4.x                                   |
|   \\  /    A nd           | Web:      www.OpenFOAM.org                      |
|    \\/     M anipulation  |                                                 |
\*---------------------------------------------------------------------------*/
FoamFile
{
    version     2.0;
    format      ascii;
    class       volVectorField;
    location    "39.5";
    object      impParticleForces;
}
// * * * * * * * * * * * * * * * * * * * * * * * * * * * * * * * * * * * * * //

dimensions      [1 1 -2 0 0 0 0];

internalField   nonuniform List<vector> 
132
(
(0.00240666 1.10739e-05 -2.82346e-05)
(0.00243618 1.28198e-05 -2.2947e-05)
(0.0024009 1.26052e-05 -1.76738e-05)
(0.00242349 1.17637e-05 -1.22794e-05)
(0.00240514 1.02777e-05 -6.78956e-06)
(0.00241541 9.66606e-06 -9.81796e-07)
(0.00233854 7.91806e-06 1.61201e-06)
(0.00230385 7.26759e-06 4.19587e-06)
(0.0022318 8.65561e-06 -1.31967e-06)
(0.0024055 1.0789e-05 -2.9713e-05)
(0.00245293 1.10081e-05 -2.50215e-05)
(0.00240701 1.03607e-05 -2.03159e-05)
(0.00242068 9.86217e-06 -1.58419e-05)
(0.00239472 9.91451e-06 -1.17677e-05)
(0.00240534 1.07806e-05 -7.51043e-06)
(0.00234843 1.4783e-05 -6.43097e-06)
(0.00232242 1.80889e-05 -4.53389e-06)
(0.00224139 3.01677e-05 -1.02024e-05)
(0.00241239 1.10397e-05 -3.24777e-05)
(0.00245642 9.86717e-06 -2.85727e-05)
(0.00241987 8.81076e-06 -2.48196e-05)
(0.00243754 8.09072e-06 -2.16156e-05)
(0.00241607 9.40783e-06 -1.94736e-05)
(0.00244407 1.01699e-05 -1.75785e-05)
(0.00237733 1.77785e-05 -1.79675e-05)
(0.00234802 2.35123e-05 -1.72785e-05)
(0.0022438 4.06211e-05 -2.68703e-05)
(0.00239885 1.03662e-05 -3.41728e-05)
(0.00241383 8.57146e-06 -3.03437e-05)
(0.00240003 7.1301e-06 -2.74442e-05)
(0.00239799 6.52335e-06 -2.42706e-05)
(0.00239827 7.22829e-06 -2.35557e-05)
(0.0024054 9.74453e-06 -2.15085e-05)
(0.00234975 1.65803e-05 -2.35126e-05)
(0.00232611 2.49885e-05 -2.32297e-05)
(0.00222338 3.49972e-05 -3.30684e-05)
(0.00237306 7.48825e-06 -1.26892e-05)
(0.0023976 6.4998e-06 -7.19311e-06)
(0.00236428 5.10432e-06 -1.44574e-06)
(0.00237286 3.65356e-06 5.74483e-06)
(0.0023194 2.20554e-06 1.18426e-05)
(0.00230124 1.87898e-06 2.01418e-05)
(0.00221744 -1.40928e-07 2.55053e-05)
(0.00237471 7.52798e-06 -2.39625e-05)
(0.00241656 7.03995e-06 -2.00837e-05)
(0.0023762 6.16442e-06 -1.60057e-05)
(0.00239593 5.05207e-06 -1.16358e-05)
(0.00236929 4.29602e-06 -6.84953e-06)
(0.00237061 4.07668e-06 -1.45769e-06)
(0.0023113 5.14008e-06 3.2583e-06)
(0.00229641 7.87339e-06 9.82024e-06)
(0.00221037 1.2393e-05 1.25292e-05)
(0.00238777 8.36881e-06 -2.65872e-05)
(0.00242487 6.39307e-06 -2.35347e-05)
(0.00238447 5.09318e-06 -2.00311e-05)
(0.00239528 3.6211e-06 -1.64881e-05)
(0.00237675 3.33584e-06 -1.303e-05)
(0.00238942 3.1425e-06 -9.00708e-06)
(0.00232572 6.08065e-06 -5.62651e-06)
(0.00229223 9.84046e-06 -1.04701e-06)
(0.00220375 1.75493e-05 -1.95493e-07)
(0.002369 8.43172e-06 -2.82682e-05)
(0.00238573 5.99833e-06 -2.52956e-05)
(0.00236046 4.38394e-06 -2.2581e-05)
(0.00236918 2.73059e-06 -1.94258e-05)
(0.00234466 2.66535e-06 -1.65819e-05)
(0.00234152 3.05773e-06 -1.31839e-05)
(0.00229037 6.24474e-06 -1.11139e-05)
(0.0022613 1.01009e-05 -7.64233e-06)
(0.00217554 1.56835e-05 -8.65044e-06)
(0.00235124 -1.88358e-07 2.71346e-06)
(0.00236408 -2.32538e-06 1.01413e-05)
(0.00232251 -4.82183e-06 1.91062e-05)
(0.00230572 -6.58556e-06 2.89468e-05)
(0.00221142 -9.30618e-06 4.59087e-05)
(0.00237842 4.95862e-06 -1.89703e-05)
(0.00240748 4.00809e-06 -1.608e-05)
(0.00236558 2.47337e-06 -1.23124e-05)
(0.00238164 4.80636e-07 -7.99612e-06)
(0.00235462 -1.30762e-06 -2.82584e-06)
(0.00236258 -3.33367e-06 3.43983e-06)
(0.00231026 -3.77294e-06 1.02016e-05)
(0.002301 -4.0295e-06 1.90651e-05)
(0.00220742 2.1805e-06 3.08741e-05)
(0.00238499 6.58401e-06 -2.13589e-05)
(0.00240813 4.31635e-06 -1.89688e-05)
(0.0023752 2.27424e-06 -1.59326e-05)
(0.00239521 -3.2297e-07 -1.27107e-05)
(0.0023652 -1.97686e-06 -8.28429e-06)
(0.0023722 -4.6414e-06 -3.71984e-06)
(0.00231229 -3.65902e-06 2.1242e-06)
(0.00229363 -4.27963e-06 8.16989e-06)
(0.00219384 3.53514e-06 1.69549e-05)
(0.00235347 6.91488e-06 -2.28075e-05)
(0.00236582 4.3084e-06 -2.03786e-05)
(0.0023435 1.90711e-06 -1.78671e-05)
(0.00236283 -6.88756e-07 -1.49346e-05)
(0.00233209 -2.54466e-06 -1.15366e-05)
(0.00233563 -4.15741e-06 -7.4111e-06)
(0.00227875 -3.89658e-06 -3.33024e-06)
(0.00224405 -2.10329e-06 2.085e-06)
(0.00215898 2.5404e-07 7.17229e-06)
(0.00229878 -9.45632e-06 2.19005e-05)
(0.00229767 -1.07659e-05 3.27597e-05)
(0.00219451 -1.59037e-05 4.8857e-05)
(0.0023496 3.29038e-06 -1.6126e-05)
(0.00236509 2.03158e-06 -1.36972e-05)
(0.00234091 1.83223e-07 -1.03083e-05)
(0.00236206 -2.14634e-06 -6.45186e-06)
(0.00232165 -4.457e-06 -9.73298e-07)
(0.00232122 -6.66242e-06 4.47616e-06)
(0.00228155 -8.5725e-06 1.22252e-05)
(0.00226918 -8.28278e-06 1.92523e-05)
(0.00217704 -7.96541e-06 3.12751e-05)
(0.00234533 5.28634e-06 -1.86031e-05)
(0.0023516 3.02872e-06 -1.65328e-05)
(0.00233654 6.14042e-07 -1.40999e-05)
(0.00236632 -2.36669e-06 -1.14075e-05)
(0.00232533 -4.79556e-06 -7.34602e-06)
(0.00231032 -7.02171e-06 -2.47132e-06)
(0.00226937 -8.28885e-06 2.68606e-06)
(0.0022526 -8.32983e-06 9.18238e-06)
(0.00216448 -7.20055e-06 1.62434e-05)
(0.00232594 5.81711e-06 -2.01268e-05)
(0.00233951 3.25817e-06 -1.81363e-05)
(0.00232116 6.1288e-07 -1.59832e-05)
(0.00234957 -2.36231e-06 -1.36333e-05)
(0.00231652 -5.05087e-06 -1.05371e-05)
(0.0022863 -6.51939e-06 -6.00707e-06)
(0.00223745 -7.6756e-06 -1.95998e-06)
(0.002211 -6.9742e-06 3.97234e-06)
(0.00213776 -9.15988e-06 7.18401e-06)
)
;

boundaryField
{
    inlet
    {
        type            zeroGradient;
    }
    outlet
    {
        type            zeroGradient;
    }
    wall
    {
        type            zeroGradient;
    }
    procBoundary7to0
    {
        type            processor;
        value           uniform (0.0023961 8.63254e-06 -3.38837e-05);
    }
    procBoundary7to1
    {
        type            processor;
        value           uniform (0.00240976 1.26707e-05 -2.80111e-05);
    }
    procBoundary7to3
    {
        type            processor;
        value           nonuniform List<vector> 
36
(
(0.00245137 1.55944e-05 -3.43197e-05)
(0.00249091 1.79475e-05 -2.81605e-05)
(0.00245752 1.76367e-05 -2.25196e-05)
(0.00247961 1.58565e-05 -1.67963e-05)
(0.00243299 1.36006e-05 -1.23796e-05)
(0.00244336 1.19026e-05 -7.52633e-06)
(0.00238612 1.07725e-05 -8.29476e-06)
(0.00235792 1.13576e-05 -9.51255e-06)
(0.00227483 9.8166e-06 -2.51105e-05)
(0.00245258 1.38552e-05 -3.52146e-05)
(0.00247596 1.43891e-05 -2.90687e-05)
(0.00244953 1.41506e-05 -2.39886e-05)
(0.00244634 1.3644e-05 -1.9081e-05)
(0.00241922 1.38461e-05 -1.53224e-05)
(0.00244621 1.61095e-05 -1.17724e-05)
(0.00239148 1.97319e-05 -1.36793e-05)
(0.00237269 2.73611e-05 -1.69879e-05)
(0.00227337 3.65688e-05 -3.15781e-05)
(0.00246187 1.33323e-05 -3.75252e-05)
(0.0025008 1.25217e-05 -3.24924e-05)
(0.00246833 1.17407e-05 -2.76586e-05)
(0.00247736 1.1553e-05 -2.34522e-05)
(0.00245434 1.35484e-05 -2.13002e-05)
(0.00248522 1.76822e-05 -2.05273e-05)
(0.00243032 2.64568e-05 -2.46858e-05)
(0.00240467 3.99053e-05 -3.26882e-05)
(0.00229292 6.10303e-05 -5.23291e-05)
(0.00243402 1.24019e-05 -3.85487e-05)
(0.00244398 1.08608e-05 -3.33791e-05)
(0.00243249 9.56049e-06 -2.95644e-05)
(0.00245261 9.06832e-06 -2.63174e-05)
(0.00245027 1.11659e-05 -2.56855e-05)
(0.00246846 1.53992e-05 -2.53445e-05)
(0.00240428 2.60657e-05 -3.17134e-05)
(0.00239501 4.03219e-05 -4.18688e-05)
(0.00229022 5.85276e-05 -6.36085e-05)
)
;
    }
    procBoundary7to5
    {
        type            processor;
        value           nonuniform List<vector> 
44
(
(0.00244263 1.62139e-05 -2.23641e-05)
(0.00240477 1.61505e-05 -1.66678e-05)
(0.00242843 1.48001e-05 -1.09298e-05)
(0.00238909 1.14753e-05 -5.44521e-06)
(0.00238646 8.30386e-06 7.10934e-07)
(0.00233689 3.903e-06 4.68599e-06)
(0.00230703 -4.33849e-07 7.7751e-06)
(0.0022341 -6.65435e-06 4.84714e-06)
(0.0023839 6.89174e-06 -2.20186e-05)
(0.00239276 7.76008e-06 -1.75445e-05)
(0.00238222 9.49631e-06 -1.06122e-05)
(0.00240844 8.88508e-06 -4.5566e-06)
(0.00236785 6.55092e-06 1.6934e-06)
(0.00237963 3.91987e-06 9.61433e-06)
(0.00232262 -4.64114e-07 1.69753e-05)
(0.00230426 -4.79395e-06 2.64135e-05)
(0.00222302 -1.2924e-05 3.38213e-05)
(0.0023839 6.89174e-06 -2.20186e-05)
(0.00239276 7.76008e-06 -1.75445e-05)
(0.00239276 7.76008e-06 -1.75445e-05)
(0.00237972 2.88609e-06 -8.53575e-06)
(0.00239849 1.56238e-06 -3.53206e-06)
(0.00238453 1.44728e-06 6.73889e-06)
(0.00239102 -7.6114e-07 1.49481e-05)
(0.00234215 -5.34792e-06 2.52491e-05)
(0.00233092 -1.04889e-05 3.93619e-05)
(0.00224044 -2.05439e-05 5.96301e-05)
(0.0023706 3.4151e-06 -1.66639e-05)
(0.0024164 3.80632e-06 -1.30037e-05)
(0.00237972 2.88609e-06 -8.53575e-06)
(0.00239849 1.56238e-06 -3.53206e-06)
(0.00239849 1.56238e-06 -3.53206e-06)
(0.00235061 -4.50459e-06 5.08087e-06)
(0.00234045 -6.19337e-06 1.19598e-05)
(0.00232418 -8.61764e-06 2.82751e-05)
(0.002315 -1.21283e-05 3.89678e-05)
(0.00222272 -2.22711e-05 6.32024e-05)
(0.00234207 1.29705e-06 -1.38155e-05)
(0.00236806 1.11709e-06 -1.05385e-05)
(0.00235163 -1.9705e-08 -6.51622e-06)
(0.00236692 -1.66461e-06 -1.77387e-06)
(0.00235061 -4.50459e-06 5.08087e-06)
(0.00234045 -6.19337e-06 1.19598e-05)
(0.00234045 -6.19337e-06 1.19598e-05)
)
;
    }
    procBoundary7to6
    {
        type            processor;
        value           nonuniform List<vector> 
12
(
(0.00242501 1.05723e-05 -3.4974e-05)
(0.00244401 1.2752e-05 -3.74775e-05)
(0.00240141 1.24688e-05 -3.80587e-05)
(0.00241262 7.71972e-06 -2.81471e-05)
(0.00242729 1.03062e-05 -3.04276e-05)
(0.00239839 1.1055e-05 -3.15786e-05)
(0.00240523 5.7316e-06 -2.18017e-05)
(0.00242111 9.13079e-06 -2.35757e-05)
(0.00238198 9.75125e-06 -2.50843e-05)
(0.00236395 4.29048e-06 -1.83137e-05)
(0.00237498 7.49755e-06 -2.0379e-05)
(0.00236037 8.53639e-06 -2.19021e-05)
)
;
    }
}


// ************************************************************************* //
