/*--------------------------------*- C++ -*----------------------------------*\
| =========                 |                                                 |
| \\      /  F ield         | OpenFOAM: The Open Source CFD Toolbox           |
|  \\    /   O peration     | Version:  4.x                                   |
|   \\  /    A nd           | Web:      www.OpenFOAM.org                      |
|    \\/     M anipulation  |                                                 |
\*---------------------------------------------------------------------------*/
FoamFile
{
    version     2.0;
    format      ascii;
    class       volScalarField;
    location    "39.5";
    object      KslNext;
}
// * * * * * * * * * * * * * * * * * * * * * * * * * * * * * * * * * * * * * //

dimensions      [1 -3 -1 0 0 0 0];

internalField   nonuniform List<scalar> 
132
(
1e+10
3782.56
1e+10
3769.77
1e+10
3802.46
1e+10
4218.18
24134.4
1e+10
3844.83
1e+10
3883.39
99478.3
3962.69
18297.6
4182.53
6822.32
15049.9
3434.96
15270.4
3270.95
14132.8
3093.26
11865
2770.63
9464.23
6785.51
3071.9
7032.9
2972.06
7677.7
2881.35
9079.62
2674.78
10936.3
1e+10
3767.76
1e+10
3766.57
1e+10
4061.55
14521.8
1e+10
3883.46
1e+10
3789.16
1e+10
3690.66
1e+10
3626.29
29099.2
3.13003e+06
3803.38
1e+10
3879.9
1e+10
4189.1
1e+10
5091.09
22416.1
9284.25
3350.61
11973.9
3385.2
18219.7
3477.36
28881.1
3684.7
31918.6
38177.7
3438.77
19010.8
3530.01
6672.04
1.43635e+06
3729.08
1e+10
3722.74
1e+10
3832.89
50309.9
4082.71
8123.08
16104.7
3457.08
17833.9
3267.33
17101.3
2969.87
13895
2507.17
8788.7
6476.48
3068.36
6731.14
3015.36
7388.59
2907.66
9052.35
2614.9
13178.8
8669.7
2438.68
9091.32
8983.39
3260.8
9967.94
3198.61
10722.8
3071.24
11432.3
2825.79
13883.1
6696.09
3079.05
7059.27
3052.86
7955.16
2920.27
9515.95
2741.06
14757.1
5111.83
2869.41
5274.7
2892.19
5720.68
2894.49
6182.58
3136.07
5982.17
)
;

boundaryField
{
    inlet
    {
        type            zeroGradient;
    }
    outlet
    {
        type            zeroGradient;
    }
    wall
    {
        type            zeroGradient;
    }
    procBoundary7to0
    {
        type            processor;
        value           uniform 0;
    }
    procBoundary7to1
    {
        type            processor;
        value           uniform 0;
    }
    procBoundary7to3
    {
        type            processor;
        value           uniform 0;
    }
    procBoundary7to5
    {
        type            processor;
        value           uniform 0;
    }
    procBoundary7to6
    {
        type            processor;
        value           uniform 0;
    }
}


// ************************************************************************* //
