/*--------------------------------*- C++ -*----------------------------------*\
| =========                 |                                                 |
| \\      /  F ield         | OpenFOAM: The Open Source CFD Toolbox           |
|  \\    /   O peration     | Version:  4.x                                   |
|   \\  /    A nd           | Web:      www.OpenFOAM.org                      |
|    \\/     M anipulation  |                                                 |
\*---------------------------------------------------------------------------*/
FoamFile
{
    version     2.0;
    format      ascii;
    class       surfaceScalarField;
    location    "39.5";
    object      phi;
}
// * * * * * * * * * * * * * * * * * * * * * * * * * * * * * * * * * * * * * //

dimensions      [0 3 -1 0 0 0 0];

internalField   nonuniform List<scalar> 
308
(
5.24604e-06
-2.77602e-13
5.30912e-06
8.62871e-08
5.21872e-06
-5.1534e-13
-2.04163e-14
5.2936e-06
1.06428e-07
8.16315e-08
5.08314e-06
5.92475e-08
-8.5559e-13
5.16954e-06
1.17351e-07
3.11151e-07
4.35769e-06
4.78439e-07
-2.06759e-12
5.17808e-06
-6.46434e-07
7.84089e-07
2.02741e-06
1.12217e-07
5.18065e-06
1.23674e-07
-1.09529e-13
5.24356e-06
8.78134e-08
-4.65172e-09
5.07051e-06
1.73052e-07
-2.7612e-13
5.36894e-06
-2.50432e-08
2.97137e-08
5.04943e-06
3.79538e-07
-2.08248e-08
5.95e-06
-3.72948e-07
1.4434e-07
5.31342e-06
1.1153e-06
-6.32481e-08
6.48708e-06
-1.33851e-06
3.93197e-07
3.17377e-06
2.83876e-07
7.15294e-06
5.39925e-08
-1.2322e-07
7.23847e-06
6.86716e-09
-5.77071e-08
7.32718e-06
6.12533e-08
-1.8945e-07
7.51887e-06
-1.56232e-07
-9.29679e-08
7.63817e-06
1.70592e-07
-3.39095e-07
7.86114e-06
-4.67877e-07
-3.60622e-10
8.07857e-06
4.88771e-07
-6.24938e-07
7.95785e-06
-9.18875e-07
6.16916e-07
1.2694e-06
-8.34625e-07
9.38806e-06
-3.51662e-07
9.37082e-06
-2.4116e-07
9.38291e-06
-4.61655e-07
9.26582e-06
-2.15506e-07
9.25856e-06
-6.14056e-07
8.88495e-06
-3.71037e-08
8.97799e-06
-9.09869e-07
8.26312e-06
6.64713e-07
-1.26632e-06
5.12972e-06
-8.0092e-13
5.20262e-06
-5.37323e-08
5.04629e-06
-5.89667e-13
1.3205e-07
5.13113e-06
-5.33912e-09
1.9804e-07
4.50929e-06
-1.71739e-13
4.35489e-07
5.81491e-06
3.03887e-07
-2.1144e-07
-3.10936e-07
2.33733e-06
5.039e-06
8.75559e-10
1.46055e-09
5.10018e-06
-8.86306e-08
-1.316e-08
5.10017e-06
3.89026e-13
1.36757e-12
5.17288e-06
-1.09263e-07
1.25414e-08
5.15205e-06
4.15959e-13
9.45216e-13
5.23668e-06
-1.85321e-08
7.29045e-08
5.0639e-06
5.48207e-15
1.09531e-07
5.81915e-06
-5.67484e-08
-1.41425e-09
-5.25578e-08
1.01717e-06
5.1639e-06
1.93567e-08
1.24635e-08
5.23972e-06
-1.63952e-07
-5.82049e-08
5.00456e-06
2.00001e-08
2.57037e-08
5.07894e-06
-2.32762e-07
-4.38474e-08
4.5551e-06
6.22144e-08
1.22532e-07
4.63993e-06
-1.53349e-07
4.96308e-08
3.5812e-06
8.96193e-08
3.4417e-07
4.51923e-06
-3.1516e-07
-6.27065e-08
2.10273e-07
1.33667e-06
7.88443e-06
-1.5636e-07
7.51488e-06
-3.55557e-08
7.25754e-06
-1.84315e-07
6.8327e-06
-2.34373e-08
6.43212e-06
-1.51259e-07
6.19193e-06
4.97444e-08
5.49549e-06
-1.23811e-07
5.60704e-06
2.38001e-07
7.4067e-07
5.96485e-06
-3.11786e-08
6.53452e-06
-1.29945e-07
6.04845e-06
-5.73817e-09
7.62947e-07
7.11779e-06
-3.99028e-07
-7.46749e-07
8.11655e-07
3.03879e-06
5.21894e-06
5.1649e-08
4.5978e-08
5.29104e-06
9.37575e-09
-3.46342e-08
5.17359e-06
5.58535e-08
4.89586e-08
5.24769e-06
-1.02858e-07
6.09058e-09
4.94416e-06
1.21079e-07
1.5127e-07
5.41775e-06
-4.27614e-07
-1.03014e-07
4.77099e-06
3.59819e-07
3.90735e-07
6.26415e-06
-1.20944e-06
-6.84162e-07
1.96293e-06
1.61607e-06
6.85074e-06
5.49699e-08
3.62041e-09
6.84447e-06
-1.10808e-09
-4.14502e-08
6.98005e-06
2.41782e-09
-5.64454e-08
7.15331e-06
-1.47226e-07
-1.7274e-07
7.46994e-06
-2.41309e-08
-4.88875e-08
7.80651e-06
-4.67918e-07
-2.46632e-07
8.5031e-06
-4.13179e-09
1.15328e-08
8.63171e-06
-9.12239e-07
-4.88518e-07
5.759e-07
9.82779e-07
9.28775e-06
-6.68619e-08
9.25331e-06
-2.22104e-09
9.17711e-06
-1.05693e-07
9.05105e-06
-4.46023e-08
9.04095e-06
-1.65294e-07
8.66688e-06
-4.41003e-08
8.89517e-06
-3.56234e-07
8.1659e-06
5.50325e-08
2.36989e-07
9.61162e-06
-7.38496e-07
9.12193e-06
2.28442e-07
-1.3029e-06
8.04135e-06
-2.56309e-08
7.92464e-06
-3.23271e-08
7.83802e-06
-9.19316e-08
7.83242e-06
-1.39362e-07
7.84734e-06
-2.35532e-07
7.84409e-06
-2.31198e-07
7.96473e-06
-4.68394e-07
7.61512e-06
-1.06117e-07
-8.14088e-07
9.11203e-06
-1.05278e-08
9.05852e-06
-2.02655e-08
8.97317e-06
-6.30253e-08
8.78427e-06
-1.23197e-07
8.72271e-06
-2.22863e-07
8.42142e-06
-1.76538e-07
8.47461e-06
-5.10054e-07
7.86417e-06
1.58084e-08
-1.29167e-06
1.04075e-05
1.0385e-05
1.02163e-05
1.00485e-05
9.66032e-06
9.43968e-06
8.5734e-06
8.64424e-06
)
;

boundaryField
{
    inlet
    {
        type            calculated;
        value           nonuniform 0();
    }
    outlet
    {
        type            calculated;
        value           nonuniform List<scalar> 
16
(
1.72012e-06
5.21018e-06
8.56285e-06
8.40651e-06
3.11292e-06
4.82747e-06
2.08511e-06
3.81032e-06
4.74768e-06
4.51397e-06
1.03726e-05
9.24548e-06
1.2102e-05
8.74238e-06
9.32453e-06
7.58955e-06
)
;
    }
    wall
    {
        type            calculated;
        value           nonuniform List<scalar> 
66
(
0
0
0
0
0
0
0
0
0
0
0
0
0
0
0
0
0
0
0
0
0
0
0
0
0
0
0
0
0
0
0
0
0
-1.2326e-32
0
2.46519e-32
0
0
0
0
0
0
0
0
0
0
0
0
0
0
6.16298e-33
0
0
0
0
0
0
0
0
0
0
0
0
0
0
0
)
;
    }
    procBoundary7to0
    {
        type            processor;
        value           uniform -5.34423e-06;
    }
    procBoundary7to1
    {
        type            processor;
        value           uniform -7.94482e-13;
    }
    procBoundary7to3
    {
        type            processor;
        value           nonuniform List<scalar> 
36
(
9.81916e-08
1.90529e-08
9.03953e-08
-9.07687e-08
1.51217e-07
-3.86666e-07
3.33416e-07
-1.38058e-06
1.56055e-06
-7.88724e-13
-5.97908e-08
-1.0694e-12
-1.96665e-07
2.00388e-08
-5.54608e-07
6.29642e-08
-8.74775e-07
-1.53337e-07
1.54461e-07
5.31156e-08
2.12539e-07
3.24674e-08
4.28747e-07
-1.27687e-07
1.03404e-06
-9.15828e-07
2.13399e-06
3.88157e-07
2.65266e-07
5.10822e-07
1.76366e-07
7.91898e-07
-5.71594e-08
1.3056e-06
-8.68716e-07
2.39232e-06
)
;
    }
    procBoundary7to5
    {
        type            processor;
        value           nonuniform List<scalar> 
44
(
-1.60339e-07
-1.35312e-12
-1.72169e-07
-1.44281e-12
-1.28233e-07
-2.5805e-12
4.22533e-07
-2.42225e-07
1.39531e-13
-8.07586e-09
9.86579e-13
4.90079e-09
2.42807e-08
3.36134e-08
1.86351e-07
-6.13986e-07
7.87817e-07
4.15414e-13
-5.18047e-06
3.59629e-08
5.07481e-08
5.75574e-08
2.99926e-08
-1.15861e-07
1.64354e-07
-1.35002e-07
8.5699e-07
1.62372e-08
-6.00037e-08
1.26382e-08
-6.07341e-06
3.52187e-08
2.41797e-07
-1.25822e-07
7.97642e-07
-4.855e-07
1.3616e-06
1.45832e-07
1.14408e-07
2.2751e-07
1.51054e-07
3.7188e-07
-8.90782e-06
1.31429e-07
)
;
    }
    procBoundary7to6
    {
        type            processor;
        value           nonuniform List<scalar> 
12
(
-5.30432e-06
-7.1145e-06
-9.37056e-06
-5.04134e-06
-5.31806e-06
-8.06038e-06
-5.33135e-06
-6.84522e-06
-9.32228e-06
-8.11558e-06
-9.12352e-06
-1.04849e-05
)
;
    }
}


// ************************************************************************* //
