/*--------------------------------*- C++ -*----------------------------------*\
| =========                 |                                                 |
| \\      /  F ield         | OpenFOAM: The Open Source CFD Toolbox           |
|  \\    /   O peration     | Version:  4.x                                   |
|   \\  /    A nd           | Web:      www.OpenFOAM.org                      |
|    \\/     M anipulation  |                                                 |
\*---------------------------------------------------------------------------*/
FoamFile
{
    version     2.0;
    format      ascii;
    class       volScalarField;
    location    "39.5";
    object      pSmooth;
}
// * * * * * * * * * * * * * * * * * * * * * * * * * * * * * * * * * * * * * //

dimensions      [1 -1 -2 0 0 0 0];

internalField   nonuniform List<scalar> 
132
(
21.1378
74.8093
2.62341
68.2659
0.1
62.4601
0.1
57.1723
0.1
20.9796
74.8124
2.45124
68.0517
0.1
61.1357
0.1
54.6775
0.1
19.2924
74.6964
0.1
68.2093
0.1
62.6455
0.1
59.433
0.1
19.7307
74.7687
0.425147
68.4642
0.1
62.9122
0.1
59.2284
0.1
3.72518
68.2251
0.1
62.4822
0.1
56.4896
0.1
22.221
74.7693
4.09824
68.4154
0.1
62.562
0.1
56.6931
0.1
20.7883
74.7162
2.46115
68.2617
0.1
62.3558
0.1
56.2552
0.1
20.6842
75.0693
2.11256
68.8054
0.1
62.8446
0.1
57.2547
0.1
0.1
61.8309
0.1
56.6507
0.1
21.1287
74.7726
2.7059
68.1534
0.1
61.2734
0.1
54.4284
0.1
20.5846
74.8052
1.59552
68.1827
0.1
62.2983
0.1
58.2855
0.1
20.6634
74.8321
1.92855
68.4553
0.1
62.6651
0.1
58.1528
0.1
0.1
58.7373
0.1
20.9506
74.8909
2.25443
68.3502
0.1
62.2836
0.1
57.151
0.1
20.7329
74.8464
2.11246
68.5185
0.1
62.78
0.1
58.286
0.1
20.917
74.8937
2.33792
68.6185
0.1
62.6771
0.1
57.2617
0.1
)
;

boundaryField
{
    inlet
    {
        type            zeroGradient;
    }
    outlet
    {
        type            fixedValue;
        value           uniform 0;
    }
    wall
    {
        type            zeroGradient;
    }
    procBoundary7to0
    {
        type            processor;
        value           uniform 81.8069;
    }
    procBoundary7to1
    {
        type            processor;
        value           uniform 22.2389;
    }
    procBoundary7to3
    {
        type            processor;
        value           nonuniform List<scalar> 
36
(
18.9826
74.6708
0.1
68.2612
0.1
63.0078
0.1
58.8176
0.1
20.5453
74.6997
2.23466
68.5914
0.1
63.2461
0.1
58.0031
0.1
19.4444
74.7876
0.198478
68.1608
0.1
62.4984
0.1
58.4437
0.1
19.5301
74.7946
0.425799
68.7596
0.1
63.5231
0.1
60.1736
0.1
)
;
    }
    procBoundary7to5
    {
        type            processor;
        value           nonuniform List<scalar> 
44
(
75.0232
4.67136
68.4141
0.1
61.7379
0.1
53.7405
0.1
21.6716
74.6843
2.45957
68.2677
0.1
62.418
0.1
57.713
0.1
21.6716
74.6843
74.6843
1.76749
67.9898
0.1
61.2742
0.1
54.5172
0.1
20.6349
74.8201
1.76749
67.9898
67.9898
0.1
62.6621
0.1
58.9498
0.1
20.4523
74.766
1.46589
68.3859
0.1
62.6621
62.6621
)
;
    }
    procBoundary7to6
    {
        type            processor;
        value           nonuniform List<scalar> 
12
(
81.9757
81.6069
81.5625
81.6781
81.8769
81.7726
82.0827
81.8149
81.6637
81.7543
81.6411
81.5998
)
;
    }
}


// ************************************************************************* //
