/*--------------------------------*- C++ -*----------------------------------*\
| =========                 |                                                 |
| \\      /  F ield         | OpenFOAM: The Open Source CFD Toolbox           |
|  \\    /   O peration     | Version:  4.x                                   |
|   \\  /    A nd           | Web:      www.OpenFOAM.org                      |
|    \\/     M anipulation  |                                                 |
\*---------------------------------------------------------------------------*/
FoamFile
{
    version     2.0;
    format      ascii;
    class       volScalarField;
    location    "39.5";
    object      QPartFluid;
}
// * * * * * * * * * * * * * * * * * * * * * * * * * * * * * * * * * * * * * //

dimensions      [1 -1 -3 0 0 0 0];

internalField   nonuniform List<scalar> 
132
(
9.98866e+09
9.1069e+09
6.40733e+09
7.94874e+09
1.10788e+10
1.24927e+10
7.99253e+09
6.53219e+09
6.16209e+09
7.44549e+09
1.13827e+10
7.40328e+09
8.13611e+09
8.37845e+09
6.9456e+09
7.9301e+09
7.69841e+09
6.87866e+09
5.26472e+09
9.42496e+09
6.91181e+09
8.98509e+09
8.34842e+09
1.0541e+10
8.68024e+09
9.17881e+09
6.92294e+09
7.06209e+09
7.52463e+09
8.95372e+09
5.98286e+09
7.92009e+09
8.03675e+09
8.05153e+09
7.03428e+09
3.61872e+09
6.55054e+09
8.65789e+09
7.00273e+09
8.22714e+09
8.83165e+09
9.92647e+09
6.14485e+09
3.84296e+09
1.01142e+10
7.31627e+09
8.88064e+09
8.63935e+09
8.31311e+09
5.68862e+09
9.07743e+09
4.60239e+09
6.00137e+09
1.01487e+10
7.53549e+09
7.31406e+09
8.2004e+09
1.05174e+10
9.49382e+09
8.34772e+09
6.18808e+09
6.74888e+09
8.66925e+09
6.10495e+09
8.0629e+09
7.06054e+09
6.71278e+09
6.09742e+09
8.65004e+09
4.02957e+09
5.06306e+09
7.29283e+09
8.30401e+09
7.68659e+09
4.70867e+09
8.54406e+09
9.15461e+09
7.08053e+09
6.52138e+09
9.14078e+09
8.83531e+09
7.81999e+09
1.0753e+10
6.92445e+09
8.18617e+09
9.49261e+09
8.60393e+09
9.0008e+09
9.24773e+09
9.8921e+09
8.82606e+09
9.28961e+09
6.79189e+09
6.02862e+09
7.33408e+09
7.18879e+09
8.1121e+09
6.43886e+09
6.78798e+09
8.05256e+09
8.13536e+09
4.96789e+09
5.89944e+09
8.14991e+09
4.88686e+09
7.29931e+09
7.0171e+09
7.52748e+09
8.69241e+09
5.20796e+09
4.97475e+09
7.03034e+09
7.94544e+09
4.44704e+09
6.331e+09
6.79176e+09
6.33361e+09
7.79029e+09
7.3034e+09
7.15525e+09
7.54475e+09
7.69392e+09
5.94242e+09
6.09326e+09
8.28722e+09
5.89577e+09
7.15322e+09
7.28142e+09
6.96838e+09
6.43033e+09
6.99791e+09
3.54549e+09
)
;

boundaryField
{
    inlet
    {
        type            calculated;
        value           nonuniform 0();
    }
    outlet
    {
        type            calculated;
        value           uniform 0;
    }
    wall
    {
        type            calculated;
        value           uniform 0;
    }
    procBoundary7to0
    {
        type            processor;
        value           uniform 2.60132e+09;
    }
    procBoundary7to1
    {
        type            processor;
        value           uniform 5.88673e+09;
    }
    procBoundary7to3
    {
        type            processor;
        value           nonuniform List<scalar> 
36
(
8.17989e+09
1.09826e+10
9.15921e+09
1.0323e+10
6.56113e+09
7.79501e+09
9.07688e+09
8.40855e+09
6.92208e+09
9.53941e+09
6.15615e+09
8.136e+09
5.00929e+09
4.37199e+09
9.43297e+09
7.61527e+09
1.06262e+10
5.11297e+09
6.04924e+09
1.0344e+10
9.22866e+09
7.30002e+09
7.44999e+09
1.0031e+10
8.16005e+09
9.37399e+09
5.11586e+09
8.80812e+09
4.89932e+09
5.82993e+09
7.02495e+09
6.49609e+09
8.68292e+09
6.45798e+09
9.66648e+09
7.64504e+09
)
;
    }
    procBoundary7to5
    {
        type            processor;
        value           nonuniform List<scalar> 
44
(
9.94933e+09
6.13992e+09
8.70999e+09
5.87808e+09
5.30784e+09
7.43705e+09
6.23719e+09
6.66387e+09
1.02688e+10
5.07523e+09
7.29222e+09
9.13546e+09
6.1852e+09
8.45058e+09
7.30875e+09
8.14213e+09
4.52306e+09
1.02688e+10
5.07523e+09
5.07523e+09
9.5916e+09
9.98617e+09
1.13734e+10
9.28533e+09
9.1049e+09
1.10289e+10
8.32755e+09
5.31039e+09
1.17387e+10
9.5916e+09
9.98617e+09
9.98617e+09
1.04199e+10
8.56422e+09
7.04991e+09
8.25159e+09
6.48799e+09
7.19388e+09
6.48434e+09
7.33416e+09
6.74702e+09
1.04199e+10
8.56422e+09
8.56422e+09
)
;
    }
    procBoundary7to6
    {
        type            processor;
        value           nonuniform List<scalar> 
12
(
8.08508e+09
8.93894e+09
5.61492e+09
9.95908e+09
9.39649e+09
8.79379e+09
9.56832e+09
9.97439e+09
6.88335e+09
4.54175e+09
8.47608e+09
7.19292e+09
)
;
    }
}


// ************************************************************************* //
