/*--------------------------------*- C++ -*----------------------------------*\
  =========                 |
  \\      /  F ield         | OpenFOAM: The Open Source CFD Toolbox
   \\    /   O peration     | Website:  https://openfoam.org
    \\  /    A nd           | Version:  4.x
     \\/     M anipulation  |
\*---------------------------------------------------------------------------*/
FoamFile
{
    version     2.0;
    format      ascii;
    class       Cloud<passiveParticle>;
    location    0;
    object      positions;
}
// * * * * * * * * * * * * * * * * * * * * * * * * * * * * * * * * * * * * * //

303
(
( 0.252979 0.0900441 -0.0558169 ) 63
( 0.250462 0.0316231 -0.0549451 ) 45
( 0.250283 0.0300118 -0.0351604 ) 81
( 0.254059 0.0693124 -0.0504312 ) 54
( 0.251023 0.0682541 -0.0699697 ) 54
( 0.25055 0.0107812 -0.0752862 ) 0
( 0.25005 0.0882477 -0.021702 ) 99
( 0.250102 0.0359574 -0.0743607 ) 9
( 0.256 0.0312881 -0.0150696 ) 81
( 0.381185 -0.0139639 -0.0338189 ) 76
( 0.421059 -0.0111273 -0.0808185 ) 6
( 0.473704 -0.00617918 -0.0415314 ) 80
( 0.324537 -0.0104855 -0.0764025 ) 2
( 0.404 -0.00383521 -0.0735621 ) 5
( 0.490067 -0.010979 -0.0578477 ) 44
( 0.371725 -0.00591315 -0.0492934 ) 40
( 0.468619 -0.00182034 -0.0854636 ) 7
( 0.34264 -0.00282813 -0.0731179 ) 3
( 0.334697 -0.014023 -0.0328664 ) 75
( 0.439304 -0.00180124 -0.0578329 ) 42
( 0.321651 -0.0117913 -0.0474315 ) 38
( 0.360813 -0.000885187 -0.0651468 ) 39
( 0.31065 -0.00595271 -0.0628171 ) 38
( 0.354255 -0.0122603 -0.0387157 ) 75
( 0.272143 -0.00316617 -0.0685238 ) 36
( 0.283851 -0.0122199 -0.0389884 ) 73
( 0.436699 0.00061063 -0.0773561 ) 6
( 0.490041 -0.0122164 -0.0777261 ) 8
( 0.302423 -0.00847835 -0.0445063 ) 37
( 0.394164 -0.00440999 -0.0448555 ) 41
( 0.472401 -0.0116087 -0.0684733 ) 44
( 0.275385 -0.0100718 -0.0201221 ) 72
( 0.473074 -0.0126267 -0.0212249 ) 80
( 0.387651 0.0265193 -0.0548129 ) 49
( 0.303851 0.0719173 -0.0647685 ) 64
( 0.337009 0.0639455 -0.04677 ) 57
( 0.325535 0.0165104 -0.048467 ) 47
( 0.443415 0.0376317 -0.0466895 ) 51
( 0.286623 0.0647051 -0.0582622 ) 55
( 0.331223 0.0508589 -0.060538 ) 56
( 0.455285 0.0130362 -0.0859091 ) 7
( 0.369672 0.0348463 -0.0532763 ) 49
( 0.490048 0.0227661 -0.0532065 ) 53
( 0.324499 0.0376732 -0.0746634 ) 11
( 0.293266 0.0258912 -0.0575242 ) 46
( 0.379221 0.00960752 -0.0642723 ) 40
( 0.470483 0.0687522 -0.0577948 ) 61
( 0.431383 0.0711124 -0.0625276 ) 60
( 0.456057 0.0710457 -0.078516 ) 25
( 0.342739 0.0322599 -0.0689382 ) 48
( 0.320125 0.0460956 -0.0446831 ) 56
( 0.300978 0.0614014 -0.0451355 ) 55
( 0.368748 0.0542627 -0.0494164 ) 58
( 0.353744 0.0455278 -0.0592017 ) 57
( 0.324369 0.0854193 -0.0375061 ) 101
( 0.353068 0.0836056 -0.0694696 ) 66
( 0.452523 0.0772203 -0.055592 ) 70
( 0.286361 0.0901523 -0.0309992 ) 100
( 0.417179 0.0203295 -0.0480615 ) 51
( 0.334359 0.0726017 -0.0645101 ) 66
( 0.388222 0.0701315 -0.0536302 ) 58
( 0.47122 0.0901252 -0.0645149 ) 70
( 0.473987 0.0680827 -0.038207 ) 98
( 0.490005 0.0146532 -0.0838758 ) 17
( 0.265362 0.0160721 -0.0366251 ) 81
( 0.39988 0.0666729 -0.0694184 ) 59
( 0.327085 0.0285501 -0.0321341 ) 83
( 0.349231 0.0640743 -0.0204897 ) 93
( 0.395523 0.0137001 -0.0779991 ) 5
( 0.306309 0.0318057 -0.0402856 ) 83
( 0.302949 0.0349618 -0.072358 ) 10
( 0.458137 0.0434149 -0.0606009 ) 61
( 0.272517 0.0513546 -0.0543092 ) 54
( 0.410967 0.0510412 -0.0599529 ) 59
( 0.457322 0.0242627 -0.0515127 ) 52
( 0.430481 0.0826184 -0.0787158 ) 33
( 0.365718 0.0410948 -0.0348509 ) 85
( 0.316012 0.031486 -0.0576618 ) 47
( 0.473517 0.0304707 -0.0613183 ) 53
( 0.366638 0.0114885 -0.0796572 ) 4
( 0.290682 0.0899549 -0.0503549 ) 64
( 0.26914 0.0164797 -0.071071 ) 45
( 0.405316 0.0262727 -0.0640932 ) 50
( 0.474269 0.0474009 -0.0500847 ) 62
( 0.441147 0.0386899 -0.0695424 ) 51
( 0.419577 0.0138289 -0.070392 ) 42
( 0.346453 0.0806652 -0.0509095 ) 66
( 0.438805 0.0558582 -0.0404788 ) 96
( 0.437439 0.0204305 -0.0763507 ) 15
( 0.478471 0.0748772 -0.075068 ) 35
( 0.334573 0.0339096 -0.0507959 ) 48
( 0.380778 0.0380822 -0.0694355 ) 49
( 0.460884 0.0406573 -0.0375704 ) 88
( 0.40143 0.0836735 -0.05938 ) 68
( 0.363238 0.0533991 -0.0747421 ) 22
( 0.280331 0.0682354 -0.0394782 ) 91
( 0.422385 0.0628931 -0.0782125 ) 24
( 0.371397 0.0898966 -0.0742379 ) 31
( 0.396971 0.0211253 -0.0382094 ) 86
( 0.347136 0.0156599 -0.079015 ) 12
( 0.352711 0.0296637 -0.0442914 ) 48
( 0.273362 0.0789132 -0.0546336 ) 63
( 0.490004 0.0338794 -0.0785376 ) 17
( 0.383713 0.0741862 -0.0839378 ) 31
( 0.45813 0.0291038 -0.0743791 ) 16
( 0.424208 0.0430629 -0.0791962 ) 24
( 0.2873 0.0824928 -0.0684587 ) 64
( 0.430892 0.0736606 -0.0429398 ) 69
( 0.490014 0.0897271 -0.0822934 ) 35
( 0.293527 0.0527081 -0.0725272 ) 19
( 0.326545 0.00586577 -0.0651795 ) 38
( 0.293747 0.0110829 -0.0708881 ) 37
( 0.351029 0.0159499 -0.030078 ) 84
( 0.490039 0.0536711 -0.0821087 ) 26
( 0.413009 0.0679776 -0.0496042 ) 59
( 0.319284 0.069139 -0.0770348 ) 20
( 0.457895 0.0583035 -0.0463289 ) 61
( 0.380875 0.00957848 -0.0399775 ) 76
( 0.473271 0.0107339 -0.0537121 ) 44
( 0.472188 0.0135662 -0.0733339 ) 7
( 0.283964 0.0211191 -0.0407508 ) 82
( 0.269269 0.0318666 -0.0484862 ) 45
( 0.36179 0.0187431 -0.061752 ) 49
( 0.472147 0.0230637 -0.0383428 ) 88
( 0.308165 0.0495776 -0.0292953 ) 92
( 0.370998 0.0729292 -0.0630188 ) 67
( 0.437707 0.0900975 -0.061656 ) 69
( 0.428941 0.00665121 -0.0395734 ) 78
( 0.488674 0.0765072 -0.0485548 ) 71
( 0.391266 0.050805 -0.0566677 ) 59
( 0.474854 0.0497564 -0.0697815 ) 62
( 0.406165 0.0514696 -0.0805566 ) 23
( 0.39838 0.0717434 -0.0366221 ) 104
( 0.39219 0.0901566 -0.0757437 ) 32
( 0.412475 0.0900744 -0.0746504 ) 32
( 0.273979 0.00936212 -0.0531848 ) 36
( 0.436522 0.0198829 -0.0540019 ) 51
( 0.444062 0.0900549 -0.0430252 ) 69
( 0.356178 0.00637137 -0.0471954 ) 39
( 0.329736 0.0900815 -0.0560042 ) 65
( 0.490192 0.0413572 -0.0601299 ) 53
( 0.433034 0.0252994 -0.0351616 ) 87
( 0.342581 0.015517 -0.058328 ) 48
( 0.363784 0.0727338 -0.0445141 ) 67
( 0.490254 0.0379955 -0.0405782 ) 89
( 0.469732 0.0900448 -0.0845795 ) 34
( 0.41944 0.0507388 -0.041899 ) 96
( 0.283483 0.0519898 -0.0219288 ) 91
( 0.425759 0.0902831 -0.0339618 ) 105
( 0.363538 0.0902227 -0.0539373 ) 67
( 0.300555 0.010621 -0.0394443 ) 73
( 0.265807 0.0902366 -0.0402592 ) 99
( 0.300747 0.0440993 -0.0548053 ) 55
( 0.342835 0.0554797 -0.0759745 ) 21
( 0.352714 0.0652381 -0.0617501 ) 57
( 0.398319 0.00856229 -0.059018 ) 41
( 0.382838 0.0900375 -0.0579714 ) 67
( 0.417396 0.0015737 -0.0549107 ) 42
( 0.448728 0.00807376 -0.0435278 ) 43
( 0.295531 0.0668936 -0.0270254 ) 91
( 0.385384 0.0566735 -0.0386926 ) 94
( 0.490525 0.0901601 -0.0624035 ) 71
( 0.399016 0.0329437 -0.0817755 ) 14
( 0.308314 0.0129861 -0.0574209 ) 38
( 0.490128 0.0523868 -0.0263937 ) 98
( 0.490049 0.0903472 -0.0346531 ) 107
( 0.270734 0.0663353 -0.0699033 ) 54
( 0.307655 0.0800865 -0.0470021 ) 65
( 0.464299 0.0900767 -0.0459548 ) 70
( 0.321952 0.0658369 -0.0339756 ) 92
( 0.490099 0.00456313 -0.0449924 ) 44
( 0.490014 0.0627415 -0.0643544 ) 62
( 0.266353 0.0471757 -0.0727522 ) 18
( 0.430969 0.051272 -0.058076 ) 60
( 0.347208 0.0904345 -0.0339088 ) 102
( 0.311518 0.09018 -0.0638099 ) 65
( 0.405461 0.0902584 -0.0410625 ) 104
( 0.490358 0.0573001 -0.0452934 ) 62
( 0.382604 0.0575292 -0.0732113 ) 22
( 0.455412 0.0494906 -0.079336 ) 25
( 0.473216 0.0277144 -0.087353 ) 17
( 0.26726 0.0901268 -0.0697409 ) 63
( 0.381367 0.0824899 -0.0396572 ) 103
( 0.452336 0.0118964 -0.0662577 ) 43
( 0.445192 0.0894017 -0.0903646 ) 34
( 0.375148 0.0248565 -0.0286464 ) 85
( 0.335113 0.090045 -0.0751056 ) 30
( 0.453639 0.0899786 -0.0727836 ) 34
( 0.318564 0.0647169 -0.0535831 ) 56
( 0.286868 0.0480204 -0.0410622 ) 91
( 0.447789 0.0599685 -0.0641824 ) 61
( 0.315744 0.0197933 -0.0745479 ) 11
( 0.474015 0.0715877 -0.0148999 ) 107
( 0.39339 0.0606373 -0.0209752 ) 95
( 0.410588 0.0815432 -0.0243013 ) 104
( 0.317417 0.0370055 -0.0168772 ) 83
( 0.455531 0.0776427 -0.016267 ) 106
( 0.390597 0.0155874 -0.0202774 ) 86
( 0.49 0.0185207 -0.0308287 ) 89
( 0.323619 0.0607034 -0.0149417 ) 92
( 0.36326 0.0817713 -0.0269967 ) 103
( 0.407681 0.0246423 -0.0171493 ) 86
( 0.440578 0.00383089 -0.023518 ) 78
( 0.466779 0.022968 -0.0192453 ) 88
( 0.34861 0.0851003 -0.014394 ) 102
( 0.380601 0.0455448 -0.0230138 ) 94
( 0.447748 0.0607652 -0.0235484 ) 97
( 0.43107 0.0440288 -0.0265384 ) 96
( 0.392931 0.0902347 -0.025451 ) 104
( 0.414732 0.043023 -0.0155164 ) 95
( 0.45824 0.00596988 -0.0147231 ) 79
( 0.490066 0.0721713 -0.0271418 ) 107
( 0.439546 0.0251582 -0.0164747 ) 87
( 0.305689 0.0221663 -0.0230508 ) 83
( 0.423836 0.0142636 -0.0212819 ) 78
( 0.269737 0.0900163 -0.0201613 ) 99
( 0.333226 0.0124422 -0.0221079 ) 74
( 0.414934 0.0620483 -0.0262597 ) 95
( 0.330885 0.0782995 -0.0202666 ) 101
( 0.270488 0.0348471 -0.028866 ) 81
( 0.380625 0.075077 -0.0213235 ) 103
( 0.471455 0.0895432 -0.0275695 ) 106
( 0.490086 0.0899624 -0.014674 ) 107
( 0.259492 0.0469084 -0.040001 ) 90
( 0.255896 -0.000337993 -0.0572217 ) 36
( 0.459502 -0.00336078 -0.0558408 ) 43
( 0.321358 -0.00174504 -0.0156998 ) 74
( 0.362228 0.0334728 -0.0751188 ) 13
( 0.419417 0.0900492 -0.0548781 ) 69
( 0.318661 0.0054083 -0.033757 ) 74
( 0.489753 0.00724926 -0.0654005 ) 44
( 0.409323 0.00579843 -0.0368386 ) 77
( 0.28018 0.0330804 -0.0705737 ) 46
( 0.265705 0.0564665 -0.0144964 ) 90
( 0.442735 0.0903512 -0.0234682 ) 105
( 0.474694 0.00637543 -0.0261882 ) 80
( 0.262251 0.0723654 -0.0326279 ) 99
( 0.387658 -0.00839908 -0.0631207 ) 40
( 0.423692 0.033195 -0.061941 ) 51
( 0.268936 0.0104205 -0.0179872 ) 72
( 0.427995 -0.0128009 -0.042131 ) 78
( 0.26608 -0.00363787 -0.0404342 ) 72
( 0.39651 -0.00297591 -0.0244273 ) 77
( 0.337234 0.000515919 -0.0461716 ) 39
( 0.254335 -0.00877708 -0.0752494 ) 0
( 0.331143 0.0476667 -0.0280604 ) 92
( 0.455438 0.0751338 -0.0359558 ) 106
( 0.376861 -0.00563569 -0.0795842 ) 4
( 0.312893 0.0524391 -0.0681195 ) 56
( 0.402842 0.0374025 -0.047874 ) 50
( 0.253086 0.0510506 -0.0583541 ) 54
( 0.288821 -0.00307417 -0.0577849 ) 37
( 0.348878 0.0496165 -0.0404594 ) 93
( 0.31376 -0.0138252 -0.0291779 ) 74
( 0.415406 0.0333695 -0.0331365 ) 86
( 0.347293 -0.002268 -0.0230031 ) 75
( 0.490139 -0.00980724 -0.0310274 ) 80
( 0.290349 0.034099 -0.0274131 ) 82
( 0.277426 0.0715862 -0.0197801 ) 99
( 0.367935 0.0606231 -0.0266171 ) 94
( 0.365272 0.00206818 -0.03025 ) 76
( 0.452221 0.0238677 -0.0322088 ) 88
( 0.305593 0.085454 -0.0279925 ) 101
( 0.476995 0.0378448 -0.0261733 ) 89
( 0.250348 0.0141006 -0.0235088 ) 72
( 0.420169 -0.00486113 -0.0242483 ) 78
( 0.350125 0.0418314 -0.0224162 ) 84
( 0.468199 0.055279 -0.0242806 ) 97
( 0.295135 -0.011006 -0.023016 ) 73
( 0.431858 0.073707 -0.0229919 ) 105
( 0.286585 0.00673271 -0.0261754 ) 73
( 0.456891 -0.00495492 -0.0310967 ) 79
( 0.399529 0.0436508 -0.0284265 ) 95
( 0.449889 0.0412098 -0.0212584 ) 88
( 0.346271 -0.0137402 -0.0568856 ) 39
( 0.281668 -0.0119609 -0.0836188 ) 1
( 0.470901 0.0602001 -0.0862713 ) 25
( 0.380445 0.0250298 -0.0844796 ) 13
( 0.383904 0.0443576 -0.0881047 ) 22
( 0.300192 0.0677026 -0.0838935 ) 19
( 0.347305 0.0394493 -0.0869417 ) 12
( 0.445084 0.0342641 -0.0885653 ) 16
( 0.275578 0.0792708 -0.0842513 ) 27
( 0.282889 0.0197346 -0.0851557 ) 10
( 0.329336 0.00859443 -0.0847024 ) 2
( 0.278715 0.056495 -0.0852953 ) 19
( 0.363946 0.0721291 -0.0816191 ) 31
( 0.301953 0.0874006 -0.081047 ) 28
( 0.311021 0.0459706 -0.0868744 ) 20
( 0.266301 0.0307909 -0.0846964 ) 9
( 0.343026 0.073857 -0.0836574 ) 30
( 0.356901 0.0900346 -0.0879278 ) 30
( 0.407957 0.0742772 -0.0859678 ) 32
( 0.253327 0.0900634 -0.0839285 ) 27
( 0.417132 0.0257619 -0.0861424 ) 15
( 0.308612 0.00224291 -0.0808482 ) 2
( 0.438038 0.0548048 -0.0875389 ) 24
( 0.260772 0.0655772 -0.0871555 ) 18
( 0.289905 0.0392802 -0.0868298 ) 10
( 0.302166 0.0234856 -0.0886618 ) 10
( 0.320443 0.088298 -0.0884776 ) 29
( 0.265781 0.00374959 -0.0860945 ) 0
( 0.328047 0.0560821 -0.0893231 ) 20
)
