/*--------------------------------*- C++ -*----------------------------------*\
| =========                 |                                                 |
| \\      /  F ield         | OpenFOAM: The Open Source CFD Toolbox           |
|  \\    /   O peration     | Version:  4.x                                   |
|   \\  /    A nd           | Web:      www.OpenFOAM.org                      |
|    \\/     M anipulation  |                                                 |
\*---------------------------------------------------------------------------*/
FoamFile
{
    version     2.0;
    format      ascii;
    class       volScalarField;
    location    "45";
    object      particleRelTemp;
}
// * * * * * * * * * * * * * * * * * * * * * * * * * * * * * * * * * * * * * //

dimensions      [0 0 0 0 0 0 0];

internalField   nonuniform List<scalar> 
108
(
-4.50983e-12
-2.0112e-12
1.4741e-12
4.53956e-12
7.13229e-12
1.1782e-11
1.53845e-11
2.03771e-11
2.45132e-11
-5.65373e-12
-2.7764e-12
1.16887e-13
3.45873e-12
6.73531e-12
9.19225e-12
1.51478e-11
1.86794e-11
2.42321e-11
-7.72182e-12
-5.72245e-12
-2.90398e-12
-5.30328e-13
3.484e-12
5.45651e-12
9.50136e-12
1.20052e-11
1.60802e-11
-1.0301e-11
-8.3468e-12
-7.986e-12
-3.92969e-12
-7.38459e-13
7.0709e-13
1.67461e-12
4.83207e-12
6.68908e-12
-1.51705e-12
2.93409e-12
4.89936e-12
9.4875e-12
1.34656e-11
1.64637e-11
2.26773e-11
2.76592e-11
3.02363e-11
-2.93274e-12
6.23214e-13
4.32785e-12
7.72477e-12
1.08731e-11
1.76161e-11
2.11519e-11
2.50783e-11
2.88328e-11
-5.76914e-12
-1.9912e-12
9.07389e-13
3.66295e-12
7.77037e-12
1.11986e-11
1.58425e-11
1.90933e-11
2.20239e-11
-7.49344e-12
-5.5195e-12
-3.6328e-12
-1.61267e-13
3.47288e-12
5.18151e-12
9.91753e-12
1.2218e-11
1.46876e-11
2.05554e-12
5.18766e-12
1.00159e-11
1.32731e-11
1.82876e-11
2.40433e-11
2.88418e-11
3.56509e-11
3.76565e-11
1.07371e-13
4.37597e-12
8.61275e-12
1.33364e-11
1.83293e-11
2.30051e-11
2.82148e-11
3.20221e-11
3.42813e-11
-1.59372e-12
5.10622e-13
5.75714e-12
9.59193e-12
1.44588e-11
1.87803e-11
2.13408e-11
2.61959e-11
2.8218e-11
-4.23071e-12
-2.89384e-12
9.87518e-13
5.10719e-12
9.22943e-12
1.12763e-11
1.59842e-11
1.95702e-11
2.4102e-11
)
;

boundaryField
{
    inlet
    {
        type            calculated;
        value           nonuniform 0();
    }
    outlet
    {
        type            calculated;
        value           nonuniform List<scalar> 
12
(
2.45132e-11
2.42321e-11
1.60802e-11
6.68908e-12
3.02363e-11
2.88328e-11
2.20239e-11
1.46876e-11
3.76565e-11
3.42813e-11
2.8218e-11
2.4102e-11
)
;
    }
    wall
    {
        type            calculated;
        value           nonuniform List<scalar> 
63
(
-4.50983e-12
-5.65373e-12
-7.72182e-12
-1.0301e-11
-2.0112e-12
-2.7764e-12
-5.72245e-12
-8.3468e-12
1.4741e-12
1.16887e-13
-2.90398e-12
-7.986e-12
4.53956e-12
3.45873e-12
-5.30328e-13
-3.92969e-12
7.13229e-12
6.73531e-12
3.484e-12
-7.38459e-13
1.1782e-11
9.19225e-12
5.45651e-12
7.0709e-13
1.53845e-11
1.51478e-11
9.50136e-12
1.67461e-12
2.03771e-11
1.86794e-11
1.20052e-11
4.83207e-12
2.45132e-11
2.42321e-11
1.60802e-11
6.68908e-12
-1.0301e-11
-7.49344e-12
-4.23071e-12
-8.3468e-12
-5.5195e-12
-2.89384e-12
-7.986e-12
-3.6328e-12
9.87518e-13
-3.92969e-12
-1.61267e-13
5.10719e-12
-7.38459e-13
3.47288e-12
9.22943e-12
7.0709e-13
5.18151e-12
1.12763e-11
1.67461e-12
9.91753e-12
1.59842e-11
4.83207e-12
1.2218e-11
1.95702e-11
6.68908e-12
1.46876e-11
2.4102e-11
)
;
    }
    procBoundary3to1
    {
        type            processor;
        value           nonuniform List<scalar> 
27
(
-3.68585e-12
-2.41286e-12
-1.58446e-13
3.96262e-12
6.83035e-12
9.16737e-12
1.35865e-11
1.56626e-11
1.9583e-11
-1.06958e-12
2.68596e-13
3.77348e-12
6.97928e-12
1.24897e-11
1.61848e-11
1.96403e-11
2.57404e-11
3.05197e-11
4.21062e-16
5.18361e-12
7.7179e-12
1.30006e-11
1.79716e-11
2.36262e-11
2.92124e-11
3.38569e-11
3.64979e-11
)
;
    }
    procBoundary3to2
    {
        type            processor;
        value           nonuniform List<scalar> 
12
(
-7.40181e-12
-8.05438e-12
-9.67176e-12
-1.15791e-11
-4.57379e-12
-5.49217e-12
-7.69824e-12
-9.99598e-12
-1.8928e-12
-3.43237e-12
-4.56267e-12
-7.31023e-12
)
;
    }
    procBoundary3to7
    {
        type            processor;
        value           nonuniform List<scalar> 
36
(
3.26412e-12
7.47668e-12
1.16446e-11
1.70853e-11
2.187e-11
2.80842e-11
3.34846e-11
3.87454e-11
4.14054e-11
2.6356e-12
6.6903e-12
1.18105e-11
1.56736e-11
2.09134e-11
2.50093e-11
3.00479e-11
3.51531e-11
3.86106e-11
6.47931e-13
3.65272e-12
8.12234e-12
1.16095e-11
1.61943e-11
1.94094e-11
2.44171e-11
2.93036e-11
3.25563e-11
-2.04207e-12
5.54665e-13
3.51873e-12
7.97509e-12
1.08082e-11
1.452e-11
1.8879e-11
2.266e-11
2.59857e-11
)
;
    }
}


// ************************************************************************* //
