/*--------------------------------*- C++ -*----------------------------------*\
| =========                 |                                                 |
| \\      /  F ield         | OpenFOAM: The Open Source CFD Toolbox           |
|  \\    /   O peration     | Version:  4.x                                   |
|   \\  /    A nd           | Web:      www.OpenFOAM.org                      |
|    \\/     M anipulation  |                                                 |
\*---------------------------------------------------------------------------*/
FoamFile
{
    version     2.0;
    format      ascii;
    class       volScalarField;
    location    "45";
    object      QWallFluidCoeff;
}
// * * * * * * * * * * * * * * * * * * * * * * * * * * * * * * * * * * * * * //

dimensions      [1 -1 -3 -1 0 0 0];

internalField   nonuniform List<scalar> 
108
(
-2.19818e+06
-3.48458e+06
-2.24865e+06
-3.6618e+06
-2.19738e+06
-3.86812e+06
-1.91581e+06
-4.1494e+06
-1.63266e+06
-1.758e+06
-3.13759e+06
-1.60907e+06
-3.13318e+06
-1.26908e+06
-2.94488e+06
-576563
-2.32752e+06
-51.0678
-2.17664e+06
-3.43534e+06
-2.20188e+06
-3.60697e+06
-2.13581e+06
-3.84386e+06
-1.89981e+06
-4.27908e+06
-1.81026e+06
-5.2729e+06
-7.40984e+06
-5.35477e+06
-7.629e+06
-5.22356e+06
-8.04018e+06
-4.77611e+06
-8.85884e+06
-3.63502e+06
0
0
0
0
0
0
0
0
0
0
0
0
0
0
0
0
0
0
0
0
0
0
0
0
0
0
0
-1.98808e+06
-3.29594e+06
-1.97881e+06
-3.40533e+06
-1.86922e+06
-3.62748e+06
-1.64662e+06
-4.19808e+06
-2.06277e+06
0
0
0
0
0
0
0
0
0
0
0
0
0
0
0
0
0
0
0
0
0
0
0
0
0
0
0
-1.49833e+06
-2.97489e+06
-1.41334e+06
-3.00846e+06
-1.25818e+06
-3.09906e+06
-1.11008e+06
-3.46917e+06
-1.02553e+06
)
;

boundaryField
{
    inlet
    {
        type            calculated;
        value           nonuniform 0();
    }
    outlet
    {
        type            calculated;
        value           uniform 0;
    }
    wall
    {
        type            calculated;
        value           uniform 0;
    }
    procBoundary3to1
    {
        type            processor;
        value           uniform 0;
    }
    procBoundary3to2
    {
        type            processor;
        value           uniform 0;
    }
    procBoundary3to7
    {
        type            processor;
        value           uniform 0;
    }
}


// ************************************************************************* //
