/*--------------------------------*- C++ -*----------------------------------*\
| =========                 |                                                 |
| \\      /  F ield         | OpenFOAM: The Open Source CFD Toolbox           |
|  \\    /   O peration     | Version:  4.x                                   |
|   \\  /    A nd           | Web:      www.OpenFOAM.org                      |
|    \\/     M anipulation  |                                                 |
\*---------------------------------------------------------------------------*/
FoamFile
{
    version     2.0;
    format      ascii;
    class       volVectorField;
    location    "45";
    object      Us;
}
// * * * * * * * * * * * * * * * * * * * * * * * * * * * * * * * * * * * * * //

dimensions      [0 1 -1 0 0 0 0];

internalField   nonuniform List<vector> 
108
(
(3.64909e-09 -4.18754e-09 1.16095e-09)
(5.01755e-09 -6.23392e-09 1.35236e-09)
(5.397e-09 -6.39697e-09 -2.85257e-10)
(4.53646e-09 -3.16641e-09 -5.27197e-10)
(4.07415e-09 -2.43573e-09 -1.42587e-09)
(4.66408e-09 -1.41231e-09 -1.90743e-09)
(4.73266e-09 -1.52943e-09 -2.88334e-09)
(4.79168e-09 1.79796e-09 -4.43143e-09)
(-2.84856e-08 -1.17268e-09 -2.75059e-09)
(2.82351e-09 -2.39277e-09 6.27378e-10)
(3.45394e-09 -2.74927e-09 3.339e-11)
(3.57618e-09 -2.739e-09 -6.69547e-10)
(3.44034e-09 -1.70582e-09 -8.64703e-10)
(2.95051e-09 -1.38637e-09 -1.2645e-09)
(2.19554e-09 -8.94732e-10 -1.82959e-09)
(1.15225e-09 -3.43103e-10 -2.99727e-09)
(-8.98875e-10 2.06583e-09 -4.67095e-09)
(-4.53786e-08 2.27553e-09 -3.81345e-09)
(2.48898e-09 -2.23064e-09 1.30099e-10)
(3.87801e-09 -2.15537e-09 -3.17828e-10)
(2.97222e-09 -1.68941e-09 -7.38311e-10)
(2.68419e-09 -7.39551e-10 -7.33352e-10)
(2.36277e-09 -8.03605e-10 -1.01754e-09)
(9.28324e-10 -4.37721e-10 -1.44133e-09)
(2.58922e-10 5.54207e-10 -2.25002e-09)
(-3.71035e-09 1.15685e-10 -5.71241e-09)
(-3.47106e-09 1.78465e-08 -9.11892e-09)
(1.20506e-09 -5.10253e-10 -8.82301e-12)
(2.12742e-09 -1.53115e-09 -6.8446e-10)
(1.93244e-09 -2.67544e-09 -3.80608e-10)
(1.32015e-09 -2.54225e-10 -3.0616e-10)
(1.97871e-09 -9.8928e-11 -6.57466e-10)
(1.31703e-09 1.30803e-10 -1.53422e-09)
(7.56058e-09 3.02695e-09 -1.19981e-09)
(7.60704e-09 2.96323e-09 -4.50348e-09)
(-4.80068e-09 6.54417e-07 -2.78695e-08)
(4.0673e-09 -3.03855e-09 7.87195e-10)
(4.58122e-09 -2.26755e-09 6.86425e-10)
(4.64385e-09 -2.52133e-09 1.32757e-10)
(4.98466e-09 -2.14776e-09 -5.026e-10)
(5.11811e-09 -1.98982e-09 -1.50626e-09)
(4.84279e-09 -1.60213e-09 -2.30387e-09)
(4.49647e-09 -6.32127e-10 -3.90476e-09)
(4.05076e-09 2.01604e-10 -3.99024e-09)
(-3.28777e-09 -1.03336e-09 -2.61586e-09)
(2.91335e-09 -1.74819e-09 3.25567e-10)
(3.82499e-09 -2.23958e-09 -1.41637e-10)
(3.87693e-09 -2.38292e-09 -1.03904e-09)
(3.91965e-09 -1.86763e-09 -1.19973e-09)
(3.68164e-09 -1.23199e-09 -1.35903e-09)
(3.02418e-09 -1.25104e-09 -2.07872e-09)
(4.92993e-09 1.83487e-09 -3.30063e-09)
(1.52005e-09 7.782e-11 -4.23475e-09)
(1.19609e-09 2.73942e-10 -3.70015e-09)
(2.32038e-09 -1.14668e-09 1.38198e-10)
(2.61833e-09 -1.52977e-09 -4.61821e-10)
(2.80642e-09 -1.61524e-09 -9.19691e-10)
(2.52149e-09 -1.02503e-09 -7.44259e-10)
(2.10858e-09 -8.05574e-10 -9.2082e-10)
(1.40074e-09 -7.49464e-10 -1.09089e-09)
(-4.50723e-11 -3.69296e-10 -2.31608e-09)
(-1.33535e-09 2.40936e-10 -4.97726e-09)
(-1.13312e-09 9.85036e-11 -5.65686e-09)
(1.41173e-09 -4.46358e-10 8.22182e-11)
(1.95866e-09 -1.06925e-09 -5.76366e-10)
(1.25735e-09 -7.17064e-10 -4.94753e-10)
(1.35524e-09 -5.48083e-10 -4.40737e-10)
(1.3532e-09 -2.55961e-10 -6.80406e-10)
(1.90553e-09 -4.49092e-10 -8.20647e-10)
(1.63433e-09 5.44366e-10 -1.63204e-09)
(1.02212e-09 6.94359e-10 -4.41582e-09)
(-8.53047e-10 2.43978e-10 -1.66263e-08)
(4.14258e-09 -1.25961e-09 9.01236e-10)
(4.56833e-09 -1.2259e-09 1.03412e-09)
(4.98715e-09 -3.13836e-10 1.40657e-09)
(5.41228e-09 -1.474e-09 -1.78061e-10)
(5.34538e-09 -1.73212e-09 -1.15758e-09)
(5.08445e-09 -1.14387e-09 -2.38679e-09)
(4.13397e-09 -6.88659e-10 -3.30806e-09)
(3.11197e-09 -3.95536e-10 -3.20352e-09)
(2.00671e-09 -3.16712e-10 -1.89127e-09)
(2.99537e-09 -1.28188e-09 5.3103e-10)
(3.84466e-09 -1.72211e-09 -1.24371e-10)
(4.58362e-09 -1.46775e-09 2.01811e-11)
(4.34799e-09 -1.38724e-09 -8.29871e-10)
(4.01241e-09 -1.40773e-09 -1.52796e-09)
(3.57831e-09 -7.73516e-10 -1.96079e-09)
(2.64351e-09 -2.79527e-10 -2.72165e-09)
(1.57775e-09 2.21454e-10 -3.11408e-09)
(4.55331e-10 9.57447e-11 -1.84218e-09)
(2.27845e-09 -1.01211e-09 3.16299e-11)
(2.47468e-09 -1.5033e-09 -3.81179e-10)
(2.62892e-09 -1.03194e-09 -6.17881e-10)
(2.22687e-09 -1.13063e-09 -3.87368e-10)
(1.74383e-09 -9.51037e-10 -8.33953e-10)
(1.31134e-09 -3.37608e-10 -1.06292e-09)
(3.91554e-10 -2.41728e-10 -1.70824e-09)
(-3.44722e-10 2.23793e-11 -3.4534e-09)
(-3.5915e-10 -6.45108e-10 -3.77354e-09)
(9.99594e-10 -6.30939e-10 1.5021e-10)
(1.07564e-09 -7.51641e-10 -1.62226e-10)
(1.00554e-09 -5.48359e-10 -8.93614e-11)
(4.3993e-10 -1.82464e-10 -1.65246e-10)
(1.30669e-10 -6.32811e-10 -7.06919e-10)
(-1.82518e-10 -2.12917e-10 -5.26004e-10)
(-7.16747e-10 2.83536e-11 -1.00004e-09)
(-1.73699e-09 -5.73886e-10 -2.77072e-09)
(-1.15023e-09 -1.97693e-09 -5.63288e-09)
)
;

boundaryField
{
    inlet
    {
        type            zeroGradient;
    }
    outlet
    {
        type            zeroGradient;
    }
    wall
    {
        type            zeroGradient;
    }
    procBoundary3to1
    {
        type            processor;
        value           nonuniform List<vector> 
27
(
(5.47666e-09 -7.22333e-09 4.25392e-09)
(3.81762e-09 -1.06951e-08 7.20945e-09)
(4.41044e-09 -6.81584e-09 3.56133e-09)
(2.69711e-09 -2.691e-09 6.15946e-10)
(3.13182e-09 -2.35165e-09 -8.0367e-10)
(4.07032e-09 -1.4466e-09 -1.57061e-09)
(5.09855e-09 -1.4771e-09 -3.76019e-09)
(2.86451e-09 -4.89064e-09 -8.55938e-09)
(3.58197e-09 -1.75058e-09 -6.12752e-09)
(2.83674e-09 -1.9774e-09 3.53279e-09)
(3.88496e-09 -2.41726e-09 6.3863e-09)
(4.46407e-09 -2.00144e-09 2.85202e-09)
(3.11024e-09 -2.63286e-09 1.04623e-09)
(3.88887e-09 -2.54919e-09 -1.0846e-09)
(4.28257e-09 -2.05689e-09 -2.07015e-09)
(5.13658e-09 -1.07562e-09 -4.24551e-09)
(5.20273e-09 -1.4712e-09 -4.36653e-09)
(1.67033e-09 -2.91613e-09 -6.7559e-09)
(2.40046e-09 1.9615e-11 3.20625e-09)
(3.86868e-09 6.63809e-10 3.90443e-09)
(4.64672e-09 5.88469e-10 4.62768e-09)
(4.6249e-09 -5.27833e-10 1.27269e-09)
(4.56852e-09 -1.15441e-09 -6.61829e-10)
(4.42148e-09 -1.22383e-09 -1.83083e-09)
(3.93482e-09 -5.21804e-10 -3.07007e-09)
(2.68652e-09 -7.08529e-10 -3.21072e-09)
(1.68668e-09 -1.40204e-09 -2.44734e-09)
)
;
    }
    procBoundary3to2
    {
        type            processor;
        value           nonuniform List<vector> 
12
(
(3.00735e-09 -2.70849e-09 1.6201e-09)
(2.16351e-09 -2.05658e-09 1.0093e-09)
(1.84147e-09 -1.50435e-09 8.78703e-10)
(1.49139e-09 -9.67329e-10 5.6374e-10)
(2.60625e-09 -1.61608e-09 1.45872e-09)
(2.42614e-09 -1.47108e-09 6.6498e-10)
(1.66146e-09 -1.15565e-09 4.09658e-10)
(7.37332e-10 -4.21538e-10 2.04412e-10)
(2.54899e-09 -4.76285e-10 1.36214e-09)
(1.92431e-09 -7.39665e-10 4.31884e-10)
(1.53448e-09 -8.49067e-10 1.74291e-10)
(8.3976e-10 -4.33826e-10 1.94586e-10)
)
;
    }
    procBoundary3to7
    {
        type            processor;
        value           nonuniform List<vector> 
36
(
(3.8826e-09 -2.98631e-10 1.09044e-09)
(4.45408e-09 -3.98012e-10 7.91026e-10)
(4.97455e-09 3.66893e-11 1.04651e-09)
(5.08343e-09 -2.80536e-10 -2.99455e-10)
(4.73254e-09 -5.61079e-10 -8.13756e-10)
(4.61883e-09 -9.06777e-10 -1.97893e-09)
(2.52479e-09 -1.77716e-10 -2.07803e-09)
(1.74691e-09 3.87328e-10 -2.17964e-09)
(7.35372e-10 5.79229e-11 -9.20176e-10)
(3.40963e-09 -7.69938e-10 4.26388e-10)
(4.29402e-09 -7.73132e-10 1.08647e-10)
(4.62911e-09 -7.16254e-10 1.08078e-10)
(4.87242e-09 -6.07851e-10 -3.60211e-10)
(4.08362e-09 -7.2195e-10 -7.85936e-10)
(3.20991e-09 -6.39238e-10 -1.39045e-09)
(2.38826e-09 -1.17132e-10 -1.63e-09)
(1.37988e-09 5.02341e-10 -1.99904e-09)
(3.87132e-10 4.46655e-10 -1.02715e-09)
(2.71734e-09 -5.25015e-10 1.54541e-11)
(3.06843e-09 -9.69518e-10 -3.17305e-10)
(3.01753e-09 -4.81057e-10 5.39216e-11)
(2.69082e-09 -3.72705e-10 -1.10892e-10)
(2.26264e-09 -7.22436e-10 -5.88354e-10)
(1.27279e-09 -4.78795e-10 -6.66762e-10)
(5.89963e-10 -2.43487e-11 -9.27864e-10)
(4.4577e-10 4.552e-10 -1.82788e-09)
(-3.34155e-09 -7.17374e-10 -1.11006e-09)
(9.9476e-10 -4.96836e-10 9.01319e-12)
(1.41353e-09 -6.81064e-10 -1.3986e-11)
(1.22476e-09 -7.49601e-11 -1.44861e-11)
(8.73264e-10 -1.11984e-10 1.67789e-10)
(6.19898e-10 -3.18618e-10 -1.39546e-10)
(2.13741e-10 -1.73938e-10 -2.90243e-10)
(-3.37792e-10 -5.20889e-11 -3.7687e-10)
(-5.10931e-10 2.2773e-10 -1.11328e-09)
(-2.11698e-09 -5.09596e-10 -5.48092e-11)
)
;
    }
}


// ************************************************************************* //
