/*--------------------------------*- C++ -*----------------------------------*\
| =========                 |                                                 |
| \\      /  F ield         | OpenFOAM: The Open Source CFD Toolbox           |
|  \\    /   O peration     | Version:  4.x                                   |
|   \\  /    A nd           | Web:      www.OpenFOAM.org                      |
|    \\/     M anipulation  |                                                 |
\*---------------------------------------------------------------------------*/
FoamFile
{
    version     2.0;
    format      ascii;
    class       volVectorField;
    location    "45";
    object      UsPrev;
}
// * * * * * * * * * * * * * * * * * * * * * * * * * * * * * * * * * * * * * //

dimensions      [0 1 -1 0 0 0 0];

internalField   nonuniform List<vector> 
108
(
(3.75506e-09 -4.17885e-09 1.1923e-09)
(5.27812e-09 -6.3926e-09 1.42261e-09)
(5.56104e-09 -6.87835e-09 -1.94732e-10)
(4.80029e-09 -3.32999e-09 -5.03229e-10)
(4.09364e-09 -2.53727e-09 -1.4323e-09)
(4.64073e-09 -1.7705e-09 -2.03762e-09)
(5.14025e-09 -1.9072e-09 -3.14527e-09)
(5.22067e-09 1.57825e-09 -4.50932e-09)
(-2.81664e-08 -1.22414e-09 -2.76949e-09)
(2.86879e-09 -2.34063e-09 6.80205e-10)
(3.3956e-09 -2.70338e-09 9.02204e-11)
(3.63859e-09 -2.66056e-09 -5.6295e-10)
(3.81592e-09 -1.74468e-09 -8.28168e-10)
(2.97175e-09 -1.39923e-09 -1.25798e-09)
(2.17444e-09 -9.06197e-10 -1.8985e-09)
(1.44891e-09 -2.6668e-10 -3.04126e-09)
(-5.32834e-10 2.06767e-09 -4.68376e-09)
(-4.51407e-08 2.27824e-09 -3.80908e-09)
(2.49067e-09 -2.26878e-09 1.98288e-10)
(4.12899e-09 -2.12806e-09 -2.81302e-10)
(3.02435e-09 -1.36159e-09 -7.48201e-10)
(2.83277e-09 -7.11104e-10 -7.00513e-10)
(2.47268e-09 -7.81436e-10 -1.00556e-09)
(1.14014e-09 -2.24546e-10 -1.42524e-09)
(5.92749e-10 6.95027e-10 -2.23879e-09)
(-3.23884e-09 3.05488e-10 -5.68657e-09)
(-3.13401e-09 1.79359e-08 -9.11534e-09)
(1.17847e-09 -5.62103e-10 -6.7063e-11)
(2.39518e-09 -1.55319e-09 -6.93016e-10)
(2.027e-09 -2.59854e-09 -3.6686e-10)
(1.36137e-09 -2.41123e-10 -2.93093e-10)
(2.08864e-09 -8.14311e-11 -6.49515e-10)
(1.41856e-09 1.87461e-10 -1.52437e-09)
(7.8704e-09 3.0846e-09 -1.18731e-09)
(7.69985e-09 3.0139e-09 -4.49463e-09)
(-4.49067e-09 6.54459e-07 -2.78976e-08)
(4.16409e-09 -3.01412e-09 8.25532e-10)
(4.91327e-09 -2.34509e-09 7.97867e-10)
(4.77361e-09 -2.69365e-09 2.46846e-10)
(5.1067e-09 -2.27345e-09 -4.67056e-10)
(5.00877e-09 -2.06212e-09 -1.48689e-09)
(4.49955e-09 -2.00375e-09 -2.28545e-09)
(4.77508e-09 -1.04686e-09 -3.8412e-09)
(5.38378e-09 -2.10362e-10 -3.84824e-09)
(-2.80988e-09 -1.0793e-09 -2.61246e-09)
(2.96542e-09 -1.65935e-09 3.69902e-10)
(3.83858e-09 -2.23882e-09 -4.41882e-11)
(3.96268e-09 -2.39517e-09 -9.27364e-10)
(4.26005e-09 -1.90555e-09 -1.12263e-09)
(3.64903e-09 -1.24385e-09 -1.34867e-09)
(2.88423e-09 -1.12903e-09 -2.03077e-09)
(5.27419e-09 2.04054e-09 -3.27482e-09)
(2.27455e-09 1.39234e-10 -4.11363e-09)
(1.62255e-09 2.96715e-10 -3.6782e-09)
(2.29902e-09 -1.26844e-09 1.62673e-10)
(2.79221e-09 -1.56561e-09 -4.12319e-10)
(2.87831e-09 -1.36162e-09 -1.09552e-09)
(2.65109e-09 -9.79094e-10 -7.15441e-10)
(2.23237e-09 -7.64627e-10 -8.95215e-10)
(1.60188e-09 -5.2365e-10 -1.0434e-09)
(4.14273e-10 -1.55909e-10 -2.28485e-09)
(-7.50031e-10 4.55473e-10 -4.91691e-09)
(-7.34772e-10 1.61899e-10 -5.66249e-09)
(1.39577e-09 -6.21816e-10 1.01215e-10)
(2.35823e-09 -1.1236e-09 -5.7826e-10)
(1.36501e-09 -7.19687e-10 -7.01721e-10)
(1.45356e-09 -5.37738e-10 -4.17125e-10)
(1.48029e-09 -2.42321e-10 -6.66405e-10)
(2.13522e-09 -3.65276e-10 -7.95031e-10)
(1.92322e-09 5.95302e-10 -1.62584e-09)
(1.3606e-09 7.71438e-10 -4.38618e-09)
(-6.05902e-10 2.63508e-10 -1.66517e-08)
(4.23143e-09 -1.235e-09 9.28621e-10)
(4.92622e-09 -1.24245e-09 1.0807e-09)
(5.08052e-09 -3.58311e-10 1.21542e-09)
(5.52088e-09 -1.54719e-09 -1.51885e-10)
(5.33784e-09 -1.77827e-09 -1.12577e-09)
(5.01305e-09 -1.38489e-09 -2.13396e-09)
(4.48468e-09 -9.06752e-10 -3.11152e-09)
(3.60579e-09 -5.09727e-10 -2.8138e-09)
(2.33532e-09 -3.15286e-10 -1.74326e-09)
(3.04833e-09 -1.25491e-09 5.35895e-10)
(3.90094e-09 -1.78452e-09 -7.22083e-11)
(4.63496e-09 -1.69857e-09 6.51768e-11)
(4.63903e-09 -1.42542e-09 -7.75759e-10)
(4.0245e-09 -1.41251e-09 -1.49595e-09)
(3.58144e-09 -7.32755e-10 -1.77739e-09)
(2.92897e-09 -2.64398e-10 -2.61328e-09)
(2.12698e-09 2.36922e-10 -2.87367e-09)
(7.49257e-10 1.09278e-10 -1.80793e-09)
(2.31328e-09 -1.05424e-09 3.01772e-11)
(2.52535e-09 -1.53566e-09 -3.43936e-10)
(2.69076e-09 -1.01452e-09 -5.99278e-10)
(2.51042e-09 -1.1372e-09 -3.25491e-10)
(1.83202e-09 -9.41471e-10 -8.01172e-10)
(1.48224e-09 -2.55167e-10 -9.98464e-10)
(7.60485e-10 -1.2208e-10 -1.66556e-09)
(1.37497e-10 9.63383e-11 -3.37786e-09)
(-6.46778e-11 -6.36257e-10 -3.78937e-09)
(1.01392e-09 -6.79031e-10 2.67931e-10)
(1.14352e-09 -7.77213e-10 -1.54152e-10)
(1.07159e-09 -5.53745e-10 -3.12879e-10)
(6.94432e-10 -1.85323e-10 -1.71254e-10)
(2.60071e-10 -6.26239e-10 -6.92273e-10)
(-3.38865e-11 -1.7077e-10 -5.19035e-10)
(-4.37054e-10 5.82907e-11 -1.00194e-09)
(-1.42243e-09 -5.42647e-10 -2.75909e-09)
(-9.18488e-10 -1.96641e-09 -5.64327e-09)
)
;

boundaryField
{
    inlet
    {
        type            calculated;
        value           nonuniform 0();
    }
    outlet
    {
        type            calculated;
        value           uniform (0 0 0);
    }
    wall
    {
        type            calculated;
        value           uniform (0 0 0);
    }
    procBoundary3to1
    {
        type            processor;
        value           uniform (0 0 0);
    }
    procBoundary3to2
    {
        type            processor;
        value           uniform (0 0 0);
    }
    procBoundary3to7
    {
        type            processor;
        value           uniform (0 0 0);
    }
}


// ************************************************************************* //
