/*--------------------------------*- C++ -*----------------------------------*\
| =========                 |                                                 |
| \\      /  F ield         | OpenFOAM: The Open Source CFD Toolbox           |
|  \\    /   O peration     | Version:  4.x                                   |
|   \\  /    A nd           | Web:      www.OpenFOAM.org                      |
|    \\/     M anipulation  |                                                 |
\*---------------------------------------------------------------------------*/
FoamFile
{
    version     2.0;
    format      ascii;
    class       volVectorField;
    location    "39.5";
    object      Urel;
}
// * * * * * * * * * * * * * * * * * * * * * * * * * * * * * * * * * * * * * //

dimensions      [0 1 -1 0 0 0 0];

internalField   nonuniform List<vector> 
108
(
(-0.0233611 0.000624588 0.000517659)
(-0.021426 0.000558104 0.00048184)
(-0.0223708 0.000566653 0.000467436)
(-0.0209158 0.000473915 0.000420476)
(-0.0221238 0.000447321 0.000370308)
(-0.0207907 0.000352968 0.00032484)
(-0.0220893 0.0003212 0.000273447)
(-0.0207412 0.000245156 0.000226742)
(-0.0221054 0.000212318 0.000138863)
(-0.0231697 0.000627473 0.000500502)
(-0.0210322 0.000545914 0.00045864)
(-0.0218856 0.000571367 0.000432302)
(-0.0200945 0.000456348 0.000380321)
(-0.021339 0.000445913 0.000326721)
(-0.0196269 0.000337706 0.00027967)
(-0.0210764 0.00031403 0.000226231)
(-0.019322 0.000231839 0.000185567)
(-0.020935 0.000191804 0.000114402)
(-0.0229761 0.000427967 0.000490347)
(-0.0206825 0.000374247 0.000441364)
(-0.021434 0.000389637 0.00040459)
(-0.0193945 0.000310204 0.000342624)
(-0.0206198 0.000306224 0.000287214)
(-0.0186402 0.000225996 0.00023742)
(-0.0201658 0.000199636 0.000201884)
(-0.0181495 0.000142174 0.000154324)
(-0.0199063 9.82896e-05 0.000126117)
(-0.0228845 0.0001322 0.000489434)
(-0.0205349 9.98432e-05 0.000433004)
(-0.0212323 0.000107619 0.000396666)
(-0.0190922 8.72049e-05 0.000338895)
(-0.0202937 9.0995e-05 0.000285196)
(-0.0181927 6.83343e-05 0.000233234)
(-0.0197548 5.88373e-05 0.000196479)
(-0.0176552 5.2663e-05 0.000155874)
(-0.0194543 5.19962e-05 0.000129994)
(-0.0234358 0.000599513 0.000189679)
(-0.0215573 0.000536365 0.000184869)
(-0.0225358 0.000528441 0.000160325)
(-0.021154 0.000444552 0.00016986)
(-0.0223774 0.000414424 0.000138646)
(-0.021107 0.000333927 0.000127723)
(-0.0223955 0.000298844 7.25869e-05)
(-0.0211107 0.000232028 5.09807e-05)
(-0.0224667 0.000204097 -1.97051e-05)
(-0.0232686 0.000607365 0.000159073)
(-0.021234 0.000533453 0.000157419)
(-0.0221257 0.000547704 0.000112976)
(-0.0204985 0.00043945 0.000124951)
(-0.0217197 0.000425671 8.35893e-05)
(-0.0201771 0.000324375 8.31079e-05)
(-0.0215535 0.000298348 2.71674e-05)
(-0.0199769 0.000228634 2.1268e-05)
(-0.0215004 0.000210042 -3.80526e-05)
(-0.0230838 0.000420663 0.000134818)
(-0.020896 0.000361717 0.000132592)
(-0.0216966 0.000372105 8.22044e-05)
(-0.0198165 0.000297106 8.79631e-05)
(-0.0210347 0.000280909 4.1966e-05)
(-0.0192255 0.000213376 4.36188e-05)
(-0.0206977 0.000184249 -1.83917e-06)
(-0.018859 0.000150712 2.46164e-06)
(-0.0205286 0.000131552 -2.48519e-05)
(-0.0229937 0.000111436 0.000123763)
(-0.0207555 8.43874e-05 0.000113646)
(-0.021505 8.49887e-05 6.15248e-05)
(-0.0195506 7.53129e-05 6.96318e-05)
(-0.0207479 7.63873e-05 1.34666e-05)
(-0.0188617 7.25274e-05 2.41952e-05)
(-0.0203403 7.21758e-05 -1.65639e-05)
(-0.0184507 7.4477e-05 5.87012e-06)
(-0.0201248 8.13595e-05 1.34544e-06)
(-0.0235508 0.000585111 1.23073e-05)
(-0.0218001 0.000526882 1.20948e-05)
(-0.0228353 0.000509839 -2.5249e-05)
(-0.021661 0.000425913 -2.57879e-06)
(-0.0228865 0.000386969 -3.36708e-05)
(-0.0218226 0.000314229 -3.17887e-05)
(-0.0230729 0.000284092 -0.000102683)
(-0.0220309 0.000240799 -0.000125057)
(-0.0233344 0.000229236 -0.000195908)
(-0.0234 0.000589558 -6.28242e-06)
(-0.0215173 0.000521612 -3.59345e-06)
(-0.0224674 0.000524929 -5.06997e-05)
(-0.0211036 0.000424467 -3.09738e-05)
(-0.0223114 0.000396726 -7.13501e-05)
(-0.0210754 0.00031525 -6.31229e-05)
(-0.0223602 0.00029339 -0.000127255)
(-0.0211477 0.000251989 -0.000123505)
(-0.0225102 0.000249439 -0.000177064)
(-0.0232197 0.000408272 -3.10626e-05)
(-0.0212205 0.00035452 -2.97042e-05)
(-0.0220825 0.000365287 -8.39822e-05)
(-0.0205246 0.000297914 -6.23504e-05)
(-0.0216992 0.000275876 -0.000110347)
(-0.0202876 0.000218173 -8.71056e-05)
(-0.0216022 0.000197872 -0.000140425)
(-0.0202337 0.000182992 -0.000117313)
(-0.0216311 0.00018588 -0.000155214)
(-0.0231363 9.52009e-05 -4.10684e-05)
(-0.0210981 8.50244e-05 -3.62423e-05)
(-0.0219103 9.41231e-05 -8.34492e-05)
(-0.0202859 8.78948e-05 -6.36869e-05)
(-0.0214419 9.3711e-05 -0.00010769)
(-0.0199618 9.38719e-05 -8.82741e-05)
(-0.0212661 0.000104642 -0.000126657)
(-0.0198429 0.000112026 -8.71668e-05)
(-0.0212274 0.000135675 -0.00010092)
)
;

boundaryField
{
    inlet
    {
        type            calculated;
        value           nonuniform List<vector> 
12
(
(-0.01 2.7505e-11 2.582e-11)
(-0.01 -6.74158e-12 4.58691e-11)
(-0.01 1.00002e-11 9.89694e-11)
(-0.01 -2.32404e-11 8.68711e-11)
(-0.01 3.12119e-11 4.81348e-12)
(-0.01 2.12885e-11 2.83325e-11)
(-0.01 3.15836e-11 8.65544e-11)
(-0.01 -5.629e-11 2.12459e-11)
(-0.01 1.85075e-11 1.66462e-11)
(-0.01 6.28288e-12 2.32656e-11)
(-0.01 2.3865e-11 6.07934e-11)
(-0.01 -3.71469e-11 -5.44093e-12)
)
;
    }
    outlet
    {
        type            calculated;
        value           nonuniform 0();
    }
    wall
    {
        type            calculated;
        value           nonuniform List<vector> 
63
(
(1.96274e-11 1.85075e-11 1.66462e-11)
(6.80985e-11 6.28288e-12 2.32656e-11)
(6.20329e-11 2.3865e-11 6.07934e-11)
(7.63077e-11 -3.71469e-11 -5.44093e-12)
(-2.63504e-11 4.92253e-11 -4.63296e-12)
(1.66657e-12 5.96407e-11 1.41404e-11)
(9.44953e-11 1.01921e-10 4.01159e-11)
(7.36095e-11 -6.47372e-11 -8.60533e-12)
(4.86842e-11 4.13212e-11 3.20032e-11)
(7.00532e-11 8.1307e-11 4.76331e-11)
(1.87724e-10 8.38497e-11 9.49874e-11)
(3.26262e-10 4.55554e-11 6.98222e-11)
(-2.28271e-11 4.91518e-11 9.95052e-11)
(3.27308e-11 5.88578e-11 7.99026e-11)
(2.3628e-10 4.53334e-11 1.12271e-10)
(2.36117e-10 -2.40464e-11 1.18424e-10)
(4.44358e-11 -9.01717e-12 1.21047e-10)
(2.25204e-10 1.0906e-11 2.04671e-10)
(4.73149e-10 3.04617e-11 2.60257e-10)
(3.61984e-10 -7.27007e-11 1.40456e-10)
(-7.03014e-12 -5.02694e-11 9.32483e-11)
(-1.03047e-10 4.83964e-11 1.54268e-10)
(2.54957e-10 1.17745e-10 2.59442e-10)
(4.68161e-10 -5.65364e-11 1.21569e-10)
(-3.16386e-11 -7.50983e-11 2.81225e-10)
(2.2818e-10 2.31374e-10 2.86364e-10)
(8.27962e-10 2.85955e-10 4.09303e-10)
(8.07571e-10 2.36198e-10 4.25549e-10)
(-2.49167e-11 -4.48087e-12 3.47431e-10)
(1.67237e-10 3.90065e-12 4.86354e-10)
(8.22221e-10 1.59617e-10 5.48799e-10)
(-2.5798e-10 1.14038e-09 4.78257e-10)
(1.8661e-10 -7.38103e-11 2.34142e-10)
(3.52853e-10 -1.19314e-10 5.60196e-10)
(8.82429e-10 -1.24038e-10 6.35585e-10)
(1.58217e-09 8.91032e-11 6.5693e-10)
(3.04894e-11 2.7505e-11 2.582e-11)
(1.74616e-11 3.12119e-11 4.81348e-12)
(1.96274e-11 1.85075e-11 1.66462e-11)
(-1.10102e-11 6.61486e-11 3.49889e-11)
(-5.0193e-11 5.62872e-11 4.61176e-12)
(-2.63504e-11 4.92253e-11 -4.63296e-12)
(2.23136e-10 7.41354e-11 1.2228e-10)
(1.09881e-10 4.25212e-11 6.38789e-11)
(4.86842e-11 4.13212e-11 3.20032e-11)
(6.38887e-11 1.18065e-10 2.68306e-10)
(-3.38198e-11 9.12214e-11 1.93014e-10)
(-2.28271e-11 4.91518e-11 9.95052e-11)
(4.04164e-11 2.43766e-10 4.7511e-10)
(1.18171e-10 9.63871e-11 2.57299e-10)
(4.44358e-11 -9.01717e-12 1.21047e-10)
(-1.86219e-10 9.78951e-11 5.36329e-10)
(-3.63392e-11 -8.94302e-12 2.69571e-10)
(-7.03014e-12 -5.02694e-11 9.32483e-11)
(-4.89618e-11 6.35031e-11 8.33847e-10)
(2.47085e-11 -1.39075e-11 3.89403e-10)
(-3.16386e-11 -7.50983e-11 2.81225e-10)
(-4.89638e-10 1.29324e-10 1.12102e-09)
(-2.12525e-10 4.60361e-11 6.94787e-10)
(-2.49167e-11 -4.48087e-12 3.47431e-10)
(-6.03246e-10 2.12714e-11 1.43569e-09)
(8.2946e-11 -1.14233e-10 6.66716e-10)
(1.8661e-10 -7.38103e-11 2.34142e-10)
)
;
    }
    procBoundary4to0
    {
        type            processor;
        value           nonuniform List<vector> 
36
(
(-0.0233837 0.00060899 0.000884407)
(-0.0214334 0.000546367 0.000816295)
(-0.0224204 0.000554547 0.000814542)
(-0.020979 0.000465179 0.0007148)
(-0.0222249 0.000441906 0.000667372)
(-0.0208944 0.000351149 0.000578079)
(-0.0222118 0.000317352 0.000524216)
(-0.0208439 0.000221247 0.000457129)
(-0.0221937 0.000168447 0.000380963)
(-0.0231992 0.000613786 0.000897821)
(-0.0210435 0.00053771 0.000811186)
(-0.0219402 0.000570876 0.000808065)
(-0.0201535 0.000456118 0.000681492)
(-0.0214189 0.000450909 0.000632901)
(-0.0196974 0.000337834 0.000524464)
(-0.0211644 0.000301204 0.000474585)
(-0.0193702 0.000215395 0.000391034)
(-0.0209928 0.000144808 0.000338444)
(-0.022997 0.000415625 0.000901818)
(-0.020688 0.000362118 0.000804405)
(-0.0214728 0.000378631 0.000789532)
(-0.0193973 0.00029296 0.000647129)
(-0.0206542 0.000278898 0.000595665)
(-0.0186129 0.000203232 0.000472464)
(-0.0201925 0.000163588 0.000427604)
(-0.0181664 0.000120303 0.000325821)
(-0.0199148 6.39109e-05 0.00027061)
(-0.0229169 0.00011098 0.000899064)
(-0.0205576 8.72173e-05 0.000803217)
(-0.0213022 7.58994e-05 0.000787979)
(-0.019144 6.13648e-05 0.000645068)
(-0.0203968 4.88523e-05 0.0005984)
(-0.0182918 4.80687e-05 0.0004666)
(-0.0198981 4.78672e-05 0.000416798)
(-0.0178075 4.02637e-05 0.000313632)
(-0.0196091 3.8334e-05 0.000252548)
)
;
    }
    procBoundary4to5
    {
        type            processor;
        value           nonuniform List<vector> 
12
(
(-0.0206456 0.000148332 7.98292e-05)
(-0.0190489 0.000140186 7.72552e-05)
(-0.0178705 8.02946e-05 8.16039e-05)
(-0.0174439 4.89007e-05 9.71259e-05)
(-0.0210955 0.000150352 -3.26179e-05)
(-0.0198446 0.00017125 -3.97125e-05)
(-0.0186258 0.000123938 -2.90415e-05)
(-0.0182286 8.85519e-05 -4.51302e-06)
(-0.0222771 0.000193947 -0.000208676)
(-0.0212688 0.000238318 -0.000169191)
(-0.0202398 0.000204274 -0.000136368)
(-0.0197842 0.000163373 -7.80654e-05)
)
;
    }
    procBoundary4to6
    {
        type            processor;
        value           nonuniform List<vector> 
27
(
(-0.0229179 -0.000218424 0.000487385)
(-0.0205694 -0.000194685 0.000434575)
(-0.0212962 -0.000204316 0.000410727)
(-0.019171 -0.000155462 0.000351425)
(-0.0204127 -0.000145034 0.000310771)
(-0.018321 -9.72863e-05 0.000255792)
(-0.0198928 -6.77489e-05 0.000222984)
(-0.0178433 -3.45577e-05 0.000184693)
(-0.0196124 9.9151e-06 0.000166596)
(-0.0230418 -0.000242434 9.52925e-05)
(-0.0208253 -0.000204727 0.000115583)
(-0.0216039 -0.000220186 6.75536e-05)
(-0.0196806 -0.00016098 8.23737e-05)
(-0.0208881 -0.000152511 4.02381e-05)
(-0.0190073 -9.24012e-05 5.47845e-05)
(-0.0204721 -6.90101e-05 3.73685e-05)
(-0.0185583 -2.2076e-05 4.33604e-05)
(-0.0202247 8.26597e-06 5.08172e-05)
(-0.023206 -0.000241312 -5.74942e-05)
(-0.0212083 -0.000196692 -2.9913e-05)
(-0.022038 -0.000200233 -6.77008e-05)
(-0.0204599 -0.000147746 -3.92454e-05)
(-0.0215947 -0.000125657 -7.83104e-05)
(-0.0201177 -7.14225e-05 -5.21593e-05)
(-0.0213745 -3.29302e-05 -8.10335e-05)
(-0.0198858 1.15328e-05 -5.02219e-05)
(-0.0212436 4.84471e-05 -5.28507e-05)
)
;
    }
}


// ************************************************************************* //
