/*--------------------------------*- C++ -*----------------------------------*\
| =========                 |                                                 |
| \\      /  F ield         | OpenFOAM: The Open Source CFD Toolbox           |
|  \\    /   O peration     | Version:  4.x                                   |
|   \\  /    A nd           | Web:      www.OpenFOAM.org                      |
|    \\/     M anipulation  |                                                 |
\*---------------------------------------------------------------------------*/
FoamFile
{
    version     2.0;
    format      ascii;
    class       volVectorField;
    location    "49";
    object      impParticleForces;
}
// * * * * * * * * * * * * * * * * * * * * * * * * * * * * * * * * * * * * * //

dimensions      [1 1 -2 0 0 0 0];

internalField   nonuniform List<vector> 
108
(
(0.0022961 -2.54878e-05 -5.417e-05)
(0.00232302 -2.59451e-05 -5.40504e-05)
(0.00238165 -2.60486e-05 -5.30226e-05)
(0.00238995 -2.27978e-05 -4.99719e-05)
(0.00242253 -1.91094e-05 -4.62674e-05)
(0.00240514 -1.33802e-05 -4.16251e-05)
(0.00243465 -8.06579e-06 -3.67146e-05)
(0.00240091 -1.12016e-06 -3.12396e-05)
(0.0024181 5.10956e-06 -2.55947e-05)
(0.00234449 -2.42988e-05 -5.50125e-05)
(0.00237939 -2.51882e-05 -5.48332e-05)
(0.00244337 -2.59004e-05 -5.37058e-05)
(0.00244604 -2.23213e-05 -5.05995e-05)
(0.00246559 -1.85146e-05 -4.64361e-05)
(0.0024393 -1.26924e-05 -4.15141e-05)
(0.00245848 -7.69749e-06 -3.64984e-05)
(0.0024177 -1.06243e-06 -3.11879e-05)
(0.00245058 4.42717e-06 -2.59273e-05)
(0.00236601 -1.67829e-05 -5.53653e-05)
(0.00241243 -1.78126e-05 -5.55338e-05)
(0.00245769 -1.76595e-05 -5.36085e-05)
(0.00244929 -1.47031e-05 -5.01935e-05)
(0.00246385 -1.18068e-05 -4.57085e-05)
(0.00242929 -7.219e-06 -4.08175e-05)
(0.00244419 -3.16122e-06 -3.60351e-05)
(0.00241456 1.34005e-06 -3.1009e-05)
(0.00241787 5.66754e-06 -2.60975e-05)
(0.00235354 -4.71493e-06 -5.51509e-05)
(0.00240449 -5.04013e-06 -5.50138e-05)
(0.00245728 -4.56704e-06 -5.35191e-05)
(0.00243724 -3.16133e-06 -4.98575e-05)
(0.00246119 -1.78315e-06 -4.57142e-05)
(0.00242915 4.68176e-07 -4.09354e-05)
(0.00245403 2.70351e-06 -3.62398e-05)
(0.00239497 4.9166e-06 -3.12819e-05)
(0.00240343 7.05384e-06 -2.67878e-05)
(0.00228269 -2.51349e-05 -4.29183e-05)
(0.00230743 -2.53944e-05 -4.22551e-05)
(0.00236087 -2.50332e-05 -4.06616e-05)
(0.00238049 -2.23561e-05 -3.85935e-05)
(0.0024159 -1.89344e-05 -3.55887e-05)
(0.00238587 -1.36915e-05 -3.20418e-05)
(0.00240842 -9.10416e-06 -2.76958e-05)
(0.00239877 -4.12845e-06 -2.33965e-05)
(0.00241955 2.44355e-07 -1.84338e-05)
(0.00233294 -2.41815e-05 -4.25122e-05)
(0.00236008 -2.4496e-05 -4.17378e-05)
(0.00241366 -2.44758e-05 -3.97116e-05)
(0.00241551 -2.11329e-05 -3.79009e-05)
(0.00244387 -1.79057e-05 -3.45773e-05)
(0.00241774 -1.27409e-05 -3.12434e-05)
(0.00244023 -8.65185e-06 -2.69824e-05)
(0.00242317 -3.94661e-06 -2.29075e-05)
(0.00244689 -1.11299e-07 -1.82811e-05)
(0.0023402 -1.6176e-05 -4.22675e-05)
(0.00238263 -1.70024e-05 -4.12327e-05)
(0.00244495 -1.72438e-05 -3.86212e-05)
(0.00243318 -1.43887e-05 -3.66397e-05)
(0.00246044 -1.19411e-05 -3.31994e-05)
(0.00242627 -7.9529e-06 -3.01521e-05)
(0.00243528 -4.55124e-06 -2.63015e-05)
(0.0024021 -1.03136e-06 -2.28692e-05)
(0.00242032 1.82047e-06 -1.89606e-05)
(0.00235585 -4.87234e-06 -4.19776e-05)
(0.00239474 -4.92413e-06 -4.08322e-05)
(0.00243616 -4.47265e-06 -3.85373e-05)
(0.00243548 -3.32029e-06 -3.61572e-05)
(0.00246233 -2.25225e-06 -3.26188e-05)
(0.0024272 -5.38677e-07 -2.9904e-05)
(0.00244849 1.08347e-06 -2.60603e-05)
(0.00239347 2.64569e-06 -2.34238e-05)
(0.00239983 3.93497e-06 -2.02469e-05)
(0.00226163 -2.4198e-05 -3.68195e-05)
(0.00227379 -2.40323e-05 -3.60028e-05)
(0.00230302 -2.30033e-05 -3.45472e-05)
(0.00232334 -2.03558e-05 -3.27209e-05)
(0.00236815 -1.73986e-05 -2.96474e-05)
(0.00236776 -1.32711e-05 -2.65036e-05)
(0.00239088 -9.25362e-06 -2.22495e-05)
(0.00237202 -5.12646e-06 -1.86058e-05)
(0.0023827 -1.58875e-06 -1.42095e-05)
(0.00229576 -2.25751e-05 -3.62524e-05)
(0.00232472 -2.30173e-05 -3.50322e-05)
(0.00236567 -2.25279e-05 -3.30065e-05)
(0.00236267 -1.91734e-05 -3.15521e-05)
(0.00240015 -1.64085e-05 -2.84805e-05)
(0.00238992 -1.22259e-05 -2.56515e-05)
(0.0023996 -8.48505e-06 -2.18196e-05)
(0.00238175 -4.73401e-06 -1.84917e-05)
(0.00239211 -1.68145e-06 -1.46008e-05)
(0.00231566 -1.5432e-05 -3.56581e-05)
(0.00233902 -1.56368e-05 -3.43862e-05)
(0.0023872 -1.55587e-05 -3.19761e-05)
(0.00238107 -1.30832e-05 -3.04138e-05)
(0.00241153 -1.09657e-05 -2.73166e-05)
(0.00239178 -7.71413e-06 -2.48792e-05)
(0.00239698 -4.82669e-06 -2.14436e-05)
(0.00237596 -2.17816e-06 -1.86215e-05)
(0.00237577 -2.79643e-08 -1.54595e-05)
(0.00233542 -4.80528e-06 -3.51998e-05)
(0.00234427 -4.52931e-06 -3.41632e-05)
(0.00238885 -4.31556e-06 -3.18148e-05)
(0.00239254 -3.48984e-06 -2.98897e-05)
(0.00242239 -2.50464e-06 -2.68313e-05)
(0.00239836 -1.08278e-06 -2.46189e-05)
(0.00238549 3.25721e-07 -2.20155e-05)
(0.00236046 1.4307e-06 -1.96676e-05)
(0.00236568 2.20783e-06 -1.6951e-05)
)
;

boundaryField
{
    inlet
    {
        type            zeroGradient;
    }
    outlet
    {
        type            zeroGradient;
    }
    wall
    {
        type            zeroGradient;
    }
    procBoundary4to0
    {
        type            processor;
        value           nonuniform List<vector> 
36
(
(0.00229876 -2.48427e-05 -6.73701e-05)
(0.0023287 -2.54059e-05 -6.77892e-05)
(0.00238676 -2.52668e-05 -6.74496e-05)
(0.0023855 -2.15671e-05 -6.27907e-05)
(0.00242296 -1.76866e-05 -5.87455e-05)
(0.00242187 -1.166e-05 -5.31379e-05)
(0.00243959 -4.75288e-06 -4.736e-05)
(0.00240585 4.41054e-06 -4.067e-05)
(0.00242196 1.40004e-05 -3.46138e-05)
(0.00234268 -2.35236e-05 -6.94816e-05)
(0.00239357 -2.50208e-05 -7.08404e-05)
(0.0024454 -2.49865e-05 -6.99614e-05)
(0.00244496 -2.11355e-05 -6.52469e-05)
(0.00246282 -1.6987e-05 -6.00905e-05)
(0.00244729 -1.07937e-05 -5.35797e-05)
(0.00248293 -4.91293e-06 -4.82035e-05)
(0.00243483 3.49904e-06 -4.10917e-05)
(0.00244981 1.19783e-05 -3.5111e-05)
(0.00236295 -1.60371e-05 -7.04966e-05)
(0.00239721 -1.6437e-05 -7.11029e-05)
(0.00246244 -1.64998e-05 -7.09395e-05)
(0.00244766 -1.34619e-05 -6.54292e-05)
(0.00247398 -1.04972e-05 -6.04522e-05)
(0.00245203 -5.66371e-06 -5.34584e-05)
(0.0024691 -5.66373e-07 -4.74409e-05)
(0.00241491 5.11041e-06 -4.02244e-05)
(0.00243207 1.08885e-05 -3.42589e-05)
(0.00236147 -4.52105e-06 -7.0437e-05)
(0.00240633 -4.34544e-06 -7.16899e-05)
(0.00247267 -3.70516e-06 -7.15975e-05)
(0.00246266 -2.16504e-06 -6.63397e-05)
(0.00246555 -3.33194e-07 -6.04004e-05)
(0.00245333 1.8514e-06 -5.3777e-05)
(0.00246446 4.44181e-06 -4.75303e-05)
(0.00240781 7.60915e-06 -4.02974e-05)
(0.00240241 1.07892e-05 -3.42049e-05)
)
;
    }
    procBoundary4to5
    {
        type            processor;
        value           nonuniform List<vector> 
12
(
(0.00239083 1.14247e-05 -2.05767e-05)
(0.00241823 9.9996e-06 -2.09413e-05)
(0.00239746 9.33302e-06 -2.15569e-05)
(0.00239072 8.81536e-06 -2.26997e-05)
(0.00238482 4.79178e-06 -1.47817e-05)
(0.00240269 4.00183e-06 -1.48518e-05)
(0.00238637 4.37995e-06 -1.58285e-05)
(0.00237679 4.96096e-06 -1.73208e-05)
(0.00233479 2.03426e-06 -1.14741e-05)
(0.00236989 1.09019e-06 -1.15161e-05)
(0.00235377 1.72674e-06 -1.2789e-05)
(0.00234856 2.63705e-06 -1.46122e-05)
)
;
    }
    procBoundary4to6
    {
        type            processor;
        value           nonuniform List<vector> 
27
(
(0.00238865 8.22342e-06 -5.56859e-05)
(0.00241344 8.55283e-06 -5.51483e-05)
(0.00243719 9.18822e-06 -5.33369e-05)
(0.00243316 8.98207e-06 -5.00114e-05)
(0.00246043 9.19605e-06 -4.63908e-05)
(0.00242043 8.71404e-06 -4.13781e-05)
(0.00243991 8.73497e-06 -3.69032e-05)
(0.00239672 8.70946e-06 -3.23097e-05)
(0.00241821 8.62878e-06 -2.82105e-05)
(0.00236447 7.75358e-06 -4.15899e-05)
(0.00239322 8.4003e-06 -4.07093e-05)
(0.00243312 8.98702e-06 -3.84735e-05)
(0.00241926 8.41298e-06 -3.6628e-05)
(0.00243304 8.2547e-06 -3.36712e-05)
(0.00241558 7.64342e-06 -3.08022e-05)
(0.00243635 7.51707e-06 -2.74518e-05)
(0.00238661 6.85777e-06 -2.47391e-05)
(0.00241094 6.48877e-06 -2.17972e-05)
(0.00232098 6.83972e-06 -3.52789e-05)
(0.00233269 7.10119e-06 -3.4435e-05)
(0.00238373 7.59984e-06 -3.20982e-05)
(0.00237563 7.11822e-06 -3.06656e-05)
(0.00239292 6.88514e-06 -2.80859e-05)
(0.00238341 6.42183e-06 -2.57942e-05)
(0.00241268 5.99513e-06 -2.26224e-05)
(0.00236895 5.40005e-06 -2.08184e-05)
(0.0023697 4.89811e-06 -1.85654e-05)
)
;
    }
}


// ************************************************************************* //
