/*--------------------------------*- C++ -*----------------------------------*\
| =========                 |                                                 |
| \\      /  F ield         | OpenFOAM: The Open Source CFD Toolbox           |
|  \\    /   O peration     | Version:  4.x                                   |
|   \\  /    A nd           | Web:      www.OpenFOAM.org                      |
|    \\/     M anipulation  |                                                 |
\*---------------------------------------------------------------------------*/
FoamFile
{
    version     2.0;
    format      ascii;
    class       volScalarField;
    location    "49";
    object      Ksl;
}
// * * * * * * * * * * * * * * * * * * * * * * * * * * * * * * * * * * * * * //

dimensions      [1 -3 -1 0 0 0 0];

internalField   nonuniform List<scalar> 
108
(
3384.95
7941.25
3390.72
7586.66
3372.95
7289.16
3310.21
7133.59
3187.29
3477.18
9879.45
3654.55
12629.4
3705.97
15344.9
3684.12
19227
3611.09
3513.86
11159.9
3768.08
17165.6
3825.28
27450.5
3798.8
75114.4
3744.6
3490.57
11147.8
3780.53
18264.4
3864.91
40666.4
3891.53
350032
3855.34
3365.62
7852.88
3356.72
7552.77
3363.71
7290.66
3303.47
7384.32
3263.1
3448.19
9003.23
3542.65
9958.8
3580.17
11044.7
3571.1
12961.5
3542.13
3463.59
10204.7
3682.57
13970.2
3760.79
19881.9
3736.47
32760.1
3695.05
3497.01
10527.1
3708.82
15096.1
3784.23
22730.8
3760.05
35876.7
3665.31
3321.07
6959.12
3169.46
5962.31
3105.03
5537.06
3031.64
5220.49
2904.4
3373.5
7718.04
3356.1
7082.2
3290.68
6672.8
3199.3
6363.74
3083.56
3425.55
8268.19
3453.89
8121.52
3423.71
7822.33
3322.14
7420.98
3211.22
3466.64
8480.46
3495.2
8610.67
3459.36
8237.67
3328.16
7571.63
3204.86
)
;

boundaryField
{
    inlet
    {
        type            zeroGradient;
    }
    outlet
    {
        type            zeroGradient;
    }
    wall
    {
        type            zeroGradient;
    }
    procBoundary4to0
    {
        type            processor;
        value           nonuniform List<scalar> 
36
(
3384.9
8179.05
3391.15
7685.23
3368.57
7550.56
3356.14
7715.93
3324.32
3456.49
10206.4
3626.38
12751.6
3701.98
16764.6
3759.23
26639.1
3733.02
3511.45
11708.7
3779.76
21946.7
3929.5
79363.9
4032.33
1e+10
4098.38
3503.12
11075.2
3747.57
17004.5
3788.41
25291.8
3778.14
36202.2
3731.43
)
;
    }
    procBoundary4to5
    {
        type            processor;
        value           nonuniform List<scalar> 
12
(
7168.19
31915.8
1e+10
1e+10
7716.89
15150
83653.5
53981
4843.36
6125.56
7195.81
7385.89
)
;
    }
    procBoundary4to6
    {
        type            processor;
        value           nonuniform List<scalar> 
27
(
3574.21
12645.9
3860.61
28317.6
3997.81
181538
4040.33
1e+10
4027.66
3516.41
10613.8
3704.13
14930.4
3754.27
22793.2
3787.49
42896.3
3759.22
3427.43
8077.37
3456.8
8043.45
3415.02
8035.47
3407.35
8354.63
3330.04
)
;
    }
}


// ************************************************************************* //
