/*--------------------------------*- C++ -*----------------------------------*\
| =========                 |                                                 |
| \\      /  F ield         | OpenFOAM: The Open Source CFD Toolbox           |
|  \\    /   O peration     | Version:  4.x                                   |
|   \\  /    A nd           | Web:      www.OpenFOAM.org                      |
|    \\/     M anipulation  |                                                 |
\*---------------------------------------------------------------------------*/
FoamFile
{
    version     2.0;
    format      ascii;
    class       surfaceScalarField;
    location    "49";
    object      phi;
}
// * * * * * * * * * * * * * * * * * * * * * * * * * * * * * * * * * * * * * //

dimensions      [0 3 -1 0 0 0 0];

internalField   nonuniform List<scalar> 
249
(
8.3647e-06
-4.89185e-07
-7.25216e-08
8.4192e-06
-2.28293e-07
-5.6704e-08
8.62544e-06
-5.06923e-07
-6.37234e-08
8.68801e-06
-1.8502e-07
-1.10546e-07
8.86391e-06
-3.76091e-07
-5.52103e-08
8.89072e-06
-1.21393e-07
-1.04626e-07
9.00396e-06
-2.77205e-07
-3.70315e-08
9.02173e-06
-1.16433e-07
-1.02382e-07
-2.03785e-07
6.52353e-08
7.80222e-06
-4.91545e-07
-1.45907e-08
7.64234e-06
-2.45328e-07
-1.99377e-08
7.25574e-06
-5.21569e-07
4.40543e-08
7.12989e-06
-1.77437e-07
-3.86631e-08
6.90098e-06
-4.10391e-07
4.27442e-08
6.84558e-06
-1.28028e-07
-4.14189e-08
6.64878e-06
-2.80621e-07
6.38403e-08
6.58102e-06
-9.59481e-08
-3.83362e-08
-9.05465e-08
1.24585e-07
7.56996e-06
-2.89142e-07
2.42798e-08
7.27096e-06
-1.25992e-07
5.04151e-09
6.67531e-06
-3.00988e-07
9.68445e-08
6.51092e-06
-1.07613e-07
1.89909e-08
6.12109e-06
-2.57522e-07
1.11493e-07
6.03148e-06
-7.28635e-08
2.5925e-08
5.64274e-06
-8.26449e-08
6.29883e-08
5.55615e-06
-2.29584e-08
2.48573e-08
2.41257e-08
2.1221e-08
7.59031e-06
-5.4957e-08
7.24648e-06
1.06303e-08
6.57391e-06
5.21645e-08
6.35798e-06
-7.24444e-09
5.80031e-06
8.4116e-08
5.63387e-06
2.46989e-08
5.27716e-06
9.32676e-08
5.16452e-06
2.37359e-08
4.95274e-08
8.37811e-06
-4.10964e-07
1.23595e-07
8.44736e-06
-2.02728e-07
7.67758e-08
8.6164e-06
-4.03975e-07
1.71207e-07
8.6351e-06
-1.45353e-07
1.61141e-08
8.79727e-06
-3.14859e-07
9.74744e-08
8.81423e-06
-1.06405e-07
-1.51743e-08
8.8432e-06
-2.01649e-07
1.35646e-07
8.73976e-06
-4.31627e-08
4.42141e-08
-1.11335e-07
2.06018e-07
8.02598e-06
-4.55171e-07
1.66905e-07
7.9441e-06
-2.22445e-07
8.1661e-08
7.79241e-06
-4.54706e-07
2.46473e-07
7.70073e-06
-1.5438e-07
6.20394e-08
7.55629e-06
-3.20746e-07
1.93075e-07
7.45923e-06
-8.99895e-08
3.92283e-08
7.25977e-06
-1.54044e-07
2.15694e-07
7.16258e-06
-4.11393e-08
5.68255e-08
-7.62188e-08
2.16881e-07
7.75822e-06
-2.3631e-07
2.10463e-07
7.49771e-06
-7.16008e-08
1.14708e-07
7.01213e-06
-1.72659e-07
3.00378e-07
6.82964e-06
-5.21979e-08
9.92979e-08
6.45387e-06
-1.00517e-07
2.67034e-07
6.35135e-06
-3.2536e-08
7.09936e-08
6.02899e-06
-2.29938e-08
2.54295e-07
5.94747e-06
-1.17061e-08
7.69467e-08
2.86297e-09
2.07823e-07
7.62889e-06
1.6611e-07
7.38649e-06
1.21686e-07
6.84651e-06
2.78213e-07
6.65668e-06
9.46514e-08
6.26237e-06
2.79831e-07
6.16447e-06
9.81324e-08
5.91582e-06
2.80049e-07
5.88757e-06
5.83183e-08
1.24566e-07
8.67292e-06
-3.8606e-07
8.96033e-06
-2.10631e-07
9.49411e-06
-3.62577e-07
9.64878e-06
-1.38558e-07
9.97694e-06
-2.30683e-07
1.00525e-05
-9.07389e-08
1.03524e-05
-1.64242e-07
1.04988e-05
-1.02226e-07
-1.75119e-07
8.37413e-06
-4.30018e-07
8.46719e-06
-2.22037e-07
8.77224e-06
-4.21153e-07
8.86853e-06
-1.72805e-07
9.09685e-06
-2.65926e-07
9.15149e-06
-1.06153e-07
9.36216e-06
-1.59218e-07
9.43649e-06
-1.19734e-07
-1.64059e-07
8.14912e-06
-2.05411e-07
8.13341e-06
-9.16162e-08
8.22952e-06
-2.16886e-07
8.2597e-06
-1.0369e-07
8.41229e-06
-1.51478e-07
8.45519e-06
-7.80625e-08
8.64808e-06
-9.78083e-08
8.69266e-06
-8.73684e-08
-1.16678e-07
8.02666e-06
8.02885e-06
8.04288e-06
8.04421e-06
8.18952e-06
8.27574e-06
8.55536e-06
8.62989e-06
)
;

boundaryField
{
    inlet
    {
        type            calculated;
        value           nonuniform List<scalar> 
12
(
-8.16327e-06
-8.16327e-06
-8.16327e-06
-8.16327e-06
-8.16327e-06
-8.16327e-06
-8.16327e-06
-8.16327e-06
-8.16327e-06
-8.16327e-06
-8.16327e-06
-8.16327e-06
)
;
    }
    outlet
    {
        type            calculated;
        value           nonuniform 0();
    }
    wall
    {
        type            calculated;
        value           nonuniform List<scalar> 
63
(
0
0
0
0
0
0
0
0
0
0
0
0
0
0
0
0
0
0
0
0
0
0
0
0
0
0
0
0
0
0
0
0
0
0
0
0
0
0
0
0
0
0
0
0
0
0
0
-7.70372e-34
0
0
0
0
0
0
0
0
0
0
0
0
0
0
0
)
;
    }
    procBoundary4to0
    {
        type            processor;
        value           nonuniform List<scalar> 
36
(
3.60269e-07
2.30498e-07
3.64406e-07
2.32993e-07
2.55401e-07
1.99212e-07
2.01002e-07
2.01041e-07
7.01986e-08
3.77993e-07
1.9686e-07
3.57188e-07
1.5693e-07
2.20466e-07
1.03458e-07
1.36373e-07
8.56057e-08
7.89065e-08
3.6662e-07
1.74621e-07
2.78231e-07
7.55687e-08
1.25468e-07
8.52902e-09
1.27771e-07
-1.12528e-08
5.30469e-08
3.98819e-07
2.03073e-07
3.67298e-07
1.46873e-07
2.87306e-07
9.34329e-08
2.04073e-07
7.09055e-08
3.55505e-08
)
;
    }
    procBoundary4to5
    {
        type            processor;
        value           nonuniform List<scalar> 
12
(
9.09008e-06
6.2643e-06
5.36721e-06
5.18164e-06
8.71032e-06
7.03517e-06
5.68179e-06
5.8048e-06
1.088e-05
9.64231e-06
8.8531e-06
8.76145e-06
)
;
    }
    procBoundary4to6
    {
        type            processor;
        value           nonuniform List<scalar> 
27
(
-6.00511e-08
4.13676e-09
-4.78809e-08
-3.13069e-08
-7.1275e-08
-2.4556e-08
-2.32818e-08
-4.95649e-09
-7.80682e-08
7.70026e-08
5.97395e-08
1.41272e-07
3.57383e-08
9.80749e-08
-8.07095e-09
3.8874e-08
-1.80387e-08
1.05964e-08
9.73047e-08
2.78813e-08
4.72981e-08
-1.03703e-08
-1.69575e-08
-6.61509e-08
-9.73826e-08
-1.03578e-07
-1.23668e-07
)
;
    }
}


// ************************************************************************* //
