/*--------------------------------*- C++ -*----------------------------------*\
| =========                 |                                                 |
| \\      /  F ield         | OpenFOAM: The Open Source CFD Toolbox           |
|  \\    /   O peration     | Version:  4.x                                   |
|   \\  /    A nd           | Web:      www.OpenFOAM.org                      |
|    \\/     M anipulation  |                                                 |
\*---------------------------------------------------------------------------*/
FoamFile
{
    version     2.0;
    format      ascii;
    class       volScalarField;
    location    "49";
    object      QPartFluidCoeff;
}
// * * * * * * * * * * * * * * * * * * * * * * * * * * * * * * * * * * * * * //

dimensions      [1 -1 -3 -1 0 0 0];

internalField   nonuniform List<scalar> 
108
(
-1.6415e+07
-2.36954e+07
-2.80893e+07
-1.99342e+07
-2.38597e+07
-1.99779e+07
-2.98142e+07
-2.29155e+07
-3.2172e+07
-2.33936e+07
-2.43274e+07
-3.12979e+07
-3.34759e+07
-3.37229e+07
-2.86485e+07
-2.71483e+07
-1.92592e+07
-3.70361e+07
-2.22958e+07
-3.42655e+07
-2.77247e+07
-3.12541e+07
-2.70954e+07
-2.10395e+07
-2.43768e+07
-3.43353e+07
-2.24827e+07
-1.15276e+07
-2.2446e+07
-3.13376e+07
-1.90391e+07
-2.93644e+07
-2.22813e+07
-3.67954e+07
-2.00048e+07
-2.35778e+07
-1.68788e+07
-1.82964e+07
-2.6848e+07
-2.77781e+07
-2.84218e+07
-1.82016e+07
-1.85903e+07
-2.51061e+07
-3.19377e+07
-2.08231e+07
-2.53357e+07
-2.51872e+07
-2.53139e+07
-2.58083e+07
-2.27113e+07
-2.83588e+07
-3.09016e+07
-3.50154e+07
-1.39855e+07
-2.44145e+07
-3.34337e+07
-2.76311e+07
-3.22679e+07
-2.75104e+07
-2.7284e+07
-2.38368e+07
-2.87846e+07
-2.06832e+07
-2.86161e+07
-2.51474e+07
-3.21624e+07
-3.50818e+07
-2.53616e+07
-3.9468e+07
-2.82387e+07
-2.71367e+07
-1.51759e+07
-2.09998e+07
-1.48166e+07
-2.01799e+07
-2.11698e+07
-2.67124e+07
-2.67386e+07
-2.17252e+07
-2.73635e+07
-1.62518e+07
-3.00321e+07
-2.37594e+07
-1.94915e+07
-2.49063e+07
-2.57084e+07
-2.46189e+07
-2.07577e+07
-2.86149e+07
-1.74458e+07
-2.48736e+07
-2.8212e+07
-2.39056e+07
-2.23804e+07
-2.31013e+07
-2.45764e+07
-2.64641e+07
-2.35096e+07
-2.41783e+07
-2.33736e+07
-2.23379e+07
-2.65914e+07
-2.81426e+07
-3.17941e+07
-1.65752e+07
-1.72657e+07
-2.36426e+07
)
;

boundaryField
{
    inlet
    {
        type            calculated;
        value           uniform 0;
    }
    outlet
    {
        type            calculated;
        value           nonuniform 0();
    }
    wall
    {
        type            calculated;
        value           uniform 0;
    }
    procBoundary4to0
    {
        type            processor;
        value           nonuniform List<scalar> 
36
(
329.136
377.003
511.657
391.925
535.496
587.383
446.114
327.158
456.416
388.265
725.267
687.259
611.149
544.137
500.717
788.271
542.748
523.681
392.191
422.063
684.25
461.174
657.209
634.955
623.087
373.755
705.469
364.942
509.042
743.491
773.828
417.027
743.799
648.051
421.598
198.192
)
;
    }
    procBoundary4to5
    {
        type            processor;
        value           nonuniform List<scalar> 
12
(
502.711
613.094
643.553
777.109
548.699
468.539
560.248
400.671
188.215
526.838
460.16
544.625
)
;
    }
    procBoundary4to6
    {
        type            processor;
        value           nonuniform List<scalar> 
27
(
752.352
676.822
459.829
603.697
836.928
459.487
658.045
504.196
753.299
555.517
680.482
730.127
652.948
504.272
596.751
599.796
462.592
723.732
371.347
408.987
562.089
531.84
542.443
493.183
779.607
660.037
343.584
)
;
    }
}


// ************************************************************************* //
