/*--------------------------------*- C++ -*----------------------------------*\
| =========                 |                                                 |
| \\      /  F ield         | OpenFOAM: The Open Source CFD Toolbox           |
|  \\    /   O peration     | Version:  4.x                                   |
|   \\  /    A nd           | Web:      www.OpenFOAM.org                      |
|    \\/     M anipulation  |                                                 |
\*---------------------------------------------------------------------------*/
FoamFile
{
    version     2.0;
    format      ascii;
    class       volVectorField;
    location    "49";
    object      UsNext;
}
// * * * * * * * * * * * * * * * * * * * * * * * * * * * * * * * * * * * * * //

dimensions      [0 1 -1 0 0 0 0];

internalField   nonuniform List<vector> 
108
(
(5.04623e-11 2.32038e-11 1.08658e-10)
(9.31244e-11 4.42092e-11 9.13054e-11)
(1.9632e-10 4.05582e-11 6.29754e-11)
(1.97171e-10 5.36553e-11 5.22744e-11)
(2.12502e-10 1.20272e-10 1.79572e-11)
(9.77035e-11 9.03532e-11 1.05707e-10)
(7.55143e-11 3.41749e-11 2.63029e-10)
(-9.55646e-11 1.54395e-10 5.41089e-10)
(-2.37584e-10 8.09647e-12 9.0111e-10)
(6.6955e-11 2.94732e-11 1.0692e-10)
(1.7856e-10 3.80135e-11 9.90893e-11)
(2.9608e-10 4.31232e-11 1.03945e-10)
(2.68885e-10 3.30815e-11 7.52421e-11)
(3.22918e-10 5.74752e-11 9.34959e-11)
(3.01825e-10 4.79621e-11 1.88238e-10)
(1.64621e-10 6.94389e-11 4.57775e-10)
(-5.48913e-11 3.08613e-10 7.87825e-10)
(4.67319e-11 2.3194e-10 1.26397e-09)
(9.14993e-11 6.48712e-11 8.83605e-11)
(2.45178e-10 1.31259e-10 1.28417e-10)
(4.16486e-10 1.18302e-10 1.19503e-10)
(5.26934e-10 9.45274e-11 1.02894e-10)
(6.09414e-10 9.96197e-11 1.43338e-10)
(7.23192e-10 1.61076e-10 2.72308e-10)
(6.72316e-10 1.85391e-10 4.64898e-10)
(5.00056e-10 4.90388e-10 8.33199e-10)
(1.31748e-09 8.56148e-11 9.06698e-10)
(8.72779e-11 3.92847e-11 6.15863e-11)
(2.8268e-10 2.74165e-11 7.57343e-11)
(5.71537e-10 -1.87558e-11 -2.42558e-12)
(7.45067e-10 9.47699e-12 5.31209e-11)
(1.0684e-09 9.40184e-11 1.87747e-10)
(1.25845e-09 1.70901e-10 3.29603e-10)
(1.6368e-09 1.32242e-10 4.66425e-10)
(1.70631e-09 3.54288e-10 5.2629e-10)
(1.77423e-09 3.82789e-10 7.32954e-10)
(3.93395e-11 3.20411e-11 4.66709e-11)
(8.49674e-11 3.99539e-11 5.30364e-11)
(1.44972e-10 2.56743e-11 4.36067e-11)
(1.58212e-10 4.18067e-11 3.2592e-11)
(2.13887e-10 5.25533e-11 5.41066e-11)
(1.20252e-10 2.80586e-11 4.75938e-11)
(1.40818e-10 -1.40881e-11 1.34711e-10)
(7.13697e-11 6.02564e-11 3.2144e-10)
(2.26972e-10 -3.99335e-11 3.05428e-10)
(6.92128e-11 2.39156e-11 6.99791e-11)
(1.19252e-10 4.68438e-11 5.90345e-11)
(1.97005e-10 1.78456e-11 4.55673e-11)
(2.26815e-10 9.94851e-12 5.28727e-11)
(2.77368e-10 2.25212e-11 7.9251e-11)
(2.07888e-10 1.77219e-11 1.29118e-10)
(2.3051e-10 2.09758e-11 2.81072e-10)
(2.15311e-10 -3.15056e-11 3.98277e-10)
(4.16605e-10 -1.12554e-10 5.99187e-10)
(5.45252e-11 4.08895e-11 4.20592e-11)
(1.42935e-10 8.35836e-11 6.83706e-11)
(2.50669e-10 9.5857e-11 6.84416e-11)
(2.76351e-10 3.50099e-11 8.24819e-11)
(3.84992e-10 1.99915e-11 5.57568e-11)
(3.82388e-10 1.18141e-10 2.15432e-10)
(3.81802e-10 1.4369e-10 3.25206e-10)
(7.31998e-10 2.9345e-10 3.67686e-10)
(5.24902e-10 2.41502e-10 6.06199e-10)
(6.75836e-11 2.59349e-11 2.28871e-11)
(1.94733e-10 1.69004e-11 1.92365e-11)
(3.99725e-10 -9.67267e-12 -2.19394e-11)
(4.65256e-10 -1.25065e-11 4.07442e-12)
(6.65898e-10 -2.70701e-11 5.68898e-11)
(1.027e-09 8.91799e-11 1.1529e-10)
(1.20368e-09 2.39792e-10 2.52306e-10)
(1.32243e-09 1.40381e-10 3.24994e-10)
(1.53529e-09 3.12836e-11 5.90061e-10)
(2.7913e-11 2.61961e-11 8.16464e-12)
(4.45181e-11 3.48053e-11 5.41623e-12)
(8.58237e-11 3.03179e-11 6.54063e-12)
(9.04822e-11 1.89511e-11 9.87646e-12)
(1.00916e-10 2.31293e-11 1.59341e-11)
(7.69364e-11 9.37511e-12 1.12894e-11)
(5.49091e-11 -3.05199e-11 9.0745e-11)
(4.57669e-11 4.16901e-12 1.65094e-10)
(1.05701e-10 -1.72048e-11 8.38071e-11)
(4.93969e-11 3.79548e-13 -4.72956e-12)
(6.73287e-11 2.25632e-11 1.15126e-11)
(1.3241e-10 9.81819e-12 1.54691e-11)
(1.4544e-10 1.33146e-11 1.34188e-11)
(1.85374e-10 1.1838e-11 2.98466e-11)
(7.51957e-11 -6.54586e-11 4.85988e-11)
(9.14097e-11 -8.82045e-11 4.17456e-11)
(1.26619e-10 -4.41371e-11 1.82724e-10)
(1.2789e-10 -9.62834e-11 2.06151e-10)
(4.34185e-11 3.20768e-11 1.23477e-12)
(8.09625e-11 6.85561e-11 1.08737e-11)
(1.26624e-10 4.2807e-11 1.71215e-11)
(1.41548e-10 3.45596e-11 7.25796e-12)
(2.05787e-10 1.29213e-11 2.80992e-11)
(2.01761e-10 1.44768e-12 7.4893e-11)
(3.16674e-10 1.08164e-10 1.1167e-10)
(3.16031e-10 1.60427e-10 1.55937e-10)
(2.12655e-10 5.39631e-13 1.96127e-10)
(5.7472e-11 -3.44756e-12 -7.46515e-12)
(1.04444e-10 -2.6613e-12 -1.77526e-11)
(2.62347e-10 4.61097e-11 -1.56971e-11)
(2.36805e-10 -8.8861e-12 -3.23393e-12)
(3.66141e-10 -5.49026e-11 -1.69684e-11)
(3.85507e-10 -5.7352e-11 -2.12012e-11)
(4.31476e-10 4.68448e-11 5.85634e-11)
(1.79553e-09 -5.99877e-10 5.92672e-11)
(8.53956e-10 9.40779e-11 1.50387e-10)
)
;

boundaryField
{
    inlet
    {
        type            calculated;
        value           nonuniform List<vector> 
12
(
(5.04623e-11 2.32038e-11 1.08658e-10)
(6.6955e-11 2.94732e-11 1.0692e-10)
(9.14993e-11 6.48712e-11 8.83605e-11)
(8.72779e-11 3.92847e-11 6.15863e-11)
(3.93395e-11 3.20411e-11 4.66709e-11)
(6.92128e-11 2.39156e-11 6.99791e-11)
(5.45252e-11 4.08895e-11 4.20592e-11)
(6.75836e-11 2.59349e-11 2.28871e-11)
(2.7913e-11 2.61961e-11 8.16464e-12)
(4.93969e-11 3.79548e-13 -4.72956e-12)
(4.34185e-11 3.20768e-11 1.23477e-12)
(5.7472e-11 -3.44756e-12 -7.46515e-12)
)
;
    }
    outlet
    {
        type            calculated;
        value           nonuniform 0();
    }
    wall
    {
        type            calculated;
        value           nonuniform List<vector> 
63
(
(2.7913e-11 2.61961e-11 8.16464e-12)
(4.93969e-11 3.79548e-13 -4.72956e-12)
(4.34185e-11 3.20768e-11 1.23477e-12)
(5.7472e-11 -3.44756e-12 -7.46515e-12)
(4.45181e-11 3.48053e-11 5.41623e-12)
(6.73287e-11 2.25632e-11 1.15126e-11)
(8.09625e-11 6.85561e-11 1.08737e-11)
(1.04444e-10 -2.6613e-12 -1.77526e-11)
(8.58237e-11 3.03179e-11 6.54063e-12)
(1.3241e-10 9.81819e-12 1.54691e-11)
(1.26624e-10 4.2807e-11 1.71215e-11)
(2.62347e-10 4.61097e-11 -1.56971e-11)
(9.04822e-11 1.89511e-11 9.87646e-12)
(1.4544e-10 1.33146e-11 1.34188e-11)
(1.41548e-10 3.45596e-11 7.25796e-12)
(2.36805e-10 -8.8861e-12 -3.23393e-12)
(1.00916e-10 2.31293e-11 1.59341e-11)
(1.85374e-10 1.1838e-11 2.98466e-11)
(2.05787e-10 1.29213e-11 2.80992e-11)
(3.66141e-10 -5.49026e-11 -1.69684e-11)
(7.69364e-11 9.37511e-12 1.12894e-11)
(7.51957e-11 -6.54586e-11 4.85988e-11)
(2.01761e-10 1.44768e-12 7.4893e-11)
(3.85507e-10 -5.7352e-11 -2.12012e-11)
(5.49091e-11 -3.05199e-11 9.0745e-11)
(9.14097e-11 -8.82045e-11 4.17456e-11)
(3.16674e-10 1.08164e-10 1.1167e-10)
(4.31476e-10 4.68448e-11 5.85634e-11)
(4.57669e-11 4.16901e-12 1.65094e-10)
(1.26619e-10 -4.41371e-11 1.82724e-10)
(3.16031e-10 1.60427e-10 1.55937e-10)
(1.79553e-09 -5.99877e-10 5.92672e-11)
(1.05701e-10 -1.72048e-11 8.38071e-11)
(1.2789e-10 -9.62834e-11 2.06151e-10)
(2.12655e-10 5.39631e-13 1.96127e-10)
(8.53956e-10 9.40779e-11 1.50387e-10)
(5.04623e-11 2.32038e-11 1.08658e-10)
(3.93395e-11 3.20411e-11 4.66709e-11)
(2.7913e-11 2.61961e-11 8.16464e-12)
(9.31244e-11 4.42092e-11 9.13054e-11)
(8.49674e-11 3.99539e-11 5.30364e-11)
(4.45181e-11 3.48053e-11 5.41623e-12)
(1.9632e-10 4.05582e-11 6.29754e-11)
(1.44972e-10 2.56743e-11 4.36067e-11)
(8.58237e-11 3.03179e-11 6.54063e-12)
(1.97171e-10 5.36553e-11 5.22744e-11)
(1.58212e-10 4.18067e-11 3.2592e-11)
(9.04822e-11 1.89511e-11 9.87646e-12)
(2.12502e-10 1.20272e-10 1.79572e-11)
(2.13887e-10 5.25533e-11 5.41066e-11)
(1.00916e-10 2.31293e-11 1.59341e-11)
(9.77035e-11 9.03532e-11 1.05707e-10)
(1.20252e-10 2.80586e-11 4.75938e-11)
(7.69364e-11 9.37511e-12 1.12894e-11)
(7.55143e-11 3.41749e-11 2.63029e-10)
(1.40818e-10 -1.40881e-11 1.34711e-10)
(5.49091e-11 -3.05199e-11 9.0745e-11)
(-9.55646e-11 1.54395e-10 5.41089e-10)
(7.13697e-11 6.02564e-11 3.2144e-10)
(4.57669e-11 4.16901e-12 1.65094e-10)
(-2.37584e-10 8.09647e-12 9.0111e-10)
(2.26972e-10 -3.99335e-11 3.05428e-10)
(1.05701e-10 -1.72048e-11 8.38071e-11)
)
;
    }
    procBoundary4to0
    {
        type            processor;
        value           nonuniform List<vector> 
36
(
(6.7796e-11 6.12963e-11 2.28023e-10)
(1.9387e-10 6.65145e-11 2.51435e-10)
(3.72599e-10 3.8465e-11 2.07425e-10)
(2.2769e-10 3.30361e-11 4.03742e-11)
(2.19475e-10 9.24545e-12 -2.93826e-11)
(-5.67337e-12 4.25494e-11 1.53046e-10)
(-1.5918e-10 1.17485e-10 3.48477e-10)
(-2.49878e-10 1.30729e-11 1.09625e-09)
(-5.2703e-10 -1.95226e-10 2.82319e-09)
(8.92303e-11 6.50828e-11 2.16893e-10)
(2.37252e-10 1.09766e-10 2.86913e-10)
(4.03443e-10 5.85099e-11 2.16713e-10)
(4.40243e-10 7.42617e-11 1.17731e-10)
(3.59331e-10 1.06588e-10 4.43143e-11)
(1.74369e-10 1.05524e-10 2.4133e-10)
(-3.91127e-13 2.27921e-10 5.16102e-10)
(-3.34778e-10 2.15974e-10 1.05873e-09)
(-8.80691e-10 6.45583e-10 1.91711e-09)
(1.52809e-10 1.81902e-10 1.80399e-10)
(2.97078e-10 1.52486e-10 1.87797e-10)
(4.78055e-10 1.41553e-10 1.70107e-10)
(5.225e-10 1.51223e-10 1.29751e-10)
(6.227e-10 2.10592e-10 1.85511e-10)
(6.36193e-10 1.91023e-10 3.96831e-10)
(5.66889e-10 3.82827e-10 6.27976e-10)
(2.0001e-10 6.57729e-10 1.30681e-09)
(-1.5049e-10 1.10088e-09 2.12898e-09)
(9.10357e-11 8.54536e-11 1.28404e-10)
(3.03251e-10 5.01576e-11 1.8775e-10)
(5.52743e-10 6.52648e-11 1.47244e-10)
(9.29108e-10 9.35278e-11 2.47402e-10)
(1.14737e-09 2.07385e-10 4.21615e-10)
(1.08038e-09 1.47739e-10 4.69627e-10)
(1.13421e-09 4.81463e-10 6.47372e-10)
(9.4986e-10 5.81324e-10 9.7461e-10)
(1.3206e-09 3.93189e-10 1.15763e-09)
)
;
    }
    procBoundary4to5
    {
        type            processor;
        value           nonuniform List<vector> 
12
(
(-9.08781e-12 3.0113e-10 5.18094e-10)
(1.04382e-09 5.87407e-10 9.77276e-10)
(1.08763e-09 5.82681e-10 1.49334e-09)
(1.70874e-09 5.51576e-10 9.5651e-10)
(3.33887e-10 2.52289e-11 2.79811e-10)
(6.69724e-10 -4.69777e-11 5.80631e-10)
(1.00888e-09 7.04696e-10 9.59212e-10)
(1.6996e-09 4.81177e-10 3.22395e-10)
(1.32158e-10 2.06457e-11 3.56904e-11)
(3.16659e-10 -1.70291e-11 6.93722e-11)
(4.28957e-10 2.93831e-10 5.52825e-11)
(1.12838e-09 2.43475e-10 6.47751e-11)
)
;
    }
    procBoundary4to6
    {
        type            processor;
        value           nonuniform List<vector> 
27
(
(1.15217e-10 -2.8453e-11 4.81841e-11)
(2.36292e-10 -7.98847e-11 9.37001e-11)
(3.3381e-10 -1.03343e-10 6.58076e-11)
(4.80278e-10 -7.4484e-11 1.19599e-10)
(7.63138e-10 -5.04971e-11 2.69163e-10)
(9.37642e-10 1.99778e-11 1.53157e-10)
(1.04548e-09 1.56188e-10 2.12218e-10)
(1.22654e-09 1.23649e-10 3.11101e-10)
(1.63628e-09 3.05644e-10 3.9036e-10)
(5.41595e-11 -2.84014e-11 2.49137e-11)
(1.86255e-10 -6.46852e-11 4.4992e-11)
(3.22578e-10 -9.34293e-11 3.82263e-12)
(3.74544e-10 -7.66476e-11 4.43509e-11)
(5.30801e-10 -5.38884e-11 9.96851e-11)
(7.99356e-10 -8.51793e-11 7.67608e-11)
(9.91565e-10 8.37382e-11 1.19842e-10)
(1.07304e-09 3.56095e-11 1.89378e-10)
(1.29583e-09 2.78878e-10 3.16745e-10)
(5.68429e-11 -2.65399e-11 4.29813e-12)
(8.42949e-11 -4.33167e-11 1.25991e-11)
(2.09026e-10 -5.36651e-11 -2.20027e-11)
(2.35981e-10 -5.40993e-11 -6.09641e-12)
(3.51948e-10 -5.81834e-11 -1.89261e-11)
(4.43257e-10 -1.04749e-10 -8.91947e-12)
(7.00586e-10 7.04138e-11 3.04196e-11)
(5.9722e-10 5.26955e-12 4.51095e-11)
(6.64625e-10 1.37625e-10 1.02581e-10)
)
;
    }
}


// ************************************************************************* //
