/*--------------------------------*- C++ -*----------------------------------*\
| =========                 |                                                 |
| \\      /  F ield         | OpenFOAM: The Open Source CFD Toolbox           |
|  \\    /   O peration     | Version:  4.x                                   |
|   \\  /    A nd           | Web:      www.OpenFOAM.org                      |
|    \\/     M anipulation  |                                                 |
\*---------------------------------------------------------------------------*/
FoamFile
{
    version     2.0;
    format      ascii;
    class       volScalarField;
    location    "18.5";
    object      p;
}
// * * * * * * * * * * * * * * * * * * * * * * * * * * * * * * * * * * * * * //

dimensions      [1 -1 -2 0 0 0 0];

internalField   nonuniform List<scalar> 
108
(
-1767.69
-1784.74
-1774.99
-1801.87
-1782.52
-1819.34
-1790.09
-1837.17
-1797.58
-1766.98
-1784.38
-1774.31
-1801.58
-1782
-1819.19
-1789.68
-1836.91
-1797.19
-1766.62
-1784.15
-1774.08
-1801.38
-1781.89
-1818.93
-1789.6
-1836.51
-1797.26
-1766.41
-1783.79
-1773.76
-1801.01
-1781.55
-1818.54
-1789.41
-1836.22
-1797.09
-3645.61
-3662.59
-3652.95
-3679.68
-3660.61
-3697.26
-3668.19
-3714.98
-3675.76
-3644.94
-3662.24
-3652.33
-3679.37
-3660
-3696.94
-3667.69
-3714.7
-3675.44
-3644.66
-3661.99
-3652.15
-3679.28
-3659.99
-3696.95
-3667.83
-3714.72
-3675.47
-3644.15
-3661.74
-3651.71
-3678.86
-3659.61
-3696.47
-3667.51
-3714.17
-3675.19
-5523.62
-5540.58
-5531
-5557.47
-5538.53
-5574.96
-5546.19
-5592.78
-5553.76
-5523.05
-5540.26
-5530.56
-5557.32
-5538.18
-5574.83
-5545.91
-5592.53
-5553.49
-5522.74
-5540.08
-5530.32
-5557.27
-5538.07
-5574.8
-5545.87
-5592.53
-5553.45
-5522.26
-5539.84
-5529.84
-5556.88
-5537.68
-5574.55
-5545.7
-5592.11
-5553.31
)
;

boundaryField
{
    inlet
    {
        type            calculated;
        value           nonuniform List<scalar> 
12
(
-1767.69
-1766.98
-1766.62
-1766.41
-3645.61
-3644.94
-3644.66
-3644.15
-5523.62
-5523.05
-5522.74
-5522.26
)
;
    }
    outlet
    {
        type            calculated;
        value           nonuniform 0();
    }
    wall
    {
        type            calculated;
        value           nonuniform List<scalar> 
63
(
-6462.58
-6462
-6461.7
-6461.21
-6479.54
-6479.21
-6479.03
-6478.79
-6469.96
-6469.52
-6469.28
-6468.79
-6496.43
-6496.28
-6496.23
-6495.84
-6477.48
-6477.14
-6477.03
-6476.63
-6513.91
-6513.78
-6513.75
-6513.5
-6485.14
-6484.86
-6484.82
-6484.65
-6531.73
-6531.48
-6531.47
-6531.05
-6492.71
-6492.43
-6492.39
-6492.24
-1767.69
-3645.61
-5523.62
-1784.74
-3662.59
-5540.58
-1774.99
-3652.95
-5531
-1801.87
-3679.68
-5557.47
-1782.52
-3660.61
-5538.53
-1819.34
-3697.26
-5574.96
-1790.09
-3668.19
-5546.19
-1837.17
-3714.98
-5592.78
-1797.58
-3675.76
-5553.76
)
;
    }
    procBoundary4to0
    {
        type            processor;
        value           nonuniform List<scalar> 
36
(
109.49
92.6321
102.313
75.6165
94.9585
58.0659
87.325
40.0615
79.9358
110.215
93.0319
102.934
75.8363
95.4369
58.2694
87.7856
40.1463
80.2491
110.487
93.2407
103.137
76.0034
95.5072
58.3561
87.7384
40.4659
80.3369
110.973
93.6138
103.589
76.2524
95.7902
58.7287
87.9694
40.9078
80.5451
)
;
    }
    procBoundary4to5
    {
        type            processor;
        value           nonuniform List<scalar> 
12
(
-1855.38
-1854.94
-1853.99
-1853.49
-3733.38
-3732.88
-3732.71
-3731.5
-5610.95
-5610.56
-5610.33
-5609.63
)
;
    }
    procBoundary4to6
    {
        type            processor;
        value           nonuniform List<scalar> 
27
(
-1766.01
-1784.05
-1773.75
-1801.14
-1781.64
-1818.76
-1789.61
-1836.25
-1797.52
-3644.27
-3661.97
-3652.01
-3679.17
-3659.89
-3696.6
-3667.7
-3714.27
-3675.27
-5522.52
-5539.94
-5530.04
-5557.01
-5537.79
-5574.47
-5545.67
-5592.25
-5553.29
)
;
    }
}


// ************************************************************************* //
