/*--------------------------------*- C++ -*----------------------------------*\
| =========                 |                                                 |
| \\      /  F ield         | OpenFOAM: The Open Source CFD Toolbox           |
|  \\    /   O peration     | Version:  4.x                                   |
|   \\  /    A nd           | Web:      www.OpenFOAM.org                      |
|    \\/     M anipulation  |                                                 |
\*---------------------------------------------------------------------------*/
FoamFile
{
    version     2.0;
    format      ascii;
    class       volVectorField;
    location    "18.5";
    object      Urel;
}
// * * * * * * * * * * * * * * * * * * * * * * * * * * * * * * * * * * * * * //

dimensions      [0 1 -1 0 0 0 0];

internalField   nonuniform List<vector> 
108
(
(-0.0231527 0.000652025 0.000653448)
(-0.0213469 0.000590029 0.000624789)
(-0.0222137 0.000604779 0.000631196)
(-0.0208325 0.000517255 0.000583026)
(-0.0219441 0.000495015 0.000544359)
(-0.0206606 0.00042653 0.00048642)
(-0.0218831 0.000432274 0.000430335)
(-0.020608 0.000393372 0.000346434)
(-0.0219369 0.00041527 0.000221168)
(-0.0229635 0.000614754 0.000653401)
(-0.0209586 0.000539492 0.000617222)
(-0.0217303 0.000553531 0.000623957)
(-0.020012 0.00045472 0.000555735)
(-0.0211655 0.000442495 0.000517728)
(-0.0195221 0.000370144 0.00043397)
(-0.0208791 0.000380963 0.000364992)
(-0.0191912 0.00033057 0.000257942)
(-0.0207251 0.000350457 0.00011975)
(-0.0227874 0.000417757 0.000661898)
(-0.0206772 0.000370059 0.000619756)
(-0.0213553 0.000370794 0.000619824)
(-0.0194861 0.000315126 0.000538418)
(-0.0205899 0.000315066 0.000488699)
(-0.018804 0.000265139 0.000393543)
(-0.0201394 0.000261882 0.000305241)
(-0.0183035 0.000223591 0.000194138)
(-0.0198223 0.000218606 4.69678e-05)
(-0.0227006 0.000149147 0.000675385)
(-0.020561 0.000117849 0.000625936)
(-0.0211867 0.000125049 0.000629359)
(-0.0192687 0.000112387 0.000547773)
(-0.0203124 0.000129684 0.000494915)
(-0.0184361 0.000102349 0.000386909)
(-0.0197523 9.31526e-05 0.000291975)
(-0.0178448 7.32821e-05 0.00017835)
(-0.019358 3.62111e-05 3.2887e-05)
(-0.0232173 0.000659677 0.000312668)
(-0.0214799 0.000602122 0.000313926)
(-0.0223789 0.000618697 0.000297503)
(-0.0211006 0.00053277 0.00031368)
(-0.0222146 0.000516098 0.000282882)
(-0.021036 0.00044711 0.000264532)
(-0.0222242 0.000445781 0.000188046)
(-0.0210661 0.000402026 0.000141979)
(-0.0223559 0.00040496 3.5808e-05)
(-0.0230453 0.000621814 0.000296349)
(-0.0211151 0.000554136 0.00030047)
(-0.0219194 0.000568009 0.000268337)
(-0.0203059 0.000468045 0.000282127)
(-0.0214468 0.000452257 0.000245072)
(-0.0199002 0.000375887 0.000220981)
(-0.0212246 0.000372147 0.000128118)
(-0.01965 0.000327599 8.185e-05)
(-0.0211671 0.000338605 -5.30311e-05)
(-0.0228588 0.000440216 0.00029533)
(-0.0208191 0.000385884 0.000299779)
(-0.0215227 0.000390444 0.000271508)
(-0.0197351 0.000329755 0.000270173)
(-0.020835 0.000317427 0.000224796)
(-0.0191336 0.000268582 0.000186357)
(-0.0204699 0.000255039 7.92039e-05)
(-0.0187683 0.000234933 3.17957e-05)
(-0.020301 0.0002431 -0.000106625)
(-0.022762 0.000145805 0.000316281)
(-0.0206674 0.000118658 0.000311465)
(-0.0213152 0.000120557 0.000300362)
(-0.0194601 0.000113489 0.000281654)
(-0.0205126 0.000120348 0.000223236)
(-0.0187268 0.000112267 0.000175708)
(-0.0200345 0.000112825 6.62479e-05)
(-0.0182551 0.000102938 2.30891e-05)
(-0.0197592 0.000105709 -0.000123621)
(-0.0233231 0.000647522 0.000174334)
(-0.0216933 0.00059573 0.000177933)
(-0.0226473 0.000595278 0.000164737)
(-0.0215408 0.000515562 0.000191998)
(-0.0226544 0.000489956 0.000184445)
(-0.0216376 0.000428588 0.000176015)
(-0.0227796 0.000419277 0.000109525)
(-0.0217999 0.000395796 7.11563e-05)
(-0.0230212 0.000398564 7.28548e-06)
(-0.0231659 0.000618348 0.000155308)
(-0.0213914 0.000557385 0.00016103)
(-0.0222505 0.000566395 0.000128286)
(-0.0209379 0.000472647 0.000154019)
(-0.0220224 0.000449783 0.000134321)
(-0.0208048 0.00037902 0.000125218)
(-0.0219773 0.000365996 4.77307e-05)
(-0.0208084 0.000340338 2.11568e-05)
(-0.0220899 0.000349668 -5.15181e-05)
(-0.0229765 0.000449477 0.000156952)
(-0.021087 0.000400646 0.000161183)
(-0.0218454 0.000425835 0.00013744)
(-0.020321 0.000357446 0.000150816)
(-0.0213659 0.000338997 0.000129229)
(-0.019951 0.000282593 0.000106295)
(-0.0211632 0.000267015 2.47137e-05)
(-0.0198385 0.000257792 -8.76477e-06)
(-0.0211678 0.000259151 -8.68867e-05)
(-0.0228756 0.000139776 0.000162832)
(-0.0209024 0.000130067 0.000173013)
(-0.0215953 0.00015058 0.000166496)
(-0.0199023 0.000136536 0.000166465)
(-0.0209524 0.000142181 0.000131972)
(-0.0193774 0.00013018 9.33917e-05)
(-0.0206259 0.000134206 7.44286e-06)
(-0.0191501 0.000128241 -2.60077e-05)
(-0.020531 0.00013406 -0.000120581)
)
;

boundaryField
{
    inlet
    {
        type            calculated;
        value           nonuniform List<vector> 
12
(
(-0.00999997 1.47031e-08 -2.37236e-08)
(-0.00999998 7.0269e-08 9.96041e-09)
(-0.00999999 -1.87969e-08 5.27991e-08)
(-0.00999997 -2.00683e-08 7.35362e-08)
(-0.00999998 -6.19779e-09 -8.73847e-09)
(-0.00999999 -3.98806e-08 4.28233e-09)
(-0.01 -2.7165e-08 7.32737e-08)
(-0.00999996 -7.38906e-08 -2.87791e-08)
(-0.00999998 -2.27327e-08 -3.25713e-09)
(-0.00999998 -5.70285e-08 -1.0914e-08)
(-0.01 -1.76231e-07 1.44075e-07)
(-0.01 -3.28262e-07 -7.78899e-08)
)
;
    }
    outlet
    {
        type            calculated;
        value           nonuniform 0();
    }
    wall
    {
        type            calculated;
        value           nonuniform List<vector> 
63
(
(1.63031e-08 -2.27327e-08 -3.25713e-09)
(2.00902e-08 -5.70285e-08 -1.0914e-08)
(-3.78176e-08 -1.76231e-07 1.44075e-07)
(-3.20528e-08 -3.28262e-07 -7.78899e-08)
(2.03883e-08 -5.02964e-08 9.46508e-09)
(1.09102e-08 -9.19493e-08 1.27821e-08)
(-2.53769e-08 -1.45261e-07 5.38173e-08)
(-2.26936e-08 -1.92521e-07 1.18652e-08)
(-6.00527e-10 -3.25691e-08 9.34521e-09)
(-2.59722e-08 -9.5525e-08 8.06042e-09)
(-1.44419e-08 -1.4127e-07 1.26814e-08)
(-5.00288e-08 -2.17048e-07 5.51445e-08)
(-8.72899e-08 -7.763e-09 1.42926e-08)
(-8.44565e-08 -7.77426e-08 3.61204e-09)
(-1.12202e-07 -1.52578e-07 -4.36351e-09)
(-7.99373e-08 -2.43093e-07 2.25717e-08)
(-1.19463e-07 -1.9482e-08 2.0684e-08)
(-1.29279e-07 -3.36624e-08 1.08947e-08)
(-3.60899e-07 -9.59458e-08 -3.18264e-08)
(-1.29992e-07 -1.63075e-07 5.66451e-08)
(-1.39621e-07 -3.599e-08 1.10864e-08)
(-3.45465e-07 -6.12194e-08 3.5862e-08)
(-5.04948e-07 -1.01593e-07 5.39882e-08)
(-2.69217e-07 -1.59788e-07 9.96778e-09)
(-1.74207e-07 -1.64123e-08 3.63757e-08)
(-2.82451e-07 -4.14698e-08 2.34541e-08)
(-3.69639e-07 -1.15325e-07 4.67497e-08)
(-3.94944e-07 -3.00631e-07 -1.63726e-08)
(-1.73297e-07 -3.35078e-09 1.92289e-08)
(-2.8664e-07 1.89214e-09 3.63332e-08)
(-3.85576e-07 -1.06602e-07 -4.18973e-08)
(-6.03625e-07 -1.57197e-07 -5.31964e-08)
(-2.02409e-07 -2.33496e-08 3.66998e-09)
(-3.25597e-07 -3.95639e-08 5.60383e-08)
(-4.55753e-07 -3.26926e-08 -4.177e-08)
(-5.55726e-07 -2.28171e-07 -1.51417e-08)
(2.84339e-08 1.47031e-08 -2.37236e-08)
(1.67076e-08 -6.19779e-09 -8.73847e-09)
(1.63031e-08 -2.27327e-08 -3.25713e-09)
(9.45616e-09 -1.81645e-08 3.41562e-08)
(1.2287e-08 -2.8058e-08 7.7711e-09)
(2.03883e-08 -5.02964e-08 9.46508e-09)
(-2.66961e-08 -6.3546e-08 -2.25629e-08)
(-1.58293e-08 -4.20248e-08 -1.36513e-08)
(-6.00527e-10 -3.25691e-08 9.34521e-09)
(-1.38947e-07 -5.04878e-08 -4.42387e-08)
(-9.32534e-08 -4.16623e-08 2.72532e-08)
(-8.72899e-08 -7.763e-09 1.42926e-08)
(-2.21204e-07 -1.17982e-07 -2.45346e-08)
(-1.63815e-07 -3.58098e-08 5.86987e-08)
(-1.19463e-07 -1.9482e-08 2.0684e-08)
(-2.74273e-07 -5.96657e-08 4.62249e-08)
(-2.00608e-07 -3.91881e-08 3.87615e-08)
(-1.39621e-07 -3.599e-08 1.10864e-08)
(-4.48898e-07 -3.91269e-08 1.24857e-07)
(-2.33844e-07 7.16025e-09 3.65351e-08)
(-1.74207e-07 -1.64123e-08 3.63757e-08)
(-6.24329e-07 -2.79871e-08 3.65445e-08)
(-4.15467e-07 -2.18207e-08 -4.27154e-10)
(-1.73297e-07 -3.35078e-09 1.92289e-08)
(-4.24258e-07 2.99846e-08 -5.4756e-08)
(-3.53026e-07 -1.06171e-08 2.47704e-08)
(-2.02409e-07 -2.33496e-08 3.66998e-09)
)
;
    }
    procBoundary4to0
    {
        type            processor;
        value           nonuniform List<vector> 
36
(
(-0.0231857 0.000622826 0.000979237)
(-0.0213939 0.000562926 0.000923104)
(-0.0223098 0.000573333 0.000929743)
(-0.0209776 0.000490551 0.000839027)
(-0.0221399 0.00047529 0.000792853)
(-0.0209035 0.00041613 0.000699351)
(-0.0221761 0.000429978 0.000635328)
(-0.0209754 0.000377175 0.00052317)
(-0.0223326 0.000385878 0.000394901)
(-0.0230111 0.000580533 0.00100021)
(-0.0210314 0.000511817 0.000926723)
(-0.021861 0.000524151 0.000937382)
(-0.0202245 0.000434489 0.000814748)
(-0.0214007 0.000426982 0.00076642)
(-0.0198418 0.000362564 0.000644046)
(-0.0212043 0.000380895 0.000567142)
(-0.0195975 0.000326889 0.000428205)
(-0.0211177 0.000343091 0.000295921)
(-0.0228331 0.000399038 0.00100566)
(-0.0207743 0.000352084 0.00092638)
(-0.0215029 0.000354312 0.000923288)
(-0.0197125 0.000296879 0.000790721)
(-0.0208358 0.0002936 0.00072597)
(-0.0191089 0.000253576 0.000595583)
(-0.0204596 0.000257793 0.000487439)
(-0.0186876 0.000228108 0.000355783)
(-0.0202038 0.000227778 0.000210021)
(-0.0227585 0.000129659 0.00101012)
(-0.0206648 0.000105372 0.000933193)
(-0.02135 9.62939e-05 0.000931371)
(-0.0194994 8.40935e-05 0.000799143)
(-0.0205882 8.66392e-05 0.000738664)
(-0.018792 8.00703e-05 0.000596874)
(-0.0201181 9.00083e-05 0.000481409)
(-0.0182693 6.86924e-05 0.000341206)
(-0.019759 5.1999e-05 0.000195008)
)
;
    }
    procBoundary4to5
    {
        type            processor;
        value           nonuniform List<vector> 
12
(
(-0.0206346 0.000375814 0.000131318)
(-0.0189258 0.000293635 3.92512e-05)
(-0.0178769 0.000191276 -1.89272e-05)
(-0.0174025 6.05964e-05 -2.50516e-05)
(-0.021181 0.000393035 3.93206e-06)
(-0.0195891 0.000325731 -5.83277e-05)
(-0.0186174 0.000254 -0.00010554)
(-0.0180117 0.000112435 -0.000109254)
(-0.0220521 0.000403928 1.40509e-07)
(-0.0209651 0.000371752 -5.51126e-05)
(-0.0199155 0.000305685 -9.14466e-05)
(-0.0191874 0.000164526 -0.000129994)
)
;
    }
    procBoundary4to6
    {
        type            processor;
        value           nonuniform List<vector> 
27
(
(-0.0227249 -0.00017691 0.000673367)
(-0.0205755 -0.000155476 0.000627645)
(-0.0212296 -0.000161641 0.000639166)
(-0.0192923 -0.000116869 0.000557417)
(-0.020385 -0.000109112 0.000512387)
(-0.0184353 -7.82999e-05 0.000401994)
(-0.0198234 -7.55775e-05 0.000310375)
(-0.0178664 -6.62017e-05 0.000202353)
(-0.0194828 -8.80141e-05 7.70503e-05)
(-0.0227991 -0.000198015 0.000285573)
(-0.0207407 -0.00016452 0.000312164)
(-0.0214124 -0.000173648 0.000297632)
(-0.0196109 -0.000123513 0.000289724)
(-0.0206652 -0.000111998 0.000230265)
(-0.0189227 -7.71116e-05 0.000197745)
(-0.0202044 -7.44717e-05 0.000103969)
(-0.0184405 -5.29072e-05 6.05885e-05)
(-0.0199382 -4.648e-05 -3.82111e-05)
(-0.0229362 -0.000208936 0.000151337)
(-0.0210106 -0.000166429 0.000183396)
(-0.0217193 -0.000175222 0.000188772)
(-0.020087 -0.000120885 0.000192734)
(-0.0211118 -9.90156e-05 0.000165151)
(-0.0195655 -6.38693e-05 0.000125705)
(-0.020767 -5.49437e-05 4.75311e-05)
(-0.0192743 -3.01149e-05 1.0108e-05)
(-0.020622 -1.54743e-05 -6.25359e-05)
)
;
    }
}


// ************************************************************************* //
