/*--------------------------------*- C++ -*----------------------------------*\
| =========                 |                                                 |
| \\      /  F ield         | OpenFOAM: The Open Source CFD Toolbox           |
|  \\    /   O peration     | Version:  4.x                                   |
|   \\  /    A nd           | Web:      www.OpenFOAM.org                      |
|    \\/     M anipulation  |                                                 |
\*---------------------------------------------------------------------------*/
FoamFile
{
    version     2.0;
    format      ascii;
    class       volScalarField;
    location    "47";
    object      p;
}
// * * * * * * * * * * * * * * * * * * * * * * * * * * * * * * * * * * * * * //

dimensions      [1 -1 -2 0 0 0 0];

internalField   nonuniform List<scalar> 
132
(
20.4458
74.4034
1.72344
67.9674
-16.9345
62.1149
-35.4387
57.4243
-51.3116
20.5607
74.4945
1.83192
67.7482
-16.4229
60.8474
-34.0316
54.6066
-49.3097
18.7818
74.3201
-0.900267
67.9717
-21.1424
62.6749
-42.4904
60.0063
-64.5463
19.3328
74.4026
-0.176094
68.1395
-20.2689
62.8041
-41.4387
59.7244
-63.5667
-1874.53
-1809.99
-1892.7
-1815.77
-1910.59
-1821.51
-1926.87
-1855.44
-1803.33
-1873.4
-1809.73
-1891.41
-1815.81
-1909.5
-1822.1
-1927.03
-1857.14
-1803.4
-1875.4
-1809.93
-1893.06
-1816.04
-1910.18
-1822.2
-1924.34
-1857.04
-1802.84
-1875.37
-1809.3
-1893.49
-1815.94
-1910.47
-1822.4
-1924.74
-3773.57
-3694.22
-3792.6
-3699.05
-3810.16
-3734.84
-3681.3
-3753.3
-3688.03
-3771.46
-3694.95
-3789.35
-3701.39
-3805.16
-3735.51
-3681.42
-3754.71
-3687.99
-3774.46
-3693.7
-3796.35
-3697.08
-3820.53
-3735.36
-3681.34
-3754.18
-3687.83
-3773.9
-3693.55
-3794.27
-3697.35
-3817.77
-5673.14
-5575.16
-5696
-5612.84
-5559.15
-5631.4
-5565.67
-5650.24
-5571.72
-5668.82
-5577.1
-5687.13
-5613.22
-5559.23
-5631.85
-5565.56
-5650.94
-5571.24
-5670.31
-5575.52
-5690.58
-5612.89
-5559.12
-5631.43
-5565.52
-5650.16
-5571.58
-5668.44
-5576.94
-5685.42
)
;

boundaryField
{
    inlet
    {
        type            calculated;
        value           nonuniform 0();
    }
    outlet
    {
        type            calculated;
        value           nonuniform List<scalar> 
16
(
0
0
0
0
-1877.91
-1877.91
-1877.91
-1877.91
-3755.83
-3755.83
-3755.83
-3755.83
-5633.74
-5633.74
-5633.74
-5633.74
)
;
    }
    wall
    {
        type            calculated;
        value           nonuniform List<scalar> 
66
(
-6551.8
-6552.18
-6551.85
-6498.11
-6498.18
-6498.07
-6570.36
-6570.8
-6570.39
-6504.62
-6504.52
-6504.47
-6589.2
-6589.9
-6589.12
-6510.68
-6510.19
-6510.54
-6612.1
-6607.78
-6609.26
-6607.4
-6514.11
-6516.06
-6514.48
-6515.89
-6634.31
-6625.52
-6628.36
-6623.85
19.3328
-1857.04
-3735.36
-5612.89
74.4026
-1802.84
-3681.34
-5559.12
-0.176094
-1875.37
-3754.18
-5631.43
68.1395
-1809.3
-3687.83
-5565.52
-20.2689
-1893.49
-3773.9
-5650.16
62.8041
-1815.94
-3693.55
-5571.58
-41.4387
-1910.36
-3794.27
-5668.44
59.7244
-1822.4
-3697.35
-5576.94
-63.5667
-1924.74
-3817.77
-5685.42
)
;
    }
    procBoundary7to0
    {
        type            processor;
        value           uniform 81.5572;
    }
    procBoundary7to1
    {
        type            processor;
        value           uniform 22.0899;
    }
    procBoundary7to3
    {
        type            processor;
        value           nonuniform List<scalar> 
36
(
1896.73
1952.26
1877.4
1945.86
1857.92
1940.51
1838.87
1936.57
1822.27
1898.85
1952.42
1880.77
1946.25
1862.99
1940.6
1845.25
1934.76
1829.48
1897.49
1952.44
1878.38
1945.75
1859.24
1939.96
1839.81
1935.67
1822.68
1897.61
1952.58
1878.72
1946.43
1859.2
1940.86
1838.61
1936.73
1815.93
)
;
    }
    procBoundary7to5
    {
        type            processor;
        value           nonuniform List<scalar> 
44
(
74.7023
4.50165
68.0158
-12.8608
61.263
-29.6794
53.5168
-44.5841
-1856.6
-1803.51
-1875.47
-1810.06
-1894.16
-1816.05
-1913
-1820.76
-1930.51
-1856.6
-1803.51
-1803.51
-3754.45
-3688.14
-3772.36
-3694.92
-3790.24
-3701.52
-3805.83
-3735.52
-3681.33
-3754.45
-3688.14
-3688.14
-5652.33
-5571.38
-5673.63
-5575.16
-5697.9
-5613.56
-5559.3
-5632.59
-5565.68
-5652.33
-5571.38
-5571.38
)
;
    }
    procBoundary7to6
    {
        type            processor;
        value           nonuniform List<scalar> 
12
(
81.7066
81.1966
81.2144
-1796.48
-1796.27
-1796.18
-3674.02
-3674.36
-3674.48
-5552.27
-5552.39
-5552.37
)
;
    }
}


// ************************************************************************* //
