/*--------------------------------*- C++ -*----------------------------------*\
| =========                 |                                                 |
| \\      /  F ield         | OpenFOAM: The Open Source CFD Toolbox           |
|  \\    /   O peration     | Version:  4.x                                   |
|   \\  /    A nd           | Web:      www.OpenFOAM.org                      |
|    \\/     M anipulation  |                                                 |
\*---------------------------------------------------------------------------*/
FoamFile
{
    version     2.0;
    format      ascii;
    class       volScalarField;
    location    "4";
    object      Deff;
}
// * * * * * * * * * * * * * * * * * * * * * * * * * * * * * * * * * * * * * //

dimensions      [0 2 -1 0 0 0 0];

internalField   nonuniform List<scalar> 
114
(
9.79874e-08
9.78859e-08
9.78807e-08
9.78383e-08
9.78199e-08
9.78265e-08
9.79953e-08
9.80005e-08
9.79318e-08
9.78478e-08
9.77485e-08
9.77261e-08
9.77926e-08
9.79257e-08
9.79701e-08
9.78563e-08
9.78539e-08
9.78499e-08
9.77477e-08
9.77901e-08
9.77262e-08
9.80696e-08
9.80837e-08
9.79217e-08
9.79171e-08
9.78045e-08
9.77476e-08
9.77317e-08
9.77892e-08
9.78193e-08
9.79572e-08
9.79157e-08
9.77974e-08
9.77866e-08
9.76786e-08
9.76458e-08
9.77088e-08
9.76223e-08
9.77225e-08
9.78721e-08
9.79559e-08
9.77948e-08
9.77101e-08
9.76896e-08
9.76365e-08
9.76016e-08
9.76153e-08
9.76967e-08
9.77936e-08
9.78944e-08
9.80055e-08
9.7882e-08
9.78928e-08
9.77932e-08
9.77405e-08
9.77191e-08
9.76933e-08
9.77029e-08
9.77751e-08
9.79736e-08
9.78245e-08
9.78488e-08
9.77487e-08
9.76451e-08
9.76209e-08
9.75566e-08
9.76488e-08
9.77499e-08
9.7854e-08
9.78331e-08
9.77298e-08
9.76951e-08
9.74996e-08
9.75446e-08
9.75031e-08
9.74995e-08
9.75507e-08
9.79634e-08
9.77025e-08
9.7604e-08
9.76171e-08
9.82498e-08
9.80136e-08
9.80631e-08
9.78511e-08
9.78224e-08
9.78544e-08
9.77526e-08
9.77671e-08
9.78181e-08
9.80269e-08
9.79325e-08
9.79988e-08
9.78471e-08
9.76926e-08
9.77069e-08
9.77739e-08
9.76992e-08
9.77678e-08
9.7937e-08
9.78685e-08
9.77026e-08
9.76994e-08
9.76301e-08
9.75526e-08
9.76342e-08
9.76286e-08
9.76558e-08
9.79024e-08
9.78592e-08
9.76812e-08
9.76865e-08
9.75062e-08
9.75773e-08
)
;

boundaryField
{
    inlet
    {
        type            calculated;
        value           nonuniform 0();
    }
    outlet
    {
        type            calculated;
        value           uniform 0;
    }
    wall
    {
        type            calculated;
        value           uniform 0;
    }
    procBoundary5to1
    {
        type            processor;
        value           uniform 0;
    }
    procBoundary5to4
    {
        type            processor;
        value           uniform 0;
    }
    procBoundary5to7
    {
        type            processor;
        value           uniform 0;
    }
}


// ************************************************************************* //
