/*--------------------------------*- C++ -*----------------------------------*\
| =========                 |                                                 |
| \\      /  F ield         | OpenFOAM: The Open Source CFD Toolbox           |
|  \\    /   O peration     | Version:  4.x                                   |
|   \\  /    A nd           | Web:      www.OpenFOAM.org                      |
|    \\/     M anipulation  |                                                 |
\*---------------------------------------------------------------------------*/
FoamFile
{
    version     2.0;
    format      ascii;
    class       volVectorField;
    location    "4";
    object      impParticleForces;
}
// * * * * * * * * * * * * * * * * * * * * * * * * * * * * * * * * * * * * * //

dimensions      [1 1 -2 0 0 0 0];

internalField   nonuniform List<vector> 
114
(
(0.00259291 -8.38101e-05 -0.000134804)
(0.00254457 -0.000108661 -0.000172895)
(0.00258072 -0.000147163 -0.000210873)
(0.00252529 -0.000216768 -0.000261705)
(0.00255588 -0.000307934 -0.000327421)
(0.0023941 -0.000412933 -0.000397976)
(0.00253077 -5.97531e-05 -0.000113572)
(0.00253887 -7.58069e-05 -0.000155984)
(0.00248687 -0.000103072 -0.000192198)
(0.00251905 -0.000144267 -0.000230807)
(0.00245937 -0.000208567 -0.000288951)
(0.00246799 -0.000302121 -0.000360694)
(0.00231239 -0.000400832 -0.000419773)
(0.00256151 -4.44919e-05 -9.0599e-05)
(0.00249985 -4.84009e-05 -0.000122704)
(0.00250305 -5.78861e-05 -0.000168577)
(0.00243277 -7.58977e-05 -0.000215811)
(0.00239048 -0.000105564 -0.000270889)
(0.00229105 -0.000146542 -0.000332132)
(0.00221721 -0.000197409 -0.000399106)
(0.00208241 -0.000277676 -0.000473007)
(0.00254024 -5.82374e-05 -4.39764e-05)
(0.0025436 -5.66589e-05 -6.33338e-05)
(0.00254127 -6.92345e-05 -8.60363e-05)
(0.00254788 -8.91129e-05 -0.00011966)
(0.00252156 -0.000111903 -0.00016059)
(0.0025709 -0.000147593 -0.000192731)
(0.00251922 -0.000231891 -0.000224369)
(0.00250901 -0.000329874 -0.000263647)
(0.00237391 -0.000437132 -0.00029956)
(0.00251637 -4.47101e-05 -5.86552e-05)
(0.00251634 -5.22514e-05 -7.61682e-05)
(0.00248731 -6.44575e-05 -9.76619e-05)
(0.00248277 -8.42785e-05 -0.000137172)
(0.0024366 -0.000120702 -0.000183508)
(0.00247971 -0.000164274 -0.000215416)
(0.00241521 -0.000223212 -0.000245338)
(0.00240725 -0.000322999 -0.000281079)
(0.00226951 -0.000412797 -0.000305864)
(0.00252263 -2.9184e-05 -5.98943e-05)
(0.00252358 -4.709e-05 -8.00431e-05)
(0.00248517 -5.54706e-05 -0.000110768)
(0.00248086 -6.93141e-05 -0.000151562)
(0.00240393 -0.000101139 -0.000194226)
(0.00235201 -0.000136704 -0.000236688)
(0.00222263 -0.000166796 -0.000277506)
(0.00211571 -0.000218308 -0.000317021)
(0.00199905 -0.00028381 -0.000340584)
(0.00256488 -1.58242e-05 -5.57412e-05)
(0.00255367 -3.22788e-05 -8.40649e-05)
(0.00257261 -5.76847e-05 -2.68565e-05)
(0.00258125 -5.46004e-05 -5.43944e-05)
(0.00256743 -5.60479e-05 -7.81227e-05)
(0.00258805 -6.93416e-05 -0.000112568)
(0.00257181 -0.000103205 -0.000148051)
(0.00260465 -0.000150029 -0.000173556)
(0.00255452 -0.00023942 -0.000182599)
(0.00258755 -0.000345112 -0.000185736)
(0.00241054 -0.000479103 -0.000164411)
(0.0025231 -4.23172e-05 -4.46262e-05)
(0.00254011 -4.89999e-05 -7.12541e-05)
(0.00249604 -6.43033e-05 -9.25836e-05)
(0.00253314 -8.25377e-05 -0.00012903)
(0.00250792 -0.000112823 -0.000168829)
(0.0025332 -0.000156284 -0.000199355)
(0.00248157 -0.000222688 -0.00019994)
(0.00245921 -0.000317866 -0.00019808)
(0.00230773 -0.000436263 -0.000180344)
(0.00254229 -3.13403e-05 -5.09861e-05)
(0.00255079 -4.74101e-05 -8.11883e-05)
(0.00251764 -6.20492e-05 -0.000106657)
(0.00250893 -7.83887e-05 -0.000139155)
(0.00246771 -0.000100643 -0.000173238)
(0.00243188 -0.000127867 -0.000198648)
(0.00231203 -0.000165223 -0.000211731)
(0.00223418 -0.000225756 -0.000212431)
(0.00211332 -0.000303283 -0.000195424)
(0.00257735 -2.03366e-05 -4.8114e-05)
(0.00261477 -4.54816e-05 -8.08593e-05)
(0.00255654 -4.56251e-05 -0.000107277)
(0.00252225 -4.59237e-05 -0.000139137)
(0.00254049 -4.69112e-05 -2.71468e-05)
(0.00256163 -4.92408e-05 -5.89741e-05)
(0.00254771 -5.71037e-05 -9.08563e-05)
(0.00257939 -7.3108e-05 -0.000123661)
(0.00257006 -0.000106482 -0.000151965)
(0.00259871 -0.000155288 -0.000168291)
(0.00256616 -0.000242468 -0.00016993)
(0.00261256 -0.000342488 -0.000158872)
(0.00241966 -0.000482733 -0.000135439)
(0.00255926 -3.89605e-05 -3.27285e-05)
(0.0025788 -4.52879e-05 -6.88743e-05)
(0.00253755 -5.93424e-05 -0.000106643)
(0.00255998 -7.802e-05 -0.000142939)
(0.00254156 -0.000106596 -0.000167458)
(0.00252909 -0.00014947 -0.000181933)
(0.00247514 -0.000216691 -0.000179197)
(0.00246445 -0.000306729 -0.000166491)
(0.00233505 -0.000434054 -0.000148425)
(0.00256775 -3.26432e-05 -4.27258e-05)
(0.0025803 -4.68684e-05 -8.28628e-05)
(0.0025442 -6.0948e-05 -0.000111502)
(0.00253177 -7.57986e-05 -0.000141393)
(0.00248792 -9.46828e-05 -0.000166431)
(0.00246043 -0.000121073 -0.000183963)
(0.00235733 -0.00015936 -0.000185497)
(0.00229882 -0.000213438 -0.000174935)
(0.00219237 -0.000277302 -0.000157832)
(0.00259124 -2.24181e-05 -4.48445e-05)
(0.00259885 -3.98685e-05 -7.88116e-05)
(0.00255814 -4.4763e-05 -0.000108004)
(0.00253312 -4.77185e-05 -0.000138569)
(0.00247134 -4.9267e-05 -0.000163531)
(0.00239121 -5.35767e-05 -0.000183255)
)
;

boundaryField
{
    inlet
    {
        type            zeroGradient;
    }
    outlet
    {
        type            zeroGradient;
    }
    wall
    {
        type            zeroGradient;
    }
    procBoundary5to1
    {
        type            processor;
        value           nonuniform List<vector> 
32
(
(0.00262265 -8.02938e-05 -0.000136575)
(0.00256702 -9.78096e-05 -0.000176131)
(0.0025881 -0.000126626 -0.000217293)
(0.00254404 -0.000175409 -0.000264123)
(0.00254361 -0.000231787 -0.000317134)
(0.00236729 -0.00029003 -0.000352634)
(0.00254252 -5.78809e-05 -0.000113906)
(0.00258835 -6.84199e-05 -0.000154101)
(0.00254181 -8.57425e-05 -0.000195909)
(0.00255185 -0.00011388 -0.000242952)
(0.00248964 -0.000157488 -0.000294125)
(0.00248689 -0.000218561 -0.000353955)
(0.00231816 -0.00026687 -0.000382607)
(0.0025457 -4.97191e-05 -9.39441e-05)
(0.00250328 -4.58678e-05 -0.000124907)
(0.00254787 -4.72509e-05 -0.000170074)
(0.00247845 -5.56876e-05 -0.0002221)
(0.00247369 -7.27927e-05 -0.000285438)
(0.00238733 -0.000100198 -0.000341157)
(0.0023707 -0.000138459 -0.000406829)
(0.002216 -0.000167819 -0.000436224)
(0.00254541 -5.18514e-05 -5.21103e-05)
(0.00255655 -5.38799e-05 -7.15767e-05)
(0.00256779 -6.44889e-05 -9.89448e-05)
(0.00256779 -6.44889e-05 -9.89448e-05)
(0.00256779 -6.44889e-05 -9.89448e-05)
(0.00254297 -4.29546e-05 -6.62916e-05)
(0.00258224 -5.02547e-05 -8.56723e-05)
(0.00258224 -5.02547e-05 -8.56723e-05)
(0.00258224 -5.02547e-05 -8.56723e-05)
(0.00252945 -2.85271e-05 -6.7412e-05)
(0.00252945 -2.85271e-05 -6.7412e-05)
)
;
    }
    procBoundary5to4
    {
        type            processor;
        value           nonuniform List<vector> 
12
(
(0.0025864 -6.18763e-05 -1.73297e-05)
(0.00257406 -3.72157e-05 -3.31856e-05)
(0.00256128 -1.0552e-05 -3.57458e-05)
(0.00258216 1.47095e-07 -2.92858e-05)
(0.00262491 -5.94093e-05 5.31008e-06)
(0.00260501 -3.7705e-05 -5.16969e-06)
(0.00260163 -8.80838e-06 -1.72713e-05)
(0.00262034 1.81497e-06 -1.82965e-05)
(0.00261268 -4.72969e-05 7.62329e-06)
(0.00260296 -3.31295e-05 5.54123e-06)
(0.00259919 -1.59692e-05 -5.34609e-06)
(0.00261541 -4.6909e-06 -1.27465e-05)
)
;
    }
    procBoundary5to7
    {
        type            processor;
        value           nonuniform List<vector> 
44
(
(0.00256865 -2.77508e-05 -9.07181e-05)
(0.00250387 -2.59609e-05 -0.000130907)
(0.00249251 -1.9896e-05 -0.000183181)
(0.00242465 -1.70006e-05 -0.000245351)
(0.00233781 -1.37367e-05 -0.000319612)
(0.00217759 -1.79017e-05 -0.000380271)
(0.00204604 -2.44354e-05 -0.000452457)
(0.00191461 -2.70928e-05 -0.000532947)
(0.00255498 -1.50132e-05 -6.19407e-05)
(0.00256865 -2.77508e-05 -9.07181e-05)
(0.00250451 -3.43487e-05 -0.000117857)
(0.00247666 -3.29046e-05 -0.000158922)
(0.00237918 -3.16899e-05 -0.000206064)
(0.00225805 -3.2794e-05 -0.000259606)
(0.00203438 -4.00445e-05 -0.000321951)
(0.00182153 -4.87961e-05 -0.00038847)
(0.00170406 -5.61041e-05 -0.000415933)
(0.00257961 -1.6603e-06 -4.91221e-05)
(0.00250451 -3.43487e-05 -0.000117857)
(0.0026096 -1.31749e-05 -8.42789e-05)
(0.00250451 -3.43487e-05 -0.000117857)
(0.00247666 -3.29046e-05 -0.000158922)
(0.00241653 -4.3268e-05 -0.000173082)
(0.00234055 -4.6058e-05 -0.000201586)
(0.0021941 -5.67761e-05 -0.000228172)
(0.00207505 -6.97914e-05 -0.000242569)
(0.00195206 -8.85056e-05 -0.000225817)
(0.00263282 -4.94482e-06 -4.46149e-05)
(0.00264398 -1.68347e-05 -7.75262e-05)
(0.00255858 -1.74423e-05 -0.000106913)
(0.00241653 -4.3268e-05 -0.000173082)
(0.00252739 -1.20509e-05 -0.00014384)
(0.00241653 -4.3268e-05 -0.000173082)
(0.00234055 -4.6058e-05 -0.000201586)
(0.002278 -6.52625e-05 -0.000191182)
(0.00221309 -8.03218e-05 -0.000184415)
(0.00208225 -0.000101821 -0.00017016)
(0.00261492 -6.81121e-06 -4.2771e-05)
(0.00260858 -1.78608e-05 -7.32061e-05)
(0.0025499 -2.06834e-05 -0.000102711)
(0.00253563 -1.86424e-05 -0.000135072)
(0.00244065 -5.69899e-06 -0.000167837)
(0.002278 -6.52625e-05 -0.000191182)
(0.00238362 9.01804e-06 -0.000196671)
)
;
    }
}


// ************************************************************************* //
