/*--------------------------------*- C++ -*----------------------------------*\
| =========                 |                                                 |
| \\      /  F ield         | OpenFOAM: The Open Source CFD Toolbox           |
|  \\    /   O peration     | Version:  4.x                                   |
|   \\  /    A nd           | Web:      www.OpenFOAM.org                      |
|    \\/     M anipulation  |                                                 |
\*---------------------------------------------------------------------------*/
FoamFile
{
    version     2.0;
    format      ascii;
    class       volScalarField;
    location    "4";
    object      KslPrev;
}
// * * * * * * * * * * * * * * * * * * * * * * * * * * * * * * * * * * * * * //

dimensions      [1 -3 -1 0 0 0 0];

internalField   nonuniform List<scalar> 
114
(
2341.1
4323.31
2164.61
5073.52
1678.47
2336.41
29463.5
3719.73
1.24559e+09
3025.68
12350.9
2450.59
2308.42
3487.88
112753
3346.12
29799.9
2999
5829.96
3389.96
2354.62
4286.11
2559.75
4955.11
2435.44
4360.05
2271.35
6203.44
2364.91
3819.54
3172.78
11468.3
4864.07
52860.7
1844.7
5303.47
14743.2
3616.92
4794.27
2.4064e+09
3327.3
21055.4
3385.33
6096.21
3040.03
5745.39
11148.2
2679.31
53217.5
4781.72
3386.26
2394.19
3310.82
2161.84
3978.72
2116.77
4819.29
1789.85
2886.34
3081.63
11478.5
2340.12
3515.46
12561.2
2924.36
39239.6
2841.46
2801.33
4213.16
3306.18
29290.2
2957.37
38147.9
3026.75
15811.3
2705.95
3169.03
21720.9
3974.34
15302.7
4265.19
3378.57
2300.14
3135.56
2080.95
3054.93
1862.01
3341.85
1435.91
2713.35
4056.51
2760.25
4341.12
2389.54
5204.71
2899.54
9826.87
2798.41
2625.01
3844.29
2556.78
4428.56
2529.42
5494.67
2583.69
7142.98
2565.76
6324.31
4427.99
2883.16
5117.71
2845.64
5529.56
2726.74
)
;

boundaryField
{
    inlet
    {
        type            zeroGradient;
    }
    outlet
    {
        type            zeroGradient;
    }
    wall
    {
        type            zeroGradient;
    }
    procBoundary5to1
    {
        type            processor;
        value           uniform 0;
    }
    procBoundary5to4
    {
        type            processor;
        value           uniform 0;
    }
    procBoundary5to7
    {
        type            processor;
        value           uniform 0;
    }
}


// ************************************************************************* //
