/*--------------------------------*- C++ -*----------------------------------*\
| =========                 |                                                 |
| \\      /  F ield         | OpenFOAM: The Open Source CFD Toolbox           |
|  \\    /   O peration     | Version:  4.x                                   |
|   \\  /    A nd           | Web:      www.OpenFOAM.org                      |
|    \\/     M anipulation  |                                                 |
\*---------------------------------------------------------------------------*/
FoamFile
{
    version     2.0;
    format      ascii;
    class       volScalarField;
    location    "5";
    object      Cs;
}
// * * * * * * * * * * * * * * * * * * * * * * * * * * * * * * * * * * * * * //

dimensions      [1 -3 0 0 0 0 0];

internalField   nonuniform List<scalar> 
132
(
335.033
335.073
335.11
335.152
335.176
335.157
335.07
335.025
335.001
335.062
335.099
335.131
335.168
335.196
335.206
335.169
335.144
335.045
335.055
335.115
335.157
335.178
335.2
335.199
335.195
335.184
335.163
334.856
334.88
334.913
334.939
334.97
334.99
335.03
335.047
336.258
335.148
335.195
335.155
335.019
335.007
335.008
335
335.105
335.128
335.166
335.193
335.196
335.14
335.085
335.034
335.002
335.06
335.099
335.137
335.171
335.174
335.139
335.126
335.108
335.064
334.902
334.915
334.947
334.972
335.001
335.011
335.029
335.046
335.17
335.185
335.174
335.154
335.106
335.016
335.055
335.074
335.114
335.145
335.176
335.174
335.157
335.118
335.075
335.073
335.088
335.105
335.105
335.106
335.086
335.104
335.093
335.105
334.913
334.921
334.933
334.949
334.965
334.981
335
335.015
335.345
335.055
335.063
336.341
334.935
334.975
335.027
335.049
335.061
335.075
335.102
335.111
335.353
334.916
334.925
334.939
334.958
334.971
334.986
335.016
335.044
335.201
334.904
334.907
334.914
334.922
334.931
334.94
334.951
334.959
335.506
)
;

boundaryField
{
    inlet
    {
        type            calculated;
        value           nonuniform 0();
    }
    outlet
    {
        type            calculated;
        value           uniform 335;
    }
    wall
    {
        type            calculated;
        value           nonuniform List<scalar> 
66
(
334.935
334.916
334.904
334.975
334.925
334.907
335.027
334.939
334.914
335.049
334.958
334.922
335.061
334.971
334.931
335.075
334.986
334.94
335.055
335.102
335.016
334.951
335.063
335.111
335.044
334.959
336.341
335.353
335.201
335.506
334.856
334.902
334.913
334.904
334.88
334.915
334.921
334.907
334.913
334.947
334.933
334.914
334.939
334.972
334.949
334.922
334.97
335.001
334.965
334.931
334.99
335.011
334.981
334.94
335.03
335.029
335
334.951
335.047
335.046
335.015
334.959
336.258
335.17
335.345
335.506
)
;
    }
    procBoundary7to0
    {
        type            processor;
        value           uniform 334.989;
    }
    procBoundary7to1
    {
        type            processor;
        value           uniform 335.088;
    }
    procBoundary7to3
    {
        type            processor;
        value           nonuniform List<scalar> 
36
(
335.022
335.072
335.115
335.189
335.221
335.227
335.191
335.144
335.084
335.049
335.103
335.15
335.203
335.231
335.252
335.238
335.221
335.287
335.033
335.124
335.177
335.189
335.223
335.229
335.24
335.224
335.584
334.793
334.845
334.883
334.919
334.958
334.998
335.046
335.073
338.056
)
;
    }
    procBoundary7to5
    {
        type            processor;
        value           nonuniform List<scalar> 
44
(
335.137
335.184
335.216
335.228
335.213
335.171
335.134
335.049
335.065
335.106
335.171
335.196
335.202
335.157
335.108
335.056
335.004
335.065
335.106
335.106
335.119
335.153
335.172
335.174
335.175
335.15
335.099
335.042
335.074
335.119
335.153
335.153
335.001
335.027
335.03
335.046
335.304
334.928
334.941
334.96
334.977
335.001
335.027
335.027
)
;
    }
    procBoundary7to6
    {
        type            processor;
        value           nonuniform List<scalar> 
12
(
335.019
335.001
334.836
335.056
335.019
334.885
335.021
335.03
334.908
334.916
334.913
334.903
)
;
    }
}


// ************************************************************************* //
