/*--------------------------------*- C++ -*----------------------------------*\
| =========                 |                                                 |
| \\      /  F ield         | OpenFOAM: The Open Source CFD Toolbox           |
|  \\    /   O peration     | Version:  4.x                                   |
|   \\  /    A nd           | Web:      www.OpenFOAM.org                      |
|    \\/     M anipulation  |                                                 |
\*---------------------------------------------------------------------------*/
FoamFile
{
    version     2.0;
    format      ascii;
    class       volScalarField;
    location    "5";
    object      p;
}
// * * * * * * * * * * * * * * * * * * * * * * * * * * * * * * * * * * * * * //

dimensions      [1 -1 -2 0 0 0 0];

internalField   nonuniform List<scalar> 
132
(
429.494
789.103
675.551
-568.832
-784.659
-353.869
-293.586
-111.905
-93.1752
382.418
596.802
391.218
-269.884
-565.914
-293.359
-282.886
-108.569
-111.59
342.003
458.738
228.189
-33.161
-294.8
-150.821
-203.142
-61.5926
-88.8927
291.391
399.085
170.211
30.8962
-212.7
-73.6902
-154.724
-24.4242
-101.245
-1680.58
-1917.63
-2182.86
-2027.79
-2057.11
-1934.46
-1953.66
-1608.72
-1503.94
-1727.3
-1878.11
-2085.95
-1989.92
-2058.65
-1925.07
-1964.87
-1626.37
-1563.17
-1707.42
-1826.42
-2019.34
-1947.22
-2028.23
-1906.03
-1956.25
-1670.08
-1593.76
-1751.74
-1805.19
-1970.95
-1916.9
-2005.51
-1893.31
-1963.59
-3958.37
-3853.96
-3895.51
-3770.89
-3839.32
-3502.94
-3433.1
-3620.08
-3720.22
-3930.31
-3836.43
-3883.09
-3765.96
-3827.52
-3535.13
-3477.87
-3628.45
-3689.48
-3869.15
-3799.99
-3863.12
-3754.84
-3834.94
-3555.58
-3510.46
-3649.01
-3672.73
-3831.79
-3770.38
-3846.3
-3742.31
-3843.15
-5767.04
-5639.29
-5709.44
-5385.09
-5337.04
-5503.32
-5587.89
-5780.94
-5703.43
-5751.03
-5631.34
-5705.61
-5407.17
-5367.34
-5517.66
-5564.14
-5734.06
-5675.77
-5735.86
-5620.63
-5706.29
-5431.64
-5397.26
-5530.41
-5551.45
-5703.94
-5645.56
-5719.82
-5606.84
-5698.39
)
;

boundaryField
{
    inlet
    {
        type            calculated;
        value           nonuniform 0();
    }
    outlet
    {
        type            calculated;
        value           nonuniform List<scalar> 
16
(
0
0
0
0
-1877.91
-1877.91
-1877.91
-1877.91
-3755.83
-3755.83
-3755.83
-3755.83
-5633.74
-5633.74
-5633.74
-5633.74
)
;
    }
    wall
    {
        type            calculated;
        value           nonuniform List<scalar> 
66
(
-6323.86
-6345.9
-6370.32
-6275.93
-6306.09
-6335.95
-6442.35
-6456.44
-6469.13
-6526.98
-6502.98
-6490.19
-6720.06
-6672.93
-6642.71
-6642.6
-6614.69
-6584.35
-6706.15
-6690.26
-6674.86
-6658.64
-6578.43
-6570.61
-6559.71
-6545.68
-6652.16
-6645.56
-6645.81
-6638.76
291.391
-1670.08
-3555.58
-5431.64
399.085
-1593.76
-3510.46
-5397.26
170.211
-1751.74
-3649.01
-5530.41
30.8962
-1805.19
-3672.73
-5551.45
-212.699
-1970.95
-3831.79
-5703.94
-73.69
-1916.9
-3770.38
-5645.56
-154.723
-2005.51
-3846.3
-5719.82
-24.4241
-1893.31
-3742.31
-5606.84
-101.245
-1963.59
-3843.15
-5698.39
)
;
    }
    procBoundary7to0
    {
        type            processor;
        value           uniform 390.126;
    }
    procBoundary7to1
    {
        type            processor;
        value           uniform 333.921;
    }
    procBoundary7to3
    {
        type            processor;
        value           nonuniform List<scalar> 
36
(
2505.42
3174.58
3013.92
884.179
660.167
1429.29
1533.85
1752.2
1797.66
2454.98
2970.21
2657.04
1383.86
992.251
1509.55
1560.73
1761.31
1779.33
2326.88
2501.05
2204.66
1853.08
1511.42
1695.82
1665.18
1810.46
1785.9
2189.55
2348.54
2089.81
1945.04
1645.08
1813.45
1731.02
1852.18
1782.3
)
;
    }
    procBoundary7to5
    {
        type            processor;
        value           nonuniform List<scalar> 
44
(
489.559
259.196
-262.912
-479.235
-224.449
-241.911
-78.8038
-85.3219
-1592.51
-1451.53
-1740.85
-1906.59
-2084.6
-1988.18
-2040.45
-1923.65
-1960.25
-1592.51
-1451.53
-1451.53
-3614.53
-3729.06
-3924.18
-3836.73
-3891.21
-3759.56
-3827.87
-3511.54
-3424.01
-3614.53
-3729.06
-3729.06
-5795.11
-5724.2
-5760.8
-5625.79
-5693.89
-5385.74
-5336.11
-5514.16
-5588.22
-5795.11
-5724.2
-5724.2
)
;
    }
    procBoundary7to6
    {
        type            processor;
        value           nonuniform List<scalar> 
12
(
376.158
314.143
275.191
-1593.21
-1616.48
-1641.59
-3499.17
-3515.8
-3531.74
-5377.48
-5391.78
-5406.6
)
;
    }
}


// ************************************************************************* //
