/*--------------------------------*- C++ -*----------------------------------*\
| =========                 |                                                 |
| \\      /  F ield         | OpenFOAM: The Open Source CFD Toolbox           |
|  \\    /   O peration     | Version:  4.x                                   |
|   \\  /    A nd           | Web:      www.OpenFOAM.org                      |
|    \\/     M anipulation  |                                                 |
\*---------------------------------------------------------------------------*/
FoamFile
{
    version     2.0;
    format      ascii;
    class       volScalarField;
    location    "5";
    object      pSmooth;
}
// * * * * * * * * * * * * * * * * * * * * * * * * * * * * * * * * * * * * * //

dimensions      [1 -1 -2 0 0 0 0];

internalField   nonuniform List<scalar> 
132
(
32.4156
87.9228
10.3648
78.599
3.4735
72.1153
0.93945
69.7965
0.105583
29.9535
87.9094
10.2406
78.9241
3.5355
72.9341
0.934429
70.8466
0.1
30.517
87.2876
9.93
78.7947
4.01218
70.3954
1.04004
67.8404
0.1
29.6806
87.808
9.70636
79.3562
4.33522
73.9689
1.14505
74.4772
0.1
14.2652
80.742
4.27473
77.4806
1.25095
68.1919
0.126652
31.4093
87.932
9.75849
77.781
4.27425
73.4338
1.24491
69.2488
0.118132
32.6482
88.3308
9.64266
81.2053
4.46071
70.3074
1.31018
66.2929
0.118799
30.2006
87.5939
9.59126
79.0882
4.6052
72.5101
1.37728
69.6867
0.125517
4.74673
72.3952
1.52926
65.47
0.122647
29.6939
88.5571
9.52742
79.2432
4.73314
74.2671
1.51829
69.7679
0.135489
30.0513
87.3976
9.50699
78.9639
4.78543
72.5924
1.54778
66.818
0.143292
28.6057
86.615
9.48653
78.4644
4.84299
73.4506
1.58112
72.2542
0.147951
1.68185
68.4863
0.176508
29.9732
88.8892
9.44584
77.7396
4.93244
73.0861
1.67503
69.9956
0.166914
28.3337
86.8368
9.44049
78.4621
4.94444
72.0616
1.68795
66.7654
0.151908
28.7569
86.4639
9.43102
77.3878
4.96934
71.3202
1.70498
69.6092
0.144639
)
;

boundaryField
{
    inlet
    {
        type            zeroGradient;
    }
    outlet
    {
        type            fixedValue;
        value           uniform 0;
    }
    wall
    {
        type            zeroGradient;
    }
    procBoundary7to0
    {
        type            processor;
        value           uniform 99.3015;
    }
    procBoundary7to1
    {
        type            processor;
        value           uniform 30.3291;
    }
    procBoundary7to3
    {
        type            processor;
        value           nonuniform List<scalar> 
36
(
32.8875
87.8229
11.1992
78.4953
2.80595
70.4814
0.77633
65.1115
0.1
30.1083
87.2937
10.6288
77.5604
3.08258
71.9745
0.750422
69.8822
0.1
31.9669
89.3465
10.0538
75.3782
3.71135
70.3688
0.861178
66.1812
0.1
30.9618
88.9145
9.74723
79.8259
4.17038
73.7903
0.984292
72.2926
0.1
)
;
    }
    procBoundary7to5
    {
        type            processor;
        value           nonuniform List<scalar> 
44
(
88.4221
10.1566
78.8626
3.82624
72.7006
1.06061
71.2551
0.1
36.3792
88.1332
9.72972
78.6997
4.42388
74.4812
1.33929
71.0082
0.128885
36.3792
88.1332
88.1332
9.52181
78.8537
4.80874
74.2542
1.58544
71.6092
0.137841
31.0664
88.1868
9.52181
78.8537
78.8537
4.94519
72.917
1.72151
71.7288
0.147388
28.9241
86.7394
9.44514
78.5862
4.94519
72.917
72.917
)
;
    }
    procBoundary7to6
    {
        type            processor;
        value           nonuniform List<scalar> 
12
(
99.1859
99.1548
99.049
100.49
99.5075
98.8292
99.1986
99.2332
97.6649
98.8576
97.6276
97.7041
)
;
    }
}


// ************************************************************************* //
