/*--------------------------------*- C++ -*----------------------------------*\
| =========                 |                                                 |
| \\      /  F ield         | OpenFOAM: The Open Source CFD Toolbox           |
|  \\    /   O peration     | Version:  4.x                                   |
|   \\  /    A nd           | Web:      www.OpenFOAM.org                      |
|    \\/     M anipulation  |                                                 |
\*---------------------------------------------------------------------------*/
FoamFile
{
    version     2.0;
    format      ascii;
    class       volScalarField;
    location    "5";
    object      Qsource;
}
// * * * * * * * * * * * * * * * * * * * * * * * * * * * * * * * * * * * * * //

dimensions      [1 -1 -3 0 0 0 0];

internalField   nonuniform List<scalar> 
132
(
1.06552e+10
9.3209e+09
6.51218e+09
7.832e+09
1.16174e+10
1.21023e+10
7.38066e+09
5.2576e+09
7.2049e+09
7.90195e+09
1.18287e+10
7.68617e+09
8.09081e+09
9.07849e+09
7.26162e+09
8.14573e+09
7.93573e+09
7.80437e+09
6.1683e+09
9.4649e+09
7.18661e+09
9.11662e+09
8.19706e+09
1.09419e+10
9.15493e+09
9.88355e+09
8.91594e+09
6.46537e+09
9.53468e+09
1.02979e+10
7.47597e+09
9.19664e+09
1.0005e+10
9.67247e+09
9.70187e+09
5.83376e+09
6.70937e+09
8.38789e+09
6.66022e+09
6.8335e+09
7.20023e+09
7.71806e+09
6.36446e+09
3.919e+09
1.03301e+10
7.45311e+09
8.8363e+09
8.83475e+09
7.98798e+09
5.22485e+09
7.78284e+09
4.46717e+09
6.62235e+09
1.07573e+10
8.02209e+09
6.88347e+09
8.32866e+09
1.08648e+10
1.04105e+10
8.81826e+09
6.9214e+09
6.71522e+09
1.08748e+10
7.576e+09
9.56069e+09
8.50662e+09
8.38534e+09
7.82765e+09
1.07278e+10
5.87667e+09
4.94802e+09
6.96148e+09
7.38054e+09
6.61563e+09
3.95659e+09
8.94974e+09
9.34767e+09
7.013e+09
6.58018e+09
9.21168e+09
8.72266e+09
7.12004e+09
1.0216e+10
6.08443e+09
8.31393e+09
9.72514e+09
8.81202e+09
9.18588e+09
9.84634e+09
1.00914e+10
8.59218e+09
9.26164e+09
7.19895e+09
6.93161e+09
8.56502e+09
8.56662e+09
9.71512e+09
7.67117e+09
8.59092e+09
9.41669e+09
1.02558e+10
6.12836e+09
6.06543e+09
8.89412e+09
4.88566e+09
7.40581e+09
7.7405e+09
6.96367e+09
9.29654e+09
4.48208e+09
5.61913e+09
6.54939e+09
8.35875e+09
4.31464e+09
6.94465e+09
7.80167e+09
6.52412e+09
8.70091e+09
7.25066e+09
7.96818e+09
7.22769e+09
8.25112e+09
6.22102e+09
7.93105e+09
1.04639e+10
7.70894e+09
9.82336e+09
9.54028e+09
9.80369e+09
8.71187e+09
1.02026e+10
5.91645e+09
)
;

boundaryField
{
    inlet
    {
        type            calculated;
        value           nonuniform 0();
    }
    outlet
    {
        type            calculated;
        value           uniform 0;
    }
    wall
    {
        type            calculated;
        value           uniform 0;
    }
    procBoundary7to0
    {
        type            processor;
        value           uniform 2.69523e+09;
    }
    procBoundary7to1
    {
        type            processor;
        value           uniform 6.08812e+09;
    }
    procBoundary7to3
    {
        type            processor;
        value           nonuniform List<scalar> 
36
(
8.4555e+09
1.09397e+10
8.02408e+09
1.05908e+10
6.87247e+09
7.88702e+09
9.58672e+09
8.1993e+09
7.53556e+09
9.85337e+09
6.4102e+09
7.93886e+09
5.22346e+09
4.97659e+09
1.00575e+10
8.36956e+09
1.207e+10
5.96215e+09
6.88533e+09
1.05325e+10
9.2411e+09
7.38427e+09
7.6658e+09
1.0368e+10
8.38953e+09
1.0099e+10
5.36749e+09
7.0307e+09
5.96636e+09
6.72296e+09
8.50093e+09
7.4017e+09
1.02379e+10
7.35426e+09
1.14731e+10
9.83345e+09
)
;
    }
    procBoundary7to5
    {
        type            processor;
        value           nonuniform List<scalar> 
44
(
1.03006e+10
6.08813e+09
8.82011e+09
6.21792e+09
5.50557e+09
7.45008e+09
6.75806e+09
8.04782e+09
1.07649e+10
5.1244e+09
7.47402e+09
9.15559e+09
6.59649e+09
8.14273e+09
6.98038e+09
6.90135e+09
4.67295e+09
1.07649e+10
5.1244e+09
5.1244e+09
9.46744e+09
9.80197e+09
1.15214e+10
9.39815e+09
8.60443e+09
1.04478e+10
7.89656e+09
3.98199e+09
1.18272e+10
9.46744e+09
9.80197e+09
9.80197e+09
1.04231e+10
9.36231e+09
7.06496e+09
8.63866e+09
6.4607e+09
8.0204e+09
7.50906e+09
8.09916e+09
7.7853e+09
1.04231e+10
9.36231e+09
9.36231e+09
)
;
    }
    procBoundary7to6
    {
        type            processor;
        value           nonuniform List<scalar> 
12
(
8.29066e+09
9.03662e+09
6.84675e+09
1.01639e+10
9.54547e+09
1.00979e+10
9.75675e+09
1.00495e+10
8.13855e+09
5.42902e+09
9.51774e+09
9.31387e+09
)
;
    }
}


// ************************************************************************* //
