/*--------------------------------*- C++ -*----------------------------------*\
| =========                 |                                                 |
| \\      /  F ield         | OpenFOAM: The Open Source CFD Toolbox           |
|  \\    /   O peration     | Version:  4.x                                   |
|   \\  /    A nd           | Web:      www.OpenFOAM.org                      |
|    \\/     M anipulation  |                                                 |
\*---------------------------------------------------------------------------*/
FoamFile
{
    version     2.0;
    format      ascii;
    class       volScalarField;
    location    "5";
    object      Sm;
}
// * * * * * * * * * * * * * * * * * * * * * * * * * * * * * * * * * * * * * //

dimensions      [1 -3 -1 0 0 0 0];

internalField   nonuniform List<scalar> 
132
(
9.91592e-65
7.8256e-65
6.43099e-65
6.73889e-65
1.05325e-64
1.04508e-64
7.96989e-65
5.64603e-65
8.35137e-65
7.66955e-65
9.45309e-65
7.28332e-65
6.73952e-65
8.44217e-65
5.65237e-65
7.50777e-65
6.3441e-65
8.04386e-65
5.50066e-65
7.36098e-65
6.19869e-65
7.12804e-65
7.43676e-65
8.05443e-65
7.50984e-65
7.19767e-65
8.58837e-65
5.11364e-65
7.28371e-65
8.75603e-65
5.57899e-65
7.20554e-65
6.7391e-65
7.97636e-65
5.88469e-65
4.33558e-65
6.43069e-65
7.3596e-65
6.35095e-65
6.96786e-65
8.5896e-65
8.4314e-65
7.34727e-65
3.95098e-65
8.52276e-65
7.4382e-65
7.51474e-65
8.13269e-65
7.04639e-65
5.64974e-65
7.73705e-65
5.7239e-65
5.81068e-65
8.5231e-65
6.97358e-65
5.73337e-65
7.35911e-65
8.59654e-65
9.21315e-65
7.04349e-65
7.97025e-65
5.57852e-65
8.36855e-65
6.04403e-65
7.20613e-65
7.36019e-65
6.19712e-65
6.58279e-65
7.9752e-65
5.34194e-65
5.03466e-65
5.8075e-65
7.35348e-65
6.03576e-65
5.80125e-65
8.05696e-65
7.36059e-65
6.81834e-65
5.19073e-65
8.52083e-65
7.04702e-65
7.12163e-65
8.74531e-65
7.50449e-65
7.05031e-65
7.36084e-65
7.51595e-65
6.97312e-65
8.28928e-65
7.59041e-65
7.3564e-65
7.04477e-65
7.73988e-65
5.34627e-65
6.12145e-65
7.20636e-65
6.8962e-65
6.12088e-65
5.26796e-65
7.59039e-65
7.04772e-65
5.80718e-65
5.49687e-65
6.42488e-65
6.11364e-65
6.89497e-65
5.81118e-65
7.67078e-65
7.43798e-65
5.19023e-65
3.87267e-65
6.89103e-65
6.65743e-65
5.4174e-65
5.96591e-65
6.04386e-65
6.04396e-65
6.19883e-65
6.89526e-65
6.35193e-65
7.20214e-65
6.42729e-65
7.27754e-65
6.27623e-65
7.36149e-65
5.65678e-65
5.81177e-65
6.58621e-65
6.50805e-65
6.50681e-65
6.3517e-65
4.10538e-65
)
;

boundaryField
{
    inlet
    {
        type            calculated;
        value           nonuniform 0();
    }
    outlet
    {
        type            calculated;
        value           uniform 0;
    }
    wall
    {
        type            calculated;
        value           uniform 0;
    }
    procBoundary7to0
    {
        type            processor;
        value           uniform 2.3234e-65;
    }
    procBoundary7to1
    {
        type            processor;
        value           uniform 5.73251e-65;
    }
    procBoundary7to3
    {
        type            processor;
        value           nonuniform List<scalar> 
36
(
7.6691e-65
8.98805e-65
8.28662e-65
9.04617e-65
6.11661e-65
6.19365e-65
8.59027e-65
6.80657e-65
7.73314e-65
8.98658e-65
5.11377e-65
7.59387e-65
4.49095e-65
4.64749e-65
7.8978e-65
7.27583e-65
8.82005e-65
6.11058e-65
5.65593e-65
8.2911e-65
8.21368e-65
5.81046e-65
6.81689e-65
7.97665e-65
6.65851e-65
7.19717e-65
5.41676e-65
5.73369e-65
3.87444e-65
5.4243e-65
6.1215e-65
5.57828e-65
7.12663e-65
6.19533e-65
7.89766e-65
8.51506e-65
)
;
    }
    procBoundary7to5
    {
        type            processor;
        value           nonuniform List<scalar> 
44
(
8.4454e-65
6.04362e-65
7.43683e-65
5.80908e-65
4.56838e-65
6.96551e-65
5.72473e-65
8.66158e-65
9.99314e-65
4.41631e-65
7.28329e-65
7.59235e-65
6.19639e-65
7.04612e-65
7.12086e-65
6.88595e-65
5.56968e-65
9.99314e-65
4.41631e-65
4.41631e-65
8.98775e-65
7.97997e-65
1.01475e-64
7.35715e-65
8.20626e-65
8.90009e-65
8.66594e-65
3.56359e-65
9.37496e-65
8.98775e-65
7.97997e-65
7.97997e-65
9.68319e-65
7.74492e-65
6.50461e-65
6.73534e-65
6.81131e-65
7.20502e-65
5.50121e-65
7.2834e-65
5.65592e-65
9.68319e-65
7.74492e-65
7.74492e-65
)
;
    }
    procBoundary7to6
    {
        type            processor;
        value           nonuniform List<scalar> 
12
(
6.73827e-65
7.12644e-65
4.95815e-65
8.52013e-65
7.59133e-65
7.51465e-65
7.90065e-65
7.74632e-65
5.6556e-65
3.7958e-65
7.82452e-65
6.04338e-65
)
;
    }
}


// ************************************************************************* //
