/*--------------------------------*- C++ -*----------------------------------*\
| =========                 |                                                 |
| \\      /  F ield         | OpenFOAM: The Open Source CFD Toolbox           |
|  \\    /   O peration     | Version:  4.x                                   |
|   \\  /    A nd           | Web:      www.OpenFOAM.org                      |
|    \\/     M anipulation  |                                                 |
\*---------------------------------------------------------------------------*/
FoamFile
{
    version     2.0;
    format      ascii;
    class       volScalarField;
    location    "5";
    object      thCond;
}
// * * * * * * * * * * * * * * * * * * * * * * * * * * * * * * * * * * * * * //

dimensions      [1 1 -3 -1 0 0 0];

internalField   nonuniform List<scalar> 
132
(
189.999
189.948
190.002
189.835
189.46
189.397
189.512
189.736
189.548
190.174
189.854
189.939
189.932
189.658
189.722
189.596
189.671
189.577
190.539
190.145
190.114
190.036
189.805
189.63
189.603
189.682
189.646
190.803
190.359
190.096
190.229
189.971
189.852
189.716
189.928
190.187
189.789
189.604
189.542
189.428
189.277
189.325
189.463
190.211
189.739
189.699
189.627
189.421
189.448
189.475
189.377
189.561
190.268
189.815
189.834
189.834
189.536
189.348
189.267
189.442
189.489
190.451
189.965
189.978
189.848
189.69
189.686
189.562
189.573
189.942
189.55
189.503
189.367
189.452
189.565
189.926
189.742
189.655
189.703
189.406
189.474
189.39
189.284
189.447
190.084
189.856
189.735
189.695
189.454
189.441
189.381
189.446
189.492
190.391
190.071
189.872
189.801
189.752
189.76
189.514
189.618
189.91
189.608
189.591
189.683
190.078
189.976
189.661
189.628
189.709
189.838
189.57
189.569
189.746
190.199
190.051
189.921
189.818
189.668
189.674
189.538
189.636
189.692
190.305
190.032
190.063
189.966
189.791
189.742
189.676
189.823
190.209
)
;

boundaryField
{
    inlet
    {
        type            zeroGradient;
    }
    outlet
    {
        type            zeroGradient;
    }
    wall
    {
        type            zeroGradient;
    }
    procBoundary7to0
    {
        type            processor;
        value           uniform 190.806;
    }
    procBoundary7to1
    {
        type            processor;
        value           uniform 190.368;
    }
    procBoundary7to3
    {
        type            processor;
        value           nonuniform List<scalar> 
36
(
190.492
190.315
190.248
190.129
190.261
190.16
189.949
190.075
190.086
190.513
190.573
190.368
190.573
190.483
190.126
190
189.919
190.14
190.839
190.568
190.455
190.58
190.397
190.134
190.136
190.084
190.249
191.124
191.155
190.869
190.727
190.569
190.321
190.274
190.118
190.13
)
;
    }
    procBoundary7to5
    {
        type            processor;
        value           nonuniform List<scalar> 
44
(
190.092
190.178
189.957
189.952
189.945
189.746
189.828
189.704
189.834
190.029
189.837
189.673
189.634
189.531
189.462
189.489
189.647
189.834
190.029
190.029
189.467
189.492
189.265
189.352
189.271
189.264
189.364
190.164
189.657
189.467
189.492
189.492
189.277
189.415
189.526
189.515
189.568
190.046
189.962
189.617
189.627
189.277
189.415
189.415
)
;
    }
    procBoundary7to6
    {
        type            processor;
        value           nonuniform List<scalar> 
12
(
190.483
190.533
190.872
190.071
190.174
190.386
190.021
190.115
190.462
190.372
190.185
190.467
)
;
    }
}


// ************************************************************************* //
