/*--------------------------------*- C++ -*----------------------------------*\
| =========                 |                                                 |
| \\      /  F ield         | OpenFOAM: The Open Source CFD Toolbox           |
|  \\    /   O peration     | Version:  4.x                                   |
|   \\  /    A nd           | Web:      www.OpenFOAM.org                      |
|    \\/     M anipulation  |                                                 |
\*---------------------------------------------------------------------------*/
FoamFile
{
    version     2.0;
    format      ascii;
    class       volScalarField;
    location    "12.5";
    object      Cs;
}
// * * * * * * * * * * * * * * * * * * * * * * * * * * * * * * * * * * * * * //

dimensions      [1 -3 0 0 0 0 0];

internalField   nonuniform List<scalar> 
114
(
334.992
334.98
334.959
334.925
334.877
334.815
335
334.999
334.997
334.992
334.981
334.961
334.928
334.881
334.82
335
334.999
334.998
334.993
334.983
334.966
334.939
334.9
334.841
335
334.999
334.998
334.994
334.988
334.977
334.959
334.934
334.9
334.932
334.878
334.818
334.774
335
335
334.998
334.991
334.975
334.944
334.895
334.837
334.786
335
335
334.998
334.992
334.979
334.953
334.91
334.854
334.798
335
335
334.998
334.995
334.988
334.975
334.953
334.922
334.881
334.862
334.841
335
335
334.998
334.993
334.98
334.954
334.918
334.882
334.854
335
335
334.998
334.994
334.982
334.959
334.924
334.884
334.85
335
335
334.999
334.996
334.99
334.98
334.96
334.934
334.897
335
335
334.999
334.995
334.987
334.972
334.952
334.934
335
335
334.999
334.996
334.988
334.974
334.954
335
335
334.999
334.998
334.994
334.987
)
;

boundaryField
{
    inlet
    {
        type            calculated;
        value           uniform 335;
    }
    outlet
    {
        type            calculated;
        value           nonuniform 0();
    }
    wall
    {
        type            calculated;
        value           nonuniform List<scalar> 
66
(
335
335
335
334.999
334.999
334.999
334.997
334.998
334.998
334.992
334.992
334.993
334.994
334.98
334.981
334.983
334.988
334.959
334.961
334.966
334.977
334.925
334.928
334.939
334.959
334.877
334.881
334.9
334.934
334.815
334.82
334.841
334.9
335
335
335
335
334.999
335
335
335
334.998
334.998
334.999
334.999
334.994
334.995
334.996
334.998
334.988
334.988
334.99
334.994
334.977
334.975
334.98
334.987
334.959
334.953
334.96
334.934
334.922
334.934
334.9
334.881
334.897
)
;
    }
    procBoundary2to0
    {
        type            processor;
        value           nonuniform List<scalar> 
44
(
334.993
334.981
334.962
334.932
334.887
334.828
335
334.999
334.997
334.997
334.989
334.97
334.942
334.894
334.839
334.793
335
334.999
334.997
334.989
334.97
334.97
334.939
334.897
334.873
334.852
335
335
334.998
334.99
334.972
334.939
334.897
334.897
334.917
334.901
335
335
334.998
334.994
334.983
334.964
334.939
334.917
)
;
    }
    procBoundary2to3
    {
        type            processor;
        value           nonuniform List<scalar> 
12
(
334.751
334.753
334.777
334.858
334.76
334.759
334.757
334.837
334.851
334.854
334.841
334.86
)
;
    }
    procBoundary2to6
    {
        type            processor;
        value           nonuniform List<scalar> 
32
(
334.92
334.933
334.913
334.976
334.962
334.942
335
335
334.999
334.995
334.986
334.971
334.954
334.92
334.933
334.944
335
335
334.999
334.996
334.989
334.977
334.933
334.976
334.962
335
335
334.999
334.998
334.995
334.976
334.99
)
;
    }
}


// ************************************************************************* //
