/*--------------------------------*- C++ -*----------------------------------*\
| =========                 |                                                 |
| \\      /  F ield         | OpenFOAM: The Open Source CFD Toolbox           |
|  \\    /   O peration     | Version:  4.x                                   |
|   \\  /    A nd           | Web:      www.OpenFOAM.org                      |
|    \\/     M anipulation  |                                                 |
\*---------------------------------------------------------------------------*/
FoamFile
{
    version     2.0;
    format      ascii;
    class       volScalarField;
    location    "12.5";
    object      KslPrev;
}
// * * * * * * * * * * * * * * * * * * * * * * * * * * * * * * * * * * * * * //

dimensions      [1 -3 -1 0 0 0 0];

internalField   nonuniform List<scalar> 
114
(
5627.9
3126.56
4847.12
3002.73
4650.85
2949.03
3463.83
7218.02
3337
5899.79
3200.48
5103.16
3058.3
4852.99
2983.22
3393.92
6838.95
3218.58
5362.46
3045.87
4534.75
2851.65
4149.35
2794.07
3344.54
6222.78
3094.27
4743.95
2846.46
3917.5
2605.9
3421.71
2458.91
12465.1
3919.5
17437
3852.33
3503.59
8728.02
3632.47
9696.43
3739.49
11452.9
3834.62
15754.7
3793.24
3457.66
8329.32
3561.52
8599.41
3590.4
9117.16
3649.81
10962.4
3660.97
3385.55
6988.04
3322.35
6016.57
3173.09
5379.87
3071.28
5024.46
2953.41
1.00033e+06
3976.49
3545.42
9664
3768.83
13534.7
3907.62
22512.1
3973.19
53982.7
3906.02
3475.37
9263.51
3688.7
12006.9
3805.65
17109.2
3900.69
34714.9
3878.47
3405.95
7583.06
3421.72
7111.71
3347.42
6692.08
3356.13
6617.29
3286.91
3558.37
10033.5
3797.89
13836.4
3845.97
18830.6
3802.64
23597.6
3501.3
9306.5
3719.06
11825.6
3785.24
15521.8
3773.42
3396.68
7431.79
3425.26
7077.29
3367.61
6735.44
)
;

boundaryField
{
    inlet
    {
        type            zeroGradient;
    }
    outlet
    {
        type            zeroGradient;
    }
    wall
    {
        type            zeroGradient;
    }
    procBoundary2to0
    {
        type            processor;
        value           uniform 0;
    }
    procBoundary2to3
    {
        type            processor;
        value           uniform 0;
    }
    procBoundary2to6
    {
        type            processor;
        value           uniform 0;
    }
}


// ************************************************************************* //
