/*--------------------------------*- C++ -*----------------------------------*\
| =========                 |                                                 |
| \\      /  F ield         | OpenFOAM: The Open Source CFD Toolbox           |
|  \\    /   O peration     | Version:  4.x                                   |
|   \\  /    A nd           | Web:      www.OpenFOAM.org                      |
|    \\/     M anipulation  |                                                 |
\*---------------------------------------------------------------------------*/
FoamFile
{
    version     2.0;
    format      ascii;
    class       volVectorField;
    location    "12.5";
    object      UsNext;
}
// * * * * * * * * * * * * * * * * * * * * * * * * * * * * * * * * * * * * * //

dimensions      [0 1 -1 0 0 0 0];

internalField   nonuniform List<vector> 
114
(
(8.98643e-07 3.30519e-07 -6.84349e-07)
(1.44269e-06 3.85387e-07 -9.28525e-07)
(1.86815e-06 5.59671e-07 -1.32157e-06)
(2.20606e-06 4.48357e-07 -1.26357e-06)
(2.12898e-06 2.82262e-07 -1.07342e-06)
(2.15055e-06 5.05332e-07 -8.96024e-07)
(9.98388e-07 -2.60172e-07 -2.78657e-08)
(5.00222e-07 1.3952e-07 -1.34285e-07)
(7.13592e-07 2.85709e-07 -4.24134e-07)
(9.49166e-07 4.06056e-07 -6.68382e-07)
(1.31976e-06 6.45979e-07 -9.77814e-07)
(1.79013e-06 6.00638e-07 -1.2111e-06)
(2.08504e-06 5.6834e-07 -1.17733e-06)
(2.06354e-06 4.27996e-07 -9.95701e-07)
(1.95953e-06 5.17282e-07 -5.9826e-07)
(2.05906e-07 -1.24422e-08 -4.09971e-08)
(2.46955e-07 1.50911e-07 -1.28176e-07)
(6.58757e-07 2.13704e-07 -5.09631e-07)
(7.78277e-07 5.27075e-07 -3.38409e-07)
(1.22105e-06 4.6397e-07 -6.0579e-07)
(1.41067e-06 4.25466e-07 -8.46369e-07)
(1.47183e-06 7.40848e-07 -8.3688e-07)
(1.69534e-06 5.7028e-07 -6.97211e-07)
(1.53937e-06 4.28254e-07 -3.6004e-07)
(1.58887e-07 1.31145e-08 1.90318e-08)
(9.49567e-08 5.09714e-08 -1.34715e-08)
(2.07669e-07 2.58612e-08 -1.60091e-07)
(3.54837e-07 2.47114e-07 -2.8258e-07)
(5.86651e-07 3.34224e-07 -5.80485e-07)
(5.15601e-07 1.52733e-07 -4.09534e-07)
(8.25045e-07 7.75213e-07 -3.18742e-07)
(8.48449e-07 7.15805e-07 -5.04226e-07)
(8.03891e-07 2.05718e-07 -1.38995e-07)
(1.7065e-06 4.98768e-07 -1.21468e-06)
(1.8405e-06 4.83101e-07 -1.26462e-06)
(1.92954e-06 3.17229e-07 -1.03216e-06)
(1.80802e-06 2.58287e-07 -8.70474e-07)
(2.00191e-07 -7.38472e-09 -2.42648e-08)
(5.56737e-07 6.49565e-08 -1.24496e-07)
(7.86983e-07 2.21277e-07 -4.04365e-07)
(1.03858e-06 2.54088e-07 -6.47613e-07)
(1.24222e-06 3.57276e-07 -8.20061e-07)
(1.63479e-06 5.44366e-07 -1.1687e-06)
(1.79195e-06 5.33622e-07 -1.12445e-06)
(1.71654e-06 4.13308e-07 -9.13455e-07)
(1.69281e-06 3.46246e-07 -6.40447e-07)
(2.75732e-07 -1.00426e-08 -2.95386e-08)
(4.00376e-07 2.88329e-08 -8.65041e-08)
(6.52808e-07 1.33997e-07 -3.5784e-07)
(8.44909e-07 2.85365e-07 -4.71149e-07)
(9.75647e-07 1.88008e-07 -7.86476e-07)
(1.16926e-06 2.29322e-07 -7.29717e-07)
(1.32305e-06 3.66596e-07 -8.00693e-07)
(1.33116e-06 4.10894e-07 -6.26207e-07)
(1.29994e-06 3.52661e-07 -3.68186e-07)
(1.27254e-07 6.19388e-09 5.02681e-09)
(1.83592e-07 2.34643e-08 -5.22065e-08)
(3.0902e-07 6.02461e-08 -1.74944e-07)
(4.26296e-07 1.48925e-07 -2.54074e-07)
(4.85161e-07 1.59592e-07 -5.71235e-07)
(4.47446e-07 1.56678e-07 -3.90282e-07)
(6.0178e-07 2.47328e-07 -2.30125e-07)
(6.44536e-07 1.92987e-07 -2.46665e-07)
(4.32275e-07 9.9062e-08 6.90617e-09)
(1.44408e-06 2.96255e-07 -9.46865e-07)
(1.40839e-06 2.29027e-07 -7.5705e-07)
(1.94593e-07 6.65383e-08 -4.38935e-08)
(4.70925e-07 1.82844e-08 -1.50627e-07)
(8.36408e-07 1.09723e-07 -3.93945e-07)
(1.00654e-06 1.78201e-07 -5.39499e-07)
(1.22526e-06 2.21137e-07 -7.93769e-07)
(1.3681e-06 4.1451e-07 -9.49757e-07)
(1.43006e-06 4.62721e-07 -8.97508e-07)
(1.33156e-06 3.30653e-07 -7.42813e-07)
(1.28238e-06 2.61302e-07 -6.0504e-07)
(1.83448e-07 -1.0825e-08 -1.83633e-08)
(4.56959e-07 -3.24843e-08 -1.99706e-07)
(7.14554e-07 7.93034e-08 -3.31328e-07)
(7.63414e-07 2.14263e-07 -4.21274e-07)
(9.95567e-07 2.28944e-07 -6.50561e-07)
(1.03447e-06 1.55577e-07 -5.97548e-07)
(1.08691e-06 2.20242e-07 -5.71155e-07)
(9.1094e-07 2.45315e-07 -4.54552e-07)
(8.7372e-07 2.09728e-07 -2.89495e-07)
(1.16702e-07 -1.78348e-08 -5.10508e-09)
(2.45722e-07 -1.37644e-08 -9.65333e-08)
(3.06682e-07 3.73767e-08 -1.58749e-07)
(5.19336e-07 9.19648e-08 -2.57168e-07)
(5.17793e-07 -6.82952e-09 -3.01918e-07)
(3.51178e-07 7.91403e-09 -2.83231e-07)
(4.26511e-07 3.01078e-08 -3.50438e-07)
(3.9889e-07 2.26424e-08 -1.78139e-07)
(4.4051e-07 1.21514e-07 -7.8001e-08)
(2.00289e-07 4.8209e-08 -7.05943e-08)
(5.33214e-07 3.91878e-08 -2.46491e-07)
(8.20049e-07 6.90075e-08 -3.84986e-07)
(9.28274e-07 1.3008e-07 -4.74974e-07)
(1.1116e-06 1.69219e-07 -6.19089e-07)
(1.10725e-06 1.83112e-07 -6.93024e-07)
(1.151e-06 3.67513e-07 -6.46716e-07)
(8.0626e-07 2.44831e-07 -5.35585e-07)
(1.54083e-07 1.62604e-08 -1.95437e-08)
(5.03674e-07 -2.96665e-08 -2.02451e-07)
(6.24483e-07 -9.99294e-09 -2.17961e-07)
(7.56253e-07 2.47547e-08 -3.3649e-07)
(8.6171e-07 4.42524e-08 -4.80402e-07)
(8.12967e-07 1.00835e-07 -4.97329e-07)
(6.65806e-07 1.82359e-07 -3.8678e-07)
(1.09363e-07 -1.44985e-08 1.09664e-08)
(2.26e-07 -6.93338e-08 -9.9151e-08)
(4.04715e-07 -2.40874e-09 -1.73579e-07)
(3.30152e-07 -2.69975e-08 -1.71097e-07)
(4.31543e-07 -7.38354e-09 -2.19661e-07)
(2.47153e-07 7.76665e-09 -2.09857e-07)
)
;

boundaryField
{
    inlet
    {
        type            calculated;
        value           nonuniform List<vector> 
12
(
(9.98388e-07 -2.60172e-07 -2.78657e-08)
(2.05906e-07 -1.24422e-08 -4.09971e-08)
(1.58887e-07 1.31145e-08 1.90318e-08)
(2.00191e-07 -7.38472e-09 -2.42648e-08)
(2.75732e-07 -1.00426e-08 -2.95386e-08)
(1.27254e-07 6.19388e-09 5.02681e-09)
(1.94593e-07 6.65383e-08 -4.38935e-08)
(1.83448e-07 -1.0825e-08 -1.83633e-08)
(1.16702e-07 -1.78348e-08 -5.10508e-09)
(2.00289e-07 4.8209e-08 -7.05943e-08)
(1.54083e-07 1.62604e-08 -1.95437e-08)
(1.09363e-07 -1.44985e-08 1.09664e-08)
)
;
    }
    outlet
    {
        type            calculated;
        value           nonuniform 0();
    }
    wall
    {
        type            calculated;
        value           nonuniform List<vector> 
66
(
(9.98388e-07 -2.60172e-07 -2.78657e-08)
(2.05906e-07 -1.24422e-08 -4.09971e-08)
(1.58887e-07 1.31145e-08 1.90318e-08)
(5.00222e-07 1.3952e-07 -1.34285e-07)
(2.46955e-07 1.50911e-07 -1.28176e-07)
(9.49567e-08 5.09714e-08 -1.34715e-08)
(7.13592e-07 2.85709e-07 -4.24134e-07)
(6.58757e-07 2.13704e-07 -5.09631e-07)
(2.07669e-07 2.58612e-08 -1.60091e-07)
(8.98643e-07 3.30519e-07 -6.84349e-07)
(9.49166e-07 4.06056e-07 -6.68382e-07)
(7.78277e-07 5.27075e-07 -3.38409e-07)
(3.54837e-07 2.47114e-07 -2.8258e-07)
(1.44269e-06 3.85387e-07 -9.28525e-07)
(1.31976e-06 6.45979e-07 -9.77814e-07)
(1.22105e-06 4.6397e-07 -6.0579e-07)
(5.86651e-07 3.34224e-07 -5.80485e-07)
(1.86815e-06 5.59671e-07 -1.32157e-06)
(1.79013e-06 6.00638e-07 -1.2111e-06)
(1.41067e-06 4.25466e-07 -8.46369e-07)
(5.15601e-07 1.52733e-07 -4.09534e-07)
(2.20606e-06 4.48357e-07 -1.26357e-06)
(2.08504e-06 5.6834e-07 -1.17733e-06)
(1.47183e-06 7.40848e-07 -8.3688e-07)
(8.25045e-07 7.75213e-07 -3.18742e-07)
(2.12898e-06 2.82262e-07 -1.07342e-06)
(2.06354e-06 4.27996e-07 -9.95701e-07)
(1.69534e-06 5.7028e-07 -6.97211e-07)
(8.48449e-07 7.15805e-07 -5.04226e-07)
(2.15055e-06 5.05332e-07 -8.96024e-07)
(1.95953e-06 5.17282e-07 -5.9826e-07)
(1.53937e-06 4.28254e-07 -3.6004e-07)
(8.03891e-07 2.05718e-07 -1.38995e-07)
(1.58887e-07 1.31145e-08 1.90318e-08)
(1.27254e-07 6.19388e-09 5.02681e-09)
(1.16702e-07 -1.78348e-08 -5.10508e-09)
(1.09363e-07 -1.44985e-08 1.09664e-08)
(9.49567e-08 5.09714e-08 -1.34715e-08)
(1.83592e-07 2.34643e-08 -5.22065e-08)
(2.45722e-07 -1.37644e-08 -9.65333e-08)
(2.26e-07 -6.93338e-08 -9.9151e-08)
(2.07669e-07 2.58612e-08 -1.60091e-07)
(3.0902e-07 6.02461e-08 -1.74944e-07)
(3.06682e-07 3.73767e-08 -1.58749e-07)
(4.04715e-07 -2.40874e-09 -1.73579e-07)
(3.54837e-07 2.47114e-07 -2.8258e-07)
(4.26296e-07 1.48925e-07 -2.54074e-07)
(5.19336e-07 9.19648e-08 -2.57168e-07)
(3.30152e-07 -2.69975e-08 -1.71097e-07)
(5.86651e-07 3.34224e-07 -5.80485e-07)
(4.85161e-07 1.59592e-07 -5.71235e-07)
(5.17793e-07 -6.82952e-09 -3.01918e-07)
(4.31543e-07 -7.38354e-09 -2.19661e-07)
(5.15601e-07 1.52733e-07 -4.09534e-07)
(4.47446e-07 1.56678e-07 -3.90282e-07)
(3.51178e-07 7.91403e-09 -2.83231e-07)
(2.47153e-07 7.76665e-09 -2.09857e-07)
(8.25045e-07 7.75213e-07 -3.18742e-07)
(6.0178e-07 2.47328e-07 -2.30125e-07)
(4.26511e-07 3.01078e-08 -3.50438e-07)
(8.48449e-07 7.15805e-07 -5.04226e-07)
(6.44536e-07 1.92987e-07 -2.46665e-07)
(3.9889e-07 2.26424e-08 -1.78139e-07)
(8.03891e-07 2.05718e-07 -1.38995e-07)
(4.32275e-07 9.9062e-08 6.90617e-09)
(4.4051e-07 1.21514e-07 -7.8001e-08)
)
;
    }
    procBoundary2to0
    {
        type            processor;
        value           nonuniform List<vector> 
44
(
(1.08237e-06 1.92378e-07 -7.57474e-07)
(1.33967e-06 2.70716e-07 -8.3235e-07)
(1.74343e-06 2.54253e-07 -1.13385e-06)
(2.02012e-06 1.36931e-07 -1.28156e-06)
(2.34278e-06 1.57121e-07 -1.1613e-06)
(2.43461e-06 -1.96445e-07 -7.28343e-07)
(1.88375e-07 7.12429e-08 -8.11031e-08)
(6.36477e-07 2.20989e-07 -1.81899e-07)
(8.0748e-07 2.18996e-07 -3.45461e-07)
(8.0748e-07 2.18996e-07 -3.45461e-07)
(1.28598e-06 2.87976e-07 -8.02685e-07)
(1.47045e-06 4.34461e-07 -1.02731e-06)
(1.74636e-06 3.71416e-07 -1.05913e-06)
(1.85596e-06 2.34191e-07 -1.25601e-06)
(1.83161e-06 1.53407e-07 -1.10697e-06)
(1.7976e-06 -8.18646e-08 -6.49256e-07)
(3.08189e-07 7.09062e-08 -7.77449e-08)
(6.66813e-07 1.48218e-07 -1.68474e-07)
(9.405e-07 2.30329e-07 -4.59185e-07)
(1.28598e-06 2.87976e-07 -8.02685e-07)
(1.47045e-06 4.34461e-07 -1.02731e-06)
(1.47045e-06 4.34461e-07 -1.02731e-06)
(1.5569e-06 3.9617e-07 -1.02313e-06)
(1.46973e-06 4.32305e-07 -1.05557e-06)
(1.35555e-06 2.12544e-07 -9.35857e-07)
(1.32478e-06 5.45838e-08 -7.26168e-07)
(2.2392e-07 5.08432e-08 -8.50347e-08)
(7.02248e-07 -7.75784e-09 -1.98952e-07)
(1.05388e-06 1.776e-07 -4.46e-07)
(1.27456e-06 1.91728e-07 -6.65278e-07)
(1.49254e-06 3.14717e-07 -9.40137e-07)
(1.5569e-06 3.9617e-07 -1.02313e-06)
(1.46973e-06 4.32305e-07 -1.05557e-06)
(1.46973e-06 4.32305e-07 -1.05557e-06)
(1.15631e-06 3.3626e-07 -8.33926e-07)
(1.12246e-06 2.4739e-07 -6.76894e-07)
(2.43822e-07 3.41928e-08 -1.10915e-07)
(5.86313e-07 -7.34393e-10 -2.37582e-07)
(9.57983e-07 1.51744e-07 -4.55341e-07)
(1.12113e-06 2.70607e-07 -5.45244e-07)
(1.37931e-06 4.085e-07 -6.73317e-07)
(1.32631e-06 2.94759e-07 -8.96974e-07)
(1.22644e-06 3.69676e-07 -9.02411e-07)
(1.15631e-06 3.3626e-07 -8.33926e-07)
)
;
    }
    procBoundary2to3
    {
        type            processor;
        value           nonuniform List<vector> 
12
(
(2.05622e-06 3.88307e-07 -6.11237e-07)
(1.70161e-06 4.83629e-07 -3.23606e-07)
(1.28118e-06 -7.36166e-08 -1.48718e-07)
(4.72815e-07 2.65808e-07 -1.10239e-07)
(1.63084e-06 2.73667e-07 -5.08682e-07)
(1.51848e-06 3.86213e-07 -3.46223e-07)
(1.15482e-06 4.18325e-07 -2.18502e-07)
(5.26308e-07 1.85649e-07 -4.13344e-08)
(1.10348e-06 1.7832e-07 -4.0099e-07)
(1.1309e-06 2.44413e-07 -3.31723e-07)
(7.99862e-07 1.35248e-07 -2.31917e-07)
(4.5779e-07 3.45402e-08 -6.80151e-08)
)
;
    }
    procBoundary2to6
    {
        type            processor;
        value           nonuniform List<vector> 
32
(
(8.26693e-07 2.08084e-07 -5.04894e-07)
(6.37246e-07 2.23135e-07 -3.14606e-07)
(6.10615e-07 1.42862e-07 -2.63438e-07)
(2.03487e-07 4.25748e-08 -2.07252e-07)
(2.9206e-07 6.97374e-08 -1.69709e-07)
(1.05479e-07 3.63521e-08 -7.42409e-08)
(2.80046e-07 8.89253e-09 -7.55264e-08)
(5.13548e-07 -2.69733e-08 -1.84824e-07)
(7.45351e-07 2.58178e-08 -3.46204e-07)
(8.38743e-07 9.74419e-08 -4.08713e-07)
(1.09749e-06 1.15335e-07 -4.56433e-07)
(8.21775e-07 1.27353e-07 -5.17384e-07)
(7.78793e-07 2.10121e-07 -4.91278e-07)
(8.26693e-07 2.08084e-07 -5.04894e-07)
(6.37246e-07 2.23135e-07 -3.14606e-07)
(5.56782e-07 2.20249e-07 -4.05476e-07)
(3.40879e-07 2.64007e-08 -5.35114e-08)
(4.53088e-07 -6.04575e-08 -1.25033e-07)
(6.1461e-07 -3.6455e-08 -2.0725e-07)
(6.50665e-07 1.99608e-08 -2.34123e-07)
(6.39135e-07 1.93485e-09 -2.93541e-07)
(5.4095e-07 3.56347e-08 -3.23083e-07)
(6.37246e-07 2.23135e-07 -3.14606e-07)
(2.03487e-07 4.25748e-08 -2.07252e-07)
(4.59282e-07 2.00004e-07 -2.76366e-07)
(8.2593e-08 4.08154e-09 -1.3796e-08)
(2.75189e-07 -9.92832e-08 -1.08123e-07)
(2.22234e-07 6.95215e-09 -9.98654e-08)
(2.72954e-07 -5.95079e-08 -1.33847e-07)
(2.30733e-07 -3.9427e-08 -1.24314e-07)
(2.03487e-07 4.25748e-08 -2.07252e-07)
(2.34808e-07 1.49293e-08 -1.66729e-07)
)
;
    }
}


// ************************************************************************* //
