/*--------------------------------*- C++ -*----------------------------------*\
| =========                 |                                                 |
| \\      /  F ield         | OpenFOAM: The Open Source CFD Toolbox           |
|  \\    /   O peration     | Version:  4.x                                   |
|   \\  /    A nd           | Web:      www.OpenFOAM.org                      |
|    \\/     M anipulation  |                                                 |
\*---------------------------------------------------------------------------*/
FoamFile
{
    version     2.0;
    format      ascii;
    class       volVectorField;
    location    "12.5";
    object      UsPrev;
}
// * * * * * * * * * * * * * * * * * * * * * * * * * * * * * * * * * * * * * //

dimensions      [0 1 -1 0 0 0 0];

internalField   nonuniform List<vector> 
114
(
(1.05056e-06 3.53868e-07 -6.15917e-07)
(1.61446e-06 4.03939e-07 -8.51596e-07)
(1.99614e-06 5.59535e-07 -1.24512e-06)
(2.31385e-06 4.33495e-07 -1.20543e-06)
(2.22768e-06 2.40278e-07 -1.04998e-06)
(2.20281e-06 4.68e-07 -8.93543e-07)
(1.03884e-06 -2.70084e-07 -1.64881e-08)
(5.96808e-07 1.24467e-07 -9.96774e-08)
(8.4163e-07 2.81734e-07 -3.77396e-07)
(1.08447e-06 4.1451e-07 -6.10698e-07)
(1.45347e-06 6.46901e-07 -9.27542e-07)
(1.89848e-06 5.92044e-07 -1.14454e-06)
(2.15446e-06 5.64534e-07 -1.12597e-06)
(2.11553e-06 3.76317e-07 -9.73616e-07)
(1.98832e-06 4.8793e-07 -5.9354e-07)
(2.35244e-07 -2.25989e-08 -4.4102e-08)
(3.08878e-07 1.44945e-07 -1.14445e-07)
(7.48934e-07 2.00247e-07 -4.97646e-07)
(8.73538e-07 5.34906e-07 -3.00362e-07)
(1.32775e-06 4.61733e-07 -5.78328e-07)
(1.48762e-06 3.98531e-07 -8.08598e-07)
(1.51726e-06 7.18058e-07 -8.11433e-07)
(1.72152e-06 5.47398e-07 -6.90351e-07)
(1.54286e-06 4.0586e-07 -3.65648e-07)
(1.73843e-07 7.48115e-09 2.19024e-08)
(1.42271e-07 4.76241e-08 1.15124e-09)
(2.35042e-07 1.67039e-08 -1.68543e-07)
(4.17055e-07 2.48288e-07 -2.76934e-07)
(6.39147e-07 3.20228e-07 -5.74978e-07)
(5.44535e-07 1.40638e-07 -4.0452e-07)
(8.46471e-07 7.6443e-07 -3.04875e-07)
(8.56964e-07 7.51087e-07 -5.10682e-07)
(8.09631e-07 2.04841e-07 -1.53835e-07)
(1.85114e-06 5.01106e-07 -1.13847e-06)
(1.96836e-06 4.73717e-07 -1.2054e-06)
(2.02701e-06 2.89996e-07 -1.00037e-06)
(1.88653e-06 2.32617e-07 -8.57805e-07)
(2.24766e-07 -1.79257e-08 -1.96991e-08)
(6.32418e-07 5.63213e-08 -9.58453e-08)
(8.89581e-07 2.2565e-07 -3.63015e-07)
(1.16299e-06 2.63397e-07 -5.95722e-07)
(1.37639e-06 3.69529e-07 -7.6286e-07)
(1.74924e-06 5.29739e-07 -1.09773e-06)
(1.88156e-06 5.18427e-07 -1.07244e-06)
(1.78992e-06 3.92523e-07 -8.92587e-07)
(1.74703e-06 3.27212e-07 -6.31445e-07)
(3.05798e-07 -2.01233e-08 -2.93286e-08)
(4.49172e-07 1.89028e-08 -6.92692e-08)
(7.32881e-07 1.32169e-07 -3.38844e-07)
(9.41655e-07 2.92951e-07 -4.3803e-07)
(1.06821e-06 1.92202e-07 -7.64378e-07)
(1.24798e-06 2.17736e-07 -6.98201e-07)
(1.38297e-06 3.52051e-07 -7.77856e-07)
(1.37672e-06 3.97846e-07 -6.15823e-07)
(1.32773e-06 3.41418e-07 -3.68712e-07)
(1.36825e-07 1.0397e-09 6.17658e-09)
(2.02816e-07 1.78527e-08 -4.07937e-08)
(3.40959e-07 5.8554e-08 -1.68861e-07)
(4.71986e-07 1.52943e-07 -2.4668e-07)
(5.28586e-07 1.60993e-07 -5.74133e-07)
(4.80859e-07 1.50643e-07 -3.81167e-07)
(6.28164e-07 2.37974e-07 -2.20323e-07)
(6.63813e-07 1.90652e-07 -2.47979e-07)
(4.4831e-07 9.73954e-08 5.88856e-09)
(1.55461e-06 2.84334e-07 -9.12848e-07)
(1.49702e-06 2.1438e-07 -7.3453e-07)
(2.09528e-07 6.67048e-08 -3.86339e-08)
(5.13009e-07 1.4871e-08 -1.34939e-07)
(9.18535e-07 1.19422e-07 -3.6664e-07)
(1.11081e-06 1.95791e-07 -5.01581e-07)
(1.34994e-06 2.38329e-07 -7.44475e-07)
(1.48377e-06 4.21711e-07 -8.91377e-07)
(1.53844e-06 4.6401e-07 -8.53722e-07)
(1.41976e-06 3.25218e-07 -7.18965e-07)
(1.34974e-06 2.54784e-07 -5.94313e-07)
(1.95905e-07 -1.39968e-08 -1.69579e-08)
(4.95466e-07 -3.72159e-08 -2.00822e-07)
(7.85912e-07 8.72121e-08 -3.14348e-07)
(8.44774e-07 2.33375e-07 -3.94257e-07)
(1.09242e-06 2.44601e-07 -6.2038e-07)
(1.12041e-06 1.60207e-07 -5.62507e-07)
(1.16477e-06 2.20941e-07 -5.43676e-07)
(9.64916e-07 2.43214e-07 -4.385e-07)
(9.08635e-07 2.06207e-07 -2.89462e-07)
(1.22052e-07 -2.03408e-08 -5.23826e-09)
(2.6155e-07 -1.45488e-08 -9.63632e-08)
(3.33105e-07 3.8796e-08 -1.56729e-07)
(5.65333e-07 9.62829e-08 -2.44442e-07)
(5.64747e-07 -1.01338e-08 -2.88179e-07)
(3.87173e-07 8.04294e-09 -2.68675e-07)
(4.5781e-07 3.28968e-08 -3.44894e-07)
(4.21939e-07 2.29806e-08 -1.7673e-07)
(4.61652e-07 1.21602e-07 -7.75851e-08)
(2.11345e-07 5.04739e-08 -7.03103e-08)
(5.69483e-07 4.57838e-08 -2.44694e-07)
(8.83602e-07 8.34446e-08 -3.69185e-07)
(1.01279e-06 1.54182e-07 -4.48603e-07)
(1.21235e-06 1.90056e-07 -5.76861e-07)
(1.21921e-06 1.98354e-07 -6.56e-07)
(1.26291e-06 3.81751e-07 -6.05701e-07)
(8.92163e-07 2.51838e-07 -5.12606e-07)
(1.6218e-07 1.74428e-08 -1.97065e-08)
(5.36477e-07 -2.99187e-08 -2.05842e-07)
(6.71952e-07 -5.02548e-09 -2.08991e-07)
(8.23391e-07 3.97022e-08 -3.15395e-07)
(9.42574e-07 5.39791e-08 -4.5092e-07)
(8.94645e-07 1.13996e-07 -4.64171e-07)
(7.35929e-07 1.99042e-07 -3.65625e-07)
(1.1388e-07 -1.54723e-08 1.11796e-08)
(2.39055e-07 -7.18636e-08 -1.00646e-07)
(4.31919e-07 2.66392e-09 -1.70592e-07)
(3.57331e-07 -2.52995e-08 -1.64633e-07)
(4.78136e-07 -4.01333e-09 -1.99883e-07)
(2.78933e-07 1.13709e-08 -2.00254e-07)
)
;

boundaryField
{
    inlet
    {
        type            calculated;
        value           uniform (0 0 0);
    }
    outlet
    {
        type            calculated;
        value           nonuniform 0();
    }
    wall
    {
        type            calculated;
        value           uniform (0 0 0);
    }
    procBoundary2to0
    {
        type            processor;
        value           uniform (0 0 0);
    }
    procBoundary2to3
    {
        type            processor;
        value           uniform (0 0 0);
    }
    procBoundary2to6
    {
        type            processor;
        value           uniform (0 0 0);
    }
}


// ************************************************************************* //
