/*--------------------------------*- C++ -*----------------------------------*\
| =========                 |                                                 |
| \\      /  F ield         | OpenFOAM: The Open Source CFD Toolbox           |
|  \\    /   O peration     | Version:  4.x                                   |
|   \\  /    A nd           | Web:      www.OpenFOAM.org                      |
|    \\/     M anipulation  |                                                 |
\*---------------------------------------------------------------------------*/
FoamFile
{
    version     2.0;
    format      ascii;
    class       surfaceScalarField;
    location    "31.5";
    object      phi;
}
// * * * * * * * * * * * * * * * * * * * * * * * * * * * * * * * * * * * * * //

dimensions      [0 3 -1 0 0 0 0];

internalField   nonuniform List<scalar> 
259
(
7.31679e-06
2.60132e-07
1.40933e-07
6.5236e-06
2.37854e-08
6.25996e-08
5.90559e-06
4.41655e-07
2.41974e-07
4.4953e-06
2.07793e-08
3.23038e-07
4.9082e-06
5.16764e-07
1.49304e-07
5.75063e-08
1.28005e-06
5.62081e-06
-4.78169e-08
-2.16136e-08
5.55494e-06
2.34764e-07
1.44836e-07
5.25468e-06
-9.30714e-09
1.51244e-08
5.44906e-06
3.683e-07
3.83527e-07
4.71332e-06
-6.49175e-08
2.02468e-07
5.35321e-06
7.39928e-07
6.49859e-07
-2.99673e-07
1.01668e-06
4.97244e-06
-3.24504e-08
4.84291e-06
3.46686e-12
4.9153e-06
1.03032e-07
4.70728e-06
8.26045e-09
5.07561e-06
3.38954e-07
4.46004e-06
5.8957e-08
6.08073e-06
3.80086e-07
1.49543e-07
9.02865e-06
-1.10946e-07
-8.13946e-08
9.0338e-06
-5.11288e-08
5.51597e-08
9.12558e-06
-1.09668e-07
-1.45786e-08
9.05832e-06
1.082e-07
9.99859e-08
9.22674e-06
-2.3175e-07
1.2593e-07
8.99854e-06
4.24083e-07
4.60949e-08
9.63123e-06
-8.04795e-07
4.95145e-07
9.35597e-06
1.00588e-06
-5.8132e-07
-3.28859e-06
1.64948e-06
5.97028e-06
-5.40844e-08
-1.75403e-08
5.77118e-06
5.29754e-08
9.81218e-08
5.66075e-06
-2.5741e-08
4.88496e-09
5.81886e-06
7.45755e-08
2.0353e-08
5.58568e-06
-5.46726e-08
7.12244e-08
6.33797e-06
1.75123e-07
-1.19803e-07
5.80586e-06
-5.04821e-07
4.34608e-07
7.16448e-06
9.30732e-07
-6.33615e-07
-2.37865e-06
2.16257e-06
5.27746e-06
-8.405e-13
7.60534e-09
5.34042e-06
1.90664e-08
-6.15059e-08
5.30802e-06
6.66876e-09
5.45213e-06
6.69265e-08
5.39657e-06
2.03236e-08
5.84646e-06
1.72027e-07
5.24326e-06
2.95216e-07
6.20499e-06
-1.61888e-07
1.74905e-06
5.08881e-06
4.25575e-08
1.83881e-08
8.81707e-06
-6.44863e-08
2.4903e-08
8.81383e-06
-4.79748e-08
1.06377e-07
8.77554e-06
-4.24838e-08
6.61929e-08
8.6989e-06
1.27895e-07
4.87342e-08
8.57956e-06
-4.43246e-08
2.89593e-07
8.23982e-06
4.53844e-07
-6.80106e-08
7.88336e-06
-9.40379e-08
9.45648e-07
7.11603e-06
9.09503e-07
-7.23499e-07
-4.36335e-07
2.30496e-06
7.03229e-06
-9.29079e-08
3.30978e-08
6.99174e-06
-2.00931e-08
1.10789e-07
7.01005e-06
-1.08381e-07
5.24756e-08
7.03786e-06
1.77278e-07
-5.68388e-08
7.05921e-06
-1.5368e-07
1.59228e-07
7.22078e-06
4.87116e-07
-3.14642e-07
7.41251e-06
-3.3433e-07
4.83173e-07
7.65414e-06
1.02295e-06
-9.887e-07
-1.24887e-06
1.41089e-06
5.70185e-06
-2.85505e-08
7.26576e-08
5.50844e-06
9.05372e-08
2.12763e-08
5.29782e-06
-1.41308e-08
1.23035e-07
5.43219e-06
1.12543e-07
-2.71359e-09
5.05615e-06
2.80023e-07
5.75825e-06
-1.66751e-07
5.11307e-06
7.89825e-07
6.46651e-06
-7.8501e-07
2.84905e-06
5.76852e-06
7.82605e-08
5.8033e-06
2.30442e-09
5.76329e-06
9.07798e-08
-8.35324e-08
1.09798e-05
-1.8774e-07
1.12453e-05
-1.59163e-07
1.15371e-05
-2.25563e-07
1.16489e-05
-6.30533e-08
1.2315e-05
-3.76597e-07
1.20964e-05
1.50657e-07
1.38338e-05
-7.91734e-07
1.23035e-05
8.06718e-07
-2.19407e-06
9.6429e-06
-2.5079e-07
9.78525e-06
-1.90731e-07
9.93924e-06
-3.27071e-07
9.90412e-06
-8.47746e-08
1.01241e-05
-4.37391e-07
9.76688e-06
1.93279e-07
1.01268e-05
-6.68468e-07
9.01463e-06
9.30169e-07
-1.11622e-06
8.51756e-06
-1.78396e-07
8.5004e-06
-1.52292e-07
8.54971e-06
-2.5335e-07
8.60694e-06
-1.44716e-07
8.82721e-06
-3.77641e-07
8.84244e-06
1.13019e-08
9.68212e-06
9.20278e-06
8.52798e-06
8.48474e-06
8.5072e-06
8.44433e-06
8.63626e-06
)
;

boundaryField
{
    inlet
    {
        type            calculated;
        value           nonuniform 0();
    }
    outlet
    {
        type            calculated;
        value           nonuniform List<scalar> 
12
(
2.02722e-06
3.46784e-06
4.58837e-06
1.22751e-05
5.10865e-06
2.85749e-06
6.89688e-06
9.21836e-06
4.9477e-06
1.68026e-05
9.34767e-06
1.22351e-05
)
;
    }
    wall
    {
        type            calculated;
        value           nonuniform List<scalar> 
66
(
0
0
0
0
0
0
0
0
0
0
0
0
0
0
0
0
0
-4.93038e-32
0
0
0
0
0
0
0
0
0
0
-1.2326e-32
0
0
0
0
0
0
0
0
0
0
0
0
0
0
0
0
0
0
0
0
0
0
0
-1.2326e-32
0
0
0
0
0
0
0
0
0
0
0
0
0
)
;
    }
    procBoundary5to1
    {
        type            processor;
        value           nonuniform List<scalar> 
32
(
2.09431e-07
7.06813e-07
-6.56234e-08
1.06648e-06
-1.07897e-06
1.54342e-06
2.16992e-07
-5.36038e-08
3.18236e-07
-5.04555e-07
6.18965e-07
-1.51291e-06
1.22586e-06
-4.2828e-08
8.17168e-08
-1.34436e-07
1.90458e-07
-4.49665e-07
5.3519e-07
-1.12602e-06
9.95905e-07
1.04917e-07
-9.1828e-09
-7.92729e-06
9.10367e-09
3.2471e-08
4.44105e-08
-5.77747e-06
-1.20565e-07
-3.11994e-09
-4.91085e-06
-2.99921e-12
)
;
    }
    procBoundary5to4
    {
        type            processor;
        value           nonuniform List<scalar> 
12
(
-8.94122e-06
-6.05401e-06
-5.33914e-06
-5.13136e-06
-8.85888e-06
-7.05451e-06
-5.83126e-06
-5.82084e-06
-1.07671e-05
-9.54675e-06
-8.5173e-06
-8.51865e-06
)
;
    }
    procBoundary5to7
    {
        type            processor;
        value           nonuniform List<scalar> 
44
(
1.34251e-07
3.66318e-13
1.93773e-07
8.5202e-13
1.1068e-07
-4.3495e-08
-1.34824e-07
4.72394e-08
-2.49343e-12
-2.11869e-08
-9.32657e-13
-3.34378e-08
-1.11723e-08
-1.07843e-07
-1.3788e-07
5.10977e-07
-6.30655e-07
-4.69124e-13
5.15035e-06
-3.96775e-08
-5.57373e-08
-1.35401e-07
-3.73346e-08
1.23795e-07
-1.83764e-07
2.92632e-07
-8.30065e-07
-1.19341e-08
7.18407e-08
-9.16302e-09
6.13934e-06
-4.45757e-08
-2.53419e-07
4.55945e-08
-7.18328e-07
6.24508e-07
-1.29947e-06
-1.09468e-07
-1.06741e-07
-1.8503e-07
-1.65385e-07
-3.1615e-07
8.75247e-06
-1.50497e-07
)
;
    }
}


// ************************************************************************* //
