/*--------------------------------*- C++ -*----------------------------------*\
| =========                 |                                                 |
| \\      /  F ield         | OpenFOAM: The Open Source CFD Toolbox           |
|  \\    /   O peration     | Version:  4.x                                   |
|   \\  /    A nd           | Web:      www.OpenFOAM.org                      |
|    \\/     M anipulation  |                                                 |
\*---------------------------------------------------------------------------*/
FoamFile
{
    version     2.0;
    format      ascii;
    class       volScalarField;
    location    "31.5";
    object      SPartFluid;
}
// * * * * * * * * * * * * * * * * * * * * * * * * * * * * * * * * * * * * * //

dimensions      [1 -3 -1 0 0 0 0];

internalField   nonuniform List<scalar> 
114
(
6.82007e-65
8.06008e-65
6.35506e-65
6.74256e-65
7.59507e-65
8.44758e-65
6.82006e-65
5.65755e-65
5.81255e-65
6.66506e-65
8.21507e-65
8.52507e-65
7.90507e-65
8.44757e-65
6.04505e-65
7.51756e-65
5.73505e-65
4.57254e-65
7.28506e-65
5.42504e-65
8.68007e-65
6.35506e-65
4.80505e-65
6.97507e-65
5.42505e-65
6.43256e-65
6.82007e-65
7.13007e-65
5.65756e-65
5.96756e-65
7.05257e-65
6.82006e-65
8.52508e-65
7.13006e-65
8.37007e-65
8.13757e-65
5.27005e-65
8.60258e-65
6.89756e-65
8.21507e-65
4.57254e-65
7.28506e-65
7.59506e-65
6.20005e-65
7.05256e-65
7.13006e-65
6.89756e-65
5.58005e-65
9.99759e-65
4.34004e-65
6.66507e-65
8.21509e-65
6.74257e-65
7.36258e-65
6.97507e-65
6.89757e-65
6.66507e-65
7.28508e-65
6.58757e-65
5.42505e-65
8.37008e-65
6.04506e-65
7.13007e-65
7.13007e-65
7.05257e-65
9.14509e-65
6.43256e-65
5.50255e-65
6.89756e-65
6.35506e-65
6.89756e-65
6.04506e-65
1.00751e-64
7.36257e-65
8.21507e-65
8.91258e-65
8.68008e-65
4.80504e-65
9.37758e-65
8.99008e-65
7.98257e-65
2.63503e-65
6.89758e-65
4.57255e-65
7.13008e-65
6.04507e-65
4.96006e-65
6.97508e-65
6.27757e-65
6.04507e-65
6.35507e-65
6.58757e-65
4.34004e-65
5.65756e-65
7.44008e-65
6.51007e-65
4.57255e-65
7.05257e-65
6.04506e-65
6.12256e-65
6.43256e-65
8.52508e-65
6.97507e-65
5.89006e-65
8.06008e-65
6.51006e-65
6.74257e-65
6.82007e-65
7.36257e-65
5.65756e-65
7.13007e-65
5.58005e-65
9.68759e-65
7.75007e-65
)
;

boundaryField
{
    inlet
    {
        type            calculated;
        value           nonuniform 0();
    }
    outlet
    {
        type            calculated;
        value           uniform 0;
    }
    wall
    {
        type            calculated;
        value           uniform 0;
    }
    procBoundary5to1
    {
        type            processor;
        value           nonuniform List<scalar> 
32
(
7.98258e-65
5.73506e-65
8.44758e-65
7.05257e-65
5.73506e-65
4.18504e-65
5.65755e-65
6.12256e-65
6.97506e-65
6.97506e-65
6.58756e-65
7.20756e-65
4.41754e-65
6.35505e-65
5.11504e-65
9.06758e-65
8.29257e-65
8.75757e-65
6.82006e-65
7.90507e-65
3.48753e-65
6.58757e-65
5.27005e-65
8.06008e-65
8.06008e-65
8.06008e-65
7.05257e-65
9.99759e-65
9.99759e-65
9.99759e-65
5.73505e-65
5.73505e-65
)
;
    }
    procBoundary5to4
    {
        type            processor;
        value           nonuniform List<scalar> 
12
(
8.91259e-65
9.06759e-65
5.65755e-65
5.96755e-65
8.21509e-65
8.13758e-65
6.82007e-65
6.82007e-65
7.20758e-65
7.59508e-65
6.27757e-65
6.35507e-65
)
;
    }
    procBoundary5to7
    {
        type            processor;
        value           nonuniform List<scalar> 
44
(
7.82756e-65
6.43255e-65
6.74255e-65
1.03076e-64
1.03851e-64
7.98256e-65
5.65754e-65
8.37007e-65
9.92008e-65
7.82756e-65
6.43255e-65
7.36256e-65
6.74255e-65
6.89756e-65
8.60257e-65
8.44757e-65
7.36256e-65
3.95253e-65
6.43255e-65
8.52507e-65
6.43255e-65
7.36256e-65
5.03754e-65
5.81255e-65
7.36256e-65
6.04505e-65
5.81255e-65
8.06008e-65
7.36257e-65
6.82006e-65
5.03754e-65
5.19255e-65
5.03754e-65
5.81255e-65
5.50255e-65
6.43256e-65
6.12256e-65
6.89757e-65
5.81256e-65
7.67257e-65
7.44007e-65
5.19255e-65
5.50255e-65
3.87504e-65
)
;
    }
}


// ************************************************************************* //
