/*--------------------------------*- C++ -*----------------------------------*\
| =========                 |                                                 |
| \\      /  F ield         | OpenFOAM: The Open Source CFD Toolbox           |
|  \\    /   O peration     | Version:  4.x                                   |
|   \\  /    A nd           | Web:      www.OpenFOAM.org                      |
|    \\/     M anipulation  |                                                 |
\*---------------------------------------------------------------------------*/
FoamFile
{
    version     2.0;
    format      ascii;
    class       volVectorField;
    location    "60";
    object      DDtUrel;
}
// * * * * * * * * * * * * * * * * * * * * * * * * * * * * * * * * * * * * * //

dimensions      [0 1 -2 0 0 0 0];

internalField   nonuniform List<vector> 
132
(
(1.58311e-05 1.85209e-06 9.43491e-06)
(-2.02164e-05 -1.70384e-06 2.52863e-06)
(-6.6646e-05 -4.87627e-06 -1.98533e-06)
(-0.00014517 -1.01777e-05 -1.33461e-05)
(-0.000273163 -1.24344e-05 -2.87603e-05)
(-0.000467869 -1.72487e-05 -7.27501e-05)
(-0.000797561 -2.90652e-05 -0.000125433)
(-0.00114733 -7.72718e-06 -0.000253181)
(-0.00164017 8.35608e-06 -0.000367863)
(2.23954e-05 -9.6356e-06 6.1934e-06)
(-1.4946e-05 -6.49398e-06 -2.23134e-07)
(-6.27527e-05 -5.4663e-06 -5.33485e-06)
(-0.000138153 1.5243e-06 -2.14922e-05)
(-0.000261031 6.81065e-06 -4.02139e-05)
(-0.000453351 4.23393e-05 -9.31716e-05)
(-0.000765733 6.36978e-05 -0.000159902)
(-0.0011728 0.000226096 -0.000278281)
(-0.00171544 0.000351907 -0.000421125)
(5.30952e-05 -2.00247e-05 1.94677e-06)
(7.95214e-07 -1.00281e-05 -8.25142e-06)
(-2.23488e-05 -1.04805e-05 -1.41942e-05)
(-0.000117543 1.10414e-05 -3.58744e-05)
(-0.0001975 7.69984e-06 -5.42854e-05)
(-0.000432723 6.96384e-05 -0.000122573)
(-0.000700489 8.74087e-05 -0.00018734)
(-0.00131361 0.00030475 -0.000391671)
(-0.00213391 0.000509182 -0.000633789)
(6.46234e-05 -2.84686e-05 -2.60924e-06)
(4.07937e-06 -2.14571e-05 -1.12076e-05)
(-1.74953e-05 -1.48301e-05 -1.15051e-05)
(-0.000119694 2.3976e-06 -4.00366e-05)
(-0.000194456 2.30305e-05 -4.79996e-05)
(-0.000438204 6.43418e-05 -0.000136772)
(-0.000699143 0.000121904 -0.000203302)
(-0.00139091 0.00022075 -0.000466238)
(-0.00232796 0.00028213 -0.000747091)
(-6.70673e-05 -6.86133e-06 3.37904e-06)
(-0.000138895 -1.06971e-05 -5.04456e-07)
(-0.000255176 -1.38485e-05 -1.69133e-06)
(-0.000438831 -2.41733e-05 -4.26782e-06)
(-0.000746037 -2.90878e-05 -5.2315e-07)
(-0.00110206 -6.839e-05 4.09751e-05)
(-0.00162751 -0.000105954 8.60303e-05)
(7.98565e-06 -8.614e-06 7.80657e-07)
(-2.62452e-05 -7.63657e-06 -2.21577e-06)
(-6.55686e-05 -6.15873e-06 -4.2691e-06)
(-0.000138329 -2.88996e-06 -9.31196e-06)
(-0.000246912 5.16864e-06 -1.54868e-05)
(-0.000430306 1.563e-05 -2.81021e-05)
(-0.000716818 3.70217e-05 -3.91521e-05)
(-0.00111289 9.04205e-05 -4.5974e-05)
(-0.00168285 0.0001334 -5.56385e-05)
(8.85566e-06 -1.90394e-05 -7.16427e-07)
(-2.57714e-05 -1.21965e-05 -5.22919e-06)
(-6.8659e-05 -7.15153e-06 -7.44982e-06)
(-0.00013422 2.09867e-06 -1.58395e-05)
(-0.00024842 1.52203e-05 -2.62349e-05)
(-0.000422925 3.6318e-05 -4.81645e-05)
(-0.000729031 6.75894e-05 -7.45863e-05)
(-0.0011909 0.000164522 -0.000102883)
(-0.00177178 0.00027045 -0.00013442)
(1.96101e-06 -3.02132e-05 -2.39984e-06)
(-3.78305e-05 -1.93801e-05 -5.0995e-06)
(-7.79189e-05 -1.18314e-05 -7.88044e-06)
(-0.000139959 -7.01418e-07 -1.56665e-05)
(-0.000254762 1.94866e-05 -3.00653e-05)
(-0.000427439 3.73948e-05 -6.12876e-05)
(-0.000738946 7.33449e-05 -9.6395e-05)
(-0.00122805 0.000125843 -0.000148882)
(-0.00184817 0.000155685 -0.000215146)
(-0.000219932 -2.20498e-05 2.03122e-05)
(-0.000411492 -3.96254e-05 5.92507e-05)
(-0.000706555 -6.21468e-05 9.42553e-05)
(-0.00117033 -0.000102959 0.000307624)
(-0.00183919 -0.000163051 0.000438214)
(5.51772e-06 -1.11555e-05 -7.78769e-06)
(-2.94049e-05 -1.13723e-05 -6.71008e-06)
(-6.53966e-05 -1.32833e-05 -4.85591e-06)
(-0.000135558 -1.07974e-05 -1.14969e-06)
(-0.000236431 -1.20151e-05 2.7644e-06)
(-0.000418867 5.29408e-07 2.31801e-05)
(-0.000703995 2.42284e-06 4.62958e-05)
(-0.00116619 0.00010578 0.000148548)
(-0.00179999 0.000169151 0.000230906)
(2.11728e-05 -2.32365e-05 -1.22926e-05)
(-2.35143e-05 -1.58412e-05 -1.00157e-05)
(-3.59799e-05 -1.58336e-05 -1.22306e-05)
(-0.000119986 -4.24329e-06 -5.18649e-06)
(-0.000165664 -1.29083e-05 -1.25454e-05)
(-0.000383607 2.41084e-05 8.09697e-06)
(-0.000569342 1.05671e-05 3.72336e-06)
(-0.00126126 0.000172409 0.000135056)
(-0.0022068 0.000312772 0.000251563)
(2.04727e-05 -3.0706e-05 -8.09448e-06)
(-2.75979e-05 -2.69538e-05 -9.02273e-06)
(-5.01814e-05 -2.25945e-05 -1.33092e-05)
(-0.000130594 -1.75576e-05 -1.13486e-05)
(-0.000181618 -4.24314e-06 -2.50086e-05)
(-0.000395796 5.03337e-06 -1.42982e-05)
(-0.000585169 3.52555e-05 -1.30682e-05)
(-0.00127641 5.64997e-05 8.41913e-05)
(-0.00226423 3.91276e-05 0.000149351)
(-0.000596164 -6.58795e-05 0.000132396)
(-0.00130363 -0.000208382 0.000353004)
(-0.00226441 -0.000380344 0.000524978)
(6.97256e-06 -1.3957e-05 -2.00219e-05)
(-3.71835e-05 -1.63613e-05 -1.45662e-05)
(-7.27507e-05 -1.70931e-05 -1.25372e-05)
(-0.000146455 -1.93682e-05 -3.3584e-06)
(-0.000245339 -1.89072e-05 -9.80665e-07)
(-0.000425957 -2.36858e-05 3.10232e-05)
(-0.000716429 -2.38704e-05 7.55059e-05)
(-0.00121716 -4.2724e-05 0.000172336)
(-0.00192827 -8.9862e-05 0.000267006)
(1.55044e-05 -2.10196e-05 -2.28215e-05)
(-3.61584e-05 -1.75745e-05 -2.54891e-05)
(-6.72105e-05 -1.78894e-05 -2.56573e-05)
(-0.000151011 -1.36265e-05 -2.54535e-05)
(-0.000227934 -1.11799e-05 -1.67948e-05)
(-0.000427436 -2.76662e-06 -1.26159e-05)
(-0.000678406 -5.7713e-06 3.69358e-05)
(-0.00125499 1.88302e-05 6.12118e-05)
(-0.00213599 4.47121e-05 5.12027e-05)
(1.53275e-05 -2.89448e-05 -2.17603e-05)
(-3.74175e-05 -2.51551e-05 -2.55661e-05)
(-7.80227e-05 -1.9969e-05 -2.56976e-05)
(-0.000157153 -2.02786e-05 -3.35593e-05)
(-0.000251873 -4.36013e-06 -2.39784e-05)
(-0.000441129 -1.24325e-05 -4.4132e-05)
(-0.000744609 9.78665e-06 4.68801e-06)
(-0.00124506 -5.66057e-05 -4.88753e-05)
(-0.00203145 -0.00011369 -0.000115079)
)
;

boundaryField
{
    inlet
    {
        type            calculated;
        value           nonuniform 0();
    }
    outlet
    {
        type            calculated;
        value           nonuniform List<vector> 
16
(
(-0.00203324 0.000494909 -0.00079947)
(-0.00205849 0.00216344 -0.00045745)
(-0.0062039 0.00261101 -0.00199124)
(-0.00645882 -0.000249088 -0.00234853)
(-0.00213407 -0.000391048 0.000643496)
(-0.00296689 -0.000192822 -3.77578e-05)
(-0.00125122 0.000524639 0.000116931)
(-0.00134748 -0.000128665 -0.000164832)
(-0.0031826 -0.000311675 0.00204345)
(-0.00245427 0.00185473 0.00056669)
(-0.00789034 0.00299573 0.00280089)
(-0.00762813 -0.000744821 0.00197385)
(-0.00704563 -0.00237114 0.00152773)
(-0.00295912 -0.000557775 0.000554863)
(-0.00573012 0.000203908 -0.000746491)
(-0.00354666 -0.00125193 -0.00164818)
)
;
    }
    wall
    {
        type            calculated;
        value           nonuniform List<vector> 
66
(
(-1.24714e-05 1.40446e-06 -0.000116684)
(0.000148746 -2.2289e-05 -7.79645e-05)
(0.000102236 -5.32367e-05 -5.99495e-05)
(-0.000177872 -3.42091e-05 -2.00219e-05)
(-0.000134794 8.89614e-06 -0.000114104)
(-0.000110644 -4.73258e-05 -8.82564e-05)
(-0.00014288 -2.02451e-05 -3.87748e-05)
(5.84345e-05 -3.50077e-05 -0.000108035)
(-7.10047e-05 -5.27629e-07 -3.87171e-05)
(-0.000198747 -4.17242e-05 2.44733e-05)
(-0.000263265 1.36989e-06 -0.000157753)
(-0.000207317 -0.000101563 -0.00018292)
(-0.000311153 -1.23471e-05 -0.000140472)
(0.000104464 -2.23425e-05 -4.18523e-05)
(-0.000233939 9.39283e-05 5.31409e-05)
(-0.000218577 -3.88998e-05 -1.10433e-05)
(-0.000357654 4.53449e-05 -0.000260552)
(-0.000252273 -0.000194006 -0.000455439)
(0.00168398 0.000397974 -0.00018852)
(-0.00055807 2.92723e-05 -6.09352e-05)
(0.000361741 -0.000137611 0.000201041)
(-0.00079853 0.000266056 0.000292081)
(-0.000815448 -0.000768648 0.000892236)
(-0.000310977 -8.68947e-05 3.90269e-05)
(-0.000395982 -3.5909e-05 -5.72867e-05)
(-0.000191902 -0.000664819 -0.000752619)
(-0.00704563 -0.00237114 0.00152773)
(-0.00295912 -0.000557775 0.000554863)
(-0.00573012 0.000203908 -0.000746491)
(-0.00354666 -0.00125193 -0.00164818)
(0.000406476 -5.16518e-05 -4.47906e-05)
(-0.000194405 -0.000109311 1.40871e-05)
(0.000206229 -7.41952e-05 2.78923e-05)
(0.000102236 -5.32367e-05 -5.99495e-05)
(-5.64541e-05 -4.20216e-05 -0.000103564)
(-0.000233542 -9.19634e-07 2.63001e-05)
(-6.12584e-05 -9.15428e-05 4.36247e-05)
(-0.000110644 -4.73258e-05 -8.82564e-05)
(0.0003841 -4.95939e-05 5.47812e-05)
(-0.000304854 4.39059e-06 3.49252e-05)
(0.000264151 -8.64591e-05 -1.53985e-05)
(-7.10047e-05 -5.27629e-07 -3.87171e-05)
(-0.000223805 -3.60027e-05 -0.000198112)
(-7.72796e-05 3.31433e-06 6.77384e-05)
(-0.00014801 -0.000128629 0.000101608)
(-0.000207317 -0.000101563 -0.00018292)
(0.000451546 -1.34125e-05 0.000238735)
(-0.000495427 0.000101446 5.21989e-05)
(0.000736601 -3.67169e-05 -0.00012982)
(-0.000233939 9.39283e-05 5.31409e-05)
(-0.000515206 -1.33153e-05 -0.000349102)
(-5.54719e-05 -8.93143e-07 -1.69122e-06)
(-0.000277396 -0.000167117 0.000182968)
(-0.000252273 -0.000194006 -0.000455439)
(0.000711555 0.000100481 0.000426662)
(-0.000786364 4.91664e-06 -3.46471e-05)
(0.00195163 0.000101079 -0.000174968)
(-0.00079853 0.000266056 0.000292081)
(-0.000889394 3.04182e-06 -0.000733066)
(-0.000270683 2.60062e-06 1.31378e-05)
(-0.000606592 -3.90104e-05 0.00115346)
(-0.000191902 -0.000664819 -0.000752619)
(-0.00645882 -0.000249088 -0.00234853)
(-0.00134748 -0.000128665 -0.000164832)
(-0.00762813 -0.000744821 0.00197385)
(-0.00354666 -0.00125193 -0.00164818)
)
;
    }
    procBoundary7to0
    {
        type            processor;
        value           uniform (3.05931e-05 4.74189e-07 1.11087e-05);
    }
    procBoundary7to1
    {
        type            processor;
        value           uniform (1.28922e-05 9.103e-06 1.08226e-05);
    }
    procBoundary7to3
    {
        type            processor;
        value           nonuniform List<vector> 
36
(
(5.00732e-05 -4.23107e-07 1.56077e-05)
(4.98611e-06 -2.95903e-06 4.69074e-06)
(-3.45902e-05 -7.68165e-06 -2.37569e-06)
(-0.000127919 -1.38043e-05 -3.03706e-05)
(-0.000255652 -1.55506e-05 -5.50314e-05)
(-0.000480792 -2.45856e-05 -0.000148515)
(-0.000830438 -1.99583e-05 -0.000252884)
(-0.00130208 -7.00997e-05 -0.000556322)
(-0.00191871 -0.000110142 -0.000816599)
(4.30413e-05 -6.03523e-06 1.49414e-05)
(6.06036e-06 -6.08507e-06 5.24813e-06)
(-4.12677e-05 -3.40063e-06 -3.35813e-06)
(-0.000124578 2.57032e-06 -2.79162e-05)
(-0.000252458 1.67034e-05 -5.87163e-05)
(-0.000466574 4.06731e-05 -0.000150201)
(-0.000822509 8.13143e-05 -0.00027677)
(-0.00128292 0.00018789 -0.000520379)
(-0.00186676 0.000298628 -0.000766384)
(7.17483e-05 -1.86118e-05 1.19727e-05)
(2.41572e-05 -1.35735e-05 2.98919e-06)
(-7.4116e-06 -8.19364e-06 -4.29262e-06)
(-9.89887e-05 1.32525e-05 -3.43826e-05)
(-0.000189157 3.2503e-05 -6.71627e-05)
(-0.000428961 0.000100129 -0.000179366)
(-0.000752043 0.000153578 -0.000312228)
(-0.00142364 0.000430408 -0.000683869)
(-0.0022591 0.000661982 -0.0010457)
(8.81373e-05 -3.35386e-05 1.18395e-05)
(2.7712e-05 -2.77188e-05 1.0303e-06)
(1.93157e-06 -2.18408e-05 -4.19093e-06)
(-9.65182e-05 5.80536e-06 -3.86515e-05)
(-0.000163029 3.17675e-05 -6.77798e-05)
(-0.000411028 9.39632e-05 -0.000180806)
(-0.000662835 0.000168388 -0.000323972)
(-0.00153525 0.000342541 -0.000752087)
(-0.0026445 0.000419957 -0.00116662)
)
;
    }
    procBoundary7to5
    {
        type            processor;
        value           nonuniform List<vector> 
44
(
(-1.71357e-05 2.73735e-06 5.19404e-06)
(-6.3869e-05 -5.17624e-06 5.63598e-07)
(-0.000140215 -1.62517e-05 -1.09865e-05)
(-0.000269363 -3.31305e-05 -2.38102e-05)
(-0.000467581 -6.00321e-05 -6.14746e-05)
(-0.00079942 -0.000102658 -0.000110392)
(-0.00117762 -0.000177386 -0.000213751)
(-0.00169168 -0.000243883 -0.000300223)
(3.7883e-06 -3.17828e-06 2.28842e-06)
(-2.58014e-05 -4.20041e-06 1.6171e-06)
(-5.72668e-05 -5.47869e-06 6.41351e-06)
(-0.000132589 -1.6951e-05 5.9728e-06)
(-0.000244776 -3.21927e-05 8.03899e-06)
(-0.000441621 -6.82023e-05 1.81107e-05)
(-0.000755406 -0.000102022 2.67339e-05)
(-0.00115689 -0.000230472 0.000111002)
(-0.00173838 -0.000348936 0.000195178)
(3.7883e-06 -3.17828e-06 2.28842e-06)
(-2.58014e-05 -4.20041e-06 1.6171e-06)
(-2.58014e-05 -4.20041e-06 1.6171e-06)
(-4.91609e-05 -1.12115e-05 7.55439e-07)
(-0.000124959 -1.66324e-05 1.1552e-05)
(-0.000217478 -3.4031e-05 2.90894e-05)
(-0.000414286 -7.05787e-05 7.48843e-05)
(-0.000725534 -0.000118749 0.00013397)
(-0.0012538 -0.000249115 0.000365251)
(-0.00193352 -0.00034978 0.000524798)
(1.68897e-05 -4.43794e-06 -5.59242e-06)
(-2.0768e-05 -7.78168e-06 -1.53025e-06)
(-4.91609e-05 -1.12115e-05 7.55439e-07)
(-0.000124959 -1.66324e-05 1.1552e-05)
(-0.000124959 -1.66324e-05 1.1552e-05)
(-0.000163767 -2.99293e-05 2.52946e-05)
(-0.0003835 -6.83299e-05 8.31334e-05)
(-0.000587141 -0.000109264 0.000151106)
(-0.00141477 -0.00026543 0.000454317)
(-0.0024814 -0.000420032 0.000724338)
(3.82328e-05 -1.1309e-05 -1.15386e-05)
(-9.20767e-06 -1.60838e-05 -6.02746e-06)
(-2.24068e-05 -1.73927e-05 -6.09836e-06)
(-0.000109259 -2.90812e-05 1.46794e-05)
(-0.000163767 -2.99293e-05 2.52946e-05)
(-0.0003835 -6.83299e-05 8.31334e-05)
(-0.0003835 -6.83299e-05 8.31334e-05)
)
;
    }
    procBoundary7to6
    {
        type            processor;
        value           nonuniform List<vector> 
12
(
(3.75729e-05 -8.27556e-06 9.09099e-06)
(5.65088e-05 -1.69806e-05 4.66889e-06)
(6.76993e-05 -3.00606e-05 6.85316e-07)
(2.24128e-05 -9.48259e-06 2.13585e-06)
(2.5992e-05 -1.94504e-05 9.7378e-07)
(1.91026e-05 -2.84282e-05 -8.52142e-07)
(1.89617e-05 -1.15129e-05 -6.13607e-06)
(2.51272e-05 -2.05007e-05 -7.33903e-06)
(3.28457e-05 -3.02459e-05 -6.77371e-06)
(2.10135e-05 -1.50656e-05 -1.25749e-05)
(2.89139e-05 -2.12337e-05 -1.67387e-05)
(3.62192e-05 -3.10641e-05 -1.80926e-05)
)
;
    }
}


// ************************************************************************* //
