/*--------------------------------*- C++ -*----------------------------------*\
| =========                 |                                                 |
| \\      /  F ield         | OpenFOAM: The Open Source CFD Toolbox           |
|  \\    /   O peration     | Version:  4.x                                   |
|   \\  /    A nd           | Web:      www.OpenFOAM.org                      |
|    \\/     M anipulation  |                                                 |
\*---------------------------------------------------------------------------*/
FoamFile
{
    version     2.0;
    format      ascii;
    class       surfaceScalarField;
    location    "60";
    object      phi;
}
// * * * * * * * * * * * * * * * * * * * * * * * * * * * * * * * * * * * * * //

dimensions      [0 3 -1 0 0 0 0];

internalField   nonuniform List<scalar> 
308
(
5.74563e-06
4.44787e-08
5.75986e-06
1.11677e-07
5.6094e-06
5.75221e-08
-7.24189e-08
5.56518e-06
1.12468e-07
9.11775e-08
5.2657e-06
5.92618e-08
-2.90148e-08
5.38359e-06
1.77345e-08
2.80744e-07
4.50268e-06
4.03249e-07
-1.18623e-08
5.29368e-06
-7.73767e-07
6.77635e-07
2.10159e-06
-7.92004e-08
5.27718e-06
1.72834e-07
-3.17929e-09
5.34354e-06
1.31357e-07
-2.88238e-08
5.16654e-06
2.34525e-07
-1.75304e-12
5.40927e-06
-2.50354e-09
3.10614e-08
5.03226e-06
4.38595e-07
-1.59703e-08
5.84043e-06
-4.72766e-07
1.90841e-07
5.1346e-06
1.11127e-06
-5.71588e-08
6.31251e-06
-1.55837e-06
3.78108e-07
3.52513e-06
1.31436e-07
7.77495e-06
7.12759e-08
-1.34156e-07
7.87586e-06
2.44693e-08
-6.07518e-08
8.01379e-06
9.88915e-08
-2.15748e-07
8.11482e-06
-1.13177e-07
-3.2287e-08
8.28968e-06
2.29989e-07
-3.58423e-07
8.31678e-06
-4.4755e-07
7.12021e-08
8.6116e-06
5.33759e-07
-5.92055e-07
8.40195e-06
-9.94068e-07
4.61022e-07
1.55529e-06
-8.76824e-07
9.70753e-06
-3.55789e-07
9.7415e-06
-2.74189e-07
9.80638e-06
-4.09883e-07
9.71123e-06
-1.56789e-07
9.74015e-06
-4.85883e-07
9.28599e-06
1.88414e-07
9.48314e-06
-8.1003e-07
8.71022e-06
6.82983e-07
-1.50348e-06
5.06926e-06
-1.11995e-12
5.14253e-06
-7.84284e-08
4.96493e-06
-1.13398e-12
1.30383e-07
5.04998e-06
8.04471e-08
1.26166e-07
4.41752e-06
-8.86843e-13
4.33766e-07
5.56078e-06
5.67841e-07
-3.16804e-07
-3.25304e-07
2.35692e-06
4.91523e-06
1.10528e-12
7.40102e-09
4.97575e-06
-1.73688e-07
-1.30676e-08
4.97575e-06
1.35647e-12
1.22338e-12
5.04745e-06
-1.23428e-07
4.36267e-09
5.029e-06
1.27552e-12
2.46891e-09
5.11197e-06
1.46388e-07
4.1938e-08
4.95287e-06
8.91288e-13
1.0194e-07
5.75683e-06
1.61953e-07
-1.9969e-08
-2.00693e-07
3.42064e-07
5.14089e-06
-2.23638e-08
3.18072e-08
5.20366e-06
-3.08828e-07
1.16191e-08
4.94535e-06
-1.54028e-08
5.79606e-08
5.01954e-06
-2.74699e-07
4.47918e-08
4.45846e-06
1.266e-13
2.02666e-07
4.54279e-06
5.77672e-08
7.54938e-08
3.43935e-06
-6.22643e-15
5.11377e-07
4.17005e-06
5.78927e-08
-1.65615e-07
-7.66918e-08
1.66303e-06
6.96582e-06
-8.71796e-08
6.29334e-06
8.94627e-08
5.88706e-06
-1.90087e-08
5.31597e-06
1.39601e-07
4.66993e-06
1.60159e-07
4.75518e-06
1.60937e-07
3.61981e-06
3.25336e-07
4.2342e-06
1.26489e-07
1.48826e-06
6.08655e-06
-2.10219e-08
6.59692e-06
-5.44058e-08
6.12463e-06
1.04184e-07
7.32159e-07
7.14867e-06
-4.94697e-07
-7.48684e-07
1.3468e-06
3.20736e-06
5.25932e-06
7.60173e-08
2.27296e-08
5.28955e-06
7.76938e-08
-5.67836e-08
5.18538e-06
1.00442e-07
-6.54035e-09
5.29957e-06
-4.15179e-08
-7.24329e-08
5.02587e-06
2.33013e-07
2.21341e-08
5.67383e-06
-4.12956e-07
-2.47472e-07
5.07534e-06
6.97961e-07
1.06655e-07
6.4441e-06
-1.34351e-06
-5.39913e-07
3.14338e-06
3.89174e-07
7.19067e-06
4.00259e-08
-8.93045e-09
7.32205e-06
1.568e-09
-4.36343e-08
7.58311e-06
-1.64098e-08
-8.6245e-08
7.90302e-06
-1.34801e-07
-1.81842e-07
8.42834e-06
9.46679e-11
-8.97359e-08
8.80835e-06
-4.348e-07
-2.82672e-07
9.86335e-06
1.90352e-07
-3.60075e-08
9.66883e-06
-9.0173e-07
-4.12881e-07
1.36249e-06
9.45159e-07
9.44286e-06
-5.42155e-08
9.482e-06
5.18895e-08
9.53289e-06
-8.63074e-08
9.53441e-06
3.27844e-09
9.84106e-06
-1.46388e-07
9.63406e-06
-6.68695e-08
1.05176e-05
-3.67832e-07
9.69803e-06
4.43166e-08
-1.38199e-09
9.87657e-06
-8.70419e-07
9.32182e-06
3.31449e-07
-1.646e-06
7.81582e-06
-1.91288e-08
7.61443e-06
-1.37848e-08
7.36314e-06
-4.43916e-08
7.15701e-06
-6.07398e-08
6.79777e-06
-8.35169e-08
6.48459e-06
-8.18092e-08
5.78562e-06
-6.47937e-08
5.67183e-06
-9.46739e-08
-1.11654e-07
9.18749e-06
-3.18817e-08
9.16544e-06
-3.5368e-08
9.09563e-06
-6.08256e-08
8.92024e-06
-6.71929e-08
8.88581e-06
-1.38822e-07
8.53379e-06
-1.2461e-08
8.67554e-06
-2.42548e-07
8.07546e-06
9.25213e-08
-8.30973e-07
1.03119e-05
1.03284e-05
1.01813e-05
1.01174e-05
9.83216e-06
9.75283e-06
9.14245e-06
9.27929e-06
)
;

boundaryField
{
    inlet
    {
        type            calculated;
        value           nonuniform 0();
    }
    outlet
    {
        type            calculated;
        value           nonuniform List<scalar> 
16
(
1.56621e-06
4.79211e-06
9.04206e-06
9.21831e-06
2.65112e-06
5.42159e-06
1.5062e-06
1.16577e-06
4.36297e-06
4.60041e-06
1.21676e-05
1.25502e-05
1.24888e-05
4.52666e-06
9.73994e-06
8.44694e-06
)
;
    }
    wall
    {
        type            calculated;
        value           nonuniform List<scalar> 
66
(
0
0
0
0
0
0
0
7.70372e-34
0
1.54074e-33
0
0
0
0
0
0
0
0
0
0
0
0
0
0
0
0
0
0
0
0
0
0
0
0
0
0
0
1.92593e-34
0
0
0
-1.54074e-33
0
0
0
0
0
3.15544e-30
0
0
0
0
0
0
0
0
1.54074e-33
0
0
0
0
0
0
0
0
0
)
;
    }
    procBoundary7to0
    {
        type            processor;
        value           uniform -5.88132e-06;
    }
    procBoundary7to1
    {
        type            processor;
        value           uniform -4.32346e-08;
    }
    procBoundary7to3
    {
        type            processor;
        value           nonuniform List<scalar> 
36
(
1.96038e-07
6.35451e-08
2.2455e-07
-2.11648e-08
2.93203e-07
-3.40159e-07
5.00369e-07
-1.22198e-06
2.02303e-06
2.22947e-09
-5.72178e-08
-6.45149e-13
-1.58824e-07
1.36557e-08
-5.08513e-07
5.49667e-08
-7.71409e-07
-3.45677e-08
1.39992e-07
6.67266e-08
2.13455e-07
4.19311e-08
3.92161e-07
-1.23514e-07
8.74739e-07
-8.1567e-07
2.20654e-06
3.5123e-07
2.64691e-07
4.43887e-07
1.38767e-07
6.86952e-07
-1.81806e-07
1.14663e-06
-9.04123e-07
2.55067e-06
)
;
    }
    procBoundary7to5
    {
        type            processor;
        value           nonuniform List<scalar> 
44
(
-1.67106e-07
-5.9196e-08
-1.38262e-07
-2.39603e-08
-7.62118e-08
-1.08508e-08
5.27112e-07
-3.17954e-07
-6.15913e-08
-2.23493e-08
3.71686e-13
1.89001e-08
1.82057e-08
-1.09208e-08
1.86836e-07
-7.1666e-07
7.98844e-07
1.06397e-12
-5.18763e-06
9.74127e-08
4.59488e-08
7.74349e-08
1.86001e-08
-1.68944e-07
6.97146e-08
-9.74642e-08
5.88461e-07
1.60182e-08
-6.42113e-08
1.02638e-08
-6.16019e-06
4.12661e-09
2.06449e-07
-1.60862e-07
8.98988e-07
-5.2538e-07
1.68638e-06
1.90505e-07
1.58393e-07
2.89147e-07
1.94437e-07
4.64888e-07
-9.17298e-06
1.4752e-07
)
;
    }
    procBoundary7to6
    {
        type            processor;
        value           nonuniform List<scalar> 
12
(
-5.40459e-06
-7.67923e-06
-9.63169e-06
-4.92582e-06
-5.28449e-06
-7.25679e-06
-5.36668e-06
-7.11394e-06
-9.4358e-06
-7.96447e-06
-9.18367e-06
-1.0398e-05
)
;
    }
}


// ************************************************************************* //
