/*--------------------------------*- C++ -*----------------------------------*\
| =========                 |                                                 |
| \\      /  F ield         | OpenFOAM: The Open Source CFD Toolbox           |
|  \\    /   O peration     | Version:  4.x                                   |
|   \\  /    A nd           | Web:      www.OpenFOAM.org                      |
|    \\/     M anipulation  |                                                 |
\*---------------------------------------------------------------------------*/
FoamFile
{
    version     2.0;
    format      ascii;
    class       volVectorField;
    location    "60";
    object      U;
}
// * * * * * * * * * * * * * * * * * * * * * * * * * * * * * * * * * * * * * //

dimensions      [0 1 -1 0 0 0 0];

internalField   nonuniform List<vector> 
132
(
(0.00203869 0.000236168 -0.000341425)
(0.0292001 0.000395232 -0.000132059)
(0.00143274 0.000322382 -0.000400614)
(0.0292048 0.00057566 -4.17238e-05)
(0.000398573 0.000127493 -0.000163513)
(0.0288069 0.000781443 0.000744498)
(0.00011883 5.27955e-05 -6.65594e-05)
(0.0247133 -0.00134223 0.00307187)
(0.00334842 0.00138812 -0.00187215)
(0.000117194 1.50232e-05 -1.52143e-05)
(0.0286723 0.000224104 -0.000144573)
(1.01848e-08 1.73499e-09 -1.65234e-09)
(0.0280052 4.69601e-05 0.000232476)
(0.000696946 0.000217826 -8.25695e-05)
(0.0269622 -0.000682986 0.000967484)
(0.00416177 0.00222221 -0.000312971)
(0.0241535 -0.00298578 0.00158814)
(0.00951804 0.0103818 0.00071803)
(0.00925123 0.000920116 -0.000726472)
(0.032595 0.000500442 -0.000305389)
(0.00919634 0.00128696 -0.00118193)
(0.0341891 -5.96665e-05 -0.000552796)
(0.00896021 0.00220337 -0.0019789)
(0.0364474 -0.00194539 -0.000470452)
(0.00812768 0.00395281 -0.00328419)
(0.0390851 -0.00567068 0.00133794)
(0.00574141 0.00923151 -0.00519792)
(0.0164047 -0.000528131 -0.00126471)
(0.035473 -0.000363038 -0.00118985)
(0.0160955 -0.000737052 -0.00174319)
(0.0366861 -0.000561645 -0.000920463)
(0.0147831 -0.000913208 -0.00267701)
(0.0381414 -0.000550162 0.000220571)
(0.011404 -0.000955987 -0.0044894)
(0.0401913 0.000127358 0.0022915)
(0.00591548 -0.000532395 -0.00871807)
(9.78771e-09 -2.16446e-09 4.66199e-10)
(0.0277258 -0.000340926 0.000550956)
(8.78948e-09 -2.34941e-09 8.27113e-10)
(0.0273169 -0.00010728 0.000832274)
(8.6373e-09 -2.32918e-09 1.47335e-09)
(0.024432 0.00205192 0.000700783)
(0.00543056 -0.00119045 0.00144411)
(9.75205e-09 6.93922e-12 -5.86931e-10)
(0.026769 -0.000215304 -1.47295e-05)
(9.4407e-09 3.35155e-10 -7.0033e-10)
(0.0272036 -9.59652e-05 -5.86673e-05)
(9.38694e-09 2.32649e-10 -6.53024e-10)
(0.0276478 0.000557564 0.000101644)
(9.96654e-09 5.1169e-11 -2.55369e-10)
(0.0273069 0.0011378 0.00052863)
(0.00358772 -0.000635051 1.94014e-05)
(1.07077e-08 1.31612e-09 -1.39672e-09)
(0.0279172 -0.000751142 -2.83216e-05)
(9.89907e-09 1.86188e-09 -1.42827e-09)
(0.0268979 -0.000591681 0.00037685)
(9.42163e-09 2.00119e-09 -1.49733e-09)
(0.0246145 0.000264122 0.000870611)
(8.66967e-09 1.23172e-09 -4.6633e-10)
(0.0190048 -0.000224031 0.00121779)
(0.00320342 -0.00048245 0.000401717)
(0.00789135 -0.00012242 -0.000671179)
(0.0298208 -0.000957785 -0.00031024)
(0.00365621 -8.4981e-05 -0.000507224)
(0.028465 -0.000930753 6.31824e-05)
(1.03034e-08 6.63214e-11 -1.85662e-09)
(0.0255143 6.04197e-05 0.000823809)
(9.18479e-09 -3.60942e-11 -1.7023e-09)
(0.0199113 0.000544816 0.00148095)
(0.00253259 4.93559e-05 0.000550289)
(0.00248686 -0.000110358 0.00072584)
(0.0311043 0.000374076 -0.00012594)
(0.0043227 -0.0001666 0.00243599)
(0.0296092 -3.65561e-05 -0.00247364)
(0.00874429 -0.000337216 0.0117187)
(0.000318033 -2.37392e-06 3.89919e-05)
(0.0284608 0.000188007 -5.89526e-05)
(9.99083e-09 9.08226e-11 1.72651e-09)
(0.0282713 -0.000130765 8.08262e-05)
(5.58772e-05 4.17485e-06 1.21423e-05)
(0.0277208 -0.000684568 0.000127522)
(0.00272797 0.000778059 0.000570112)
(0.0255703 -0.00276968 -0.000649254)
(0.0091605 0.00793665 0.00189823)
(0.00759134 0.000417725 0.000174402)
(0.0314778 0.000243111 9.18174e-05)
(0.00768385 0.000555884 0.000319554)
(0.0337695 -0.000100996 -0.000129392)
(0.00864907 0.00128864 0.00112827)
(0.0377849 -0.00162666 -0.000442896)
(0.00975439 0.00311526 0.00285674)
(0.0446296 -0.00476041 -0.00213137)
(0.00742403 0.00961644 0.00882426)
(0.0164577 -0.000193719 0.000189195)
(0.0343966 -0.000232669 0.000800111)
(0.0161858 -0.00064047 0.000396498)
(0.0356338 -0.000647125 0.000709632)
(0.015422 -0.00126927 0.000884965)
(0.0382106 -0.000805986 7.55301e-05)
(0.0134205 -0.00201723 0.001807)
(0.0442301 -0.000303037 -0.000756775)
(0.00766968 -0.00193115 0.00759582)
(0.0118385 -0.00376233 0.00166695)
(0.0423326 0.00140878 -0.00171263)
(0.00760925 -0.00765745 0.00616372)
(0.0110424 -0.000381106 8.85219e-05)
(0.0312558 -0.000290082 -0.00025458)
(0.00939616 -0.000578038 -3.64791e-05)
(0.030927 -0.000376828 -0.000483788)
(0.00745919 -0.000826807 0.000112739)
(0.0296529 -0.000344179 -0.00149335)
(0.00485217 -0.0010744 3.13085e-05)
(0.0270849 0.000429236 -0.00236671)
(0.00316425 -0.00145771 0.000278048)
(0.0156627 0.000271126 -0.000221414)
(0.0338653 0.000212287 -0.000331272)
(0.0149769 0.000322778 -0.000790943)
(0.0344425 3.75316e-05 -0.000878896)
(0.0133075 0.000353041 -0.00161169)
(0.0352812 -0.000106572 -0.00113395)
(0.0104778 0.000694817 -0.00304241)
(0.0371294 -0.000942739 -0.000189067)
(0.00604014 0.000794488 -0.00346581)
(0.0198117 -0.000442939 -0.000484449)
(0.0356943 -0.000407115 -0.00051251)
(0.019355 -0.000654176 -0.000867001)
(0.0356734 -0.000408455 -0.000686773)
(0.0183392 -0.00111776 -0.00168935)
(0.0352321 3.48135e-05 -0.000448498)
(0.0170243 -0.00203435 -0.00382739)
(0.0328583 0.00144219 0.000988673)
(0.0164159 -0.00531302 -0.00749214)
)
;

boundaryField
{
    inlet
    {
        type            fixedValue;
        value           nonuniform 0();
    }
    outlet
    {
        type            zeroGradient;
    }
    wall
    {
        type            fixedValue;
        value           uniform (0 0 0);
    }
    procBoundary7to0
    {
        type            processor;
        value           uniform (0.0286113 -3.0854e-05 -0.000429074);
    }
    procBoundary7to1
    {
        type            processor;
        value           uniform (1.00757e-08 -4.85707e-10 -9.35259e-10);
    }
    procBoundary7to3
    {
        type            processor;
        value           nonuniform List<vector> 
36
(
(0.00389692 -0.000366092 -0.000730982)
(0.0304269 -0.000245471 -0.000216897)
(0.00321431 -0.000474496 -0.000833842)
(0.0309275 -0.000557929 0.000158644)
(0.00344894 -0.000928205 -0.00144502)
(0.0306669 -0.000694672 0.00114025)
(0.00421463 -0.0017315 -0.00269952)
(0.0280981 0.00112787 0.00368553)
(0.00788328 -0.00427156 -0.00927992)
(1.01086e-08 -9.47698e-10 -1.30699e-09)
(0.0272333 -0.000223437 0.000452943)
(9.42333e-09 -7.99325e-10 -1.4098e-09)
(0.0269608 3.39147e-05 0.000632224)
(8.70681e-09 -1.29098e-09 -1.66305e-09)
(0.02644 0.00088189 0.0018326)
(9.09431e-09 -7.59117e-10 -1.51708e-09)
(0.0227897 0.00124611 0.00268119)
(0.00382642 -0.000195775 -0.000524816)
(0.000793102 7.70257e-05 -4.17389e-05)
(0.0297877 -0.00023238 -6.23682e-05)
(1.03425e-08 1.71382e-09 -7.44523e-10)
(0.0302241 -0.000318012 0.000317316)
(0.0011432 0.0003445 -0.000216283)
(0.0310732 -0.00028771 0.00114788)
(0.00476397 0.00255765 -0.00161)
(0.0298617 -0.00220736 0.00318349)
(0.00996798 0.0110954 -0.00704637)
(0.0138321 -0.000109371 -0.00064735)
(0.0333749 -0.000356958 -0.000255863)
(0.0125699 -0.000389026 -0.000697823)
(0.0339006 -0.00102467 0.000155503)
(0.0106292 -0.000238142 -0.00111577)
(0.035162 -0.00126013 0.00077906)
(0.0084533 0.000366153 -0.00188207)
(0.0398855 -0.001047 0.00270312)
(0.00601253 0.00352238 -0.00532178)
)
;
    }
    procBoundary7to5
    {
        type            processor;
        value           nonuniform List<vector> 
44
(
(0.0258387 0.000526581 4.93698e-05)
(9.5096e-09 -5.4988e-10 -1.11189e-09)
(0.0254539 0.000191158 0.000169593)
(9.32636e-09 -3.19041e-10 -1.79072e-09)
(0.0246296 -0.000342372 0.000724852)
(1.00567e-08 3.2541e-10 -2.02143e-09)
(0.0214199 -0.00156265 0.00134344)
(0.00686633 0.000354556 -0.000975826)
(1.05103e-08 -1.73801e-09 9.71438e-11)
(0.0276651 -0.000323153 7.8295e-06)
(1.02125e-08 -2.39801e-09 2.08886e-09)
(0.0287602 0.000234459 0.000291965)
(0.000323888 -0.000104307 9.50312e-05)
(0.0292126 0.000169834 0.000484965)
(0.00229611 -0.00105102 0.000899365)
(0.0275902 0.00197402 -0.000780806)
(0.00612911 -0.0032665 0.00242365)
(1.05103e-08 -1.73801e-09 9.71438e-11)
(0.0276651 -0.000323153 7.8295e-06)
(0.0276651 -0.000323153 7.8295e-06)
(0.00162017 -5.39562e-05 0.000255266)
(0.0306371 0.000109084 -0.000119634)
(9.86463e-09 -7.39241e-10 1.55202e-09)
(0.0270955 0.00057893 -0.000380506)
(0.00173986 -0.000247836 0.000595614)
(0.0243276 0.000602681 -0.0017503)
(0.00816448 -0.00300542 0.00798548)
(0.00231609 -8.15865e-05 0.000186165)
(0.0298939 0.000170416 1.42407e-05)
(0.00162017 -5.39562e-05 0.000255266)
(0.0306371 0.000109084 -0.000119634)
(0.0306371 0.000109084 -0.000119634)
(0.0131298 -0.0017719 0.00043445)
(0.0376345 -0.000482357 -0.000774297)
(0.0123392 -0.00127266 0.00343959)
(0.0425171 0.00153701 -0.00387724)
(0.00751603 -0.00176184 0.00836904)
(0.0143951 -0.000666051 0.000174881)
(0.0339335 -0.000584675 0.000158697)
(0.0140662 -0.00102857 0.000135627)
(0.0353442 -0.000707694 -0.000424839)
(0.0131298 -0.0017719 0.00043445)
(0.0376345 -0.000482357 -0.000774297)
(0.0376345 -0.000482357 -0.000774297)
)
;
    }
    procBoundary7to6
    {
        type            processor;
        value           nonuniform List<vector> 
12
(
(0.0282699 0.000604222 -0.000251692)
(0.0311061 0.000960907 -0.00034637)
(0.0339816 -0.000131193 -0.000984166)
(0.0262864 -0.000360561 -0.000159787)
(0.0281267 -0.000522083 -0.00035476)
(0.0304491 -0.00026044 -0.000451986)
(0.0282193 0.000125555 -6.85363e-05)
(0.0302238 0.00082682 0.000513868)
(0.0333555 0.000122647 0.000663401)
(0.031084 -0.000310536 0.000430829)
(0.0331011 0.0003166 5.50111e-05)
(0.0350878 -0.000172021 -0.000246758)
)
;
    }
}


// ************************************************************************* //
