/*--------------------------------*- C++ -*----------------------------------*\
| =========                 |                                                 |
| \\      /  F ield         | OpenFOAM: The Open Source CFD Toolbox           |
|  \\    /   O peration     | Version:  4.x                                   |
|   \\  /    A nd           | Web:      www.OpenFOAM.org                      |
|    \\/     M anipulation  |                                                 |
\*---------------------------------------------------------------------------*/
FoamFile
{
    version     2.0;
    format      ascii;
    class       volScalarField;
    location    "19";
    object      KslNext;
}
// * * * * * * * * * * * * * * * * * * * * * * * * * * * * * * * * * * * * * //

dimensions      [1 -3 -1 0 0 0 0];

internalField   nonuniform List<scalar> 
108
(
3448.01
7588.31
3466.95
7409.93
3465.38
7302.81
3425.46
7361.98
3345.24
3547.59
9459.29
3765.86
12730.2
3860.46
16963.6
3874.48
24796.8
3855.83
3586.35
10186.4
3864.95
14753.2
3948.52
21142.5
3953.25
40116
3936.89
3571.76
10082.9
3886.22
14719.3
3987.61
24415.8
4027.02
56784
3980.26
3433.71
7272.29
3400.26
6839.71
3371.28
6414.21
3269.61
6237.83
3180.62
3513.6
8625.4
3636.4
10127
3707.46
12283.8
3726.48
15984.2
3718.47
3544.05
9254.29
3766.75
12076.8
3837.95
15520.8
3790.45
19086.1
3705.57
3575.9
9763.05
3824.27
13613.8
3933.88
19781.6
3944.09
30764.2
3888.04
3379.71
6632.69
3220.62
5744.68
3149.01
5368.18
3074.55
5099.72
2954.54
3432.74
7349.41
3420
6791.4
3353.4
6441.31
3271.71
6207.85
3179.54
3488.24
7802.61
3519.64
7755.65
3489.18
7641.22
3398.25
7393.39
3301.03
3528.19
8289.12
3602.27
9182.46
3621.12
9645.62
3543.76
9331.75
3470.55
)
;

boundaryField
{
    inlet
    {
        type            zeroGradient;
    }
    outlet
    {
        type            zeroGradient;
    }
    wall
    {
        type            zeroGradient;
    }
    procBoundary4to0
    {
        type            processor;
        value           uniform 0;
    }
    procBoundary4to5
    {
        type            processor;
        value           uniform 0;
    }
    procBoundary4to6
    {
        type            processor;
        value           uniform 0;
    }
}


// ************************************************************************* //
