/*--------------------------------*- C++ -*----------------------------------*\
| =========                 |                                                 |
| \\      /  F ield         | OpenFOAM: The Open Source CFD Toolbox           |
|  \\    /   O peration     | Version:  4.x                                   |
|   \\  /    A nd           | Web:      www.OpenFOAM.org                      |
|    \\/     M anipulation  |                                                 |
\*---------------------------------------------------------------------------*/
FoamFile
{
    version     2.0;
    format      ascii;
    class       volScalarField;
    location    "19";
    object      magGField;
}
// * * * * * * * * * * * * * * * * * * * * * * * * * * * * * * * * * * * * * //

dimensions      [1 -2 -1 0 0 0 0];

internalField   nonuniform List<scalar> 
108
(
94.0055
42.728
94.9589
44.5483
96.124
45.1964
96.7816
44.291
97.1515
92.2579
34.9451
89.2536
26.2295
86.9404
19.5625
86.114
13.2091
85.135
91.9369
32.6818
87.2306
22.5937
84.7965
15.6129
83.6267
8.0822
82.6138
91.9964
33.0152
86.6006
22.6109
83.5926
13.4558
81.6166
5.6838
81.1327
93.6415
44.3556
95.8331
47.6289
97.7859
50.807
100.284
51.7919
101.592
92.9049
37.9365
91.3447
32.5701
89.6291
26.6787
88.2654
20.2756
87.526
92.1998
35.5224
88.4787
27.2831
86.3348
21.0186
86.1164
16.8243
87.0698
91.0897
33.6872
86.9123
24.1026
83.8029
16.4184
82.3542
10.3611
82.1241
94.2171
47.7402
99.3922
55.4919
102.597
59.5053
104.691
62.5719
108.07
93.5007
43.5538
95.2297
47.6387
97.2564
49.9947
98.6419
51.4994
100.29
92.3113
41.1609
92.37
41.5421
93.3297
41.9951
94.491
42.8698
95.9611
91.2039
38.7919
90.433
35.0652
89.4947
32.998
90.1057
33.8401
90.7714
)
;

boundaryField
{
    inlet
    {
        type            calculated;
        value           uniform 67;
    }
    outlet
    {
        type            calculated;
        value           nonuniform 0();
    }
    wall
    {
        type            calculated;
        value           uniform 0;
    }
    procBoundary4to0
    {
        type            processor;
        value           nonuniform List<scalar> 
36
(
94.5919
43.5715
97.0351
47.3411
99.381
49.4944
101.793
51.5797
104.635
93.5597
35.9503
91.6008
30.9871
90.5471
26.7187
89.9858
21.9669
90.6636
92.5795
34.8857
89.4216
26.9305
87.5383
20.8057
87.0203
16.8623
87.2293
92.3736
33.5817
87.9719
23.6462
86.0556
16.9713
84.9598
11.8096
84.3537
)
;
    }
    procBoundary4to5
    {
        type            processor;
        value           nonuniform List<scalar> 
12
(
42.0857
5.70341
0.964321
0.000254025
51.9072
16.979
15.2374
6.34547
66.1604
52.8927
43.5412
34.9193
)
;
    }
    procBoundary4to6
    {
        type            processor;
        value           nonuniform List<scalar> 
27
(
90.0084
29.988
85.4467
16.8447
81.9837
6.24713
80.4271
0.000171807
78.634
90.2599
34.3744
87.2752
26.6328
85.7699
20.6907
84.9526
15.1116
84.8476
92.4019
41.3184
91.9695
38.973
91.0685
36.315
90.2143
33.4765
91.0922
)
;
    }
}


// ************************************************************************* //
