/*--------------------------------*- C++ -*----------------------------------*\
| =========                 |                                                 |
| \\      /  F ield         | OpenFOAM: The Open Source CFD Toolbox           |
|  \\    /   O peration     | Version:  4.x                                   |
|   \\  /    A nd           | Web:      www.OpenFOAM.org                      |
|    \\/     M anipulation  |                                                 |
\*---------------------------------------------------------------------------*/
FoamFile
{
    version     2.0;
    format      ascii;
    class       volScalarField;
    location    "19";
    object      p_rgh;
}
// * * * * * * * * * * * * * * * * * * * * * * * * * * * * * * * * * * * * * //

dimensions      [1 -1 -2 0 0 0 0];

internalField   nonuniform List<scalar> 
108
(
109.927
92.8773
102.631
75.7597
95.1085
58.312
87.5399
40.4981
80.0354
110.631
93.2392
103.308
76.052
95.622
58.4507
87.9277
40.6964
80.3491
110.991
93.4692
103.548
76.2595
95.7434
58.7233
88.0083
41.1138
80.2364
111.187
93.826
103.862
76.6222
96.0898
59.1194
88.1899
41.3888
80.3378
109.915
92.936
102.57
75.8638
94.9114
58.2969
87.3442
40.5946
79.7644
110.574
93.2834
103.179
76.1595
95.5065
58.6126
87.8177
40.8301
80.0041
110.853
93.526
103.364
76.2458
95.5215
58.5926
87.6697
40.7841
79.933
111.358
93.7769
103.808
76.6555
95.9025
59.0746
87.9865
41.3059
80.1688
109.812
92.8561
102.432
75.9723
94.9043
58.5005
87.2366
40.6838
79.6476
110.382
93.1751
102.865
76.1196
95.2419
58.626
87.5144
40.9245
79.9047
110.691
93.356
103.098
76.1552
95.3275
58.6443
87.5494
40.9234
79.9271
111.166
93.5861
103.564
76.5154
95.6752
58.8727
87.7153
41.3203
80.0424
)
;

boundaryField
{
    inlet
    {
        type            fixedFluxPressure;
        gradient        nonuniform List<scalar> 
12
(
0.00805667
0.0087444
0.00980833
0.0103603
0.0186897
0.0178068
0.0182347
0.0181067
0.0352866
0.0305271
0.0343047
0.0230847
)
;
        value           nonuniform List<scalar> 
12
(
109.927
110.631
110.991
111.187
109.916
110.575
110.853
111.358
109.813
110.382
110.691
111.166
)
;
    }
    outlet
    {
        type            fixedValue;
        value           nonuniform 0();
    }
    wall
    {
        type            fixedFluxPressure;
        gradient        nonuniform List<scalar> 
63
(
-1.96257e-06
-2.38618e-05
-4.65424e-06
-6.3864e-06
-5.26471e-06
-2.31833e-05
-3.47002e-05
-1.67565e-05
-3.41647e-06
2.46998e-06
1.77708e-06
9.92574e-06
-8.81249e-06
1.10391e-05
8.48505e-06
1.30093e-05
1.25585e-06
6.3317e-06
9.23528e-06
1.90691e-05
1.48624e-05
1.07309e-05
2.17061e-06
7.05191e-05
1.07258e-05
7.19862e-06
5.04624e-06
-1.37994e-05
2.64295e-06
-1.87426e-05
-4.08255e-05
-5.41581e-05
5.12435e-06
-6.41501e-06
-4.04322e-05
-3.76749e-05
2.12038e-06
-2.01525e-06
1.80121e-06
-2.38755e-06
1.16775e-05
7.4555e-06
3.49297e-05
8.61091e-06
1.15462e-05
7.81998e-05
4.45369e-05
2.17353e-05
7.20003e-05
3.07863e-05
1.45897e-05
0.000107829
5.47706e-05
2.85272e-05
4.53747e-05
2.5409e-05
1.36088e-05
3.99677e-05
7.22006e-05
2.00881e-05
-3.15186e-05
7.00192e-06
4.20571e-06
)
;
        value           nonuniform List<scalar> 
63
(
109.812
110.382
110.691
111.166
92.8561
93.1751
93.356
93.5861
102.432
102.865
103.098
103.564
75.9723
76.1196
76.1552
76.5154
94.9043
95.2419
95.3275
95.6752
58.5005
58.626
58.6443
58.8727
87.2366
87.5144
87.5494
87.7153
40.6838
40.9245
40.9234
41.3203
79.6476
79.9047
79.9271
80.0424
109.927
109.915
109.812
92.8773
92.936
92.8561
102.631
102.57
102.432
75.7597
75.8638
75.9723
95.1085
94.9114
94.9043
58.312
58.2969
58.5005
87.5399
87.3442
87.2366
40.4981
40.5947
40.6838
80.0354
79.7644
79.6476
)
;
    }
    procBoundary4to0
    {
        type            processor;
        value           nonuniform List<scalar> 
36
(
109.19
92.3398
102.018
75.341
94.6735
57.8136
87.0575
39.8424
79.6883
109.91
92.7363
102.635
75.5585
95.1497
58.014
87.5097
39.9154
79.986
110.188
92.9536
102.851
75.7412
95.2366
58.1264
87.4807
40.2786
80.0994
110.674
93.3264
103.309
75.9834
95.522
58.4872
87.7091
40.7148
80.3352
)
;
    }
    procBoundary4to5
    {
        type            processor;
        value           nonuniform List<scalar> 
12
(
22.2921
22.628
23.5844
24.0361
22.1978
22.5624
22.6851
23.8068
22.5058
22.8634
23.0676
23.7032
)
;
    }
    procBoundary4to6
    {
        type            processor;
        value           nonuniform List<scalar> 
27
(
111.624
93.5787
103.86
76.4883
95.9555
58.8867
87.9651
41.3329
79.9192
111.255
93.5448
103.494
76.342
95.6014
58.9376
87.7879
41.2164
80.127
110.9
93.4851
103.355
76.3821
95.5499
58.9506
87.7496
41.1936
80.0859
)
;
    }
}


// ************************************************************************* //
