/*--------------------------------*- C++ -*----------------------------------*\
| =========                 |                                                 |
| \\      /  F ield         | OpenFOAM: The Open Source CFD Toolbox           |
|  \\    /   O peration     | Version:  4.x                                   |
|   \\  /    A nd           | Web:      www.OpenFOAM.org                      |
|    \\/     M anipulation  |                                                 |
\*---------------------------------------------------------------------------*/
FoamFile
{
    version     2.0;
    format      ascii;
    class       volScalarField;
    location    "19";
    object      pSmooth;
}
// * * * * * * * * * * * * * * * * * * * * * * * * * * * * * * * * * * * * * //

dimensions      [1 -1 -2 0 0 0 0];

internalField   nonuniform List<scalar> 
108
(
111.201
94.6269
103.973
77.7754
96.3771
60.4764
88.6228
42.6175
80.6923
111.871
94.9632
104.608
78.0456
96.8349
60.5966
88.9569
42.8228
81.0601
112.203
95.1434
104.787
78.1945
96.9046
60.802
89.0037
43.1467
80.9968
112.422
95.4428
105.037
78.5109
97.1997
61.1594
89.1242
43.3932
81.152
111.115
94.6205
103.875
77.8374
96.178
60.4153
88.4127
42.6414
80.4574
111.759
94.9553
104.481
78.1156
96.7397
60.6975
88.8484
42.8558
80.6667
112.003
95.157
104.612
78.1633
96.7115
60.6498
88.6755
42.7914
80.5947
112.471
95.3609
104.984
78.5316
97.0246
61.0907
88.9035
43.3028
80.8176
110.982
94.5158
103.719
77.9339
96.154
60.5959
88.2995
42.6686
80.3631
111.527
94.817
104.129
78.0625
96.4645
60.7128
88.5216
42.9375
80.5879
111.8
94.963
104.332
78.0669
96.5293
60.7049
88.5163
42.8964
80.5927
112.254
95.1642
104.776
78.4041
96.8242
60.9117
88.6211
43.2941
80.6521
)
;

boundaryField
{
    inlet
    {
        type            zeroGradient;
    }
    outlet
    {
        type            fixedValue;
        value           nonuniform 0();
    }
    wall
    {
        type            zeroGradient;
    }
    procBoundary4to0
    {
        type            processor;
        value           nonuniform List<scalar> 
36
(
110.63
94.2266
103.456
77.3936
95.9613
60.0019
88.2025
42.0803
80.3449
111.291
94.5768
104.033
77.5904
96.4125
60.1986
88.6548
42.193
80.7046
111.481
94.7047
104.171
77.7069
96.4595
60.2323
88.5685
42.3816
80.7591
111.868
94.9884
104.536
77.9192
96.6946
60.5879
88.7258
42.7996
80.968
)
;
    }
    procBoundary4to5
    {
        type            processor;
        value           nonuniform List<scalar> 
12
(
23.976
24.3444
25.2216
25.7293
23.9198
24.2746
24.4123
25.5497
24.242
24.597
24.761
25.4027
)
;
    }
    procBoundary4to6
    {
        type            processor;
        value           nonuniform List<scalar> 
27
(
112.53
95.0983
105.006
78.3527
97.0851
60.9024
88.8736
43.2775
80.6227
112.274
95.0711
104.65
78.1927
96.7244
60.9282
88.7301
43.1861
80.7682
111.962
95.0254
104.544
78.2411
96.6775
60.9661
88.6292
43.1501
80.7085
)
;
    }
}


// ************************************************************************* //
