/*--------------------------------*- C++ -*----------------------------------*\
| =========                 |                                                 |
| \\      /  F ield         | OpenFOAM: The Open Source CFD Toolbox           |
|  \\    /   O peration     | Version:  4.x                                   |
|   \\  /    A nd           | Web:      www.OpenFOAM.org                      |
|    \\/     M anipulation  |                                                 |
\*---------------------------------------------------------------------------*/
FoamFile
{
    version     2.0;
    format      ascii;
    class       volScalarField;
    location    "19";
    object      Sm;
}
// * * * * * * * * * * * * * * * * * * * * * * * * * * * * * * * * * * * * * //

dimensions      [1 -3 -1 0 0 0 0];

internalField   nonuniform List<scalar> 
108
(
5.19255e-65
7.36252e-65
7.51746e-65
5.57991e-65
5.96733e-65
5.65728e-65
7.59461e-65
6.74206e-65
8.91188e-65
7.75006e-65
6.355e-65
7.3624e-65
8.60229e-65
8.21466e-65
7.5171e-65
6.35457e-65
5.42454e-65
9.06666e-65
6.97504e-65
8.75747e-65
6.66489e-65
8.44724e-65
6.66466e-65
5.9671e-65
6.12198e-65
9.68656e-65
5.6569e-65
4.34002e-65
5.73498e-65
7.59486e-65
5.19232e-65
7.3621e-65
6.35455e-65
9.22167e-65
5.9669e-65
5.96683e-65
5.34755e-65
5.11502e-65
7.05248e-65
7.67241e-65
6.97487e-65
5.26985e-65
4.49484e-65
6.97463e-65
8.21455e-65
5.65754e-65
6.51001e-65
5.81245e-65
6.43237e-65
5.96732e-65
5.96724e-65
6.66464e-65
7.9045e-65
8.1369e-65
4.41754e-65
6.2775e-65
7.8274e-65
7.20733e-65
7.67219e-65
7.28459e-65
6.66454e-65
6.66446e-65
6.8194e-65
6.66505e-65
7.20749e-65
5.9674e-65
8.52477e-65
8.44712e-65
6.74211e-65
9.60928e-65
7.90433e-65
6.81938e-65
4.96005e-65
6.66504e-65
4.4175e-65
6.74246e-65
5.73493e-65
8.05984e-65
7.20732e-65
6.27728e-65
7.20725e-65
5.34755e-65
8.75754e-65
5.81247e-65
5.50244e-65
6.19988e-65
7.20728e-65
6.35477e-65
5.65722e-65
7.59456e-65
5.42505e-65
7.36251e-65
7.43994e-65
7.36236e-65
5.65736e-65
6.5872e-65
6.43219e-65
7.51703e-65
6.27709e-65
7.44006e-65
7.05252e-65
5.81246e-65
7.67233e-65
6.97477e-65
9.22207e-65
4.49476e-65
4.88218e-65
6.35455e-65
)
;

boundaryField
{
    inlet
    {
        type            calculated;
        value           uniform 0;
    }
    outlet
    {
        type            calculated;
        value           nonuniform 0();
    }
    wall
    {
        type            calculated;
        value           uniform 0;
    }
    procBoundary4to0
    {
        type            processor;
        value           nonuniform List<scalar> 
36
(
4.57255e-65
4.8825e-65
5.73496e-65
5.34738e-65
6.1223e-65
7.43966e-65
4.80474e-65
4.10721e-65
4.95965e-65
5.50254e-65
8.13749e-65
7.2849e-65
6.74231e-65
5.81223e-65
5.96712e-65
8.36936e-65
6.58691e-65
5.50194e-65
4.57252e-65
4.95996e-65
7.28487e-65
5.73478e-65
7.2846e-65
8.05936e-65
6.74186e-65
5.11442e-65
8.05907e-65
5.27003e-65
5.88997e-65
7.82734e-65
9.22214e-65
4.49475e-65
9.14427e-65
7.12928e-65
5.42439e-65
2.32468e-65
)
;
    }
    procBoundary4to5
    {
        type            processor;
        value           nonuniform List<scalar> 
12
(
6.35451e-65
7.05184e-65
8.2141e-65
9.99635e-65
6.66457e-65
5.42457e-65
6.89682e-65
4.80453e-65
2.63491e-65
6.35462e-65
6.12204e-65
7.36194e-65
)
;
    }
    procBoundary4to6
    {
        type            processor;
        value           nonuniform List<scalar> 
27
(
1.03851e-64
7.59497e-65
4.95992e-65
7.43973e-65
9.37697e-65
6.12205e-65
7.36189e-65
6.50936e-65
8.52411e-65
7.67256e-65
7.67248e-65
7.74991e-65
7.67228e-65
5.34727e-65
7.0521e-65
6.27709e-65
5.88953e-65
7.90431e-65
5.03754e-65
5.27002e-65
6.12246e-65
6.89737e-65
6.50983e-65
6.43222e-65
8.67955e-65
8.75695e-65
3.79728e-65
)
;
    }
}


// ************************************************************************* //
