/*--------------------------------*- C++ -*----------------------------------*\
| =========                 |                                                 |
| \\      /  F ield         | OpenFOAM: The Open Source CFD Toolbox           |
|  \\    /   O peration     | Version:  4.x                                   |
|   \\  /    A nd           | Web:      www.OpenFOAM.org                      |
|    \\/     M anipulation  |                                                 |
\*---------------------------------------------------------------------------*/
FoamFile
{
    version     2.0;
    format      ascii;
    class       volVectorField;
    location    "19";
    object      UsNext;
}
// * * * * * * * * * * * * * * * * * * * * * * * * * * * * * * * * * * * * * //

dimensions      [0 1 -1 0 0 0 0];

internalField   nonuniform List<vector> 
108
(
(5.49383e-09 -2.952e-10 -1.27193e-09)
(1.04443e-08 1.49236e-10 -1.91565e-09)
(1.4653e-08 -4.73734e-09 -1.13416e-09)
(1.10525e-08 -4.95897e-09 -2.24221e-09)
(7.26745e-09 -9.73379e-09 -4.22406e-09)
(-5.89721e-10 -6.90695e-09 -5.15767e-09)
(-1.54491e-08 -6.15925e-09 -4.38969e-09)
(-3.07534e-08 -2.51695e-09 -3.11461e-09)
(-2.74726e-08 4.32521e-09 4.23942e-10)
(8.59188e-09 -1.13023e-09 -1.47811e-09)
(1.46678e-08 -3.93084e-09 -2.98966e-09)
(1.70905e-08 -7.15522e-09 -2.83436e-09)
(1.13948e-08 -7.57982e-09 -2.97857e-09)
(8.39179e-10 -1.31172e-08 -3.06096e-09)
(-1.21069e-08 -1.60929e-08 -9.9787e-09)
(-3.45261e-08 -1.30464e-08 -4.58092e-09)
(-4.50654e-08 -3.19913e-09 -7.02869e-09)
(-6.83492e-08 1.44811e-09 -2.65412e-09)
(9.25882e-09 -2.01888e-09 -1.89959e-09)
(1.58588e-08 -4.74482e-09 -3.73334e-09)
(1.50936e-08 -7.87994e-09 -4.6214e-09)
(6.7873e-09 -6.90521e-09 -1.63436e-09)
(-6.19305e-09 -1.22571e-08 -3.83776e-09)
(-2.90697e-08 -1.74037e-08 -8.46379e-09)
(-4.66724e-08 -1.38192e-08 -9.12242e-09)
(-6.30011e-08 -1.00423e-08 -9.84352e-09)
(-7.82445e-08 -4.36283e-09 -1.08024e-08)
(8.53298e-09 -1.99141e-09 -2.00623e-09)
(1.47235e-08 -4.17227e-09 -2.5119e-09)
(1.45529e-08 -5.26799e-09 -2.82713e-09)
(6.34032e-09 -6.39273e-09 -1.66858e-09)
(-1.38393e-08 -1.1069e-08 -3.894e-09)
(-4.3008e-08 -1.52786e-08 -6.90898e-09)
(-5.8857e-08 -1.15604e-08 -1.34069e-08)
(-7.76817e-08 -1.20654e-08 -8.85245e-09)
(-8.57776e-08 -1.28602e-09 -1.10123e-08)
(6.30056e-09 2.81409e-10 -8.63436e-10)
(1.01992e-08 -7.63699e-10 -1.25437e-09)
(1.26602e-08 -1.19053e-09 -2.17175e-10)
(1.10826e-08 -3.03605e-09 -1.17854e-09)
(5.08854e-09 -4.25253e-09 1.1899e-10)
(-2.70357e-09 -3.98214e-09 6.66233e-10)
(-1.02711e-08 -3.61806e-09 -1.0742e-09)
(-2.04492e-08 -5.33103e-09 -2.4817e-09)
(-2.11407e-08 -1.00618e-09 -9.0371e-10)
(8.87254e-09 -9.1861e-10 -1.52441e-09)
(1.40276e-08 -2.8688e-09 -2.53721e-09)
(1.42959e-08 -2.73713e-09 -8.99792e-10)
(1.1633e-08 -5.60971e-09 -9.52753e-10)
(2.17996e-09 -6.04923e-09 -4.06774e-10)
(-6.10215e-09 -9.92229e-09 -5.8374e-10)
(-2.31228e-08 -1.21459e-08 -1.80101e-09)
(-3.02417e-08 -1.15956e-08 -5.7284e-09)
(-4.05348e-08 -3.75612e-10 -3.37217e-09)
(6.77318e-09 -9.50605e-10 -6.32953e-10)
(1.4083e-08 -2.71769e-09 -2.91412e-09)
(1.50695e-08 -3.5964e-09 3.63388e-10)
(1.00684e-08 -4.02571e-09 1.24779e-10)
(2.25758e-09 -6.30741e-09 7.6694e-10)
(-1.52062e-08 -9.20265e-09 -3.07734e-09)
(-3.31856e-08 -1.07026e-08 -4.30915e-09)
(-4.84838e-08 -9.74175e-09 -4.19885e-09)
(-5.81546e-08 -6.92119e-09 -9.32954e-09)
(8.79218e-09 -8.80339e-10 -3.23127e-10)
(1.28084e-08 -2.47506e-09 -1.06525e-09)
(1.28861e-08 -3.21985e-09 -6.48222e-10)
(8.80526e-09 -3.94302e-09 -1.78447e-10)
(-9.93705e-10 -5.16545e-09 1.20348e-09)
(-2.6582e-08 -1.04188e-08 -6.64552e-10)
(-4.00066e-08 -1.64019e-08 -6.58842e-09)
(-5.44786e-08 -1.1936e-08 -7.32596e-09)
(-6.43054e-08 -2.57605e-09 -1.89015e-08)
(5.31885e-09 -2.55559e-10 -2.78453e-10)
(9.12535e-09 -5.32808e-10 -3.76242e-10)
(1.08643e-08 -1.69794e-09 -5.02416e-10)
(6.03465e-09 -1.77022e-09 -7.1773e-10)
(1.80461e-09 -2.15925e-09 1.85863e-10)
(-2.13341e-09 -2.45082e-09 1.27685e-09)
(-5.12093e-09 -2.0409e-09 1.60855e-09)
(-9.86885e-09 -1.81548e-09 2.38859e-10)
(-1.08256e-08 -6.54205e-10 7.97101e-10)
(7.74795e-09 -2.053e-10 -3.31013e-09)
(9.93052e-09 -1.37896e-09 -1.47874e-09)
(1.02564e-08 -2.74597e-09 3.39012e-10)
(7.57796e-09 -2.60422e-09 7.59347e-10)
(4.10815e-09 -3.55464e-09 8.77125e-10)
(-5.42093e-09 -3.2803e-09 7.68161e-10)
(-9.79912e-09 -5.28625e-09 1.01447e-09)
(-1.85461e-08 -1.39267e-09 -1.39027e-09)
(-2.11666e-08 -1.87439e-09 -9.2363e-10)
(6.06225e-09 -4.96199e-10 -6.32034e-10)
(1.08384e-08 -1.7797e-09 -2.07933e-09)
(1.00998e-08 -2.38601e-09 2.34523e-10)
(6.09505e-09 -3.06578e-09 5.05338e-10)
(4.77954e-09 -3.99601e-09 1.22276e-09)
(-7.16271e-09 -3.11131e-09 1.30526e-10)
(-1.92997e-08 -6.32992e-09 6.82639e-10)
(-2.72771e-08 -6.34108e-09 -2.53017e-09)
(-3.1549e-08 -5.08931e-09 -5.6176e-09)
(7.07055e-09 -1.14335e-09 -8.49764e-10)
(1.07779e-08 -3.74657e-10 -9.44549e-10)
(1.1772e-08 -2.10879e-09 1.28231e-09)
(6.71674e-09 -2.95728e-09 6.51468e-10)
(1.67396e-09 -2.45141e-09 2.41339e-09)
(-6.76256e-09 -3.87423e-09 3.32842e-09)
(-1.9008e-08 -6.73546e-09 -1.79103e-09)
(-6.37334e-08 1.02411e-08 -2.672e-09)
(-4.30571e-08 -4.41641e-09 -4.98474e-09)
)
;

boundaryField
{
    inlet
    {
        type            calculated;
        value           nonuniform List<vector> 
12
(
(5.49383e-09 -2.952e-10 -1.27193e-09)
(8.59188e-09 -1.13023e-09 -1.47811e-09)
(9.25882e-09 -2.01888e-09 -1.89959e-09)
(8.53298e-09 -1.99141e-09 -2.00623e-09)
(6.30056e-09 2.81409e-10 -8.63436e-10)
(8.87254e-09 -9.1861e-10 -1.52441e-09)
(6.77318e-09 -9.50605e-10 -6.32953e-10)
(8.79218e-09 -8.80339e-10 -3.23127e-10)
(5.31885e-09 -2.55559e-10 -2.78453e-10)
(7.74795e-09 -2.053e-10 -3.31013e-09)
(6.06225e-09 -4.96199e-10 -6.32034e-10)
(7.07055e-09 -1.14335e-09 -8.49764e-10)
)
;
    }
    outlet
    {
        type            calculated;
        value           nonuniform 0();
    }
    wall
    {
        type            calculated;
        value           nonuniform List<vector> 
63
(
(5.31885e-09 -2.55559e-10 -2.78453e-10)
(7.74795e-09 -2.053e-10 -3.31013e-09)
(6.06225e-09 -4.96199e-10 -6.32034e-10)
(7.07055e-09 -1.14335e-09 -8.49764e-10)
(9.12535e-09 -5.32808e-10 -3.76242e-10)
(9.93052e-09 -1.37896e-09 -1.47874e-09)
(1.08384e-08 -1.7797e-09 -2.07933e-09)
(1.07779e-08 -3.74657e-10 -9.44549e-10)
(1.08643e-08 -1.69794e-09 -5.02416e-10)
(1.02564e-08 -2.74597e-09 3.39012e-10)
(1.00998e-08 -2.38601e-09 2.34523e-10)
(1.1772e-08 -2.10879e-09 1.28231e-09)
(6.03465e-09 -1.77022e-09 -7.1773e-10)
(7.57796e-09 -2.60422e-09 7.59347e-10)
(6.09505e-09 -3.06578e-09 5.05338e-10)
(6.71674e-09 -2.95728e-09 6.51468e-10)
(1.80461e-09 -2.15925e-09 1.85863e-10)
(4.10815e-09 -3.55464e-09 8.77125e-10)
(4.77954e-09 -3.99601e-09 1.22276e-09)
(1.67396e-09 -2.45141e-09 2.41339e-09)
(-2.13341e-09 -2.45082e-09 1.27685e-09)
(-5.42093e-09 -3.2803e-09 7.68161e-10)
(-7.16271e-09 -3.11131e-09 1.30526e-10)
(-6.76256e-09 -3.87423e-09 3.32842e-09)
(-5.12093e-09 -2.0409e-09 1.60855e-09)
(-9.79912e-09 -5.28625e-09 1.01447e-09)
(-1.92997e-08 -6.32992e-09 6.82639e-10)
(-1.9008e-08 -6.73546e-09 -1.79103e-09)
(-9.86885e-09 -1.81548e-09 2.38859e-10)
(-1.85461e-08 -1.39267e-09 -1.39027e-09)
(-2.72771e-08 -6.34108e-09 -2.53017e-09)
(-6.37334e-08 1.02411e-08 -2.672e-09)
(-1.08256e-08 -6.54205e-10 7.97101e-10)
(-2.11666e-08 -1.87439e-09 -9.2363e-10)
(-3.1549e-08 -5.08931e-09 -5.6176e-09)
(-4.30571e-08 -4.41641e-09 -4.98474e-09)
(5.49383e-09 -2.952e-10 -1.27193e-09)
(6.30056e-09 2.81409e-10 -8.63436e-10)
(5.31885e-09 -2.55559e-10 -2.78453e-10)
(1.04443e-08 1.49236e-10 -1.91565e-09)
(1.01992e-08 -7.63699e-10 -1.25437e-09)
(9.12535e-09 -5.32808e-10 -3.76242e-10)
(1.4653e-08 -4.73734e-09 -1.13416e-09)
(1.26602e-08 -1.19053e-09 -2.17175e-10)
(1.08643e-08 -1.69794e-09 -5.02416e-10)
(1.10525e-08 -4.95897e-09 -2.24221e-09)
(1.10826e-08 -3.03605e-09 -1.17854e-09)
(6.03465e-09 -1.77022e-09 -7.1773e-10)
(7.26745e-09 -9.73379e-09 -4.22406e-09)
(5.08854e-09 -4.25253e-09 1.1899e-10)
(1.80461e-09 -2.15925e-09 1.85863e-10)
(-5.89721e-10 -6.90695e-09 -5.15767e-09)
(-2.70357e-09 -3.98214e-09 6.66233e-10)
(-2.13341e-09 -2.45082e-09 1.27685e-09)
(-1.54491e-08 -6.15925e-09 -4.38969e-09)
(-1.02711e-08 -3.61806e-09 -1.0742e-09)
(-5.12093e-09 -2.0409e-09 1.60855e-09)
(-3.07534e-08 -2.51695e-09 -3.11461e-09)
(-2.04492e-08 -5.33103e-09 -2.4817e-09)
(-9.86885e-09 -1.81548e-09 2.38859e-10)
(-2.74726e-08 4.32521e-09 4.23942e-10)
(-2.11407e-08 -1.00618e-09 -9.0371e-10)
(-1.08256e-08 -6.54205e-10 7.97101e-10)
)
;
    }
    procBoundary4to0
    {
        type            processor;
        value           nonuniform List<vector> 
36
(
(6.44878e-09 2.23626e-09 -1.57029e-09)
(1.16015e-08 -8.86339e-10 -3.59236e-09)
(1.25811e-08 -2.59431e-09 -3.61299e-09)
(4.67899e-09 -6.00163e-09 -5.1906e-09)
(4.63771e-10 -3.5394e-09 -8.50058e-09)
(-1.1013e-08 -8.9956e-09 -9.06421e-09)
(-1.77651e-08 -8.37019e-09 -5.38623e-09)
(-4.25984e-08 -2.26896e-09 -7.57532e-09)
(-5.24817e-08 3.71448e-10 -4.37089e-09)
(8.76861e-09 -1.09475e-09 -2.21025e-09)
(1.70726e-08 -4.5816e-09 -4.82529e-09)
(2.02914e-08 -1.00669e-08 -6.2212e-09)
(5.0672e-09 -1.41696e-08 -5.60261e-09)
(-8.25991e-09 -1.44212e-08 -8.33288e-09)
(-2.01906e-08 -1.52408e-08 -1.24119e-08)
(-4.09558e-08 -1.22721e-08 -9.64568e-09)
(-6.24575e-08 -5.10695e-09 -1.02204e-08)
(-7.68044e-08 -1.16862e-09 -8.11115e-09)
(1.42245e-08 -4.44218e-09 -4.14789e-09)
(1.78064e-08 -5.65468e-09 -5.72407e-09)
(1.82054e-08 -9.68418e-09 -8.11819e-09)
(3.36321e-09 -1.26286e-08 -5.52478e-09)
(-1.54761e-08 -2.07184e-08 -6.56112e-09)
(-4.05122e-08 -1.47234e-08 -1.40328e-08)
(-6.09756e-08 -1.47554e-08 -1.33347e-08)
(-7.95277e-08 -8.36889e-09 -1.42583e-08)
(-9.16982e-08 -3.37939e-09 -8.46038e-09)
(1.23728e-08 -2.45715e-09 -3.51859e-09)
(1.61897e-08 -4.22866e-09 -5.66175e-09)
(1.81541e-08 -6.89266e-09 -6.51875e-09)
(-1.47304e-09 -1.10341e-08 -8.96475e-09)
(-2.08128e-08 -1.59745e-08 -1.12096e-08)
(-4.84989e-08 -1.24678e-08 -1.1262e-08)
(-7.03273e-08 -1.02415e-08 -1.50492e-08)
(-7.9695e-08 -8.5532e-09 -1.25575e-08)
(-9.50829e-08 -8.42527e-10 -1.38473e-08)
)
;
    }
    procBoundary4to5
    {
        type            processor;
        value           nonuniform List<vector> 
12
(
(-2.88114e-08 9.79752e-10 5.20512e-09)
(-6.62642e-08 -5.61861e-09 -1.73666e-09)
(-8.55763e-08 -4.74123e-10 -8.85828e-09)
(-9.33213e-08 4.84101e-10 -8.68264e-09)
(-2.57305e-08 1.36904e-09 3.17471e-09)
(-4.58577e-08 2.99115e-09 3.43158e-10)
(-7.53274e-08 -3.21239e-09 -7.72931e-09)
(-7.52762e-08 -5.30526e-09 -1.12924e-08)
(-1.13066e-08 -1.82136e-09 2.22889e-09)
(-2.70839e-08 -8.99908e-10 3.37716e-09)
(-3.94771e-08 -2.21908e-09 -3.18504e-10)
(-4.93498e-08 -9.33445e-09 -1.54818e-09)
)
;
    }
    procBoundary4to6
    {
        type            processor;
        value           nonuniform List<vector> 
27
(
(1.09666e-08 -8.8895e-10 -4.15739e-10)
(1.47685e-08 -3.70125e-09 -1.37777e-09)
(1.47853e-08 -4.89109e-09 -2.02043e-09)
(5.84236e-09 -6.6783e-09 -2.77002e-09)
(-1.63798e-08 -6.20311e-09 -4.8515e-09)
(-4.11376e-08 -1.03699e-08 -1.0164e-09)
(-5.23936e-08 -1.12637e-08 -4.37349e-09)
(-6.52083e-08 -8.22213e-09 -6.19586e-09)
(-8.01373e-08 -1.46562e-09 -6.8666e-09)
(8.49512e-09 1.66526e-10 -9.33898e-11)
(1.4153e-08 -1.19769e-09 1.08248e-09)
(1.53422e-08 -2.69061e-09 2.44063e-10)
(9.7327e-09 -2.34178e-09 -2.59978e-10)
(9.2199e-10 -1.69755e-09 2.79884e-10)
(-2.35363e-08 -2.34103e-09 -8.61086e-10)
(-3.5921e-08 -6.47535e-09 -5.39738e-09)
(-5.14151e-08 -8.81384e-09 -3.8618e-09)
(-6.21722e-08 -2.41978e-09 -5.31624e-09)
(8.0048e-09 8.44227e-10 -6.11803e-10)
(1.12027e-08 -3.68244e-10 6.89457e-10)
(1.44824e-08 -1.95834e-09 1.33144e-09)
(6.60714e-09 -6.2584e-10 7.80118e-10)
(8.54151e-10 -1.29744e-09 1.92197e-09)
(-8.31757e-09 -1.03112e-09 2.20287e-09)
(-2.3118e-08 -5.77881e-09 -2.45282e-09)
(-3.33741e-08 -4.72335e-09 -1.12303e-09)
(-4.09514e-08 -5.62019e-09 -6.69104e-09)
)
;
    }
}


// ************************************************************************* //
