/*--------------------------------*- C++ -*----------------------------------*\
| =========                 |                                                 |
| \\      /  F ield         | OpenFOAM: The Open Source CFD Toolbox           |
|  \\    /   O peration     | Version:  4.x                                   |
|   \\  /    A nd           | Web:      www.OpenFOAM.org                      |
|    \\/     M anipulation  |                                                 |
\*---------------------------------------------------------------------------*/
FoamFile
{
    version     2.0;
    format      ascii;
    class       volVectorField;
    location    "57.5";
    object      GField;
}
// * * * * * * * * * * * * * * * * * * * * * * * * * * * * * * * * * * * * * //

dimensions      [1 -2 -1 0 0 0 0];

internalField   nonuniform List<vector> 
87
(
(93.4559 1.90138 -3.15558)
(141.953 1.41473 -3.01636)
(95.7288 2.85802 -4.68824)
(150.608 1.98615 -2.39876)
(93.8791 3.43915 -8.55231)
(166.646 2.30965 0.324254)
(82.6501 2.32551 -17.9408)
(205.135 3.88139 9.24377)
(41.8247 -9.22239 -33.3553)
(80.4089 -2.66016 -3.03861)
(134.555 -2.32401 -2.99339)
(81.7382 -3.16179 -4.0898)
(142.565 -0.891135 -1.8612)
(78.9346 -5.54132 -6.51182)
(155.658 2.18853 2.31921)
(66.9848 -11.7926 -12.8573)
(181.384 11.1369 11.7895)
(35.1876 -30.3275 -33.1222)
(66.0733 0.437213 -2.27008)
(121.004 0.879787 -2.2762)
(64.4117 1.68712 -3.01334)
(124.961 1.94301 -0.113587)
(61.1326 0.954976 -6.40637)
(134.175 2.1785 4.14162)
(54.8859 -2.85261 -14.1151)
(157.249 3.90708 14.4577)
(34.1915 -13.124 -38.3542)
(58.0244 1.29869 -1.09331)
(116.078 0.848187 -0.805454)
(57.413 2.27521 -1.2702)
(118.827 1.35543 0.294266)
(53.2051 3.51214 -2.60984)
(121.704 1.94831 3.13304)
(41.7642 4.11932 -8.10075)
(123.767 1.13757 12.7209)
(19.2804 3.79394 -17.29)
(30.7243 -1.056 -0.493015)
(104.909 -1.24231 -0.232295)
(27.2504 -0.984013 -0.288543)
(108.99 1.65121 1.86147)
(22.3269 -2.13829 -1.16841)
(115.21 6.4644 6.48298)
(19.5833 -5.00713 -4.28613)
(121.084 16.3673 16.1774)
(17.8278 -16.3899 -22.1329)
(8.42752 0.409657 -0.567166)
(94.7758 1.02613 0.56764)
(1.76888 0.170889 -0.186357)
(94.2117 1.32367 2.23541)
(0.22232 0.0252812 -0.0439414)
(90.5785 0.334991 5.62421)
(7.61977 0.678743 -3.02658)
(82.1534 -1.25897 13.1274)
(30.4065 1.66457 -36.7356)
(52.8078 1.44377 -4.65336)
(112.911 1.20245 -4.33279)
(49.86 2.42043 -6.29288)
(116.093 2.26514 -3.86159)
(43.6941 2.23496 -9.9396)
(120.519 3.21067 0.433642)
(33.0726 1.36136 -15.7959)
(124.962 3.59504 11.1178)
(19.1779 0.298769 -27.5038)
(27.9617 -2.21234 -3.04879)
(102.918 -0.788659 -1.94183)
(27.6241 -3.19957 -3.6177)
(108.008 0.903842 0.427848)
(26.2891 -5.57163 -6.35969)
(113.316 4.51613 3.42902)
(24.707 -10.2982 -11.8267)
(120.184 13.3168 12.043)
(19.4646 -23.3587 -26.7872)
(5.85777 -0.329908 -1.3049)
(91.0339 0.0131891 0.49506)
(4.00877 -0.312443 -1.34641)
(91.4347 1.58174 0.295209)
(5.47805 -0.863818 -2.57212)
(91.3982 3.00677 1.47716)
(12.3274 -4.45872 -7.35981)
(86.6713 8.70874 7.86358)
(27.5304 -21.2554 -17.4177)
(37.0385 0.505286 -1.41699)
(98.2499 1.82051 -0.457959)
(24.6125 1.40645 -1.22518)
(5.76582 -0.874465 -0.544014)
(89.8015 1.98907 -0.97488)
(3.34073e-05 -2.81154e-06 1.58534e-06)
)
;

boundaryField
{
    inlet
    {
        type            calculated;
        value           nonuniform 0();
    }
    outlet
    {
        type            calculated;
        value           nonuniform List<vector> 9((87.1553 -19.2178 -69.5066) (72.7911 -62.7371 -68.5185) (71.0152 -27.2583 -79.661) (40.6653 8.00199 -36.4672) (37.5778 -34.5469 -46.6521) (64.3798 3.5244 -77.7806) (40.8564 0.636496 -58.5938) (41.5908 -49.9115 -57.2372) (59.0531 -45.5933 -37.3612));
    }
    wall
    {
        type            calculated;
        value           uniform (0 0 0);
    }
    procBoundary1to0
    {
        type            processor;
        value           nonuniform List<vector> 
12
(
(134.983 0.228987 -3.90289)
(127.566 -3.56711 -4.00197)
(117.598 -0.700962 -3.56605)
(112.818 -0.186137 -2.05392)
(101.982 -2.96954 -1.90839)
(94.9155 0.302556 -1.31747)
(109.822 -0.181737 -4.14851)
(99.0735 -2.46654 -3.16432)
(90.7133 -1.11175 0.0660419)
(101.151 -0.174317 -1.88976)
(90.5452 0.0619452 -2.17693)
(81.102 0.928148 -0.326327)
)
;
    }
    procBoundary1to3
    {
        type            processor;
        value           nonuniform List<vector> 
27
(
(72.4771 -1.23363 -0.758095)
(129.075 -1.25725 -1.47986)
(74.5175 -1.48258 -0.815055)
(137.514 -2.46093 0.254526)
(72.348 -5.53827 -1.35328)
(147.553 -4.53016 4.40481)
(59.2857 -14.7468 -5.2318)
(161.441 0.713202 10.5941)
(29.0863 -37.4394 -17.1293)
(21.5907 0.156836 -1.65545)
(102.402 0.555518 -1.20835)
(18.6796 0.32187 -2.08557)
(106.777 0.295391 1.75421)
(16.4752 0.277373 -3.3792)
(112.802 -1.3602 7.41113)
(15.3698 -0.0700565 -7.45414)
(119.293 -3.69531 19.836)
(17.7892 -2.93372 -34.1693)
(12.077 -1.13062 -2.26606)
(93.6415 -0.713389 -0.675215)
(9.84203 -1.44091 -2.55919)
(94.914 -1.6481 0.509023)
(10.5222 -2.81192 -4.4232)
(94.1643 -2.12023 3.56908)
(12.8147 -5.22699 -8.22951)
(86.1789 3.36366 11.4045)
(24.2619 -13.0258 -28.4507)
)
;
    }
    procBoundary1to5
    {
        type            processor;
        value           nonuniform List<vector> 
32
(
(90.752 3.40693 0.722316)
(7.9813 0.752521 -0.734254)
(78.0712 0.907529 2.99408)
(2.68305e-05 5.67357e-06 -3.5493e-06)
(55.0749 -2.24831 5.94229)
(5.16303 1.78628 -0.0268909)
(1.20906 -0.256811 -0.174)
(89.6533 3.53698 1.15409)
(1.53084 -0.436622 -0.365166)
(86.2436 3.65905 4.98164)
(4.03129 -1.22925 -1.67986)
(74.2698 9.05092 12.3256)
(18.4343 -2.83993 -14.8163)
(79.1883 1.59103 0.199598)
(2.53471e-05 -5.73139e-06 7.71884e-06)
(77.7348 0.557242 0.669768)
(2.05337e-05 -1.77395e-06 -1.64169e-06)
(75.2273 -1.06822 2.15483)
(2.68044e-05 9.54651e-07 -4.93705e-06)
(65.1822 -4.78687 3.85992)
(20.674 1.06225 -2.72107)
(45.2337 -0.696574 0.671716)
(106.307 -0.735412 2.40958)
(90.752 3.40693 0.722316)
(1.20906 -0.256811 -0.174)
(43.5069 -0.888637 2.58846)
(11.14 -1.37371 0.205603)
(1.20906 -0.256811 -0.174)
(79.1883 1.59103 0.199598)
(92.7943 -0.30607 0.805138)
(79.1883 1.59103 0.199598)
(3.59202e-05 -5.69512e-06 6.67475e-06)
)
;
    }
    procBoundary1to7
    {
        type            processor;
        value           uniform (6.1964 0.717439 -1.04177);
    }
}


// ************************************************************************* //
