/*--------------------------------*- C++ -*----------------------------------*\
| =========                 |                                                 |
| \\      /  F ield         | OpenFOAM: The Open Source CFD Toolbox           |
|  \\    /   O peration     | Version:  4.x                                   |
|   \\  /    A nd           | Web:      www.OpenFOAM.org                      |
|    \\/     M anipulation  |                                                 |
\*---------------------------------------------------------------------------*/
FoamFile
{
    version     2.0;
    format      ascii;
    class       volVectorField;
    location    "6";
    object      ddtUrel;
}
// * * * * * * * * * * * * * * * * * * * * * * * * * * * * * * * * * * * * * //

dimensions      [0 1 -2 0 0 0 0];

internalField   nonuniform List<vector> 
132
(
(1.85273e-05 5.66349e-07 -1.6843e-05)
(8.32113e-06 5.26839e-07 -1.65455e-05)
(-9.54745e-06 7.45258e-07 -1.62221e-05)
(-3.8813e-05 4.49992e-07 -1.6439e-05)
(-8.21286e-05 2.44957e-07 -1.63818e-05)
(-0.000152325 2.20793e-07 -1.66495e-05)
(-0.000286862 1.40126e-07 -1.70992e-05)
(-0.000345156 8.9773e-07 -1.41186e-05)
(-0.000279494 8.48857e-07 -1.21662e-05)
(1.8278e-05 2.087e-06 -1.71955e-05)
(7.74693e-06 1.60412e-06 -1.67351e-05)
(-9.30712e-06 1.29594e-06 -1.67409e-05)
(-3.67996e-05 1.06151e-06 -1.67137e-05)
(-7.98366e-05 6.48082e-07 -1.60137e-05)
(-0.000149787 -2.07665e-07 -1.59792e-05)
(-0.000283625 -1.17849e-06 -1.6007e-05)
(-0.00034662 -1.40021e-06 -1.33141e-05)
(-0.000282416 -9.53206e-07 -1.17059e-05)
(1.78027e-05 3.65953e-06 -1.77459e-05)
(8.76079e-06 2.91824e-06 -1.74677e-05)
(-7.21428e-06 2.22458e-06 -1.68018e-05)
(-3.30323e-05 1.60445e-06 -1.60127e-05)
(-7.53282e-05 8.80842e-07 -1.54141e-05)
(-0.00014332 -3.28669e-07 -1.56462e-05)
(-0.00027022 -2.12556e-06 -1.60798e-05)
(-0.000324667 -3.27282e-06 -1.35661e-05)
(-0.000263803 -1.80782e-06 -1.13822e-05)
(1.98402e-05 4.48262e-06 -1.70574e-05)
(1.28926e-05 3.82571e-06 -1.72418e-05)
(-6.13162e-06 2.84643e-06 -1.63134e-05)
(-2.9693e-05 1.96712e-06 -1.54118e-05)
(-7.02065e-05 1.07242e-06 -1.51053e-05)
(-0.000135052 -3.76928e-07 -1.4985e-05)
(-0.000247296 -1.70344e-06 -1.46189e-05)
(-0.000295535 -1.92115e-06 -1.20144e-05)
(-0.000247701 -9.13608e-07 -1.06498e-05)
(-8.83092e-06 6.24705e-07 -1.78017e-05)
(-3.79127e-05 6.81535e-07 -1.80949e-05)
(-8.10072e-05 7.07688e-07 -1.80083e-05)
(-0.000149541 5.30461e-07 -1.80276e-05)
(-0.000276954 2.45109e-07 -1.74822e-05)
(-0.000329415 6.5535e-07 -1.55986e-05)
(-0.00026656 4.65393e-07 -1.2627e-05)
(2.03821e-05 1.48675e-06 -1.9455e-05)
(1.01138e-05 1.45263e-06 -1.83887e-05)
(-7.48987e-06 1.45128e-06 -1.79759e-05)
(-3.54471e-05 1.0191e-06 -1.78138e-05)
(-7.82944e-05 6.47495e-07 -1.78135e-05)
(-0.000145889 -1.70277e-08 -1.76836e-05)
(-0.00027104 -1.32493e-06 -1.67577e-05)
(-0.000325614 -1.79088e-06 -1.5278e-05)
(-0.000265675 -2.8276e-07 -1.25945e-05)
(2.09141e-05 2.73549e-06 -2.03015e-05)
(1.12721e-05 3.03762e-06 -1.91042e-05)
(-4.75711e-06 2.73521e-06 -1.75462e-05)
(-3.06068e-05 1.25547e-06 -1.71592e-05)
(-7.35661e-05 1.53139e-07 -1.74835e-05)
(-0.000140416 -6.59221e-07 -1.68902e-05)
(-0.000259859 -2.37662e-06 -1.62212e-05)
(-0.000305362 -3.22235e-06 -1.43576e-05)
(-0.00024683 -7.4953e-07 -1.1145e-05)
(1.92686e-05 3.86938e-06 -2.06284e-05)
(1.25494e-05 4.23183e-06 -1.87821e-05)
(-2.09751e-06 3.16264e-06 -1.71558e-05)
(-2.64334e-05 1.72713e-06 -1.64479e-05)
(-6.7338e-05 7.01072e-07 -1.64212e-05)
(-0.000135544 -8.72535e-08 -1.60074e-05)
(-0.00023534 -6.34633e-07 -1.47514e-05)
(-0.000281263 -9.36943e-07 -1.35989e-05)
(-0.000234636 -2.86631e-07 -1.08744e-05)
(-7.4831e-05 1.0108e-06 -1.89557e-05)
(-0.000141115 3.92635e-07 -1.83071e-05)
(-0.000261948 -8.03005e-09 -1.84559e-05)
(-0.000305261 1.90475e-07 -1.79997e-05)
(-0.000243188 1.07979e-08 -1.30403e-05)
(2.14214e-05 1.11804e-06 -2.12722e-05)
(1.17131e-05 1.5722e-06 -1.9339e-05)
(-4.4336e-06 1.4786e-06 -1.81126e-05)
(-3.07619e-05 1.00532e-06 -1.7989e-05)
(-7.15675e-05 8.31839e-07 -1.83407e-05)
(-0.000135736 1.29705e-07 -1.76007e-05)
(-0.000255538 -1.20462e-06 -1.81307e-05)
(-0.000297216 -1.09458e-06 -1.7861e-05)
(-0.000238818 -2.40784e-07 -1.28588e-05)
(2.12673e-05 2.87972e-06 -2.17339e-05)
(1.32215e-05 3.65498e-06 -1.95962e-05)
(-1.51177e-06 2.74769e-06 -1.80681e-05)
(-2.44826e-05 1.22093e-06 -1.73045e-05)
(-6.56648e-05 7.844e-07 -1.7524e-05)
(-0.000128881 2.31301e-07 -1.67753e-05)
(-0.000242305 -2.14309e-06 -1.65418e-05)
(-0.000278611 -2.62367e-06 -1.55114e-05)
(-0.000226093 -2.96362e-07 -1.11756e-05)
(1.98031e-05 3.77058e-06 -2.16109e-05)
(1.43783e-05 4.20864e-06 -2.00314e-05)
(2.34007e-06 3.10744e-06 -1.77764e-05)
(-1.80941e-05 1.82265e-06 -1.6717e-05)
(-5.76117e-05 1.37173e-06 -1.6488e-05)
(-0.000119979 4.64152e-07 -1.58711e-05)
(-0.000218183 -9.72739e-07 -1.51378e-05)
(-0.000253595 -1.50177e-06 -1.36615e-05)
(-0.000215147 -3.11795e-07 -1.0631e-05)
(-0.000247779 -1.88148e-07 -1.85681e-05)
(-0.000282511 2.92038e-07 -1.87231e-05)
(-0.000223489 4.95438e-08 -1.37675e-05)
(2.71299e-05 3.08714e-07 -2.19075e-05)
(1.64445e-05 1.33248e-06 -1.96755e-05)
(9.65931e-07 1.77728e-06 -1.78591e-05)
(-2.29409e-05 1.47643e-06 -1.7685e-05)
(-6.11394e-05 1.31159e-06 -1.78698e-05)
(-0.00012221 3.49403e-07 -1.71969e-05)
(-0.000238557 -8.27871e-07 -1.8138e-05)
(-0.000273498 -2.73561e-07 -1.98025e-05)
(-0.000222275 -2.2491e-08 -1.48469e-05)
(2.80357e-05 3.51912e-06 -2.18338e-05)
(2.09651e-05 3.88938e-06 -1.98399e-05)
(8.99994e-06 3.30395e-06 -1.84638e-05)
(-1.29786e-05 2.08011e-06 -1.71811e-05)
(-5.62076e-05 1.48501e-06 -1.70534e-05)
(-0.000113173 7.72016e-07 -1.70298e-05)
(-0.000216355 -7.39713e-07 -1.66267e-05)
(-0.000252476 -3.61433e-07 -1.61772e-05)
(-0.000211151 5.78314e-07 -1.23478e-05)
(3.4911e-05 4.06937e-06 -2.22379e-05)
(2.73147e-05 3.838e-06 -2.07699e-05)
(1.16162e-05 3.82817e-06 -1.81034e-05)
(-9.38388e-06 3.10791e-06 -1.69578e-05)
(-5.10246e-05 1.6805e-06 -1.68944e-05)
(-0.000109848 1.04692e-06 -1.60398e-05)
(-0.000194872 1.04931e-07 -1.47877e-05)
(-0.000233329 -2.83679e-07 -1.38493e-05)
(-0.000199606 4.94784e-07 -1.11265e-05)
)
;

boundaryField
{
    inlet
    {
        type            calculated;
        value           nonuniform 0();
    }
    outlet
    {
        type            calculated;
        value           nonuniform List<vector> 
16
(
(-1.87893e-05 -1.42868e-06 -1.12478e-05)
(-2.31248e-05 -2.95443e-06 -9.76182e-06)
(-1.35533e-05 -7.12129e-06 -9.73301e-06)
(-1.98884e-05 7.35119e-06 -4.92079e-06)
(-2.57775e-05 -3.52289e-06 -6.20596e-06)
(-2.02019e-05 6.01862e-06 -9.9895e-06)
(-1.42697e-07 7.37655e-07 -6.18045e-06)
(-2.15574e-05 5.45046e-06 -1.96952e-06)
(-1.26226e-05 -2.57336e-06 -3.06689e-06)
(-1.06914e-05 -1.83109e-06 -3.8899e-06)
(3.55727e-06 -2.0083e-06 8.64734e-07)
(-2.59576e-06 2.17413e-06 -2.17271e-06)
(8.44855e-05 -2.36214e-06 5.51808e-06)
(2.76221e-05 -7.09491e-07 -7.79295e-06)
(1.30048e-05 2.10267e-06 -6.64193e-07)
(2.78535e-05 2.60189e-06 -2.42489e-06)
)
;
    }
    wall
    {
        type            calculated;
        value           nonuniform List<vector> 
66
(
(0.000151398 -1.30413e-05 -3.52989e-05)
(0.000143221 2.99097e-05 -2.0182e-05)
(0.00036338 2.51669e-05 -1.86294e-05)
(6.63411e-05 3.2826e-07 -1.98555e-05)
(9.48782e-05 1.62203e-05 -1.87718e-05)
(0.000231227 4.72856e-06 -3.2908e-05)
(6.99885e-05 4.39633e-06 -4.93029e-06)
(0.000141764 8.26841e-06 -2.25599e-05)
(0.000145208 1.40291e-05 -9.71515e-06)
(6.5394e-05 2.06742e-06 -1.00514e-05)
(0.000215481 2.38672e-06 -1.34515e-05)
(0.000123024 1.1707e-05 -1.40391e-05)
(0.000101299 6.67949e-06 -1.78498e-05)
(4.24199e-05 3.88579e-06 -1.37668e-05)
(7.96719e-05 4.32808e-07 -2.29354e-05)
(0.00019607 9.46398e-07 -2.31915e-06)
(0.000186264 1.79758e-06 -2.27941e-05)
(-1.88318e-05 5.12012e-06 -1.56123e-05)
(-0.000583796 -2.20212e-06 -2.47439e-05)
(-0.000545797 -2.10592e-07 -2.17838e-05)
(-0.000328312 -2.55245e-06 -1.91602e-05)
(-0.000212511 5.6711e-06 -6.21145e-06)
(-0.000555394 3.77687e-06 -3.88096e-05)
(-0.00039134 3.14186e-06 -6.8427e-05)
(-0.000376906 5.55413e-06 -2.79364e-05)
(-0.000359487 1.99182e-06 -1.1391e-05)
(0.000124291 1.1871e-06 1.20554e-05)
(-1.97048e-06 6.19555e-07 -1.96315e-05)
(-2.18774e-05 6.28416e-06 6.76572e-07)
(3.92543e-05 6.15906e-06 5.43309e-06)
(0.000173633 2.00963e-05 1.58162e-07)
(1.85137e-05 1.13925e-05 -3.16083e-05)
(-3.37029e-05 9.9093e-06 -2.16234e-05)
(0.000166767 1.62148e-05 -2.33499e-05)
(0.000149943 3.82646e-06 -1.87494e-05)
(4.05649e-05 1.39178e-05 -1.64107e-05)
(-1.27889e-05 1.22478e-05 -2.61098e-05)
(0.000133826 3.27047e-06 -2.89779e-05)
(-1.85766e-07 3.69313e-08 -1.70788e-05)
(3.78847e-05 6.98984e-06 -1.39062e-05)
(3.90246e-05 1.5707e-06 -1.14223e-05)
(8.27344e-05 1.03157e-05 -1.26723e-05)
(1.7287e-05 2.85182e-06 -1.25238e-05)
(1.77943e-05 1.40628e-06 -1.50312e-05)
(0.000111346 -3.56945e-06 -1.18291e-05)
(0.000133911 1.19932e-05 -1.35615e-05)
(2.12232e-05 2.64637e-06 -1.49359e-05)
(7.25589e-05 -1.67377e-06 -1.48803e-05)
(0.000104491 7.32784e-06 -1.16072e-05)
(3.84298e-05 1.94081e-06 -2.09027e-05)
(5.86661e-05 -4.35223e-06 -1.38559e-05)
(-0.00014353 2.43311e-06 -2.21864e-05)
(4.57465e-05 4.95444e-06 -1.21425e-05)
(5.26306e-05 5.09813e-06 -1.25808e-05)
(-0.000422684 -8.75365e-06 -1.9612e-05)
(-0.000304256 1.26278e-05 -3.89479e-06)
(-0.000339256 -3.16218e-06 -1.40658e-05)
(-0.000189315 3.73205e-06 -6.19623e-06)
(-0.000637307 -3.38106e-07 7.58092e-07)
(-0.000566967 8.87811e-06 -2.20383e-05)
(-0.000386962 -8.62866e-06 -1.30917e-05)
(-0.000349605 -5.01873e-07 -1.4093e-05)
(-9.95108e-05 1.27975e-05 -3.37772e-06)
(-9.35924e-05 9.37508e-06 -2.12568e-06)
(-4.30392e-05 2.86833e-06 1.80889e-06)
(3.39221e-06 5.08649e-06 2.91695e-06)
)
;
    }
    procBoundary7to0
    {
        type            processor;
        value           uniform (2.75436e-05 8.60484e-07 -1.74482e-05);
    }
    procBoundary7to1
    {
        type            processor;
        value           uniform (1.97784e-05 -2.65961e-07 -1.65135e-05);
    }
    procBoundary7to3
    {
        type            processor;
        value           nonuniform List<vector> 
36
(
(1.90656e-05 4.01126e-07 -1.42376e-05)
(9.2951e-06 2.49713e-07 -1.38814e-05)
(-7.93688e-06 9.60904e-07 -1.35558e-05)
(-3.70285e-05 4.24222e-07 -1.39944e-05)
(-7.9912e-05 -6.52686e-08 -1.41748e-05)
(-0.000148697 2.79781e-07 -1.42367e-05)
(-0.000284033 3.76079e-07 -1.45465e-05)
(-0.000338924 1.23233e-06 -1.25599e-05)
(-0.000276346 1.75969e-06 -1.29888e-05)
(1.85272e-05 1.66691e-06 -1.47473e-05)
(7.36525e-06 1.53305e-06 -1.44858e-05)
(-9.15106e-06 1.57386e-06 -1.42462e-05)
(-3.56795e-05 1.06539e-06 -1.42836e-05)
(-7.78952e-05 2.43314e-07 -1.38998e-05)
(-0.000147227 1.77364e-07 -1.38814e-05)
(-0.000283406 -8.50694e-07 -1.41991e-05)
(-0.000342652 -1.53519e-06 -1.14387e-05)
(-0.000276325 -9.91203e-07 -1.1647e-05)
(1.5589e-05 3.05361e-06 -1.56078e-05)
(5.97546e-06 3.76689e-06 -1.49772e-05)
(-8.52547e-06 2.76782e-06 -1.44501e-05)
(-3.29545e-05 2.32544e-06 -1.40524e-05)
(-7.37036e-05 1.03654e-06 -1.32956e-05)
(-0.000140831 5.5137e-07 -1.36222e-05)
(-0.000270698 -1.78544e-06 -1.40502e-05)
(-0.000328669 -3.80912e-06 -1.18056e-05)
(-0.000264246 -2.30674e-06 -1.1786e-05)
(1.01827e-05 3.70578e-06 -1.53327e-05)
(4.87332e-06 4.79899e-06 -1.53541e-05)
(-6.44232e-06 3.71997e-06 -1.44677e-05)
(-3.02632e-05 2.58501e-06 -1.33065e-05)
(-6.71016e-05 1.94294e-06 -1.27202e-05)
(-0.000133004 5.75184e-07 -1.32251e-05)
(-0.000242996 -1.6788e-06 -1.30723e-05)
(-0.000301165 -2.97131e-06 -1.09853e-05)
(-0.000252503 -2.62198e-06 -1.12159e-05)
)
;
    }
    procBoundary7to5
    {
        type            processor;
        value           nonuniform List<vector> 
44
(
(1.00728e-05 -1.16106e-07 -1.59866e-05)
(-8.37077e-06 -4.29509e-08 -1.5307e-05)
(-3.78988e-05 -2.58381e-07 -1.57222e-05)
(-8.19436e-05 -3.41252e-07 -1.58208e-05)
(-0.000150901 -1.69581e-08 -1.58144e-05)
(-0.000282783 1.6914e-06 -1.62335e-05)
(-0.000339596 3.05893e-06 -1.37788e-05)
(-0.000273192 2.24091e-06 -1.18023e-05)
(1.94576e-05 5.14983e-07 -1.87777e-05)
(9.31632e-06 5.23617e-07 -1.81972e-05)
(-8.13733e-06 -8.55118e-08 -1.72252e-05)
(-3.66475e-05 1.5054e-08 -1.75179e-05)
(-8.03111e-05 -9.01263e-08 -1.77007e-05)
(-0.000148485 7.36137e-08 -1.74483e-05)
(-0.000274892 1.48877e-06 -1.71208e-05)
(-0.000328019 2.99594e-06 -1.59887e-05)
(-0.000262322 1.89608e-06 -1.26616e-05)
(1.94576e-05 5.14983e-07 -1.87777e-05)
(9.31632e-06 5.23617e-07 -1.81972e-05)
(9.31632e-06 5.23617e-07 -1.81972e-05)
(-6.18695e-06 6.58027e-07 -1.85309e-05)
(-3.26385e-05 8.89781e-07 -1.88937e-05)
(-7.46114e-05 2.35195e-07 -1.84061e-05)
(-0.000139224 2.77743e-07 -1.75927e-05)
(-0.000256454 1.28011e-06 -1.81983e-05)
(-0.000297042 1.74603e-06 -1.77273e-05)
(-0.000242816 7.88098e-07 -1.30385e-05)
(1.81754e-05 1.85375e-07 -1.98513e-05)
(9.8136e-06 9.45626e-08 -1.90644e-05)
(-6.18695e-06 6.58027e-07 -1.85309e-05)
(-3.26385e-05 8.89781e-07 -1.88937e-05)
(-3.26385e-05 8.89781e-07 -1.88937e-05)
(-6.64259e-05 1.20936e-06 -1.94686e-05)
(-0.000136833 3.79144e-07 -1.87284e-05)
(-0.000234449 5.25012e-07 -1.76526e-05)
(-0.000267762 1.09862e-06 -1.66469e-05)
(-0.000223572 6.20003e-07 -1.27983e-05)
(2.05306e-05 -4.93558e-07 -2.04733e-05)
(1.82265e-05 -2.12805e-07 -1.92291e-05)
(-1.81877e-07 8.49136e-07 -1.91775e-05)
(-2.63804e-05 1.22786e-06 -1.95739e-05)
(-6.64259e-05 1.20936e-06 -1.94686e-05)
(-0.000136833 3.79144e-07 -1.87284e-05)
(-0.000136833 3.79144e-07 -1.87284e-05)
)
;
    }
    procBoundary7to6
    {
        type            processor;
        value           nonuniform List<vector> 
12
(
(2.65988e-05 1.72549e-06 -1.78747e-05)
(2.51687e-05 2.67284e-06 -1.82918e-05)
(2.14952e-05 3.06435e-06 -1.83796e-05)
(2.76501e-05 1.72928e-06 -1.99489e-05)
(2.8322e-05 1.99694e-06 -2.03009e-05)
(2.80078e-05 2.33332e-06 -2.06036e-05)
(2.70099e-05 1.41505e-06 -2.17249e-05)
(2.75713e-05 1.53424e-06 -2.21947e-05)
(2.68931e-05 2.10207e-06 -2.22292e-05)
(2.77505e-05 8.94898e-07 -2.26249e-05)
(3.00437e-05 1.48977e-06 -2.29625e-05)
(2.88611e-05 2.17112e-06 -2.24857e-05)
)
;
    }
}


// ************************************************************************* //
