/*--------------------------------*- C++ -*----------------------------------*\
| =========                 |                                                 |
| \\      /  F ield         | OpenFOAM: The Open Source CFD Toolbox           |
|  \\    /   O peration     | Version:  4.x                                   |
|   \\  /    A nd           | Web:      www.OpenFOAM.org                      |
|    \\/     M anipulation  |                                                 |
\*---------------------------------------------------------------------------*/
FoamFile
{
    version     2.0;
    format      ascii;
    class       volVectorField;
    location    "6";
    object      GField;
}
// * * * * * * * * * * * * * * * * * * * * * * * * * * * * * * * * * * * * * //

dimensions      [1 -2 -1 0 0 0 0];

internalField   nonuniform List<vector> 
132
(
(18.2066 0.247749 -2.17455)
(82.3232 1.94423 -3.90439)
(24.4738 1.30789 -8.17085)
(79.3786 -1.24504 -9.4256)
(18.8081 0.820585 -11.3398)
(68.715 -0.0582904 -4.37705)
(8.77236 0.953874 -6.79829)
(44.3636 -0.195802 3.56757)
(4.70372 1.15179 -5.30088)
(19.0537 1.79821 -2.4853)
(88.3895 2.13185 -2.54634)
(23.6668 3.75055 -5.51294)
(90.6459 -2.17458 -5.27944)
(22.3226 6.15936 -9.07092)
(94.0912 2.30336 -7.4812)
(24.2999 13.5138 -15.505)
(90.3071 -0.8712 -1.37259)
(17.9709 22.5809 -27.7892)
(18.2985 -0.022959 -2.32006)
(87.7122 -1.12413 -2.89763)
(20.7323 0.349143 -6.60473)
(93.9219 -2.56629 -11.6966)
(12.4329 1.37131 -5.40014)
(93.3298 -4.33752 -3.08131)
(22.1794 9.99605 -14.7947)
(95.4168 -8.99392 0.620308)
(24.8734 64.5696 -55.41)
(74.2759 1.29956 5.30675)
(119.174 -1.71325 9.07003)
(75.1905 0.893859 1.54062)
(127.811 -0.631542 5.63954)
(74.3866 4.48659 -5.00289)
(141.795 -6.88944 4.01415)
(64.2276 12.3913 -16.8361)
(179.089 -12.3751 3.43827)
(36.675 59.7155 -85.839)
(4.41406 0.262011 -0.977123)
(65.7164 0.688892 3.35854)
(5.99347 0.439165 -2.53968)
(42.8051 1.17643 -1.02937)
(-0.00391557 3.61389e-05 -0.000562986)
(24.5418 1.03302 2.13235)
(5.40781 0.276179 -2.84792)
(4.82661 0.415875 -0.630541)
(80.4147 0.921746 -6.93309)
(8.38214 1.51407 -2.10646)
(77.187 -2.8027 -4.89369)
(16.0059 6.68972 -6.40339)
(72.6304 1.5292 -6.53655)
(11.8967 6.55334 -6.58467)
(58.4412 -1.49149 2.82443)
(15.4179 8.43666 -10.2305)
(13.9776 0.237757 -1.54461)
(77.4423 -2.84038 -1.85474)
(12.3686 0.49885 -2.98134)
(73.7529 -4.61115 -2.73927)
(0.100813 0.0167403 -0.0460083)
(75.5557 -0.951989 -5.05789)
(5.22372 2.13396 -2.94204)
(67.7115 -5.25753 2.67194)
(11.1537 10.4484 -10.0861)
(63.5137 1.72323 4.12437)
(107.173 0.59227 7.45269)
(61.6155 3.09736 1.33405)
(110.058 0.770117 5.5254)
(55.0756 3.93359 -3.4543)
(109.321 -3.90489 2.67128)
(47.6394 6.11447 -10.4548)
(104.616 -8.28239 2.78154)
(35.0194 16.5539 -35.8202)
(0.413589 0.00394017 -0.0105434)
(67.8139 0.445894 -3.78997)
(6.07011 -0.545347 0.537143)
(59.0425 2.99793 -0.997399)
(18.0506 -2.9726 -2.17666)
(15.4289 1.28398 -0.640454)
(85.5844 10.8228 -6.81786)
(3.59206 0.48178 -0.442726)
(90.349 -10.3899 -9.95968)
(8.87304 2.01581 -1.66325)
(85.1671 -3.01696 -3.6661)
(3.0845 1.83072 -0.479284)
(75.1286 -4.72228 -1.52161)
(14.3906 10.6548 -2.97389)
(9.36325 0.0183063 -0.308728)
(84.7046 3.09415 -2.79602)
(25.306 1.46043 -2.39471)
(87.6722 -3.22824 -4.66323)
(18.552 1.78247 -2.55544)
(90.3314 -3.37912 -5.20699)
(18.6244 7.46555 -3.71951)
(83.6993 -11.9599 -1.48355)
(29.4992 49.0132 -10.9524)
(71.6584 1.09975 4.67375)
(114.131 -3.89988 6.8945)
(74.9001 0.499231 4.21859)
(120.573 -3.0496 6.2825)
(71.1007 4.68472 2.1122)
(130.504 -6.31712 4.15412)
(60.8895 12.4918 -1.01374)
(156.224 -15.1048 -0.154054)
(32.4758 42.7403 -12.2144)
(35.4624 -6.2182 2.85503)
(82.7518 8.37825 -2.57543)
(35.2075 -14.4956 -1.64073)
(32.2196 -0.0398827 -1.05645)
(89.6561 -1.12058 -1.05644)
(17.5219 0.691922 -1.63503)
(85.8635 -2.04755 -5.78192)
(1.6471 0.247787 -0.319042)
(80.9521 -2.96068 0.622993)
(4.94855 0.86423 -1.30943)
(71.2968 -1.11509 3.05913)
(19.7558 2.7891 -7.49201)
(57.0685 0.0236836 -1.1903)
(99.8288 0.856193 -5.26159)
(47.252 0.528872 -4.04413)
(94.904 -1.81759 -5.33071)
(33.3435 2.39166 -3.12301)
(88.1537 -3.6687 -4.325)
(20.1599 4.60344 -4.09288)
(74.0771 -8.14765 -0.931951)
(20.7736 15.4883 -7.75591)
(74.3594 0.0914214 0.16409)
(114.752 -0.916338 1.41925)
(80.5662 1.31858 -1.21874)
(121.452 0.0827926 0.880677)
(83.6747 3.84636 -4.6106)
(127.446 -1.42635 0.672349)
(80.8562 10.1398 -13.6623)
(130.281 -6.90236 1.30049)
(64.3631 25.2453 -47.6398)
)
;

boundaryField
{
    inlet
    {
        type            calculated;
        value           nonuniform 0();
    }
    outlet
    {
        type            calculated;
        value           nonuniform List<vector> 
16
(
(10.4314 2.55431 -11.7557)
(39.8079 50.0197 -61.5568)
(54.973 142.706 -122.463)
(79.6232 129.645 -186.361)
(12.024 0.614069 -6.33219)
(34.1754 18.7007 -22.6769)
(24.7738 23.2073 -22.4024)
(76.7159 36.264 -78.4701)
(39.9973 -6.58679 -4.82313)
(31.9999 23.6927 -6.61292)
(65.5092 108.844 -24.3223)
(71.1621 93.654 -26.7646)
(77.4893 -31.9037 -3.61115)
(43.5115 6.1429 -16.5009)
(45.8502 34.1847 -17.1183)
(139.828 54.8451 -103.497)
)
;
    }
    wall
    {
        type            calculated;
        value           uniform (0 0 0);
    }
    procBoundary7to0
    {
        type            processor;
        value           uniform (83.5808 0.717469 3.39874);
    }
    procBoundary7to1
    {
        type            processor;
        value           uniform (14.7534 -1.15472 -1.81286);
    }
    procBoundary7to3
    {
        type            processor;
        value           nonuniform List<vector> 
36
(
(5.40817 0.226885 -0.891754)
(82.8984 1.48047 -1.51127)
(5.08311 0.405549 -1.34897)
(85.4895 0.465043 -5.65368)
(13.6588 1.45653 -5.9858)
(84.2932 0.498369 -4.37191)
(9.09323 2.16093 -4.79641)
(72.3114 -3.50921 0.0761996)
(6.25173 3.50837 -5.34297)
(21.3748 1.73488 -1.73001)
(91.4303 -0.0353222 -3.32589)
(19.8443 2.68614 -2.94634)
(93.4936 -0.343513 -5.28755)
(21.6208 4.7745 -4.95638)
(97.0047 -1.37067 -5.99158)
(23.4242 9.50659 -4.62999)
(101.918 -4.1744 -9.08259)
(27.9834 31.62 -11.1261)
(13.5414 0.517403 -1.19483)
(88.8437 -0.365678 -1.33124)
(7.17152 0.388212 -1.59333)
(94.8165 -3.34417 -7.41837)
(14.1665 2.03018 -4.85589)
(102.826 -3.22742 -1.55847)
(14.3675 6.083 -4.82887)
(121.595 -11.4898 -2.9639)
(20.5182 52.1332 -29.0363)
(73.0468 2.54201 8.91178)
(119.931 2.95036 13.1672)
(76.7473 1.48744 6.76677)
(126.993 -2.71212 10.2665)
(70.3414 1.15892 2.34107)
(136.538 -5.98519 6.40389)
(57.7767 5.97119 1.98494)
(166.235 -11.0153 -0.252654)
(32.2758 37.4319 -52.388)
)
;
    }
    procBoundary7to5
    {
        type            processor;
        value           nonuniform List<vector> 
44
(
(87.2239 1.29077 -0.326544)
(6.56223 -0.940406 -1.67247)
(88.5073 3.24554 -6.22844)
(14.2969 -3.70072 -6.03255)
(92.6798 -2.18437 -9.16713)
(20.3575 -9.32348 -10.3519)
(88.9877 -0.239636 -7.0955)
(18.0809 -15.1741 -15.0806)
(9.52418 0.166366 -0.863526)
(73.2419 -1.64716 -10.5652)
(12.5069 -2.59814 -2.47639)
(79.7198 1.52448 -10.1433)
(16.8249 -7.6161 -6.07629)
(75.5699 -2.40709 -7.43369)
(11.1301 -6.09073 -4.01329)
(62.2314 1.38446 -0.795912)
(14.6046 -6.66227 -4.03007)
(9.52418 0.166366 -0.863526)
(73.2419 -1.64716 -10.5652)
(73.2419 -1.64716 -10.5652)
(-29.1913 4.72498 -2.68285)
(68.6459 3.46771 -8.72821)
(7.09007 -2.42471 0.0109471)
(88.4449 0.671886 -6.46495)
(9.338 -6.61181 1.8954)
(83.7247 5.32901 -8.0864)
(20.3118 -18.266 7.92232)
(8.31132 -0.139601 0.325646)
(70.5387 -1.26445 -1.98678)
(-29.1913 4.72498 -2.68285)
(68.6459 3.46771 -8.72821)
(68.6459 3.46771 -8.72821)
(43.6665 -3.02135 -4.05844)
(89.3305 5.27125 -5.4188)
(33.6165 -11.8101 -2.85337)
(94.2553 4.72718 -4.31493)
(20.6411 -16.0416 -1.72995)
(62.6145 -3.39106 4.24455)
(105.437 -4.5143 8.34927)
(65.442 -3.33619 0.344479)
(99.7695 -0.250523 -11.6319)
(43.6665 -3.02135 -4.05844)
(89.3305 5.27125 -5.4188)
(89.3305 5.27125 -5.4188)
)
;
    }
    procBoundary7to6
    {
        type            processor;
        value           nonuniform List<vector> 
12
(
(87.4442 1.35198 -1.1016)
(85.1596 0.460415 2.15164)
(111.539 1.96857 10.458)
(80.637 0.107758 -1.5436)
(79.0366 0.199595 -1.90445)
(102.995 1.10876 7.17114)
(83.6294 0.81472 -1.87569)
(83.2281 0.0237319 -0.506265)
(107.514 2.11121 5.91206)
(92.9619 -0.81441 -1.70869)
(99.7887 1.28459 1.61267)
(108.294 0.00823129 1.42322)
)
;
    }
}


// ************************************************************************* //
