/*--------------------------------*- C++ -*----------------------------------*\
| =========                 |                                                 |
| \\      /  F ield         | OpenFOAM: The Open Source CFD Toolbox           |
|  \\    /   O peration     | Version:  4.x                                   |
|   \\  /    A nd           | Web:      www.OpenFOAM.org                      |
|    \\/     M anipulation  |                                                 |
\*---------------------------------------------------------------------------*/
FoamFile
{
    version     2.0;
    format      ascii;
    class       volScalarField;
    location    "6";
    object      Ksl;
}
// * * * * * * * * * * * * * * * * * * * * * * * * * * * * * * * * * * * * * //

dimensions      [1 -3 -1 0 0 0 0];

internalField   nonuniform List<scalar> 
132
(
17900.8
4028.7
12722.2
4129.78
14787.2
4702.35
28268
6976.3
41788.7
17147.8
3793.46
13481.4
3673.23
13218.9
3502.83
10111.9
3533.8
7657.17
18249.9
3879.18
15505
3589.65
24653
3631.11
11659.1
3438.89
3565.45
4524.36
2830.52
4483.25
2650.87
4545.68
2400.83
4951.58
1879.56
2920.58
71534.1
4938.11
48986.5
7397.72
3.2428e+09
12268
48240.2
67293.4
4103.16
37190.4
4237.13
17452.7
4407.56
20741
5260.01
14725.2
23708.4
4340.61
26151.8
4520.79
2.8259e+06
4357.52
50436.6
4669.48
16718
5242.02
3119.73
5427.32
3042.79
6009.56
3034.65
6616.19
3068.24
5925.64
758526
4643.77
50097.8
5117.75
15951.7
21162.9
3815.54
88590.1
3563.91
34458.1
3729.38
85152.7
4039.6
16250.7
35408.2
3943.13
12981.2
3784.6
17362.1
3600.53
15507.9
3696.49
5182.18
4630.29
2915.17
4416.19
2768.74
4644.77
2537.3
5168.87
2023.31
5596.66
8460.98
3624.18
7707.54
10104.8
3643.05
18174.6
3732.68
185693
3877.85
58586.6
4207.87
13756.9
5743.51
3282.18
6865.96
3450.86
9562.84
3595.19
14669.3
4106.77
11006.7
4407.84
2864.15
4080.55
2742.54
3914.23
2528.66
3809.59
2395.17
3648.87
)
;

boundaryField
{
    inlet
    {
        type            zeroGradient;
    }
    outlet
    {
        type            zeroGradient;
    }
    wall
    {
        type            zeroGradient;
    }
    procBoundary7to0
    {
        type            processor;
        value           uniform 3971.03;
    }
    procBoundary7to1
    {
        type            processor;
        value           uniform 22242.9;
    }
    procBoundary7to3
    {
        type            processor;
        value           nonuniform List<scalar> 
36
(
60352.9
4041.51
62678.2
3902.5
22069.6
3926.8
30720.5
4416.83
34615.9
15529
3700.31
16528.3
3600.19
14737
3463.07
12825.3
3208.85
7242.37
24998.2
3869.56
46180.8
3610.1
22534.3
3347.01
20749.4
2765.13
5138.75
4601.17
2838.76
4422.56
2699.31
4891.93
2530.95
5839.51
2038.89
4568.18
)
;
    }
    procBoundary7to5
    {
        type            processor;
        value           nonuniform List<scalar> 
44
(
3834.89
48319.8
3741.39
20511.7
3505.76
12906.7
3526.63
10839
34058.6
4443.07
25148.1
4087.16
16610.4
4233.21
23524.4
4962.5
18160
34058.6
4443.07
4443.07
10833.4
4664.65
42917.3
3623.98
26919.8
3663.53
10508.5
39402.1
4656.13
10833.4
4664.65
4664.65
7159.66
3473.67
8721.22
3256.72
11406.4
5180.4
3095.2
4911.57
3204.27
7159.66
3473.67
3473.67
)
;
    }
    procBoundary7to6
    {
        type            processor;
        value           nonuniform List<scalar> 
12
(
3820.64
3968.13
3002.8
4104.54
4237.75
3240.53
3954.08
4015.27
3100.61
3540.37
3300.18
3055.97
)
;
    }
}


// ************************************************************************* //
