/*--------------------------------*- C++ -*----------------------------------*\
| =========                 |                                                 |
| \\      /  F ield         | OpenFOAM: The Open Source CFD Toolbox           |
|  \\    /   O peration     | Version:  4.x                                   |
|   \\  /    A nd           | Web:      www.OpenFOAM.org                      |
|    \\/     M anipulation  |                                                 |
\*---------------------------------------------------------------------------*/
FoamFile
{
    version     2.0;
    format      ascii;
    class       volScalarField;
    location    "6";
    object      nu;
}
// * * * * * * * * * * * * * * * * * * * * * * * * * * * * * * * * * * * * * //

dimensions      [0 2 -1 0 0 0 0];

internalField   nonuniform List<scalar> 
132
(
9.99979e-07
9.99842e-07
9.99735e-07
9.99612e-07
9.99523e-07
9.99535e-07
9.9971e-07
9.99885e-07
9.99982e-07
9.99896e-07
9.99776e-07
9.99673e-07
9.99564e-07
9.99474e-07
9.99428e-07
9.99491e-07
9.99537e-07
9.99744e-07
9.99929e-07
9.99772e-07
9.99629e-07
9.99536e-07
9.9945e-07
9.99456e-07
9.99446e-07
9.99478e-07
9.9951e-07
1.00048e-06
1.00044e-06
1.00036e-06
1.00028e-06
1.00018e-06
1.00011e-06
9.99989e-07
9.99935e-07
9.97728e-07
9.99624e-07
9.99491e-07
9.99511e-07
9.99844e-07
9.99962e-07
9.99976e-07
9.99991e-07
9.99761e-07
9.99674e-07
9.99568e-07
9.99491e-07
9.99445e-07
9.99527e-07
9.99672e-07
9.99828e-07
9.99923e-07
9.99888e-07
9.99776e-07
9.99658e-07
9.99553e-07
9.99495e-07
9.99563e-07
9.9961e-07
9.99667e-07
9.99728e-07
1.00033e-06
1.0003e-06
1.00023e-06
1.00016e-06
1.00007e-06
1.00001e-06
9.99954e-07
9.99908e-07
9.99424e-07
9.99509e-07
9.99502e-07
9.99524e-07
9.99628e-07
9.99749e-07
9.999e-07
9.99831e-07
9.9972e-07
9.99668e-07
9.99554e-07
9.99509e-07
9.99519e-07
9.99617e-07
9.99621e-07
9.99857e-07
9.99798e-07
9.99741e-07
9.99737e-07
9.99709e-07
9.99748e-07
9.99719e-07
9.99747e-07
9.99573e-07
1.00027e-06
1.00025e-06
1.00023e-06
1.00019e-06
1.00015e-06
1.00011e-06
1.00005e-06
1.00001e-06
9.98695e-07
9.99889e-07
9.99837e-07
9.96515e-07
1.00023e-06
1.00014e-06
1.00001e-06
9.99908e-07
9.99839e-07
9.99796e-07
9.99733e-07
9.99698e-07
9.99004e-07
1.00026e-06
1.00024e-06
1.00021e-06
1.00017e-06
1.00011e-06
1.00008e-06
1e-06
9.99931e-07
9.9943e-07
1.00028e-06
1.00028e-06
1.00027e-06
1.00025e-06
1.00023e-06
1.00021e-06
1.00018e-06
1.00015e-06
9.98906e-07
)
;

boundaryField
{
    inlet
    {
        type            calculated;
        value           nonuniform 0();
    }
    outlet
    {
        type            calculated;
        value           uniform 1e-06;
    }
    wall
    {
        type            calculated;
        value           nonuniform List<scalar> 
66
(
1.00023e-06
1.00026e-06
1.00028e-06
1.00014e-06
1.00024e-06
1.00028e-06
1.00001e-06
1.00021e-06
1.00027e-06
9.99908e-07
1.00017e-06
1.00025e-06
9.99839e-07
1.00011e-06
1.00023e-06
9.99796e-07
1.00008e-06
1.00021e-06
9.99889e-07
9.99733e-07
1e-06
1.00018e-06
9.99837e-07
9.99698e-07
9.99931e-07
1.00015e-06
9.96515e-07
9.99004e-07
9.9943e-07
9.98906e-07
1.00048e-06
1.00033e-06
1.00027e-06
1.00028e-06
1.00044e-06
1.0003e-06
1.00025e-06
1.00028e-06
1.00036e-06
1.00023e-06
1.00023e-06
1.00027e-06
1.00028e-06
1.00016e-06
1.00019e-06
1.00025e-06
1.00018e-06
1.00007e-06
1.00015e-06
1.00023e-06
1.00011e-06
1.00001e-06
1.00011e-06
1.00021e-06
9.99989e-07
9.99954e-07
1.00005e-06
1.00018e-06
9.99935e-07
9.99908e-07
1.00001e-06
1.00015e-06
9.97728e-07
9.99424e-07
9.98695e-07
9.98906e-07
)
;
    }
    procBoundary7to0
    {
        type            processor;
        value           uniform 1.00011e-06;
    }
    procBoundary7to1
    {
        type            processor;
        value           uniform 9.99837e-07;
    }
    procBoundary7to3
    {
        type            processor;
        value           nonuniform List<scalar> 
36
(
1.00001e-06
9.99859e-07
9.99726e-07
9.99538e-07
9.9942e-07
9.9936e-07
9.99412e-07
9.99519e-07
9.99682e-07
9.99964e-07
9.998e-07
9.99651e-07
9.99498e-07
9.99391e-07
9.99313e-07
9.99309e-07
9.99331e-07
9.99135e-07
1.00001e-06
9.99779e-07
9.99579e-07
9.99504e-07
9.99402e-07
9.99375e-07
9.99323e-07
9.99362e-07
9.98363e-07
1.00074e-06
1.00063e-06
1.0005e-06
1.00038e-06
1.00025e-06
1.00014e-06
9.99989e-07
9.99896e-07
9.93601e-07
)
;
    }
    procBoundary7to5
    {
        type            processor;
        value           nonuniform List<scalar> 
44
(
9.99681e-07
9.99532e-07
9.99424e-07
9.9936e-07
9.99368e-07
9.99453e-07
9.99552e-07
9.99723e-07
9.99868e-07
9.99752e-07
9.99561e-07
9.99483e-07
9.99432e-07
9.99489e-07
9.99618e-07
9.9976e-07
9.99917e-07
9.99868e-07
9.99752e-07
9.99752e-07
9.99665e-07
9.99646e-07
9.99567e-07
9.99539e-07
9.99497e-07
9.99554e-07
9.99555e-07
9.9993e-07
9.99798e-07
9.99665e-07
9.99646e-07
9.99646e-07
1.00005e-06
9.9998e-07
9.99964e-07
9.99907e-07
9.9894e-07
1.00023e-06
1.00018e-06
1.00015e-06
1.00011e-06
1.00005e-06
9.9998e-07
9.9998e-07
)
;
    }
    procBoundary7to6
    {
        type            processor;
        value           nonuniform List<scalar> 
12
(
1.00003e-06
1.00009e-06
1.00051e-06
9.99909e-07
1.00001e-06
1.00035e-06
1e-06
9.99988e-07
1.00027e-06
1.00026e-06
1.00026e-06
1.00028e-06
)
;
    }
}


// ************************************************************************* //
