/*--------------------------------*- C++ -*----------------------------------*\
| =========                 |                                                 |
| \\      /  F ield         | OpenFOAM: The Open Source CFD Toolbox           |
|  \\    /   O peration     | Version:  4.x                                   |
|   \\  /    A nd           | Web:      www.OpenFOAM.org                      |
|    \\/     M anipulation  |                                                 |
\*---------------------------------------------------------------------------*/
FoamFile
{
    version     2.0;
    format      ascii;
    class       volScalarField;
    location    "6";
    object      QWallFluidCoeff;
}
// * * * * * * * * * * * * * * * * * * * * * * * * * * * * * * * * * * * * * //

dimensions      [1 -1 -3 -1 0 0 0];

internalField   nonuniform List<scalar> 
132
(
0
0
0
0
0
0
0
0
0
0
0
0
0
0
0
0
0
0
0
0
0
0
0
0
0
0
0
-2.2455e+06
-3.27856e+06
-2.26321e+06
-3.46174e+06
-2.25064e+06
-3.76335e+06
-2.07666e+06
-4.53987e+06
-3.0858e+06
0
0
0
0
0
0
0
0
0
0
0
0
0
0
0
0
0
0
0
0
0
0
0
0
0
-1.98084e+06
-3.01029e+06
-1.93183e+06
-3.07213e+06
-1.77022e+06
-3.05483e+06
-1.61046e+06
-2.95518e+06
-1.70425e+06
0
0
0
0
0
0
0
0
0
0
0
0
0
0
0
0
0
0
0
0
0
0
0
-2.18117e+06
-3.16559e+06
-2.25861e+06
-3.30583e+06
-2.16821e+06
-3.52191e+06
-1.9433e+06
-4.07673e+06
-1.76323e+06
-1.25852e+06
-2.4539e+06
-1.3138e+06
-1.14916e+06
-2.60503e+06
-708493
-2.52132e+06
-108948
-2.40172e+06
-266636
-2.17028e+06
-825271
-1.81506e+06
-2.84182e+06
-1.56503e+06
-2.72983e+06
-1.18715e+06
-2.57399e+06
-818076
-2.24678e+06
-998626
-4.48536e+06
-6.34705e+06
-4.78339e+06
-6.64143e+06
-4.93964e+06
-6.90263e+06
-4.88005e+06
-7.03292e+06
-4.943e+06
)
;

boundaryField
{
    inlet
    {
        type            calculated;
        value           nonuniform 0();
    }
    outlet
    {
        type            calculated;
        value           uniform 0;
    }
    wall
    {
        type            calculated;
        value           uniform 0;
    }
    procBoundary7to0
    {
        type            processor;
        value           uniform 0;
    }
    procBoundary7to1
    {
        type            processor;
        value           uniform 0;
    }
    procBoundary7to3
    {
        type            processor;
        value           uniform 0;
    }
    procBoundary7to5
    {
        type            processor;
        value           uniform 0;
    }
    procBoundary7to6
    {
        type            processor;
        value           uniform 0;
    }
}


// ************************************************************************* //
