/*--------------------------------*- C++ -*----------------------------------*\
| =========                 |                                                 |
| \\      /  F ield         | OpenFOAM: The Open Source CFD Toolbox           |
|  \\    /   O peration     | Version:  4.x                                   |
|   \\  /    A nd           | Web:      www.OpenFOAM.org                      |
|    \\/     M anipulation  |                                                 |
\*---------------------------------------------------------------------------*/
FoamFile
{
    version     2.0;
    format      ascii;
    class       volScalarField;
    location    "6";
    object      Sm;
}
// * * * * * * * * * * * * * * * * * * * * * * * * * * * * * * * * * * * * * //

dimensions      [1 -3 -1 0 0 0 0];

internalField   nonuniform List<scalar> 
132
(
9.91543e-65
7.82432e-65
6.43008e-65
6.73977e-65
1.03024e-64
1.0378e-64
7.97533e-65
5.65112e-65
8.35934e-65
7.66917e-65
9.45133e-65
7.28232e-65
6.73987e-65
8.44352e-65
5.65411e-65
7.51172e-65
6.3488e-65
8.05084e-65
5.50045e-65
7.36011e-65
6.19811e-65
7.12762e-65
7.43714e-65
8.05615e-65
7.51279e-65
7.20178e-65
8.59444e-65
5.1134e-65
7.28324e-65
8.75532e-65
5.50108e-65
7.20548e-65
6.74007e-65
7.97865e-65
5.88683e-65
4.33738e-65
6.43021e-65
7.35963e-65
6.73924e-65
6.89306e-65
8.59526e-65
8.43856e-65
7.35369e-65
3.95089e-65
8.52198e-65
7.43747e-65
7.51471e-65
8.1338e-65
7.04846e-65
5.65297e-65
7.74256e-65
5.72862e-65
5.81053e-65
8.52251e-65
6.97302e-65
5.73322e-65
7.35972e-65
8.59845e-65
8.90689e-65
7.04717e-65
7.97539e-65
5.65574e-65
8.44598e-65
5.88874e-65
7.2833e-65
7.36044e-65
6.19791e-65
6.58446e-65
7.97808e-65
5.34415e-65
5.0352e-65
5.80911e-65
7.35693e-65
6.03951e-65
5.80602e-65
8.05716e-65
7.36019e-65
6.81799e-65
5.19077e-65
8.52163e-65
7.04876e-65
7.12479e-65
8.75013e-65
7.50988e-65
7.0504e-65
7.36061e-65
7.51558e-65
6.97307e-65
8.28978e-65
7.59181e-65
7.66836e-65
7.04777e-65
7.74396e-65
5.3463e-65
6.27632e-65
7.05114e-65
6.89609e-65
6.12107e-65
5.26851e-65
7.59196e-65
7.04949e-65
5.80926e-65
5.49893e-65
6.42771e-65
6.11736e-65
6.89531e-65
5.81106e-65
7.67053e-65
7.43801e-65
5.19069e-65
3.87335e-65
6.89329e-65
6.66026e-65
5.42047e-65
5.96606e-65
6.04379e-65
6.0438e-65
6.19874e-65
6.89561e-65
6.35281e-65
7.20398e-65
6.42919e-65
7.28043e-65
6.27635e-65
7.3614e-65
5.65668e-65
5.81168e-65
6.58633e-65
6.50854e-65
6.50784e-65
6.35283e-65
4.1061e-65
)
;

boundaryField
{
    inlet
    {
        type            calculated;
        value           nonuniform 0();
    }
    outlet
    {
        type            calculated;
        value           uniform 0;
    }
    wall
    {
        type            calculated;
        value           uniform 0;
    }
    procBoundary7to0
    {
        type            processor;
        value           uniform 2.32366e-65;
    }
    procBoundary7to1
    {
        type            processor;
        value           uniform 5.73245e-65;
    }
    procBoundary7to3
    {
        type            processor;
        value           nonuniform List<scalar> 
36
(
7.66906e-65
8.98639e-65
8.83162e-65
8.5216e-65
6.1195e-65
6.19608e-65
8.59541e-65
6.81247e-65
7.74056e-65
8.98601e-65
5.11301e-65
7.74709e-65
4.33828e-65
4.64779e-65
7.90039e-65
7.27957e-65
8.82659e-65
6.11581e-65
5.65547e-65
8.28968e-65
8.21226e-65
5.81044e-65
6.81718e-65
7.97855e-65
6.66106e-65
7.20166e-65
5.42034e-65
5.73329e-65
3.874e-65
5.42365e-65
6.12095e-65
5.57832e-65
7.12755e-65
6.19716e-65
7.90078e-65
8.51931e-65
)
;
    }
    procBoundary7to5
    {
        type            processor;
        value           nonuniform List<scalar> 
44
(
8.44427e-65
6.04294e-65
7.43711e-65
5.80985e-65
4.56979e-65
6.96938e-65
5.72915e-65
8.6694e-65
9.99318e-65
4.41591e-65
7.28266e-65
7.59231e-65
6.19724e-65
7.04838e-65
7.12454e-65
6.89086e-65
5.57404e-65
9.99318e-65
4.41591e-65
4.41591e-65
8.98736e-65
7.97994e-65
1.01486e-64
7.35886e-65
8.20952e-65
8.90508e-65
8.67174e-65
3.56366e-65
9.37455e-65
8.98736e-65
7.97994e-65
7.97994e-65
9.68408e-65
7.74646e-65
6.50653e-65
6.73809e-65
6.81478e-65
7.20532e-65
5.50111e-65
7.28321e-65
5.65599e-65
9.68408e-65
7.74646e-65
7.74646e-65
)
;
    }
    procBoundary7to6
    {
        type            processor;
        value           nonuniform List<scalar> 
12
(
6.73899e-65
7.1269e-65
4.95832e-65
8.52098e-65
7.59194e-65
7.51497e-65
7.9016e-65
7.74709e-65
5.65597e-65
3.79625e-65
7.82522e-65
6.04373e-65
)
;
    }
}


// ************************************************************************* //
