/*--------------------------------*- C++ -*----------------------------------*\
| =========                 |                                                 |
| \\      /  F ield         | OpenFOAM: The Open Source CFD Toolbox           |
|  \\    /   O peration     | Version:  4.x                                   |
|   \\  /    A nd           | Web:      www.OpenFOAM.org                      |
|    \\/     M anipulation  |                                                 |
\*---------------------------------------------------------------------------*/
FoamFile
{
    version     2.0;
    format      ascii;
    class       volVectorField;
    location    "6";
    object      Urel;
}
// * * * * * * * * * * * * * * * * * * * * * * * * * * * * * * * * * * * * * //

dimensions      [0 1 -1 0 0 0 0];

internalField   nonuniform List<vector> 
132
(
(-0.0180745 -2.61091e-05 0.000193135)
(-0.0197606 -3.96503e-05 0.00047405)
(-0.0180656 -5.96519e-05 0.000787339)
(-0.0195277 -5.31439e-05 0.00115994)
(-0.0175686 -7.15704e-05 0.00155119)
(-0.0183245 -4.61469e-05 0.00210293)
(-0.0155758 -3.62811e-05 0.0026137)
(-0.0155799 1.05528e-05 0.00313339)
(-0.012958 2.21994e-05 0.00431073)
(-0.0184943 -0.000253627 0.000133615)
(-0.0203522 -0.000272946 0.000426876)
(-0.0186211 -0.000348792 0.000802068)
(-0.0203516 -0.000290738 0.00118108)
(-0.0184472 -0.000677187 0.00156555)
(-0.01985 -0.000907448 0.00204112)
(-0.0174222 -0.00148719 0.00272759)
(-0.0181982 -0.00172871 0.0032502)
(-0.0151759 -0.00324583 0.00483532)
(-0.0197884 -0.000393339 -0.000153394)
(-0.0215503 -0.000342171 0.00012251)
(-0.0198849 -0.000386784 0.000789456)
(-0.0217599 -0.000350936 0.00129148)
(-0.0198317 -0.000626701 0.00135763)
(-0.0218293 -0.000818478 0.00177373)
(-0.0197096 -0.00163371 0.00258683)
(-0.0212394 -0.00225799 0.00342108)
(-0.0178527 -0.00534903 0.00564392)
(-0.0229342 -0.000634 -0.000682247)
(-0.0244352 -0.000580691 -0.000455455)
(-0.0234263 -0.000566545 0.000103951)
(-0.0249678 -0.00053082 0.000463309)
(-0.0236118 -0.000707282 0.00100716)
(-0.0253076 -0.000720062 0.0014191)
(-0.0232492 -0.00174392 0.00256649)
(-0.0252342 -0.00240217 0.00365113)
(-0.020519 -0.00555371 0.00695379)
(-0.0177632 3.69335e-05 0.000606102)
(-0.0191509 2.74785e-05 0.000711126)
(-0.0171548 5.24332e-05 0.00109149)
(-0.017057 6.47108e-05 0.00141053)
(-0.0140575 0.000160327 0.00179626)
(-0.0134956 0.000226876 0.00223456)
(-0.0111569 0.000436452 0.00278814)
(-0.018379 -0.000188646 0.000157577)
(-0.0202462 -0.000170199 0.0005582)
(-0.018374 -0.000177677 0.000669448)
(-0.019934 -0.000107249 0.000991751)
(-0.0179897 -0.00070012 0.0012576)
(-0.0188661 -0.00094681 0.00156091)
(-0.0162671 -0.00117061 0.00188258)
(-0.0165746 -0.0012978 0.00216864)
(-0.0139584 -0.002257 0.00296976)
(-0.0199431 -0.000304279 -0.000124843)
(-0.021631 -0.000218513 0.000170475)
(-0.0200056 -0.000291561 0.000490417)
(-0.0211357 -0.000239335 0.000818302)
(-0.0190311 -0.000594686 0.00116247)
(-0.0209242 -0.000806026 0.00157077)
(-0.0187888 -0.00129837 0.00194392)
(-0.019804 -0.00184848 0.00244921)
(-0.0169925 -0.00359703 0.00364002)
(-0.0229784 -0.000519815 -0.00060265)
(-0.0244405 -0.000471084 -0.000396218)
(-0.0233536 -0.000583595 9.38379e-06)
(-0.0246333 -0.000559348 0.000303913)
(-0.0231057 -0.000648618 0.000826219)
(-0.0244826 -0.000652743 0.00122057)
(-0.0224259 -0.0014377 0.00206179)
(-0.0233877 -0.0019607 0.00280353)
(-0.0199251 -0.00401598 0.0049003)
(-0.0181141 0.000159114 0.000812607)
(-0.0192374 0.000181697 0.000796774)
(-0.0167324 0.000350356 0.000739039)
(-0.0170285 0.000386353 0.000920581)
(-0.014562 0.000884601 0.000258416)
(-0.0194985 -0.000157077 9.10943e-05)
(-0.021056 -0.000349155 0.00053151)
(-0.018865 -5.4874e-05 0.000584055)
(-0.0207335 0.000275015 0.00101183)
(-0.0184729 -0.000130879 0.000943385)
(-0.0198787 -0.000218367 0.000990515)
(-0.0171316 -0.000517093 0.00112048)
(-0.0181706 -0.000720283 0.0012608)
(-0.0155262 -0.00159185 0.00129032)
(-0.0207071 -0.000236208 -0.000106547)
(-0.0225781 -0.0002584 0.000193455)
(-0.0210401 -0.000186021 0.000366864)
(-0.0224643 -4.75426e-05 0.000629738)
(-0.0203691 -0.000304225 0.000908865)
(-0.0218563 -0.000406515 0.0012697)
(-0.0193795 -0.000928753 0.00142468)
(-0.0205105 -0.00126531 0.00173163)
(-0.0176889 -0.00342372 0.00212063)
(-0.0237021 -0.000323056 -0.00050414)
(-0.0252183 -0.000255218 -0.000315636)
(-0.0243035 -0.00028242 -7.62345e-05)
(-0.0255438 -0.00021677 0.000172644)
(-0.0240508 -0.000445815 0.000567535)
(-0.0252944 -0.000496531 0.000907283)
(-0.0230947 -0.00125274 0.00145783)
(-0.02429 -0.00152417 0.00199104)
(-0.0202328 -0.00380562 0.0029121)
(-0.0190073 0.000486651 0.000706312)
(-0.0198606 0.000484516 0.000721814)
(-0.0169206 0.00124234 0.000138951)
(-0.0209449 -5.89127e-06 4.04373e-05)
(-0.022175 -2.60271e-05 0.000289483)
(-0.0199702 5.35927e-05 0.000501436)
(-0.0215963 0.00015975 0.000966603)
(-0.0188325 -6.1499e-05 0.000907763)
(-0.0207251 -9.22629e-05 0.000812513)
(-0.0181591 -0.000254023 0.00094335)
(-0.0194119 -0.000486701 0.00102385)
(-0.0167219 -0.000616432 0.00113535)
(-0.022503 -0.000204626 -3.45302e-05)
(-0.0238291 -0.000238354 0.00026881)
(-0.0223116 -0.000108671 0.000480456)
(-0.023527 -5.83582e-05 0.000790611)
(-0.0215048 -0.000190226 0.000942099)
(-0.0226769 -0.00020684 0.00111039)
(-0.0201513 -0.000709004 0.00129796)
(-0.0211298 -0.000994152 0.00152722)
(-0.018388 -0.00221915 0.00199022)
(-0.0245301 -0.000226138 -0.000249799)
(-0.0259905 -0.000223935 -5.5014e-05)
(-0.0252253 -0.000235829 0.00018536)
(-0.0264069 -0.000235394 0.000417355)
(-0.0252006 -0.000448342 0.000751677)
(-0.0261622 -0.000572322 0.000952794)
(-0.0243029 -0.00117782 0.00158067)
(-0.0249469 -0.00142492 0.0018994)
(-0.0219121 -0.0030283 0.00329387)
)
;

boundaryField
{
    inlet
    {
        type            calculated;
        value           nonuniform 0();
    }
    outlet
    {
        type            calculated;
        value           nonuniform List<vector> 
16
(
(0.0112475 7.71465e-05 0.0125628)
(-0.00253027 -0.015091 0.0155244)
(-0.00750597 -0.0286766 0.0192865)
(-0.0151453 -0.0229744 0.0303848)
(0.0304711 0.000917107 0.00910726)
(0.00376189 -0.00851916 0.0034977)
(-0.00342608 -0.00724504 0.00420657)
(-0.0149288 -0.00790464 0.015354)
(-0.00136876 0.00252289 -0.0125323)
(-0.00442381 -0.00733729 -0.00266694)
(-0.00736728 -0.0180133 -0.000753747)
(-0.0106746 -0.0140995 0.0010625)
(-0.0120091 0.00410051 -0.00575236)
(-0.00594975 0.00116459 0.00145606)
(-0.00595456 -0.00492998 0.00171675)
(-0.0280139 -0.00832058 0.012972)
)
;
    }
    wall
    {
        type            calculated;
        value           nonuniform List<vector> 
66
(
(7.04592e-06 2.00157e-06 1.41561e-05)
(6.56527e-06 -4.15538e-07 1.61098e-05)
(1.2197e-05 3.14442e-06 2.16439e-05)
(4.58184e-06 -1.81199e-06 8.36242e-06)
(7.23063e-06 5.87182e-07 8.83421e-06)
(9.10854e-06 1.99413e-06 1.42621e-05)
(6.75743e-06 -9.40851e-07 4.5638e-06)
(4.3452e-06 -4.24984e-06 9.81507e-06)
(1.16676e-05 -4.89496e-07 1.03789e-05)
(6.15195e-06 -1.34364e-06 5.0544e-06)
(4.58457e-06 -8.27424e-07 5.90528e-06)
(1.15829e-05 5.68147e-07 1.07239e-05)
(7.38051e-06 -1.64698e-06 7.9162e-06)
(4.75137e-06 -1.39701e-06 6.60185e-06)
(5.81221e-06 -4.39907e-07 9.50814e-06)
(2.17409e-06 4.72706e-08 5.06331e-06)
(3.21791e-06 -9.85301e-07 1.30776e-05)
(4.8377e-06 2.62428e-07 7.74012e-06)
(3.71715e-06 8.585e-07 7.32631e-06)
(1.99349e-06 -4.49619e-07 4.94712e-06)
(2.17254e-06 1.00359e-06 7.48846e-06)
(2.64149e-06 3.83158e-07 3.90248e-06)
(1.45329e-06 7.44351e-07 8.00954e-06)
(-2.36072e-07 1.62816e-06 1.06004e-05)
(9.39601e-07 2.36576e-06 6.94477e-06)
(2.44509e-06 8.03481e-07 6.5491e-06)
(2.85339e-06 2.49589e-06 1.7423e-05)
(1.50965e-06 9.71058e-07 9.49011e-06)
(1.54997e-06 -5.63802e-08 5.80159e-06)
(8.80597e-06 5.09478e-07 1.03549e-05)
(7.95082e-06 1.47465e-06 2.13617e-05)
(-1.75301e-06 -5.36177e-07 1.83956e-05)
(8.9673e-06 2.37445e-06 1.5812e-05)
(1.2197e-05 3.14442e-06 2.16439e-05)
(5.23517e-06 -1.63093e-07 2.1942e-05)
(2.69676e-06 1.08673e-07 2.25955e-05)
(6.86854e-06 -7.71422e-07 1.92339e-05)
(9.10854e-06 1.99413e-06 1.42621e-05)
(5.27591e-06 3.84246e-07 1.82695e-05)
(3.24308e-06 -2.69739e-07 1.85617e-05)
(8.99716e-06 7.92658e-07 1.47702e-05)
(1.16676e-05 -4.89496e-07 1.03789e-05)
(8.40137e-06 -1.65171e-06 1.72019e-05)
(7.30942e-06 -4.59379e-07 1.37858e-05)
(6.50864e-06 5.90457e-07 1.11794e-05)
(1.15829e-05 5.68147e-07 1.07239e-05)
(3.38798e-06 -1.00583e-06 1.36459e-05)
(7.12252e-06 7.50008e-07 1.1012e-05)
(5.59434e-06 -1.37592e-06 9.47141e-06)
(5.81221e-06 -4.39907e-07 9.50814e-06)
(3.22994e-06 -4.00922e-07 1.5331e-05)
(7.2579e-06 5.78507e-07 1.18271e-05)
(1.08031e-05 -1.18799e-06 1.2115e-05)
(4.8377e-06 2.62428e-07 7.74012e-06)
(1.89244e-06 -3.08662e-07 9.38811e-06)
(7.26754e-06 2.14678e-08 6.34938e-06)
(1.73913e-06 6.11005e-07 5.77236e-06)
(2.64149e-06 3.83158e-07 3.90248e-06)
(2.77962e-06 -1.78555e-06 4.17274e-06)
(3.80661e-06 1.24797e-08 5.23628e-06)
(2.67113e-06 1.84562e-06 4.55602e-06)
(2.44509e-06 8.03481e-07 6.5491e-06)
(1.04252e-06 -9.25083e-07 6.29693e-06)
(3.12511e-07 7.08618e-07 5.4927e-06)
(2.59262e-07 5.46074e-07 4.64028e-06)
(8.80597e-06 5.09478e-07 1.03549e-05)
)
;
    }
    procBoundary7to0
    {
        type            processor;
        value           uniform (-0.0197959 -5.06056e-05 -0.0001166);
    }
    procBoundary7to1
    {
        type            processor;
        value           uniform (-0.0184064 0.000200359 6.11204e-05);
    }
    procBoundary7to3
    {
        type            processor;
        value           nonuniform List<vector> 
36
(
(-0.0178964 -6.07734e-05 0.00015647)
(-0.0196978 -6.7674e-05 0.000441974)
(-0.0178033 -0.000108138 0.000625381)
(-0.019784 -0.000177878 0.000952684)
(-0.0178858 -0.000184137 0.00146995)
(-0.0193173 -0.000151493 0.00205048)
(-0.0170512 -0.000200628 0.00254061)
(-0.0180117 -0.000145876 0.0032922)
(-0.0154143 -0.000421998 0.00433376)
(-0.0185515 -0.000292071 0.000100425)
(-0.0203547 -0.000209948 0.000409204)
(-0.0185257 -0.000381662 0.000679158)
(-0.020592 -0.00048674 0.00105031)
(-0.0187734 -0.000714371 0.00152625)
(-0.0205803 -0.000796573 0.00205307)
(-0.0183914 -0.0013144 0.00262274)
(-0.0199128 -0.00155471 0.00347932)
(-0.0168532 -0.00313583 0.00460368)
(-0.0197454 -0.000510359 -0.000191864)
(-0.0214044 -0.000456896 0.000146365)
(-0.0194166 -0.000445546 0.000480726)
(-0.0218995 -0.000437059 0.000859285)
(-0.0200678 -0.000681488 0.0013692)
(-0.0222376 -0.000807555 0.00189408)
(-0.0200714 -0.00147533 0.00249079)
(-0.022066 -0.00204958 0.00354989)
(-0.0185134 -0.00465271 0.00504382)
(-0.0227725 -0.000849825 -0.000785843)
(-0.0242559 -0.000882238 -0.000565654)
(-0.0232026 -0.00074128 -0.000140658)
(-0.0248386 -0.000586756 0.000208969)
(-0.023471 -0.000695219 0.000839474)
(-0.0252425 -0.000723951 0.00135345)
(-0.0231444 -0.00160049 0.00222423)
(-0.0251453 -0.00221713 0.00368431)
(-0.0205432 -0.0049394 0.00615944)
)
;
    }
    procBoundary7to5
    {
        type            processor;
        value           nonuniform List<vector> 
44
(
(-0.020217 0.000206643 0.000245)
(-0.0182522 0.000186505 0.000504253)
(-0.0201589 0.000129927 0.000904302)
(-0.0181687 0.000485369 0.00123441)
(-0.0197126 0.000783976 0.00177325)
(-0.017279 0.00142229 0.00225622)
(-0.018153 0.00179767 0.00283581)
(-0.0151976 0.00331458 0.00383667)
(-0.0181039 3.98408e-05 0.000164573)
(-0.0196065 9.52304e-05 0.00065779)
(-0.0185299 0.000323948 0.000461613)
(-0.020172 0.000257656 0.000868718)
(-0.0182412 0.000864366 0.00106397)
(-0.019239 0.00113933 0.00137841)
(-0.016643 0.00152993 0.00153803)
(-0.0170208 0.00184396 0.00181413)
(-0.0142559 0.00316081 0.00213654)
(-0.0181039 3.98408e-05 0.000164573)
(-0.0196065 9.52304e-05 0.00065779)
(-0.0196065 9.52304e-05 0.00065779)
(-0.0178099 3.82012e-05 0.000616595)
(-0.0201099 0.000100737 0.00089031)
(-0.0193338 0.000524544 0.000864076)
(-0.0208551 0.000709708 0.00100947)
(-0.0182365 0.00131207 0.000870193)
(-0.0192339 0.0017071 0.000940637)
(-0.0163376 0.00344333 0.000291499)
(-0.019142 0.000141731 -9.28379e-07)
(-0.0205161 0.000224108 0.000416225)
(-0.0178099 3.82012e-05 0.000616595)
(-0.0201099 0.000100737 0.00089031)
(-0.0201099 0.000100737 0.00089031)
(-0.0201956 0.000209911 0.000960046)
(-0.0212607 8.48982e-05 0.000955443)
(-0.0202305 0.00143915 0.000859304)
(-0.0210671 0.00187102 0.000776708)
(-0.0179685 0.00332714 0.000330155)
(-0.0217719 0.000353187 -0.000186342)
(-0.0229108 0.000424285 -1.99127e-05)
(-0.0212628 0.00028881 0.000525757)
(-0.0223006 0.000243988 0.00120064)
(-0.0201956 0.000209911 0.000960046)
(-0.0212607 8.48982e-05 0.000955443)
(-0.0212607 8.48982e-05 0.000955443)
)
;
    }
    procBoundary7to6
    {
        type            processor;
        value           nonuniform List<vector> 
12
(
(-0.0202303 -0.000258679 -9.07494e-05)
(-0.0213446 -0.000412622 -0.000416917)
(-0.0237502 -0.000637133 -0.00096836)
(-0.0202532 -0.000176342 -9.32992e-05)
(-0.021448 -0.000343411 -0.00031761)
(-0.023766 -0.000503172 -0.000812636)
(-0.0212144 -0.000143735 -0.000141631)
(-0.02226 -0.000246161 -0.000303081)
(-0.0243977 -0.000385989 -0.000669439)
(-0.0225437 -2.02046e-05 -0.000135186)
(-0.0236329 -0.000233201 -0.000277755)
(-0.025093 -0.000272867 -0.000438122)
)
;
    }
}


// ************************************************************************* //
