/*--------------------------------*- C++ -*----------------------------------*\
| =========                 |                                                 |
| \\      /  F ield         | OpenFOAM: The Open Source CFD Toolbox           |
|  \\    /   O peration     | Version:  4.x                                   |
|   \\  /    A nd           | Web:      www.OpenFOAM.org                      |
|    \\/     M anipulation  |                                                 |
\*---------------------------------------------------------------------------*/
FoamFile
{
    version     2.0;
    format      ascii;
    class       volVectorField;
    location    "51.5";
    object      GField;
}
// * * * * * * * * * * * * * * * * * * * * * * * * * * * * * * * * * * * * * //

dimensions      [1 -2 -1 0 0 0 0];

internalField   nonuniform List<vector> 
114
(
(90.8499 3.48856 0.649662)
(8.428 0.75551 -0.806506)
(77.9898 1.26273 2.91414)
(2.86389e-05 5.34485e-06 -5.21208e-06)
(54.8548 -1.89172 6.09456)
(4.90849 1.69718 -0.214844)
(1.05682 -0.220853 -0.155148)
(89.4429 3.51008 1.02888)
(1.65702 -0.461984 -0.40677)
(86.1019 3.60519 4.98234)
(4.91693 -1.46288 -2.10543)
(74.5015 8.66068 12.5844)
(19.539 -2.97958 -16.0245)
(79.3482 1.71744 0.194594)
(3.53273e-05 2.40758e-06 4.26339e-06)
(77.9227 0.607873 0.779129)
(3.39878e-05 -4.58273e-08 -3.59373e-06)
(75.1361 -1.11216 2.23462)
(3.26933e-05 1.12886e-06 -7.09713e-06)
(64.4581 -4.6513 3.68014)
(19.8645 0.810396 -2.18391)
(45.4606 -0.81072 0.732408)
(106.478 -0.90918 2.38803)
(43.8101 -1.08919 2.60898)
(110.335 0.456122 3.67074)
(39.6953 -2.52054 5.38979)
(115.542 2.64282 2.00123)
(31.6978 -6.33081 10.3645)
(126.972 6.55466 -3.16347)
(21.2969 -19.5423 23.6029)
(10.5176 -1.29218 0.201056)
(92.6343 -0.208834 0.754692)
(4.77867 -0.906096 0.234913)
(93.6082 1.6129 0.215)
(3.28182 -1.0035 0.428077)
(93.1757 5.52074 -0.362572)
(9.76151 -5.2861 2.98178)
(88.5846 12.1045 -3.41967)
(27.8926 -30.0216 19.2087)
(3.46048e-05 -2.77868e-06 7.85645e-06)
(87.1878 0.90436 0.181949)
(3.62001e-05 -5.48204e-06 1.19852e-05)
(87.4255 0.795672 0.934664)
(1.74146 -0.569615 0.532115)
(89.0496 0.479055 1.80646)
(7.91453 -3.57607 3.27341)
(84.6767 5.95587 -2.24159)
(19.3447 -9.90483 8.55752)
(3.46463e-05 -2.77672e-06 2.94458e-06)
(84.399 -0.890178 -0.188828)
(42.0298 0.401633 -0.960864)
(101.193 0.317474 0.159368)
(39.4902 1.10441 -0.752027)
(103.168 1.10081 0.164293)
(36.2267 1.55713 0.349264)
(105.319 1.83593 -0.228888)
(28.3326 1.5018 3.47706)
(106.598 2.0023 -5.86188)
(14.4194 0.34242 14.8325)
(21.5679 -1.02906 -0.221395)
(94.6334 -0.230588 0.831499)
(17.8847 -1.2874 0.165267)
(97.0072 1.33336 -0.356509)
(14.3031 -1.90947 0.926744)
(99.2993 5.21225 -2.55827)
(13.1368 -3.51028 3.19088)
(102.164 13.0142 -9.02215)
(15.8578 -13.3092 18.3103)
(3.65595 -0.123918 0.135509)
(88.3444 0.872004 -0.177863)
(3.51459e-05 1.24491e-07 5.9241e-06)
(86.4391 2.02225 -0.170541)
(3.38826e-05 -1.9425e-06 5.71884e-06)
(82.0079 1.95166 -1.17942)
(6.4927 -0.926502 2.39497)
(74.3425 1.85261 -5.43184)
(25.9079 -8.83156 27.6019)
(6.09374 -0.230169 0.507728)
(89.8034 0.701175 0.0283846)
(3.6996 -0.138146 0.599994)
(91.5426 0.435123 -0.344597)
(66.3399 -0.249091 2.17885)
(117.152 -0.351374 2.72584)
(69.0878 0.0330709 3.10683)
(125.038 0.0855125 1.9983)
(69.104 -0.974261 6.26798)
(140.154 0.74734 0.058646)
(63.1304 -4.70981 14.1822)
(173.988 3.13691 -7.31665)
(33.7067 -21.3039 39.0727)
(52.6214 -2.57332 1.16101)
(108.929 -1.78723 1.80482)
(53.5436 -3.36687 1.29313)
(114.748 -0.587651 0.38187)
(51.4363 -5.02615 2.449)
(122.663 1.99462 -2.31106)
(43.3266 -8.77027 5.78592)
(134.431 9.75718 -9.62306)
(19.9398 -19.1826 13.2993)
(44.0025 -1.46339 1.1887)
(102.6 -0.851795 1.4506)
(42.8919 -2.06425 1.95405)
(106.343 -0.359983 0.57821)
(42.0458 -2.84388 4.80745)
(113.624 1.05337 -2.55077)
(38.6179 -4.34152 11.1171)
(131.777 4.65198 -11.8311)
(23.8827 -5.99717 28.4979)
(43.1689 -1.94647 0.631739)
(102.883 -1.51669 0.517169)
(41.551 -2.9393 0.553089)
(105.999 -1.86343 -1.2848)
(38.2332 -4.94642 1.43447)
(111.862 -1.2474 -2.398)
)
;

boundaryField
{
    inlet
    {
        type            calculated;
        value           nonuniform 0();
    }
    outlet
    {
        type            calculated;
        value           nonuniform List<vector> 
12
(
(10.7712 3.72432 -0.471456)
(42.9586 -6.55093 -35.2316)
(43.838 1.78842 -4.81955)
(46.7626 -42.9099 51.8261)
(61.5841 -66.2849 42.4109)
(42.7739 -21.901 18.9219)
(31.7455 0.753865 32.6549)
(34.9615 -29.3426 40.3684)
(57.7874 -19.6987 61.5657)
(74.0362 -46.7938 85.8227)
(43.9371 -42.2688 29.3049)
(52.9836 -13.3047 63.2225)
)
;
    }
    wall
    {
        type            calculated;
        value           uniform (0 0 0);
    }
    procBoundary5to1
    {
        type            processor;
        value           nonuniform List<vector> 
32
(
(116.528 2.21538 -3.88062)
(44.315 2.06637 -10.1625)
(121.411 3.24405 0.322585)
(33.9307 1.06265 -16.3083)
(126.622 3.87612 10.921)
(19.5197 -0.443381 -28.4357)
(27.821 -3.18586 -3.65203)
(108.064 0.862679 0.491589)
(26.615 -5.6662 -6.49708)
(113.375 4.33296 3.55633)
(25.0934 -10.6303 -12.0323)
(120.53 13.132 12.1588)
(19.7363 -24.3149 -26.5899)
(91.1203 -0.0136013 0.558758)
(4.4088 -0.352463 -1.46636)
(91.6091 1.56475 0.324438)
(5.86918 -0.95743 -2.74312)
(91.5315 2.98177 1.83251)
(12.4557 -4.61814 -7.40954)
(86.8362 8.78904 7.72296)
(27.6775 -21.7831 -17.1357)
(37.2408 0.442765 -1.32544)
(98.3656 1.77883 -0.460517)
(25.0975 1.34433 -1.24799)
(25.0975 1.34433 -1.24799)
(25.0975 1.34433 -1.24799)
(5.65338 -0.842757 -0.532423)
(89.6475 1.88445 -1.0778)
(89.6475 1.88445 -1.0778)
(89.6475 1.88445 -1.0778)
(3.1579e-05 1.07322e-06 3.27284e-06)
(3.1579e-05 1.07322e-06 3.27284e-06)
)
;
    }
    procBoundary5to4
    {
        type            processor;
        value           nonuniform List<vector> 
12
(
(102.82 -1.51561 0.65442)
(91.7693 -1.87911 0.855088)
(87.6362 0.204555 -0.577345)
(84.8249 0.00399427 0.265115)
(100.093 -0.345686 0.47452)
(93.1276 -1.52381 1.24915)
(88.4111 0.235839 0.876054)
(88.6215 -0.162918 0.757758)
(111.288 -0.833853 2.97653)
(104.9 -2.12614 2.40002)
(100.039 -0.683731 2.53493)
(100.244 -1.30699 1.44525)
)
;
    }
    procBoundary5to7
    {
        type            processor;
        value           nonuniform List<vector> 
44
(
(88.644 1.20915 -0.392367)
(3.88295 0.866388 -1.12719)
(88.4552 1.67892 -0.154277)
(1.14813 0.360909 -0.479079)
(86.1821 2.28582 2.27569)
(0.425254 0.185823 -0.238039)
(74.683 -3.90782 9.7758)
(10.1643 4.23523 -5.54935)
(5.10135 0.592529 -0.89146)
(88.644 1.20915 -0.392367)
(3.47492e-05 -4.46428e-06 3.59377e-06)
(83.8249 -1.13608 1.51421)
(3.1324e-05 -5.87931e-06 2.71633e-06)
(82.288 -0.33045 2.55202)
(2.84778e-05 -6.46994e-06 2.98449e-06)
(73.4913 6.00029 2.63524)
(16.841 -3.88042 4.30893)
(3.37011e-05 1.70114e-06 -6.31448e-08)
(3.47492e-05 -4.46428e-06 3.59377e-06)
(81.5517 -0.565287 -0.0782066)
(3.47492e-05 -4.46428e-06 3.59377e-06)
(83.8249 -1.13608 1.51421)
(6.40847 -0.331482 1.8642)
(92.8403 0.755327 -0.278401)
(12.3096 -0.647631 6.75733)
(88.0557 -0.386758 -7.32254)
(26.4603 -1.78293 34.7009)
(1.28186 -0.00201758 0.156294)
(86.4562 0.506885 0.0277249)
(3.4654e-05 1.51835e-06 5.76221e-06)
(6.40847 -0.331482 1.8642)
(85.8461 -0.479242 0.459069)
(6.40847 -0.331482 1.8642)
(92.8403 0.755327 -0.278401)
(34.9613 -10.5943 5.02474)
(126.481 3.91569 -5.43447)
(22.792 -21.8341 18.5971)
(35.9332 -1.0701 0.455587)
(96.7899 -0.786989 -0.257713)
(31.9759 -1.7424 0.189825)
(95.975 -1.14846 -1.22014)
(27.4838 -2.74544 0.925538)
(34.9613 -10.5943 5.02474)
(94.7957 -1.33161 -4.44195)
)
;
    }
}


// ************************************************************************* //
