/*--------------------------------*- C++ -*----------------------------------*\
  =========                 |
  \\      /  F ield         | OpenFOAM: The Open Source CFD Toolbox
   \\    /   O peration     | Website:  https://openfoam.org
    \\  /    A nd           | Version:  4.x
     \\/     M anipulation  |
\*---------------------------------------------------------------------------*/
FoamFile
{
    version     2.0;
    format      ascii;
    class       vectorField;
    location    0;
    object      v;
}
// * * * * * * * * * * * * * * * * * * * * * * * * * * * * * * * * * * * * * //

258
(
( -1.00101e-09 1.53889e-09 2.49679e-09 )  
( -2.34175e-09 3.57737e-09 7.36295e-10 )  
( -1.20075e-09 1.67939e-09 2.41399e-09 )  
( 7.90077e-10 1.78167e-09 2.79998e-09 )  
( 4.90635e-12 1.52108e-09 1.89666e-09 )  
( -1.35243e-09 1.88289e-09 3.18923e-09 )  
( -6.77271e-09 3.74027e-09 4.25784e-09 )  
( -2.59601e-09 2.73605e-09 5.13182e-09 )  
( -8.45287e-09 2.5778e-09 7.18481e-09 )  
( -8.788e-09 3.24984e-09 5.99549e-09 )  
( -1.06357e-09 2.68633e-09 3.174e-09 )  
( -1.18632e-09 3.25032e-09 3.02279e-09 )  
( -1.5382e-09 2.22558e-09 4.25357e-09 )  
( -3.64254e-09 3.86479e-09 6.39047e-09 )  
( -2.57092e-09 2.64083e-09 4.9275e-09 )  
( -4.38017e-10 2.45611e-09 2.59856e-09 )  
( -1.54848e-09 1.80291e-09 3.22335e-09 )  
( -1.43604e-11 8.27285e-10 1.31356e-09 )  
( -8.65244e-10 1.42014e-09 3.48305e-09 )  
( -1.48739e-09 1.65067e-09 3.41203e-09 )  
( -5.29548e-11 2.02095e-09 3.58762e-09 )  
( 1.49835e-09 -9.9392e-11 1.23841e-09 )  
( -6.96446e-09 4.74227e-09 3.21318e-09 )  
( -2.0226e-09 2.90026e-09 4.04389e-09 )  
( -3.80432e-09 2.81371e-09 5.45235e-09 )  
( -4.73293e-09 2.87867e-09 4.53767e-09 )  
( -1.11579e-08 3.08866e-09 5.86403e-09 )  
( -1.41902e-09 2.51539e-09 3.28994e-09 )  
( -4.83917e-09 2.93455e-09 5.39996e-09 )  
( -8.10767e-10 8.50221e-10 1.94856e-09 )  
( -1.33425e-09 2.42451e-09 3.72803e-09 )  
( -6.88476e-09 1.65612e-09 4.73532e-09 )  
( -4.76105e-09 3.80523e-09 4.18442e-09 )  
( -2.3937e-09 3.0626e-09 2.52139e-09 )  
( -2.85561e-10 3.13742e-10 5.1167e-10 )  
( -4.80945e-09 3.81766e-09 2.98524e-09 )  
( 3.67059e-10 1.53287e-09 2.57572e-09 )  
( -4.47589e-09 2.99081e-09 5.5951e-09 )  
( -4.19321e-09 4.15813e-09 4.33205e-09 )  
( -3.84575e-09 3.9402e-09 6.76701e-10 )  
( -2.02623e-09 1.80372e-09 3.64528e-09 )  
( -8.6608e-10 2.37948e-09 4.15622e-09 )  
( -9.60287e-10 1.17748e-09 2.86985e-09 )  
( -3.68162e-09 2.82516e-09 4.84557e-09 )  
( 5.74517e-11 1.847e-10 7.02015e-10 )  
( 1.22652e-09 1.39999e-09 1.49729e-09 )  
( -2.89017e-09 3.84963e-09 2.29562e-09 )  
( -3.73744e-09 4.1591e-09 2.03493e-09 )  
( -3.9422e-10 1.05046e-09 1.45817e-09 )  
( -9.54318e-10 8.3926e-10 2.56728e-09 )  
( -6.21981e-10 9.20833e-10 1.28902e-09 )  
( -1.91506e-09 2.37358e-09 1.29467e-09 )  
( 3.48884e-10 4.43339e-10 1.45867e-09 )  
( -1.60752e-09 1.7477e-09 3.58331e-09 )  
( -3.40608e-09 2.71108e-09 4.78731e-09 )  
( -2.01326e-10 1.5544e-09 2.25652e-09 )  
( -6.38474e-09 4.95196e-09 1.74945e-09 )  
( 1.08871e-09 1.80023e-09 3.56928e-09 )  
( -1.9633e-10 8.88592e-10 1.49432e-09 )  
( -6.825e-09 2.84699e-09 6.58312e-09 )  
( -4.35909e-10 1.28982e-09 1.75658e-09 )  
( -1.91408e-10 5.26318e-10 1.4084e-09 )  
( -9.79967e-10 2.17683e-09 3.7897e-09 )  
( 4.1507e-10 1.03353e-09 2.37821e-09 )  
( -1.34673e-09 8.17415e-10 1.61999e-09 )  
( 6.55245e-10 1.69637e-09 2.16981e-09 )  
( -5.39585e-10 7.08923e-10 1.39389e-09 )  
( -5.39904e-11 3.96972e-10 9.28052e-10 )  
( -3.35517e-10 2.53684e-09 1.97523e-09 )  
( -3.26125e-09 3.04106e-09 4.57121e-09 )  
( -2.08385e-09 4.22467e-09 3.35688e-09 )  
( -7.41546e-09 2.68715e-09 5.04285e-09 )  
( -4.64735e-09 2.59273e-09 5.57135e-09 )  
( 2.73055e-09 1.18772e-09 1.6608e-09 )  
( -2.58897e-10 2.22126e-09 2.72796e-09 )  
( -5.83683e-09 2.53917e-09 5.56408e-09 )  
( 1.62025e-11 1.88046e-09 3.95209e-09 )  
( -3.79894e-10 2.12494e-09 3.41163e-09 )  
( -1.13712e-09 2.84367e-09 3.31607e-09 )  
( -6.45882e-09 3.4199e-09 5.47674e-09 )  
( 3.37326e-10 2.46698e-09 2.08836e-09 )  
( 2.33656e-09 2.22985e-09 2.94131e-09 )  
( 1.12991e-10 9.17596e-10 1.85793e-09 )  
( 5.34881e-10 1.83064e-09 2.51171e-09 )  
( -9.28574e-10 3.77518e-09 4.52521e-09 )  
( 8.39859e-10 4.90386e-10 1.12393e-09 )  
( 3.843e-10 1.08242e-09 1.52481e-09 )  
( 6.12561e-11 2.29845e-09 3.26488e-09 )  
( -6.05005e-10 1.89569e-09 3.04155e-09 )  
( 2.44344e-09 2.34032e-09 2.5315e-09 )  
( 9.57846e-10 2.28779e-09 3.85174e-09 )  
( 1.20416e-09 1.1187e-09 1.26424e-09 )  
( 2.86953e-09 2.11002e-09 2.34242e-09 )  
( 8.48309e-10 2.14081e-09 3.27038e-09 )  
( 8.23791e-10 2.12883e-10 -9.84347e-10 )  
( -5.5187e-11 3.22408e-09 2.81766e-09 )  
( -8.82156e-10 2.48384e-09 3.62171e-09 )  
( -1.03162e-10 2.21561e-09 3.23513e-09 )  
( 1.15258e-09 4.98461e-10 1.34495e-09 )  
( 6.83425e-10 2.72442e-09 7.18386e-10 )  
( 8.77242e-11 5.39691e-10 8.90109e-10 )  
( 7.92018e-10 2.83997e-11 1.88342e-09 )  
( 4.20313e-09 2.88038e-09 2.67084e-09 )  
( 7.13027e-10 1.67349e-09 2.02736e-09 )  
( 6.61958e-10 2.95093e-09 4.36156e-09 )  
( 1.54895e-09 5.99833e-10 1.00587e-09 )  
( 7.0085e-11 1.18735e-09 1.19379e-09 )  
( 2.12923e-09 1.42604e-09 2.07371e-09 )  
( -7.55658e-10 4.43293e-09 4.30435e-10 )  
( 4.33701e-10 3.44705e-09 3.78352e-09 )  
( 5.78248e-10 9.02918e-10 1.57982e-09 )  
( 1.60421e-09 1.97831e-09 3.59181e-09 )  
( 1.09096e-09 2.38944e-09 1.79526e-09 )  
( 5.58552e-10 1.60791e-09 2.11307e-09 )  
( 6.09373e-09 2.00156e-09 4.20437e-09 )  
( -9.77907e-11 1.89578e-09 2.22587e-09 )  
( -6.5857e-11 9.49938e-10 1.47755e-09 )  
( 9.65749e-10 2.27696e-09 3.66643e-09 )  
( 3.83467e-08 1.40978e-08 -4.39575e-10 )  
( -1.8766e-09 2.71096e-09 7.58063e-10 )  
( -2.11855e-09 3.7315e-09 3.73709e-09 )  
( -7.35513e-10 4.25107e-09 2.47026e-09 )  
( 8.38985e-10 3.25994e-09 3.88745e-09 )  
( -3.37868e-09 2.48379e-09 5.61952e-09 )  
( -4.28659e-10 1.17692e-09 1.67432e-09 )  
( 5.77506e-12 1.09381e-09 8.71223e-10 )  
( -3.28567e-09 3.04552e-09 6.01985e-09 )  
( 1.11215e-09 6.16925e-10 2.02015e-09 )  
( 9.14044e-10 1.88546e-09 6.98385e-10 )  
( 7.72949e-10 2.41539e-09 3.12255e-09 )  
( -1.42632e-09 2.38993e-09 3.67946e-09 )  
( -1.43213e-10 2.5463e-10 1.8825e-10 )  
( 9.7731e-10 4.73632e-10 1.51513e-09 )  
( 1.25886e-09 8.56806e-10 2.35029e-09 )  
( 2.90894e-09 4.87015e-09 -6.97992e-10 )  
( 7.02355e-10 2.47272e-09 2.47373e-09 )  
( -5.06751e-11 2.01385e-09 2.53228e-09 )  
( -2.59747e-09 3.34913e-09 3.79953e-09 )  
( -1.71026e-09 3.22406e-09 4.76869e-09 )  
( 5.60478e-10 4.13837e-10 1.55782e-09 )  
( -1.71224e-09 2.29849e-09 4.5788e-09 )  
( -6.61609e-10 1.82713e-09 1.76506e-09 )  
( -9.27695e-10 2.26467e-09 2.80117e-09 )  
( -2.21711e-09 1.66617e-09 5.40169e-09 )  
( -1.92922e-09 3.7809e-09 4.82863e-09 )  
( 6.43486e-10 1.267e-09 1.07505e-09 )  
( -3.95564e-09 3.41819e-09 4.41888e-09 )  
( 2.31328e-09 1.46501e-09 2.46099e-09 )  
( 8.41951e-10 2.73809e-09 3.28415e-09 )  
( 3.53193e-10 2.6121e-09 4.35194e-09 )  
( 9.17479e-10 1.03427e-09 9.21949e-10 )  
( -6.94458e-10 2.54778e-09 4.55997e-09 )  
( 2.27021e-09 2.43448e-09 1.82397e-09 )  
( 5.10956e-09 2.5088e-09 -5.80646e-10 )  
( 2.13936e-09 1.28647e-09 1.93373e-09 )  
( -1.10775e-09 2.65167e-09 -2.67577e-10 )  
( -3.98156e-10 1.96569e-09 1.5099e-09 )  
( 2.15466e-08 -1.64264e-08 -3.04151e-09 )  
( -3.11171e-09 3.32416e-09 1.5443e-09 )  
( -3.36973e-10 1.88541e-09 3.11395e-09 )  
( -2.45891e-09 2.15706e-09 4.62029e-09 )  
( 6.42279e-09 1.69557e-09 3.78028e-09 )  
( 2.2368e-10 8.17804e-10 1.19625e-09 )  
( 2.3064e-10 1.83916e-09 2.99977e-09 )  
( 7.12758e-10 8.41432e-10 1.53501e-09 )  
( 6.7357e-10 3.89129e-10 1.56954e-09 )  
( 1.37434e-09 2.24529e-09 3.0724e-09 )  
( 8.95775e-10 2.4015e-09 2.50995e-09 )  
( 6.90757e-10 1.31002e-09 1.60743e-09 )  
( 3.28038e-10 1.36368e-09 1.9117e-09 )  
( -1.49896e-09 3.4608e-09 3.87661e-09 )  
( -2.36926e-09 2.26888e-09 3.98579e-09 )  
( -4.84325e-09 3.75686e-09 1.30443e-09 )  
( 1.89834e-09 -2.34134e-10 -1.69276e-09 )  
( -2.6795e-09 3.87404e-09 2.39467e-09 )  
( 2.88034e-09 1.75625e-09 2.57567e-09 )  
( -2.61577e-09 2.82183e-09 4.62441e-09 )  
( -2.73271e-10 2.27926e-09 3.27963e-09 )  
( 2.74257e-09 1.62034e-09 1.96051e-09 )  
( 2.00082e-09 1.26556e-09 1.5646e-09 )  
( 1.77151e-09 4.79249e-10 -4.40606e-10 )  
( -5.79622e-10 1.14775e-09 1.02703e-09 )  
( 6.92104e-10 1.53977e-09 5.64811e-10 )  
( 1.82599e-09 1.19629e-09 6.26234e-10 )  
( 3.79737e-09 2.82295e-09 -1.99597e-11 )  
( 2.74405e-09 1.09208e-09 1.72851e-09 )  
( 5.44078e-10 1.65296e-09 2.45486e-09 )  
( -1.69201e-09 3.5251e-09 4.37534e-09 )  
( 1.42173e-09 1.9538e-09 2.98144e-09 )  
( 5.29584e-10 -5.03914e-10 5.01098e-09 )  
( 1.19616e-09 -3.83294e-10 7.2417e-10 )  
( 3.88781e-09 2.19651e-09 1.45748e-09 )  
( 1.31243e-09 1.24464e-09 1.34133e-09 )  
( -6.62386e-10 3.62064e-09 1.9654e-09 )  
( 1.79739e-09 3.01964e-09 2.81003e-09 )  
( -9.80024e-10 2.50729e-09 4.02924e-09 )  
( -4.69854e-11 7.2028e-10 6.97835e-10 )  
( 2.43136e-09 1.22066e-09 1.6062e-09 )  
( 2.52204e-09 3.86758e-09 2.79422e-09 )  
( 3.35063e-09 1.29431e-09 8.98841e-10 )  
( 3.2862e-09 3.14099e-09 1.71796e-10 )  
( 1.43335e-09 7.76539e-10 1.53718e-09 )  
( 1.13366e-09 2.47438e-09 2.87744e-09 )  
( 1.18904e-09 5.11731e-11 1.09946e-09 )  
( 1.3409e-09 8.75652e-10 1.73105e-09 )  
( 2.70573e-09 2.09856e-09 1.88265e-09 )  
( 2.90443e-09 3.65893e-09 1.50163e-09 )  
( 9.2285e-10 7.87456e-10 4.80714e-10 )  
( 2.09474e-09 2.58267e-09 3.07221e-09 )  
( 4.22091e-10 1.00172e-09 7.27355e-10 )  
( 1.83109e-09 1.17064e-09 7.42391e-10 )  
( 1.3039e-08 3.8735e-09 1.79899e-09 )  
( 3.36868e-09 3.52858e-09 1.1544e-10 )  
( 6.75725e-10 3.38691e-10 7.57784e-10 )  
( 5.86233e-10 1.94804e-09 1.53502e-09 )  
( 2.90087e-09 1.1707e-09 5.5767e-10 )  
( -1.20337e-10 5.22892e-10 4.80038e-10 )  
( 1.68448e-09 9.6852e-10 1.83052e-09 )  
( 2.83278e-09 1.71265e-09 1.97371e-09 )  
( 2.19497e-09 1.2494e-09 1.22859e-09 )  
( 4.68322e-09 4.912e-09 6.61484e-10 )  
( 5.41974e-10 2.54644e-10 6.20642e-10 )  
( 1.03286e-09 4.70724e-10 4.2069e-10 )  
( 3.96974e-10 4.38649e-10 8.53841e-10 )  
( 4.1319e-09 3.60993e-09 1.95066e-09 )  
( 5.83123e-11 6.61826e-10 8.68416e-10 )  
( 1.30403e-09 2.575e-11 1.17847e-10 )  
( -6.61676e-10 -1.35624e-10 -1.7434e-10 )  
( 8.46148e-10 1.57145e-09 1.87883e-09 )  
( 3.0463e-09 3.13853e-09 1.87997e-09 )  
( 1.62151e-09 1.54592e-09 1.04678e-09 )  
( 1.726e-09 5.60542e-10 7.84255e-10 )  
( 4.64388e-09 4.52229e-09 3.7879e-10 )  
( 5.44051e-10 8.58881e-10 8.75207e-10 )  
( 1.93768e-09 8.546e-10 1.07215e-09 )  
( 8.54498e-10 2.93094e-10 5.70889e-10 )  
( 9.97213e-10 1.14808e-09 1.37683e-09 )  
( 4.17436e-09 3.41671e-09 7.41612e-10 )  
( 1.59526e-09 1.42689e-09 1.06502e-09 )  
( 9.35757e-10 -1.54865e-10 3.11924e-10 )  
( 7.25907e-10 8.36153e-10 4.26311e-10 )  
( 2.20418e-09 1.94585e-09 9.83264e-10 )  
( 1.45745e-09 9.21066e-10 2.94882e-11 )  
( 1.33313e-09 1.06068e-09 1.35378e-09 )  
( -7.4159e-11 4.05295e-10 1.53504e-09 )  
( 2.8676e-09 2.26249e-09 -3.48906e-10 )  
( 1.42737e-09 3.35024e-10 4.46964e-10 )  
( 1.56375e-09 1.38421e-09 7.25955e-10 )  
( 6.36986e-10 1.20417e-10 1.00925e-09 )  
( 1.02953e-09 3.04833e-10 -5.44156e-10 )  
( 2.52233e-09 7.37e-10 1.14115e-09 )  
( 2.55862e-09 1.56689e-09 6.64544e-10 )  
( 1.63158e-09 1.45486e-09 1.85262e-10 )  
( 5.44004e-11 5.47034e-10 3.98357e-10 )  
( 5.26717e-10 3.96516e-10 5.39313e-10 )  
( 3.08195e-10 2.81082e-10 1.34343e-10 )  
( 1.64363e-09 7.87578e-10 9.45148e-10 )  
( 1.30991e-09 9.37961e-10 3.37305e-10 )  
)
