/*--------------------------------*- C++ -*----------------------------------*\
| =========                 |                                                 |
| \\      /  F ield         | OpenFOAM: The Open Source CFD Toolbox           |
|  \\    /   O peration     | Version:  4.x                                   |
|   \\  /    A nd           | Web:      www.OpenFOAM.org                      |
|    \\/     M anipulation  |                                                 |
\*---------------------------------------------------------------------------*/
FoamFile
{
    version     2.0;
    format      ascii;
    class       volScalarField;
    location    "36";
    object      Ksl;
}
// * * * * * * * * * * * * * * * * * * * * * * * * * * * * * * * * * * * * * //

dimensions      [1 -3 -1 0 0 0 0];

internalField   nonuniform List<scalar> 
108
(
5031.02
2794.95
4938.44
2646.82
5158.93
2482.86
6154.95
2245.39
7150.69
6018.76
3065.32
6306.65
2997.4
7267.88
3091.32
10899.4
3584.66
22871.1
4960.96
2806.03
4900.49
2660.7
5101.02
2467.76
5747.29
2088.71
5668.4
3754.76
2490.81
3719.88
2403.83
3816.2
2226.31
4178.37
1853.84
4901.76
19440.2
3487.39
25634.9
3375.04
34242.3
3262.68
32743.8
3136.99
11393.9
22736
3654.66
30832
3631.32
42917.1
3712.31
43220.4
4071.34
15399.4
12568.1
3381.26
13052.9
3191.94
12535.7
2875.09
9953.11
2380.79
4385.95
5369.05
2901.5
5434.59
2803.79
5847.54
2583.76
6756.65
2059.07
5105.22
82420
3761.66
227391
3750.96
236443
3777.28
84418.9
4007.75
12052.7
119780
3799.92
1e+10
3799.99
1e+10
3806.37
1e+10
4071.33
23273
44432.7
3655.44
117175
3539
59043
3454.95
16710.4
3444.7
5453.67
6746.57
3091.86
6849.84
2972.69
7423.57
2784.97
8044.57
2262.18
8092.62
)
;

boundaryField
{
    inlet
    {
        type            zeroGradient;
    }
    outlet
    {
        type            zeroGradient;
    }
    wall
    {
        type            zeroGradient;
    }
    procBoundary3to1
    {
        type            processor;
        value           nonuniform List<scalar> 
27
(
5251.59
2933.25
5328.3
2816.12
5567.17
2586.56
5986.63
2170.39
6327.24
29605.7
3693.08
99365.5
3669.54
1e+10
3746.65
76297.5
3986.06
8302.77
33400.4
3656.65
34910.7
3606.47
28224.9
3561.02
16279.7
3647.86
7587.14
)
;
    }
    procBoundary3to2
    {
        type            processor;
        value           nonuniform List<scalar> 
12
(
2908.24
3101.36
2924.43
2623.48
3582.7
3665.03
3465.73
2974.02
3752.52
3785.12
3704.85
3187.85
)
;
    }
    procBoundary3to7
    {
        type            processor;
        value           nonuniform List<scalar> 
36
(
1e+10
3857.1
1e+10
3802.01
1e+10
3803.55
1e+10
4135.5
19147
393942
3863.01
1.90794e+06
3851.93
50562.8
3897.82
15125.7
4066.13
6554.26
17272.6
3494.49
18189
3348.32
16986.5
3159.94
13186.2
2802.98
10056.8
6829.34
3087.75
7089.03
2987.94
7819.56
2897.38
9209.04
2685.63
11732.8
)
;
    }
}


// ************************************************************************* //
