/*--------------------------------*- C++ -*----------------------------------*\
| =========                 |                                                 |
| \\      /  F ield         | OpenFOAM: The Open Source CFD Toolbox           |
|  \\    /   O peration     | Version:  4.x                                   |
|   \\  /    A nd           | Web:      www.OpenFOAM.org                      |
|    \\/     M anipulation  |                                                 |
\*---------------------------------------------------------------------------*/
FoamFile
{
    version     2.0;
    format      ascii;
    class       volScalarField;
    location    "36";
    object      QWallFluid;
}
// * * * * * * * * * * * * * * * * * * * * * * * * * * * * * * * * * * * * * //

dimensions      [1 -1 -3 0 0 0 0];

internalField   nonuniform List<scalar> 
108
(
6.42366e+08
1.02904e+09
6.49321e+08
1.07181e+09
6.23601e+08
1.11507e+09
5.28954e+08
1.16628e+09
4.48952e+08
5.55338e+08
9.54283e+08
5.34099e+08
9.68295e+08
4.73435e+08
9.38982e+08
3.33904e+08
7.98638e+08
1.76141e+08
6.47901e+08
1.02523e+09
6.54006e+08
1.07385e+09
6.34574e+08
1.13917e+09
5.64196e+08
1.2533e+09
5.46449e+08
1.59735e+09
2.23476e+09
1.62868e+09
2.31008e+09
1.59165e+09
2.44764e+09
1.45206e+09
2.72234e+09
1.24879e+09
0
0
0
0
0
0
0
0
0
0
0
0
0
0
0
0
0
0
0
0
0
0
0
0
0
0
0
5.96318e+08
9.86302e+08
5.938e+08
1.01969e+09
5.61443e+08
1.08783e+09
4.89811e+08
1.25743e+09
5.87151e+08
0
0
0
0
0
0
0
0
0
0
0
0
0
0
0
0
0
0
0
0
0
0
0
0
0
0
0
4.86676e+08
9.16836e+08
4.81185e+08
9.42485e+08
4.51614e+08
9.90555e+08
4.14937e+08
1.13757e+09
3.95819e+08
)
;

boundaryField
{
    inlet
    {
        type            calculated;
        value           nonuniform 0();
    }
    outlet
    {
        type            calculated;
        value           uniform 0;
    }
    wall
    {
        type            calculated;
        value           uniform 0;
    }
    procBoundary3to1
    {
        type            processor;
        value           nonuniform List<scalar> 
27
(
6.23931e+08
1.00096e+09
6.14736e+08
1.03042e+09
5.8998e+08
1.09097e+09
5.46564e+08
1.22782e+09
5.01689e+08
0
0
0
0
0
0
0
0
0
0
0
0
0
0
0
0
0
0
)
;
    }
    procBoundary3to2
    {
        type            processor;
        value           nonuniform List<scalar> 
12
(
9.94286e+08
9.42639e+08
9.91847e+08
2.15218e+09
0
0
0
9.60522e+08
0
0
0
8.93116e+08
)
;
    }
    procBoundary3to7
    {
        type            processor;
        value           nonuniform List<scalar> 
36
(
0
0
0
0
0
0
0
0
0
0
0
0
0
0
0
0
0
0
0
0
0
0
0
0
0
0
0
4.74046e+08
8.94915e+08
4.55516e+08
9.11849e+08
4.19951e+08
9.2963e+08
3.60895e+08
9.6449e+08
2.8754e+08
)
;
    }
}


// ************************************************************************* //
