/*--------------------------------*- C++ -*----------------------------------*\
| =========                 |                                                 |
| \\      /  F ield         | OpenFOAM: The Open Source CFD Toolbox           |
|  \\    /   O peration     | Version:  4.x                                   |
|   \\  /    A nd           | Web:      www.OpenFOAM.org                      |
|    \\/     M anipulation  |                                                 |
\*---------------------------------------------------------------------------*/
FoamFile
{
    version     2.0;
    format      ascii;
    class       volVectorField;
    location    "36";
    object      U;
}
// * * * * * * * * * * * * * * * * * * * * * * * * * * * * * * * * * * * * * //

dimensions      [0 1 -1 0 0 0 0];

internalField   nonuniform List<vector> 
108
(
(0.0218079 -0.000242171 -0.000249461)
(0.0391404 -5.9891e-05 -0.000535487)
(0.0221442 -0.00023678 -0.00025578)
(0.0411518 -0.000227921 7.23165e-05)
(0.0209003 -0.00129417 -0.000424195)
(0.0431937 -0.000748723 0.00151453)
(0.016644 -0.00379299 -0.00165589)
(0.0459764 0.000251487 0.00365968)
(0.00783838 -0.010285 -0.00522415)
(0.0181811 -0.000236298 -0.000276675)
(0.0360263 -4.9306e-05 -0.00033452)
(0.0173387 -0.000118301 -0.000382678)
(0.0364112 4.28147e-05 0.00042032)
(0.0149013 9.61707e-05 -0.000456033)
(0.0349391 0.000226494 0.00193423)
(0.0096502 0.000646161 -0.000571939)
(0.0285697 -0.000532806 0.00389669)
(0.00414547 0.00120835 -0.000539651)
(0.0220268 0.000558003 -0.000172238)
(0.0392257 0.000574361 -0.000251237)
(0.0223828 0.000775813 0.000143348)
(0.041417 0.000477732 0.000405264)
(0.0213741 0.00214579 0.000637061)
(0.0445212 0.000457808 0.00174241)
(0.017829 0.00539195 0.00074865)
(0.0504852 -0.00212179 0.00301225)
(0.00924376 0.0151529 -0.00182223)
(0.0283667 -0.000375961 -0.000312601)
(0.0432078 -0.00018941 -0.000345475)
(0.0291734 -0.000925128 -0.000109355)
(0.04549 -0.00071729 8.8151e-05)
(0.0285038 -0.00116988 0.00013173)
(0.0487089 -0.000995425 0.000976683)
(0.0253053 -0.00111265 0.00058684)
(0.0559193 -0.00149402 0.00276955)
(0.0147059 0.00186426 -0.0143423)
(0.00562554 7.2559e-05 -0.000486094)
(0.0318025 0.000429322 -0.000292314)
(0.00425362 0.000108845 -0.000580296)
(0.0327845 0.000257366 0.000667551)
(0.0030738 6.63778e-05 -0.00078381)
(0.0331862 -0.000236913 0.00240713)
(0.00283024 1.45385e-05 -0.00157886)
(0.0329209 -0.0013583 0.00637022)
(0.00420943 -0.00039031 -0.00778687)
(0.00481137 -7.33566e-05 -0.000461899)
(0.0304206 0.000298309 -0.000129278)
(0.00352381 5.6946e-05 -0.000543436)
(0.0304178 0.000220399 0.000509444)
(0.00245176 0.000212099 -0.000618805)
(0.0293735 -0.000165284 0.00130821)
(0.00225274 0.000687028 -0.000737224)
(0.0255414 -0.00257679 0.0030649)
(0.00478412 0.00421825 -0.00149856)
(0.00881914 0.000312029 -0.000677737)
(0.0331083 0.000485194 -0.000607121)
(0.00842787 0.000587914 -0.000947275)
(0.0352729 -0.000113947 0.000431209)
(0.00855613 0.00155534 -0.00164976)
(0.0388172 -0.00124093 0.0021751)
(0.00925311 0.00455818 -0.00356748)
(0.0446081 -0.00469988 0.00550886)
(0.00686008 0.0185404 -0.0124937)
(0.020153 -0.000396087 -0.000929717)
(0.0377175 -0.000164565 -0.000717094)
(0.0200437 -0.00096097 -0.00115815)
(0.0396085 -0.000819488 -0.000350491)
(0.0187568 -0.00134758 -0.00171881)
(0.0429632 -0.00143585 0.000597431)
(0.0157055 -0.00104216 -0.00227272)
(0.0516947 -0.00145988 0.00334982)
(0.0090943 0.00452747 -0.0171673)
(0.00125712 -0.000112361 -0.000346137)
(0.0291155 -0.000204804 4.03264e-05)
(0.000440188 -5.77738e-05 -0.000169925)
(0.0290357 -0.000185826 0.00063671)
(0.000383586 -9.78962e-05 -0.000218974)
(0.0283567 -0.000354472 0.00153322)
(0.00095131 -0.000361341 -0.000711234)
(0.0253964 0.000969943 0.00460638)
(0.00601418 -0.00260253 -0.00508061)
(0.000891715 -1.22301e-05 -0.000134214)
(0.0286944 -0.000188954 0.00024099)
(6.64907e-09 -5.99224e-09 7.38798e-10)
(0.0283066 0.000102499 0.00105388)
(8.28791e-09 -9.33756e-10 -8.65772e-09)
(0.0281755 0.000622088 0.00229185)
(8.83365e-09 4.90895e-09 -1.85921e-08)
(0.0253908 -0.000198498 0.00373592)
(0.00414889 0.00102699 -0.000471729)
(0.00242385 0.000194392 -0.000216583)
(0.0301338 0.000110248 -0.000123418)
(0.000910303 0.0001203 -0.000131009)
(0.0308076 -0.000255109 0.000435147)
(0.00171058 0.000487926 -0.000427467)
(0.0316254 -0.000428051 0.0013265)
(0.00521653 0.00308838 -0.00205824)
(0.0304435 -0.00281782 0.00315064)
(0.00951302 0.0147744 -0.00583447)
(0.0158638 8.84751e-05 -0.00104954)
(0.0348211 0.000164432 -0.000624658)
(0.0155859 -5.63743e-05 -0.0013623)
(0.0363378 -0.000693459 -0.000252589)
(0.0143791 0.000281401 -0.00213811)
(0.0390293 -0.00132212 0.000374281)
(0.0126001 0.00160846 -0.00347753)
(0.0465588 -0.00221317 0.00219408)
(0.00766751 0.00763833 -0.00619831)
)
;

boundaryField
{
    inlet
    {
        type            fixedValue;
        value           nonuniform 0();
    }
    outlet
    {
        type            zeroGradient;
    }
    wall
    {
        type            fixedValue;
        value           uniform (0 0 0);
    }
    procBoundary3to1
    {
        type            processor;
        value           nonuniform List<vector> 
27
(
(0.0207236 7.46126e-05 -0.000809735)
(0.0376658 0.000157947 -0.000930717)
(0.0205641 0.000357979 -0.00114085)
(0.0394382 0.00049563 -0.000355764)
(0.0194633 2.26249e-05 -0.00219124)
(0.0422076 0.000696531 0.000982313)
(0.0172384 -0.0013256 -0.00461924)
(0.0488879 0.00164641 0.00473416)
(0.0101329 -0.00475858 -0.0113866)
(0.00369747 0.000152828 -0.00010809)
(0.0300739 0.000168562 0.000234133)
(0.00110145 9.11097e-05 -5.60308e-05)
(0.0301888 0.000453827 0.000766427)
(1.33727e-08 -8.87444e-10 -9.34493e-09)
(0.0292138 0.00056986 0.00185036)
(0.00134065 1.6981e-05 -0.000445378)
(0.0266018 0.000854982 0.0043098)
(0.00820415 -0.00165929 -0.00886255)
(0.00316627 -0.000215133 -0.00063182)
(0.0298968 -2.8194e-05 0.000141473)
(0.00294402 -0.000331631 -0.000885815)
(0.0304325 0.000344905 0.000232955)
(0.00342223 -0.000801039 -0.00148204)
(0.030337 0.000582142 0.000866506)
(0.00513717 -0.00256725 -0.00298198)
(0.0283255 0.00282324 0.00315676)
(0.00895324 -0.00845383 -0.00457107)
)
;
    }
    procBoundary3to2
    {
        type            processor;
        value           nonuniform List<vector> 
12
(
(0.0372728 -0.000117354 -0.000805594)
(0.0348878 -3.84399e-05 -0.000719052)
(0.0371817 0.000600126 -0.00062336)
(0.0407351 0.000176302 -0.000574648)
(0.0307572 0.000248826 -0.000667183)
(0.029836 0.000135491 -0.00075918)
(0.0316907 0.000707375 -0.00106495)
(0.0360461 0.000290055 -0.00110221)
(0.0287779 -0.00039804 -0.000228674)
(0.0285061 -0.000290569 -0.000382924)
(0.0294525 0.000478593 -0.000257511)
(0.0336329 0.000459839 -0.000775406)
)
;
    }
    procBoundary3to7
    {
        type            processor;
        value           nonuniform List<vector> 
36
(
(1.16882e-08 -1.55418e-09 -2.19522e-10)
(0.0277683 0.000370538 5.86559e-06)
(1.16969e-08 -1.20661e-10 -1.04058e-09)
(0.0280121 0.0007815 0.000145691)
(1.02496e-08 1.81551e-09 -6.89259e-09)
(0.0278895 0.000768214 0.000878169)
(6.63516e-09 4.76101e-09 -1.19885e-08)
(0.0242579 -0.00141307 0.00318472)
(0.00482884 0.0014625 -0.000922345)
(0.000262371 4.50626e-05 -3.58022e-05)
(0.0279334 0.000184668 -3.34679e-05)
(5.29049e-05 1.35799e-05 -8.91248e-06)
(0.0276413 0.000136701 0.000166645)
(0.00193893 0.000704142 -0.00029313)
(0.0271391 0.000132893 0.000916626)
(0.0059806 0.00323505 -0.000691334)
(0.0249943 -0.0022318 0.00178627)
(0.0111188 0.0101244 0.000886937)
(0.00608509 0.000638577 -0.000606523)
(0.0309354 0.000231085 -0.00010759)
(0.00571987 0.000864855 -0.000895669)
(0.0320184 -0.000502999 -0.000435953)
(0.00586945 0.00151229 -0.00155435)
(0.033986 -0.00183902 -0.000427883)
(0.00660554 0.00320714 -0.00301559)
(0.0365254 -0.0048479 0.00204111)
(0.00547782 0.00706897 -0.00408123)
(0.0154211 -0.000200945 -0.00119274)
(0.03441 -9.7548e-05 -0.00092688)
(0.0148132 -0.000353611 -0.00162598)
(0.0353245 -0.000423284 -0.000846531)
(0.0132718 -0.000417848 -0.00246701)
(0.0365613 -0.000631617 -0.000255415)
(0.0104722 -0.000369299 -0.00407547)
(0.0381095 -0.000337139 0.00224559)
(0.00535195 -0.000228095 -0.0064055)
)
;
    }
}


// ************************************************************************* //
