/*--------------------------------*- C++ -*----------------------------------*\
  =========                 |
  \\      /  F ield         | OpenFOAM: The Open Source CFD Toolbox
   \\    /   O peration     | Website:  https://openfoam.org
    \\  /    A nd           | Version:  4.x
     \\/     M anipulation  |
\*---------------------------------------------------------------------------*/
FoamFile
{
    version     2.0;
    format      ascii;
    class       vectorField;
    location    0;
    object      v;
}
// * * * * * * * * * * * * * * * * * * * * * * * * * * * * * * * * * * * * * //

303
(
( 3.08528e-08 -5.33961e-09 -4.46891e-09 )  
( 5.56647e-08 3.2498e-09 -3.35365e-08 )  
( 5.08206e-08 4.65867e-09 -3.27694e-08 )  
( 5.81159e-08 6.56429e-09 -2.18666e-08 )  
( 6.38009e-08 6.87573e-09 -2.47147e-08 )  
( 6.50701e-08 4.61206e-09 -3.87848e-08 )  
( 3.29329e-08 -4.53738e-09 -1.20347e-09 )  
( 7.24139e-08 2.20164e-09 -4.40206e-08 )  
( 3.48942e-08 8.61227e-09 -2.40956e-08 )  
( -8.50535e-08 -1.17394e-08 -4.64454e-08 )  
( -4.55209e-08 -8.4856e-09 1.4587e-08 )  
( -9.51847e-09 2.09118e-10 -4.89756e-12 )  
( -3.89214e-08 -2.02359e-09 -6.97774e-08 )  
( -7.41343e-08 -6.33493e-09 -2.63542e-08 )  
( 5.08435e-09 4.64537e-09 -3.73507e-09 )  
( -1.09997e-07 4.74267e-09 -3.49581e-08 )  
( -7.86474e-09 -5.17524e-09 5.91044e-09 )  
( -1.1252e-07 5.17233e-09 -3.35972e-08 )  
( -7.58278e-08 -4.53799e-09 -3.21883e-08 )  
( -4.00113e-08 1.34621e-09 -2.14993e-09 )  
( -2.08016e-08 4.04261e-09 -6.0574e-08 )  
( -1.49493e-07 -4.13428e-10 -2.05536e-08 )  
( -1.73763e-09 -4.86895e-09 -8.23679e-08 )  
( -1.73416e-07 -1.28419e-08 -1.11652e-08 )  
( 8.24376e-08 -1.10977e-09 -8.47292e-08 )  
( 5.88163e-08 -2.45354e-08 -6.74808e-08 )  
( -4.22407e-08 -4.90049e-09 2.77808e-10 )  
( 3.04799e-09 6.5651e-11 2.30654e-09 )  
( 3.43376e-08 -7.04328e-09 -6.92151e-08 )  
( -6.23871e-08 -1.33081e-08 -3.07821e-08 )  
( 7.16349e-10 -9.27248e-10 3.02841e-09 )  
( 3.04794e-08 -5.01843e-10 -3.65874e-08 )  
( -9.35923e-09 9.34966e-09 -2.59276e-10 )  
( -6.94125e-08 -5.00785e-09 -2.84625e-08 )  
( 4.95844e-08 1.42007e-08 -4.08412e-08 )  
( -5.1052e-08 3.29606e-09 -3.08831e-08 )  
( -3.95467e-08 -2.01781e-08 -6.72661e-08 )  
( -1.98819e-08 -2.41534e-10 -8.27428e-09 )  
( 8.03384e-08 1.57698e-08 -3.71706e-08 )  
( -2.13912e-08 -5.13929e-09 -5.34736e-08 )  
( -1.35724e-08 -8.36627e-09 -4.61157e-09 )  
( -7.84093e-08 -1.43237e-09 -3.53918e-08 )  
( 3.24895e-09 -1.55631e-09 -1.46935e-09 )  
( 6.51299e-09 1.13013e-08 -6.44363e-08 )  
( 8.07392e-08 4.53306e-09 -6.20428e-08 )  
( -8.93577e-08 -2.43418e-09 -2.60502e-08 )  
( -1.08102e-08 3.28113e-09 -3.32225e-09 )  
( -2.86707e-08 -6.27308e-09 -8.08286e-09 )  
( -1.20068e-08 -6.67904e-09 9.89312e-09 )  
( -7.50545e-08 1.55993e-09 -2.82651e-08 )  
( -8.03246e-08 6.69045e-09 -1.00682e-07 )  
( 8.45989e-08 -9.70159e-09 -6.16115e-08 )  
( -7.68473e-08 -4.85575e-09 -2.49829e-08 )  
( -1.01863e-07 -1.93843e-09 -2.45763e-08 )  
( -9.02261e-10 5.53131e-09 -2.47212e-08 )  
( -1.04254e-07 4.07924e-09 -1.03497e-09 )  
( -1.89647e-08 -7.12794e-09 3.61464e-10 )  
( 6.41779e-08 1.75234e-08 -1.8082e-08 )  
( -4.3849e-08 -8.54057e-09 -1.99727e-08 )  
( -5.93437e-08 2.11097e-08 -3.9111e-08 )  
( -4.97788e-08 3.91618e-10 -2.25488e-08 )  
( -4.19023e-11 1.9356e-09 -7.34136e-09 )  
( -1.6486e-09 4.97585e-09 -2.81377e-09 )  
( 5.25246e-07 4.04502e-09 -2.38631e-08 )  
( 5.96973e-08 -1.38119e-08 -4.96464e-08 )  
( -5.16347e-08 -3.0473e-09 -2.36763e-08 )  
( -8.8898e-09 -5.45331e-09 -9.07405e-08 )  
( -1.1696e-07 -2.87128e-08 -2.08585e-08 )  
( -7.95124e-08 3.66533e-10 -2.66282e-08 )  
( 4.48152e-08 -3.19015e-08 -7.9801e-08 )  
( 9.06489e-08 -8.71189e-09 -5.62354e-08 )  
( -2.16168e-08 -6.54342e-09 3.93372e-09 )  
( 8.04383e-08 6.61927e-09 -5.05003e-08 )  
( -4.35151e-08 -4.48679e-09 -2.03551e-08 )  
( -1.16246e-08 1.89145e-11 -5.01029e-09 )  
( -8.65768e-09 -3.64624e-09 -6.25806e-09 )  
( -7.2127e-08 -1.00395e-08 -3.22405e-08 )  
( -1.41274e-08 -2.89839e-08 -9.6617e-08 )  
( -7.05201e-10 -3.39302e-09 -1.15119e-09 )  
( -1.06011e-07 1.00638e-09 -2.94754e-08 )  
( 1.4319e-07 2.20407e-08 -2.48629e-08 )  
( 8.64838e-08 1.02727e-08 -6.46741e-08 )  
( -5.88196e-08 -6.50545e-09 -2.4954e-08 )  
( -7.70247e-09 -3.43799e-09 -4.89152e-09 )  
( -3.17815e-08 -1.141e-08 6.29089e-09 )  
( -4.67013e-08 -6.47751e-09 -1.73635e-08 )  
( -7.20893e-08 6.43068e-09 -1.43182e-08 )  
( -2.88542e-08 -2.76036e-09 -5.7723e-09 )  
( -3.13126e-08 -6.59875e-09 -2.1475e-09 )  
( -5.41666e-09 6.22553e-10 -1.42815e-08 )  
( -7.55383e-08 -6.41252e-09 -4.82185e-08 )  
( -7.59159e-08 1.7501e-09 -2.93435e-08 )  
( -1.80305e-08 8.06692e-10 -5.62003e-09 )  
( -3.33875e-08 -2.98219e-09 -2.25096e-08 )  
( -8.87548e-08 1.05045e-08 -1.92303e-08 )  
( 8.80028e-08 -1.14707e-08 -6.78499e-08 )  
( -3.72276e-08 -5.546e-09 -5.95532e-09 )  
( -8.26934e-08 -9.49001e-08 -6.98514e-08 )  
( -5.91517e-08 -6.17813e-09 -2.45882e-08 )  
( -1.11592e-07 1.11569e-08 -4.66389e-08 )  
( -8.49122e-08 -3.26156e-09 -3.80788e-08 )  
( 7.51948e-08 2.19155e-08 -2.72795e-08 )  
( 6.01314e-09 2.12182e-08 -5.94748e-09 )  
( -9.15752e-08 2.06036e-08 -4.1474e-09 )  
( -2.06001e-08 -5.11877e-09 2.3583e-09 )  
( -4.62376e-08 -6.84676e-09 -8.87722e-10 )  
( 1.25412e-07 -2.06477e-08 -2.18558e-08 )  
( -3.08189e-08 -3.59831e-09 -8.66228e-09 )  
( 1.64717e-09 7.60643e-07 -2.47516e-08 )  
( 1.01523e-07 1.53095e-08 -4.73792e-08 )  
( -4.63257e-08 -5.01181e-09 -6.17611e-08 )  
( 8.91994e-08 1.11792e-08 -8.24813e-08 )  
( -6.84973e-08 -3.11847e-09 -4.46697e-08 )  
( 4.04008e-09 1.36123e-08 -2.69765e-09 )  
( -3.56294e-08 -6.03543e-09 -1.36152e-08 )  
( -1.65036e-08 4.07098e-08 -6.80284e-08 )  
( -5.60897e-09 1.98375e-09 -3.71614e-09 )  
( -6.91497e-08 -1.14108e-08 -2.85617e-08 )  
( -4.56075e-09 -4.07337e-09 3.32344e-09 )  
( -1.19273e-08 -9.11014e-09 6.53964e-09 )  
( 6.08568e-08 -3.81279e-09 -5.46019e-08 )  
( 5.26673e-08 -8.25613e-09 -4.36217e-08 )  
( -8.67939e-08 4.67147e-09 -3.57786e-08 )  
( -9.97572e-09 -1.08907e-09 -1.54771e-09 )  
( -2.65864e-08 3.05447e-08 -7.469e-08 )  
( -7.49333e-08 6.89927e-09 -9.64442e-09 )  
( -9.37019e-09 -2.87176e-09 -2.64492e-09 )  
( -4.24904e-08 -5.1441e-09 -1.59993e-08 )  
( -1.74324e-09 -4.59715e-09 -1.45059e-08 )  
( -5.19517e-08 -3.4806e-10 -2.64598e-08 )  
( 2.84913e-09 -1.88256e-09 -4.85777e-09 )  
( -4.53431e-08 -3.08145e-09 -2.04185e-08 )  
( -3.97907e-08 -9.44724e-09 -2.09397e-08 )  
( -3.953e-08 1.95194e-10 -9.12831e-09 )  
( -1.36802e-08 -4.70388e-09 -1.23744e-08 )  
( 7.0057e-08 -7.49641e-09 -6.42307e-08 )  
( -2.83667e-08 -1.11527e-08 -1.22108e-08 )  
( -8.12211e-09 -1.99802e-09 -1.11966e-09 )  
( -9.7158e-08 1.39635e-08 -2.33413e-08 )  
( -3.05406e-08 1.7862e-08 -4.15063e-09 )  
( -5.01828e-10 -8.53081e-10 2.77581e-10 )  
( -3.04112e-08 -2.22177e-09 -1.49453e-08 )  
( -7.26037e-08 1.88242e-09 -4.45349e-08 )  
( -6.30601e-08 -1.26904e-08 -1.47239e-08 )  
( -2.79438e-09 -2.04392e-09 -4.9385e-10 )  
( 1.17003e-09 2.20857e-09 -7.05271e-09 )  
( -4.63361e-08 -8.20083e-09 -1.5979e-08 )  
( 6.91609e-08 -1.04948e-08 -5.90452e-08 )  
( -1.21159e-08 2.46339e-09 -6.06539e-09 )  
( -4.50194e-08 -4.37364e-09 -1.4497e-08 )  
( 4.17119e-08 -2.28921e-08 -6.7495e-08 )  
( 4.3913e-08 -5.30308e-09 -1.23213e-08 )  
( 9.83105e-08 -2.23434e-09 -5.76422e-08 )  
( -9.4494e-08 1.14892e-08 -3.64311e-08 )  
( -9.41708e-08 4.76273e-09 -2.61009e-08 )  
( -7.82527e-08 -8.78381e-09 -3.12754e-08 )  
( -4.40858e-08 -1.0188e-08 -3.85957e-08 )  
( -4.45885e-08 -1.41227e-08 -2.06987e-08 )  
( -1.85518e-08 -1.02504e-09 -1.03987e-08 )  
( 7.53008e-08 -9.36265e-09 -6.03318e-08 )  
( -5.94466e-08 -7.54919e-09 -2.56757e-08 )  
( -3.35662e-11 1.67148e-09 -1.14707e-08 )  
( -6.12444e-08 6.10541e-10 -2.22766e-08 )  
( 1.32075e-08 -1.99252e-08 -7.16022e-08 )  
( -3.69681e-09 -1.154e-09 -1.34724e-09 )  
( 8.22848e-10 -1.43611e-09 -7.80889e-09 )  
( 8.06257e-08 2.07485e-08 -4.37009e-08 )  
( 6.50294e-08 -1.95522e-08 -4.54944e-08 )  
( -4.10937e-09 -4.60903e-09 -5.38491e-09 )  
( -3.62207e-08 7.39098e-09 -5.7734e-08 )  
( -3.41988e-09 -1.50156e-09 2.38906e-09 )  
( -2.10017e-09 -1.32372e-09 -3.12715e-09 )  
( 8.74619e-08 1.33309e-08 -5.77283e-08 )  
( -3.54449e-08 -1.02878e-08 -4.24562e-09 )  
( -5.60107e-08 2.87656e-09 -7.62917e-09 )  
( 2.12594e-08 1.49546e-08 -2.62623e-08 )  
( -2.39683e-08 -3.1566e-10 -1.50902e-08 )  
( -2.83156e-09 -2.50449e-09 -1.91672e-09 )  
( -7.38908e-08 5.39446e-09 -1.80112e-08 )  
( -4.55189e-08 -2.23373e-08 3.66213e-09 )  
( 5.35226e-09 -1.60233e-08 1.50365e-08 )  
( 4.88492e-08 1.52984e-08 -1.21326e-08 )  
( -4.1451e-08 -4.95038e-10 -2.63033e-08 )  
( -1.84213e-08 -5.3834e-09 -4.37234e-09 )  
( 6.11901e-10 -4.08669e-09 -1.03718e-10 )  
( -6.20208e-08 -5.63058e-09 -2.69485e-08 )  
( -7.28229e-08 1.52817e-08 7.56082e-09 )  
( -2.29941e-09 -3.66148e-09 6.60019e-10 )  
( 2.75916e-08 1.16457e-09 -7.02057e-08 )  
( 9.43795e-08 -5.21154e-09 -5.47865e-08 )  
( -2.7674e-08 -9.28064e-09 4.7776e-09 )  
( 3.70594e-08 -1.05916e-09 -5.5263e-08 )  
( -7.6197e-09 -9.55055e-11 -1.09393e-09 )  
( -4.65976e-08 -5.09391e-09 -2.20903e-08 )  
( -2.71288e-08 -9.41794e-09 -1.80154e-08 )  
( 1.24479e-08 8.67294e-09 -9.00094e-08 )  
( -1.17546e-08 -4.36065e-09 -5.05699e-10 )  
( -5.59662e-08 -6.32226e-09 -2.55884e-08 )  
( -4.62158e-09 2.0575e-09 -1.09057e-09 )  
( -7.22464e-09 1.13563e-08 -5.7433e-08 )  
( -5.78104e-08 -1.18624e-08 -1.94259e-08 )  
( -4.28322e-08 -9.03937e-09 -1.71517e-08 )  
( -3.01808e-08 2.18878e-09 -1.23108e-08 )  
( -1.63139e-08 1.13887e-09 -4.77264e-09 )  
( -4.57387e-08 7.49526e-09 -2.20951e-08 )  
( -5.58041e-08 -6.02808e-09 -2.5434e-08 )  
( -1.92329e-08 -2.0533e-10 -4.60083e-09 )  
( -2.82823e-08 -5.31867e-09 -1.10984e-08 )  
( -2.48235e-08 -3.5223e-09 -1.55128e-08 )  
( -3.84089e-08 -8.43846e-09 -1.85798e-08 )  
( -2.19315e-08 3.66229e-09 -6.46733e-09 )  
( 3.57639e-10 -2.0549e-09 -6.18614e-09 )  
( -3.1054e-08 -2.63783e-09 -1.20074e-08 )  
( 3.42173e-08 -1.8933e-08 -6.97917e-08 )  
( -3.66419e-08 -2.78171e-09 -1.4821e-08 )  
( 3.9373e-08 -1.83516e-08 -1.94681e-08 )  
( -3.35864e-08 -1.327e-08 -6.54647e-08 )  
( -4.50548e-08 -1.03185e-08 -1.54403e-08 )  
( -1.85424e-08 1.48398e-08 -3.34211e-08 )  
( 6.86125e-08 -8.83378e-09 -4.70729e-08 )  
( -4.7412e-08 1.60669e-10 -2.40659e-08 )  
( -3.48259e-09 -3.22543e-09 -4.73041e-09 )  
( -1.75788e-10 -2.00001e-09 -1.31912e-09 )  
( 6.80976e-08 1.31914e-09 -3.73118e-08 )  
( 6.17951e-08 -4.52792e-09 -4.64956e-08 )  
( -7.86765e-09 -1.72973e-09 -5.29345e-09 )  
( 6.99794e-09 -3.73996e-08 -6.60222e-08 )  
( -9.02573e-08 3.96289e-09 -5.64223e-08 )  
( -2.14806e-08 -3.25416e-09 -1.29301e-08 )  
( 1.32572e-08 -5.26466e-08 -8.62283e-08 )  
( 1.13085e-07 5.74528e-09 -1.21428e-08 )  
( -4.90802e-08 -2.74218e-09 -2.02682e-08 )  
( 1.08823e-07 1.72381e-08 -7.90274e-08 )  
( 6.51563e-08 -7.91456e-09 -3.64464e-08 )  
( -9.71239e-09 -4.48103e-09 -1.93214e-09 )  
( -8.2681e-09 4.81096e-09 -2.64372e-09 )  
( 7.60332e-08 -1.59595e-08 -2.50625e-08 )  
( -1.00384e-07 -1.11609e-08 -3.74302e-08 )  
( -4.67286e-08 -1.21047e-08 -7.22295e-09 )  
( 5.89009e-08 1.65734e-09 -3.74084e-08 )  
( -4.05408e-08 -4.80354e-09 -1.30084e-08 )  
( 6.07854e-08 -1.63563e-08 -5.63977e-08 )  
( -4.39683e-08 -5.28508e-09 -1.97134e-08 )  
( -6.88058e-08 6.45668e-09 -3.24653e-08 )  
( 6.16564e-08 -8.69871e-09 -4.39036e-08 )  
( 1.09034e-08 1.24546e-08 -6.9121e-08 )  
( -6.16466e-09 -1.17997e-09 -8.86672e-12 )  
( -1.43492e-07 2.61569e-09 -2.57609e-08 )  
( 4.01808e-08 1.35615e-08 -7.64132e-08 )  
( -5.59626e-08 -6.71536e-09 -2.32088e-08 )  
( 7.03416e-08 4.11678e-09 -3.71212e-08 )  
( 7.85951e-08 6.80216e-10 -8.46155e-08 )  
( -7.53087e-08 5.72801e-09 -2.15968e-08 )  
( 4.07226e-08 -3.52924e-08 -8.22516e-08 )  
( -4.4045e-08 -7.53867e-09 -2.11864e-08 )  
( -9.36635e-08 3.08672e-09 -1.26104e-08 )  
( -4.63669e-09 3.38271e-09 8.82341e-10 )  
( 6.7811e-08 -7.8713e-09 -5.42552e-08 )  
( 6.80129e-08 -8.15358e-09 -3.28434e-08 )  
( -6.76384e-08 -1.87125e-09 -3.05518e-08 )  
( -8.83214e-08 -5.50224e-09 -3.42354e-08 )  
( -2.16329e-08 -1.76417e-09 -7.60252e-09 )  
( 4.57546e-08 -1.2115e-08 -5.06685e-08 )  
( -1.11018e-08 7.66917e-10 -3.61568e-09 )  
( 4.9466e-08 1.84475e-09 -3.00431e-08 )  
( -3.96017e-08 -1.76988e-09 -1.64916e-08 )  
( -6.05493e-08 -1.9684e-09 -3.20923e-08 )  
( -8.53148e-09 1.68078e-09 -5.32665e-09 )  
( 5.30494e-08 -1.68067e-08 -6.17624e-08 )  
( -2.53239e-08 -2.12841e-09 -1.23439e-08 )  
( 5.8836e-08 -4.46913e-09 -4.89706e-08 )  
( -2.15046e-08 4.12485e-09 -6.41862e-09 )  
( -4.96287e-08 -1.06756e-08 -2.13864e-08 )  
( -2.51959e-08 -2.00257e-09 -5.86049e-09 )  
( -2.10163e-07 7.62735e-10 -8.304e-09 )  
( 1.00926e-07 -2.1695e-08 -8.30597e-08 )  
( -1.89152e-08 -6.01998e-09 -1.34587e-09 )  
( -8.46917e-08 9.44003e-10 -2.67852e-08 )  
( -6.99889e-08 6.33326e-09 -2.56711e-08 )  
( 3.82274e-07 -7.47474e-08 -4.22415e-08 )  
( -1.82327e-07 -1.56899e-08 -3.89513e-08 )  
( -2.60742e-08 -3.50654e-10 4.28958e-09 )  
( 8.95281e-08 3.74212e-08 -2.42324e-08 )  
( 1.07537e-07 1.15595e-08 -8.50116e-08 )  
( -7.18966e-08 -3.33323e-08 -6.09368e-08 )  
( 1.36759e-07 3.17544e-08 -4.99483e-08 )  
( -8.73255e-08 1.53355e-08 -5.84255e-09 )  
( 1.03558e-07 -3.53167e-08 -6.48681e-08 )  
( -2.76094e-08 2.53702e-08 -6.92891e-08 )  
( 8.54396e-08 5.38411e-09 -6.03225e-08 )  
( -1.91424e-07 1.47503e-08 -1.22585e-09 )  
( -2.17145e-07 -2.23723e-09 -4.09363e-09 )  
( -2.60865e-08 -3.07696e-09 -1.66387e-08 )  
( 2.59076e-08 1.87194e-09 -1.32372e-08 )  
( -4.76036e-08 -2.51296e-09 -1.53188e-08 )  
( 4.62863e-08 4.01945e-09 -8.11424e-08 )  
( -4.11929e-08 -1.41591e-08 1.75512e-10 )  
( 5.37365e-08 2.23982e-09 -3.21904e-08 )  
( 1.87157e-07 1.55289e-08 -6.63536e-08 )  
( 1.15887e-07 1.64108e-08 -8.0417e-08 )  
( 6.14623e-08 -2.14059e-07 -4.11404e-08 )  
( 5.21848e-08 1.61552e-08 -7.04964e-08 )  
( -4.33531e-08 2.85607e-08 -5.48292e-08 )  
)
