/*--------------------------------*- C++ -*----------------------------------*\
| =========                 |                                                 |
| \\      /  F ield         | OpenFOAM: The Open Source CFD Toolbox           |
|  \\    /   O peration     | Version:  4.x                                   |
|   \\  /    A nd           | Web:      www.OpenFOAM.org                      |
|    \\/     M anipulation  |                                                 |
\*---------------------------------------------------------------------------*/
FoamFile
{
    version     2.0;
    format      ascii;
    class       volVectorField;
    location    "14";
    object      GField;
}
// * * * * * * * * * * * * * * * * * * * * * * * * * * * * * * * * * * * * * //

dimensions      [1 -2 -1 0 0 0 0];

internalField   nonuniform List<vector> 
108
(
(77.1212 0.981192 -0.295557)
(117.266 1.33981 5.46189)
(64.1855 1.75001 1.79196)
(112.987 2.83546 4.01261)
(50.8967 1.86554 0.630286)
(114.554 3.91453 2.99563)
(44.0636 5.41712 -3.87437)
(134.731 3.11391 1.93761)
(36.6452 21.8525 -41.6635)
(76.1568 0.179921 0.975382)
(115.083 0.946034 3.68836)
(62.1782 1.3526 3.99413)
(113.386 0.399763 5.85007)
(47.8351 -0.283978 5.00453)
(112.856 -1.3571 3.09756)
(37.5444 -4.8361 4.05478)
(121.297 -0.69381 -1.58612)
(36.3491 -23.5892 -45.9156)
(85.7102 3.11765 0.0604745)
(120.158 1.22891 2.89005)
(73.6087 2.26522 4.22115)
(115.305 4.07752 7.01824)
(52.4513 2.76846 7.60094)
(100.948 4.06906 8.82948)
(25.217 2.42477 7.16731)
(73.7741 -1.7298 3.71354)
(9.47307 0.475356 3.11396)
(100.331 2.38508 -2.79462)
(138.231 1.28298 0.0344963)
(100.651 3.12888 4.1835)
(142.613 4.30437 4.01973)
(97.222 7.8581 11.2217)
(142.361 5.92893 9.88375)
(80.9894 16.3663 26.0714)
(133.303 2.39022 9.613)
(50.352 45.2896 -68.6857)
(22.4014 0.970662 -0.871493)
(89.7979 -2.69759 5.0553)
(24.0471 1.42606 -1.00462)
(93.3606 -0.311592 6.50108)
(26.0854 1.42652 -2.5117)
(95.6692 -0.0155704 2.35389)
(28.9227 3.95265 -9.11641)
(93.4956 2.49182 2.58755)
(33.5547 19.6124 -54.2285)
(22.4712 1.12549 -0.322432)
(92.3364 -1.25481 9.70924)
(20.5298 1.78432 -0.507327)
(97.3608 1.07575 5.46346)
(22.5921 2.85939 -2.45635)
(104.874 -0.0324776 4.25996)
(22.1226 3.88136 -6.32713)
(110.24 -1.74025 4.51555)
(30.691 9.45166 -69.0784)
(33.4746 0.802937 -0.794454)
(93.5376 0.12693 7.19639)
(28.6029 2.17776 0.846236)
(95.881 0.803923 8.25788)
(28.6868 2.65072 1.64091)
(101.631 1.22277 9.09975)
(31.6224 9.42093 2.49602)
(99.9662 -8.57061 6.25898)
(35.7879 56.5242 -6.56537)
(72.1135 1.83354 -4.9108)
(112.489 1.1421 0.540886)
(70.7687 4.88807 -1.05988)
(123.764 2.00559 5.20842)
(68.6721 7.0629 2.50145)
(142.17 0.0584813 13.6373)
(64.2441 17.5827 5.3905)
(192.723 -7.07929 20.766)
(37.0347 68.0255 -95.4345)
(-6.63119 1.75804 0.798304)
(79.5513 1.98417 2.69901)
(-1.71706 2.18056 0.690772)
(83.2287 -1.36493 0.492496)
(10.4349 -0.62231 -0.645869)
(84.1056 -0.0421951 -0.715721)
(11.2979 0.619248 -3.30071)
(79.0974 2.27558 -0.182572)
(16.2742 4.0471 -12.3327)
(-4.05944 1.7223 0.425847)
(81.1764 3.34762 1.62255)
(8.76905 0.694616 0.206499)
(84.0526 -1.20692 0.220375)
(10.0974 0.706865 -0.725994)
(86.0906 -0.811725 -0.802476)
(13.1796 2.08733 -3.40623)
(88.9248 -4.69889 -2.91606)
(23.2235 11.3094 -18.9967)
(-2.46179 0.660967 0.229492)
(81.7383 -4.22325 3.5568)
(9.14326 0.673281 0.648051)
(85.4083 0.29659 3.43352)
(13.7358 0.99913 0.324238)
(93.2188 -0.978282 2.74118)
(20.8163 2.34258 -1.60551)
(109.981 -7.06598 1.44615)
(20.9556 7.92825 -13.1538)
(59.2043 2.51243 -0.775628)
(100.347 -1.07188 1.18503)
(53.7147 1.57263 1.90932)
(104.609 -0.46645 6.2964)
(51.9315 1.22499 5.11097)
(110.804 -2.24004 12.4816)
(48.7177 1.09936 4.92216)
(124.031 -6.11023 17.4588)
(35.8478 1.80234 -18.623)
)
;

boundaryField
{
    inlet
    {
        type            calculated;
        value           nonuniform 0();
    }
    outlet
    {
        type            calculated;
        value           nonuniform List<vector> 
12
(
(76.0683 45.3615 -86.4854)
(75.1822 -48.7905 -94.969)
(19.7703 0.992068 6.49884)
(100.89 90.7469 -137.626)
(72.1252 42.1565 -116.563)
(65.8416 20.2767 -148.194)
(76.6524 121.066 -14.0621)
(78.8536 144.839 -203.198)
(35.4696 8.82068 -26.8791)
(50.5699 24.6266 -41.366)
(45.4494 17.1952 -28.5287)
(78.1752 3.93047 -40.6122)
)
;
    }
    wall
    {
        type            calculated;
        value           uniform (0 0 0);
    }
    procBoundary3to1
    {
        type            processor;
        value           nonuniform List<vector> 
27
(
(75.2282 -4.49391 -0.337208)
(115.905 0.365264 6.83906)
(56.1254 -4.10828 0.883236)
(108.207 -0.491533 4.93316)
(36.0224 -3.02207 1.28607)
(98.7002 0.0135191 2.31752)
(18.2815 -0.421118 0.780422)
(83.0546 -0.291986 -5.01531)
(17.0495 8.008 1.30246)
(-7.76825 2.60082 -0.940945)
(85.5767 1.83816 8.88392)
(-3.31814 2.2634 0.145961)
(80.3186 2.01278 3.68951)
(-1.17431 1.21714 -0.0283286)
(77.7606 2.28722 0.939879)
(3.02566 -0.916989 -1.32091)
(69.5253 4.01287 1.1561)
(1.62887 -0.278725 -0.594032)
(-7.46694 2.25211 0.63911)
(79.8866 6.82768 0.885603)
(-3.15533 2.23361 1.14493)
(77.8373 5.61843 -0.545947)
(5.71668 -1.3568 -0.452064)
(81.0902 1.73569 -6.19367)
(10.8631 -2.41763 -2.37315)
(74.9158 3.27691 -3.26111)
(17.3717 -3.69784 -4.73419)
)
;
    }
    procBoundary3to2
    {
        type            processor;
        value           nonuniform List<vector> 
12
(
(119.616 0.236415 -0.916207)
(116.197 -0.85958 -1.54889)
(120.696 1.8398 -0.777668)
(124.493 0.639384 -1.37572)
(86.3167 5.16357 -1.12362)
(89.5178 0.000206322 -5.08593)
(92.7815 3.93812 -5.33165)
(110.495 1.97001 -5.59639)
(76.0542 -4.07949 1.50437)
(82.0874 -3.03485 4.29834)
(81.6751 6.39324 2.08375)
(97.7803 5.08532 -1.18188)
)
;
    }
    procBoundary3to7
    {
        type            processor;
        value           nonuniform List<vector> 
36
(
(15.5908 0.708464 -0.354446)
(83.5604 -3.32695 1.69648)
(15.2754 0.105521 -1.09513)
(80.9556 -1.72028 -1.27642)
(14.825 -0.155202 -3.14894)
(73.9026 0.643513 1.0512)
(13.8728 0.415911 -5.64346)
(63.1809 0.512279 2.57553)
(21.4106 1.85884 -13.9296)
(26.5434 1.73195 4.13046)
(88.9268 -0.749629 1.07884)
(24.2042 2.02589 -0.0209525)
(90.3 1.04724 0.444049)
(22.1373 3.62743 -3.40337)
(91.5522 -0.109307 -0.879476)
(21.844 7.1087 -8.03056)
(86.3339 -4.1091 0.469974)
(23.604 13.529 -20.0868)
(25.8009 0.3654 -0.319953)
(88.1475 0.385861 -2.54619)
(26.368 1.53031 -1.96054)
(90.7933 -0.125226 0.336065)
(29.1139 2.4588 -4.25978)
(94.7462 -1.52914 0.394314)
(32.5104 9.98202 -10.7633)
(94.1182 -8.10992 4.06336)
(35.2054 45.3205 -39.9282)
(54.8758 0.917143 -2.72217)
(101.194 -0.196661 -0.929589)
(53.9086 2.60333 -1.14663)
(110.456 -1.35626 4.49289)
(52.8277 3.57754 0.863684)
(124.781 -4.8912 10.8898)
(48.2315 10.9142 -1.91892)
(155.522 -12.3073 17.4656)
(30.2328 40.0081 -20.2045)
)
;
    }
}


// ************************************************************************* //
