/*--------------------------------*- C++ -*----------------------------------*\
| =========                 |                                                 |
| \\      /  F ield         | OpenFOAM: The Open Source CFD Toolbox           |
|  \\    /   O peration     | Version:  4.x                                   |
|   \\  /    A nd           | Web:      www.OpenFOAM.org                      |
|    \\/     M anipulation  |                                                 |
\*---------------------------------------------------------------------------*/
FoamFile
{
    version     2.0;
    format      ascii;
    class       volScalarField;
    location    "14";
    object      QPartFluid;
}
// * * * * * * * * * * * * * * * * * * * * * * * * * * * * * * * * * * * * * //

dimensions      [1 -1 -3 0 0 0 0];

internalField   nonuniform List<scalar> 
108
(
8.57189e+09
3.78456e+09
6.6316e+09
3.13927e+09
4.67737e+09
3.65474e+09
5.30979e+09
4.48298e+09
3.87547e+09
6.55109e+09
9.24446e+09
5.00628e+09
5.47836e+09
6.01767e+09
4.94906e+09
5.97106e+09
5.48602e+09
4.55538e+09
6.78138e+09
6.43042e+09
7.07208e+09
4.82008e+09
5.99624e+09
5.00877e+09
6.08378e+09
6.15637e+09
3.45867e+09
4.41608e+09
3.92715e+09
5.05654e+09
6.60124e+09
4.97668e+09
5.4576e+09
3.57123e+09
4.91445e+09
5.10439e+09
8.4446e+09
7.8284e+09
1.00777e+10
1.03301e+10
8.53833e+09
7.77287e+09
6.90021e+09
8.23844e+09
8.36498e+09
7.72672e+09
8.01671e+09
8.44308e+09
9.024e+09
7.82214e+09
8.15195e+09
9.83782e+09
9.25799e+09
6.76756e+09
1.28025e+10
9.76624e+09
9.02003e+09
1.11503e+10
8.43305e+09
9.66017e+09
8.34118e+09
9.50831e+09
7.94517e+09
8.50443e+09
7.07378e+09
7.06141e+09
8.00632e+09
9.55072e+09
7.42188e+09
7.62567e+09
8.76455e+09
6.33581e+09
7.89801e+09
1.04469e+10
9.07336e+09
1.00923e+10
6.6419e+09
7.78169e+09
9.27256e+09
8.44363e+09
6.85822e+09
9.28423e+09
6.13879e+09
8.3593e+09
5.09446e+09
4.69118e+09
9.69421e+09
8.1206e+09
1.12621e+10
5.62248e+09
6.61124e+09
1.03005e+10
9.32692e+09
7.25313e+09
7.65605e+09
1.01683e+10
8.37654e+09
9.68069e+09
4.89824e+09
6.10435e+09
4.61006e+09
5.87979e+09
6.98859e+09
6.62258e+09
8.64445e+09
6.75979e+09
9.78694e+09
8.01889e+09
)
;

boundaryField
{
    inlet
    {
        type            calculated;
        value           nonuniform 0();
    }
    outlet
    {
        type            calculated;
        value           uniform 0;
    }
    wall
    {
        type            calculated;
        value           uniform 0;
    }
    procBoundary3to1
    {
        type            processor;
        value           nonuniform List<scalar> 
27
(
3.91429e+09
6.8791e+09
6.07473e+09
8.47277e+09
5.76875e+09
5.24179e+09
4.80564e+09
5.19557e+09
3.59613e+09
8.5152e+09
8.23878e+09
6.88238e+09
6.46401e+09
5.49371e+09
8.74405e+09
8.72156e+09
1.21904e+10
3.77026e+09
7.77213e+09
7.65246e+09
5.28216e+09
1.08596e+10
8.80043e+09
1.05461e+10
7.40039e+09
9.40861e+09
3.15979e+09
)
;
    }
    procBoundary3to2
    {
        type            processor;
        value           nonuniform List<scalar> 
12
(
3.03773e+09
4.54231e+09
6.5645e+09
3.92308e+09
1.11851e+10
6.40712e+09
7.69177e+09
4.74447e+09
8.78881e+09
5.70047e+09
1.01086e+10
9.70905e+09
)
;
    }
    procBoundary3to7
    {
        type            processor;
        value           nonuniform List<scalar> 
36
(
1.0363e+10
9.17559e+09
6.70887e+09
7.97545e+09
1.1395e+10
1.23785e+10
8.37312e+09
6.44092e+09
6.47959e+09
8.11967e+09
1.15821e+10
7.90678e+09
8.16652e+09
9.17053e+09
7.19652e+09
8.57059e+09
7.9763e+09
7.02792e+09
6.23523e+09
9.23878e+09
7.15214e+09
8.99191e+09
8.61766e+09
1.05927e+10
8.7299e+09
9.28514e+09
7.79996e+09
5.48985e+09
8.02486e+09
9.16613e+09
6.03129e+09
8.06274e+09
8.40172e+09
8.48462e+09
7.64862e+09
4.05835e+09
)
;
    }
}


// ************************************************************************* //
