/*--------------------------------*- C++ -*----------------------------------*\
| =========                 |                                                 |
| \\      /  F ield         | OpenFOAM: The Open Source CFD Toolbox           |
|  \\    /   O peration     | Version:  4.x                                   |
|   \\  /    A nd           | Web:      www.OpenFOAM.org                      |
|    \\/     M anipulation  |                                                 |
\*---------------------------------------------------------------------------*/
FoamFile
{
    version     2.0;
    format      ascii;
    class       volVectorField;
    location    "14";
    object      U;
}
// * * * * * * * * * * * * * * * * * * * * * * * * * * * * * * * * * * * * * //

dimensions      [0 1 -1 0 0 0 0];

internalField   nonuniform List<vector> 
108
(
(0.0238931 0.000258438 -5.62911e-05)
(0.0362533 0.000422457 0.0016651)
(0.0200027 0.000573367 0.000557694)
(0.0349597 0.000859129 0.00123857)
(0.0157542 0.000586257 0.000201116)
(0.0354231 0.00121594 0.000923203)
(0.0137282 0.00168691 -0.00120608)
(0.0419484 0.000963533 0.000605233)
(0.0113496 0.00678589 -0.0129188)
(0.0236385 4.78252e-05 0.000313198)
(0.0360076 0.000307358 0.0011465)
(0.0193367 0.000431263 0.00123613)
(0.0352332 0.000116332 0.00181335)
(0.0148773 -8.10954e-05 0.0015599)
(0.0350215 -0.000413461 0.000959917)
(0.0117469 -0.00151368 0.00126869)
(0.0379618 -0.000214722 -0.000495103)
(0.0112111 -0.00728453 -0.0141831)
(0.0265365 0.000945417 3.1081e-05)
(0.0373523 0.000369113 0.000895255)
(0.0229446 0.000700892 0.00131474)
(0.0358112 0.00125358 0.00217766)
(0.0163254 0.000858442 0.00236765)
(0.0313405 0.00126294 0.00273882)
(0.00788113 0.000757635 0.00224234)
(0.0230826 -0.000543632 0.00116004)
(0.00294479 0.000151009 0.000970457)
(0.0307803 0.000727636 -0.000845865)
(0.0424739 0.000399447 1.20623e-05)
(0.0310829 0.000971467 0.00129166)
(0.0443764 0.00133715 0.00125082)
(0.0302081 0.00244241 0.00348837)
(0.0441811 0.00183744 0.00306776)
(0.0251071 0.00507529 0.00808293)
(0.0416333 0.000743237 0.00300219)
(0.0150483 0.0135536 -0.0205382)
(0.00708344 0.000244145 -0.000228358)
(0.028407 -0.000801899 0.00160677)
(0.00772289 0.000489956 -0.000314392)
(0.0298346 -0.000116525 0.00207619)
(0.00829087 0.000467268 -0.000795988)
(0.030418 6.18342e-06 0.000745287)
(0.00924042 0.00126064 -0.00290989)
(0.0298886 0.000793892 0.000830437)
(0.0107697 0.00629376 -0.0174085)
(0.0071357 0.000324814 -8.57241e-05)
(0.0292801 -0.000365657 0.00306794)
(0.00653619 0.000578203 -0.000167944)
(0.0310221 0.000335792 0.00173874)
(0.00717705 0.000912831 -0.000780326)
(0.0333875 -2.2602e-06 0.00135367)
(0.00710507 0.00124669 -0.00203038)
(0.0353413 -0.000559336 0.00144822)
(0.00982451 0.00303513 -0.0221278)
(0.0106367 0.000236157 -0.000242982)
(0.0296947 3.65722e-05 0.00227255)
(0.0091006 0.000694075 0.000267055)
(0.0305834 0.000248753 0.00263175)
(0.00913255 0.000840709 0.00052435)
(0.0323913 0.000391542 0.00289716)
(0.010102 0.00300994 0.000799798)
(0.0320044 -0.00274692 0.00200144)
(0.011437 0.0180846 -0.00208348)
(0.0226584 0.000571214 -0.00152804)
(0.0352794 0.00036803 0.000162984)
(0.0222978 0.00154658 -0.000336213)
(0.0391994 0.000634947 0.00165076)
(0.0218822 0.00225136 0.000796068)
(0.0450899 1.92399e-05 0.00432549)
(0.0204543 0.00559841 0.00171618)
(0.0615376 -0.00226038 0.00662823)
(0.011756 0.0216294 -0.0303343)
(-0.00207688 0.000511625 0.000255782)
(0.0257516 0.000677162 0.00088742)
(-0.000522945 0.000737881 0.000227958)
(0.0270849 -0.000466174 0.000162952)
(0.00336377 -0.000190372 -0.000212036)
(0.0273526 -7.72182e-06 -0.000231556)
(0.00370555 0.000201084 -0.00107872)
(0.0257798 0.000738658 -5.84876e-05)
(0.0052972 0.00132437 -0.00401287)
(-0.00125822 0.000504013 0.000134946)
(0.026123 0.00107244 0.000518407)
(0.00283567 0.000226437 6.55669e-05)
(0.0270385 -0.000397253 7.13782e-05)
(0.00324002 0.000233371 -0.000235166)
(0.0280225 -0.000256773 -0.000261881)
(0.00430874 0.000683859 -0.00111272)
(0.0291089 -0.00154128 -0.000954733)
(0.00754598 0.00369907 -0.00617526)
(-0.000773779 0.000186741 7.37001e-05)
(0.026334 -0.00136748 0.00114071)
(0.00295921 0.000216909 0.000209836)
(0.0274977 8.65475e-05 0.00110494)
(0.00443796 0.000318488 0.000103559)
(0.0303435 -0.000315255 0.000891636)
(0.00677075 0.000761321 -0.000522037)
(0.0358482 -0.00230574 0.000471156)
(0.00676487 0.00257148 -0.00425693)
(0.0187747 0.000798323 -0.000240194)
(0.0318037 -0.000328171 0.000367115)
(0.0171528 0.000507843 0.000610815)
(0.0335419 -0.000148311 0.00201959)
(0.0167152 0.000392836 0.00164247)
(0.0358973 -0.000724283 0.00404403)
(0.0157952 0.000355912 0.00159588)
(0.0404064 -0.00199179 0.00568759)
(0.0116649 0.000573963 -0.0060571)
)
;

boundaryField
{
    inlet
    {
        type            fixedValue;
        value           nonuniform 0();
    }
    outlet
    {
        type            zeroGradient;
    }
    wall
    {
        type            fixedValue;
        value           uniform (0 0 0);
    }
    procBoundary3to1
    {
        type            processor;
        value           nonuniform List<vector> 
27
(
(0.0230788 -0.00137495 -7.52233e-05)
(0.0356529 7.36722e-05 0.00205578)
(0.0174256 -0.00125419 0.000262195)
(0.0337263 -0.000179192 0.00153151)
(0.01115 -0.000945391 0.000397032)
(0.0306389 8.82713e-06 0.000712296)
(0.00571563 -0.000130235 0.000244298)
(0.0258576 -0.000100387 -0.0015642)
(0.00528241 0.00250623 0.000409491)
(-0.00241435 0.000761854 -0.000272323)
(0.0268128 0.000554895 0.00275763)
(-0.000957459 0.000743051 2.44434e-05)
(0.0254194 0.000598715 0.00116959)
(-0.000383935 0.000373708 -1.3093e-05)
(0.0247735 0.000731577 0.000296577)
(0.000983088 -0.000293073 -0.000420691)
(0.0223362 0.00128645 0.000369401)
(0.000506394 -7.91166e-05 -0.000189066)
(-0.00234035 0.000678313 0.000231156)
(0.0254985 0.00211938 0.000249251)
(-0.000929128 0.000733576 0.000369205)
(0.0252826 0.00176476 -0.000179781)
(0.00181137 -0.000442609 -0.000146353)
(0.0264175 0.000565552 -0.00201185)
(0.00354522 -0.000790911 -0.000772989)
(0.0243332 0.00106284 -0.00105976)
(0.00556066 -0.001177 -0.00151948)
)
;
    }
    procBoundary3to2
    {
        type            processor;
        value           nonuniform List<vector> 
12
(
(0.0365009 0.000106394 -0.000302742)
(0.0356481 -0.000251392 -0.000486148)
(0.0370269 0.000575928 -0.00024459)
(0.0377805 0.00019201 -0.000419415)
(0.027218 0.00165364 -0.000391238)
(0.0280609 2.92809e-05 -0.00160231)
(0.0290607 0.00125444 -0.00167439)
(0.0342695 0.00061305 -0.00174298)
(0.0243498 -0.00126969 0.000473499)
(0.0261714 -0.000921158 0.0013645)
(0.0261159 0.00205841 0.000659336)
(0.0311392 0.00161423 -0.000385336)
)
;
    }
    procBoundary3to7
    {
        type            processor;
        value           nonuniform List<vector> 
36
(
(0.00510672 0.000139031 -0.00015383)
(0.0273374 -0.00100641 0.000554004)
(0.0050215 6.07829e-05 -0.000352842)
(0.0265956 -0.000578974 -0.000428208)
(0.00490324 -4.00688e-05 -0.00104418)
(0.0245793 0.000219229 0.000348471)
(0.00460613 0.000137785 -0.00187242)
(0.020786 0.000165415 0.000846523)
(0.00708636 0.000619783 -0.00460585)
(0.00866339 0.000534092 0.00132793)
(0.0292071 -0.000231145 0.00033915)
(0.00792608 0.000666481 -4.49211e-06)
(0.0295931 0.00033372 0.000133857)
(0.00729752 0.00120193 -0.00112418)
(0.0301541 -2.99698e-05 -0.000288343)
(0.00722897 0.00235128 -0.00265861)
(0.0284708 -0.00135794 0.000155087)
(0.00780008 0.00448189 -0.00663911)
(0.00830411 0.000105882 -9.83401e-05)
(0.0287192 0.00011814 -0.000823617)
(0.00859871 0.000502573 -0.000632326)
(0.029671 -4.74516e-05 0.000109138)
(0.00957032 0.000804051 -0.0014001)
(0.0312966 -0.00050213 0.000129918)
(0.0107361 0.00329656 -0.00355521)
(0.0310281 -0.00267611 0.00134031)
(0.0116098 0.0149699 -0.0131883)
(0.0175472 0.000293189 -0.000866907)
(0.0327753 -5.65423e-05 -0.000305024)
(0.0175826 0.000855475 -0.000370673)
(0.0358879 -0.00043926 0.00145653)
(0.0172909 0.0011706 0.000283206)
(0.0409778 -0.0016044 0.00357608)
(0.0158883 0.00359544 -0.00063208)
(0.0509444 -0.00403049 0.00571927)
(0.00980305 0.0130118 -0.00656328)
)
;
    }
}


// ************************************************************************* //
