/*--------------------------------*- C++ -*----------------------------------*\
| =========                 |                                                 |
| \\      /  F ield         | OpenFOAM: The Open Source CFD Toolbox           |
|  \\    /   O peration     | Version:  4.x                                   |
|   \\  /    A nd           | Web:      www.OpenFOAM.org                      |
|    \\/     M anipulation  |                                                 |
\*---------------------------------------------------------------------------*/
FoamFile
{
    version     2.0;
    format      ascii;
    class       volScalarField;
    location    "44";
    object      KslNext;
}
// * * * * * * * * * * * * * * * * * * * * * * * * * * * * * * * * * * * * * //

dimensions      [1 -3 -1 0 0 0 0];

internalField   nonuniform List<scalar> 
87
(
3782.85
13296.5
3504.79
3229.01
6689.78
3141.17
3574.57
12505.9
3853.64
26888.2
3982.68
132736
4017.39
1e+10
3996.88
3485.07
10742.5
3682.68
15539.6
3783.28
25528.3
3821.2
63843.9
3819.63
3370.99
8127.54
3392.12
7939.25
3424.46
8248.29
3415.37
8697.06
3423.61
3513.76
10638.2
3701.21
15023.3
3750.43
23140.6
3782.09
44617.5
3751.43
3438.32
9121.93
3562.22
10097
3592.46
11268
3617.36
13314.4
3572.4
3357.79
7542.75
3298.11
6937.98
3263.59
6643.27
3222.3
6507.26
3161.6
3426.3
8076.41
3454.77
8047.99
3411.48
8039.03
3400.78
8317.08
3316.9
3368.66
7560.28
3341.93
7048.73
3289.22
6757.96
3256.7
6677.53
3179.32
3315.24
6964.08
3196.43
6004.89
3064.07
5468.01
3012.11
5215.48
2959.39
)
;

boundaryField
{
    inlet
    {
        type            zeroGradient;
    }
    outlet
    {
        type            zeroGradient;
    }
    wall
    {
        type            zeroGradient;
    }
    procBoundary6to0
    {
        type            processor;
        value           uniform 0;
    }
    procBoundary6to2
    {
        type            processor;
        value           uniform 0;
    }
    procBoundary6to4
    {
        type            processor;
        value           uniform 0;
    }
    procBoundary6to7
    {
        type            processor;
        value           uniform 0;
    }
}


// ************************************************************************* //
