/*--------------------------------*- C++ -*----------------------------------*\
| =========                 |                                                 |
| \\      /  F ield         | OpenFOAM: The Open Source CFD Toolbox           |
|  \\    /   O peration     | Version:  4.x                                   |
|   \\  /    A nd           | Web:      www.OpenFOAM.org                      |
|    \\/     M anipulation  |                                                 |
\*---------------------------------------------------------------------------*/
FoamFile
{
    version     2.0;
    format      ascii;
    class       surfaceScalarField;
    location    "44";
    object      phi;
}
// * * * * * * * * * * * * * * * * * * * * * * * * * * * * * * * * * * * * * //

dimensions      [0 3 -1 0 0 0 0];

internalField   nonuniform List<scalar> 
192
(
2.59758e-07
-2.14918e-08
7.27806e-06
7.26841e-08
-1.27308e-07
1.49241e-07
-1.40115e-07
9.32161e-06
-2.48933e-07
9.38087e-06
-3.06437e-07
-2.29582e-07
7.2405e-06
3.7134e-07
6.7971e-08
6.91406e-06
1.50331e-07
2.10486e-08
6.08524e-06
3.6056e-07
1.05154e-07
5.81888e-06
9.6804e-08
3.03162e-08
5.27775e-06
2.07813e-07
9.55662e-08
5.12066e-06
5.49436e-08
3.06271e-08
5.027e-06
2.7103e-08
1.78537e-08
4.94286e-06
2.5001e-08
3.44415e-08
-1.34683e-07
-1.74648e-08
7.62248e-06
4.84806e-07
4.47308e-08
7.38542e-06
1.93339e-07
1.89092e-10
6.85127e-06
4.73801e-07
7.77081e-08
6.64581e-06
1.41675e-07
-2.12983e-08
6.19392e-06
3.07436e-07
7.22115e-08
6.03306e-06
9.19266e-08
-1.76392e-08
5.64033e-06
1.67607e-07
4.49405e-08
5.50303e-06
4.40089e-08
-9.01526e-09
-4.15992e-08
5.02712e-10
8.2992e-06
-1.33341e-08
8.30259e-06
-3.85647e-08
8.41392e-06
-5.13619e-09
8.33375e-06
-7.01683e-08
8.30088e-06
-3.81995e-09
8.22763e-06
-9.17023e-08
8.16491e-06
-1.86078e-08
8.02246e-06
-1.1997e-07
-6.66769e-09
7.56437e-06
4.33284e-07
3.11027e-07
7.34789e-06
1.85453e-07
1.13086e-07
6.8342e-06
4.43752e-07
3.14581e-07
6.67841e-06
1.30171e-07
9.385e-08
6.2674e-06
3.38218e-07
2.62229e-07
6.12709e-06
9.12188e-08
7.41636e-08
5.7879e-06
2.32386e-07
1.56859e-07
5.66179e-06
5.8175e-08
8.64453e-08
1.4665e-07
1.13655e-07
7.9564e-06
4.5102e-07
2.33862e-07
7.8375e-06
2.07092e-07
9.74493e-08
7.66899e-06
4.38262e-07
2.51702e-07
7.56876e-06
1.48699e-07
6.04073e-08
7.42099e-06
3.41784e-07
2.16416e-07
7.29829e-06
1.37068e-07
5.92125e-08
7.09847e-06
2.7693e-07
2.00215e-07
7.02392e-06
9.78573e-08
2.58543e-08
1.82975e-07
1.1523e-07
8.44821e-06
1.52739e-07
8.5669e-06
4.98384e-08
8.84421e-06
1.55819e-07
8.86972e-06
5.30199e-08
9.06553e-06
1.42154e-07
9.09776e-06
1.3132e-08
9.24525e-06
1.10837e-07
9.24993e-06
-2.67946e-08
6.38683e-08
8.21974e-06
3.57125e-07
8.21202e-06
1.53053e-07
8.25839e-06
3.2279e-07
8.22302e-06
1.24705e-07
8.27452e-06
2.01231e-07
8.22124e-06
6.94116e-08
8.19708e-06
9.12026e-08
8.20986e-06
-1.83695e-08
-6.89797e-09
8.40705e-06
3.47203e-07
8.49262e-06
1.64933e-07
8.73105e-06
3.36065e-07
8.7629e-06
1.5326e-07
8.93701e-06
2.4354e-07
8.96222e-06
1.03412e-07
9.07842e-06
1.7522e-07
9.06614e-06
1.9758e-08
3.90549e-08
8.66321e-06
8.87798e-06
9.36986e-06
9.57614e-06
9.96184e-06
1.00784e-05
1.03644e-05
1.03574e-05
)
;

boundaryField
{
    inlet
    {
        type            calculated;
        value           uniform -8.16327e-06;
    }
    outlet
    {
        type            calculated;
        value           nonuniform 0();
    }
    wall
    {
        type            calculated;
        value           nonuniform List<scalar> 
57
(
0
0
0
0
0
0
0
0
3.08149e-33
0
0
0
0
0
0
0
0
0
0
0
0
0
0
0
0
0
0
0
9.62965e-35
0
0
0
0
0
0
0
0
0
0
0
0
0
0
0
0
0
0
0
0
0
0
0
0
0
0
0
0
)
;
    }
    procBoundary6to0
    {
        type            processor;
        value           uniform -7.93206e-08;
    }
    procBoundary6to2
    {
        type            processor;
        value           nonuniform List<scalar> 
32
(
8.45366e-09
1.37628e-07
1.00809e-07
3.12724e-07
3.19865e-07
2.52386e-07
4.37485e-07
1.67756e-07
3.38234e-07
1.15958e-07
1.86971e-07
5.34072e-08
3.03065e-08
-5.5323e-06
-1.14481e-07
2.44783e-08
3.82589e-07
1.93864e-07
3.432e-07
1.81888e-07
2.80058e-07
1.41516e-07
-7.24658e-06
-2.93606e-07
2.07282e-07
3.62207e-07
2.28509e-07
3.67611e-07
2.92011e-07
3.44129e-07
-9.0918e-06
2.56875e-07
)
;
    }
    procBoundary6to4
    {
        type            processor;
        value           nonuniform List<scalar> 
27
(
4.59674e-08
-1.26984e-08
2.48806e-08
2.32774e-08
5.07818e-08
1.81119e-08
1.83936e-08
2.17556e-10
8.03876e-08
-7.74424e-08
-6.1012e-08
-1.39493e-07
-3.79151e-08
-9.38703e-08
5.55924e-09
-3.21978e-08
1.59226e-08
-2.57709e-09
-1.0257e-07
-3.22453e-08
-5.45881e-08
4.52211e-09
9.49293e-09
5.80363e-08
8.98184e-08
9.20272e-08
1.13597e-07
)
;
    }
    procBoundary6to7
    {
        type            processor;
        value           nonuniform List<scalar> 
12
(
5.3649e-06
7.42788e-06
9.5073e-06
4.99313e-06
5.26933e-06
7.75794e-06
5.3866e-06
6.87287e-06
9.36237e-06
8.21682e-06
9.13542e-06
1.04603e-05
)
;
    }
}


// ************************************************************************* //
