/*--------------------------------*- C++ -*----------------------------------*\
| =========                 |                                                 |
| \\      /  F ield         | OpenFOAM: The Open Source CFD Toolbox           |
|  \\    /   O peration     | Version:  4.x                                   |
|   \\  /    A nd           | Web:      www.OpenFOAM.org                      |
|    \\/     M anipulation  |                                                 |
\*---------------------------------------------------------------------------*/
FoamFile
{
    version     2.0;
    format      ascii;
    class       volScalarField;
    location    "44";
    object      QPartFluid;
}
// * * * * * * * * * * * * * * * * * * * * * * * * * * * * * * * * * * * * * //

dimensions      [1 -1 -3 0 0 0 0];

internalField   nonuniform List<scalar> 
87
(
8.10953e+09
6.79458e+09
8.9658e+09
5.70142e+09
6.23022e+09
5.62409e+09
9.95308e+09
8.9546e+09
6.08492e+09
7.99715e+09
1.10683e+10
6.09301e+09
8.70213e+09
6.66331e+09
9.95968e+09
6.30343e+09
9.21805e+09
8.17853e+09
1.02216e+10
8.85466e+09
8.73908e+09
8.75292e+09
9.22036e+09
9.38943e+09
4.67877e+09
7.5847e+09
5.96142e+09
6.14746e+09
8.70884e+09
9.47203e+09
7.35153e+09
6.31945e+09
8.76474e+09
7.35007e+09
9.00208e+09
9.66011e+09
8.63677e+09
6.67184e+09
7.8919e+09
7.93522e+09
6.1123e+09
9.57119e+09
5.37416e+09
8.87269e+09
8.84633e+09
8.03563e+09
7.94699e+09
6.55841e+09
1.0022e+10
6.58601e+09
9.97929e+09
4.81077e+09
6.67882e+09
6.18021e+09
7.84302e+09
8.21857e+09
6.17958e+09
7.63071e+09
6.44051e+09
6.87848e+09
4.91298e+09
5.41065e+09
7.43632e+09
7.03489e+09
7.17612e+09
6.52312e+09
1.0314e+10
8.73333e+09
4.54714e+09
5.19818e+09
5.83254e+09
7.62866e+09
6.18736e+09
9.67427e+09
6.71658e+09
7.20968e+09
6.10175e+09
8.48185e+09
4.24793e+09
6.13602e+09
6.76591e+09
6.33687e+09
5.24238e+09
8.48776e+09
5.61421e+09
5.64538e+09
7.18999e+09
)
;

boundaryField
{
    inlet
    {
        type            calculated;
        value           uniform 0;
    }
    outlet
    {
        type            calculated;
        value           nonuniform 0();
    }
    wall
    {
        type            calculated;
        value           uniform 0;
    }
    procBoundary6to0
    {
        type            processor;
        value           uniform 2.61506e+09;
    }
    procBoundary6to2
    {
        type            processor;
        value           nonuniform List<scalar> 
32
(
5.74038e+09
8.48931e+09
1.02377e+10
9.69989e+09
5.35379e+09
7.74311e+09
4.89898e+09
9.4842e+09
1.03011e+10
7.15513e+09
8.24085e+09
6.27252e+09
7.58726e+09
7.4857e+09
7.4857e+09
7.4857e+09
5.87253e+09
7.90999e+09
1.05285e+10
6.61454e+09
9.12478e+09
7.70647e+09
1.03151e+10
1.03151e+10
1.03151e+10
4.25937e+09
6.30346e+09
7.51372e+09
7.25046e+09
6.7549e+09
6.4978e+09
6.4978e+09
)
;
    }
    procBoundary6to4
    {
        type            processor;
        value           nonuniform List<scalar> 
27
(
3.45751e+09
6.7305e+09
9.39541e+09
5.70098e+09
8.79499e+09
6.65727e+09
1.10172e+10
5.97828e+09
7.05338e+09
6.20469e+09
8.5836e+09
7.54287e+09
9.64873e+09
1.05211e+10
7.609e+09
1.18342e+10
8.47548e+09
8.13686e+09
7.25318e+09
7.01134e+09
6.70037e+09
7.97535e+09
8.44027e+09
9.53525e+09
4.97076e+09
5.17685e+09
7.0902e+09
)
;
    }
    procBoundary6to7
    {
        type            processor;
        value           nonuniform List<scalar> 
12
(
7.47178e+09
5.31871e+09
7.07768e+09
3.84808e+09
6.00891e+09
6.6873e+09
8.56914e+09
8.18708e+09
6.03359e+09
7.3348e+09
6.33923e+09
6.09303e+09
)
;
    }
}


// ************************************************************************* //
