/*--------------------------------*- C++ -*----------------------------------*\
| =========                 |                                                 |
| \\      /  F ield         | OpenFOAM: The Open Source CFD Toolbox           |
|  \\    /   O peration     | Version:  4.x                                   |
|   \\  /    A nd           | Web:      www.OpenFOAM.org                      |
|    \\/     M anipulation  |                                                 |
\*---------------------------------------------------------------------------*/
FoamFile
{
    version     2.0;
    format      ascii;
    class       volScalarField;
    location    "11.5";
    object      Deff;
}
// * * * * * * * * * * * * * * * * * * * * * * * * * * * * * * * * * * * * * //

dimensions      [0 2 -1 0 0 0 0];

internalField   nonuniform List<scalar> 
132
(
9.78575e-08
9.78288e-08
9.78571e-08
9.77847e-08
9.76008e-08
9.75672e-08
9.7623e-08
9.77401e-08
9.76415e-08
9.79421e-08
9.77776e-08
9.78223e-08
9.7827e-08
9.76926e-08
9.77292e-08
9.76661e-08
9.7706e-08
9.76572e-08
9.8127e-08
9.79251e-08
9.7913e-08
9.78781e-08
9.77639e-08
9.76793e-08
9.76698e-08
9.77117e-08
9.76921e-08
9.82579e-08
9.80309e-08
9.79036e-08
9.79783e-08
9.78471e-08
9.77892e-08
9.77295e-08
9.78382e-08
9.79715e-08
9.77551e-08
9.76606e-08
9.76183e-08
9.75784e-08
9.75021e-08
9.75276e-08
9.75978e-08
9.79687e-08
9.77261e-08
9.77071e-08
9.76722e-08
9.75681e-08
9.75879e-08
9.76059e-08
9.75545e-08
9.76491e-08
9.79935e-08
9.77619e-08
9.7776e-08
9.77782e-08
9.76282e-08
9.75366e-08
9.75075e-08
9.7589e-08
9.76111e-08
9.808e-08
9.78325e-08
9.78563e-08
9.77836e-08
9.77062e-08
9.77079e-08
9.76493e-08
9.76546e-08
9.78437e-08
9.76341e-08
9.76151e-08
9.75463e-08
9.75933e-08
9.76522e-08
9.78263e-08
9.77325e-08
9.76896e-08
9.77132e-08
9.7562e-08
9.75991e-08
9.75565e-08
9.75047e-08
9.759e-08
9.79033e-08
9.77867e-08
9.77296e-08
9.77103e-08
9.7587e-08
9.75804e-08
9.75405e-08
9.75858e-08
9.76117e-08
9.80561e-08
9.78893e-08
9.78068e-08
9.77659e-08
9.77404e-08
9.77455e-08
9.76186e-08
9.76747e-08
9.78265e-08
9.76711e-08
9.76644e-08
9.77125e-08
9.79024e-08
9.78515e-08
9.76937e-08
9.76767e-08
9.77194e-08
9.77868e-08
9.76494e-08
9.76511e-08
9.77434e-08
9.79634e-08
9.78894e-08
9.7827e-08
9.7775e-08
9.76979e-08
9.77012e-08
9.76308e-08
9.76841e-08
9.77142e-08
9.80158e-08
9.78775e-08
9.79004e-08
9.78513e-08
9.77612e-08
9.77365e-08
9.77026e-08
9.77798e-08
9.79808e-08
)
;

boundaryField
{
    inlet
    {
        type            calculated;
        value           nonuniform 0();
    }
    outlet
    {
        type            calculated;
        value           uniform 0;
    }
    wall
    {
        type            calculated;
        value           uniform 0;
    }
    procBoundary7to0
    {
        type            processor;
        value           uniform 0;
    }
    procBoundary7to1
    {
        type            processor;
        value           uniform 0;
    }
    procBoundary7to3
    {
        type            processor;
        value           uniform 0;
    }
    procBoundary7to5
    {
        type            processor;
        value           uniform 0;
    }
    procBoundary7to6
    {
        type            processor;
        value           uniform 0;
    }
}


// ************************************************************************* //
