/*--------------------------------*- C++ -*----------------------------------*\
| =========                 |                                                 |
| \\      /  F ield         | OpenFOAM: The Open Source CFD Toolbox           |
|  \\    /   O peration     | Version:  4.x                                   |
|   \\  /    A nd           | Web:      www.OpenFOAM.org                      |
|    \\/     M anipulation  |                                                 |
\*---------------------------------------------------------------------------*/
FoamFile
{
    version     2.0;
    format      ascii;
    class       volScalarField;
    location    "11.5";
    object      nu;
}
// * * * * * * * * * * * * * * * * * * * * * * * * * * * * * * * * * * * * * //

dimensions      [0 2 -1 0 0 0 0];

internalField   nonuniform List<scalar> 
132
(
1.00028e-06
1.00021e-06
1.00011e-06
9.99986e-07
9.99859e-07
9.9974e-07
9.99673e-07
9.99639e-07
9.99639e-07
1.00022e-06
1.00016e-06
1.00006e-06
9.99946e-07
9.99835e-07
9.99734e-07
9.99652e-07
9.99602e-07
9.99331e-07
1.00026e-06
1.00021e-06
1.00011e-06
1.00002e-06
9.99897e-07
9.99843e-07
9.99733e-07
9.99749e-07
9.99391e-07
1.0003e-06
1.0004e-06
1.00047e-06
1.00054e-06
1.00055e-06
1.00056e-06
1.00043e-06
1.0004e-06
9.99406e-07
9.99917e-07
9.9979e-07
9.99676e-07
9.99638e-07
9.99702e-07
9.99745e-07
9.9973e-07
1.00008e-06
9.99991e-07
9.99885e-07
9.99791e-07
9.99695e-07
9.99632e-07
9.99592e-07
9.99608e-07
9.99345e-07
1.00014e-06
1.00007e-06
9.99977e-07
9.999e-07
9.9979e-07
9.9976e-07
9.99679e-07
9.99721e-07
9.99512e-07
1.00022e-06
1.00027e-06
1.00031e-06
1.00035e-06
1.00034e-06
1.00034e-06
1.00027e-06
1.00022e-06
9.99691e-07
9.99773e-07
9.99701e-07
9.99621e-07
9.99667e-07
9.99303e-07
1.00013e-06
1.00008e-06
1.00002e-06
9.99952e-07
9.99866e-07
9.99798e-07
9.9971e-07
9.99682e-07
9.99433e-07
1.00013e-06
1.00007e-06
1.00001e-06
9.99964e-07
9.99917e-07
9.9991e-07
9.99869e-07
9.99896e-07
9.99488e-07
1.00016e-06
1.00019e-06
1.00021e-06
1.00024e-06
1.00024e-06
1.00024e-06
1.0002e-06
1.00019e-06
9.98595e-07
1.00012e-06
1.00008e-06
9.9863e-07
1.00019e-06
1.00021e-06
1.00022e-06
1.0002e-06
1.00014e-06
1.00005e-06
9.99957e-07
9.99898e-07
9.99454e-07
1.00016e-06
1.00019e-06
1.00021e-06
1.00023e-06
1.00023e-06
1.00022e-06
1.00018e-06
1.00015e-06
9.99839e-07
1.00015e-06
1.00018e-06
1.00021e-06
1.00023e-06
1.00025e-06
1.00025e-06
1.00025e-06
1.00025e-06
1.00029e-06
)
;

boundaryField
{
    inlet
    {
        type            calculated;
        value           nonuniform 0();
    }
    outlet
    {
        type            calculated;
        value           uniform 1e-06;
    }
    wall
    {
        type            calculated;
        value           nonuniform List<scalar> 
66
(
1.00019e-06
1.00016e-06
1.00015e-06
1.00021e-06
1.00019e-06
1.00018e-06
1.00022e-06
1.00021e-06
1.00021e-06
1.0002e-06
1.00023e-06
1.00023e-06
1.00014e-06
1.00023e-06
1.00025e-06
1.00005e-06
1.00022e-06
1.00025e-06
1.00012e-06
9.99957e-07
1.00018e-06
1.00025e-06
1.00008e-06
9.99898e-07
1.00015e-06
1.00025e-06
9.9863e-07
9.99454e-07
9.99839e-07
1.00029e-06
1.0003e-06
1.00022e-06
1.00016e-06
1.00015e-06
1.0004e-06
1.00027e-06
1.00019e-06
1.00018e-06
1.00047e-06
1.00031e-06
1.00021e-06
1.00021e-06
1.00054e-06
1.00035e-06
1.00024e-06
1.00023e-06
1.00055e-06
1.00034e-06
1.00024e-06
1.00025e-06
1.00056e-06
1.00034e-06
1.00024e-06
1.00025e-06
1.00043e-06
1.00027e-06
1.0002e-06
1.00025e-06
1.0004e-06
1.00022e-06
1.00019e-06
1.00025e-06
9.99406e-07
9.99691e-07
9.98595e-07
1.00029e-06
)
;
    }
    procBoundary7to0
    {
        type            processor;
        value           uniform 1.00031e-06;
    }
    procBoundary7to1
    {
        type            processor;
        value           uniform 1.00022e-06;
    }
    procBoundary7to3
    {
        type            processor;
        value           nonuniform List<scalar> 
36
(
1.00042e-06
1.00031e-06
1.00016e-06
1.00001e-06
9.99868e-07
9.99725e-07
9.99618e-07
9.99529e-07
9.99384e-07
1.00042e-06
1.00033e-06
1.00019e-06
1.00003e-06
9.9988e-07
9.99743e-07
9.99627e-07
9.99554e-07
9.9921e-07
1.00048e-06
1.00041e-06
1.00025e-06
1.00009e-06
9.99923e-07
9.99847e-07
9.99719e-07
9.99749e-07
9.98383e-07
1.00052e-06
1.00063e-06
1.00072e-06
1.0008e-06
1.00081e-06
1.00081e-06
1.00069e-06
1.00062e-06
9.98856e-07
)
;
    }
    procBoundary7to5
    {
        type            processor;
        value           nonuniform List<scalar> 
44
(
1.00014e-06
1.00002e-06
9.99883e-07
9.9975e-07
9.9963e-07
9.99546e-07
9.99516e-07
9.99218e-07
1.00013e-06
1.00003e-06
9.99892e-07
9.99778e-07
9.99668e-07
9.99614e-07
9.99564e-07
9.99606e-07
9.99301e-07
1.00013e-06
1.00003e-06
1.00003e-06
9.99976e-07
9.99878e-07
9.99869e-07
9.99833e-07
9.99743e-07
9.99761e-07
9.99387e-07
1.00015e-06
1.00009e-06
9.99976e-07
9.99878e-07
9.99878e-07
1.0002e-06
1.00017e-06
1.00018e-06
1.00015e-06
9.99424e-07
1.00018e-06
1.00019e-06
1.00021e-06
1.00021e-06
1.0002e-06
1.00017e-06
1.00017e-06
)
;
    }
    procBoundary7to6
    {
        type            processor;
        value           nonuniform List<scalar> 
12
(
1.00025e-06
1.00028e-06
1.00023e-06
1.00016e-06
1.00018e-06
1.00017e-06
1.00016e-06
1.00015e-06
1.00012e-06
1.00015e-06
1.00013e-06
1.00012e-06
)
;
    }
}


// ************************************************************************* //
