/*--------------------------------*- C++ -*----------------------------------*\
| =========                 |                                                 |
| \\      /  F ield         | OpenFOAM: The Open Source CFD Toolbox           |
|  \\    /   O peration     | Version:  4.x                                   |
|   \\  /    A nd           | Web:      www.OpenFOAM.org                      |
|    \\/     M anipulation  |                                                 |
\*---------------------------------------------------------------------------*/
FoamFile
{
    version     2.0;
    format      ascii;
    class       volScalarField;
    location    "11.5";
    object      SPartFluid;
}
// * * * * * * * * * * * * * * * * * * * * * * * * * * * * * * * * * * * * * //

dimensions      [1 -3 -1 0 0 0 0];

internalField   nonuniform List<scalar> 
132
(
9.91935e-65
7.82694e-65
6.43198e-65
6.74204e-65
1.03068e-64
1.0384e-64
7.98174e-65
5.65683e-65
8.36897e-65
7.6719e-65
9.45428e-65
7.28442e-65
6.74209e-65
8.44696e-65
5.65705e-65
7.51666e-65
6.35423e-65
8.05906e-65
5.50196e-65
7.36187e-65
6.19943e-65
7.1296e-65
7.43964e-65
8.05937e-65
7.51671e-65
7.2067e-65
8.60165e-65
5.1146e-65
7.28452e-65
8.75683e-65
5.50216e-65
7.20704e-65
6.81922e-65
7.90475e-65
5.8896e-65
4.33967e-65
6.43194e-65
7.36191e-65
6.74191e-65
6.89692e-65
8.60159e-65
8.44653e-65
7.36167e-65
3.95214e-65
8.52433e-65
7.43943e-65
7.51696e-65
8.13693e-65
7.0519e-65
5.65676e-65
7.74906e-65
5.73434e-65
5.8121e-65
8.52441e-65
6.97454e-65
5.73467e-65
7.36207e-65
8.60184e-65
8.91161e-65
7.05179e-65
7.98172e-65
5.65717e-65
8.447e-65
5.88972e-65
7.28468e-65
7.36213e-65
6.19955e-65
6.58702e-65
7.98188e-65
5.34707e-65
5.03717e-65
5.81206e-65
7.36185e-65
6.04438e-65
5.81185e-65
8.05953e-65
7.36199e-65
6.81946e-65
5.19211e-65
8.52451e-65
7.05199e-65
7.12935e-65
8.75663e-65
7.51673e-65
7.05216e-65
7.36208e-65
7.51705e-65
6.9746e-65
8.29203e-65
7.59451e-65
7.67191e-65
7.0519e-65
7.74933e-65
5.34732e-65
6.27717e-65
7.05221e-65
6.89721e-65
6.1222e-65
5.26973e-65
7.59455e-65
7.05209e-65
5.8121e-65
5.50211e-65
6.43196e-65
6.12193e-65
6.89727e-65
5.81222e-65
7.67195e-65
7.43952e-65
5.1922e-65
3.87478e-65
6.89699e-65
6.66446e-65
5.4245e-65
5.96734e-65
6.04475e-65
6.04469e-65
6.19968e-65
6.89715e-65
6.35467e-65
7.20705e-65
6.43209e-65
7.28446e-65
6.2774e-65
7.36225e-65
5.65728e-65
5.81228e-65
6.58722e-65
6.50973e-65
6.50969e-65
6.35471e-65
4.10729e-65
)
;

boundaryField
{
    inlet
    {
        type            calculated;
        value           nonuniform 0();
    }
    outlet
    {
        type            calculated;
        value           uniform 0;
    }
    wall
    {
        type            calculated;
        value           uniform 0;
    }
    procBoundary7to0
    {
        type            processor;
        value           uniform 2.32488e-65;
    }
    procBoundary7to1
    {
        type            processor;
        value           uniform 5.73467e-65;
    }
    procBoundary7to3
    {
        type            processor;
        value           nonuniform List<scalar> 
36
(
7.67191e-65
8.98937e-65
8.83415e-65
8.52463e-65
6.12213e-65
6.19934e-65
8.60169e-65
6.81922e-65
7.74882e-65
8.98919e-65
5.11461e-65
7.74929e-65
4.33975e-65
4.6497e-65
7.90434e-65
7.28432e-65
8.83406e-65
6.12179e-65
5.65674e-65
8.29179e-65
8.21434e-65
5.81214e-65
6.81962e-65
7.98195e-65
6.66446e-65
7.20679e-65
5.42449e-65
5.73418e-65
3.87456e-65
5.42453e-65
6.12212e-65
5.57973e-65
7.1296e-65
6.1996e-65
7.90443e-65
8.52429e-65
)
;
    }
    procBoundary7to5
    {
        type            processor;
        value           nonuniform List<scalar> 
44
(
8.44698e-65
6.04458e-65
7.43958e-65
5.81211e-65
4.5721e-65
6.97435e-65
5.73443e-65
8.67899e-65
9.99688e-65
4.41714e-65
7.28441e-65
7.59445e-65
6.19952e-65
7.05193e-65
7.12937e-65
6.89683e-65
5.57942e-65
9.99688e-65
4.41714e-65
4.41714e-65
8.98927e-65
7.98183e-65
1.01518e-64
7.362e-65
8.21439e-65
8.91173e-65
8.67917e-65
3.56479e-65
9.3769e-65
8.98927e-65
7.98183e-65
7.98183e-65
9.68681e-65
7.74947e-65
6.50957e-65
6.74201e-65
6.81943e-65
7.20714e-65
5.50221e-65
7.28449e-65
5.65706e-65
9.68681e-65
7.74947e-65
7.74947e-65
)
;
    }
    procBoundary7to6
    {
        type            processor;
        value           nonuniform List<scalar> 
12
(
6.74202e-65
7.12923e-65
4.95922e-65
8.52452e-65
7.59455e-65
7.517e-65
7.90465e-65
7.74973e-65
5.65734e-65
3.79735e-65
7.82735e-65
6.04493e-65
)
;
    }
}


// ************************************************************************* //
