/*--------------------------------*- C++ -*----------------------------------*\
| =========                 |                                                 |
| \\      /  F ield         | OpenFOAM: The Open Source CFD Toolbox           |
|  \\    /   O peration     | Version:  4.x                                   |
|   \\  /    A nd           | Web:      www.OpenFOAM.org                      |
|    \\/     M anipulation  |                                                 |
\*---------------------------------------------------------------------------*/
FoamFile
{
    version     2.0;
    format      ascii;
    class       volVectorField;
    location    "11.5";
    object      Us;
}
// * * * * * * * * * * * * * * * * * * * * * * * * * * * * * * * * * * * * * //

dimensions      [0 1 -1 0 0 0 0];

internalField   nonuniform List<vector> 
132
(
(-5.05042e-06 5.42436e-07 -1.0766e-06)
(-5.13139e-06 4.8835e-07 -6.62373e-07)
(-4.89685e-06 3.4116e-07 -5.76851e-07)
(-4.37742e-06 4.19514e-08 -1.24678e-07)
(-3.5908e-06 3.78283e-07 1.17834e-07)
(-2.75059e-06 4.69331e-07 4.38872e-07)
(-2.28042e-06 2.96479e-07 1.35115e-07)
(-1.76234e-06 2.41864e-07 6.48865e-08)
(-6.12345e-07 2.62233e-07 -1.38e-07)
(-4.92347e-06 5.64344e-07 -5.52335e-07)
(-5.08676e-06 3.60953e-07 -4.21285e-07)
(-4.75787e-06 3.10853e-07 -2.42886e-07)
(-4.43304e-06 8.32729e-08 6.93986e-09)
(-3.43939e-06 2.57624e-07 2.37626e-07)
(-2.9282e-06 1.85218e-07 2.72666e-07)
(-2.52224e-06 2.00492e-07 6.28252e-08)
(-2.17358e-06 1.67828e-07 -1.22909e-08)
(-1.03724e-06 1.52466e-07 -1.31006e-07)
(-4.30264e-06 1.14136e-07 -1.90669e-07)
(-4.43277e-06 2.58059e-07 -1.29636e-07)
(-4.19798e-06 1.60972e-07 -9.69882e-09)
(-3.61525e-06 9.53339e-08 1.50795e-07)
(-3.09933e-06 2.30589e-07 3.01242e-07)
(-2.51326e-06 -5.91382e-10 1.09691e-07)
(-2.30913e-06 6.15333e-08 -8.35319e-08)
(-1.91306e-06 -1.84962e-07 3.4656e-08)
(1.34251e-06 8.72109e-07 -3.49431e-08)
(-3.55656e-06 4.96525e-07 -1.94913e-07)
(-3.0426e-06 1.61164e-07 -2.38986e-07)
(-2.64498e-06 -1.23637e-07 -1.46538e-08)
(-2.3064e-06 3.0824e-08 1.25128e-07)
(-1.92521e-06 8.15743e-08 1.0368e-07)
(-1.62432e-06 1.34161e-07 -4.62811e-08)
(-1.48718e-06 -1.90105e-08 -2.39713e-08)
(-1.21979e-06 -9.80679e-08 2.6012e-08)
(6.062e-07 4.01319e-07 -5.62958e-08)
(-4.22818e-06 6.83013e-08 -3.89073e-07)
(-5.65788e-06 -1.47037e-06 -4.47132e-07)
(-8.70073e-06 -4.14439e-06 -8.82018e-07)
(-2.3631e-06 1.2387e-07 3.64056e-08)
(-1.88951e-06 1.51847e-07 3.22721e-08)
(-1.46194e-06 1.5766e-07 -3.20954e-08)
(-5.09956e-07 1.80067e-07 -6.91599e-08)
(-4.3867e-06 -3.65033e-08 -3.62758e-07)
(-4.24897e-06 6.60116e-08 -2.6213e-07)
(-4.11967e-06 1.64462e-07 -1.39825e-07)
(-3.64532e-06 3.16245e-08 -3.5406e-08)
(-3.00644e-06 1.113e-07 -8.34318e-08)
(-2.21495e-06 7.38255e-08 7.29943e-08)
(-1.86964e-06 1.91346e-07 4.68139e-09)
(-1.61745e-06 1.79328e-07 -4.55965e-09)
(-6.3485e-07 9.4586e-08 -3.43311e-08)
(-4.0556e-06 -1.18481e-07 -4.33628e-09)
(-3.98618e-06 1.75074e-07 3.48954e-08)
(-3.80921e-06 3.14502e-08 2.10532e-08)
(-3.30062e-06 1.71095e-07 3.43398e-08)
(-2.73702e-06 -2.9245e-08 -1.43165e-08)
(-2.22789e-06 -1.82338e-07 -2.01072e-08)
(-1.9566e-06 1.27915e-07 -2.92134e-08)
(-1.41801e-06 2.43757e-08 -1.17354e-08)
(3.81339e-06 1.94758e-06 -4.94709e-08)
(-3.28705e-06 -1.74099e-07 2.24469e-07)
(-3.15538e-06 1.01885e-07 -1.59547e-07)
(-3.04784e-06 -2.99413e-07 -5.89591e-08)
(-2.31106e-06 1.14146e-07 2.22435e-07)
(-1.72051e-06 -2.41305e-08 7.14536e-10)
(-1.46154e-06 -1.17896e-07 -1.29676e-07)
(-1.36479e-06 1.10322e-07 -4.21082e-09)
(-1.10178e-06 -4.30934e-08 1.07191e-09)
(1.37689e-06 6.1309e-07 -1.90701e-08)
(-5.07618e-06 -2.12035e-06 -6.16908e-07)
(-1.84481e-06 -3.75792e-08 -1.56863e-07)
(-1.48894e-06 5.94562e-08 -7.8912e-08)
(-1.21086e-06 5.17625e-08 -1.31411e-07)
(-4.37472e-07 6.26654e-08 -7.18804e-08)
(-3.61521e-06 -4.26648e-07 -2.88253e-07)
(-3.88859e-06 -1.59889e-07 -3.71467e-08)
(-3.40851e-06 1.0875e-07 1.49093e-07)
(-2.62126e-06 -4.89216e-08 -2.92036e-08)
(-2.27084e-06 -1.16496e-07 -1.54374e-07)
(-1.83128e-06 -7.63343e-08 -4.27374e-08)
(-1.56143e-06 1.49715e-07 -4.64987e-09)
(-1.21415e-06 1.81486e-07 2.83332e-08)
(-5.34007e-07 -1.33575e-08 2.79547e-09)
(-3.25677e-06 -2.97614e-07 1.54188e-07)
(-2.91846e-06 1.06282e-07 1.01163e-08)
(-2.94366e-06 -8.15386e-08 4.44275e-07)
(-2.47854e-06 -2.6693e-08 -2.22842e-08)
(-2.02306e-06 -1.31019e-07 -1.66708e-07)
(-1.84389e-06 -1.20427e-07 -6.08859e-08)
(-1.44e-06 2.02201e-07 -7.50498e-08)
(-1.07564e-06 4.80045e-08 -1.18026e-07)
(-5.17094e-07 -4.31219e-08 -6.71623e-08)
(-2.14902e-06 -1.52263e-07 2.43725e-07)
(-2.32886e-06 -3.38961e-07 -1.51202e-07)
(-2.49925e-06 -4.51911e-08 6.84331e-08)
(-1.97177e-06 -1.89964e-08 2.75372e-08)
(-1.2278e-06 -5.27172e-08 -1.16485e-07)
(-1.16081e-06 1.39898e-07 -1.31401e-07)
(-9.96353e-07 4.22681e-08 -8.45331e-08)
(-6.25813e-07 -3.73264e-08 -4.9211e-08)
(-3.06684e-07 -1.03137e-07 -4.79329e-08)
(-1.24937e-06 -1.39071e-07 -1.93801e-07)
(-1.25898e-06 1.46001e-07 -1.28118e-07)
(-2.94384e-07 8.74249e-08 -5.44179e-08)
(-2.38217e-06 -6.50796e-07 -1.3245e-07)
(-2.45551e-06 -4.45193e-07 -1.04392e-07)
(-2.13658e-06 -1.61914e-07 -7.74117e-08)
(-1.60715e-06 -1.45156e-07 -1.04987e-07)
(-1.40984e-06 -1.68573e-07 -1.03222e-07)
(-1.57787e-06 -8.09033e-08 3.15494e-08)
(-1.20851e-06 6.07029e-08 -2.23661e-07)
(-1.14476e-06 9.13806e-08 3.49809e-08)
(-2.6354e-07 5.39118e-08 -8.9e-09)
(-1.43742e-06 -6.36012e-07 4.66812e-08)
(-1.46168e-06 -2.87293e-07 -4.55855e-08)
(-1.78367e-06 -2.20448e-07 1.92202e-07)
(-1.46857e-06 -4.6204e-08 -8.7663e-08)
(-1.24724e-06 -1.2645e-07 -9.1281e-08)
(-1.06159e-06 -6.88173e-08 3.63359e-10)
(-9.34285e-07 8.89109e-08 -1.04253e-07)
(-8.65048e-07 2.78363e-08 -5.29068e-08)
(-3.77317e-07 5.00576e-09 -6.71092e-08)
(-1.07662e-06 -7.873e-08 9.68553e-08)
(-1.1287e-06 -5.86038e-08 -7.09776e-08)
(-1.42776e-06 -2.06623e-08 2.02662e-08)
(-1.0646e-06 8.34887e-08 -4.67328e-08)
(-8.65398e-07 6.35253e-06 -6.34258e-08)
(-6.84127e-07 -1.94135e-09 -1.41297e-07)
(-6.1182e-07 5.39917e-08 8.10451e-09)
(-6.23481e-07 -5.33457e-08 -5.09384e-08)
(-8.46049e-08 -8.39873e-08 -2.64561e-08)
)
;

boundaryField
{
    inlet
    {
        type            zeroGradient;
    }
    outlet
    {
        type            zeroGradient;
    }
    wall
    {
        type            zeroGradient;
    }
    procBoundary7to0
    {
        type            processor;
        value           uniform (-5.17091e-06 1.00446e-06 -1.47897e-06);
    }
    procBoundary7to1
    {
        type            processor;
        value           uniform (-4.81886e-06 6.82621e-07 -1.36131e-06);
    }
    procBoundary7to3
    {
        type            processor;
        value           nonuniform List<vector> 
36
(
(-5.88059e-06 1.26273e-06 -1.14801e-06)
(-5.91268e-06 1.37347e-06 -8.27463e-07)
(-5.99439e-06 1.25463e-06 -4.42918e-07)
(-4.97747e-06 7.23142e-07 6.20606e-08)
(-4.27374e-06 6.09575e-07 3.4143e-07)
(-3.31952e-06 4.54069e-07 5.54901e-07)
(-2.89616e-06 4.10149e-07 3.45972e-07)
(-2.16533e-06 4.2253e-07 2.61828e-07)
(-1.03571e-06 1.75296e-07 5.95994e-08)
(-5.65817e-06 1.20478e-06 -9.49782e-07)
(-5.777e-06 1.01424e-06 -5.50581e-07)
(-5.60924e-06 7.32273e-07 -2.3325e-07)
(-4.69601e-06 5.5682e-07 4.84799e-07)
(-3.9704e-06 3.72284e-07 6.02862e-07)
(-3.49045e-06 7.4293e-08 5.30007e-07)
(-2.88712e-06 2.53511e-07 2.10084e-07)
(-2.2871e-06 2.05217e-07 1.52794e-08)
(-1.17432e-06 7.22106e-09 -8.52637e-08)
(-4.77621e-06 8.60715e-07 -2.52207e-07)
(-4.7561e-06 6.51221e-07 -1.05909e-07)
(-4.94408e-06 2.70382e-07 -1.02229e-07)
(-3.86224e-06 4.34469e-07 3.92177e-07)
(-3.37833e-06 1.85877e-07 4.36098e-07)
(-3.06338e-06 -1.02023e-07 2.89725e-07)
(-2.98672e-06 9.27606e-08 2.6871e-07)
(-2.10149e-06 1.91146e-07 5.51298e-08)
(-8.28165e-07 -7.94978e-08 -1.51353e-08)
(-3.10393e-06 6.23268e-07 -1.82538e-07)
(-2.63751e-06 2.36048e-07 -7.89395e-08)
(-2.95211e-06 1.02361e-07 1.04782e-07)
(-2.23701e-06 -1.33147e-07 1.51855e-07)
(-2.22971e-06 1.03414e-07 2.57451e-07)
(-1.62844e-06 -1.11906e-07 -2.93e-08)
(-1.41666e-06 5.63642e-08 2.04578e-08)
(-1.47439e-06 -2.02138e-07 1.8223e-07)
(-6.55578e-07 -1.14211e-07 -4.94194e-08)
)
;
    }
    procBoundary7to5
    {
        type            processor;
        value           nonuniform List<vector> 
44
(
(-4.86717e-06 4.31669e-07 -1.02552e-06)
(-4.36682e-06 4.47917e-07 -6.31429e-07)
(-3.75769e-06 2.70654e-07 -2.53976e-07)
(-3.26874e-06 4.08786e-07 -9.52096e-08)
(-2.70993e-06 4.3975e-07 -5.59515e-08)
(-2.22632e-06 2.83482e-07 1.05119e-08)
(-1.79064e-06 3.8121e-07 -2.33743e-08)
(-4.79082e-07 1.65682e-06 -9.69208e-08)
(-4.41461e-06 3.64072e-08 -7.92363e-07)
(-4.19905e-06 -2.95387e-08 -3.3317e-07)
(-3.66361e-06 2.60068e-07 -5.32501e-07)
(-3.20642e-06 2.06072e-07 -3.57806e-07)
(-2.65822e-06 2.08474e-07 -8.58579e-08)
(-2.21018e-06 1.9707e-07 -1.20871e-07)
(-1.91206e-06 1.71749e-07 -4.57623e-08)
(-1.50449e-06 1.83038e-07 -9.69883e-08)
(-4.79143e-07 2.15456e-07 -1.19467e-07)
(-4.41461e-06 3.64072e-08 -7.92363e-07)
(-4.19905e-06 -2.95387e-08 -3.3317e-07)
(-4.19905e-06 -2.95387e-08 -3.3317e-07)
(-3.52319e-06 -3.34185e-08 -2.54176e-07)
(-2.71578e-06 -4.73205e-08 -1.03195e-07)
(-2.23737e-06 -4.44451e-08 -2.6182e-08)
(-1.74224e-06 -3.72784e-08 -1.59258e-07)
(-1.40652e-06 -1.84781e-08 -7.64758e-08)
(-1.05416e-06 7.55758e-08 -1.17479e-07)
(-5.80893e-07 1.05329e-07 -1.32886e-07)
(-4.00846e-06 -3.7602e-07 -8.00589e-07)
(-3.76983e-06 -2.88898e-07 -4.5765e-07)
(-3.52319e-06 -3.34185e-08 -2.54176e-07)
(-2.71578e-06 -4.73205e-08 -1.03195e-07)
(-2.71578e-06 -4.73205e-08 -1.03195e-07)
(-1.4846e-06 -1.34858e-07 -1.07997e-07)
(-1.25358e-06 -1.95995e-07 -2.37082e-07)
(-9.79137e-07 -8.42877e-08 -9.47662e-08)
(-7.45531e-07 4.97436e-09 -7.21406e-08)
(-3.63875e-07 3.92967e-08 -1.19692e-07)
(-2.56244e-06 -5.5652e-07 -1.19767e-07)
(-2.29001e-06 -4.07774e-07 -1.52546e-07)
(-2.1067e-06 -1.19584e-07 -3.34561e-08)
(-1.61814e-06 9.8029e-08 -1.0982e-07)
(-1.4846e-06 -1.34858e-07 -1.07997e-07)
(-1.25358e-06 -1.95995e-07 -2.37082e-07)
(-1.25358e-06 -1.95995e-07 -2.37082e-07)
)
;
    }
    procBoundary7to6
    {
        type            processor;
        value           nonuniform List<vector> 
12
(
(-4.58661e-06 4.59059e-07 -7.21116e-07)
(-4.17444e-06 3.19178e-07 -3.73919e-07)
(-1.43574e-06 1.65496e-08 -3.35156e-07)
(-4.1989e-06 9.00602e-08 -4.1897e-07)
(-3.67177e-06 3.87742e-08 -8.56658e-08)
(-2.18332e-06 8.2377e-08 -1.20839e-07)
(-3.44531e-06 -2.58139e-07 -3.84632e-07)
(-3.36097e-06 -3.2191e-07 1.89935e-07)
(-1.62851e-06 -3.00809e-07 3.15355e-07)
(-2.52498e-06 -6.32643e-07 -4.35692e-07)
(-1.94373e-06 -7.18654e-07 2.15728e-07)
(-1.03382e-06 -3.16753e-07 3.39271e-07)
)
;
    }
}


// ************************************************************************* //
