/*--------------------------------*- C++ -*----------------------------------*\
| =========                 |                                                 |
| \\      /  F ield         | OpenFOAM: The Open Source CFD Toolbox           |
|  \\    /   O peration     | Version:  4.x                                   |
|   \\  /    A nd           | Web:      www.OpenFOAM.org                      |
|    \\/     M anipulation  |                                                 |
\*---------------------------------------------------------------------------*/
FoamFile
{
    version     2.0;
    format      ascii;
    class       volVectorField;
    location    "40";
    object      ddtUrel;
}
// * * * * * * * * * * * * * * * * * * * * * * * * * * * * * * * * * * * * * //

dimensions      [0 1 -2 0 0 0 0];

internalField   nonuniform List<vector> 
108
(
(-9.32745e-09 1.38256e-09 6.61805e-09)
(-1.21776e-08 1.85098e-09 7.01984e-09)
(-1.09779e-08 1.97073e-09 6.49843e-09)
(-8.5081e-09 1.87938e-09 5.24813e-09)
(-5.15944e-09 1.68671e-09 3.94372e-09)
(-1.49821e-09 1.37023e-09 3.0751e-09)
(2.17631e-09 1.56033e-09 2.45156e-09)
(6.63791e-09 1.52323e-09 2.00207e-09)
(2.63799e-09 -2.80584e-10 -9.24561e-10)
(-5.34383e-09 6.86279e-10 6.01805e-09)
(-7.02591e-09 9.75034e-10 6.38709e-09)
(-6.73952e-09 1.15718e-09 5.99638e-09)
(-5.61249e-09 1.09112e-09 4.86549e-09)
(-2.96965e-09 9.64444e-10 3.59609e-09)
(1.86603e-10 8.23566e-10 2.61368e-09)
(3.53181e-09 1.31494e-09 1.85615e-09)
(7.34889e-09 1.96222e-09 9.61771e-10)
(6.46163e-09 3.45117e-09 -1.46743e-09)
(-3.77635e-09 6.28848e-11 5.04015e-09)
(-5.07393e-09 3.77006e-10 5.35533e-09)
(-5.07928e-09 6.23198e-10 5.03275e-09)
(-4.13975e-09 5.5188e-10 4.05714e-09)
(-1.85156e-09 5.22629e-10 2.90695e-09)
(1.13616e-09 6.06268e-10 1.86119e-09)
(4.81241e-09 1.22383e-09 7.27398e-10)
(1.06304e-08 2.46302e-09 -1.26703e-09)
(1.53226e-08 6.26256e-09 -5.4691e-09)
(-3.33906e-09 1.96059e-11 4.05225e-09)
(-4.74786e-09 2.98422e-10 4.38018e-09)
(-5.07525e-09 1.05727e-09 4.01703e-09)
(-3.6596e-09 5.40854e-10 3.22344e-09)
(-1.5869e-09 4.69871e-10 2.26776e-09)
(1.69554e-09 7.78976e-10 1.06468e-09)
(6.70468e-09 1.87806e-09 -9.40936e-10)
(1.71148e-08 4.87911e-09 -5.81725e-09)
(4.02628e-08 1.44936e-08 -2.19264e-08)
(-7.13755e-09 1.31897e-09 6.18454e-09)
(-8.91131e-09 1.65998e-09 6.49334e-09)
(-8.36727e-09 1.80161e-09 6.04249e-09)
(-6.69808e-09 1.7027e-09 4.88358e-09)
(-4.33343e-09 1.50687e-09 3.69563e-09)
(-1.7231e-09 1.25347e-09 2.87172e-09)
(8.07868e-10 1.32488e-09 2.35704e-09)
(2.82411e-09 1.39045e-09 2.00376e-09)
(3.31957e-09 1.41304e-09 8.89936e-10)
(-4.30634e-09 8.72494e-10 5.63153e-09)
(-5.4619e-09 1.15451e-09 5.96657e-09)
(-5.38471e-09 1.26358e-09 5.60795e-09)
(-4.45769e-09 1.17281e-09 4.57841e-09)
(-2.62183e-09 9.83187e-10 3.37138e-09)
(-3.32987e-10 8.45979e-10 2.45735e-09)
(2.06848e-09 1.18994e-09 1.90399e-09)
(4.14482e-09 1.6975e-09 1.40886e-09)
(4.96333e-09 2.37737e-09 6.45073e-10)
(-3.09497e-09 5.06875e-10 4.75802e-09)
(-4.01503e-09 7.75759e-10 5.03635e-09)
(-3.98843e-09 8.49931e-10 4.74818e-09)
(-3.25594e-09 7.70769e-10 3.82237e-09)
(-1.71529e-09 6.51393e-10 2.71952e-09)
(3.05488e-10 6.58878e-10 1.79714e-09)
(2.72135e-09 1.06523e-09 1.00973e-09)
(5.62637e-09 2.00751e-09 1.45422e-11)
(8.45665e-09 3.31917e-09 -1.58171e-09)
(-2.84655e-09 3.73149e-10 3.85247e-09)
(-3.79025e-09 5.69064e-10 4.14226e-09)
(-3.66747e-09 7.71216e-10 3.85711e-09)
(-2.92001e-09 6.27967e-10 3.08367e-09)
(-1.41151e-09 5.67135e-10 2.15365e-09)
(6.90163e-10 7.45619e-10 1.18947e-09)
(3.68478e-09 1.4189e-09 -5.33689e-11)
(8.36633e-09 2.81633e-09 -2.11576e-09)
(1.4335e-08 5.42578e-09 -5.76492e-09)
(-5.23335e-09 1.15364e-09 5.34606e-09)
(-6.20401e-09 1.40752e-09 5.61007e-09)
(-5.96004e-09 1.49612e-09 5.20108e-09)
(-4.91243e-09 1.39032e-09 4.26698e-09)
(-3.35788e-09 1.21602e-09 3.25724e-09)
(-1.5826e-09 1.0279e-09 2.50839e-09)
(1.37144e-10 9.82346e-10 2.09921e-09)
(1.48089e-09 1.02792e-09 1.80662e-09)
(2.47023e-09 1.08416e-09 1.62305e-09)
(-3.50037e-09 9.94606e-10 4.92285e-09)
(-4.19948e-09 1.2236e-09 5.18533e-09)
(-4.21568e-09 1.25751e-09 4.77436e-09)
(-3.51978e-09 1.12321e-09 3.94567e-09)
(-2.26811e-09 9.69417e-10 2.97276e-09)
(-7.43695e-10 8.33228e-10 2.23397e-09)
(8.46023e-10 9.35685e-10 1.82991e-09)
(2.21585e-09 1.13721e-09 1.538e-09)
(3.20251e-09 1.3947e-09 1.30015e-09)
(-2.65322e-09 8.13517e-10 4.21826e-09)
(-3.22206e-09 1.0109e-09 4.44958e-09)
(-3.24018e-09 1.01423e-09 4.14204e-09)
(-2.74053e-09 8.77187e-10 3.38397e-09)
(-1.64978e-09 7.63516e-10 2.478e-09)
(-2.53403e-10 7.22549e-10 1.75725e-09)
(1.30442e-09 9.02333e-10 1.24351e-09)
(2.94458e-09 1.30403e-09 7.36274e-10)
(4.4761e-09 1.73279e-09 2.85582e-10)
(-2.37726e-09 6.54388e-10 3.45536e-09)
(-2.92748e-09 7.95248e-10 3.65973e-09)
(-2.89364e-09 8.78441e-10 3.46705e-09)
(-2.40568e-09 7.43497e-10 2.78765e-09)
(-1.37948e-09 6.61474e-10 2.04459e-09)
(2.30118e-11 7.17709e-10 1.31649e-09)
(1.76683e-09 1.03009e-09 6.29066e-10)
(3.88272e-09 1.60099e-09 -1.95441e-10)
(5.96819e-09 2.28436e-09 -1.03657e-09)
)
;

boundaryField
{
    inlet
    {
        type            calculated;
        value           nonuniform 0();
    }
    outlet
    {
        type            calculated;
        value           nonuniform List<vector> 
12
(
(5.68856e-08 5.68682e-10 -3.27296e-10)
(9.10082e-08 1.06624e-08 1.12836e-08)
(2.68965e-10 1.18402e-08 6.93953e-09)
(2.73944e-07 9.84838e-08 -1.72876e-07)
(1.1304e-08 4.44332e-09 2.96419e-09)
(1.66786e-09 4.73274e-09 8.47415e-09)
(-6.90683e-11 7.5987e-10 4.69737e-09)
(-2.5627e-09 2.21094e-09 4.39807e-09)
(2.40809e-10 1.71207e-10 3.21781e-09)
(2.66196e-09 5.34099e-10 4.80872e-09)
(5.0576e-10 -8.48985e-10 3.79475e-09)
(-9.03225e-10 -7.8557e-10 2.7335e-09)
)
;
    }
    wall
    {
        type            calculated;
        value           nonuniform List<vector> 
63
(
(-8.4933e-09 1.02794e-09 1.13094e-08)
(-5.79053e-09 2.20056e-10 1.02648e-08)
(-5.84589e-09 -3.79265e-09 7.40281e-09)
(-3.9709e-09 -1.79429e-09 2.31584e-09)
(-1.90271e-08 2.47276e-09 1.26973e-08)
(-1.37383e-08 -2.79335e-11 1.14459e-08)
(-1.20012e-08 -2.29143e-09 8.21973e-09)
(-1.23312e-08 -2.30691e-09 4.36208e-09)
(-1.31307e-08 2.2942e-09 1.13473e-08)
(-8.53905e-09 8.31816e-10 1.10502e-08)
(-9.31985e-09 -2.09766e-09 8.08661e-09)
(-1.71027e-08 7.46577e-09 2.74741e-09)
(-1.57642e-08 2.57026e-09 7.96983e-09)
(-1.45239e-08 3.09322e-10 7.44163e-09)
(-1.24704e-08 -1.9712e-09 5.36487e-09)
(-8.14379e-09 -1.17445e-09 1.6061e-09)
(-7.82629e-09 2.7163e-09 4.73549e-09)
(-3.34342e-09 1.1033e-10 4.43168e-09)
(-3.45271e-09 -1.5729e-09 2.86058e-09)
(-6.37329e-09 -1.17067e-09 1.40521e-09)
(-1.64875e-10 -4.98974e-10 4.20019e-09)
(4.32831e-09 -2.29526e-09 3.31172e-09)
(5.42715e-09 -2.39434e-09 2.58227e-09)
(3.36639e-09 -1.19914e-09 9.09221e-10)
(7.39505e-09 9.97615e-10 2.50046e-09)
(8.91846e-09 7.84049e-10 3.72201e-09)
(6.9827e-09 -1.33293e-09 5.05203e-09)
(7.13953e-09 -1.04548e-09 7.80187e-10)
(7.50921e-08 5.64425e-09 1.17599e-08)
(3.72635e-08 1.74001e-10 1.04203e-08)
(4.91242e-08 -1.06695e-08 1.00689e-08)
(3.57455e-08 -3.19374e-09 5.89403e-09)
(-3.40746e-08 -3.59083e-08 -2.45932e-08)
(-7.31087e-09 1.31912e-08 -4.84842e-09)
(1.14103e-08 2.34383e-08 1.11688e-08)
(2.92578e-07 9.72931e-08 -1.87676e-07)
(-4.54222e-09 -1.75626e-09 2.33565e-09)
(-3.1028e-09 3.3174e-11 2.74225e-09)
(-2.26585e-09 1.05613e-09 2.69615e-09)
(-1.52427e-08 -2.22146e-09 4.39701e-09)
(-9.04071e-09 1.09264e-10 4.07075e-09)
(-4.50245e-09 8.2599e-10 3.10973e-09)
(-2.59949e-08 8.10734e-09 2.82931e-09)
(-3.7672e-09 5.26363e-10 3.47144e-09)
(-4.01741e-09 1.44643e-09 3.71134e-09)
(-8.73522e-09 -1.1237e-09 1.62124e-09)
(-5.46834e-09 -1.01275e-10 1.84476e-09)
(-3.91588e-09 3.15066e-10 1.50458e-09)
(-6.37467e-09 -1.09763e-09 1.45675e-09)
(-2.3087e-09 -4.08472e-10 5.48055e-10)
(-2.56183e-09 -5.93265e-11 1.08121e-09)
(1.21292e-09 -1.16368e-09 8.46297e-10)
(-2.83524e-09 -5.75269e-10 2.25743e-10)
(-1.65061e-09 -2.42483e-10 2.19993e-10)
(1.01172e-08 -2.00394e-09 6.89212e-10)
(-1.91579e-09 -1.2308e-10 -5.3217e-11)
(-1.06487e-09 9.53071e-12 4.95714e-10)
(3.1713e-08 -3.01293e-09 5.74874e-09)
(1.59222e-09 -1.21615e-09 2.05294e-09)
(-1.67272e-09 6.93463e-11 7.39585e-10)
(6.35555e-07 -6.33947e-08 -5.84543e-07)
(-1.99862e-09 2.114e-09 4.38401e-09)
(-1.02636e-09 -1.01521e-09 3.20776e-09)
)
;
    }
    procBoundary3to1
    {
        type            processor;
        value           nonuniform List<vector> 
27
(
(-1.81818e-08 2.34525e-09 6.84241e-09)
(-2.53426e-08 3.10961e-09 7.34316e-09)
(-1.98791e-08 3.09486e-09 6.65239e-09)
(-1.33889e-08 2.75191e-09 5.17368e-09)
(-7.79607e-09 2.39579e-09 3.81981e-09)
(-2.84064e-09 2.09481e-09 3.12025e-09)
(1.62696e-09 1.96184e-09 2.79571e-09)
(6.95909e-09 1.84307e-09 2.89315e-09)
(7.63942e-09 1.14069e-09 1.77675e-09)
(-1.26899e-08 1.87234e-09 6.24469e-09)
(-1.62636e-08 2.40353e-09 6.61794e-09)
(-1.39798e-08 2.44971e-09 6.03176e-09)
(-1.01842e-08 2.24782e-09 4.76027e-09)
(-6.40849e-09 2.03306e-09 3.56171e-09)
(-2.90269e-09 1.74277e-09 2.82601e-09)
(2.48786e-10 1.59306e-09 2.53415e-09)
(2.99791e-09 1.53472e-09 2.46825e-09)
(4.77311e-09 1.40583e-09 2.19646e-09)
(-8.10102e-09 1.32049e-09 5.29791e-09)
(-9.71968e-09 1.67852e-09 5.57079e-09)
(-8.88531e-09 1.77578e-09 5.10568e-09)
(-6.87279e-09 1.63871e-09 4.1375e-09)
(-4.58565e-09 1.46772e-09 3.14541e-09)
(-2.30056e-09 1.2454e-09 2.45289e-09)
(-1.38953e-10 1.07985e-09 2.07882e-09)
(1.62614e-09 1.06608e-09 1.91721e-09)
(2.93683e-09 1.06414e-09 1.87603e-09)
)
;
    }
    procBoundary3to2
    {
        type            processor;
        value           nonuniform List<vector> 
12
(
(-5.79455e-09 8.55201e-10 5.54123e-09)
(-3.2678e-09 3.1714e-10 5.0693e-09)
(-2.19045e-09 -4.95155e-11 4.2653e-09)
(-2.10243e-09 -6.95203e-11 3.51364e-09)
(-4.62583e-09 8.66628e-10 5.20429e-09)
(-2.76496e-09 5.28967e-10 4.78764e-09)
(-1.93045e-09 2.88411e-10 4.02186e-09)
(-1.7931e-09 2.32649e-10 3.24576e-09)
(-3.68591e-09 8.03982e-10 4.58299e-09)
(-2.42387e-09 6.75228e-10 4.23537e-09)
(-1.8215e-09 5.74699e-10 3.61609e-09)
(-1.62843e-09 4.87235e-10 2.98953e-09)
)
;
    }
    procBoundary3to7
    {
        type            processor;
        value           nonuniform List<vector> 
36
(
(-3.763e-09 9.06728e-10 4.35129e-09)
(-4.2503e-09 1.10414e-09 4.52649e-09)
(-4.09301e-09 1.15994e-09 4.21387e-09)
(-3.44218e-09 1.08765e-09 3.46918e-09)
(-2.42291e-09 9.54275e-10 2.66465e-09)
(-1.21037e-09 8.11277e-10 2.05852e-09)
(-3.54462e-11 7.29044e-10 1.67844e-09)
(9.53379e-10 6.94694e-10 1.43961e-09)
(1.65162e-09 7.09835e-10 1.40244e-09)
(-2.78365e-09 9.30807e-10 4.04375e-09)
(-3.1645e-09 1.10231e-09 4.23521e-09)
(-3.12785e-09 1.10602e-09 3.88544e-09)
(-2.68886e-09 1.01182e-09 3.23646e-09)
(-1.80944e-09 8.80303e-10 2.46275e-09)
(-7.73961e-10 7.67885e-10 1.90643e-09)
(2.99431e-10 7.57807e-10 1.56079e-09)
(1.30412e-09 8.06819e-10 1.35052e-09)
(2.07445e-09 9.36903e-10 1.2441e-09)
(-2.22102e-09 8.30074e-10 3.44669e-09)
(-2.56728e-09 1.00751e-09 3.64786e-09)
(-2.53403e-09 1.00797e-09 3.40526e-09)
(-2.19214e-09 9.09098e-10 2.81654e-09)
(-1.43346e-09 8.06369e-10 2.13391e-09)
(-4.68038e-10 7.54493e-10 1.59592e-09)
(6.01855e-10 7.92989e-10 1.214e-09)
(1.75777e-09 9.75568e-10 9.39709e-10)
(3.10545e-09 1.30361e-09 7.91297e-10)
(-2.03609e-09 6.73164e-10 2.82882e-09)
(-2.33475e-09 8.56555e-10 2.99489e-09)
(-2.2638e-09 9.01259e-10 2.86872e-09)
(-1.98976e-09 8.20946e-10 2.38492e-09)
(-1.27248e-09 7.46582e-10 1.82545e-09)
(-3.12765e-10 7.35873e-10 1.31543e-09)
(8.47004e-10 8.27548e-10 8.85556e-10)
(2.15719e-09 1.06838e-09 5.0148e-10)
(3.44573e-09 1.43828e-09 2.27335e-10)
)
;
    }
}


// ************************************************************************* //
