/*--------------------------------*- C++ -*----------------------------------*\
| =========                 |                                                 |
| \\      /  F ield         | OpenFOAM: The Open Source CFD Toolbox           |
|  \\    /   O peration     | Version:  4.x                                   |
|   \\  /    A nd           | Web:      www.OpenFOAM.org                      |
|    \\/     M anipulation  |                                                 |
\*---------------------------------------------------------------------------*/
FoamFile
{
    version     2.0;
    format      ascii;
    class       volVectorField;
    location    "40";
    object      GField;
}
// * * * * * * * * * * * * * * * * * * * * * * * * * * * * * * * * * * * * * //

dimensions      [1 -2 -1 0 0 0 0];

internalField   nonuniform List<vector> 
108
(
(71.7188 -0.890424 -0.895641)
(128.405 -0.714081 -1.74508)
(73.4857 -1.08157 -1.00152)
(136.191 -1.72366 0.142611)
(70.8521 -4.9293 -1.75477)
(145.074 -3.89217 4.62573)
(57.6223 -14.0391 -6.05532)
(157.141 -0.491384 11.4851)
(28.0781 -37.3071 -18.3588)
(55.8145 -1.17763 -0.865036)
(113.827 -0.568925 -1.13484)
(50.9262 -0.995239 -1.22199)
(114.418 -0.412223 1.87992)
(40.1008 -0.592786 -1.24047)
(106.759 0.16596 7.52205)
(18.372 0.566696 -1.00938)
(80.1385 -1.37385 13.0346)
(-9.82424e-05 0.000141354 -4.80956e-05)
(71.3087 2.02082 -0.278788)
(126.741 2.39728 -0.483469)
(72.2862 2.77571 0.944228)
(134.744 2.3427 1.77713)
(69.2821 7.39447 2.88867)
(145.911 2.52071 6.06724)
(57.5866 18.3431 3.54028)
(166.482 -6.19256 9.58766)
(30.802 50.3971 -3.83904)
(91.3009 -1.77813 -0.629156)
(139.811 -1.4331 -0.785859)
(93.1188 -3.88371 0.226706)
(145.3 -3.22583 0.804324)
(90.1386 -5.25403 1.24754)
(155.589 -3.9197 3.76117)
(80.1899 -6.37692 3.08552)
(176.541 -4.42903 9.19401)
(46.877 0.441694 -41.8774)
(19.5481 0.258646 -1.34453)
(101.654 0.679182 -0.987217)
(15.8047 0.353964 -1.73305)
(104.88 0.0986626 2.02731)
(12.6291 0.224407 -2.77051)
(108.812 -0.706601 7.6212)
(11.635 -0.0123428 -6.05928)
(112.063 -3.31774 20.2173)
(15.5957 -1.90984 -29.378)
(10.0411 -0.172979 -1.12085)
(94.5091 0.950647 0.714584)
(3.9014 0.0710906 -0.729785)
(93.765 0.679157 2.35192)
(0.777086 0.0740947 -0.234215)
(89.7172 -0.863286 5.09039)
(1.75579 0.560862 -0.664256)
(75.7666 -8.81146 8.88692)
(12.7065 11.3755 -4.4588)
(29.4053 1.2442 -2.52079)
(105.496 2.2003 -2.00774)
(29.2582 2.32432 -3.65111)
(113.035 0.0854408 1.2429)
(30.9737 5.8861 -6.47015)
(125.883 -3.68557 6.49779)
(33.5241 16.3956 -13.7081)
(145.839 -14.2916 16.5062)
(23.3661 58.9328 -42.7335)
(63.3776 -1.60545 -3.35946)
(120.006 -1.25925 -2.4817)
(62.775 -3.66986 -4.39969)
(124.905 -3.30986 -1.49152)
(58.0028 -5.38454 -6.56276)
(135.082 -4.71936 1.56256)
(48.3899 -5.29702 -8.83283)
(161.441 -3.13447 10.9502)
(28.6566 9.65651 -56.0425)
(7.71647 -0.663993 -1.71676)
(92.2969 -0.185352 -0.275213)
(5.14264 -0.674941 -1.61849)
(92.3751 -0.894845 1.38076)
(5.46016 -1.39998 -2.70953)
(90.9871 -1.52196 4.19373)
(8.28933 -3.18105 -5.90522)
(82.8126 2.42304 12.8596)
(22.0853 -10.1913 -22.9087)
(2.79721e-05 -3.13625e-06 3.08193e-05)
(86.6507 -0.54329 1.36742)
(1.93894e-05 -2.20027e-06 2.93679e-05)
(85.963 0.351718 2.45487)
(2.53512e-05 -4.77208e-06 3.27403e-06)
(84.0426 1.87891 6.4899)
(3.11651e-05 5.38642e-08 -1.52151e-05)
(72.9062 0.767604 9.45551)
(9.87663 1.27289 -1.45748)
(7.36544 0.620188 -0.54694)
(93.4188 -0.276913 -0.42897)
(3.3528 0.462347 -0.422002)
(96.023 -0.712153 1.17781)
(6.98856 2.0009 -1.59087)
(98.2467 -0.856073 3.84171)
(18.1897 10.2068 -7.03878)
(95.5583 -6.7063 9.96613)
(31.5521 42.8331 -22.1228)
(47.4576 0.0123968 -2.84636)
(108.113 -0.141213 -1.54387)
(45.2572 -0.696357 -3.59936)
(110.827 -3.02996 -0.319502)
(40.0541 -0.126882 -5.62705)
(116.589 -4.5289 1.84101)
(33.9468 2.92923 -9.14393)
(136.685 -5.57627 7.78582)
(21.9305 18.1819 -18.3802)
)
;

boundaryField
{
    inlet
    {
        type            calculated;
        value           nonuniform 0();
    }
    outlet
    {
        type            calculated;
        value           nonuniform List<vector> 
12
(
(58.5188 -77.7533 -38.2624)
(-0.000205803 0.000296116 -0.000100753)
(64.2668 105.151 -8.00996)
(95.7834 0.902511 -85.5679)
(33.514 -4.10412 -63.1313)
(27.2642 24.4082 -9.56719)
(50.1051 126.373 -91.6357)
(61.0461 20.5709 -119.385)
(48.1533 -22.2205 -49.9484)
(21.5178 2.77318 -3.17535)
(68.5422 93.0484 -48.0584)
(47.8233 39.6489 -40.0813)
)
;
    }
    wall
    {
        type            calculated;
        value           uniform (0 0 0);
    }
    procBoundary3to1
    {
        type            processor;
        value           nonuniform List<vector> 
27
(
(66.2802 0.583955 -2.66358)
(121.662 0.882097 -2.87061)
(64.7536 1.60428 -3.65008)
(125.914 1.95279 -0.657444)
(61.185 0.71683 -6.99622)
(135.213 2.38529 3.47483)
(54.6545 -3.24393 -14.8589)
(157.44 4.46238 15.2615)
(33.3992 -13.6535 -37.3395)
(9.03283 0.453861 -0.390071)
(95.2499 0.892834 0.75652)
(1.55933 0.145889 -0.117577)
(95.067 1.4573 2.21225)
(1.82541e-05 2.63447e-06 3.50104e-06)
(90.8992 1.04815 5.41491)
(4.99318 0.264666 -1.85754)
(81.7037 0.688555 13.0541)
(27.0174 -1.30307 -30.4959)
(10.0866 -0.489497 -2.1081)
(92.777 -0.0701307 0.316707)
(8.19886 -0.669246 -2.62796)
(93.2602 1.40092 0.0877647)
(8.55336 -1.60444 -3.94936)
(92.6045 2.57778 2.15271)
(13.387 -5.75677 -8.12091)
(86.9213 8.77142 8.92588)
(27.2427 -23.2343 -15.293)
)
;
    }
    procBoundary3to2
    {
        type            processor;
        value           nonuniform List<vector> 
12
(
(122.401 -0.634542 -2.68533)
(112.713 -0.44718 -2.53641)
(121.351 2.37266 -1.79829)
(133.636 -0.0407997 -1.69258)
(98.1531 0.411639 -2.08742)
(94.315 0.449925 -1.72328)
(101.769 2.90888 -3.52102)
(116.163 0.323603 -3.64739)
(92.077 -1.07021 -1.60579)
(88.04 -1.07793 -0.360678)
(91.9383 1.16454 -0.804542)
(105.241 1.02016 -2.09071)
)
;
    }
    procBoundary3to7
    {
        type            processor;
        value           nonuniform List<vector> 
36
(
(3.54572e-05 5.60698e-06 2.16924e-05)
(86.8263 0.939646 -0.0875772)
(4.29074e-05 1.12104e-05 1.97324e-05)
(86.3845 1.47525 0.101889)
(3.04713e-05 6.09658e-06 -2.02221e-06)
(84.1887 2.51895 2.28338)
(3.01792e-05 7.11259e-06 -1.96515e-05)
(72.2913 -3.63092 10.4091)
(10.7498 3.77947 -4.19569)
(3.26316e-05 4.69106e-06 2.27097e-05)
(85.6626 0.516331 -0.275265)
(2.92237e-05 3.74046e-06 2.11055e-05)
(83.9088 0.224981 0.847846)
(2.76002 0.930821 -0.314659)
(81.1626 -0.720681 2.86509)
(14.6703 7.94176 -1.05563)
(73.5392 -7.42635 5.23353)
(30.8971 30.5064 3.80943)
(22.1469 2.10154 -2.04324)
(96.9433 0.998995 -0.508454)
(21.4602 2.95606 -3.23274)
(100.847 -0.582319 -1.75262)
(22.0148 5.4561 -5.81433)
(105.618 -5.68039 -1.69989)
(22.4098 10.7861 -10.6474)
(112.439 -15.3015 5.55061)
(16.5339 23.2779 -14.5465)
(48.2927 -1.21233 -3.66142)
(107.019 -0.904858 -2.89298)
(45.8827 -1.92986 -4.98828)
(109.617 -2.01509 -2.60056)
(41.443 -2.53064 -7.72548)
(112.366 -2.22242 -0.768816)
(32.259 -2.4251 -12.9292)
(117.274 -0.235704 7.1317)
(16.851 -1.45217 -22.4398)
)
;
    }
}


// ************************************************************************* //
