/*--------------------------------*- C++ -*----------------------------------*\
| =========                 |                                                 |
| \\      /  F ield         | OpenFOAM: The Open Source CFD Toolbox           |
|  \\    /   O peration     | Version:  4.x                                   |
|   \\  /    A nd           | Web:      www.OpenFOAM.org                      |
|    \\/     M anipulation  |                                                 |
\*---------------------------------------------------------------------------*/
FoamFile
{
    version     2.0;
    format      ascii;
    class       surfaceScalarField;
    location    "40";
    object      phi;
}
// * * * * * * * * * * * * * * * * * * * * * * * * * * * * * * * * * * * * * //

dimensions      [0 3 -1 0 0 0 0];

internalField   nonuniform List<scalar> 
249
(
1.21247e-05
-1.23534e-07
-1.32426e-07
1.23733e-05
-7.63805e-08
-1.62005e-07
1.26915e-05
-1.24679e-07
-1.61727e-07
1.27036e-05
-1.26842e-07
1.2849e-07
1.30542e-05
-3.30037e-07
-2.67663e-07
1.24586e-05
-2.2025e-07
7.25879e-07
1.29613e-05
-8.04213e-07
-7.17817e-07
1.14216e-05
-1.06909e-07
1.879e-06
-2.21508e-06
-2.83009e-06
1.02691e-05
5.07664e-08
-1.17283e-07
1.01092e-05
1.08618e-07
-2.50641e-08
9.99291e-06
1.06821e-07
-1.15245e-07
9.50046e-06
1.14673e-07
2.50937e-07
8.85186e-06
4.05518e-07
-8.69594e-08
7.72464e-06
1.58881e-07
7.48086e-07
5.89341e-06
1.12601e-06
-9.89942e-08
4.93777e-06
-4.51274e-07
1.30001e-06
2.99005e-06
-2.64022e-07
1.19989e-05
1.3913e-08
-1.65448e-07
1.21981e-05
5.69453e-08
-1.47543e-07
1.2531e-05
-6.64004e-08
-1.59595e-07
1.25192e-05
-5.25211e-08
1.78935e-07
1.301e-05
1.25427e-07
-2.1069e-07
1.25073e-05
-8.28309e-08
7.44421e-07
1.35273e-05
7.0599e-07
-6.00027e-07
1.21587e-05
-6.28029e-07
1.54536e-06
3.00434e-06
-2.75594e-06
1.40129e-05
-2.35994e-07
1.42634e-05
-1.9354e-07
1.44437e-05
-2.467e-07
1.44318e-05
-4.06102e-08
1.48713e-05
-3.14061e-07
1.44729e-05
3.15561e-07
1.55181e-05
-3.39188e-07
1.36967e-05
1.19342e-06
-5.7635e-06
7.31794e-06
3.86196e-09
-1.81303e-07
7.2278e-06
9.61673e-08
-7.4596e-08
7.273e-06
2.31298e-08
-1.98572e-07
7.24551e-06
4.60559e-08
2.0199e-07
7.30334e-06
1.40237e-08
-3.2492e-07
7.44084e-06
-9.20111e-08
6.99582e-07
7.42421e-06
2.58454e-08
-7.09246e-07
7.89943e-06
-7.14387e-07
1.95864e-06
5.47555e-07
-3.0985e-06
6.30478e-06
6.43633e-08
-6.67207e-08
6.06536e-06
1.86965e-07
1.23564e-07
5.87325e-06
1.43663e-07
-4.36723e-08
5.84043e-06
4.54063e-08
2.84406e-07
5.42553e-06
3.56386e-07
-1.44252e-08
5.66712e-06
-2.70104e-07
6.84589e-07
4.62292e-06
1.01081e-06
-3.97596e-08
5.49602e-06
-1.37188e-06
1.08441e-06
4.17783e-06
-3.50797e-07
8.15316e-06
-2.18933e-08
-1.8239e-07
8.28145e-06
5.55575e-08
-1.44423e-07
8.58885e-06
-8.07693e-08
-2.42567e-07
8.8609e-06
-1.91169e-07
1.43459e-07
9.45884e-06
2.78061e-08
-4.80042e-07
9.81815e-06
-4.97722e-07
6.12726e-07
1.08081e-05
6.54119e-07
-1.23332e-06
1.04427e-05
-1.03072e-06
1.56961e-06
4.05915e-06
-3.85121e-06
1.11066e-05
-3.67947e-07
1.12071e-05
-2.3848e-07
1.13541e-05
-4.74557e-07
1.12298e-05
-1.07388e-07
1.16668e-05
-7.23302e-07
1.12831e-05
2.01496e-07
1.26648e-05
-1.06675e-06
1.17174e-05
1.11013e-06
-4.4098e-06
6.0299e-06
-3.99059e-08
6.00502e-06
-4.31879e-08
5.86551e-06
-4.08728e-08
6.04246e-06
-3.25267e-08
5.78663e-06
-8.41222e-08
6.1441e-06
2.08096e-08
5.44768e-06
-1.89734e-07
6.50045e-06
1.896e-07
-5.3247e-07
5.24654e-06
3.70346e-08
5.31097e-06
-4.85895e-08
5.19847e-06
2.7951e-08
5.27529e-06
-2.08791e-08
5.07566e-06
1.19281e-07
5.16422e-06
6.12464e-08
4.3917e-06
6.05357e-07
5.14528e-06
-3.51847e-07
2.6152e-06
6.07678e-06
3.71327e-08
5.96396e-06
-2.47762e-08
5.97882e-06
-1.44917e-08
6.3576e-06
-2.22063e-07
6.32229e-06
1.10292e-07
7.18945e-06
-3.196e-07
6.82619e-06
7.77664e-07
7.85523e-06
-7.28081e-07
3.61754e-06
9.41386e-06
9.41325e-06
9.43197e-06
9.27522e-06
9.45163e-06
9.26989e-06
1.02859e-05
9.78514e-06
)
;

boundaryField
{
    inlet
    {
        type            calculated;
        value           nonuniform 0();
    }
    outlet
    {
        type            calculated;
        value           nonuniform List<scalar> 
12
(
1.34557e-05
-3.33251e-09
1.49004e-05
2.24645e-05
7.44072e-06
1.95251e-06
1.16567e-05
1.44228e-05
3.56356e-06
1.50766e-06
5.16346e-06
1.1409e-05
)
;
    }
    wall
    {
        type            calculated;
        value           nonuniform List<scalar> 
63
(
0
0
0
0
0
0
0
0
0
0
0
0
0
0
0
0
0
0
0
0
0
0
0
0
0
0
0
0
0
1.97215e-31
0
0
0
0
0
0
0
0
0
0
0
0
0
0
0
0
0
0
0
0
0
0
0
0
0
0
0
0
0
0
0
0
0
)
;
    }
    procBoundary3to1
    {
        type            processor;
        value           nonuniform List<scalar> 
27
(
1.71823e-08
-1.02704e-08
-3.17921e-08
-1.37344e-08
2.47125e-07
8.99573e-08
1.01933e-06
-2.32355e-07
3.01105e-06
-4.34026e-08
-9.34382e-08
-3.14832e-08
-9.20584e-08
-1.46031e-08
-1.91915e-08
-1.7789e-08
1.59521e-07
1.79565e-07
6.72818e-08
1.50815e-08
7.79686e-08
-3.0139e-08
1.75708e-07
-6.24631e-08
5.26531e-07
-6.62185e-07
1.97643e-06
)
;
    }
    procBoundary3to2
    {
        type            processor;
        value           nonuniform List<scalar> 
12
(
-1.18859e-05
-1.03261e-05
-1.17966e-05
-1.3763e-05
-7.22952e-06
-6.41584e-06
-8.04996e-06
-1.09965e-05
-6.13663e-06
-5.3902e-06
-6.10666e-06
-9.35961e-06
)
;
    }
    procBoundary3to7
    {
        type            processor;
        value           nonuniform List<scalar> 
36
(
-1.01945e-07
-2.16181e-08
-9.61553e-08
8.77047e-08
-1.60677e-07
3.83764e-07
-3.49617e-07
1.37845e-06
-1.60557e-06
3.38516e-12
6.45346e-08
3.40298e-12
1.95941e-07
-1.82062e-08
5.55599e-07
-6.23363e-08
8.72274e-07
1.39154e-07
-1.52612e-07
-5.54161e-08
-2.14982e-07
-3.41354e-08
-4.35741e-07
1.26409e-07
-1.04236e-06
9.16807e-07
-2.16178e-06
-3.85063e-07
-2.62642e-07
-5.07767e-07
-1.72702e-07
-7.89425e-07
6.36433e-08
-1.30513e-06
8.82835e-07
-2.41607e-06
)
;
    }
}


// ************************************************************************* //
