/*--------------------------------*- C++ -*----------------------------------*\
| =========                 |                                                 |
| \\      /  F ield         | OpenFOAM: The Open Source CFD Toolbox           |
|  \\    /   O peration     | Version:  4.x                                   |
|   \\  /    A nd           | Web:      www.OpenFOAM.org                      |
|    \\/     M anipulation  |                                                 |
\*---------------------------------------------------------------------------*/
FoamFile
{
    version     2.0;
    format      ascii;
    class       volScalarField;
    location    "40";
    object      Qsource;
}
// * * * * * * * * * * * * * * * * * * * * * * * * * * * * * * * * * * * * * //

dimensions      [1 -1 -3 0 0 0 0];

internalField   nonuniform List<scalar> 
108
(
9.13229e+09
4.89509e+09
7.38829e+09
4.32624e+09
5.64717e+09
4.94151e+09
6.1764e+09
6.50336e+09
3.39169e+09
6.74276e+09
9.78251e+09
5.45516e+09
6.45947e+09
6.39319e+09
5.82401e+09
6.10455e+09
6.23348e+09
3.59111e+09
7.28364e+09
7.83253e+09
7.7488e+09
6.02139e+09
6.52028e+09
6.5653e+09
7.33633e+09
8.41827e+09
4.7071e+09
5.92471e+09
6.53634e+09
6.27961e+09
8.98062e+09
7.09505e+09
7.95586e+09
5.05796e+09
8.26715e+09
5.61546e+09
8.52807e+09
8.08423e+09
1.02366e+10
1.06298e+10
8.47005e+09
7.96355e+09
6.81366e+09
8.5341e+09
7.61273e+09
7.64297e+09
8.0342e+09
8.08678e+09
8.9888e+09
7.49908e+09
7.87187e+09
9.25552e+09
8.6473e+09
5.76269e+09
1.27334e+10
9.91937e+09
9.05797e+09
1.14189e+10
8.54249e+09
1.02341e+10
8.28626e+09
9.90971e+09
7.91802e+09
9.02055e+09
8.1495e+09
7.8946e+09
9.06049e+09
9.73593e+09
8.72518e+09
7.78391e+09
9.94314e+09
6.14441e+09
8.18801e+09
1.09901e+10
9.17039e+09
1.03304e+10
6.568e+09
7.8032e+09
9.08829e+09
8.41574e+09
6.93073e+09
9.54141e+09
6.15516e+09
8.13854e+09
5.01022e+09
4.37292e+09
9.43471e+09
7.61696e+09
1.06249e+10
5.10907e+09
6.04895e+09
1.03434e+10
9.22915e+09
7.30053e+09
7.4513e+09
1.00322e+10
8.15988e+09
9.37372e+09
5.11251e+09
9.27474e+09
5.80536e+09
6.27951e+09
7.948e+09
6.90504e+09
9.64237e+09
6.81844e+09
1.07582e+10
7.99829e+09
)
;

boundaryField
{
    inlet
    {
        type            calculated;
        value           nonuniform 0();
    }
    outlet
    {
        type            calculated;
        value           uniform 0;
    }
    wall
    {
        type            calculated;
        value           uniform 0;
    }
    procBoundary3to1
    {
        type            processor;
        value           nonuniform List<scalar> 
27
(
4.56014e+09
8.09593e+09
6.82886e+09
9.98422e+09
6.87184e+09
6.90951e+09
6.29576e+09
7.53311e+09
4.78736e+09
7.93431e+09
8.49232e+09
7.1885e+09
6.81286e+09
5.78733e+09
9.2955e+09
9.40079e+09
1.3144e+10
4.40833e+09
9.51978e+09
7.89405e+09
5.51267e+09
1.11534e+10
8.88608e+09
1.06896e+10
7.47269e+09
9.66135e+09
3.36379e+09
)
;
    }
    procBoundary3to2
    {
        type            processor;
        value           nonuniform List<scalar> 
12
(
5.60256e+09
5.41346e+09
7.50837e+09
6.13131e+09
1.12285e+10
6.4154e+09
7.70123e+09
5.78397e+09
9.2682e+09
5.74806e+09
1.02503e+10
8.6449e+09
)
;
    }
    procBoundary3to7
    {
        type            processor;
        value           nonuniform List<scalar> 
36
(
9.99235e+09
9.11232e+09
6.40934e+09
7.95124e+09
1.10819e+10
1.24953e+10
7.9939e+09
6.53108e+09
6.15526e+09
7.44914e+09
1.1389e+10
7.40722e+09
8.13952e+09
8.37445e+09
6.94608e+09
7.92267e+09
7.69489e+09
6.87189e+09
5.27078e+09
9.42977e+09
6.91912e+09
8.9909e+09
8.35809e+09
1.05456e+10
8.68262e+09
9.17848e+09
6.92352e+09
7.54057e+09
8.42676e+09
9.41547e+09
6.90207e+09
8.35025e+09
8.97595e+09
8.41776e+09
8.00507e+09
3.92975e+09
)
;
    }
}


// ************************************************************************* //
