/*--------------------------------*- C++ -*----------------------------------*\
| =========                 |                                                 |
| \\      /  F ield         | OpenFOAM: The Open Source CFD Toolbox           |
|  \\    /   O peration     | Version:  4.x                                   |
|   \\  /    A nd           | Web:      www.OpenFOAM.org                      |
|    \\/     M anipulation  |                                                 |
\*---------------------------------------------------------------------------*/
FoamFile
{
    version     2.0;
    format      ascii;
    class       volVectorField;
    location    "15.5";
    object      GField;
}
// * * * * * * * * * * * * * * * * * * * * * * * * * * * * * * * * * * * * * //

dimensions      [1 -2 -1 0 0 0 0];

internalField   nonuniform List<vector> 
87
(
(87.9819 1.5145 4.94855)
(27.7957 0.388725 -2.38965)
(87.425 2.33557 2.8705)
(96.0871 3.44468 0.88795)
(46.6974 1.61269 -3.65799)
(99.4591 3.37365 1.1762)
(89.5407 1.54648 -4.313)
(30.9064 1.23236 -2.55103)
(84.2686 1.74244 -5.40203)
(19.9293 0.730575 -2.35019)
(79.8519 -0.756092 -0.925009)
(-1.65652 0.237268 -0.352051)
(74.6701 0.817666 1.89888)
(-2.13612 -0.278161 0.879881)
(74.5247 2.66848 3.05875)
(92.0615 4.80192 -3.85644)
(35.2981 2.13613 -2.71353)
(89.1338 3.64027 -5.08875)
(30.4923 1.70019 -2.5936)
(87.8966 4.23637 -0.578879)
(29.8975 1.51829 -3.93147)
(83.4433 0.724148 1.27073)
(21.8957 0.525907 -1.8996)
(80.6388 1.00293 2.12252)
(94.7468 2.54067 -4.14111)
(40.7189 1.40551 -3.26137)
(94.6341 1.63916 -5.39154)
(38.5505 0.872725 -3.7711)
(93.9254 -0.132335 -2.74268)
(36.0203 0.283434 -4.49451)
(90.9175 3.19962 0.75654)
(37.4456 1.29773 -3.00623)
(91.2912 4.57889 1.21414)
(91.0835 2.12046 1.22466)
(33.4 1.15671 -0.0486648)
(87.8279 1.87476 -1.03943)
(26.3986 0.859864 -0.0597183)
(86.1046 -1.03228 4.80581)
(26.5351 0.661658 -0.450202)
(85.9517 0.618923 1.10767)
(21.9563 0.727627 0.0991504)
(85.6269 0.505521 4.76278)
(93.2632 3.97222 0.287342)
(35.5599 1.81551 -0.377437)
(90.6055 2.58105 -1.20213)
(29.1808 0.951272 -0.474327)
(89.2265 -1.60697 -1.09669)
(29.4388 0.79987 -1.35753)
(87.5562 3.29732 5.2241)
(23.2199 1.41865 0.0271962)
(86.3029 3.47451 6.05932)
(94.893 2.76999 -0.00584918)
(41.3419 1.59982 -0.720224)
(95.7203 2.36532 -0.363661)
(39.8599 1.01636 -0.616214)
(95.4031 -0.633367 1.8884)
(32.8895 0.306423 -1.11258)
(93.7776 3.67728 0.749573)
(40.5817 1.63461 -1.22334)
(97.1634 4.16189 1.38942)
(93.5493 2.67923 0.900092)
(37.9086 1.16208 0.142247)
(92.3073 3.21403 -1.19141)
(28.104 0.763313 -0.246842)
(90.8809 -2.61122 -1.87781)
(26.8876 0.296511 -0.441674)
(89.7807 2.72328 0.686284)
(24.3626 0.491745 0.394711)
(91.2594 -1.12404 4.91015)
(94.1414 3.67762 1.0732)
(41.3112 1.78141 0.342492)
(94.6332 4.59538 0.51024)
(40.8216 1.61636 -0.0587139)
(94.6999 1.78403 -2.31322)
(30.9973 0.880924 -0.547725)
(93.4144 1.23364 2.96517)
(41.1199 0.0559409 -0.278285)
(94.54 -1.10231 3.14179)
(95.3653 2.25287 0.549186)
(44.5632 1.16741 -0.166264)
(97.7609 2.54561 0.650878)
(51.3388 1.16733 -0.179478)
(100.757 3.07988 1.22992)
(58.1989 0.899404 -0.569983)
(101.949 -1.03748 -2.08329)
(55.5457 0.423727 -2.18602)
(100.33 0.66167 -0.906765)
)
;

boundaryField
{
    inlet
    {
        type            calculated;
        value           uniform (67 0 0);
    }
    outlet
    {
        type            calculated;
        value           nonuniform 0();
    }
    wall
    {
        type            calculated;
        value           uniform (0 0 0);
    }
    procBoundary6to0
    {
        type            processor;
        value           uniform (86.5858 -0.234727 -2.75527);
    }
    procBoundary6to2
    {
        type            processor;
        value           nonuniform List<vector> 
32
(
(84.0673 -3.19679 2.8582)
(27.752 0.784354 -2.73789)
(82.4507 1.96885 2.36436)
(94.6074 3.20268 1.9646)
(51.9998 0.916867 -3.54308)
(97.442 3.8636 0.284898)
(92.3691 1.5025 -7.52876)
(36.1361 1.21493 -4.74274)
(89.7333 1.65225 -7.812)
(33.246 0.847817 -4.8714)
(90.6611 -1.21852 -6.49358)
(32.3936 2.27995 -5.0499)
(87.4359 -0.157971 2.71887)
(25.5835 1.46742 -1.26927)
(25.5835 1.46742 -1.26927)
(25.5835 1.46742 -1.26927)
(92.8096 3.49876 -6.22085)
(37.3383 1.92274 -4.1982)
(90.6116 2.05295 -6.28913)
(34.9119 1.03171 -4.07568)
(91.6677 -0.688336 0.0485296)
(34.8629 0.58655 -7.12701)
(86.2545 1.99194 2.32592)
(86.2545 1.99194 2.32592)
(86.2545 1.99194 2.32592)
(95.0194 2.91776 -6.30773)
(42.39 1.81043 -5.05124)
(96.5656 2.30894 -7.71666)
(43.7798 1.64922 -6.1034)
(99.7721 1.13587 -3.95766)
(44.5409 0.634816 -6.94923)
(44.5409 0.634816 -6.94923)
)
;
    }
    procBoundary6to4
    {
        type            processor;
        value           nonuniform List<vector> 
27
(
(92.2058 -1.48455 -4.54928)
(34.1944 -0.10713 -2.68315)
(87.0039 -1.11933 -5.245)
(27.6234 -0.442218 -2.63835)
(83.7308 -5.54338 -0.674443)
(23.1309 -0.0594886 -2.05999)
(80.1988 1.01559 0.905544)
(17.5528 0.716012 -0.94699)
(77.9553 3.3882 3.70223)
(92.0336 -1.10652 -0.779414)
(32.7845 0.0550476 -0.0837852)
(87.5551 -0.0854987 -2.4968)
(25.1101 -0.0580768 -0.383283)
(84.409 -1.59225 0.967012)
(23.2986 -0.58992 0.0349332)
(82.5411 -0.943372 3.95231)
(19.665 -0.619172 0.936097)
(81.4888 -0.879437 10.623)
(92.3752 -0.961893 0.546705)
(35.7134 -0.299356 0.445859)
(90.949 -2.77512 -0.729935)
(24.033 -0.596101 0.0462299)
(89.3537 -1.39132 -0.604961)
(24.4559 -0.540593 -0.157879)
(89.3253 -1.70344 1.04775)
(23.8886 -0.177535 0.121952)
(90.2892 0.900474 5.33886)
)
;
    }
    procBoundary6to7
    {
        type            processor;
        value           nonuniform List<vector> 
12
(
(21.3185 1.96565 -0.720898)
(25.1115 0.368356 -1.56717)
(50.5434 1.94743 -4.06882)
(-1.18213 -0.316919 0.760635)
(15.2067 0.586678 -1.06926)
(40.9692 1.80822 -3.01994)
(14.4452 0.999053 0.655751)
(17.1625 1.06175 0.743442)
(48.5295 2.24071 0.057678)
(34.1523 0.4479 0.290319)
(46.8137 0.562967 -0.366918)
(54.0644 0.723977 -2.39968)
)
;
    }
}


// ************************************************************************* //
