/*--------------------------------*- C++ -*----------------------------------*\
| =========                 |                                                 |
| \\      /  F ield         | OpenFOAM: The Open Source CFD Toolbox           |
|  \\    /   O peration     | Version:  4.x                                   |
|   \\  /    A nd           | Web:      www.OpenFOAM.org                      |
|    \\/     M anipulation  |                                                 |
\*---------------------------------------------------------------------------*/
FoamFile
{
    version     2.0;
    format      ascii;
    class       volScalarField;
    location    "15.5";
    object      thCond;
}
// * * * * * * * * * * * * * * * * * * * * * * * * * * * * * * * * * * * * * //

dimensions      [1 1 -3 -1 0 0 0];

internalField   nonuniform List<scalar> 
87
(
190.411
190.547
190.454
190.822
190.822
190.785
190.717
190.74
190.744
190.37
190.122
190.265
190.127
190.173
190.012
191.218
190.851
190.746
190.363
190.311
190.213
190.203
190.122
190.112
191.571
191.102
191.016
190.673
190.393
190.216
190.411
190.417
190.32
190.859
190.699
190.51
190.263
190.29
190.146
190.087
190.136
189.966
191.251
190.891
190.688
190.432
190.371
190.336
190.174
190.287
190.063
191.555
191.118
190.941
190.51
190.369
190.373
190.399
190.486
190.412
191.221
191.025
190.698
190.359
190.215
190.102
189.938
189.991
190.324
191.374
191.155
190.779
190.569
190.197
190.26
190.303
190.359
190.142
191.713
191.251
190.949
190.659
190.562
190.253
190.609
190.641
190.424
)
;

boundaryField
{
    inlet
    {
        type            zeroGradient;
    }
    outlet
    {
        type            zeroGradient;
    }
    wall
    {
        type            zeroGradient;
    }
    procBoundary6to0
    {
        type            processor;
        value           uniform 190.745;
    }
    procBoundary6to2
    {
        type            processor;
        value           nonuniform List<scalar> 
32
(
190.885
190.845
190.715
191.013
191.21
190.867
191.431
191.006
190.736
190.683
190.603
190.561
190.447
190.4
190.4
190.4
191.423
191.127
190.804
190.784
190.651
190.574
190.42
190.42
190.42
191.722
191.328
191.12
190.896
190.929
190.77
190.77
)
;
    }
    procBoundary6to4
    {
        type            processor;
        value           nonuniform List<scalar> 
27
(
191.318
190.987
190.622
190.497
190.258
190.219
189.969
190.219
190.212
191.028
190.773
190.586
190.161
190.026
190.035
189.831
189.985
190.045
190.941
190.775
190.634
190.219
190.102
189.878
190.226
190.26
190.168
)
;
    }
    procBoundary6to7
    {
        type            processor;
        value           nonuniform List<scalar> 
12
(
190.103
190.458
190.703
190.149
190.201
190.361
189.858
190.028
190.331
190.021
190.15
190.257
)
;
    }
}


// ************************************************************************* //
