/*--------------------------------*- C++ -*----------------------------------*\
| =========                 |                                                 |
| \\      /  F ield         | OpenFOAM: The Open Source CFD Toolbox           |
|  \\    /   O peration     | Version:  4.x                                   |
|   \\  /    A nd           | Web:      www.OpenFOAM.org                      |
|    \\/     M anipulation  |                                                 |
\*---------------------------------------------------------------------------*/
FoamFile
{
    version     2.0;
    format      ascii;
    class       volVectorField;
    location    "15.5";
    object      UsNext;
}
// * * * * * * * * * * * * * * * * * * * * * * * * * * * * * * * * * * * * * //

dimensions      [0 1 -1 0 0 0 0];

internalField   nonuniform List<vector> 
87
(
(2.65886e-05 5.05051e-06 -1.03739e-05)
(4.01025e-05 4.56475e-06 -1.39792e-05)
(2.70845e-05 4.45884e-06 -1.29622e-05)
(3.87394e-05 4.65316e-07 -1.03299e-05)
(2.93193e-05 3.54819e-06 -1.22157e-05)
(1.43008e-05 3.37265e-06 -8.49939e-06)
(6.67319e-06 -5.48757e-06 9.52238e-06)
(1.67226e-05 -6.05233e-06 1.11374e-05)
(3.04757e-05 -5.35e-06 1.28385e-05)
(4.17608e-05 -3.89856e-06 9.54501e-06)
(5.14127e-05 -1.71175e-06 5.74379e-06)
(4.20494e-05 1.3659e-06 -3.11568e-06)
(4.54135e-05 3.96128e-06 -7.45133e-06)
(3.68778e-05 2.90745e-06 -8.64845e-06)
(2.51031e-05 4.04901e-06 -7.33814e-06)
(7.59253e-06 -4.0194e-06 1.27386e-05)
(1.69931e-05 -3.54433e-06 1.49697e-05)
(3.30998e-05 -4.12816e-06 1.59784e-05)
(4.64711e-05 -2.45684e-06 1.07053e-05)
(6.01541e-05 -4.71225e-07 7.24541e-06)
(5.63635e-05 -3.5346e-07 -4.54705e-06)
(5.06423e-05 1.21204e-06 -8.11596e-06)
(4.31269e-05 1.19709e-06 -1.05715e-05)
(2.9359e-05 2.58495e-06 -8.62413e-06)
(4.00468e-06 -1.31374e-06 6.63422e-06)
(1.31089e-05 -1.01458e-06 1.23965e-05)
(2.12652e-05 -6.14916e-07 1.26907e-05)
(3.62577e-05 -3.66013e-06 9.37488e-06)
(4.04531e-05 -1.48651e-06 4.4154e-06)
(4.85706e-05 1.65707e-06 -1.57899e-06)
(3.99745e-05 1.03129e-06 -6.34472e-06)
(2.42685e-05 -5.09341e-07 -9.56638e-06)
(2.12787e-05 2.31614e-06 -8.12385e-06)
(6.83779e-06 -4.21898e-06 6.11418e-06)
(1.76166e-05 -4.85883e-06 8.29614e-06)
(2.71987e-05 -3.86779e-06 8.22967e-06)
(3.97598e-05 -1.37265e-06 5.24323e-06)
(4.79051e-05 -4.25718e-07 2.43014e-06)
(4.74519e-05 -1.1805e-07 -1.25528e-06)
(4.37295e-05 2.28379e-06 -3.54886e-06)
(3.76093e-05 1.20091e-06 -5.11997e-06)
(2.97418e-05 2.34636e-06 -4.46778e-06)
(7.30162e-06 -3.1e-06 7.59529e-06)
(1.86643e-05 -2.06372e-06 9.04355e-06)
(2.87165e-05 -1.76886e-06 9.73627e-06)
(4.33585e-05 -6.31405e-07 4.22784e-06)
(5.51842e-05 -7.2272e-07 2.55317e-06)
(5.206e-05 7.42825e-07 7.82044e-09)
(5.06917e-05 1.04939e-06 -6.2169e-06)
(4.19889e-05 4.02136e-06 -5.96652e-06)
(3.13555e-05 2.66328e-06 -4.76811e-06)
(5.46306e-06 -2.04082e-06 6.58392e-06)
(1.13357e-05 -9.82457e-07 8.15805e-06)
(2.2956e-05 -1.9358e-06 7.71453e-06)
(2.92104e-05 -1.75007e-06 2.71923e-06)
(3.80401e-05 -2.2729e-07 3.11714e-07)
(3.56319e-05 1.5722e-06 1.87316e-07)
(3.40093e-05 -3.91703e-07 -3.66623e-06)
(3.62461e-05 -7.57754e-07 -5.13496e-06)
(2.26048e-05 8.03004e-07 -4.91144e-06)
(6.11052e-06 -3.17838e-06 3.59233e-06)
(1.42365e-05 -2.48579e-06 3.37752e-06)
(1.89608e-05 -3.74144e-06 3.7529e-06)
(2.40804e-05 -1.33759e-06 3.49402e-06)
(2.5001e-05 -1.41535e-07 2.7125e-06)
(2.68003e-05 4.06606e-08 1.47826e-06)
(3.05468e-05 2.67156e-06 -1.47319e-06)
(2.45629e-05 1.22531e-06 -4.15678e-06)
(2.11162e-05 1.40971e-07 -3.15445e-07)
(5.6084e-06 -2.64921e-06 3.02444e-06)
(1.08263e-05 -2.40832e-06 4.58466e-06)
(1.88021e-05 -1.0726e-06 3.26311e-06)
(3.11137e-05 -2.20338e-06 -7.63353e-08)
(2.99351e-05 -5.10439e-07 -2.55343e-07)
(3.45306e-05 1.73628e-06 -3.23399e-07)
(3.22323e-05 6.13733e-07 -6.09125e-07)
(2.96636e-05 6.60729e-07 -2.38627e-06)
(2.13397e-05 -9.85719e-07 -1.70081e-06)
(3.32661e-06 -9.60569e-07 1.87131e-06)
(9.89085e-06 -5.33475e-07 2.37545e-06)
(1.66038e-05 -1.99008e-06 2.31412e-06)
(1.98559e-05 -3.0879e-08 -6.39842e-07)
(2.0776e-05 -7.07897e-07 1.06879e-06)
(2.56069e-05 -1.31595e-07 -1.21975e-06)
(2.455e-05 1.00044e-06 -1.3245e-06)
(2.34192e-05 8.16025e-07 5.98056e-07)
(1.55937e-05 -1.34332e-06 -2.9814e-06)
)
;

boundaryField
{
    inlet
    {
        type            calculated;
        value           nonuniform List<vector> 9((6.67319e-06 -5.48757e-06 9.52238e-06) (7.59253e-06 -4.0194e-06 1.27386e-05) (4.00468e-06 -1.31374e-06 6.63422e-06) (6.83779e-06 -4.21898e-06 6.11418e-06) (7.30162e-06 -3.1e-06 7.59529e-06) (5.46306e-06 -2.04082e-06 6.58392e-06) (6.11052e-06 -3.17838e-06 3.59233e-06) (5.6084e-06 -2.64921e-06 3.02444e-06) (3.32661e-06 -9.60569e-07 1.87131e-06));
    }
    outlet
    {
        type            calculated;
        value           nonuniform 0();
    }
    wall
    {
        type            calculated;
        value           nonuniform List<vector> 
57
(
(6.11052e-06 -3.17838e-06 3.59233e-06)
(5.6084e-06 -2.64921e-06 3.02444e-06)
(3.32661e-06 -9.60569e-07 1.87131e-06)
(1.42365e-05 -2.48579e-06 3.37752e-06)
(1.08263e-05 -2.40832e-06 4.58466e-06)
(9.89085e-06 -5.33475e-07 2.37545e-06)
(1.89608e-05 -3.74144e-06 3.7529e-06)
(1.88021e-05 -1.0726e-06 3.26311e-06)
(1.66038e-05 -1.99008e-06 2.31412e-06)
(2.40804e-05 -1.33759e-06 3.49402e-06)
(3.11137e-05 -2.20338e-06 -7.63353e-08)
(1.98559e-05 -3.0879e-08 -6.39842e-07)
(2.5001e-05 -1.41535e-07 2.7125e-06)
(2.99351e-05 -5.10439e-07 -2.55343e-07)
(2.0776e-05 -7.07897e-07 1.06879e-06)
(2.68003e-05 4.06606e-08 1.47826e-06)
(3.45306e-05 1.73628e-06 -3.23399e-07)
(2.56069e-05 -1.31595e-07 -1.21975e-06)
(3.05468e-05 2.67156e-06 -1.47319e-06)
(3.22323e-05 6.13733e-07 -6.09125e-07)
(2.455e-05 1.00044e-06 -1.3245e-06)
(2.45629e-05 1.22531e-06 -4.15678e-06)
(2.96636e-05 6.60729e-07 -2.38627e-06)
(2.34192e-05 8.16025e-07 5.98056e-07)
(2.11162e-05 1.40971e-07 -3.15445e-07)
(2.13397e-05 -9.85719e-07 -1.70081e-06)
(1.55937e-05 -1.34332e-06 -2.9814e-06)
(4.00468e-06 -1.31374e-06 6.63422e-06)
(5.46306e-06 -2.04082e-06 6.58392e-06)
(3.32661e-06 -9.60569e-07 1.87131e-06)
(1.31089e-05 -1.01458e-06 1.23965e-05)
(1.13357e-05 -9.82457e-07 8.15805e-06)
(9.89085e-06 -5.33475e-07 2.37545e-06)
(2.12652e-05 -6.14916e-07 1.26907e-05)
(2.2956e-05 -1.9358e-06 7.71453e-06)
(1.66038e-05 -1.99008e-06 2.31412e-06)
(3.62577e-05 -3.66013e-06 9.37488e-06)
(2.92104e-05 -1.75007e-06 2.71923e-06)
(1.98559e-05 -3.0879e-08 -6.39842e-07)
(4.04531e-05 -1.48651e-06 4.4154e-06)
(3.80401e-05 -2.2729e-07 3.11714e-07)
(2.0776e-05 -7.07897e-07 1.06879e-06)
(4.85706e-05 1.65707e-06 -1.57899e-06)
(3.56319e-05 1.5722e-06 1.87316e-07)
(2.56069e-05 -1.31595e-07 -1.21975e-06)
(3.87394e-05 4.65316e-07 -1.03299e-05)
(3.99745e-05 1.03129e-06 -6.34472e-06)
(3.40093e-05 -3.91703e-07 -3.66623e-06)
(2.455e-05 1.00044e-06 -1.3245e-06)
(2.93193e-05 3.54819e-06 -1.22157e-05)
(2.42685e-05 -5.09341e-07 -9.56638e-06)
(3.62461e-05 -7.57754e-07 -5.13496e-06)
(2.34192e-05 8.16025e-07 5.98056e-07)
(1.43008e-05 3.37265e-06 -8.49939e-06)
(2.12787e-05 2.31614e-06 -8.12385e-06)
(2.26048e-05 8.03004e-07 -4.91144e-06)
(1.55937e-05 -1.34332e-06 -2.9814e-06)
)
;
    }
    procBoundary6to0
    {
        type            processor;
        value           uniform (2.52931e-05 5.79974e-06 -9.79898e-06);
    }
    procBoundary6to2
    {
        type            processor;
        value           nonuniform List<vector> 
32
(
(2.52876e-05 9.27148e-06 -1.4757e-05)
(3.77758e-05 4.7516e-06 -2.35491e-05)
(2.42532e-05 6.16647e-06 -1.63361e-05)
(5.15594e-05 -4.64135e-06 -2.52113e-05)
(2.81264e-05 2.61566e-06 -1.74175e-05)
(1.77128e-05 2.7384e-06 -1.38161e-05)
(5.22766e-06 -5.70813e-06 1.11906e-05)
(1.84229e-05 -8.23711e-06 1.54354e-05)
(3.27685e-05 -8.95899e-06 1.63021e-05)
(4.84898e-05 -6.34668e-06 1.49038e-05)
(6.25188e-05 -6.2038e-06 6.92477e-06)
(6.06838e-05 5.01297e-07 -7.68008e-06)
(5.04483e-05 7.76352e-06 -1.40746e-05)
(3.45977e-05 6.68224e-06 -1.04014e-05)
(3.45977e-05 6.68224e-06 -1.04014e-05)
(3.45977e-05 6.68224e-06 -1.04014e-05)
(4.03342e-06 -4.81175e-06 1.22005e-05)
(1.73077e-05 -5.78704e-06 2.00884e-05)
(3.48693e-05 -5.45384e-06 2.15497e-05)
(5.19068e-05 -5.31195e-06 1.93234e-05)
(7.7035e-05 -1.66385e-06 1.33612e-05)
(7.68067e-05 -2.35152e-07 -1.76338e-05)
(5.93998e-05 3.01506e-06 -1.97782e-05)
(5.93998e-05 3.01506e-06 -1.97782e-05)
(5.93998e-05 3.01506e-06 -1.97782e-05)
(2.70446e-06 -5.06434e-07 9.70742e-06)
(1.23413e-05 -7.53679e-07 1.54056e-05)
(2.76365e-05 -2.51727e-06 2.0424e-05)
(3.54373e-05 1.24361e-06 1.68956e-05)
(5.6981e-05 5.52221e-06 1.12587e-05)
(5.05273e-05 6.25779e-07 -5.2994e-06)
(5.05273e-05 6.25779e-07 -5.2994e-06)
)
;
    }
    procBoundary6to4
    {
        type            processor;
        value           nonuniform List<vector> 
27
(
(4.99586e-06 -5.63581e-06 6.32845e-06)
(1.59933e-05 -7.91245e-06 9.20105e-06)
(2.84203e-05 -6.37384e-06 1.02876e-05)
(3.80542e-05 -5.69122e-06 7.03889e-06)
(4.63483e-05 -2.7272e-06 3.52144e-06)
(4.31786e-05 1.15306e-06 -2.38737e-06)
(4.46832e-05 3.12785e-06 -4.61306e-06)
(3.34579e-05 3.54918e-06 -6.80921e-06)
(2.57755e-05 4.13728e-06 -5.6118e-06)
(7.84476e-06 -4.23035e-06 4.38772e-06)
(1.67866e-05 -5.65672e-06 7.22631e-06)
(2.79022e-05 -4.85839e-06 6.34401e-06)
(3.67916e-05 -3.91352e-06 5.28711e-06)
(4.36603e-05 -2.24611e-06 3.08262e-06)
(4.38287e-05 -1.32299e-07 -1.54866e-07)
(4.38108e-05 1.60849e-06 -9.97764e-07)
(3.51263e-05 2.60953e-06 -4.98543e-06)
(2.82005e-05 2.93334e-06 -2.24144e-06)
(3.09713e-06 -2.23917e-06 2.33899e-06)
(1.00017e-05 -3.4022e-06 2.6065e-06)
(2.11493e-05 -5.30335e-06 2.35242e-06)
(2.71173e-05 -2.32235e-06 2.89128e-06)
(3.00103e-05 -1.57556e-06 1.24068e-06)
(2.99293e-05 6.01593e-07 2.53261e-06)
(2.77013e-05 9.75888e-07 -2.55612e-07)
(2.26761e-05 7.60705e-07 -2.75534e-06)
(2.30962e-05 4.98851e-07 -2.27019e-06)
)
;
    }
    procBoundary6to7
    {
        type            processor;
        value           nonuniform List<vector> 
12
(
(1.80641e-05 4.72509e-06 -8.70959e-06)
(2.17402e-05 2.42712e-06 -9.83454e-06)
(1.40169e-05 1.46944e-06 -9.29688e-06)
(2.00358e-05 3.67182e-06 -6.50299e-06)
(2.17271e-05 2.46141e-06 -7.86982e-06)
(1.42422e-05 6.06695e-07 -6.55338e-06)
(2.47109e-05 2.51426e-06 -4.61234e-06)
(2.59262e-05 1.29509e-06 -5.33585e-06)
(1.61119e-05 -7.49131e-07 -2.86227e-06)
(2.19401e-05 -6.6962e-07 -2.04543e-06)
(1.83587e-05 6.26721e-08 -2.83597e-06)
(1.31057e-05 6.81037e-07 -1.52052e-06)
)
;
    }
}


// ************************************************************************* //
