/*--------------------------------*- C++ -*----------------------------------*\
| =========                 |                                                 |
| \\      /  F ield         | OpenFOAM: The Open Source CFD Toolbox           |
|  \\    /   O peration     | Version:  4.x                                   |
|   \\  /    A nd           | Web:      www.OpenFOAM.org                      |
|    \\/     M anipulation  |                                                 |
\*---------------------------------------------------------------------------*/
FoamFile
{
    version     2.0;
    format      ascii;
    class       volVectorField;
    location    "38.5";
    object      Urel;
}
// * * * * * * * * * * * * * * * * * * * * * * * * * * * * * * * * * * * * * //

dimensions      [0 1 -1 0 0 0 0];

internalField   nonuniform List<vector> 
87
(
(-0.0198594 -4.26196e-05 0.000269031)
(-0.0192864 -0.000171138 0.000410842)
(-0.0208979 -0.000136584 0.000358784)
(-0.0220668 -0.000269269 0.00053353)
(-0.0207427 -0.000170424 0.00049315)
(-0.0221017 -0.000115477 0.000448056)
(-0.0229136 -0.000220743 0.000488096)
(-0.0205705 -0.000197069 0.000435411)
(-0.0212952 -0.000207304 0.000412265)
(-0.0191756 -0.000158436 0.000352955)
(-0.0204126 -0.000148544 0.000313471)
(-0.0183254 -0.000100636 0.000258304)
(-0.0198907 -7.13982e-05 0.000227087)
(-0.0178413 -3.80784e-05 0.000188146)
(-0.0196072 5.90081e-06 0.000170997)
(-0.0231173 -0.000505533 0.000481497)
(-0.0209206 -0.000421814 0.000445014)
(-0.0217448 -0.000451385 0.000425995)
(-0.0198663 -0.000348555 0.00038632)
(-0.0210991 -0.0003418 0.00034947)
(-0.0192561 -0.000249762 0.000308501)
(-0.0207231 -0.000218016 0.00027937)
(-0.0188379 -0.000138707 0.000250592)
(-0.0204964 -7.98346e-05 0.000235462)
(-0.023334 -0.000545267 0.000493726)
(-0.0213619 -0.000480782 0.000465172)
(-0.0222668 -0.000493907 0.000457521)
(-0.020759 -0.000403196 0.000430583)
(-0.0219265 -0.000385827 0.000399153)
(-0.0204983 -0.000299139 0.000366123)
(-0.0217625 -0.000270999 0.000334501)
(-0.0203252 -0.000174661 0.000325919)
(-0.0216603 -0.000113446 0.000300703)
(-0.0230371 -0.000243985 9.6852e-05)
(-0.0208245 -0.000206424 0.000117022)
(-0.021601 -0.000222197 6.99287e-05)
(-0.0196805 -0.00016312 8.44356e-05)
(-0.0208849 -0.000154936 4.32925e-05)
(-0.0190056 -9.49609e-05 5.75666e-05)
(-0.0204666 -7.17872e-05 4.07662e-05)
(-0.0185526 -2.53058e-05 4.7381e-05)
(-0.0202159 4.67458e-06 5.66235e-05)
(-0.0232292 -0.000501689 0.000113236)
(-0.0211749 -0.000422426 0.000132733)
(-0.0220335 -0.000447241 9.20969e-05)
(-0.0203749 -0.000346069 0.00011402)
(-0.0215571 -0.000345749 7.1038e-05)
(-0.0199606 -0.000252515 9.30987e-05)
(-0.0212797 -0.00023308 6.27109e-05)
(-0.0196443 -0.000141102 9.46436e-05)
(-0.0211038 -0.000104386 8.85201e-05)
(-0.0234199 -0.000526189 0.000149895)
(-0.021551 -0.000466303 0.000164756)
(-0.0224994 -0.000467541 0.000137512)
(-0.0211308 -0.00038707 0.000147575)
(-0.022302 -0.000363749 0.000118459)
(-0.0210186 -0.000288015 0.000137124)
(-0.0222238 -0.0002521 0.000117992)
(-0.0209291 -0.000166816 0.000148024)
(-0.0221723 -0.000110818 0.000141444)
(-0.0232011 -0.000242863 -5.70942e-05)
(-0.0212063 -0.000198375 -2.9416e-05)
(-0.022034 -0.000202276 -6.66229e-05)
(-0.0204567 -0.000149939 -3.79662e-05)
(-0.021589 -0.000128255 -7.60287e-05)
(-0.0201105 -7.4262e-05 -4.9686e-05)
(-0.0213648 -3.61966e-05 -7.71804e-05)
(-0.0198722 7.7667e-06 -4.60441e-05)
(-0.0212272 4.41138e-05 -4.67551e-05)
(-0.0233715 -0.000468175 -2.50296e-05)
(-0.0214977 -0.000401339 -3.30676e-07)
(-0.0224125 -0.000415341 -2.41398e-05)
(-0.0210266 -0.000333601 3.47406e-07)
(-0.0221847 -0.000315672 -2.42641e-05)
(-0.0208864 -0.000237037 -6.35264e-06)
(-0.0220783 -0.000203105 -2.16183e-05)
(-0.0207652 -0.000112649 1.60463e-05)
(-0.0220131 -6.79896e-05 2.29422e-05)
(-0.023528 -0.00049555 1.10422e-05)
(-0.0217771 -0.00044141 3.28562e-05)
(-0.0227855 -0.000438959 1.43857e-05)
(-0.0215954 -0.000371287 3.02325e-05)
(-0.0227977 -0.000339028 1.63388e-05)
(-0.021701 -0.000263798 3.72268e-05)
(-0.0228619 -0.000222771 2.83301e-05)
(-0.0217422 -0.000138426 6.92455e-05)
(-0.0228904 -7.95782e-05 8.10378e-05)
)
;

boundaryField
{
    inlet
    {
        type            calculated;
        value           nonuniform List<vector> 9((-0.01 -1.70211e-10 1.52275e-10) (-0.01 -5.61971e-11 -2.16032e-11) (-0.01 -3.33459e-11 3.98033e-11) (-0.01 -1.46835e-10 1.11461e-10) (-0.01 -1.28495e-10 3.71863e-12) (-0.01 -6.07542e-11 2.00388e-10) (-0.01 -1.17015e-10 7.24667e-11) (-0.01 8.78247e-11 1.58337e-11) (-0.01 3.94061e-10 9.34611e-11));
    }
    outlet
    {
        type            calculated;
        value           nonuniform 0();
    }
    wall
    {
        type            calculated;
        value           nonuniform List<vector> 
57
(
(5.2662e-11 -1.17015e-10 7.24667e-11)
(3.76332e-10 8.78247e-11 1.58337e-11)
(1.462e-09 3.94061e-10 9.34611e-11)
(6.43093e-11 -1.23267e-10 1.20336e-10)
(-3.39313e-11 -5.51716e-11 3.10339e-11)
(-6.55114e-11 -2.53001e-11 2.37262e-11)
(2.27269e-10 -1.80243e-10 1.46166e-10)
(9.68598e-11 -1.09212e-10 1.00536e-10)
(4.94608e-11 -1.2982e-10 2.00046e-10)
(1.5799e-10 -1.23654e-10 1.61459e-10)
(-6.04653e-11 -9.27439e-11 1.07692e-10)
(-6.31884e-11 -3.19465e-11 9.49953e-12)
(3.44865e-10 -1.75196e-10 2.10613e-10)
(1.88199e-10 -1.84841e-10 1.23866e-10)
(-4.62806e-11 -6.21463e-11 2.98309e-11)
(5.72319e-10 -2.37524e-10 2.79216e-10)
(1.41647e-10 -2.20714e-10 1.44787e-10)
(-9.97111e-11 -7.05456e-11 4.8477e-11)
(1.09491e-09 -8.99465e-11 5.4557e-10)
(1.63787e-10 -2.85343e-10 3.06939e-10)
(-6.525e-11 -6.08011e-11 9.57897e-11)
(1.47002e-09 -3.40724e-10 4.44694e-10)
(6.78921e-10 -2.72448e-09 8.48879e-11)
(-1.1939e-10 -3.12552e-10 2.25383e-10)
(2.01094e-09 -3.72446e-10 7.58045e-10)
(7.95434e-10 -7.96039e-10 2.15827e-10)
(1.2008e-10 -2.2245e-10 1.95394e-10)
(1.57764e-11 -3.33459e-11 3.98033e-11)
(9.27386e-11 -6.07542e-11 2.00388e-10)
(1.462e-09 3.94061e-10 9.34611e-11)
(-5.30107e-10 -2.59926e-10 1.04272e-10)
(-2.00696e-09 -7.7226e-10 2.28785e-10)
(-6.55114e-11 -2.53001e-11 2.37262e-11)
(-1.09395e-13 -8.98785e-11 1.29251e-10)
(3.48201e-11 -2.53449e-10 4.35512e-10)
(4.94608e-11 -1.2982e-10 2.00046e-10)
(3.456e-11 -1.2297e-10 1.60888e-10)
(-1.15827e-10 -2.61519e-11 1.2583e-10)
(-6.31884e-11 -3.19465e-11 9.49953e-12)
(4.08154e-11 -1.11464e-10 2.62696e-10)
(-2.57351e-11 -9.29721e-11 1.43645e-10)
(-4.62806e-11 -6.21463e-11 2.98309e-11)
(3.08261e-11 -2.01632e-10 3.33836e-10)
(-1.02072e-10 -1.2884e-10 1.49406e-10)
(-9.97111e-11 -7.05456e-11 4.8477e-11)
(1.2151e-10 -1.00823e-10 5.20826e-10)
(-6.96897e-11 -3.08645e-10 3.2e-10)
(2.62067e-11 -1.94715e-10 2.23749e-10)
(-6.525e-11 -6.08011e-11 9.57897e-11)
(1.45189e-10 -3.10824e-10 9.07981e-10)
(-3.05241e-10 -4.04069e-10 1.66235e-10)
(-1.69278e-10 -1.96589e-10 3.56019e-10)
(-1.1939e-10 -3.12552e-10 2.25383e-10)
(4.02394e-10 -4.94992e-10 7.89949e-10)
(-6.5904e-10 -5.85465e-10 3.00585e-10)
(-2.46295e-10 -2.40221e-10 2.77683e-10)
(1.2008e-10 -2.2245e-10 1.95394e-10)
)
;
    }
    procBoundary6to0
    {
        type            processor;
        value           uniform (-0.0195867 3.69232e-05 0.0002529);
    }
    procBoundary6to2
    {
        type            processor;
        value           nonuniform List<vector> 
32
(
(-0.0207206 -1.75504e-05 0.000396317)
(-0.0199714 -0.000154047 0.000520564)
(-0.0216584 -0.000128956 0.000449665)
(-0.022746 -0.000273096 0.000680742)
(-0.0215156 -0.000175388 0.000600097)
(-0.0229367 -0.000132667 0.000533415)
(-0.0229663 -0.000226142 0.000910899)
(-0.0206476 -0.000200722 0.000798608)
(-0.0214187 -0.000228424 0.000790848)
(-0.019355 -0.000174998 0.000654174)
(-0.0205912 -0.000182715 0.000605331)
(-0.0185911 -0.000123165 0.000480464)
(-0.0201283 -0.000108034 0.000414263)
(-0.0181121 -6.36822e-05 0.00033604)
(-0.0181121 -6.36822e-05 0.00033604)
(-0.0181121 -6.36822e-05 0.00033604)
(-0.0231557 -0.000487597 0.000885333)
(-0.0209927 -0.000418937 0.000792909)
(-0.0218457 -0.000453675 0.000787872)
(-0.0200423 -0.000359006 0.000680497)
(-0.0212777 -0.000369512 0.000638548)
(-0.0195628 -0.000271144 0.000529813)
(-0.0210167 -0.000259876 0.000474896)
(-0.0210167 -0.000259876 0.000474896)
(-0.0210167 -0.000259876 0.000474896)
(-0.02336 -0.000529781 0.000871859)
(-0.0214022 -0.000472393 0.000801283)
(-0.0223443 -0.000487386 0.000804738)
(-0.0208786 -0.000406402 0.000725214)
(-0.0220918 -0.000393309 0.000685647)
(-0.0207608 -0.000303563 0.000587689)
(-0.0207608 -0.000303563 0.000587689)
)
;
    }
    procBoundary6to4
    {
        type            processor;
        value           nonuniform List<vector> 
27
(
(-0.022879 0.000130678 0.000488541)
(-0.0205327 9.8498e-05 0.000432365)
(-0.0212274 0.000105537 0.000395686)
(-0.0190895 8.57636e-05 0.000338338)
(-0.0202869 8.90709e-05 0.000284379)
(-0.0181886 6.71108e-05 0.00023338)
(-0.0197457 5.79899e-05 0.000197018)
(-0.017649 5.14047e-05 0.000157962)
(-0.0194484 5.02595e-05 0.000134601)
(-0.0229887 0.000110948 0.000123836)
(-0.020754 8.38387e-05 0.000113803)
(-0.0215014 8.43937e-05 6.18112e-05)
(-0.0195496 7.46171e-05 7.01075e-05)
(-0.020744 7.57278e-05 1.4366e-05)
(-0.0188605 7.17673e-05 2.52902e-05)
(-0.0203354 7.15677e-05 -1.45234e-05)
(-0.0184489 7.34108e-05 8.1978e-06)
(-0.0201186 8.00061e-05 5.12547e-06)
(-0.0231314 9.45395e-05 -4.10666e-05)
(-0.0210966 8.43591e-05 -3.61038e-05)
(-0.0219067 9.33332e-05 -8.30458e-05)
(-0.0202842 8.71285e-05 -6.29093e-05)
(-0.0214373 9.29387e-05 -0.000106176)
(-0.0199582 9.30508e-05 -8.62698e-05)
(-0.0212592 0.000104005 -0.000123382)
(-0.0198356 0.000110968 -8.33879e-05)
(-0.0212165 0.000134709 -9.55898e-05)
)
;
    }
    procBoundary6to7
    {
        type            processor;
        value           nonuniform List<vector> 
12
(
(-0.0178609 -1.98187e-05 0.000232131)
(-0.019155 -8.24372e-05 0.000340244)
(-0.0207377 -3.12508e-05 0.000454127)
(-0.0176225 1.08128e-05 0.000142831)
(-0.0185741 -2.96675e-05 0.000215633)
(-0.0201511 -3.7936e-05 0.000316056)
(-0.0182577 3.3564e-05 6.02496e-05)
(-0.0194152 -3.02881e-05 0.000115963)
(-0.0208327 -2.70522e-05 0.000177941)
(-0.0196914 8.08209e-05 -6.97726e-06)
(-0.020649 -2.11926e-06 7.11103e-05)
(-0.0217049 -4.30115e-07 0.000128745)
)
;
    }
}


// ************************************************************************* //
