/*--------------------------------*- C++ -*----------------------------------*\
  =========                 |
  \\      /  F ield         | OpenFOAM: The Open Source CFD Toolbox
   \\    /   O peration     | Website:  https://openfoam.org
    \\  /    A nd           | Version:  4.x
     \\/     M anipulation  |
\*---------------------------------------------------------------------------*/
FoamFile
{
    version     2.0;
    format      ascii;
    class       Cloud<passiveParticle>;
    location    0;
    object      positions;
}
// * * * * * * * * * * * * * * * * * * * * * * * * * * * * * * * * * * * * * //

354
(
( 0.0733266 -0.0586475 -0.0631514 ) 41
( 0.086132 -0.0205777 -0.0291008 ) 83
( 0.0502926 -0.0384003 -0.0671439 ) 49
( 0.177333 -0.0798923 -0.0518247 ) 36
( 0.052455 -0.075215 -0.0489181 ) 31
( 0.193095 -0.0267668 -0.0537253 ) 54
( 0.145441 -0.0832537 -0.0260689 ) 67
( 0.0553645 -0.0674083 -0.0309938 ) 72
( 0.0535644 -0.0265416 -0.0263413 ) 81
( 0.00979838 -0.039515 -0.0345271 ) 80
( 0.21781 -0.089835 -0.060997 ) 37
( 0.203297 -0.0500929 -0.0423841 ) 78
( 0.212134 -0.0255574 -0.0483988 ) 55
( 0.0790424 -0.0210804 -0.0557713 ) 50
( 0.17652 -0.0714565 -0.0698484 ) 36
( 0.186448 -0.0423495 -0.0350917 ) 86
( 0.194342 -0.014837 -0.069623 ) 54
( 0.109264 -0.027975 -0.0582542 ) 51
( 0.226177 -0.049637 -0.0706092 ) 47
( 0.242013 -0.0204875 -0.0591469 ) 56
( 0.242239 -0.0704465 -0.025605 ) 79
( 0.0743512 -0.0367072 -0.028905 ) 82
( 0.137543 -0.0447395 -0.0393859 ) 75
( 0.204553 -0.0531096 -0.0637318 ) 46
( 0.0958141 -0.0517549 -0.0334759 ) 74
( 0.0620119 -0.0408017 -0.0437181 ) 50
( 0.215625 -0.0645774 -0.0517984 ) 46
( 0.0273087 -0.0143264 -0.0498404 ) 48
( 0.0792789 -0.0730254 -0.0508259 ) 32
( 0.204907 -0.0731075 -0.0374828 ) 69
( 0.119571 -0.0384708 -0.0448903 ) 52
( 0.232921 -0.0560301 -0.047412 ) 47
( 0.0266279 -0.016945 -0.0301829 ) 80
( 0.138821 -0.0575361 -0.0244625 ) 75
( 0.0278977 -0.076605 -0.0367192 ) 63
( 0.141267 -0.0201964 -0.0702792 ) 53
( 0.0384932 -0.074766 -0.0629326 ) 31
( 0.108023 -0.0802798 -0.0393598 ) 65
( 0.0731329 -0.076655 -0.0323995 ) 64
( 0.110917 -0.078659 -0.0197854 ) 65
( 0.135517 -0.0456711 -0.0683769 ) 43
( 0.149506 -0.0492116 -0.0545977 ) 44
( 0.240268 -0.0356132 -0.0718358 ) 26
( 0.17127 -0.0274976 -0.0687211 ) 54
( 0.127258 -0.0901767 -0.0207528 ) 66
( 0.233722 -0.0753118 -0.0528033 ) 38
( 0.0365863 -0.0626042 -0.0474401 ) 40
( 0.172303 -0.0571591 -0.0514997 ) 45
( 0.107448 -0.0761448 -0.066293 ) 33
( 0.0938155 -0.0217325 -0.0690026 ) 51
( 0.138377 -0.0878387 -0.0550265 ) 34
( 0.188091 -0.0628515 -0.0405032 ) 77
( 0.133336 -0.0181857 -0.0413318 ) 84
( 0.0836414 -0.0382981 -0.0647037 ) 51
( 0.112707 -0.020055 -0.0403916 ) 84
( 0.0986046 -0.0584856 -0.0672394 ) 42
( 0.150603 -0.0110739 -0.0348601 ) 94
( 0.0401895 -0.0265742 -0.041083 ) 81
( 0.0666605 -0.0217946 -0.0404491 ) 82
( 0.0341276 -0.0348111 -0.0242965 ) 81
( 0.148836 -0.0793807 -0.0695841 ) 35
( 0.0114755 -0.0272485 -0.0627476 ) 48
( 0.0977365 -0.0660729 -0.0487479 ) 42
( 0.128906 -0.0733227 -0.030849 ) 66
( 0.0096505 -0.00689396 -0.0306556 ) 89
( 0.239825 -0.0432233 -0.0281995 ) 79
( 0.150067 -0.062501 -0.0398098 ) 76
( 0.166843 -0.0709299 -0.033375 ) 77
( 0.200381 -0.0860968 -0.0517357 ) 37
( 0.160855 -0.0281241 -0.0351375 ) 85
( 0.189344 -0.0353185 -0.071336 ) 54
( 0.121378 -0.00645521 -0.0519884 ) 61
( 0.187567 -0.0824443 -0.0351666 ) 68
( 0.0275194 -0.0474463 -0.038214 ) 71
( 0.0538676 -0.0580399 -0.0590591 ) 40
( 0.030474 -0.0900513 -0.0511725 ) 31
( 0.0824134 -0.0437149 -0.0456536 ) 41
( 0.157604 -0.0252552 -0.0544988 ) 53
( 0.13898 -0.0319551 -0.0544363 ) 53
( 0.0841833 -0.0901771 -0.0421081 ) 65
( 0.0328654 -0.0307813 -0.0595051 ) 49
( 0.0499165 -0.00888445 -0.0361549 ) 90
( 0.0910573 -0.0365085 -0.0182463 ) 83
( 0.0185978 -0.00910825 -0.0668547 ) 57
( 0.0704058 -0.0585841 -0.0403877 ) 73
( 0.0534645 -0.0228771 -0.0552059 ) 49
( 0.174994 -0.0327068 -0.0482091 ) 54
( 0.00991112 -0.0641567 -0.0350977 ) 71
( 0.00989906 -0.0802117 -0.0232347 ) 62
( 0.200469 -0.0502843 -0.0227435 ) 78
( 0.123749 -0.0552452 -0.0556196 ) 43
( 0.187147 -0.0901122 -0.0659095 ) 36
( 0.237222 -0.0901034 -0.0656696 ) 38
( 0.11498 -0.0617127 -0.0390486 ) 75
( 0.0654718 -0.0145747 -0.0687788 ) 50
( 0.00990145 -0.062883 -0.0617891 ) 39
( 0.0978053 -0.032917 -0.0391626 ) 83
( 0.22503 -0.0729884 -0.0351399 ) 70
( 0.177377 -0.0566291 -0.0249921 ) 77
( 0.224442 -0.0262133 -0.0329606 ) 88
( 0.208178 -0.0308437 -0.0670639 ) 55
( 0.0435905 -0.0794375 -0.0202968 ) 63
( 0.21677 -0.0900772 -0.0411467 ) 69
( 0.243215 -0.0902274 -0.0437259 ) 38
( 0.0262322 -0.0614533 -0.0240976 ) 71
( 0.0969284 -0.0142341 -0.0508229 ) 60
( 0.209597 -0.0732643 -0.0685553 ) 37
( 0.126545 -0.0684042 -0.0707309 ) 43
( 0.196605 -0.0903005 -0.0194497 ) 69
( 0.169701 -0.0902746 -0.0311291 ) 68
( 0.154426 -0.0877301 -0.0434294 ) 35
( 0.180003 -0.0233706 -0.0294701 ) 86
( 0.19284 -0.0687877 -0.058805 ) 45
( 0.0796989 -0.054811 -0.0224484 ) 73
( 0.234052 -0.0679098 -0.0712164 ) 47
( 0.121734 -0.0747659 -0.0525241 ) 34
( 0.188341 -0.0460875 -0.0546499 ) 45
( 0.235546 -0.0359512 -0.0462498 ) 56
( 0.163321 -0.0481102 -0.0363348 ) 76
( 0.058438 -0.0900846 -0.0631437 ) 32
( 0.216405 -0.0900089 -0.0213651 ) 69
( 0.121503 -0.0901232 -0.0651852 ) 34
( 0.150192 -0.0400107 -0.0233598 ) 85
( 0.0435003 -0.044222 -0.0494186 ) 40
( 0.00989574 -0.0219022 -0.0436828 ) 48
( 0.161488 -0.0575032 -0.0681213 ) 44
( 0.121717 -0.0168378 -0.068996 ) 52
( 0.124578 -0.0296649 -0.0278745 ) 84
( 0.103186 -0.0472061 -0.0516954 ) 42
( 0.203534 -0.0329943 -0.0322363 ) 87
( 0.0446701 -0.0900403 -0.0371137 ) 63
( 0.114568 -0.0438264 -0.0690412 ) 43
( 0.0100175 -0.0448453 -0.0535391 ) 39
( 0.0965434 -0.0902462 -0.0267855 ) 65
( 0.027937 -0.0500784 -0.0603058 ) 40
( 0.0782557 -0.0900532 -0.0610832 ) 32
( 0.0623821 -0.00559234 -0.0513035 ) 59
( 0.0645118 -0.0902047 -0.0442229 ) 32
( 0.119648 -0.0595187 -0.0199506 ) 75
( 0.00971089 -0.0236658 -0.0203606 ) 80
( 0.117991 -0.00259585 -0.0328438 ) 93
( 0.0111347 -0.0824403 -0.0584836 ) 30
( 0.220223 -0.0496537 -0.0320904 ) 78
( 0.00985693 -0.00303607 -0.0500956 ) 57
( 0.130957 -0.0422123 0.00674735 ) 118
( 0.110778 -0.0514194 -0.00408006 ) 108
( 0.126434 -0.0173117 0.0019969 ) 118
( 0.170614 -0.0738306 0.00153708 ) 102
( 0.0585579 -0.0722908 0.00050358 ) 98
( 0.039842 -0.0071221 -0.0191583 ) 90
( 0.226094 -0.0427475 -0.00190235 ) 122
( 0.134073 -0.0624301 0.0050943 ) 109
( 0.0217087 -0.0120785 0.00502374 ) 123
( 0.208309 -0.0191116 -0.0169206 ) 87
( 0.12497 0.00569318 0.00179316 ) 127
( 0.190815 -0.0340442 -0.0167185 ) 86
( 0.060815 -0.0107882 -0.00638856 ) 125
( 0.0199294 -0.0337164 0.00795137 ) 114
( 0.160025 -0.00404948 -0.0129145 ) 128
( 0.0827973 -0.00875834 0.00345632 ) 125
( 0.122448 -0.0127763 -0.0166722 ) 93
( 0.0561772 -0.0564952 0.0138372 ) 107
( 0.110716 -0.0357639 0.00805587 ) 117
( 0.163333 -0.0375564 0.013718 ) 119
( 0.239645 -0.0567006 0.000892906 ) 113
( 0.0910479 -0.0432672 0.000398261 ) 108
( 0.206464 -0.0618443 0.0115083 ) 112
( 0.205962 -0.0496789 -0.0038019 ) 112
( 0.143285 -0.0087154 -0.00351725 ) 128
( 0.150899 -0.0739309 0.0032999 ) 101
( 0.162088 -0.090184 0.00871769 ) 101
( 0.186464 -0.0488555 0.0119155 ) 111
( 0.228345 -0.0763562 0.00990346 ) 104
( 0.0354007 -0.0823344 -0.00152818 ) 97
( 0.235118 -0.0353277 0.0137253 ) 122
( 0.17701 -0.0174437 -0.010116 ) 120
( 0.0382204 -0.0335987 0.000360134 ) 115
( 0.219435 -0.0644103 -0.00282659 ) 112
( 0.0563445 -0.0208768 0.00994571 ) 116
( 0.221814 -0.0902066 -0.00238619 ) 103
( 0.026154 -0.0647082 -0.00193328 ) 105
( 0.214707 -0.0378706 -0.0169649 ) 87
( 0.0961462 -0.0239781 0.00128492 ) 117
( 0.169149 -0.0182494 0.00813979 ) 120
( 0.101158 -0.0713931 0.00560651 ) 108
( 0.150342 -0.0516236 0.00830184 ) 110
( 0.0562936 -0.0306544 -0.00718052 ) 116
( 0.238738 -0.074954 -0.00671827 ) 104
( 0.15847 -0.0399094 -0.00524568 ) 119
( 0.0789658 -0.0902135 -0.0177832 ) 64
( 0.213425 -0.0130402 0.00133051 ) 130
( 0.0715084 -0.0901431 0.000499409 ) 98
( 0.193708 -0.0129665 -0.000548321 ) 129
( 0.118266 -0.0309304 -0.00935855 ) 118
( 0.206285 -0.0784806 -0.00704849 ) 103
( 0.179464 -0.0810067 -0.0151535 ) 68
( 0.0951061 -0.0900918 0.0123985 ) 99
( 0.0740903 -0.0715331 -0.013383 ) 98
( 0.149223 -0.0902561 -0.00778714 ) 101
( 0.118282 -0.0902094 -0.00304553 ) 100
( 0.169421 -0.0540655 0.00339001 ) 111
( 0.0150923 -0.0902357 -0.00693113 ) 96
( 0.00982948 -0.0843248 0.0111194 ) 96
( 0.191167 -0.0682703 0.000659438 ) 111
( 0.184123 -0.0318183 0.00184024 ) 120
( 0.24749 -0.0414138 -0.00904111 ) 122
( 0.139296 -0.0238347 -0.0158713 ) 85
( 0.0098816 -0.0510391 0.0024266 ) 105
( 0.110015 -0.00689435 -0.00229886 ) 126
( 0.134752 -0.0900495 0.00825717 ) 100
( 0.0656362 -0.00338372 0.0119021 ) 125
( 0.0529518 -0.0901686 -0.00639836 ) 97
( 0.0710393 -0.0490239 0.00300537 ) 107
( 0.0423108 -0.0707056 0.0130212 ) 106
( 0.0181327 -0.00451747 -0.0129118 ) 123
( 0.230677 -0.0562148 -0.0166255 ) 79
( 0.0745621 -0.0288392 0.00459254 ) 116
( 0.185706 -0.0511359 -0.00780017 ) 111
( 0.203749 -0.0301979 -0.00111663 ) 121
( 0.160377 -0.0758103 -0.0153177 ) 67
( 0.133697 -0.0426387 -0.0127222 ) 118
( 0.0414405 -0.0134477 -0.000488155 ) 124
( 0.181726 -0.090291 0.0020205 ) 102
( 0.182143 0.00898226 -0.0387508 ) 95
( 0.08783 0.0117634 -0.0413147 ) 92
( 0.135607 0.0142201 -0.0561625 ) 61
( 0.0586526 0.00900407 -0.0244391 ) 91
( 0.00978753 0.0117497 -0.0205209 ) 89
( 0.0782083 0.00487804 -0.0572221 ) 59
( 0.124142 0.00379493 -0.0687548 ) 61
( 0.148178 0.013383 -0.031079 ) 94
( 0.0433176 0.0103505 -0.0368401 ) 90
( 0.113617 0.0110979 -0.0463085 ) 61
( 0.0549624 0.012115 -0.056318 ) 58
( 0.105524 -0.000596225 -0.0624027 ) 60
( 0.17716 0.00185806 -0.00489934 ) 129
( 0.0109926 0.010097 -0.000694992 ) 123
( 0.0869808 0.0111191 -0.00728106 ) 126
( 0.0435551 0.0110171 -0.0117302 ) 124
( 0.209616 0.00578013 -0.00265145 ) 130
( 0.0630622 0.00874787 -0.00501291 ) 125
( 0.100225 0.00416599 0.0121149 ) 126
( 0.146123 0.00882536 0.00514247 ) 128
( 0.107769 0.0126898 -0.00533886 ) 126
( 0.153268 0.0142596 -0.0120849 ) 128
( 0.166113 0.00118504 0.0115606 ) 128
( 0.0330763 0.00398247 0.00352886 ) 124
( 0.139933 -0.0676761 -0.055999 ) 44
( 0.0666074 -0.00904664 -0.0253675 ) 91
( 0.00997775 -0.0901605 -0.0403196 ) 62
( 0.0479131 -0.048676 -0.0281622 ) 72
( 0.0789995 -0.00609605 -0.0406229 ) 91
( 0.0822304 -0.0656279 0.0034987 ) 107
( 0.00987391 0.0086697 -0.0662044 ) 57
( 0.235244 0.00625334 -0.0136989 ) 131
( 0.153896 -0.037275 -0.0698936 ) 53
( 0.163271 -0.0902073 -0.0611671 ) 35
( 0.0435875 -0.00573684 -0.0574174 ) 58
( 0.125155 -0.0902151 -0.0405307 ) 66
( 0.0244208 0.00537039 -0.0342612 ) 89
( 0.0931381 -0.0710174 -0.0300261 ) 74
( 0.0736487 -0.0236191 -0.0141525 ) 116
( 0.105688 0.01163 -0.0265101 ) 92
( 0.0274902 0.00521072 -0.0537826 ) 57
( 0.0492193 -0.0617642 -0.0131632 ) 106
( 0.249105 -0.0474212 -0.0551323 ) 47
( 0.0973417 -0.00482394 -0.0333412 ) 92
( 0.0997058 -0.0901045 -0.0544793 ) 33
( 0.150322 -0.0251332 0.00490606 ) 119
( 0.173792 -0.00468794 -0.0269641 ) 95
( 0.218587 -0.0436772 -0.0532405 ) 46
( 0.192474 0.00532221 0.00723531 ) 129
( 0.231593 -0.0204254 0.00179426 ) 122
( 0.135681 0.00155216 -0.0408142 ) 93
( 0.0973526 -0.0636049 -0.0121653 ) 108
( 0.0603321 -0.0898029 -0.0247799 ) 64
( 0.213037 -0.0655523 -0.0212839 ) 78
( 0.191842 -0.00846485 -0.0199269 ) 95
( 0.151793 -0.0589181 -0.00983891 ) 110
( 0.0785655 0.00672469 -0.0245935 ) 91
( 0.027098 -0.0902294 -0.0226138 ) 62
( 0.193031 -0.0685246 -0.0221383 ) 77
( 0.126683 0.0130564 -0.0244628 ) 93
( 0.109434 -0.0428181 -0.0222886 ) 83
( 0.103436 -0.0209115 -0.0177826 ) 83
( 0.159115 -0.0233787 -0.0160142 ) 85
( 0.15941 -0.0718958 -0.0545052 ) 35
( 0.00982924 -0.0632479 -0.0130998 ) 105
( 0.0628976 -0.0475463 -0.0150734 ) 73
( 0.0270416 -0.02209 -0.0110325 ) 114
( 0.170707 -0.0386537 -0.0206017 ) 86
( 0.139327 -0.0018361 -0.021543 ) 94
( 0.236452 -0.0901195 -0.0193168 ) 70
( 0.118471 -0.0704446 -0.00357875 ) 109
( 0.0897161 -0.00689304 -0.0150631 ) 92
( 0.232766 -0.0298214 -0.015463 ) 88
( 0.0343292 -0.0492156 -0.0109018 ) 106
( 0.010656 -0.0426969 -0.0151884 ) 80
( 0.136511 -0.075038 -0.0102314 ) 100
( 0.19342 0.00993363 -0.0128186 ) 129
( 0.0988554 -0.0892142 -0.00707873 ) 99
( 0.037561 -0.0518965 0.00857477 ) 106
( 0.144122 -0.0614913 -0.0769028 ) 14
( 0.173317 -0.0449961 -0.0780587 ) 15
( 0.0859143 -0.0736431 -0.0694836 ) 33
( 0.00990961 -0.0445367 -0.073421 ) 9
( 0.0408162 -0.0585598 -0.0740778 ) 10
( 0.0559813 -0.072641 -0.0723766 ) 2
( 0.0673857 -0.0441257 -0.0754675 ) 11
( 0.0422336 -0.0901746 -0.0747628 ) 1
( 0.205295 -0.0901729 -0.0779849 ) 7
( 0.244593 -0.0533337 -0.079723 ) 17
( 0.224734 -0.0236579 -0.0754362 ) 26
( 0.0774957 -0.0263748 -0.079444 ) 20
( 0.223848 -0.0831418 -0.0788028 ) 8
( 0.0215739 -0.0742349 -0.0732913 ) 0
( 0.085452 -0.050939 -0.0800263 ) 12
( 0.109178 -0.0280066 -0.07991 ) 21
( 0.209886 -0.0448948 -0.0810941 ) 16
( 0.192401 -0.061228 -0.077227 ) 15
( 0.172132 -0.0899043 -0.0789721 ) 6
( 0.128702 -0.0315793 -0.080649 ) 22
( 0.0433048 -0.0193059 -0.0719625 ) 19
( 0.134324 -0.0878896 -0.0802293 ) 4
( 0.0334467 -0.0404102 -0.0775103 ) 19
( 0.112502 -0.0592842 -0.0814542 ) 13
( 0.0701461 -0.0897796 -0.0792878 ) 2
( 0.0220798 -0.0241987 -0.0793247 ) 18
( 0.0959805 -0.0901342 -0.0744147 ) 3
( 0.188915 -0.0799716 -0.0829919 ) 6
( 0.16132 -0.0710983 -0.0827035 ) 14
( 0.206449 -0.0209754 -0.0842792 ) 25
( 0.159329 -0.0247942 -0.0844571 ) 23
( 0.0722401 -0.0658455 -0.0817298 ) 11
( 0.022916 -0.0565828 -0.0824856 ) 9
( 0.0578831 -0.0279714 -0.0823517 ) 20
( 0.0343567 0.000879085 -0.0737476 ) 28
( 0.054526 -0.00841365 -0.0842927 ) 28
( 0.218713 -0.0632136 -0.0831277 ) 16
( 0.113495 -0.0855019 -0.0828401 ) 4
( 0.144364 -0.0437895 -0.086135 ) 14
( 0.241965 -0.0208231 -0.085092 ) 26
( 0.00995579 -0.0900472 -0.0768377 ) 0
( 0.0949134 -0.0674421 -0.0861322 ) 12
( 0.228361 -0.0391874 -0.0874421 ) 26
( 0.0616066 0.0098475 -0.0878108 ) 29
( 0.0371676 -0.0743134 -0.0857342 ) 1
( 0.153405 -0.0900604 -0.085744 ) 5
( 0.0506706 -0.0461619 -0.0860884 ) 10
( 0.00989354 -0.00186878 -0.0831799 ) 27
( 0.191382 -0.0449229 -0.0886663 ) 15
( 0.0350713 -0.0122909 -0.0887035 ) 28
( 0.00989946 -0.0702243 -0.0888854 ) 9
( 0.0928266 -0.034758 -0.0890502 ) 21
)
