/*--------------------------------*- C++ -*----------------------------------*\
| =========                 |                                                 |
| \\      /  F ield         | OpenFOAM: The Open Source CFD Toolbox           |
|  \\    /   O peration     | Version:  4.x                                   |
|   \\  /    A nd           | Web:      www.OpenFOAM.org                      |
|    \\/     M anipulation  |                                                 |
\*---------------------------------------------------------------------------*/
FoamFile
{
    version     2.0;
    format      ascii;
    class       volScalarField;
    location    "36";
    object      magGField;
}
// * * * * * * * * * * * * * * * * * * * * * * * * * * * * * * * * * * * * * //

dimensions      [1 -2 -1 0 0 0 0];

internalField   nonuniform List<scalar> 
132
(
100.188
49.1626
110.542
65.5506
119.898
77.6317
127.572
86.7752
135.948
100.647
46.4031
107.927
58.7384
115.335
68.2327
121.333
75.3786
126.977
101.24
44.7999
106.3
54.8756
111.385
62.3702
116.031
66.8425
118.115
100.938
44.8201
106.638
99.1367
42.4971
102.74
48.9784
106.444
53.9929
109.94
57.23
113.051
98.8814
37.6842
99.9011
38.5799
100.215
37.4355
100.953
35.1511
102.085
98.0105
34.4896
97.7106
31.7982
96.3446
26.8752
95.2538
20.1441
95.4703
97.0954
34.9568
97.3468
32.0048
95.8899
97.3253
41.1278
99.8181
45.7419
102.96
49.8813
106.2
52.4908
109.929
96.7887
35.5638
96.5102
33.3719
96.0084
30.2428
96.3416
26.4883
97.9447
95.6678
31.958
93.6729
23.6223
91.6039
16.6439
91.3589
12.8411
92.3149
95.1967
29.9105
92.2562
19.695
90.1455
12.0314
89.7508
97.0194
40.6732
98.8113
43.8635
100.291
45.1076
101.412
44.8812
101.731
96.0241
33.1888
93.8657
27.5139
92.2961
21.8797
90.8037
14.5607
90.0156
95.1646
29.6033
90.4774
16.9671
86.8594
5.89913
84.4321
3.66347e-05
81.9853
94.8866
28.7786
89.5619
15.1093
86.9149
5.24255
85.5399
0.073379
84.9366
)
;

boundaryField
{
    inlet
    {
        type            calculated;
        value           uniform 67;
    }
    outlet
    {
        type            calculated;
        value           nonuniform 0();
    }
    wall
    {
        type            calculated;
        value           uniform 0;
    }
    procBoundary0to1
    {
        type            processor;
        value           nonuniform List<scalar> 
12
(
93.2706
79.7907
67.6701
58.5348
32.6066
11.778
53.5246
24.8469
10.074
39.9453
5.76034
3.52892e-05
)
;
    }
    procBoundary0to2
    {
        type            processor;
        value           nonuniform List<scalar> 
44
(
55.0137
111.379
63.2497
116.404
68.2873
121.162
98.9656
42.3014
55.0137
103.556
55.0137
111.379
26.5077
95.4313
22.1201
97.2943
97.4569
34.6462
96.528
30.1576
26.5077
95.1404
26.5077
95.4313
7.86578
89.819
95.5148
32.734
93.0847
24.6909
91.103
17.171
7.86578
89.7652
7.86578
89.819
94.6869
29.4628
90.3041
19.4986
87.9702
11.8474
86.5183
5.48255
)
;
    }
    procBoundary0to4
    {
        type            processor;
        value           nonuniform List<scalar> 
36
(
96.1347
41.089
97.4961
43.8108
99.3121
45.6811
100.938
46.1807
102.78
94.5022
33.5158
92.2981
26.3368
90.9441
21.397
91.1602
16.7058
91.53
94.1908
30.0512
89.8011
19.4732
87.8784
12.0064
87.5164
4.85448
87.7362
94.2433
29.6335
88.6993
17.3889
85.7722
7.0565
84.4252
0.275758
84.7493
)
;
    }
    procBoundary0to6
    {
        type            processor;
        value           uniform 85.4653;
    }
    procBoundary0to7
    {
        type            processor;
        value           uniform 3.59329e-05;
    }
}


// ************************************************************************* //
