/*--------------------------------*- C++ -*----------------------------------*\
| =========                 |                                                 |
| \\      /  F ield         | OpenFOAM: The Open Source CFD Toolbox           |
|  \\    /   O peration     | Version:  4.x                                   |
|   \\  /    A nd           | Web:      www.OpenFOAM.org                      |
|    \\/     M anipulation  |                                                 |
\*---------------------------------------------------------------------------*/
FoamFile
{
    version     2.0;
    format      ascii;
    class       volVectorField;
    location    "36";
    object      UsNext;
}
// * * * * * * * * * * * * * * * * * * * * * * * * * * * * * * * * * * * * * //

dimensions      [0 1 -1 0 0 0 0];

internalField   nonuniform List<vector> 
132
(
(-3.41061e-10 1.89051e-10 3.66427e-10)
(-4.68695e-10 5.54831e-10 9.21405e-10)
(3.68571e-09 7.15998e-09 1.98074e-09)
(1.23779e-09 -4.2587e-10 1.00838e-10)
(-1.6739e-09 4.92926e-10 6.86143e-10)
(-1.53623e-09 -2.58979e-10 1.40964e-09)
(-1.69038e-09 1.23323e-10 1.77157e-09)
(-2.13352e-09 -3.64521e-12 4.7081e-10)
(-2.31185e-09 -2.90243e-10 7.12449e-10)
(-9.31864e-11 6.89376e-11 3.75791e-10)
(-3.63043e-10 7.03235e-10 1.11276e-09)
(1.37311e-09 2.81298e-10 9.87488e-10)
(5.18324e-10 -1.86257e-09 1.09707e-09)
(-5.95957e-10 -1.81978e-09 1.58765e-09)
(-1.4703e-09 -1.5516e-09 2.15914e-09)
(-1.7867e-09 -1.18348e-09 3.024e-09)
(-1.43791e-09 -1.86939e-09 3.25608e-09)
(-4.01931e-10 -4.15753e-09 4.30051e-09)
(-2.42103e-10 3.03919e-10 6.73421e-10)
(-1.13973e-10 1.61028e-10 1.31364e-09)
(3.25817e-11 1.18669e-11 1.65164e-09)
(-5.22723e-10 -1.10033e-09 2.05197e-09)
(-8.83126e-10 -1.83387e-09 2.26098e-09)
(-1.99989e-09 -1.28705e-09 3.02296e-09)
(-1.90846e-09 -1.51709e-09 3.49901e-09)
(-2.82733e-09 -2.51672e-09 3.57636e-09)
(-2.46532e-09 -2.93316e-09 2.72503e-09)
(2.47025e-10 8.20467e-11 6.42786e-10)
(1.70437e-12 -2.93e-10 1.2875e-09)
(-6.91992e-10 -5.27749e-10 1.69413e-09)
(-1.3579e-10 1.37454e-10 7.58587e-10)
(-1.5956e-10 2.66923e-10 1.56722e-09)
(9.27146e-10 2.41552e-10 1.9915e-09)
(1.25289e-09 -3.49001e-10 -2.49617e-10)
(-3.9512e-10 -4.02585e-10 5.41248e-10)
(-8.94716e-10 -6.90564e-10 1.41314e-09)
(-1.20316e-09 -5.22662e-10 1.68766e-09)
(-8.78711e-10 -3.40769e-10 2.40183e-10)
(-2.94397e-09 -2.00095e-09 4.20062e-09)
(7.15415e-11 8.64799e-11 7.72894e-10)
(2.27425e-10 2.884e-10 1.57247e-09)
(1.35122e-09 -3.36026e-10 2.29347e-09)
(6.49714e-10 -8.56515e-10 1.16247e-09)
(-5.0944e-10 -1.49301e-09 1.57884e-09)
(-1.19086e-09 -1.44128e-09 2.11521e-09)
(-1.22704e-09 -1.29122e-09 2.90234e-09)
(-1.46672e-09 -1.87584e-09 3.2181e-09)
(-2.68042e-09 -6.24734e-10 6.00813e-09)
(5.03034e-12 4.75579e-11 8.60378e-10)
(1.27137e-10 4.04278e-11 1.60772e-09)
(2.7674e-10 -4.51505e-10 1.97421e-09)
(6.22857e-11 -1.24776e-09 2.20177e-09)
(-6.68235e-10 -1.68399e-09 2.46767e-09)
(-1.53661e-09 -1.86544e-09 2.89044e-09)
(-1.44514e-09 -1.63561e-09 3.71773e-09)
(-1.4115e-09 -2.08897e-09 3.8583e-09)
(-1.1156e-09 -1.59745e-09 3.74819e-09)
(6.18768e-11 -1.81664e-11 8.78031e-10)
(-7.12611e-11 -2.70707e-10 1.54852e-09)
(1.3268e-10 -5.06314e-10 2.09142e-09)
(-4.17788e-10 -1.50376e-09 2.60456e-09)
(-1.02572e-09 -1.72663e-09 2.87022e-09)
(6.74072e-11 2.5275e-11 6.91215e-10)
(5.82871e-11 3.06056e-11 1.13823e-09)
(4.19104e-10 -1.77249e-10 1.23938e-09)
(3.2703e-10 -2.29571e-10 7.51517e-10)
(1.35919e-10 -2.18201e-10 5.96215e-10)
(-1.49562e-10 -1.9502e-11 1.43346e-09)
(-5.30898e-10 -2.92385e-10 1.66508e-09)
(-2.45703e-10 -1.77985e-10 1.26573e-09)
(-1.6945e-09 -9.97353e-10 5.31346e-09)
(1.08128e-10 6.42605e-11 8.71579e-10)
(2.29721e-10 -1.28757e-11 1.43266e-09)
(5.58287e-10 -3.92884e-10 1.84283e-09)
(7.47982e-10 -4.66174e-10 1.71678e-09)
(2.56679e-10 -6.45443e-10 1.60008e-09)
(3.4134e-11 -9.7877e-10 2.31413e-09)
(8.64942e-12 -1.00791e-09 2.67449e-09)
(-1.48065e-10 -1.57995e-09 2.91058e-09)
(-2.27219e-09 1.25434e-09 6.09625e-09)
(2.87178e-12 5.71837e-11 8.2336e-10)
(3.04747e-10 -9.51754e-11 1.5125e-09)
(6.43655e-10 -5.11204e-10 1.90037e-09)
(8.77428e-10 -6.99833e-10 1.98593e-09)
(3.27954e-10 -1.18878e-09 2.29297e-09)
(7.93124e-10 -1.00042e-09 2.95319e-09)
(7.78524e-10 -1.40814e-09 3.0978e-09)
(3.23263e-10 -1.20417e-09 3.57622e-09)
(-7.50494e-10 9.30811e-10 4.72302e-09)
(-5.44069e-11 -2.51643e-10 8.51361e-10)
(3.19326e-10 -8.33216e-10 1.5885e-09)
(5.7661e-10 -1.15817e-09 1.82169e-09)
(5.87044e-10 -1.42723e-09 2.34325e-09)
(1.11932e-10 -2.07359e-09 2.87236e-09)
(-4.24806e-10 -1.9111e-09 3.19152e-09)
(7.58347e-10 -2.53782e-09 3.02301e-09)
(1.43856e-10 8.81039e-12 4.55872e-10)
(7.87289e-11 -6.20895e-11 7.48366e-10)
(2.87673e-10 -2.48278e-10 8.16871e-10)
(2.71686e-10 3.9303e-12 7.06276e-10)
(2.33964e-10 -1.49028e-10 6.29068e-10)
(-6.44728e-11 9.42e-14 1.08854e-09)
(-2.1076e-10 -5.40819e-11 1.39087e-09)
(-2.67918e-10 -3.22345e-10 1.89515e-09)
(-2.68036e-10 -5.49089e-10 3.82892e-09)
(1.22764e-10 -7.18344e-11 5.74195e-10)
(1.49708e-10 -8.08713e-11 9.52315e-10)
(5.2589e-10 -2.55761e-10 1.23429e-09)
(7.10682e-10 -2.77098e-10 1.42352e-09)
(5.31979e-10 -2.70617e-10 1.45215e-09)
(3.16773e-10 -1.41436e-10 1.80572e-09)
(3.5774e-10 -1.13868e-10 2.06526e-09)
(6.10421e-11 -8.23244e-10 2.25597e-09)
(-2.8416e-10 -4.14341e-11 2.98986e-09)
(2.04584e-10 8.48903e-12 1.02771e-09)
(3.3447e-10 -1.97112e-10 1.19324e-09)
(8.81626e-10 -3.66622e-10 1.47719e-09)
(9.93804e-10 -2.58975e-10 1.69998e-09)
(1.08464e-09 -6.84432e-10 1.97311e-09)
(1.00517e-09 -3.83797e-10 2.25546e-09)
(1.22638e-09 -5.6763e-10 2.31602e-09)
(1.12614e-09 -9.54587e-10 2.8918e-09)
(6.40322e-10 4.19089e-10 3.36758e-09)
(9.29779e-11 -1.98726e-10 8.09424e-10)
(3.14414e-10 -5.85564e-10 1.15247e-09)
(9.49391e-10 -7.30091e-10 1.27961e-09)
(9.47756e-10 -1.10446e-09 1.59765e-09)
(1.44588e-09 -1.26248e-09 1.81824e-09)
(6.59786e-10 -1.27197e-09 2.62029e-09)
(1.20098e-09 -1.56572e-09 2.65558e-09)
(9.96064e-10 -1.31815e-09 2.43498e-09)
(3.78478e-10 -2.13747e-09 3.09794e-09)
)
;

boundaryField
{
    inlet
    {
        type            calculated;
        value           nonuniform List<vector> 
16
(
(-3.41061e-10 1.89051e-10 3.66427e-10)
(-9.31864e-11 6.89376e-11 3.75791e-10)
(-2.42103e-10 3.03919e-10 6.73421e-10)
(2.47025e-10 8.20467e-11 6.42786e-10)
(-1.3579e-10 1.37454e-10 7.58587e-10)
(7.15415e-11 8.64799e-11 7.72894e-10)
(5.03034e-12 4.75579e-11 8.60378e-10)
(6.18768e-11 -1.81664e-11 8.78031e-10)
(6.74072e-11 2.5275e-11 6.91215e-10)
(1.08128e-10 6.42605e-11 8.71579e-10)
(2.87178e-12 5.71837e-11 8.2336e-10)
(-5.44069e-11 -2.51643e-10 8.51361e-10)
(1.43856e-10 8.81039e-12 4.55872e-10)
(1.22764e-10 -7.18344e-11 5.74195e-10)
(2.04584e-10 8.48903e-12 1.02771e-09)
(9.29779e-11 -1.98726e-10 8.09424e-10)
)
;
    }
    outlet
    {
        type            calculated;
        value           nonuniform 0();
    }
    wall
    {
        type            calculated;
        value           nonuniform List<vector> 
66
(
(-3.41061e-10 1.89051e-10 3.66427e-10)
(-9.31864e-11 6.89376e-11 3.75791e-10)
(-2.42103e-10 3.03919e-10 6.73421e-10)
(2.47025e-10 8.20467e-11 6.42786e-10)
(-4.68695e-10 5.54831e-10 9.21405e-10)
(-3.63043e-10 7.03235e-10 1.11276e-09)
(-1.13973e-10 1.61028e-10 1.31364e-09)
(1.70437e-12 -2.93e-10 1.2875e-09)
(3.68571e-09 7.15998e-09 1.98074e-09)
(1.37311e-09 2.81298e-10 9.87488e-10)
(3.25817e-11 1.18669e-11 1.65164e-09)
(-6.91992e-10 -5.27749e-10 1.69413e-09)
(1.23779e-09 -4.2587e-10 1.00838e-10)
(5.18324e-10 -1.86257e-09 1.09707e-09)
(-5.22723e-10 -1.10033e-09 2.05197e-09)
(-1.6739e-09 4.92926e-10 6.86143e-10)
(-5.95957e-10 -1.81978e-09 1.58765e-09)
(-8.83126e-10 -1.83387e-09 2.26098e-09)
(-1.53623e-09 -2.58979e-10 1.40964e-09)
(-1.4703e-09 -1.5516e-09 2.15914e-09)
(-1.99989e-09 -1.28705e-09 3.02296e-09)
(-1.69038e-09 1.23323e-10 1.77157e-09)
(-1.7867e-09 -1.18348e-09 3.024e-09)
(-1.90846e-09 -1.51709e-09 3.49901e-09)
(-2.13352e-09 -3.64521e-12 4.7081e-10)
(-1.43791e-09 -1.86939e-09 3.25608e-09)
(-2.82733e-09 -2.51672e-09 3.57636e-09)
(-2.31185e-09 -2.90243e-10 7.12449e-10)
(-4.01931e-10 -4.15753e-09 4.30051e-09)
(-2.46532e-09 -2.93316e-09 2.72503e-09)
(-3.41061e-10 1.89051e-10 3.66427e-10)
(-1.3579e-10 1.37454e-10 7.58587e-10)
(6.74072e-11 2.5275e-11 6.91215e-10)
(1.43856e-10 8.81039e-12 4.55872e-10)
(-4.68695e-10 5.54831e-10 9.21405e-10)
(-1.5956e-10 2.66923e-10 1.56722e-09)
(5.82871e-11 3.06056e-11 1.13823e-09)
(7.87289e-11 -6.20895e-11 7.48366e-10)
(3.68571e-09 7.15998e-09 1.98074e-09)
(9.27146e-10 2.41552e-10 1.9915e-09)
(4.19104e-10 -1.77249e-10 1.23938e-09)
(2.87673e-10 -2.48278e-10 8.16871e-10)
(1.23779e-09 -4.2587e-10 1.00838e-10)
(1.25289e-09 -3.49001e-10 -2.49617e-10)
(3.2703e-10 -2.29571e-10 7.51517e-10)
(2.71686e-10 3.9303e-12 7.06276e-10)
(-1.6739e-09 4.92926e-10 6.86143e-10)
(-3.9512e-10 -4.02585e-10 5.41248e-10)
(1.35919e-10 -2.18201e-10 5.96215e-10)
(2.33964e-10 -1.49028e-10 6.29068e-10)
(-1.53623e-09 -2.58979e-10 1.40964e-09)
(-8.94716e-10 -6.90564e-10 1.41314e-09)
(-1.49562e-10 -1.9502e-11 1.43346e-09)
(-6.44728e-11 9.42e-14 1.08854e-09)
(-1.69038e-09 1.23323e-10 1.77157e-09)
(-1.20316e-09 -5.22662e-10 1.68766e-09)
(-5.30898e-10 -2.92385e-10 1.66508e-09)
(-2.1076e-10 -5.40819e-11 1.39087e-09)
(-2.13352e-09 -3.64521e-12 4.7081e-10)
(-8.78711e-10 -3.40769e-10 2.40183e-10)
(-2.45703e-10 -1.77985e-10 1.26573e-09)
(-2.67918e-10 -3.22345e-10 1.89515e-09)
(-2.31185e-09 -2.90243e-10 7.12449e-10)
(-2.94397e-09 -2.00095e-09 4.20062e-09)
(-1.6945e-09 -9.97353e-10 5.31346e-09)
(-2.68036e-10 -5.49089e-10 3.82892e-09)
)
;
    }
    procBoundary0to1
    {
        type            processor;
        value           nonuniform List<vector> 
12
(
(8.40022e-09 8.664e-09 2.9748e-08)
(-1.5769e-10 -7.35138e-09 1.23167e-08)
(1.36372e-10 -7.20041e-09 6.07727e-09)
(-8.33674e-09 5.46306e-09 1.98149e-08)
(-6.18716e-09 -2.63444e-10 1.38863e-08)
(-7.71365e-10 -2.0717e-09 5.57492e-09)
(-1.59424e-09 9.08761e-11 3.91829e-09)
(-1.19398e-09 1.04749e-10 5.9359e-09)
(1.3157e-09 -1.53936e-10 4.4042e-09)
(-1.50134e-10 3.53479e-11 2.42998e-09)
(1.93883e-12 -1.80085e-10 2.58651e-09)
(1.49077e-09 -7.51299e-10 2.92701e-09)
)
;
    }
    procBoundary0to2
    {
        type            processor;
        value           nonuniform List<vector> 
44
(
(-7.18714e-10 -1.3765e-09 2.17187e-09)
(-7.42469e-10 -1.75326e-09 2.51551e-09)
(-2.38815e-09 -2.69832e-09 3.75848e-09)
(-1.98742e-09 -3.18177e-09 4.0835e-09)
(-1.47972e-09 -4.1726e-09 3.73896e-09)
(-1.38899e-09 -4.69806e-09 3.26522e-09)
(6.80101e-10 -3.97604e-10 4.20607e-10)
(-2.94647e-10 -4.80574e-10 1.29896e-09)
(-7.18714e-10 -1.3765e-09 2.17187e-09)
(-1.16849e-09 -8.1182e-10 1.88272e-09)
(-7.18714e-10 -1.3765e-09 2.17187e-09)
(-7.42469e-10 -1.75326e-09 2.51551e-09)
(-8.47325e-10 -2.39423e-09 3.82293e-09)
(-1.37666e-09 -2.86809e-09 4.37333e-09)
(-1.68297e-09 -3.22348e-09 3.9918e-09)
(-1.05232e-09 -3.68713e-09 3.40889e-09)
(-1.139e-10 -1.60612e-10 4.38268e-10)
(-4.99386e-10 -4.26728e-10 1.27436e-09)
(-1.05748e-09 -7.13947e-10 1.96507e-09)
(-1.65697e-09 -1.24296e-09 2.2713e-09)
(-8.47325e-10 -2.39423e-09 3.82293e-09)
(-2.48243e-09 -1.59485e-09 2.51836e-09)
(-8.47325e-10 -2.39423e-09 3.82293e-09)
(-1.37666e-09 -2.86809e-09 4.37333e-09)
(1.04222e-10 -2.43505e-09 3.55068e-09)
(1.31704e-10 -2.72632e-09 3.29436e-09)
(-5.48158e-11 -4.72275e-10 5.82832e-10)
(-4.3805e-10 -4.85039e-10 1.215e-09)
(-8.94166e-10 -6.20746e-10 1.80376e-09)
(-1.30914e-09 -1.11804e-09 2.19358e-09)
(-1.97679e-09 -1.66238e-09 2.60895e-09)
(-2.54034e-09 -2.41424e-09 2.88525e-09)
(1.04222e-10 -2.43505e-09 3.55068e-09)
(-2.95124e-09 -2.40521e-09 2.6479e-09)
(1.04222e-10 -2.43505e-09 3.55068e-09)
(1.31704e-10 -2.72632e-09 3.29436e-09)
(-1.21669e-11 -2.96966e-10 3.82952e-10)
(-1.14169e-10 -6.83294e-10 1.0396e-09)
(-3.90395e-10 -7.48484e-10 1.57642e-09)
(-7.04183e-10 -1.03862e-09 1.80744e-09)
(-1.12832e-09 -1.0975e-09 2.24493e-09)
(-9.76428e-10 -1.31632e-09 2.0673e-09)
(-1.32031e-09 -1.91798e-09 2.49496e-09)
(-7.71831e-10 -2.24126e-09 2.44491e-09)
)
;
    }
    procBoundary0to4
    {
        type            processor;
        value           nonuniform List<vector> 
36
(
(3.61738e-11 2.47364e-11 2.74864e-10)
(1.36721e-10 2.27704e-11 3.67775e-10)
(2.96504e-10 -3.27013e-11 4.77541e-10)
(3.58181e-10 -7.20659e-12 6.62806e-10)
(3.59945e-10 1.39867e-10 8.02464e-10)
(1.22664e-10 -1.27355e-11 7.37726e-10)
(3.64925e-11 -1.78953e-10 1.09205e-09)
(-2.20526e-10 -3.93527e-11 1.22827e-09)
(-7.84877e-10 -2.33563e-11 1.4763e-09)
(7.20893e-11 -2.66057e-11 4.31584e-10)
(3.47299e-10 -2.8539e-10 4.92603e-10)
(4.74717e-10 -2.05834e-10 8.28345e-10)
(6.89819e-10 -2.47234e-10 1.1113e-09)
(6.92915e-10 -1.24371e-10 1.30355e-09)
(7.25887e-10 -2.82788e-10 1.25644e-09)
(5.31307e-10 -2.99227e-10 1.53965e-09)
(2.29605e-10 -3.15155e-10 1.85922e-09)
(-3.78765e-10 2.39344e-11 2.34999e-09)
(6.94577e-11 -2.89204e-11 5.16717e-10)
(3.76552e-10 -1.92098e-10 8.46396e-10)
(6.7659e-10 -2.66194e-10 1.153e-09)
(9.37725e-10 -3.87723e-10 1.36772e-09)
(9.92541e-10 -3.50572e-10 1.70538e-09)
(1.10633e-09 -4.96615e-10 1.67702e-09)
(9.76352e-10 -3.69918e-10 1.80592e-09)
(1.01471e-09 -6.18181e-10 2.0988e-09)
(1.50852e-09 -8.61273e-10 2.00301e-09)
(4.11683e-11 -2.6459e-10 4.9422e-10)
(2.11791e-10 -5.91439e-10 7.51286e-10)
(2.29595e-10 -7.17651e-10 1.14638e-09)
(5.05828e-10 -7.76595e-10 9.75944e-10)
(8.30492e-10 -9.40198e-10 1.61647e-09)
(6.51715e-10 -8.90899e-10 1.76217e-09)
(9.47525e-10 -7.76274e-10 1.63747e-09)
(9.86468e-10 -1.61909e-09 1.44345e-09)
(1.28816e-09 -1.76426e-09 1.12628e-09)
)
;
    }
    procBoundary0to6
    {
        type            processor;
        value           uniform (-5.10278e-10 -1.55842e-09 1.87322e-09);
    }
    procBoundary0to7
    {
        type            processor;
        value           uniform (1.82311e-09 -2.29688e-09 1.74081e-09);
    }
}


// ************************************************************************* //
