/*--------------------------------*- C++ -*----------------------------------*\
| =========                 |                                                 |
| \\      /  F ield         | OpenFOAM: The Open Source CFD Toolbox           |
|  \\    /   O peration     | Version:  4.x                                   |
|   \\  /    A nd           | Web:      www.OpenFOAM.org                      |
|    \\/     M anipulation  |                                                 |
\*---------------------------------------------------------------------------*/
FoamFile
{
    version     2.0;
    format      ascii;
    class       volVectorField;
    location    "58.5";
    object      DDtUrel;
}
// * * * * * * * * * * * * * * * * * * * * * * * * * * * * * * * * * * * * * //

dimensions      [0 1 -2 0 0 0 0];

internalField   nonuniform List<vector> 
87
(
(3.74745e-05 -8.28783e-06 8.93669e-06)
(8.66474e-05 -2.33337e-05 1.19121e-05)
(5.64933e-05 -1.70039e-05 4.53705e-06)
(0.000129839 -2.84871e-05 8.79781e-06)
(0.000106306 -3.24688e-05 7.586e-06)
(6.77299e-05 -3.01097e-05 5.3627e-07)
(0.00161361 3.41763e-05 -6.46128e-05)
(0.000909386 1.46305e-05 -3.31274e-05)
(0.000520948 2.5294e-06 -1.62829e-05)
(0.000300872 -6.0339e-06 -2.82114e-06)
(0.000181178 -7.38656e-06 2.86402e-06)
(0.000106628 -1.08978e-05 5.67589e-06)
(6.7905e-05 -1.00399e-05 5.15093e-06)
(4.05223e-05 -1.13507e-05 3.71138e-06)
(2.23441e-05 -9.54979e-06 2.02953e-06)
(0.00165709 8.36711e-05 -6.67095e-05)
(0.000958369 3.13572e-05 -3.69158e-05)
(0.000558975 5.68424e-06 -1.97478e-05)
(0.000333499 -1.22912e-05 -6.02006e-06)
(0.000200949 -1.43918e-05 9.12577e-07)
(0.000125006 -2.26043e-05 4.10091e-06)
(7.68366e-05 -2.01954e-05 4.07842e-06)
(5.05128e-05 -2.45719e-05 3.13759e-06)
(2.59183e-05 -1.95398e-05 8.60518e-07)
(0.0017121 7.76443e-05 -7.02358e-05)
(0.00101726 3.44147e-05 -4.04245e-05)
(0.00060975 5.61104e-06 -2.39673e-05)
(0.000374558 -1.1758e-05 -8.86016e-06)
(0.000229 -1.71821e-05 -1.20087e-06)
(0.000145854 -2.31518e-05 3.34292e-06)
(8.49623e-05 -2.63393e-05 1.50921e-06)
(5.44346e-05 -3.38792e-05 1.91826e-06)
(1.91257e-05 -2.85189e-05 -9.95623e-07)
(0.00164754 4.03561e-05 6.2677e-06)
(0.000944075 1.55918e-05 -6.39973e-06)
(0.000543622 1.61555e-06 -7.74895e-06)
(0.0003207 -7.74346e-06 -7.0933e-06)
(0.000188596 -9.88055e-06 -3.73356e-06)
(0.00011488 -1.34104e-05 -6.21821e-06)
(6.71881e-05 -1.23403e-05 -2.67654e-06)
(4.25889e-05 -1.35064e-05 -5.39002e-06)
(1.90429e-05 -1.16303e-05 -6.14522e-06)
(0.00169157 8.23535e-05 2.47147e-07)
(0.000992397 3.10138e-05 -9.09728e-06)
(0.000586096 4.20027e-06 -1.09972e-05)
(0.000355964 -1.09791e-05 -7.75227e-06)
(0.000213876 -1.43252e-05 -4.87507e-06)
(0.000133377 -2.04301e-05 -4.78291e-06)
(7.80611e-05 -2.10411e-05 -4.67549e-06)
(5.48534e-05 -2.41372e-05 -7.99497e-06)
(2.49848e-05 -2.06424e-05 -7.37963e-06)
(0.00174083 7.3732e-05 -8.35801e-06)
(0.00104882 3.21148e-05 -1.26954e-05)
(0.000637017 4.87931e-06 -1.19826e-05)
(0.000398986 -1.10811e-05 -7.99426e-06)
(0.00024796 -1.66648e-05 -6.87862e-06)
(0.000160108 -2.21679e-05 -5.51881e-06)
(9.66884e-05 -2.6096e-05 -5.86132e-06)
(6.65139e-05 -3.04458e-05 -5.93537e-06)
(3.27627e-05 -3.03127e-05 -6.80068e-06)
(0.00169585 3.7122e-05 2.44383e-05)
(0.000994215 1.15328e-05 3.92383e-06)
(0.000586207 -8.69715e-07 -4.8728e-06)
(0.000357014 -1.0544e-05 -6.05513e-06)
(0.000215091 -1.33043e-05 -4.85095e-06)
(0.000136408 -1.71773e-05 -5.40487e-06)
(7.85852e-05 -1.64088e-05 -5.47044e-06)
(5.48039e-05 -1.60923e-05 -9.77745e-06)
(2.16133e-05 -1.52214e-05 -1.24432e-05)
(0.00173471 7.35572e-05 1.47092e-05)
(0.0010387 2.86178e-05 -1.43198e-06)
(0.000627954 4.06298e-06 -8.14914e-06)
(0.000393813 -1.21087e-05 -8.69613e-06)
(0.000243304 -1.63877e-05 -6.57591e-06)
(0.000155421 -2.20571e-05 -6.84854e-06)
(9.27066e-05 -2.52356e-05 -9.97465e-06)
(6.51359e-05 -2.74252e-05 -1.3522e-05)
(2.8999e-05 -2.15165e-05 -1.66715e-05)
(0.00177301 6.66849e-05 5.88926e-06)
(0.00108536 3.00594e-05 -4.91368e-06)
(0.000673405 5.54137e-06 -8.64994e-06)
(0.000436872 -1.1344e-05 -9.81017e-06)
(0.000279084 -1.94518e-05 -9.93482e-06)
(0.000182019 -2.43145e-05 -9.32752e-06)
(0.000111177 -2.83209e-05 -1.27393e-05)
(7.44484e-05 -3.24889e-05 -1.60833e-05)
(3.62631e-05 -3.11862e-05 -1.80631e-05)
)
;

boundaryField
{
    inlet
    {
        type            calculated;
        value           nonuniform List<vector> 9((0.00365766 9.01491e-05 -0.000155471) (0.00375478 0.000430302 -0.000165284) (0.00402727 0.000219385 -0.000180112) (0.00378339 0.000194737 0.0002445) (0.003914 0.000426653 0.000199128) (0.00412316 0.000191816 0.000125167) (0.00404362 0.000160536 0.000175092) (0.00412355 0.000324888 0.000108461) (0.00421741 0.000142685 5.74877e-05));
    }
    outlet
    {
        type            calculated;
        value           nonuniform 0();
    }
    wall
    {
        type            calculated;
        value           nonuniform List<vector> 
57
(
(0.00404362 0.000160536 0.000175092)
(0.00412355 0.000324888 0.000108461)
(0.00421741 0.000142685 5.74877e-05)
(0.000100402 -3.16124e-05 -2.15468e-06)
(0.000249788 3.0772e-06 -1.42582e-05)
(0.000447385 -1.10718e-05 -1.46649e-05)
(4.4571e-05 -1.57377e-05 -2.21307e-05)
(0.000173015 -1.2986e-05 -2.79716e-05)
(0.000355599 -1.26569e-05 -8.36979e-06)
(8.32678e-05 -5.86248e-05 -1.19089e-05)
(0.000219669 -6.12707e-05 -2.49836e-05)
(0.000429642 -3.82558e-05 -2.21717e-05)
(-1.70423e-06 -3.98972e-05 -5.61392e-06)
(0.000107358 -1.82965e-05 8.8011e-07)
(0.000287176 -4.79206e-05 -3.20031e-05)
(3.75711e-05 -6.85126e-05 -1.18484e-05)
(0.000118083 -4.32106e-05 -8.56033e-07)
(0.000245565 -4.06106e-05 -1.56212e-05)
(-9.58017e-05 -3.23697e-05 1.10393e-05)
(1.02717e-05 -5.89713e-05 -3.02363e-05)
(0.00010151 -4.41053e-05 -4.25295e-05)
(2.02345e-05 -1.33767e-05 -2.1628e-05)
(0.000127519 -8.31127e-05 -3.54395e-05)
(0.000131958 -7.20813e-05 -5.94333e-05)
(-0.000123737 -1.35324e-05 -2.20763e-05)
(-3.15452e-05 5.02691e-06 -4.41448e-05)
(1.36743e-05 -6.57064e-05 -5.11221e-05)
(0.00402727 0.000219385 -0.000180112)
(0.00412316 0.000191816 0.000125167)
(0.00421741 0.000142685 5.74877e-05)
(0.000117399 5.57393e-06 -1.07559e-05)
(0.000298742 -1.19159e-05 2.09849e-05)
(0.000447385 -1.10718e-05 -1.46649e-05)
(5.89211e-05 -3.21794e-05 -4.44799e-05)
(0.000202396 -3.3891e-05 8.35119e-07)
(0.000355599 -1.26569e-05 -8.36979e-06)
(4.22747e-05 -5.7287e-05 -7.01722e-06)
(0.00020771 -4.21664e-05 8.71967e-06)
(0.000429642 -3.82558e-05 -2.21717e-05)
(-5.38981e-05 -2.43423e-05 -9.84643e-06)
(0.000110408 -1.4017e-05 -2.19232e-05)
(0.000287176 -4.79206e-05 -3.20031e-05)
(-4.41409e-05 -3.34882e-05 7.65465e-06)
(0.000139315 -2.30604e-05 -1.78117e-05)
(0.000245565 -4.06106e-05 -1.56212e-05)
(0.000102042 -7.05591e-05 -4.01696e-05)
(-0.000161865 -2.5342e-05 -1.34502e-05)
(3.74957e-05 -3.27927e-05 -1.19466e-05)
(0.00010151 -4.41053e-05 -4.25295e-05)
(0.0002682 -7.47306e-05 -1.49272e-05)
(-0.000113894 -0.000119236 1.55631e-05)
(0.000126394 -4.76712e-05 9.86781e-06)
(0.000131958 -7.20813e-05 -5.94333e-05)
(4.05368e-05 -7.01984e-05 -6.17073e-05)
(-0.000250789 -2.23461e-05 2.08738e-06)
(1.90761e-05 -6.05401e-05 1.32781e-05)
(1.36743e-05 -6.57064e-05 -5.11221e-05)
)
;
    }
    procBoundary6to0
    {
        type            processor;
        value           uniform (3.04707e-05 4.2954e-07 1.09032e-05);
    }
    procBoundary6to2
    {
        type            processor;
        value           nonuniform List<vector> 
32
(
(6.26055e-05 -7.79193e-06 1.69098e-05)
(0.000111197 -2.63052e-05 2.36721e-05)
(8.11723e-05 -1.94341e-05 1.57515e-05)
(0.000168285 -2.72065e-05 2.18144e-05)
(0.000140714 -3.3221e-05 2.24488e-05)
(9.87333e-05 -3.09832e-05 1.4524e-05)
(0.00161999 3.7962e-05 -0.000135621)
(0.000926361 1.71591e-05 -6.1148e-05)
(0.000535897 3.70257e-06 -2.37334e-05)
(0.000318519 -4.44585e-06 3.60793e-06)
(0.000195364 -6.64634e-06 1.08417e-05)
(0.000126776 -1.04361e-05 1.93962e-05)
(8.32056e-05 -9.01562e-06 1.42061e-05)
(5.87066e-05 -8.7127e-06 1.1424e-05)
(5.87066e-05 -8.7127e-06 1.1424e-05)
(5.87066e-05 -8.7127e-06 1.1424e-05)
(0.00166542 8.26392e-05 -0.000131601)
(0.00097679 3.37655e-05 -6.33381e-05)
(0.000578303 6.83931e-06 -2.71757e-05)
(0.0003581 -7.72201e-06 -1.21395e-06)
(0.000225524 -1.27158e-05 8.94619e-06)
(0.00015844 -1.92981e-05 1.72952e-05)
(0.000105361 -1.85366e-05 1.19228e-05)
(0.000105361 -1.85366e-05 1.19228e-05)
(0.000105361 -1.85366e-05 1.19228e-05)
(0.00171757 7.49886e-05 -0.000131338)
(0.00103451 3.3938e-05 -6.7219e-05)
(0.000630866 6.50489e-06 -3.20855e-05)
(0.00040496 -9.71793e-06 -5.32766e-06)
(0.000264444 -1.75955e-05 8.44288e-06)
(0.000190908 -2.42838e-05 1.67682e-05)
(0.000190908 -2.42838e-05 1.67682e-05)
)
;
    }
    procBoundary6to4
    {
        type            processor;
        value           nonuniform List<vector> 
27
(
(0.00160737 -2.28718e-05 -6.61136e-05)
(0.000903786 -8.06989e-06 -3.25048e-05)
(0.000512536 -3.98489e-06 -1.52655e-05)
(0.000296082 -2.08126e-07 -1.57388e-06)
(0.000173834 7.84529e-07 4.41682e-06)
(0.000105774 3.64311e-06 6.97801e-06)
(6.49625e-05 4.30563e-07 6.90709e-06)
(3.88616e-05 -1.65552e-06 7.85658e-06)
(2.13366e-05 -1.59198e-06 4.57494e-06)
(0.00163607 -1.64653e-05 5.68661e-07)
(0.000931777 -5.81543e-06 -3.28535e-06)
(0.000532362 -4.21589e-06 -6.431e-06)
(0.000313254 -1.78535e-06 -3.42126e-06)
(0.000184582 -1.80957e-06 -6.0882e-07)
(0.000118266 -1.2807e-06 -2.4754e-07)
(7.18423e-05 -2.70266e-06 -6.24229e-07)
(5.16572e-05 -4.53145e-06 -4.26642e-06)
(2.61837e-05 -5.60322e-06 -2.22689e-06)
(0.00168112 -1.57762e-05 2.48046e-05)
(0.000981213 -9.52391e-06 9.16005e-06)
(0.000574843 -6.3152e-06 -1.17157e-06)
(0.000353753 -3.41773e-06 -3.03054e-06)
(0.000217339 -3.80367e-06 -2.21416e-06)
(0.000149163 -4.25526e-06 -1.63924e-06)
(9.67336e-05 -6.01621e-06 -4.73568e-06)
(7.78363e-05 -8.87695e-06 -8.33348e-06)
(4.37921e-05 -1.31452e-05 -6.39789e-06)
)
;
    }
    procBoundary6to7
    {
        type            processor;
        value           nonuniform List<vector> 
12
(
(2.23431e-05 -9.66146e-06 5.92759e-06)
(5.31143e-05 -1.99598e-05 1.76535e-06)
(6.46372e-05 -2.85724e-05 -2.84332e-06)
(7.76298e-06 -8.68876e-06 6.13973e-07)
(8.70465e-06 -1.91937e-05 -8.77389e-07)
(1.7986e-06 -3.03628e-05 -2.59379e-06)
(5.54722e-06 -1.13297e-05 -7.83452e-06)
(2.07489e-05 -2.33107e-05 -1.23421e-05)
(2.0159e-05 -3.08699e-05 -8.16083e-06)
(7.74242e-06 -1.41917e-05 -1.97476e-05)
(1.53829e-05 -2.14233e-05 -2.27889e-05)
(1.51155e-05 -2.91897e-05 -2.17817e-05)
)
;
    }
}


// ************************************************************************* //
