/*--------------------------------*- C++ -*----------------------------------*\
| =========                 |                                                 |
| \\      /  F ield         | OpenFOAM: The Open Source CFD Toolbox           |
|  \\    /   O peration     | Version:  4.x                                   |
|   \\  /    A nd           | Web:      www.OpenFOAM.org                      |
|    \\/     M anipulation  |                                                 |
\*---------------------------------------------------------------------------*/
FoamFile
{
    version     2.0;
    format      ascii;
    class       volScalarField;
    location    "58.5";
    object      magGField;
}
// * * * * * * * * * * * * * * * * * * * * * * * * * * * * * * * * * * * * * //

dimensions      [1 -2 -1 0 0 0 0];

internalField   nonuniform List<scalar> 
87
(
87.5044
27.6185
96.4388
103.433
50.3598
106.292
92.1341
26.0937
86.9648
11.2893
83.1308
1.39404
81.4113
3.03717e-05
80.4959
94.4859
30.5367
90.9773
20.7039
88.2778
11.8773
86.8292
4.1499
86.304
96.3142
39.6398
96.6859
40.3793
95.8993
37.8966
95.4227
33.5339
93.9471
93.0333
30.9814
89.9199
21.853
88.0911
14.0844
86.8624
7.21661
86.2582
94.6096
36.2016
93.2638
33.0051
92.5408
30.0107
91.9088
26.113
92.613
95.9254
42.6533
98.3838
46.6311
99.6662
48.9889
101.451
50.2712
103.232
94.6718
40.0327
94.911
40.0121
94.9776
39.5769
94.9854
37.0625
96.1546
95.3425
42.6317
97.2409
45.9347
98.5909
47.8948
100.246
48.5679
101.681
96.4331
45.5529
100.362
52.8742
104.459
58.0429
107.407
61.1955
108.703
)
;

boundaryField
{
    inlet
    {
        type            calculated;
        value           uniform 67;
    }
    outlet
    {
        type            calculated;
        value           nonuniform 0();
    }
    wall
    {
        type            calculated;
        value           uniform 0;
    }
    procBoundary6to0
    {
        type            processor;
        value           uniform 89.3612;
    }
    procBoundary6to2
    {
        type            processor;
        value           nonuniform List<scalar> 
32
(
85.8836
9.43743
90.9118
102.016
46.2564
103.455
94.9322
29.0632
90.5467
18.9497
88.4187
11.1692
87.481
4.49628
4.49628
4.49628
94.9304
34.5516
93.3951
30.6605
93.1868
28.2737
94.1232
94.1232
94.1232
96.4869
41.0981
98.4744
44.517
100.74
47.6349
47.6349
)
;
    }
    procBoundary6to4
    {
        type            processor;
        value           nonuniform List<scalar> 
27
(
94.5443
30.3608
89.6238
19.4251
87.1054
9.9018
85.6098
2.58843
85.2022
93.6665
31.5432
90.3025
22.1808
88.1272
14.8753
87.821
9.64632
89.0096
93.4453
38.2448
94.0633
37.9493
95.0087
39.5009
97.7372
42.9882
100.659
)
;
    }
    procBoundary6to7
    {
        type            processor;
        value           nonuniform List<scalar> 
12
(
0.444313
28.9148
51.0927
2.92133e-05
3.32341e-05
24.5462
1.07636
23.136
50.7794
34.2393
48.136
61.1878
)
;
    }
}


// ************************************************************************* //
