/*--------------------------------*- C++ -*----------------------------------*\
| =========                 |                                                 |
| \\      /  F ield         | OpenFOAM: The Open Source CFD Toolbox           |
|  \\    /   O peration     | Version:  4.x                                   |
|   \\  /    A nd           | Web:      www.OpenFOAM.org                      |
|    \\/     M anipulation  |                                                 |
\*---------------------------------------------------------------------------*/
FoamFile
{
    version     2.0;
    format      ascii;
    class       volVectorField;
    location    "58.5";
    object      UsNext;
}
// * * * * * * * * * * * * * * * * * * * * * * * * * * * * * * * * * * * * * //

dimensions      [0 1 -1 0 0 0 0];

internalField   nonuniform List<vector> 
87
(
(4.58361e-11 -1.77317e-10 -1.04611e-11)
(-6.881e-11 -1.03801e-10 -6.12922e-11)
(-7.52813e-11 -1.07936e-10 -3.59013e-11)
(-2.51031e-12 -7.62219e-11 -1.28744e-10)
(-3.10051e-11 -9.98365e-11 -1.2024e-10)
(3.65496e-11 -5.56708e-11 -1.28285e-10)
(6.33399e-11 -5.48057e-11 -1.02422e-10)
(1.3152e-11 -1.23041e-10 -1.79354e-10)
(-7.75205e-11 -1.53614e-10 -2.36277e-10)
(-1.25644e-10 -1.70402e-10 -3.15802e-10)
(-2.33388e-11 -1.79428e-10 -3.42935e-10)
(-1.39608e-10 -1.72339e-10 -3.04938e-10)
(-1.3477e-10 -1.60401e-10 -2.83119e-10)
(-1.12371e-10 -1.47242e-10 -1.89475e-10)
(-3.46332e-11 -1.11512e-10 5.5502e-11)
(6.87757e-11 -3.8021e-11 -8.14796e-11)
(-9.51212e-12 -8.60453e-11 -1.79555e-10)
(-8.67036e-12 -7.45871e-11 -2.06517e-10)
(-1.34385e-10 -8.26574e-11 -2.78746e-10)
(-4.14441e-11 -7.93739e-11 -2.75044e-10)
(-1.45278e-10 -1.1085e-10 -2.58441e-10)
(-3.50977e-11 -1.20191e-10 -1.58016e-10)
(-4.72118e-11 1.21303e-11 -1.36062e-10)
(3.68669e-11 -7.32992e-11 -2.11807e-11)
(1.27363e-11 -1.1709e-11 -5.52614e-11)
(-2.25643e-10 -1.46098e-10 -1.62041e-10)
(9.39014e-12 -4.40529e-11 -9.4448e-11)
(-3.5228e-11 -7.19027e-11 -1.80339e-10)
(-1.72067e-11 -6.29063e-11 -1.38521e-10)
(-8.16508e-11 -6.45917e-11 -1.44131e-10)
(-7.81037e-11 -6.87408e-11 -1.31158e-10)
(-1.08296e-10 -9.27725e-11 -1.66684e-10)
(2.11591e-10 -6.8538e-11 -7.35654e-11)
(3.26523e-11 -5.11231e-11 -6.4185e-11)
(-8.4509e-11 -9.11823e-11 -1.20718e-10)
(-1.02131e-10 -1.28687e-10 -1.49465e-10)
(-1.30122e-10 -9.67732e-11 -1.92018e-10)
(-1.24532e-10 -1.13547e-10 -2.09044e-10)
(-1.85104e-10 -1.12298e-10 -2.16277e-10)
(-1.58371e-10 -1.36092e-10 -2.66491e-10)
(-2.26682e-10 -1.28136e-10 -1.62745e-10)
(-6.08386e-11 -4.16354e-11 1.70963e-11)
(1.27413e-11 -3.72008e-11 -6.77369e-11)
(-6.58061e-11 -1.16159e-11 -1.1209e-10)
(-6.68005e-11 -6.60419e-11 -1.26004e-10)
(-1.37029e-10 -5.54133e-11 -2.1874e-10)
(-8.2892e-11 -5.66432e-11 -1.27074e-10)
(-1.93207e-10 -8.82729e-11 -1.85467e-10)
(-1.25366e-10 -1.05747e-10 -1.98467e-10)
(-3.23648e-10 4.85512e-10 -1.51428e-10)
(1.26023e-10 4.39013e-11 -3.91349e-11)
(4.90215e-11 -3.63834e-11 1.97207e-11)
(-7.86441e-10 -3.15727e-10 -2.79765e-11)
(-2.11995e-12 -1.01347e-10 -2.1221e-11)
(-8.47008e-11 -6.29667e-11 -1.28508e-10)
(-4.70622e-11 -5.90229e-11 -8.90097e-11)
(-9.36083e-11 -5.68462e-11 -7.83309e-11)
(-5.52413e-11 -8.68498e-11 -8.77652e-11)
(-5.43394e-11 -3.70788e-11 -8.08949e-11)
(1.22248e-10 -8.11808e-11 -1.21423e-10)
(1.50403e-11 -4.23534e-11 -3.24865e-11)
(-3.21457e-11 -4.50894e-11 -4.63113e-11)
(-4.46239e-11 -1.1688e-10 -9.4354e-11)
(-1.1397e-10 -8.25861e-11 -8.48953e-11)
(-8.55059e-11 -6.53707e-11 -7.8207e-11)
(-1.78989e-10 -1.11004e-10 -1.0297e-10)
(-1.31322e-10 -9.36402e-11 -1.46765e-10)
(-3.55407e-10 -1.78177e-10 -9.03818e-11)
(-3.76917e-10 -1.34152e-10 -1.3895e-10)
(7.26338e-11 3.50079e-12 -3.84737e-11)
(-3.44099e-11 -5.79654e-12 -4.65414e-11)
(1.90483e-11 -2.49395e-11 -4.3929e-11)
(-1.23108e-10 -5.52215e-11 -6.26069e-11)
(-7.89478e-11 -3.45094e-11 -6.26657e-11)
(-1.23706e-10 -6.22631e-11 -9.60948e-11)
(7.53757e-11 1.4572e-10 -1.22937e-10)
(-6.21813e-10 9.18025e-10 1.04678e-11)
(3.35322e-12 1.71627e-10 -4.38131e-11)
(3.94284e-10 5.12491e-11 1.93215e-11)
(-3.43191e-11 -1.25345e-11 -3.31021e-11)
(1.44968e-11 -5.29397e-11 -5.07529e-12)
(-5.61923e-11 -3.03398e-11 -3.4216e-11)
(-5.84078e-11 -5.49471e-11 -5.99654e-11)
(-1.05063e-10 -4.3686e-11 -5.07462e-11)
(-1.01286e-10 -6.15572e-11 -5.94934e-11)
(-1.50073e-10 2.38781e-11 -2.09236e-11)
(1.4602e-10 5.28398e-12 -1.00848e-10)
)
;

boundaryField
{
    inlet
    {
        type            calculated;
        value           nonuniform List<vector> 9((6.33399e-11 -5.48057e-11 -1.02422e-10) (6.87757e-11 -3.8021e-11 -8.14796e-11) (1.27363e-11 -1.1709e-11 -5.52614e-11) (3.26523e-11 -5.11231e-11 -6.4185e-11) (1.27413e-11 -3.72008e-11 -6.77369e-11) (4.90215e-11 -3.63834e-11 1.97207e-11) (1.50403e-11 -4.23534e-11 -3.24865e-11) (7.26338e-11 3.50079e-12 -3.84737e-11) (3.94284e-10 5.12491e-11 1.93215e-11));
    }
    outlet
    {
        type            calculated;
        value           nonuniform 0();
    }
    wall
    {
        type            calculated;
        value           nonuniform List<vector> 
57
(
(1.50403e-11 -4.23534e-11 -3.24865e-11)
(7.26338e-11 3.50079e-12 -3.84737e-11)
(3.94284e-10 5.12491e-11 1.93215e-11)
(-3.21457e-11 -4.50894e-11 -4.63113e-11)
(-3.44099e-11 -5.79654e-12 -4.65414e-11)
(-3.43191e-11 -1.25345e-11 -3.31021e-11)
(-4.46239e-11 -1.1688e-10 -9.4354e-11)
(1.90483e-11 -2.49395e-11 -4.3929e-11)
(1.44968e-11 -5.29397e-11 -5.07529e-12)
(-1.1397e-10 -8.25861e-11 -8.48953e-11)
(-1.23108e-10 -5.52215e-11 -6.26069e-11)
(-5.61923e-11 -3.03398e-11 -3.4216e-11)
(-8.55059e-11 -6.53707e-11 -7.8207e-11)
(-7.89478e-11 -3.45094e-11 -6.26657e-11)
(-5.84078e-11 -5.49471e-11 -5.99654e-11)
(-1.78989e-10 -1.11004e-10 -1.0297e-10)
(-1.23706e-10 -6.22631e-11 -9.60948e-11)
(-1.05063e-10 -4.3686e-11 -5.07462e-11)
(-1.31322e-10 -9.36402e-11 -1.46765e-10)
(7.53757e-11 1.4572e-10 -1.22937e-10)
(-1.01286e-10 -6.15572e-11 -5.94934e-11)
(-3.55407e-10 -1.78177e-10 -9.03818e-11)
(-6.21813e-10 9.18025e-10 1.04678e-11)
(-1.50073e-10 2.38781e-11 -2.09236e-11)
(-3.76917e-10 -1.34152e-10 -1.3895e-10)
(3.35322e-12 1.71627e-10 -4.38131e-11)
(1.4602e-10 5.28398e-12 -1.00848e-10)
(1.27363e-11 -1.1709e-11 -5.52614e-11)
(4.90215e-11 -3.63834e-11 1.97207e-11)
(3.94284e-10 5.12491e-11 1.93215e-11)
(-2.25643e-10 -1.46098e-10 -1.62041e-10)
(-7.86441e-10 -3.15727e-10 -2.79765e-11)
(-3.43191e-11 -1.25345e-11 -3.31021e-11)
(9.39014e-12 -4.40529e-11 -9.4448e-11)
(-2.11995e-12 -1.01347e-10 -2.1221e-11)
(1.44968e-11 -5.29397e-11 -5.07529e-12)
(-3.5228e-11 -7.19027e-11 -1.80339e-10)
(-8.47008e-11 -6.29667e-11 -1.28508e-10)
(-5.61923e-11 -3.03398e-11 -3.4216e-11)
(-1.72067e-11 -6.29063e-11 -1.38521e-10)
(-4.70622e-11 -5.90229e-11 -8.90097e-11)
(-5.84078e-11 -5.49471e-11 -5.99654e-11)
(-8.16508e-11 -6.45917e-11 -1.44131e-10)
(-9.36083e-11 -5.68462e-11 -7.83309e-11)
(-1.05063e-10 -4.3686e-11 -5.07462e-11)
(-2.51031e-12 -7.62219e-11 -1.28744e-10)
(-7.81037e-11 -6.87408e-11 -1.31158e-10)
(-5.52413e-11 -8.68498e-11 -8.77652e-11)
(-1.01286e-10 -6.15572e-11 -5.94934e-11)
(-3.10051e-11 -9.98365e-11 -1.2024e-10)
(-1.08296e-10 -9.27725e-11 -1.66684e-10)
(-5.43394e-11 -3.70788e-11 -8.08949e-11)
(-1.50073e-10 2.38781e-11 -2.09236e-11)
(3.65496e-11 -5.56708e-11 -1.28285e-10)
(2.11591e-10 -6.8538e-11 -7.35654e-11)
(1.22248e-10 -8.11808e-11 -1.21423e-10)
(1.4602e-10 5.28398e-12 -1.00848e-10)
)
;
    }
    procBoundary6to0
    {
        type            processor;
        value           uniform (3.29387e-11 -2.40375e-10 6.85902e-11);
    }
    procBoundary6to2
    {
        type            processor;
        value           nonuniform List<vector> 
32
(
(-6.51237e-11 -3.71413e-10 -1.61781e-11)
(-3.54857e-11 -2.48642e-10 -1.74967e-10)
(-1.25802e-10 -3.09247e-10 -8.1201e-11)
(8.6295e-11 -1.10833e-10 -2.0682e-10)
(-1.47242e-11 -1.17934e-10 -1.89443e-10)
(-3.50018e-11 -1.79615e-10 -1.1022e-10)
(5.04185e-11 3.19671e-12 -8.64738e-11)
(4.33421e-11 -6.70281e-11 -1.98997e-10)
(1.24639e-10 -1.25929e-10 -3.56966e-10)
(-5.0655e-12 -1.57273e-10 -4.03101e-10)
(6.1892e-11 -2.33548e-10 -4.24367e-10)
(-2.68049e-11 -1.88549e-10 -3.89621e-10)
(4.47342e-11 -2.41401e-10 -1.98562e-10)
(-2.16961e-11 -2.01628e-10 -1.38803e-10)
(-2.16961e-11 -2.01628e-10 -1.38803e-10)
(-2.16961e-11 -2.01628e-10 -1.38803e-10)
(3.26374e-11 6.27399e-12 -6.67526e-11)
(1.42433e-11 -5.82842e-11 -2.10837e-10)
(7.53512e-11 -6.79562e-11 -2.81494e-10)
(4.65329e-12 -1.22451e-10 -3.32097e-10)
(6.75825e-11 -1.31268e-10 -3.70283e-10)
(-4.55291e-12 -1.62355e-10 -3.14555e-10)
(5.2093e-12 -1.15891e-10 -1.73426e-10)
(5.2093e-12 -1.15891e-10 -1.73426e-10)
(5.2093e-12 -1.15891e-10 -1.73426e-10)
(9.25181e-12 -6.11017e-12 -6.81083e-11)
(3.31856e-12 -6.48664e-11 -1.89553e-10)
(8.39683e-11 -7.56737e-11 -2.37413e-10)
(2.5154e-11 -5.23719e-11 -1.97603e-10)
(7.98566e-11 -5.92011e-11 -2.36605e-10)
(-3.43701e-11 -6.88173e-11 -1.57583e-10)
(-3.43701e-11 -6.88173e-11 -1.57583e-10)
)
;
    }
    procBoundary6to4
    {
        type            processor;
        value           nonuniform List<vector> 
27
(
(5.51864e-11 -1.37751e-11 -1.03361e-10)
(5.15612e-11 -3.94385e-11 -1.65923e-10)
(9.63121e-11 -1.17748e-10 -2.51782e-10)
(7.98006e-11 -1.59221e-10 -2.60204e-10)
(1.9493e-10 -1.97358e-10 -3.27003e-10)
(1.41987e-10 -2.34653e-10 -3.49607e-10)
(3.02778e-10 -1.85315e-10 -2.16276e-10)
(1.96419e-10 -2.22803e-10 -8.02031e-11)
(1.9224e-10 -1.44766e-10 1.34139e-10)
(2.72933e-11 -1.34041e-11 -6.99627e-11)
(1.15797e-11 -5.36426e-11 -1.31007e-10)
(2.78123e-11 -1.04327e-10 -1.86484e-10)
(6.38828e-12 -1.06181e-10 -1.89755e-10)
(6.77202e-11 -1.34195e-10 -2.30839e-10)
(5.19088e-11 -1.53365e-10 -2.21973e-10)
(6.09985e-11 -1.38972e-10 -1.98415e-10)
(8.48517e-11 -1.29659e-10 -1.49058e-10)
(2.86682e-10 -2.9735e-10 5.47778e-11)
(1.6446e-11 2.80798e-12 -3.50911e-11)
(-1.36505e-11 -6.16399e-11 -4.82084e-11)
(1.7117e-11 -8.18559e-11 -8.44296e-11)
(-5.10707e-12 -8.12747e-11 -9.82933e-11)
(3.08186e-11 -1.07703e-10 -1.14679e-10)
(-4.676e-11 -1.49578e-10 -9.79912e-11)
(-5.77147e-11 -1.95077e-10 -1.38139e-10)
(-6.17651e-10 4.07693e-11 -1.27208e-10)
(-9.37427e-11 -1.83471e-10 -6.44404e-11)
)
;
    }
    procBoundary6to7
    {
        type            processor;
        value           nonuniform List<vector> 
12
(
(-3.7117e-11 -7.2769e-11 3.02366e-10)
(3.08208e-11 -5.77163e-11 2.73569e-10)
(1.81645e-10 5.4372e-11 6.30165e-11)
(-5.30168e-11 -2.32086e-10 1.86416e-10)
(1.98591e-10 -1.05669e-10 1.12355e-10)
(6.67581e-10 -3.74693e-11 -8.37907e-11)
(1.03284e-10 -1.39287e-10 1.08329e-10)
(5.44945e-10 4.69724e-11 -8.30205e-11)
(5.81209e-10 -1.4488e-10 -1.75198e-10)
(-1.94232e-10 -4.6335e-11 1.26327e-11)
(4.19766e-10 2.5708e-10 -8.51025e-11)
(2.39217e-10 -1.07656e-10 -8.61387e-11)
)
;
    }
}


// ************************************************************************* //
