/*--------------------------------*- C++ -*----------------------------------*\
| =========                 |                                                 |
| \\      /  F ield         | OpenFOAM: The Open Source CFD Toolbox           |
|  \\    /   O peration     | Version:  4.x                                   |
|   \\  /    A nd           | Web:      www.OpenFOAM.org                      |
|    \\/     M anipulation  |                                                 |
\*---------------------------------------------------------------------------*/
FoamFile
{
    version     2.0;
    format      ascii;
    class       volScalarField;
    location    "8";
    object      Cs;
}
// * * * * * * * * * * * * * * * * * * * * * * * * * * * * * * * * * * * * * //

dimensions      [1 -3 0 0 0 0 0];

internalField   nonuniform List<scalar> 
114
(
334.897
334.806
334.696
334.607
334.579
334.631
334.998
334.987
334.958
334.902
334.815
334.706
334.605
334.553
334.577
334.998
334.986
334.958
334.907
334.827
334.725
334.622
334.547
334.536
334.997
334.987
334.964
334.924
334.863
334.786
334.698
334.614
334.549
334.746
334.708
334.733
334.795
334.999
334.991
334.967
334.915
334.837
334.762
334.712
334.722
334.772
334.999
334.991
334.969
334.922
334.85
334.771
334.708
334.694
334.724
334.999
334.992
334.975
334.943
334.891
334.827
334.756
334.693
334.646
334.839
334.881
334.999
334.994
334.978
334.943
334.894
334.851
334.827
334.844
334.884
334.999
334.995
334.98
334.948
334.9
334.852
334.817
334.822
334.853
334.999
334.995
334.984
334.961
334.925
334.881
334.831
334.786
334.75
335
334.996
334.986
334.966
334.938
334.915
334.903
334.915
335
334.997
334.987
334.968
334.939
334.911
334.891
335
334.997
334.99
334.978
334.957
334.932
)
;

boundaryField
{
    inlet
    {
        type            calculated;
        value           uniform 335;
    }
    outlet
    {
        type            calculated;
        value           nonuniform 0();
    }
    wall
    {
        type            calculated;
        value           nonuniform List<scalar> 
66
(
334.998
334.998
334.997
334.987
334.986
334.987
334.958
334.958
334.964
334.897
334.902
334.907
334.924
334.806
334.815
334.827
334.863
334.696
334.706
334.725
334.786
334.607
334.605
334.622
334.698
334.579
334.553
334.547
334.614
334.631
334.577
334.536
334.549
334.997
334.999
334.999
335
334.987
334.992
334.995
334.997
334.964
334.975
334.984
334.99
334.924
334.943
334.961
334.978
334.863
334.891
334.925
334.957
334.786
334.827
334.881
334.932
334.698
334.756
334.831
334.614
334.693
334.786
334.549
334.646
334.75
)
;
    }
    procBoundary2to0
    {
        type            processor;
        value           nonuniform List<scalar> 
44
(
334.903
334.818
334.713
334.617
334.568
334.595
334.998
334.987
334.956
334.956
334.9
334.817
334.764
334.723
334.745
334.807
334.999
334.99
334.961
334.9
334.817
334.817
334.836
334.817
334.852
334.902
334.999
334.993
334.974
334.932
334.877
334.836
334.817
334.817
334.89
334.917
334.999
334.995
334.982
334.955
334.92
334.893
334.879
334.89
)
;
    }
    procBoundary2to3
    {
        type            processor;
        value           nonuniform List<scalar> 
12
(
334.744
334.668
334.594
334.516
334.885
334.856
334.804
334.625
334.935
334.939
334.915
334.733
)
;
    }
    procBoundary2to6
    {
        type            processor;
        value           nonuniform List<scalar> 
32
(
334.942
334.897
334.922
334.901
334.873
334.846
335
334.997
334.987
334.967
334.944
334.928
334.929
334.942
334.897
334.95
335
334.997
334.989
334.974
334.953
334.935
334.897
334.901
334.927
335
334.998
334.993
334.983
334.968
334.901
334.95
)
;
    }
}


// ************************************************************************* //
