/*--------------------------------*- C++ -*----------------------------------*\
| =========                 |                                                 |
| \\      /  F ield         | OpenFOAM: The Open Source CFD Toolbox           |
|  \\    /   O peration     | Version:  4.x                                   |
|   \\  /    A nd           | Web:      www.OpenFOAM.org                      |
|    \\/     M anipulation  |                                                 |
\*---------------------------------------------------------------------------*/
FoamFile
{
    version     2.0;
    format      ascii;
    class       volScalarField;
    location    "8";
    object      rho;
}
// * * * * * * * * * * * * * * * * * * * * * * * * * * * * * * * * * * * * * //

dimensions      [1 -3 0 0 0 0 0];

internalField   nonuniform List<scalar> 
114
(
6697.95
6696.12
6693.92
6692.13
6691.58
6692.61
6699.96
6699.74
6699.16
6698.05
6696.31
6694.11
6692.1
6691.05
6691.55
6699.95
6699.73
6699.16
6698.13
6696.53
6694.51
6692.43
6690.95
6690.71
6699.95
6699.75
6699.28
6698.48
6697.26
6695.73
6693.96
6692.28
6690.97
6694.91
6694.15
6694.66
6695.89
6699.98
6699.82
6699.35
6698.29
6696.74
6695.23
6694.24
6694.43
6695.44
6699.98
6699.83
6699.38
6698.43
6696.99
6695.42
6694.16
6693.88
6694.49
6699.97
6699.85
6699.5
6698.85
6697.82
6696.55
6695.12
6693.86
6692.92
6696.79
6697.62
6699.99
6699.89
6699.57
6698.86
6697.87
6697.02
6696.54
6696.88
6697.67
6699.99
6699.89
6699.6
6698.95
6698
6697.05
6696.33
6696.43
6697.06
6699.99
6699.91
6699.68
6699.23
6698.51
6697.63
6696.61
6695.73
6694.99
6699.99
6699.93
6699.73
6699.32
6698.76
6698.3
6698.06
6698.29
6699.99
6699.93
6699.75
6699.35
6698.78
6698.23
6697.83
6699.99
6699.94
6699.81
6699.55
6699.14
6698.64
)
;

boundaryField
{
    inlet
    {
        type            calculated;
        value           uniform 6700;
    }
    outlet
    {
        type            calculated;
        value           nonuniform 0();
    }
    wall
    {
        type            calculated;
        value           nonuniform List<scalar> 
66
(
6699.96
6699.95
6699.95
6699.74
6699.73
6699.75
6699.16
6699.16
6699.28
6697.95
6698.05
6698.13
6698.48
6696.12
6696.31
6696.53
6697.26
6693.92
6694.11
6694.51
6695.73
6692.13
6692.1
6692.43
6693.96
6691.58
6691.05
6690.95
6692.28
6692.61
6691.55
6690.71
6690.97
6699.95
6699.97
6699.99
6699.99
6699.75
6699.85
6699.91
6699.94
6699.28
6699.5
6699.68
6699.81
6698.48
6698.85
6699.23
6699.55
6697.26
6697.82
6698.51
6699.14
6695.73
6696.55
6697.63
6698.64
6693.96
6695.12
6696.61
6692.28
6693.86
6695.73
6690.97
6692.92
6694.99
)
;
    }
    procBoundary2to0
    {
        type            processor;
        value           nonuniform List<scalar> 
44
(
6698.06
6696.36
6694.26
6692.34
6691.36
6691.89
6699.96
6699.74
6699.13
6699.13
6698
6696.34
6695.28
6694.47
6694.9
6696.15
6699.98
6699.8
6699.22
6698
6696.34
6696.34
6696.72
6696.34
6697.03
6698.04
6699.99
6699.87
6699.47
6698.64
6697.54
6696.72
6696.34
6696.34
6697.8
6698.35
6699.99
6699.91
6699.65
6699.11
6698.4
6697.86
6697.59
6697.8
)
;
    }
    procBoundary2to3
    {
        type            processor;
        value           nonuniform List<scalar> 
12
(
6694.88
6693.35
6691.87
6690.31
6697.69
6697.11
6696.08
6692.49
6698.7
6698.78
6698.3
6694.66
)
;
    }
    procBoundary2to6
    {
        type            processor;
        value           nonuniform List<scalar> 
32
(
6698.84
6697.94
6698.44
6698.02
6697.46
6696.91
6699.99
6699.93
6699.74
6699.35
6698.88
6698.56
6698.58
6698.84
6697.94
6699.01
6699.99
6699.94
6699.79
6699.48
6699.06
6698.7
6697.94
6698.02
6698.54
6699.99
6699.96
6699.85
6699.66
6699.35
6698.02
6698.99
)
;
    }
}


// ************************************************************************* //
