/*--------------------------------*- C++ -*----------------------------------*\
| =========                 |                                                 |
| \\      /  F ield         | OpenFOAM: The Open Source CFD Toolbox           |
|  \\    /   O peration     | Version:  4.x                                   |
|   \\  /    A nd           | Web:      www.OpenFOAM.org                      |
|    \\/     M anipulation  |                                                 |
\*---------------------------------------------------------------------------*/
FoamFile
{
    version     2.0;
    format      ascii;
    class       volVectorField;
    location    "16";
    object      impParticleForces;
}
// * * * * * * * * * * * * * * * * * * * * * * * * * * * * * * * * * * * * * //

dimensions      [1 1 -2 0 0 0 0];

internalField   nonuniform List<vector> 
114
(
(0.00244821 -5.64667e-06 -9.61536e-05)
(0.00248847 -5.42145e-06 -8.91379e-05)
(0.00248903 -6.34786e-06 -7.89108e-05)
(0.00252008 -7.28055e-06 -6.76678e-05)
(0.00248663 -5.63316e-06 -5.04657e-05)
(0.00248722 -2.87389e-06 -3.35122e-05)
(0.00234076 1.08064e-07 -0.000100923)
(0.0023736 7.66082e-07 -0.000102025)
(0.00242376 1.59668e-06 -0.000100692)
(0.00245038 1.73682e-06 -9.57802e-05)
(0.00250014 2.65099e-06 -9.01319e-05)
(0.00249772 1.43074e-06 -7.98827e-05)
(0.00253149 2.9018e-07 -6.81952e-05)
(0.00250775 6.39772e-07 -5.14383e-05)
(0.00249531 2.67776e-06 -3.437e-05)
(0.00231368 5.4677e-06 -9.81041e-05)
(0.00235089 5.97671e-06 -9.93765e-05)
(0.00239949 6.4614e-06 -9.8241e-05)
(0.00242726 6.58509e-06 -9.35949e-05)
(0.00247525 7.60327e-06 -8.87914e-05)
(0.00247803 7.10358e-06 -7.91883e-05)
(0.00251348 6.98262e-06 -6.73122e-05)
(0.00250101 6.82519e-06 -5.13661e-05)
(0.00250479 8.48932e-06 -3.54538e-05)
(0.00227522 7.57903e-06 -9.50429e-05)
(0.0022998 7.876e-06 -9.54552e-05)
(0.00235613 8.26699e-06 -9.46001e-05)
(0.00237334 8.38603e-06 -9.00882e-05)
(0.00240923 8.80568e-06 -8.50012e-05)
(0.00241766 8.83916e-06 -7.58608e-05)
(0.00243403 9.23041e-06 -6.39329e-05)
(0.00244649 9.82159e-06 -4.98094e-05)
(0.00245285 1.13695e-05 -3.48333e-05)
(0.00255951 -6.94791e-06 -8.1274e-05)
(0.00258837 -8.18395e-06 -6.97796e-05)
(0.00252403 -6.59419e-06 -4.98161e-05)
(0.00253356 -4.61938e-06 -3.22813e-05)
(0.00236809 9.1274e-07 -0.000102303)
(0.00242294 1.64488e-06 -0.000105152)
(0.0024956 2.76599e-06 -0.00010602)
(0.0025174 2.80297e-06 -9.99631e-05)
(0.00255767 3.16135e-06 -9.33122e-05)
(0.00254536 1.84783e-06 -8.12706e-05)
(0.00258576 9.61144e-07 -6.92106e-05)
(0.00253863 1.12525e-06 -5.07176e-05)
(0.00252209 2.69659e-06 -3.28574e-05)
(0.00235115 6.82076e-06 -0.00010028)
(0.00241111 7.75996e-06 -0.000103363)
(0.00248822 8.77789e-06 -0.000104547)
(0.00250064 8.35558e-06 -9.82063e-05)
(0.00253294 8.66342e-06 -9.20889e-05)
(0.00253173 8.23697e-06 -8.13526e-05)
(0.00255777 8.39697e-06 -6.81594e-05)
(0.00253137 8.22386e-06 -5.11675e-05)
(0.00252902 9.70822e-06 -3.43281e-05)
(0.00230098 8.75954e-06 -9.61923e-05)
(0.00234333 9.38699e-06 -9.78137e-05)
(0.00241922 1.01982e-05 -9.88623e-05)
(0.00242203 9.74557e-06 -9.2875e-05)
(0.0024481 9.83743e-06 -8.68812e-05)
(0.00245947 1.00518e-05 -7.74613e-05)
(0.00247695 1.07845e-05 -6.46428e-05)
(0.00246712 1.12128e-05 -4.94082e-05)
(0.00245952 1.25862e-05 -3.35894e-05)
(0.00248658 -6.75591e-06 -4.19443e-05)
(0.00248269 -5.31645e-06 -2.57433e-05)
(0.00239178 1.80405e-06 -9.9509e-05)
(0.00242976 2.34633e-06 -0.000101278)
(0.00249366 3.13498e-06 -0.000101756)
(0.00250839 2.70044e-06 -9.51729e-05)
(0.00253493 2.34172e-06 -8.67912e-05)
(0.00252599 1.60741e-06 -7.38527e-05)
(0.00254698 1.68896e-06 -5.97724e-05)
(0.00249911 1.82678e-06 -4.26831e-05)
(0.00248562 3.05664e-06 -2.61793e-05)
(0.00235973 7.88536e-06 -9.67474e-05)
(0.00241134 8.78114e-06 -9.95246e-05)
(0.00249097 9.90641e-06 -0.000101406)
(0.0025069 9.14426e-06 -9.54558e-05)
(0.0025268 8.67508e-06 -8.72561e-05)
(0.00250642 8.02587e-06 -7.41745e-05)
(0.00253718 9.04043e-06 -6.05054e-05)
(0.00250006 9.20507e-06 -4.39287e-05)
(0.00250497 1.09253e-05 -2.78708e-05)
(0.00231761 1.00309e-05 -9.35644e-05)
(0.00236133 1.0853e-05 -9.56548e-05)
(0.00242284 1.14088e-05 -9.6199e-05)
(0.00243663 1.08091e-05 -9.0806e-05)
(0.00243904 1.01619e-05 -8.22607e-05)
(0.00245142 1.0505e-05 -7.19487e-05)
(0.00248113 1.20047e-05 -5.91997e-05)
(0.00244583 1.21102e-05 -4.35464e-05)
(0.00245361 1.38911e-05 -2.85922e-05)
(0.00239084 2.08212e-06 -9.08911e-05)
(0.00244644 2.76683e-06 -9.35469e-05)
(0.00250435 3.29154e-06 -9.37979e-05)
(0.00249301 2.05888e-06 -8.58037e-05)
(0.0025138 1.24529e-06 -7.69762e-05)
(0.00248566 8.45127e-07 -6.27518e-05)
(0.00249894 1.36533e-06 -4.81525e-05)
(0.00245404 2.0984e-06 -3.29854e-05)
(0.00236223 8.67973e-06 -8.89321e-05)
(0.00241384 9.58447e-06 -9.15655e-05)
(0.00248543 1.02783e-05 -9.27713e-05)
(0.00247366 8.50042e-06 -8.53755e-05)
(0.00250463 7.81122e-06 -7.7507e-05)
(0.00247613 7.40086e-06 -6.40333e-05)
(0.002495 8.7006e-06 -5.01165e-05)
(0.00230772 1.06764e-05 -8.58021e-05)
(0.00235142 1.14458e-05 -8.7801e-05)
(0.00241795 1.1976e-05 -8.88274e-05)
(0.00241968 1.07252e-05 -8.28318e-05)
(0.00244463 1.01061e-05 -7.53023e-05)
(0.00242433 1.00631e-05 -6.28704e-05)
)
;

boundaryField
{
    inlet
    {
        type            zeroGradient;
    }
    outlet
    {
        type            zeroGradient;
    }
    wall
    {
        type            zeroGradient;
    }
    procBoundary2to0
    {
        type            processor;
        value           nonuniform List<vector> 
44
(
(0.00242984 -1.36594e-05 -9.49184e-05)
(0.00248216 -1.39549e-05 -8.7894e-05)
(0.00247901 -1.38059e-05 -7.73662e-05)
(0.00249598 -1.34362e-05 -6.56709e-05)
(0.00248911 -1.08655e-05 -4.96121e-05)
(0.00251762 -7.05027e-06 -3.36388e-05)
(0.00233187 -6.93518e-06 -0.000101642)
(0.00235799 -6.5485e-06 -0.000102091)
(0.00240072 -5.93931e-06 -0.000100383)
(0.00240072 -5.93931e-06 -0.000100383)
(0.00249805 -5.78431e-06 -9.88584e-05)
(0.00256813 -5.57187e-06 -9.3402e-05)
(0.00253361 -1.54426e-05 -7.87416e-05)
(0.00256595 -1.64058e-05 -6.7602e-05)
(0.0025136 -1.32851e-05 -4.88435e-05)
(0.00251833 -1.00089e-05 -3.13339e-05)
(0.00238877 -6.9884e-06 -0.000105007)
(0.00242015 -6.57062e-06 -0.000105973)
(0.00248114 -5.86031e-06 -0.000106001)
(0.00249805 -5.78431e-06 -9.88584e-05)
(0.00256813 -5.57187e-06 -9.3402e-05)
(0.00256813 -5.57187e-06 -9.3402e-05)
(0.00253631 -7.23086e-06 -7.31375e-05)
(0.00254531 -7.53206e-06 -5.88664e-05)
(0.00247623 -1.45754e-05 -4.16271e-05)
(0.00247314 -1.211e-05 -2.5937e-05)
(0.00240181 -6.98975e-06 -0.000100635)
(0.00244343 -6.68312e-06 -0.000102839)
(0.00250942 -6.09891e-06 -0.000103057)
(0.00251831 -6.23325e-06 -9.53634e-05)
(0.00255473 -6.56854e-06 -8.66421e-05)
(0.00253631 -7.23086e-06 -7.31375e-05)
(0.00254531 -7.53206e-06 -5.88664e-05)
(0.00254531 -7.53206e-06 -5.88664e-05)
(0.00244224 -6.67741e-06 -3.25453e-05)
(0.00242628 -5.35943e-06 -1.84658e-05)
(0.00238387 -7.60254e-06 -9.00962e-05)
(0.00243504 -7.42633e-06 -9.23941e-05)
(0.00250705 -7.16205e-06 -9.28716e-05)
(0.00250764 -7.39405e-06 -8.53103e-05)
(0.00251006 -7.9397e-06 -7.45314e-05)
(0.00250353 -8.01776e-06 -6.17665e-05)
(0.00250613 -7.83181e-06 -4.70522e-05)
(0.00244224 -6.67741e-06 -3.25453e-05)
)
;
    }
    procBoundary2to3
    {
        type            processor;
        value           nonuniform List<vector> 
12
(
(0.00251692 9.61187e-07 -1.72526e-05)
(0.0025171 5.65493e-06 -1.79674e-05)
(0.002506 1.12723e-05 -1.9513e-05)
(0.00243463 1.38239e-05 -1.97162e-05)
(0.00251614 -6.11995e-07 -1.49681e-05)
(0.00252437 5.61161e-06 -1.62639e-05)
(0.00254751 1.23755e-05 -1.8726e-05)
(0.00247386 1.51738e-05 -1.92913e-05)
(0.00247223 -2.46734e-06 -1.0374e-05)
(0.00248058 5.16657e-06 -1.13708e-05)
(0.00248044 1.23021e-05 -1.3392e-05)
(0.0024455 1.56391e-05 -1.50256e-05)
)
;
    }
    procBoundary2to6
    {
        type            processor;
        value           nonuniform List<vector> 
32
(
(0.00245822 3.62447e-06 -1.80894e-05)
(0.00245066 9.04051e-06 -3.49905e-05)
(0.00246365 1.09249e-05 -2.03429e-05)
(0.00242783 1.12065e-05 -4.93918e-05)
(0.00240819 1.19376e-05 -3.55971e-05)
(0.00241242 1.35509e-05 -2.20237e-05)
(0.0024049 2.36604e-06 -7.9526e-05)
(0.00243361 2.31306e-06 -8.02302e-05)
(0.00245973 2.1339e-06 -7.85398e-05)
(0.00246077 7.50454e-07 -7.20917e-05)
(0.00248845 -1.87597e-07 -6.37416e-05)
(0.00244665 -1.77727e-07 -5.06268e-05)
(0.00246252 6.94177e-07 -3.73353e-05)
(0.00245822 3.62447e-06 -1.80894e-05)
(0.00245066 9.04051e-06 -3.49905e-05)
(0.00241527 1.44234e-06 -2.41126e-05)
(0.00236863 9.79136e-06 -7.82309e-05)
(0.00240755 1.01725e-05 -7.94112e-05)
(0.0024473 1.00042e-05 -7.85808e-05)
(0.00245275 8.10886e-06 -7.2822e-05)
(0.00247265 7.22813e-06 -6.47666e-05)
(0.00244643 6.73743e-06 -5.26044e-05)
(0.00245066 9.04051e-06 -3.49905e-05)
(0.00242783 1.12065e-05 -4.93918e-05)
(0.00245709 7.70967e-06 -3.91562e-05)
(0.00231132 1.15309e-05 -7.61765e-05)
(0.00234552 1.20425e-05 -7.72184e-05)
(0.0023752 1.14184e-05 -7.5937e-05)
(0.00238644 1.00744e-05 -7.10483e-05)
(0.00242306 9.38071e-06 -6.40841e-05)
(0.00242783 1.12065e-05 -4.93918e-05)
(0.0024112 9.57352e-06 -5.31464e-05)
)
;
    }
}


// ************************************************************************* //
