/*--------------------------------*- C++ -*----------------------------------*\
| =========                 |                                                 |
| \\      /  F ield         | OpenFOAM: The Open Source CFD Toolbox           |
|  \\    /   O peration     | Version:  4.x                                   |
|   \\  /    A nd           | Web:      www.OpenFOAM.org                      |
|    \\/     M anipulation  |                                                 |
\*---------------------------------------------------------------------------*/
FoamFile
{
    version     2.0;
    format      ascii;
    class       volScalarField;
    location    "16";
    object      QWallFluid;
}
// * * * * * * * * * * * * * * * * * * * * * * * * * * * * * * * * * * * * * //

dimensions      [1 -1 -3 0 0 0 0];

internalField   nonuniform List<scalar> 
114
(
5.34644e+08
9.30357e+08
5.74049e+08
9.5368e+08
6.50454e+08
9.98803e+08
8.33704e+08
4.48444e+08
8.72391e+08
5.33604e+08
9.12239e+08
5.98362e+08
9.53646e+08
6.30969e+08
9.82475e+08
8.36382e+08
4.55247e+08
8.71175e+08
5.46807e+08
8.90843e+08
6.42625e+08
9.73934e+08
6.81112e+08
1.00216e+09
1.68673e+09
9.39012e+08
1.7815e+09
1.09419e+09
1.84409e+09
1.27522e+09
2.00476e+09
1.46102e+09
2.11648e+09
0
0
0
0
0
0
0
0
0
0
0
0
0
0
0
0
0
0
0
0
0
0
8.27632e+08
4.51071e+08
8.58466e+08
5.11584e+08
8.94676e+08
5.60316e+08
9.25976e+08
5.843e+08
9.53161e+08
0
0
0
0
0
0
0
0
0
0
0
0
0
0
0
0
0
0
0
0
8.20869e+08
4.30067e+08
8.37115e+08
4.60373e+08
8.61826e+08
4.78054e+08
8.56069e+08
4.68352e+08
8.64643e+08
0
0
0
0
0
0
0
0
0
0
0
0
0
0
0
8.18345e+08
4.28216e+08
8.32345e+08
4.39606e+08
8.4627e+08
4.26935e+08
)
;

boundaryField
{
    inlet
    {
        type            calculated;
        value           uniform 0;
    }
    outlet
    {
        type            calculated;
        value           nonuniform 0();
    }
    wall
    {
        type            calculated;
        value           uniform 0;
    }
    procBoundary2to0
    {
        type            processor;
        value           nonuniform List<scalar> 
44
(
5.11726e+08
9.26395e+08
5.27205e+08
9.47255e+08
6.24226e+08
9.82899e+08
8.47256e+08
4.61104e+08
8.89804e+08
8.89804e+08
0
0
0
0
0
0
0
0
0
0
0
0
0
0
0
0
0
0
0
0
0
0
0
0
0
0
0
0
0
0
0
0
0
0
)
;
    }
    procBoundary2to3
    {
        type            processor;
        value           nonuniform List<scalar> 
12
(
6.71066e+08
6.42657e+08
6.90256e+08
1.55994e+09
0
0
0
5.96159e+08
0
0
0
4.63755e+08
)
;
    }
    procBoundary2to6
    {
        type            processor;
        value           nonuniform List<scalar> 
32
(
0
0
0
8.47776e+08
4.39779e+08
8.6591e+08
0
0
0
0
0
0
0
0
0
0
0
0
0
0
0
0
0
8.47776e+08
0
8.18052e+08
4.12117e+08
8.19135e+08
3.97713e+08
8.10429e+08
8.47776e+08
3.61408e+08
)
;
    }
}


// ************************************************************************* //
