/*--------------------------------*- C++ -*----------------------------------*\
| =========                 |                                                 |
| \\      /  F ield         | OpenFOAM: The Open Source CFD Toolbox           |
|  \\    /   O peration     | Version:  4.x                                   |
|   \\  /    A nd           | Web:      www.OpenFOAM.org                      |
|    \\/     M anipulation  |                                                 |
\*---------------------------------------------------------------------------*/
FoamFile
{
    version     2.0;
    format      ascii;
    class       volScalarField;
    location    "16";
    object      thCond;
}
// * * * * * * * * * * * * * * * * * * * * * * * * * * * * * * * * * * * * * //

dimensions      [1 1 -3 -1 0 0 0];

internalField   nonuniform List<scalar> 
114
(
192.416
192.389
192.567
192.334
192.579
192.392
192.797
192.538
192.55
192.513
192.258
192.35
192.084
192.105
192.217
192.98
192.639
192.59
192.516
192.514
192.48
192.315
192.294
192.166
193.089
192.934
192.749
192.723
192.852
192.821
192.822
192.54
192.565
191.283
191.104
191.481
191.211
192.247
191.962
191.719
191.577
191.487
191.44
191.111
191.283
191.442
192.301
191.867
191.654
191.589
191.577
191.551
191.437
191.406
191.427
192.458
192.268
191.941
191.925
191.868
191.887
191.809
191.732
191.795
190.782
190.702
191.651
191.608
191.336
191.114
191.043
190.837
190.617
190.78
190.864
191.886
191.577
191.23
190.945
191.025
190.988
190.784
190.818
190.716
192.029
191.608
191.46
191.268
191.422
191.19
190.972
191.207
191.003
191.415
190.989
190.717
190.662
190.579
190.537
190.422
190.378
191.406
191.109
190.784
190.76
190.624
190.545
190.391
191.705
191.309
191.099
190.87
190.9
190.739
)
;

boundaryField
{
    inlet
    {
        type            zeroGradient;
    }
    outlet
    {
        type            zeroGradient;
    }
    wall
    {
        type            zeroGradient;
    }
    procBoundary2to0
    {
        type            processor;
        value           nonuniform List<scalar> 
44
(
192.679
192.654
192.6
192.621
192.538
192.263
193.222
192.903
192.831
192.831
191.812
191.351
191.581
191.42
191.649
191.652
192.115
192.076
191.945
191.812
191.351
191.351
190.743
190.691
191.014
191.076
191.597
191.443
191.187
190.936
190.798
190.743
190.691
190.691
190.613
190.727
191.559
191.228
190.751
190.495
190.669
190.286
190.368
190.613
)
;
    }
    procBoundary2to3
    {
        type            processor;
        value           nonuniform List<scalar> 
12
(
191.846
191.816
191.826
192.154
191.056
191.08
190.876
191.239
190.402
190.394
190.708
190.674
)
;
    }
    procBoundary2to6
    {
        type            processor;
        value           nonuniform List<scalar> 
32
(
190.395
190.525
190.44
190.793
190.797
190.747
190.704
190.726
190.729
190.353
190.104
190.246
190.109
190.395
190.525
190.156
191.204
190.836
190.729
190.345
190.291
190.192
190.525
190.793
190.182
191.556
191.086
190.999
190.654
190.372
190.793
190.193
)
;
    }
}


// ************************************************************************* //
