/*--------------------------------*- C++ -*----------------------------------*\
| =========                 |                                                 |
| \\      /  F ield         | OpenFOAM: The Open Source CFD Toolbox           |
|  \\    /   O peration     | Version:  4.x                                   |
|   \\  /    A nd           | Web:      www.OpenFOAM.org                      |
|    \\/     M anipulation  |                                                 |
\*---------------------------------------------------------------------------*/
FoamFile
{
    version     2.0;
    format      ascii;
    class       volVectorField;
    location    "0.5";
    object      ddtUrel;
}
// * * * * * * * * * * * * * * * * * * * * * * * * * * * * * * * * * * * * * //

dimensions      [0 1 -2 0 0 0 0];

internalField   nonuniform List<vector> 
132
(
(0.00242665 0.000111428 -0.00394727)
(3.93201e-05 9.76065e-05 -0.00378973)
(-0.00403432 0.000144998 -0.0036383)
(-0.0108454 5.24897e-05 -0.003682)
(-0.0210609 2.00201e-05 -0.00369652)
(-0.0376943 1.88461e-05 -0.00371481)
(-0.0695509 -2.35435e-06 -0.00386264)
(-0.0833204 0.000215316 -0.0032372)
(-0.067469 0.000201644 -0.00279531)
(0.00237751 0.000435747 -0.00397335)
(-5.77795e-05 0.000332821 -0.00376295)
(-0.00400881 0.00028063 -0.00370694)
(-0.0104343 0.000198174 -0.00369174)
(-0.0205514 0.000112058 -0.0035236)
(-0.0371418 -2.34288e-05 -0.00352845)
(-0.0688607 -0.000271131 -0.00358791)
(-0.0837708 -0.00038471 -0.00299875)
(-0.0682912 -0.000281789 -0.00266614)
(0.00219949 0.000791094 -0.00404265)
(0.000158408 0.000658259 -0.00384486)
(-0.00355729 0.000519027 -0.00362795)
(-0.00961225 0.000351385 -0.00348394)
(-0.0195342 0.00017283 -0.00334333)
(-0.0356712 -6.5649e-05 -0.00342326)
(-0.0658156 -0.000490076 -0.00359793)
(-0.0785698 -0.000882282 -0.00305516)
(-0.0638374 -0.00050403 -0.00257067)
(0.00257682 0.000969855 -0.00379404)
(0.00106794 0.000873129 -0.00373768)
(-0.00333322 0.000689043 -0.00346227)
(-0.00877971 0.000456872 -0.00325239)
(-0.0183252 0.000250066 -0.00319424)
(-0.0337003 -9.96383e-05 -0.00324219)
(-0.0603825 -0.000408056 -0.00323554)
(-0.0715938 -0.000519536 -0.00267739)
(-0.0599458 -0.000255126 -0.00240542)
(-0.00379077 7.06518e-05 -0.0041434)
(-0.010559 8.03588e-05 -0.00416443)
(-0.0206193 0.000125234 -0.00414481)
(-0.0368796 7.63883e-05 -0.00414094)
(-0.0672112 2.68092e-05 -0.00404085)
(-0.0796105 0.000174016 -0.00367897)
(-0.064442 0.00014137 -0.00300764)
(0.00301028 0.000289936 -0.00456531)
(0.000640203 0.000288641 -0.00426593)
(-0.00342707 0.000289252 -0.00411205)
(-0.00994249 0.000169386 -0.00406891)
(-0.0200436 8.74348e-05 -0.0040863)
(-0.0361084 -2.62904e-05 -0.00403951)
(-0.0658169 -0.000335072 -0.00386205)
(-0.0787162 -0.000466558 -0.00358061)
(-0.0642353 -8.88108e-05 -0.00297359)
(0.00309872 0.000591819 -0.00472818)
(0.000897789 0.000693987 -0.00435524)
(-0.00275465 0.000607577 -0.00394264)
(-0.00876314 0.000242213 -0.00386023)
(-0.0189151 -1.78925e-05 -0.00396342)
(-0.0348389 -0.000167798 -0.00386332)
(-0.0632447 -0.000565752 -0.00373485)
(-0.0738984 -0.000836474 -0.00333439)
(-0.0597137 -0.00022332 -0.00260426)
(0.00258644 0.000832063 -0.00471974)
(0.00111116 0.000962921 -0.0042101)
(-0.00212521 0.000714804 -0.00379923)
(-0.00775838 0.000370424 -0.00363721)
(-0.0173806 0.000172019 -0.00367812)
(-0.0336169 -2.82337e-05 -0.00364067)
(-0.0573766 -0.000148755 -0.00338518)
(-0.0681636 -0.000258711 -0.0031439)
(-0.0568305 -9.80505e-05 -0.00253406)
(-0.0190509 0.000152484 -0.00446453)
(-0.0347789 3.39075e-05 -0.004318)
(-0.0636148 -1.59453e-05 -0.00438523)
(-0.0738557 7.6315e-05 -0.00435389)
(-0.0588309 5.36431e-05 -0.00316753)
(0.00345717 0.000174103 -0.00504888)
(0.00122412 0.000297704 -0.004553)
(-0.00254562 0.000295963 -0.00423865)
(-0.00865992 0.00014007 -0.00419464)
(-0.0182598 0.000108548 -0.00430625)
(-0.0335176 -1.89873e-05 -0.00411338)
(-0.0620506 -0.000321905 -0.00428433)
(-0.0718858 -0.0002777 -0.00428307)
(-0.0577632 -4.93567e-05 -0.0030909)
(0.00338148 0.000606816 -0.00513321)
(0.00157067 0.000815906 -0.00456484)
(-0.00182506 0.000580764 -0.00416444)
(-0.00711086 0.000210078 -0.00399145)
(-0.0168346 0.000123417 -0.00406594)
(-0.0318968 3.45075e-05 -0.00392543)
(-0.0589235 -0.000521524 -0.00389842)
(-0.0674575 -0.000665563 -0.00368951)
(-0.0547343 -8.65214e-05 -0.00266731)
(0.00305411 0.00083094 -0.00506209)
(0.00187519 0.000959926 -0.00461955)
(-0.000854871 0.0007 -0.00405974)
(-0.00554132 0.000377656 -0.00382367)
(-0.0148702 0.000303784 -0.00382226)
(-0.0297432 0.000108025 -0.0037235)
(-0.0531611 -0.00022154 -0.0035626)
(-0.0614974 -0.000377745 -0.00324067)
(-0.0521643 -7.276e-05 -0.00253994)
(-0.0601603 -5.23675e-05 -0.00445371)
(-0.0683594 0.000108418 -0.0045488)
(-0.0540897 6.4415e-05 -0.0033546)
(0.00504809 -2.75013e-05 -0.00525103)
(0.00256512 0.000218253 -0.00468477)
(-0.00108441 0.00031719 -0.00422431)
(-0.00658063 0.00023836 -0.00417281)
(-0.0156044 0.000221117 -0.00423147)
(-0.030224 4.18392e-05 -0.00406091)
(-0.0579787 -0.000207222 -0.004335)
(-0.06622 -4.56674e-05 -0.00479104)
(-0.0538053 2.68789e-05 -0.0035952)
(0.00521726 0.00073202 -0.00519848)
(0.00364148 0.000847038 -0.00467428)
(0.000875268 0.000710287 -0.00432319)
(-0.00419378 0.000407054 -0.00402326)
(-0.0144212 0.000289272 -0.00402236)
(-0.0279871 0.000179536 -0.00403504)
(-0.0526272 -0.00016611 -0.00396172)
(-0.0611964 -9.04634e-05 -0.00389444)
(-0.0511756 0.000162846 -0.0029802)
(0.00698317 0.000897058 -0.00527703)
(0.00523211 0.00084915 -0.00487154)
(0.0015517 0.000866567 -0.00422036)
(-0.00333056 0.000685604 -0.0039599)
(-0.0131728 0.000366301 -0.00399491)
(-0.0271847 0.000256396 -0.00380462)
(-0.0474968 3.17156e-05 -0.00351212)
(-0.0566334 -5.86706e-05 -0.00331842)
(-0.0485134 0.000203419 -0.00271505)
)
;

boundaryField
{
    inlet
    {
        type            calculated;
        value           nonuniform 0();
    }
    outlet
    {
        type            calculated;
        value           nonuniform List<vector> 
16
(
(-0.00453517 -0.00069454 -0.0029038)
(-0.0060934 -0.000916805 -0.00255977)
(-0.00362893 -0.00181162 -0.00236643)
(-0.00507306 0.00189766 -0.00129174)
(-0.00633028 -0.000732494 -0.00188795)
(-0.00503701 0.00153252 -0.00259146)
(-0.000306953 0.000174335 -0.00155349)
(-0.00556437 0.00133826 -0.000677514)
(-0.00333417 -0.000542893 -0.000895208)
(-0.00274769 -0.000412069 -0.00098778)
(0.000681718 -0.000510415 0.000175815)
(-0.000964886 0.000553938 -0.000656019)
(0.0203921 -0.000610786 0.00136073)
(0.00658209 -9.9957e-05 -0.00194728)
(0.00288934 0.000559146 -0.000166866)
(0.0054122 0.0014467 -0.00107045)
)
;
    }
    wall
    {
        type            calculated;
        value           nonuniform List<vector> 
66
(
(0.0358237 -0.00335539 -0.00867422)
(0.0333817 0.00697531 -0.00493064)
(0.0883024 0.00617735 -0.00465092)
(0.0153838 -6.15682e-05 -0.0049548)
(0.0216475 0.00382776 -0.00443755)
(0.0550886 0.00101917 -0.00779955)
(0.0158006 0.000834158 -0.00139239)
(0.03276 0.00191073 -0.00536556)
(0.0341141 0.0034446 -0.00231376)
(0.0158319 0.000238388 -0.00246868)
(0.0513876 0.000291918 -0.00320021)
(0.0287377 0.00280534 -0.00335919)
(0.0243048 0.0014912 -0.00435242)
(0.00984424 0.00078484 -0.00345629)
(0.0191388 1.61207e-05 -0.00578295)
(0.0454643 0.000240382 -0.000528581)
(0.0448411 0.000691485 -0.00559057)
(-0.00464184 0.00136636 -0.00383865)
(-0.140834 -0.000515221 -0.00610606)
(-0.131565 -2.90337e-05 -0.00536123)
(-0.0788209 -0.000446639 -0.00464943)
(-0.0516304 0.00141637 -0.0014377)
(-0.133044 0.00109734 -0.00980386)
(-0.0938496 0.000940027 -0.0168007)
(-0.0906299 0.00117754 -0.00692653)
(-0.0867512 0.000335366 -0.00273361)
(0.0304403 0.00031766 0.00291256)
(-0.000416043 0.000264424 -0.00483645)
(-0.00538945 0.0014884 0.000150361)
(0.0085028 0.00227572 0.000834388)
(0.0393824 0.00434477 0.00123653)
(0.00158319 0.00239433 -0.00658491)
(-0.00992033 0.00246571 -0.00503256)
(0.0401082 0.00399361 -0.00580369)
(0.0341472 0.000900796 -0.00388104)
(0.00643163 0.00331201 -0.00326374)
(-0.00461373 0.00302422 -0.00585757)
(0.0321495 0.000643793 -0.00683562)
(-0.00190506 0.000348881 -0.00347567)
(0.0081348 0.00153208 -0.00282589)
(0.0077442 0.000542867 -0.00246507)
(0.0190821 0.00253847 -0.00304112)
(0.00298884 0.000541888 -0.00244108)
(0.00326934 0.000170953 -0.00310629)
(0.0264076 -0.000990972 -0.00261194)
(0.0315511 0.00287067 -0.00324729)
(0.00412732 0.000598091 -0.00285626)
(0.0162929 0.000162331 -0.00339106)
(0.0247785 0.00178289 -0.00284983)
(0.00900422 0.000385628 -0.00528182)
(0.0127804 -0.00136455 -0.00295177)
(-0.0352269 0.000367521 -0.00528933)
(0.00964653 0.00136018 -0.00320851)
(0.0121203 0.00134314 -0.00313323)
(-0.102786 -0.00207146 -0.00452476)
(-0.0741374 0.00325705 -0.000961358)
(-0.0821218 -0.000569214 -0.00345231)
(-0.0459922 0.000958106 -0.00144916)
(-0.152652 -0.000433012 0.000293552)
(-0.136686 0.00206699 -0.0051291)
(-0.0932577 -0.0022302 -0.00319665)
(-0.0841431 -0.000273754 -0.00338396)
(-0.0240542 0.0031372 -0.00093514)
(-0.0227837 0.00222973 -0.000752227)
(-0.0106724 0.000667233 0.000303575)
(-0.00364618 0.00210637 -0.000262777)
)
;
    }
    procBoundary7to0
    {
        type            processor;
        value           uniform (0.00463956 0.00017801 -0.00420638);
    }
    procBoundary7to1
    {
        type            processor;
        value           uniform (0.00270807 -3.16123e-05 -0.00393861);
    }
    procBoundary7to3
    {
        type            processor;
        value           nonuniform List<vector> 
36
(
(0.00252998 5.01636e-05 -0.00324114)
(0.000188524 3.86373e-05 -0.00303217)
(-0.00375409 0.000225127 -0.00293018)
(-0.0104601 7.38792e-05 -0.00299605)
(-0.0205575 -3.23727e-05 -0.00302793)
(-0.0369337 3.79396e-05 -0.00310193)
(-0.0688892 4.17614e-05 -0.00317229)
(-0.0817691 0.00027907 -0.0027209)
(-0.0666914 0.000406915 -0.0028341)
(0.00233422 0.000331622 -0.00330862)
(-0.000241339 0.000317948 -0.00310749)
(-0.00411364 0.000367034 -0.0030025)
(-0.0102233 0.000268859 -0.00298027)
(-0.0201195 3.72981e-05 -0.00288647)
(-0.0365961 7.65259e-05 -0.00294106)
(-0.0688369 -0.00017404 -0.0030397)
(-0.0827757 -0.000385512 -0.00240419)
(-0.0667291 -0.000258142 -0.00250289)
(0.00157276 0.000609637 -0.00345027)
(-0.000593637 0.000877396 -0.00312254)
(-0.0040664 0.000682517 -0.00297835)
(-0.00980267 0.000553209 -0.00284545)
(-0.0192972 0.000249312 -0.00262069)
(-0.035184 0.000178062 -0.00279803)
(-0.0659603 -0.000368021 -0.00297513)
(-0.0795395 -0.000923081 -0.00251429)
(-0.0638858 -0.000538557 -0.00255164)
(0.000137701 0.000756223 -0.00333141)
(-0.00100978 0.00113076 -0.00314856)
(-0.0036106 0.000944936 -0.00285164)
(-0.00914041 0.000645465 -0.00256277)
(-0.0177733 0.000487941 -0.00242243)
(-0.0333488 0.000206842 -0.00266418)
(-0.0594136 -0.000331339 -0.00273964)
(-0.073007 -0.000715459 -0.00234028)
(-0.0611078 -0.000608969 -0.00245881)
)
;
    }
    procBoundary7to5
    {
        type            processor;
        value           nonuniform List<vector> 
44
(
(0.000458938 -3.29708e-05 -0.00368981)
(-0.00378935 -4.3282e-05 -0.00345396)
(-0.0106477 -0.000103356 -0.00355504)
(-0.0210037 -0.000113222 -0.00357493)
(-0.0373631 -4.92511e-05 -0.00357811)
(-0.0686375 0.000359449 -0.00372671)
(-0.0820485 0.000767908 -0.00319715)
(-0.0659741 0.000569887 -0.00272758)
(0.0028577 6.28439e-05 -0.00445206)
(0.000458396 6.07765e-05 -0.00425597)
(-0.00360773 -8.72818e-05 -0.00399522)
(-0.0102523 -6.76364e-05 -0.00405365)
(-0.020459 -6.0581e-05 -0.00410542)
(-0.0366769 -2.20111e-05 -0.0040529)
(-0.0667569 0.000345819 -0.00402158)
(-0.0793403 0.000774619 -0.00380337)
(-0.0634357 0.000506554 -0.00301131)
(0.0028577 6.28439e-05 -0.00445206)
(0.000458396 6.07765e-05 -0.00425597)
(0.000458396 6.07765e-05 -0.00425597)
(-0.00298962 3.97346e-05 -0.00436537)
(-0.00914067 9.42072e-05 -0.00442173)
(-0.0190096 -2.7958e-05 -0.00433737)
(-0.0343576 1.69573e-05 -0.0041634)
(-0.0623102 0.000321741 -0.00433807)
(-0.0718956 0.000485114 -0.00428863)
(-0.0587564 0.000261043 -0.00315774)
(0.00271124 -1.20618e-05 -0.00476736)
(0.000777595 -7.20826e-05 -0.00452124)
(-0.00298962 3.97346e-05 -0.00436537)
(-0.00914067 9.42072e-05 -0.00442173)
(-0.00914067 9.42072e-05 -0.00442173)
(-0.016851 0.000179825 -0.00463353)
(-0.0336317 4.35306e-05 -0.00444586)
(-0.0569356 0.000143829 -0.00423584)
(-0.0648081 0.000320498 -0.00404754)
(-0.0541047 0.000213932 -0.00312279)
(0.00344616 -0.000181919 -0.00492864)
(0.00300149 -0.00015615 -0.00459933)
(-0.00135487 6.81837e-05 -0.00453316)
(-0.00744235 0.000159277 -0.00466171)
(-0.016851 0.000179825 -0.00463353)
(-0.0336317 4.35306e-05 -0.00444586)
(-0.0336317 4.35306e-05 -0.00444586)
)
;
    }
    procBoundary7to6
    {
        type            processor;
        value           nonuniform List<vector> 
12
(
(0.00431529 0.000341269 -0.00422902)
(0.00389047 0.000541977 -0.00425985)
(0.00300336 0.000642131 -0.00424861)
(0.00480151 0.000313183 -0.00475385)
(0.00487089 0.000379318 -0.00478953)
(0.00477565 0.000470646 -0.00483309)
(0.00482809 0.000225636 -0.00521593)
(0.00487685 0.000243953 -0.00527614)
(0.00480146 0.000404127 -0.00525283)
(0.00517097 9.52062e-05 -0.00546528)
(0.00562515 0.000207585 -0.00549164)
(0.00545508 0.000401681 -0.00536085)
)
;
    }
}


// ************************************************************************* //
