/*--------------------------------*- C++ -*----------------------------------*\
| =========                 |                                                 |
| \\      /  F ield         | OpenFOAM: The Open Source CFD Toolbox           |
|  \\    /   O peration     | Version:  4.x                                   |
|   \\  /    A nd           | Web:      www.OpenFOAM.org                      |
|    \\/     M anipulation  |                                                 |
\*---------------------------------------------------------------------------*/
FoamFile
{
    version     2.0;
    format      ascii;
    class       volScalarField;
    location    "0.5";
    object      nu;
}
// * * * * * * * * * * * * * * * * * * * * * * * * * * * * * * * * * * * * * //

dimensions      [0 2 -1 0 0 0 0];

internalField   nonuniform List<scalar> 
132
(
9.99674e-07
9.9968e-07
9.99566e-07
9.99466e-07
9.99248e-07
9.99169e-07
9.99243e-07
9.99568e-07
9.97697e-07
9.99722e-07
9.99572e-07
9.99422e-07
9.99251e-07
9.99101e-07
9.99125e-07
9.99376e-07
9.99656e-07
9.99117e-07
9.99767e-07
9.99573e-07
9.99353e-07
9.99223e-07
9.99285e-07
9.99232e-07
9.99359e-07
9.99547e-07
9.99598e-07
9.99988e-07
9.9993e-07
9.99877e-07
9.9984e-07
9.99811e-07
9.99757e-07
9.99663e-07
9.99563e-07
9.97526e-07
9.99388e-07
9.99285e-07
9.9922e-07
9.99279e-07
9.995e-07
9.99879e-07
1.00018e-06
9.99609e-07
9.99429e-07
9.99249e-07
9.99188e-07
9.9929e-07
9.99471e-07
9.99673e-07
9.99849e-07
9.99947e-07
9.99675e-07
9.99524e-07
9.99369e-07
9.99278e-07
9.99321e-07
9.99382e-07
9.99492e-07
9.99655e-07
9.99895e-07
9.99983e-07
9.99922e-07
9.99878e-07
9.99851e-07
9.998e-07
9.99701e-07
9.99565e-07
9.99497e-07
9.99618e-07
9.9932e-07
9.99413e-07
9.99575e-07
9.9988e-07
1.00019e-06
9.99722e-07
9.99485e-07
9.99349e-07
9.99304e-07
9.99347e-07
9.9941e-07
9.99611e-07
9.99908e-07
1.00005e-06
9.99761e-07
9.99656e-07
9.99614e-07
9.99469e-07
9.99452e-07
9.9941e-07
9.99564e-07
9.99767e-07
9.99955e-07
1e-06
9.99953e-07
9.99906e-07
9.99859e-07
9.99778e-07
9.99636e-07
9.99483e-07
9.99645e-07
1.00003e-06
9.99788e-07
9.99735e-07
9.9932e-07
9.99954e-07
9.99892e-07
9.99848e-07
9.99781e-07
9.9966e-07
9.99456e-07
9.99342e-07
9.99547e-07
9.99808e-07
1.00004e-06
9.9998e-07
9.9992e-07
9.99849e-07
9.99738e-07
9.99571e-07
9.99477e-07
9.99539e-07
9.99755e-07
1.00013e-06
1.0001e-06
1.00005e-06
1e-06
9.99961e-07
9.99906e-07
9.99825e-07
9.99751e-07
9.98729e-07
)
;

boundaryField
{
    inlet
    {
        type            calculated;
        value           nonuniform 0();
    }
    outlet
    {
        type            calculated;
        value           uniform 1e-06;
    }
    wall
    {
        type            calculated;
        value           nonuniform List<scalar> 
66
(
9.99954e-07
1.00004e-06
1.00013e-06
9.99892e-07
9.9998e-07
1.0001e-06
9.99848e-07
9.9992e-07
1.00005e-06
9.99781e-07
9.99849e-07
1e-06
9.9966e-07
9.99738e-07
9.99961e-07
9.99456e-07
9.99571e-07
9.99906e-07
9.99788e-07
9.99342e-07
9.99477e-07
9.99825e-07
9.99735e-07
9.99547e-07
9.99539e-07
9.99751e-07
9.9932e-07
9.99808e-07
9.99755e-07
9.98729e-07
9.99988e-07
9.99983e-07
1e-06
1.00013e-06
9.9993e-07
9.99922e-07
9.99953e-07
1.0001e-06
9.99877e-07
9.99878e-07
9.99906e-07
1.00005e-06
9.9984e-07
9.99851e-07
9.99859e-07
1e-06
9.99811e-07
9.998e-07
9.99778e-07
9.99961e-07
9.99757e-07
9.99701e-07
9.99636e-07
9.99906e-07
9.99663e-07
9.99565e-07
9.99483e-07
9.99825e-07
9.99563e-07
9.99497e-07
9.99645e-07
9.99751e-07
9.97526e-07
9.99618e-07
1.00003e-06
9.98729e-07
)
;
    }
    procBoundary7to0
    {
        type            processor;
        value           uniform 9.99676e-07;
    }
    procBoundary7to1
    {
        type            processor;
        value           uniform 9.9951e-07;
    }
    procBoundary7to3
    {
        type            processor;
        value           nonuniform List<scalar> 
36
(
9.99798e-07
9.99601e-07
9.99375e-07
9.99294e-07
9.99121e-07
9.99095e-07
9.9918e-07
9.9949e-07
9.97868e-07
9.996e-07
9.99424e-07
9.99326e-07
9.99214e-07
9.99047e-07
9.98975e-07
9.99194e-07
9.99521e-07
9.97953e-07
9.99671e-07
9.99457e-07
9.99339e-07
9.99251e-07
9.99147e-07
9.99083e-07
9.99282e-07
9.99415e-07
9.99112e-07
1.00006e-06
9.99975e-07
9.99894e-07
9.99799e-07
9.99669e-07
9.99495e-07
9.99322e-07
9.99308e-07
9.98941e-07
)
;
    }
    procBoundary7to5
    {
        type            processor;
        value           nonuniform List<scalar> 
44
(
9.99361e-07
9.9923e-07
9.99214e-07
9.99237e-07
9.9938e-07
9.9956e-07
9.99757e-07
9.99666e-07
9.99678e-07
9.99551e-07
9.99269e-07
9.99227e-07
9.99246e-07
9.99351e-07
9.99573e-07
9.99806e-07
9.99891e-07
9.99678e-07
9.99551e-07
9.99551e-07
9.9945e-07
9.99334e-07
9.99323e-07
9.99338e-07
9.99517e-07
9.99764e-07
9.99652e-07
9.99775e-07
9.99557e-07
9.9945e-07
9.99334e-07
9.99334e-07
9.99854e-07
9.99835e-07
9.99592e-07
9.99549e-07
9.9952e-07
1.00001e-06
9.9994e-07
9.99899e-07
9.99872e-07
9.99854e-07
9.99835e-07
9.99835e-07
)
;
    }
    procBoundary7to6
    {
        type            processor;
        value           nonuniform List<scalar> 
12
(
9.99769e-07
9.99678e-07
1.00003e-06
9.99703e-07
9.99687e-07
1.00003e-06
9.99718e-07
9.99662e-07
1.00005e-06
1.00005e-06
1.00009e-06
1.00017e-06
)
;
    }
}


// ************************************************************************* //
