/*--------------------------------*- C++ -*----------------------------------*\
| =========                 |                                                 |
| \\      /  F ield         | OpenFOAM: The Open Source CFD Toolbox           |
|  \\    /   O peration     | Version:  4.x                                   |
|   \\  /    A nd           | Web:      www.OpenFOAM.org                      |
|    \\/     M anipulation  |                                                 |
\*---------------------------------------------------------------------------*/
FoamFile
{
    version     2.0;
    format      ascii;
    class       volVectorField;
    location    "0.5";
    object      UsPrev;
}
// * * * * * * * * * * * * * * * * * * * * * * * * * * * * * * * * * * * * * //

dimensions      [0 1 -1 0 0 0 0];

internalField   nonuniform List<vector> 
132
(
(-4.80535e-05 0.0001554 -0.000194691)
(7.43697e-08 0.000123345 -0.000159324)
(1.81853e-05 0.000104734 -0.000155935)
(2.9246e-05 9.20431e-05 -0.00018999)
(-5.63374e-06 7.52001e-05 -0.00023135)
(-3.56535e-05 7.36704e-05 -0.000207681)
(-3.47074e-05 5.16158e-05 -0.000162676)
(-2.97492e-05 2.08871e-05 -8.47371e-05)
(-7.47214e-06 4.01253e-06 -3.5068e-05)
(4.31332e-06 0.000106104 -0.000163191)
(4.34289e-05 7.83559e-05 -0.000157193)
(4.46443e-05 3.94073e-05 -0.000161896)
(4.33407e-05 3.72369e-05 -0.000208285)
(1.12739e-07 4.79514e-05 -0.000214469)
(-2.14571e-05 4.09685e-05 -0.000221573)
(-2.55563e-05 3.30755e-05 -0.000181664)
(-2.4475e-05 8.46019e-06 -8.70594e-05)
(-9.31298e-06 5.56351e-06 -3.10446e-05)
(3.00709e-05 8.66971e-05 -0.000148183)
(6.945e-05 2.95147e-05 -0.000190861)
(3.42763e-05 -3.42123e-06 -0.000198999)
(1.46731e-06 6.52293e-06 -0.000192936)
(-5.59833e-05 1.64431e-05 -0.00020955)
(-4.81422e-05 -1.23377e-06 -0.000164883)
(-2.89204e-05 1.68277e-05 -0.000116209)
(-2.51032e-05 7.13764e-06 -6.41873e-05)
(-1.21933e-06 1.27275e-05 -1.21312e-05)
(5.7304e-05 1.08545e-05 -9.71794e-05)
(2.48311e-05 -1.2934e-05 -6.87255e-05)
(-5.50413e-07 -1.62569e-05 -0.000105382)
(-3.36316e-05 4.50813e-06 -6.61316e-05)
(-4.6331e-05 -1.44699e-06 -7.98861e-05)
(-4.97636e-05 -8.1555e-06 -8.05199e-05)
(-3.24796e-05 -4.65763e-06 -5.83056e-05)
(-1.49767e-05 4.13076e-06 -1.11283e-05)
(2.46151e-06 7.78064e-06 -5.8396e-07)
(-1.83889e-05 5.14932e-05 -0.000116475)
(-1.96865e-05 5.98983e-05 -0.000129091)
(-6.90162e-05 6.31789e-05 -0.000120633)
(-5.41114e-05 5.09859e-05 -0.000143015)
(-3.65563e-05 3.44289e-05 -0.00011627)
(-2.95356e-05 2.39715e-05 -7.57184e-05)
(-1.54071e-05 5.47097e-06 -2.9473e-05)
(-2.32932e-05 0.000100512 -0.000114052)
(-2.42998e-05 4.1838e-05 -8.86916e-05)
(4.62261e-07 1.45073e-05 -0.000105403)
(-2.06727e-06 2.62264e-05 -0.000117851)
(-2.07688e-05 3.32686e-05 -0.000133702)
(-4.37255e-05 1.42215e-05 -0.000144844)
(-4.1339e-05 5.83447e-06 -0.000113509)
(-3.25973e-05 5.53142e-06 -7.20989e-05)
(-9.51855e-06 1.42751e-06 -2.60364e-05)
(-1.9418e-05 8.04505e-05 -7.31562e-05)
(-4.49686e-06 7.15931e-07 -8.13526e-05)
(-1.2436e-05 -2.23667e-05 -8.96204e-05)
(-2.78387e-05 3.50684e-06 -0.00010865)
(-2.73864e-05 1.04746e-05 -9.73605e-05)
(-6.00333e-05 -1.66423e-05 -0.000114564)
(-5.61096e-05 2.60689e-06 -9.62085e-05)
(-3.5066e-05 2.44197e-08 -4.17113e-05)
(-7.81494e-07 9.60298e-06 -1.51868e-05)
(-2.12744e-06 2.03635e-05 -2.31836e-05)
(-1.15624e-05 -1.52401e-05 -2.50453e-05)
(-1.96287e-05 -1.65179e-05 -4.18651e-05)
(-4.88438e-05 5.65134e-06 -4.90383e-05)
(-4.35405e-05 -1.77928e-07 -4.77875e-05)
(-5.22085e-05 -1.3007e-05 -6.69827e-05)
(-5.06087e-05 5.06722e-06 -4.39568e-05)
(-3.31233e-05 -2.21467e-06 -1.18346e-05)
(-2.16305e-06 1.46801e-06 -2.11291e-07)
(-6.72198e-05 3.93822e-05 -6.76611e-05)
(-6.27681e-05 3.40732e-05 -7.83888e-05)
(-5.40855e-05 2.34075e-05 -7.06313e-05)
(-4.03123e-05 1.39205e-05 -4.98269e-05)
(-1.44224e-05 7.393e-06 -1.64408e-05)
(-8.28478e-05 3.86881e-05 -7.75013e-05)
(-4.77935e-05 7.06403e-06 -7.13317e-05)
(-3.7581e-05 -1.64656e-05 -5.95496e-05)
(-4.33976e-05 1.42066e-05 -7.63752e-05)
(-4.70487e-05 2.4092e-05 -6.75413e-05)
(-4.90785e-05 2.27089e-06 -8.34849e-05)
(-4.39977e-05 1.36721e-06 -7.54884e-05)
(-3.75871e-05 8.57493e-07 -4.96124e-05)
(-1.82755e-05 -1.16901e-06 -2.05404e-05)
(-5.72217e-05 3.63213e-05 -3.02692e-05)
(-8.4063e-05 7.71307e-06 -1.15012e-05)
(-0.000455575 -0.000197414 0.000150398)
(-4.2236e-05 -6.26937e-06 -5.88223e-05)
(-4.33396e-05 2.63601e-06 -5.62409e-05)
(-4.247e-05 -2.86112e-06 -7.36976e-05)
(-5.11421e-05 3.91256e-06 -6.95397e-05)
(-4.38723e-05 -6.34123e-06 -2.93714e-05)
(-2.36253e-05 -4.0483e-06 -1.36245e-05)
(-4.49291e-05 2.1503e-05 -7.21247e-06)
(-3.95583e-05 -8.4303e-06 -8.72711e-06)
(-0.000274294 -9.62707e-05 0.000106846)
(-4.94347e-05 1.02343e-06 -3.28546e-05)
(-3.59554e-05 1.10028e-06 -3.19115e-05)
(-5.09587e-05 -1.66684e-06 -4.48614e-05)
(-5.62195e-05 1.26378e-05 -4.27491e-05)
(-2.89532e-05 -5.24655e-06 -1.39778e-05)
(-1.42786e-05 -8.03426e-06 -2.75587e-06)
(-4.43183e-05 1.51969e-05 -3.62239e-05)
(-4.38813e-05 1.65899e-05 -2.94413e-05)
(-1.13593e-05 1.04439e-05 -2.96335e-06)
(-7.38217e-05 8.77246e-06 -4.12491e-05)
(-5.7989e-05 3.42877e-06 -3.33966e-05)
(-4.75739e-05 -2.44321e-06 -2.12271e-05)
(-4.6801e-05 8.14104e-06 -2.44914e-05)
(-3.73731e-05 6.41818e-06 -3.40795e-05)
(-3.99328e-05 7.39709e-06 -4.10068e-05)
(-3.81993e-05 7.34599e-06 -3.06687e-05)
(-4.04795e-05 7.05198e-06 -1.52588e-05)
(-1.17175e-05 -3.8697e-07 -9.84291e-06)
(-6.21158e-05 1.38654e-05 -8.99339e-06)
(-5.12789e-05 1.18919e-05 -1.02472e-05)
(-4.46289e-05 1.46361e-06 -1.25483e-05)
(-4.08915e-05 -5.77521e-07 -2.08333e-05)
(-3.57787e-05 -2.79134e-06 -3.24531e-05)
(-3.42469e-05 -1.5678e-06 -3.24209e-05)
(-3.60091e-05 7.18825e-06 -3.14567e-05)
(-3.34742e-05 -1.01403e-06 -1.33622e-05)
(-1.77025e-05 -5.84733e-06 -4.88684e-06)
(-3.93732e-05 2.07539e-05 -2.99825e-06)
(-3.52335e-05 8.37874e-06 -1.11605e-07)
(-3.10306e-05 4.00908e-06 -6.70124e-07)
(-3.52629e-05 -2.24241e-06 -1.60968e-05)
(-5.51704e-05 2.49785e-06 -2.51359e-05)
(-4.05631e-05 -5.08179e-06 -2.41625e-05)
(-4.048e-05 1.64105e-06 -1.27016e-05)
(-3.56761e-05 -8.3241e-06 -8.5372e-06)
(-1.00018e-05 0.000560475 5.29152e-06)
)
;

boundaryField
{
    inlet
    {
        type            calculated;
        value           nonuniform 0();
    }
    outlet
    {
        type            calculated;
        value           uniform (0 0 0);
    }
    wall
    {
        type            calculated;
        value           uniform (0 0 0);
    }
    procBoundary7to0
    {
        type            processor;
        value           uniform (0 0 0);
    }
    procBoundary7to1
    {
        type            processor;
        value           uniform (0 0 0);
    }
    procBoundary7to3
    {
        type            processor;
        value           uniform (0 0 0);
    }
    procBoundary7to5
    {
        type            processor;
        value           uniform (0 0 0);
    }
    procBoundary7to6
    {
        type            processor;
        value           uniform (0 0 0);
    }
}


// ************************************************************************* //
