/*--------------------------------*- C++ -*----------------------------------*\
| =========                 |                                                 |
| \\      /  F ield         | OpenFOAM: The Open Source CFD Toolbox           |
|  \\    /   O peration     | Version:  4.x                                   |
|   \\  /    A nd           | Web:      www.OpenFOAM.org                      |
|    \\/     M anipulation  |                                                 |
\*---------------------------------------------------------------------------*/
FoamFile
{
    version     2.0;
    format      ascii;
    class       volVectorField;
    location    "20";
    object      Us;
}
// * * * * * * * * * * * * * * * * * * * * * * * * * * * * * * * * * * * * * //

dimensions      [0 1 -1 0 0 0 0];

internalField   nonuniform List<vector> 
132
(
(2.88376e-09 -1.30618e-09 -9.62825e-10)
(3.51874e-09 -2.05024e-09 -2.08034e-09)
(-2.49021e-09 -1.01178e-08 -2.87817e-09)
(-3.57278e-09 -9.22912e-10 1.26063e-10)
(-3.69326e-09 -2.86688e-09 1.83668e-09)
(-1.00107e-08 -2.4699e-09 4.55061e-10)
(-1.34361e-08 -2.75659e-09 -1.0573e-09)
(-2.06413e-08 5.81869e-10 -1.29978e-09)
(-2.91067e-08 7.6528e-09 -3.73918e-09)
(2.82837e-09 -2.54631e-09 -1.92436e-09)
(3.05079e-09 -3.54935e-09 -2.84584e-09)
(-2.223e-09 -6.41763e-09 -3.8822e-09)
(-4.50904e-09 -3.28307e-09 -3.35722e-09)
(-8.25585e-09 -5.61239e-09 -2.17865e-09)
(-1.58673e-08 -6.43179e-09 -1.26902e-09)
(-2.71985e-08 -3.91108e-09 -1.63312e-10)
(-3.56745e-08 1.75061e-09 8.22788e-10)
(-3.97297e-08 3.42894e-09 1.42957e-09)
(4.69017e-09 -2.2289e-09 -2.09819e-09)
(2.35438e-09 -2.94364e-09 -3.05971e-09)
(-1.4282e-09 -4.32203e-09 -4.19518e-09)
(-4.80642e-09 -5.37756e-09 -4.60508e-09)
(-1.11604e-08 -7.03381e-09 -5.86236e-09)
(-2.22862e-08 -6.33218e-09 -2.01427e-09)
(-3.06568e-08 -3.91584e-09 -8.60749e-11)
(-4.0433e-08 -2.29462e-09 -4.85777e-10)
(-4.65552e-08 2.95795e-09 -1.16473e-09)
(1.56059e-09 -1.20975e-09 -1.34364e-09)
(2.43962e-09 -1.79597e-09 -2.57427e-09)
(-5.25693e-11 -2.26989e-09 -3.66603e-09)
(3.40341e-09 -8.30026e-10 -1.04942e-09)
(3.47296e-09 -1.41595e-09 -2.46829e-09)
(1.74752e-10 -2.21631e-09 -2.44998e-09)
(-4.45664e-09 -1.81616e-09 8.91913e-10)
(-5.43471e-09 -3.12663e-09 1.4254e-09)
(-8.6936e-09 -4.81619e-09 5.07079e-10)
(-1.22507e-08 -7.84527e-10 -1.72456e-09)
(-2.11211e-08 3.15109e-10 -2.0027e-09)
(-2.23432e-08 -3.68217e-09 1.47756e-09)
(2.61167e-09 -1.7639e-09 -1.63778e-09)
(2.94143e-09 -3.29149e-09 -2.92698e-09)
(3.27188e-10 -5.17713e-09 -3.84869e-09)
(-3.9467e-09 -3.42382e-09 -3.47519e-09)
(-1.03917e-08 -5.40153e-09 -6.18673e-10)
(-1.50717e-08 -6.26146e-09 -4.1444e-10)
(-2.30318e-08 -3.49671e-09 -3.27211e-10)
(-3.10351e-08 2.27235e-09 -1.41703e-09)
(-3.80574e-08 6.31632e-09 1.27383e-09)
(3.82553e-09 -1.87436e-09 -1.58952e-09)
(1.52716e-09 -3.36e-09 -2.79919e-09)
(-1.75032e-09 -4.57433e-09 -3.9551e-09)
(-6.16903e-09 -4.52805e-09 -3.97251e-09)
(-1.48892e-08 -4.68666e-09 -2.04012e-09)
(-2.37582e-08 -5.5839e-09 -2.17936e-09)
(-3.19672e-08 -4.25363e-09 -9.28823e-10)
(-3.75131e-08 4.64481e-10 -6.5261e-10)
(-4.30007e-08 6.40552e-09 -2.44206e-09)
(2.12739e-09 -1.57727e-09 -1.41005e-09)
(1.69177e-09 -2.48647e-09 -2.56429e-09)
(-3.64479e-10 -4.49789e-09 -3.39432e-09)
(-8.444e-09 -3.52837e-09 -3.24296e-09)
(-1.45531e-08 -5.39981e-09 -5.93502e-10)
(2.62217e-09 -4.46448e-10 -7.24921e-10)
(3.99317e-09 -1.36133e-09 -1.29178e-09)
(2.57041e-09 -1.66211e-09 -7.33547e-10)
(-1.12766e-09 -2.67013e-09 -5.65083e-10)
(-3.30224e-09 -2.7082e-09 -3.10971e-10)
(-6.96652e-09 -4.53585e-09 -9.80882e-10)
(-9.06925e-09 -3.65838e-09 -2.71934e-09)
(-1.31939e-08 5.73062e-10 -1.94477e-09)
(-2.09007e-08 -2.37412e-10 1.16128e-09)
(2.7297e-09 -1.43846e-09 -1.10433e-09)
(4.65983e-09 -2.42857e-09 -1.30893e-09)
(2.55906e-09 -3.84518e-09 -1.89538e-09)
(-1.80072e-09 -4.83477e-09 -2.6442e-09)
(-7.77381e-09 -5.0066e-09 5.32951e-10)
(-1.5148e-08 -6.22221e-09 -4.15021e-10)
(-2.08859e-08 -4.99816e-09 -7.96767e-10)
(-2.67433e-08 4.49383e-10 -1.9538e-09)
(-3.47741e-08 5.96528e-09 4.98115e-10)
(2.47693e-09 -1.47332e-09 -9.53389e-10)
(2.97595e-09 -3.35241e-09 -1.59306e-09)
(-8.20113e-10 -5.3312e-09 -2.70829e-09)
(-5.96017e-09 -6.04855e-09 -2.63974e-09)
(-1.56569e-08 -6.16376e-09 3.39658e-11)
(-2.41784e-08 -5.59774e-09 -2.2065e-09)
(-2.81783e-08 -4.14504e-09 -1.57852e-09)
(-3.72812e-08 -4.53781e-10 -1.33533e-09)
(-4.23002e-08 4.136e-09 5.61247e-11)
(2.6234e-09 -9.11723e-10 -9.6048e-10)
(1.8342e-09 -1.16749e-09 -1.98976e-09)
(-4.73394e-10 -3.95693e-09 -2.22836e-09)
(-7.13111e-09 -2.88724e-09 -2.37977e-09)
(-1.83954e-08 -4.20168e-09 5.86851e-11)
(-2.47614e-08 -4.72294e-09 3.37102e-10)
(-3.34369e-08 -3.48013e-09 -2.4316e-09)
(2.08247e-09 6.06322e-10 -5.50847e-10)
(3.70896e-09 -7.19853e-10 -5.91793e-10)
(3.28528e-09 -1.44521e-09 -3.40269e-10)
(7.22779e-10 -2.34053e-09 -6.86078e-10)
(-1.43587e-09 -1.63348e-09 -1.51547e-09)
(-5.78951e-09 -3.35116e-09 -1.06841e-09)
(-8.48924e-09 -2.6816e-09 4.04515e-10)
(-1.65157e-08 -2.54916e-10 -1.05366e-09)
(-2.03731e-08 7.22335e-10 2.42952e-10)
(2.7781e-09 -9.02256e-10 -4.08842e-10)
(4.83088e-09 -2.25801e-09 -6.66921e-10)
(5.0742e-09 -4.16993e-09 -1.62287e-10)
(-1.56575e-09 -6.26434e-09 7.03917e-10)
(-7.22542e-09 -6.00035e-09 2.89549e-10)
(-1.14934e-08 -5.6666e-09 -1.19929e-09)
(-1.9174e-08 -4.39739e-09 -3.45378e-10)
(-2.5612e-08 -1.11082e-09 -1.51093e-09)
(-3.17263e-08 1.07157e-09 -1.5629e-09)
(3.85089e-09 -1.77101e-09 -3.71437e-10)
(3.9768e-09 -2.33641e-09 -3.35711e-10)
(2.2206e-09 -3.64548e-09 -6.22586e-10)
(-3.69238e-09 -4.79328e-09 1.10907e-09)
(-1.2388e-08 -7.94552e-09 9.9245e-10)
(-2.18237e-08 -4.98268e-09 -1.83396e-09)
(-3.06595e-08 -5.20956e-09 -1.50848e-09)
(-3.67182e-08 -1.87175e-09 -2.08361e-09)
(-4.05371e-08 -9.06359e-11 -8.18425e-10)
(3.71356e-09 -6.28462e-10 -4.75866e-10)
(3.42375e-09 -7.36477e-10 -4.30849e-10)
(1.77175e-09 -2.19284e-09 3.28784e-10)
(-6.84499e-09 -3.65121e-09 -3.35475e-10)
(-1.57072e-08 -5.92388e-09 -9.67021e-10)
(-2.60837e-08 -3.9586e-09 -7.77218e-10)
(-3.41589e-08 -2.85481e-09 -2.51633e-09)
(-3.74588e-08 -2.11272e-09 -1.79862e-09)
(-4.06451e-08 6.65831e-10 -3.60024e-09)
)
;

boundaryField
{
    inlet
    {
        type            zeroGradient;
    }
    outlet
    {
        type            zeroGradient;
    }
    wall
    {
        type            zeroGradient;
    }
    procBoundary0to1
    {
        type            processor;
        value           nonuniform List<vector> 
12
(
(-1.42342e-08 1.0829e-08 2.50064e-08)
(-3.79672e-08 5.46087e-09 3.33283e-09)
(-3.88939e-08 7.31007e-09 -3.94046e-09)
(-3.0505e-08 1.143e-08 1.36274e-08)
(-3.86976e-08 9.86127e-09 5.6452e-09)
(-4.24075e-08 1.05362e-08 -5.85324e-09)
(-2.05085e-08 2.64648e-09 3.76926e-10)
(-3.68236e-08 5.17998e-09 -8.18216e-10)
(-4.38033e-08 9.71844e-09 -5.18361e-09)
(-1.7184e-08 1.15746e-09 -5.32569e-10)
(-3.22344e-08 2.81384e-09 -1.49136e-09)
(-4.25701e-08 3.48059e-09 -3.39195e-09)
)
;
    }
    procBoundary0to2
    {
        type            processor;
        value           nonuniform List<vector> 
44
(
(-3.93352e-09 -3.48231e-09 -3.89852e-09)
(-1.32918e-08 -4.1925e-09 -4.99491e-09)
(-2.89912e-08 -6.88387e-09 1.85552e-09)
(-3.65504e-08 -4.85683e-09 -3.22516e-11)
(-4.23453e-08 -2.47091e-09 -1.8605e-09)
(-4.74813e-08 1.96692e-09 -3.24236e-09)
(2.98656e-08 -1.15084e-08 -2.7775e-09)
(2.24075e-09 -7.83132e-10 -2.28423e-09)
(-3.93352e-09 -3.48231e-09 -3.89852e-09)
(-8.5317e-10 -6.88383e-10 -4.65611e-09)
(-3.93352e-09 -3.48231e-09 -3.89852e-09)
(-1.32918e-08 -4.1925e-09 -4.99491e-09)
(-2.62476e-08 -6.33621e-09 7.35367e-10)
(-3.38696e-08 -5.24089e-09 -7.69854e-10)
(-4.19982e-08 -1.73893e-09 -1.31734e-09)
(-4.41127e-08 2.43382e-09 -3.58385e-09)
(2.05513e-09 -5.77056e-10 -9.03319e-10)
(2.02503e-09 -9.79179e-10 -2.56862e-09)
(-7.77563e-10 -7.81239e-10 -3.85134e-09)
(-7.11726e-09 2.55388e-10 -3.38654e-09)
(-2.62476e-08 -6.33621e-09 7.35367e-10)
(-1.27522e-08 -1.08155e-09 -1.71631e-09)
(-2.62476e-08 -6.33621e-09 7.35367e-10)
(-3.38696e-08 -5.24089e-09 -7.69854e-10)
(-3.89708e-08 -2.78445e-09 -1.67442e-09)
(-4.21886e-08 2.52934e-09 -4.14435e-09)
(2.8488e-09 -5.11202e-11 -4.21873e-10)
(2.79332e-09 -4.88693e-10 -1.25519e-09)
(-5.61641e-10 -4.31665e-10 -1.92914e-09)
(-8.01247e-09 4.95264e-10 -2.77554e-09)
(-1.50996e-08 -1.44648e-09 -1.27906e-09)
(-2.5534e-08 -4.29549e-09 1.45645e-09)
(-3.89708e-08 -2.78445e-09 -1.67442e-09)
(-3.07909e-08 -3.79269e-09 -1.16623e-10)
(-3.89708e-08 -2.78445e-09 -1.67442e-09)
(-4.21886e-08 2.52934e-09 -4.14435e-09)
(2.45513e-09 1.63509e-10 3.04928e-10)
(2.91625e-09 -3.99511e-10 7.91397e-10)
(1.75997e-10 -6.16888e-10 3.0489e-10)
(-5.41148e-09 -2.25587e-10 -1.32113e-11)
(-1.34249e-08 -1.94617e-09 4.84552e-10)
(-2.22315e-08 -1.85075e-09 1.71837e-09)
(-2.92662e-08 -2.10094e-09 -9.58237e-10)
(-3.43098e-08 -1.62667e-09 -2.79555e-09)
)
;
    }
    procBoundary0to4
    {
        type            processor;
        value           nonuniform List<vector> 
36
(
(1.68447e-09 -1.77354e-10 -1.68439e-10)
(3.44023e-09 -1.42413e-10 -1.5749e-10)
(4.44698e-09 -1.89333e-09 4.46375e-10)
(3.30011e-09 -1.92194e-09 3.96789e-10)
(1.74154e-09 -3.35644e-09 -1.19535e-10)
(-9.48563e-10 -2.36185e-09 -6.20627e-10)
(-6.68315e-09 -2.46407e-09 8.72464e-11)
(-1.15089e-08 -8.58108e-10 4.45715e-11)
(-1.08606e-08 2.01113e-09 7.22153e-10)
(2.60608e-09 -6.94336e-10 5.33766e-11)
(4.46218e-09 -2.25623e-09 -4.01586e-11)
(4.55366e-09 -2.89932e-09 6.46665e-10)
(2.40633e-09 -2.98212e-09 1.15309e-09)
(-2.26306e-09 -4.98223e-09 1.40522e-09)
(-6.71775e-09 -5.99888e-09 -1.49777e-09)
(-1.44087e-08 -5.31447e-09 6.39829e-10)
(-1.84655e-08 -9.99153e-10 -9.39843e-10)
(-2.73999e-08 1.36799e-09 2.68529e-10)
(2.76941e-09 -8.32526e-10 1.57933e-10)
(3.80001e-09 -2.146e-09 3.7247e-10)
(2.25703e-09 -2.93651e-09 6.20092e-10)
(-1.51959e-09 -2.49618e-09 2.49038e-09)
(-7.19237e-09 -4.67261e-09 1.86569e-09)
(-1.60916e-08 -6.16772e-09 -2.46055e-10)
(-2.29473e-08 -4.56648e-09 -3.96986e-10)
(-2.84176e-08 -3.31578e-09 -1.41711e-09)
(-3.30887e-08 -7.33862e-10 -3.37566e-09)
(2.51528e-09 -4.45123e-10 2.2578e-10)
(3.78073e-09 -1.16511e-09 8.5486e-10)
(1.55743e-09 -1.11091e-09 1.74401e-09)
(-2.20936e-09 -1.79396e-09 2.24687e-09)
(-1.16303e-08 -3.71693e-09 1.27038e-09)
(-2.30357e-08 -4.79894e-09 4.86011e-10)
(-2.90465e-08 -3.00678e-09 -2.4576e-09)
(-3.45855e-08 -3.85763e-09 -1.81799e-09)
(-3.71117e-08 2.16369e-10 -3.98455e-09)
)
;
    }
    procBoundary0to6
    {
        type            processor;
        value           uniform (-3.73589e-08 -1.19952e-10 -2.9181e-09);
    }
    procBoundary0to7
    {
        type            processor;
        value           uniform (-4.31843e-08 4.86073e-09 -5.41159e-09);
    }
}


// ************************************************************************* //
