/*--------------------------------*- C++ -*----------------------------------*\
| =========                 |                                                 |
| \\      /  F ield         | OpenFOAM: The Open Source CFD Toolbox           |
|  \\    /   O peration     | Version:  4.x                                   |
|   \\  /    A nd           | Web:      www.OpenFOAM.org                      |
|    \\/     M anipulation  |                                                 |
\*---------------------------------------------------------------------------*/
FoamFile
{
    version     2.0;
    format      ascii;
    class       volScalarField;
    location    "37.5";
    object      KslPrev;
}
// * * * * * * * * * * * * * * * * * * * * * * * * * * * * * * * * * * * * * //

dimensions      [1 -3 -1 0 0 0 0];

internalField   nonuniform List<scalar> 
114
(
6296.74
3149.24
5562.03
3041.48
5141.3
2894.79
3401.06
8042.57
3330.28
6943.35
3277.33
6387.66
3205.63
6122.58
3110.11
3346.29
7542.2
3224.95
6188.11
3137.56
5526.35
3034.34
5160.01
2917.82
3293.36
6753.38
3091.2
5274.21
2906.78
4499.05
2733.91
4052.38
2624.39
13167.1
3687.4
15581.2
3568.62
3444.36
9885.78
3595.23
11672.2
3692.51
14295
3731.66
18884.3
3681.09
3409.23
9183.03
3522.8
9671.49
3541.18
10157.6
3531.93
11032
3454.24
3335.21
7580.97
3296.22
6567.65
3171.04
5930.46
3082.93
5558.57
2972.84
36484.1
3712.15
3499.28
10417.5
3695.06
14200.6
3790.68
21257.7
3829.93
42803.9
3824.37
3438.41
9918.76
3628.49
12485.5
3705.48
16119
3739
24371.6
3706.92
3367.75
8114.17
3383.67
7543.03
3304.4
7029.23
3287.51
6860.7
3196.97
3507.93
11459.3
3756.67
17538.8
3834.42
29418.5
3852.32
72006.1
3460.51
9907.47
3649.26
11904.2
3686.57
13861.2
3649.41
3357.9
7983.26
3392.44
7550.69
3342.93
7137.43
)
;

boundaryField
{
    inlet
    {
        type            zeroGradient;
    }
    outlet
    {
        type            zeroGradient;
    }
    wall
    {
        type            zeroGradient;
    }
    procBoundary2to0
    {
        type            processor;
        value           uniform 0;
    }
    procBoundary2to3
    {
        type            processor;
        value           uniform 0;
    }
    procBoundary2to6
    {
        type            processor;
        value           uniform 0;
    }
}


// ************************************************************************* //
