/*--------------------------------*- C++ -*----------------------------------*\
| =========                 |                                                 |
| \\      /  F ield         | OpenFOAM: The Open Source CFD Toolbox           |
|  \\    /   O peration     | Version:  4.x                                   |
|   \\  /    A nd           | Web:      www.OpenFOAM.org                      |
|    \\/     M anipulation  |                                                 |
\*---------------------------------------------------------------------------*/
FoamFile
{
    version     2.0;
    format      ascii;
    class       volScalarField;
    location    "37.5";
    object      p;
}
// * * * * * * * * * * * * * * * * * * * * * * * * * * * * * * * * * * * * * //

dimensions      [1 -1 -2 0 0 0 0];

internalField   nonuniform List<scalar> 
114
(
5707.93
5728.63
5689.51
5721.59
5670.81
5714.85
5742.64
5725.67
5735.85
5708.06
5728.89
5689.91
5721.9
5671.42
5715.12
5742.29
5725.48
5735.58
5707.83
5728.64
5689.69
5721.68
5671.12
5714.87
5741.96
5725.34
5735.31
5707.77
5728.4
5689.79
5721.52
5671.42
5714.76
3811.81
3844.31
3792.9
3837.37
3865.65
3848.33
3858.84
3830.47
3851.72
3812.21
3844.6
3793.52
3837.62
3865.27
3848.06
3858.44
3830.12
3851.32
3811.83
3844.2
3793.12
3837.29
3864.78
3847.83
3858
3830.04
3850.96
3811.92
3843.94
3793.42
3837.12
1915.54
1959.39
1988.45
1970.78
1981.48
1953.04
1974.13
1934.95
1966.79
1916.52
1959.68
1988.13
1970.69
1981.26
1952.77
1973.95
1934.56
1966.73
1916.02
1959.61
1987.59
1970.36
1980.66
1952.58
1973.46
1934.61
1966.3
1916.08
1959.38
111.327
93.5072
104.159
75.4529
96.6976
57.2687
89.2376
39.0528
110.833
93.1548
103.68
75.1075
96.2307
56.7774
88.7788
110.222
92.8471
103.168
74.9508
95.8296
56.7188
)
;

boundaryField
{
    inlet
    {
        type            calculated;
        value           nonuniform List<scalar> 
12
(
5742.64
5742.29
5741.96
3865.65
3865.27
3864.78
1988.45
1988.13
1987.59
111.327
110.833
110.222
)
;
    }
    outlet
    {
        type            calculated;
        value           nonuniform 0();
    }
    wall
    {
        type            calculated;
        value           nonuniform List<scalar> 
66
(
6681.6
6681.25
6680.92
6664.62
6664.44
6664.3
6674.8
6674.54
6674.27
6646.88
6647.01
6646.79
6646.73
6667.59
6667.85
6667.59
6667.36
6628.46
6628.86
6628.65
6628.74
6660.55
6660.86
6660.63
6660.47
6609.77
6610.38
6610.07
6610.38
6653.81
6654.08
6653.83
6653.72
5741.96
3864.78
1987.59
110.222
5725.34
3847.83
1970.36
92.8471
5735.31
3858
1980.66
103.168
5707.77
3830.04
1952.58
74.9508
5728.4
3850.96
1973.46
95.8296
5689.79
3811.92
1934.61
56.7188
5721.52
3843.94
1966.3
5671.42
3793.42
1916.08
5714.76
3837.12
1959.38
)
;
    }
    procBoundary2to0
    {
        type            processor;
        value           nonuniform List<scalar> 
44
(
5707.93
5728.59
5689.65
5721.66
5671.4
5715
5742.6
5725.69
5735.86
5735.86
3830.37
3851.61
3812.1
3844.53
3793.6
3837.72
3865.7
3848.24
3858.8
3830.37
3851.61
3851.61
1934.24
1966.54
1915.67
1959.4
1988.57
1970.81
1981.53
1952.79
1974.03
1934.24
1966.54
1966.54
39.0553
81.7028
111.331
93.6163
104.303
75.5417
96.6982
57.3799
89.0258
39.0553
)
;
    }
    procBoundary2to3
    {
        type            processor;
        value           nonuniform List<scalar> 
12
(
5651.81
5652.96
5652.15
5652.64
3773.83
3775.08
3774.13
3774.66
1896.96
1898.47
1897.34
1897.42
)
;
    }
    procBoundary2to6
    {
        type            processor;
        value           nonuniform List<scalar> 
32
(
81.9285
38.1357
81.571
88.535
38.3258
81.5198
-1766.04
-1784.31
-1773.44
-1801.9
-1781.13
-1820
-1788.92
81.9285
38.1357
-1837.91
-1766.6
-1784.47
-1773.79
-1802.3
-1781.28
-1820.57
38.1357
88.535
-1788.75
-1767.28
-1784.79
-1774.39
-1802.44
-1781.73
88.535
-1820.68
)
;
    }
}


// ************************************************************************* //
