/*--------------------------------*- C++ -*----------------------------------*\
| =========                 |                                                 |
| \\      /  F ield         | OpenFOAM: The Open Source CFD Toolbox           |
|  \\    /   O peration     | Version:  4.x                                   |
|   \\  /    A nd           | Web:      www.OpenFOAM.org                      |
|    \\/     M anipulation  |                                                 |
\*---------------------------------------------------------------------------*/
FoamFile
{
    version     2.0;
    format      ascii;
    class       volVectorField;
    location    "37.5";
    object      Us;
}
// * * * * * * * * * * * * * * * * * * * * * * * * * * * * * * * * * * * * * //

dimensions      [0 1 -1 0 0 0 0];

internalField   nonuniform List<vector> 
114
(
(8.42698e-10 -5.25959e-10 1.42895e-09)
(1.47384e-09 -8.65146e-10 1.6766e-09)
(1.96441e-10 -1.64298e-09 2.83428e-09)
(6.6436e-10 -2.20495e-09 3.38868e-09)
(3.91862e-10 -2.9768e-09 3.94653e-09)
(3.49257e-10 -3.32584e-09 3.91767e-09)
(6.97872e-09 -2.50984e-09 -5.30496e-11)
(4.49097e-10 -1.76669e-10 7.11853e-10)
(7.31159e-10 -4.4634e-10 1.0619e-09)
(3.02381e-10 -9.0846e-10 1.45161e-09)
(-6.90493e-11 -1.27791e-09 1.45791e-09)
(-6.85315e-10 -2.01006e-09 2.18294e-09)
(-1.26121e-09 -3.63695e-09 2.83648e-09)
(-2.82811e-09 -5.40538e-09 2.64461e-09)
(-2.1398e-09 -2.90418e-09 3.50286e-09)
(3.64233e-10 -2.21746e-10 2.34779e-10)
(3.4481e-11 -1.19071e-10 3.73368e-10)
(5.19177e-10 -2.7878e-10 1.0026e-09)
(1.33797e-10 -3.14332e-10 1.0286e-09)
(2.10013e-10 -3.71393e-10 1.14285e-09)
(-5.88908e-10 -1.38032e-09 1.42388e-09)
(-9.33967e-10 -1.79503e-09 2.0049e-09)
(-2.26187e-09 -1.65873e-09 2.19628e-09)
(-1.13227e-09 -2.0987e-09 2.63634e-09)
(1.22616e-09 -2.7066e-10 2.72833e-10)
(-3.73985e-10 -3.52976e-10 2.34379e-10)
(4.2005e-10 -2.89015e-10 8.59204e-10)
(-4.60648e-10 -5.84906e-10 6.66775e-10)
(4.17369e-10 -1.27052e-09 6.58806e-10)
(-2.9836e-10 -6.32574e-10 4.54722e-10)
(-5.77135e-10 -1.44777e-09 8.81699e-10)
(-7.18298e-10 -2.4115e-09 1.51979e-09)
(-7.82845e-10 -1.44674e-09 1.69047e-09)
(1.09946e-09 -1.295e-09 2.95575e-09)
(5.90514e-10 -1.9074e-09 3.66201e-09)
(1.18375e-11 -2.16014e-09 4.15564e-09)
(1.42479e-10 -2.39835e-09 4.17148e-09)
(2.333e-10 -8.61733e-11 2.25175e-10)
(3.22342e-10 -1.20577e-10 6.71887e-10)
(4.45137e-10 -2.25462e-10 1.01765e-09)
(3.60325e-10 -6.39509e-10 1.35548e-09)
(2.51882e-10 -9.63089e-10 1.63479e-09)
(-9.97842e-10 -2.00421e-09 2.3288e-09)
(-1.31532e-09 -2.17984e-09 2.70524e-09)
(-2.02006e-09 -2.70187e-09 2.60702e-09)
(-2.01081e-09 -2.23536e-09 3.58027e-09)
(2.15769e-10 -5.546e-11 2.38533e-10)
(2.30904e-10 -6.08105e-11 3.8761e-10)
(3.72472e-10 -2.45316e-10 7.76186e-10)
(2.15649e-10 -4.16053e-10 1.01179e-09)
(8.62211e-11 -4.88697e-10 1.15358e-09)
(-4.63841e-10 -7.79553e-10 1.25147e-09)
(-1.04027e-09 -1.14741e-09 1.67752e-09)
(-1.73109e-09 -1.3847e-09 1.98318e-09)
(-2.23692e-09 -1.36793e-09 2.54578e-09)
(1.36419e-10 -7.25234e-11 1.26881e-10)
(1.32594e-10 -1.79025e-10 1.12629e-10)
(3.73145e-10 -2.76731e-10 2.58373e-10)
(2.0865e-10 -3.00113e-10 4.77985e-10)
(1.88235e-10 -4.73334e-10 5.24117e-10)
(-1.84949e-10 -5.37335e-10 6.08006e-10)
(-4.37335e-10 -7.41863e-10 6.03474e-10)
(-8.89286e-10 -5.62956e-10 8.09098e-10)
(-7.54244e-10 -6.50682e-10 7.20299e-10)
(1.59928e-09 -1.15069e-09 3.83615e-09)
(9.96465e-10 -1.39346e-09 4.03396e-09)
(1.82489e-10 -2.12188e-10 2.69911e-10)
(1.45274e-10 -2.47159e-10 6.84432e-10)
(5.65246e-10 -2.5293e-10 9.45222e-10)
(3.36958e-10 -5.77821e-10 1.34645e-09)
(3.55415e-10 -9.60739e-10 1.75486e-09)
(-2.63965e-10 -1.45903e-09 2.24337e-09)
(-2.62288e-10 -1.50279e-09 2.42142e-09)
(-9.51308e-10 -1.64039e-09 2.7994e-09)
(-1.33768e-09 -1.62757e-09 3.15995e-09)
(7.66328e-11 -1.03215e-11 1.28344e-10)
(-6.07013e-11 -1.51692e-10 4.93657e-10)
(2.3592e-10 -8.2149e-11 8.58621e-10)
(1.92102e-10 -2.07113e-10 1.12411e-09)
(6.04072e-11 -5.08936e-10 1.25843e-09)
(-3.12826e-10 -5.94463e-10 1.23024e-09)
(-5.88518e-10 -8.18649e-10 1.44418e-09)
(-8.93481e-10 -1.01664e-09 2.1482e-09)
(-1.40478e-09 -1.23358e-09 2.26713e-09)
(1.53056e-10 -1.46963e-10 1.2669e-10)
(-3.44024e-11 -1.29802e-10 2.14595e-10)
(8.30006e-11 -2.28721e-10 2.37386e-10)
(-2.34084e-10 -3.98131e-10 5.34331e-10)
(2.33063e-10 -2.5347e-10 6.05015e-10)
(8.78026e-12 -2.84011e-10 6.40347e-10)
(-1.15361e-10 -1.66136e-10 8.07713e-10)
(-6.36949e-10 -2.24208e-10 9.4288e-10)
(-6.5677e-10 -6.19728e-10 1.27164e-09)
(1.68341e-10 -6.92112e-11 1.17551e-10)
(3.47407e-10 -3.39828e-10 3.97904e-10)
(8.69475e-10 -4.25401e-10 7.85036e-10)
(6.59759e-10 -5.07551e-10 1.0176e-09)
(8.03969e-10 -5.84852e-10 1.58157e-09)
(1.01486e-09 -7.95932e-10 1.44448e-09)
(1.11257e-09 -1.09921e-09 2.32575e-09)
(1.02077e-09 -1.45673e-09 2.34194e-09)
(9.9479e-11 6.2169e-11 2.3798e-11)
(1.47396e-10 -1.73875e-10 3.62991e-10)
(5.81409e-10 -1.34613e-10 4.66063e-10)
(5.10673e-10 -2.78742e-10 7.56795e-10)
(6.73674e-10 -4.594e-10 1.00236e-09)
(4.06767e-10 -5.36921e-10 1.13234e-09)
(5.56797e-10 -3.92781e-10 1.16131e-09)
(5.06363e-11 -1.30027e-10 8.44708e-11)
(-5.63501e-11 -1.40559e-10 1.52166e-10)
(2.07058e-10 -9.27593e-11 2.85331e-10)
(1.13989e-10 -2.43115e-10 2.56728e-10)
(6.16784e-10 -2.04208e-10 5.18352e-10)
(1.21155e-10 -2.81643e-10 4.42363e-10)
)
;

boundaryField
{
    inlet
    {
        type            zeroGradient;
    }
    outlet
    {
        type            zeroGradient;
    }
    wall
    {
        type            zeroGradient;
    }
    procBoundary2to0
    {
        type            processor;
        value           nonuniform List<vector> 
44
(
(7.61104e-10 -3.93288e-10 1.13155e-09)
(9.03811e-10 -9.80193e-10 1.43289e-09)
(-8.18229e-10 -2.14038e-10 2.25774e-09)
(2.26843e-11 -7.56881e-10 2.73751e-09)
(-8.6669e-10 -1.39058e-09 3.4555e-09)
(4.34727e-10 -2.17395e-09 3.80985e-09)
(5.14936e-10 3.01995e-10 4.21186e-10)
(6.75687e-10 2.8947e-10 7.943e-10)
(9.31482e-10 -1.44064e-10 9.66626e-10)
(9.31482e-10 -1.44064e-10 9.66626e-10)
(1.25433e-09 -6.25118e-10 1.6387e-09)
(1.20906e-09 -8.37381e-10 1.97828e-09)
(5.1668e-11 -9.02994e-10 1.97447e-09)
(1.51772e-10 -7.46922e-10 3.01458e-09)
(-1.29332e-10 -1.0607e-09 3.67981e-09)
(2.10816e-10 -7.78217e-10 4.49982e-09)
(3.9868e-10 2.08025e-10 5.90087e-10)
(7.12969e-10 1.79534e-10 9.80013e-10)
(1.31624e-09 9.98671e-11 1.24048e-09)
(1.25433e-09 -6.25118e-10 1.6387e-09)
(1.20906e-09 -8.37381e-10 1.97828e-09)
(1.20906e-09 -8.37381e-10 1.97828e-09)
(1.54538e-09 -8.15198e-10 2.44989e-09)
(2.66857e-09 -1.33812e-09 2.57263e-09)
(1.0106e-09 -4.36136e-10 3.34152e-09)
(-6.16801e-11 1.46119e-09 4.85827e-09)
(2.01532e-10 -2.1429e-11 4.71476e-10)
(9.90484e-10 -4.83694e-10 9.66215e-10)
(1.71586e-09 -5.06698e-10 1.09353e-09)
(1.88189e-09 -6.88645e-10 1.52266e-09)
(1.94974e-09 -1.05626e-09 2.00108e-09)
(1.54538e-09 -8.15198e-10 2.44989e-09)
(2.66857e-09 -1.33812e-09 2.57263e-09)
(2.66857e-09 -1.33812e-09 2.57263e-09)
(2.79726e-09 -5.01694e-10 2.3734e-09)
(1.68852e-09 -8.19657e-10 3.68384e-09)
(2.54469e-10 2.58141e-11 3.01342e-10)
(6.76276e-10 -2.24121e-10 4.15941e-10)
(1.8807e-09 -1.05955e-10 4.95176e-10)
(2.23976e-09 -5.87931e-11 6.80501e-10)
(3.28086e-09 7.44537e-12 9.66008e-10)
(2.57808e-09 -3.64336e-10 1.87642e-09)
(3.29556e-09 -6.65957e-10 2.29646e-09)
(2.79726e-09 -5.01694e-10 2.3734e-09)
)
;
    }
    procBoundary2to3
    {
        type            processor;
        value           nonuniform List<vector> 
12
(
(-4.9175e-10 -5.28815e-09 6.9055e-09)
(-5.08342e-09 -4.66109e-09 6.02744e-09)
(-2.86583e-09 -1.98493e-09 3.78191e-09)
(-1.81785e-09 -2.2802e-09 1.39902e-09)
(-7.62788e-10 -4.09582e-09 7.20564e-09)
(-3.71224e-09 -3.16653e-09 5.43525e-09)
(-3.07763e-09 -2.29916e-09 3.86986e-09)
(-1.8725e-09 -1.23399e-09 1.61113e-09)
(1.31871e-09 -2.3468e-09 5.56906e-09)
(-1.09674e-09 -3.20052e-09 4.95525e-09)
(-1.51591e-09 -1.45864e-09 3.55215e-09)
(-1.02478e-09 -7.33705e-10 1.61826e-09)
)
;
    }
    procBoundary2to6
    {
        type            processor;
        value           nonuniform List<vector> 
32
(
(1.22766e-09 -5.11804e-10 2.21855e-09)
(4.60431e-10 -8.57126e-10 1.47822e-09)
(5.78166e-10 -1.37205e-09 1.70634e-09)
(1.46784e-10 -1.129e-10 4.93176e-10)
(5.52878e-11 -3.35059e-10 8.91088e-10)
(3.45705e-10 -4.96853e-10 7.39425e-10)
(2.28078e-10 -2.04767e-10 1.59525e-10)
(2.08762e-10 -4.21295e-10 3.15657e-10)
(4.08273e-10 -3.50261e-10 5.20471e-10)
(3.6361e-10 -2.61071e-10 7.26641e-10)
(1.10678e-09 -4.638e-10 1.18151e-09)
(8.11919e-10 -4.41418e-10 9.08791e-10)
(1.01814e-09 -6.07672e-10 1.45408e-09)
(1.22766e-09 -5.11804e-10 2.21855e-09)
(4.60431e-10 -8.57126e-10 1.47822e-09)
(9.11783e-10 -1.10105e-09 1.33902e-09)
(9.21854e-11 1.77991e-11 -2.71848e-11)
(-4.36151e-11 -1.03431e-10 1.50511e-10)
(2.25675e-10 -4.90029e-11 2.42787e-10)
(9.40691e-11 -9.59736e-11 3.60927e-10)
(3.33425e-10 -3.31324e-10 5.97824e-10)
(3.05176e-10 -3.92295e-10 6.48077e-10)
(4.60431e-10 -8.57126e-10 1.47822e-09)
(1.46784e-10 -1.129e-10 4.93176e-10)
(5.30259e-10 -7.48692e-10 5.95336e-10)
(5.20429e-11 -7.6418e-12 2.66751e-11)
(-6.04953e-10 -3.01523e-10 6.3279e-11)
(9.51691e-11 -8.16594e-11 1.12673e-10)
(1.31459e-10 -1.28699e-10 1.17618e-10)
(1.54392e-10 -1.12496e-10 2.41398e-10)
(1.46784e-10 -1.129e-10 4.93176e-10)
(1.02969e-10 -1.96886e-10 2.99824e-10)
)
;
    }
}


// ************************************************************************* //
