/*--------------------------------*- C++ -*----------------------------------*\
  =========                 |
  \\      /  F ield         | OpenFOAM: The Open Source CFD Toolbox
   \\    /   O peration     | Website:  https://openfoam.org
    \\  /    A nd           | Version:  4.x
     \\/     M anipulation  |
\*---------------------------------------------------------------------------*/
FoamFile
{
    version     2.0;
    format      ascii;
    class       vectorField;
    location    0;
    object      v;
}
// * * * * * * * * * * * * * * * * * * * * * * * * * * * * * * * * * * * * * //

325
(
( 6.87444e-07 2.73138e-07 -2.93924e-07 )  
( 1.37376e-06 1.53311e-07 -5.09259e-07 )  
( 5.70521e-07 3.70159e-07 -5.45804e-07 )  
( 1.46678e-06 2.97853e-07 -6.33019e-07 )  
( 2.01965e-06 4.25445e-07 -1.35183e-06 )  
( 1.76882e-06 2.31181e-07 -8.96666e-07 )  
( 4.05668e-07 1.06644e-07 -1.12151e-07 )  
( 3.8288e-07 2.71205e-08 -2.23097e-07 )  
( 9.33741e-07 3.80418e-07 -3.3366e-07 )  
( 3.97155e-07 2.63511e-07 -1.60127e-07 )  
( 1.02195e-06 2.29112e-07 -6.89261e-07 )  
( 1.77759e-06 5.90466e-07 -1.16422e-06 )  
( 2.19411e-06 6.82802e-07 -1.73474e-06 )  
( 7.50015e-07 2.65954e-07 -5.0605e-07 )  
( 3.86913e-07 5.92363e-08 -4.7951e-07 )  
( 1.70978e-06 5.46737e-07 -1.03679e-06 )  
( 9.91646e-07 3.14635e-07 -3.51568e-07 )  
( 1.50329e-06 2.10107e-07 -6.24727e-07 )  
( 1.59515e-06 1.39859e-07 -8.42229e-07 )  
( 2.4145e-06 4.19936e-07 -1.35193e-06 )  
( 1.11177e-06 2.7127e-07 -4.57187e-07 )  
( 2.1119e-06 4.88961e-07 -1.51717e-06 )  
( 1.43933e-06 4.42429e-07 -7.8034e-07 )  
( 2.30433e-06 6.97868e-07 -1.21075e-06 )  
( 5.95241e-07 -1.63793e-08 -1.44059e-07 )  
( 2.26479e-06 5.57377e-07 -1.43053e-06 )  
( 1.13004e-06 2.52063e-07 -4.63399e-07 )  
( 6.92331e-07 4.04586e-07 -6.71587e-07 )  
( 1.89068e-06 3.5934e-07 -9.6592e-07 )  
( 7.54626e-07 3.96231e-07 -9.72956e-07 )  
( 1.71697e-06 2.7352e-07 -1.05946e-06 )  
( 1.928e-06 1.68577e-07 -9.50759e-07 )  
( 6.34207e-07 1.10687e-07 -7.63377e-07 )  
( 1.70021e-06 3.97273e-07 -6.40031e-07 )  
( 1.459e-06 1.75972e-07 -6.1766e-07 )  
( 5.43139e-07 4.39355e-09 -1.61371e-07 )  
( 1.11117e-06 2.74269e-07 -4.26559e-07 )  
( 1.86119e-06 7.1729e-07 -1.27065e-06 )  
( 2.10114e-06 3.8836e-07 -1.24888e-06 )  
( 1.16873e-06 5.2218e-07 -1.33016e-06 )  
( 7.23392e-07 4.02655e-07 -2.70485e-07 )  
( 1.26956e-06 2.80661e-07 -6.06497e-07 )  
( 8.92167e-07 1.79776e-07 -3.54634e-07 )  
( 2.00147e-06 3.72329e-07 -1.16684e-06 )  
( 8.80306e-07 1.50065e-07 -6.22189e-07 )  
( 9.74023e-07 5.39976e-07 -1.0946e-06 )  
( 2.14925e-06 6.73647e-07 -1.34549e-06 )  
( 7.45938e-07 1.7299e-07 -2.4274e-07 )  
( 9.6387e-07 5.31573e-07 -6.99042e-07 )  
( 1.39129e-06 2.9513e-07 -8.2704e-07 )  
( 8.56122e-07 1.2426e-07 -3.04676e-07 )  
( 2.22417e-06 5.61757e-07 -1.23591e-06 )  
( 2.29139e-06 4.57506e-07 -1.10167e-06 )  
( 1.51932e-06 5.41435e-07 -1.26195e-06 )  
( 2.99501e-07 2.12636e-08 -4.67139e-07 )  
( 1.60372e-06 2.83304e-07 -7.15959e-07 )  
( 2.77499e-06 4.99734e-07 -1.51399e-06 )  
( 2.2547e-07 1.03863e-07 -1.06108e-07 )  
( 2.12557e-06 6.93205e-07 -1.57731e-06 )  
( 2.61573e-07 1.19498e-07 -1.33204e-07 )  
( 1.60783e-06 9.0353e-08 -6.86882e-07 )  
( 7.35118e-07 6.97181e-08 -1.73201e-07 )  
( 4.57213e-07 2.30795e-07 -2.71838e-07 )  
( 1.7566e-06 3.55327e-07 -1.41285e-06 )  
( 1.30322e-06 3.414e-07 -5.76966e-07 )  
( 7.72824e-07 -2.6427e-10 -5.47144e-07 )  
( 1.55731e-06 4.15063e-07 -7.61741e-07 )  
( 1.13746e-06 6.49989e-07 -9.66635e-07 )  
( 9.98503e-07 4.2806e-07 -8.25563e-07 )  
( 1.16928e-06 2.32911e-07 -4.71336e-07 )  
( 1.1455e-06 3.17374e-07 -5.30045e-07 )  
( 2.04231e-06 5.39234e-07 -6.87035e-07 )  
( 4.98661e-07 2.28741e-07 -5.97025e-07 )  
( 1.71045e-06 4.80139e-07 -1.10625e-06 )  
( 1.31122e-06 -5.83881e-08 -5.13313e-07 )  
( 2.44568e-06 3.59276e-07 -1.48724e-06 )  
( -7.0353e-08 3.96914e-08 -1.44464e-07 )  
( 1.26967e-06 6.19031e-07 -9.70654e-07 )  
( 1.42805e-06 1.34693e-07 -7.26518e-07 )  
( 1.85427e-06 4.62752e-07 -1.18519e-06 )  
( 1.6992e-06 1.59618e-07 -7.88789e-07 )  
( 1.28869e-06 6.31547e-07 -1.29908e-06 )  
( 2.46744e-06 3.69168e-07 -1.4122e-06 )  
( 1.43353e-06 4.73691e-07 -1.0062e-06 )  
( 1.56495e-06 3.82632e-07 -1.26389e-06 )  
( 8.7592e-07 2.31095e-07 -1.74579e-07 )  
( 9.90253e-07 2.97663e-07 -8.77607e-07 )  
( 1.76954e-07 1.08051e-08 -1.23197e-07 )  
( 1.80892e-06 2.18577e-07 -1.22947e-06 )  
( 1.01109e-08 9.52045e-08 -2.47931e-07 )  
( 3.82552e-07 1.72895e-07 -1.98934e-07 )  
( 9.50875e-07 3.66679e-08 -4.04489e-07 )  
( 1.70602e-06 4.7229e-07 -1.13862e-06 )  
( 3.42045e-07 2.63236e-08 -1.8963e-07 )  
( 3.33841e-07 8.36463e-08 -1.56753e-07 )  
( 1.49398e-06 5.88906e-08 -7.52612e-07 )  
( 4.94833e-07 9.98544e-08 -2.98475e-07 )  
( 6.32105e-07 1.10643e-07 -3.8227e-07 )  
( 1.03524e-06 8.87773e-07 -1.07079e-06 )  
( 1.15974e-06 4.60015e-07 -7.3776e-07 )  
( 8.32284e-07 3.26957e-07 -7.24744e-07 )  
( 5.05474e-07 2.53275e-08 -3.81918e-07 )  
( 1.47691e-06 4.09119e-07 -5.67365e-07 )  
( 4.87916e-07 3.09977e-07 -3.59141e-07 )  
( 4.89622e-07 -7.12267e-08 -1.98829e-07 )  
( 5.47547e-07 2.48495e-07 -2.38129e-07 )  
( 1.77417e-06 3.80432e-07 -4.51429e-07 )  
( 1.13353e-06 1.32874e-07 -8.56136e-07 )  
( 2.93327e-07 4.01197e-07 -2.68119e-07 )  
( 7.45717e-07 3.10587e-07 -3.41625e-07 )  
( 1.13838e-06 3.12275e-07 -4.70806e-07 )  
( 8.03004e-07 1.74314e-07 -3.10564e-07 )  
( -1.08348e-07 -1.33842e-08 -6.56675e-08 )  
( 1.57216e-08 1.51425e-07 -4.63257e-07 )  
( -5.63835e-08 3.87523e-08 -1.55256e-07 )  
( 1.11328e-06 2.17635e-08 -6.21256e-07 )  
( 8.26899e-07 2.77123e-07 -3.29444e-07 )  
( 8.54633e-08 4.28152e-08 -2.01462e-07 )  
( 1.94246e-07 3.65321e-08 -6.41375e-09 )  
( 1.05721e-06 3.59668e-07 -1.10735e-06 )  
( 9.08862e-07 2.7194e-07 -2.84951e-07 )  
( 3.67168e-07 6.75053e-08 -6.17589e-07 )  
( 3.37039e-08 2.31671e-08 -2.43004e-07 )  
( 3.20842e-07 8.46698e-08 -3.39636e-07 )  
( 1.09089e-06 -2.83547e-08 -3.33819e-07 )  
( 1.95423e-07 1.76966e-07 -3.94189e-07 )  
( 3.8136e-07 2.74898e-07 -3.00975e-07 )  
( 4.33107e-07 1.87242e-07 -7.82494e-07 )  
( 2.58859e-07 7.13597e-08 -1.19904e-07 )  
( 6.78178e-07 3.32613e-07 -2.53762e-07 )  
( 5.1273e-07 2.73473e-07 -2.54774e-07 )  
( 1.10586e-06 6.53399e-07 -6.50038e-07 )  
( 1.32564e-06 3.03214e-07 -7.96594e-07 )  
( 5.55581e-07 1.65565e-07 -2.53378e-07 )  
( 6.6314e-07 1.97178e-07 -4.05665e-07 )  
( 8.08343e-07 2.98722e-07 -8.24113e-07 )  
( 1.02608e-06 1.4014e-08 -7.42606e-07 )  
( 1.65818e-08 3.67693e-08 -1.08962e-07 )  
( 2.2069e-08 1.97987e-07 1.30107e-07 )  
( 1.2731e-06 1.83521e-07 -5.45101e-07 )  
( 3.35773e-07 1.90526e-07 -1.23489e-07 )  
( 4.40825e-07 4.51383e-07 -6.09238e-07 )  
( 9.75029e-07 9.93232e-08 -5.06123e-07 )  
( 1.18208e-06 4.10775e-07 -5.72232e-07 )  
( 1.51233e-06 2.01802e-07 -6.46189e-07 )  
( 1.29083e-06 3.95529e-07 -3.77084e-07 )  
( 4.52594e-07 6.49644e-08 -6.00962e-07 )  
( 2.34072e-07 6.62237e-08 -3.16359e-08 )  
( 4.26896e-07 2.07482e-07 -2.23723e-07 )  
( 4.65255e-07 2.94406e-07 -2.84561e-07 )  
( 6.82792e-07 1.13918e-07 -2.42705e-07 )  
( 1.08363e-06 3.10911e-07 -7.10721e-07 )  
( 8.2e-07 -8.55804e-08 -2.6445e-07 )  
( 1.94093e-07 2.46247e-08 -4.8356e-07 )  
( 9.17012e-07 -2.71557e-08 -7.01083e-07 )  
( 1.14747e-06 6.623e-07 -4.29496e-07 )  
( 1.49259e-06 2.02969e-08 -7.16073e-07 )  
( 2.48052e-07 1.09644e-07 -5.26168e-08 )  
( 1.3403e-06 2.29367e-07 -6.52523e-07 )  
( 1.77649e-06 5.0268e-07 -1.22135e-06 )  
( 6.76647e-07 1.23835e-07 -3.48983e-07 )  
( 1.16641e-06 2.87125e-07 -4.59232e-07 )  
( 7.65856e-07 4.26802e-07 -4.69412e-07 )  
( -5.01302e-08 1.21252e-07 -1.65115e-07 )  
( 1.03871e-06 2.5352e-07 -3.76541e-07 )  
( 7.43602e-07 2.09261e-07 -8.25736e-07 )  
( 4.39133e-07 2.08771e-07 -2.21992e-07 )  
( 2.00623e-08 1.57278e-07 -4.69112e-07 )  
( 1.52212e-06 4.0008e-07 -5.48426e-07 )  
( 1.48877e-06 3.93803e-07 -1.13667e-06 )  
( 8.42154e-07 1.46946e-07 -5.90857e-07 )  
( 1.55747e-06 2.83821e-08 -6.92256e-07 )  
( 1.27499e-06 1.90607e-07 -7.35938e-07 )  
( 1.28379e-06 4.65729e-07 -6.1294e-07 )  
( 4.52195e-07 9.74693e-08 -3.91359e-07 )  
( 4.1442e-07 1.51984e-07 -1.61013e-07 )  
( 7.15774e-07 3.29984e-07 -3.15405e-07 )  
( 5.83289e-07 6.73054e-08 -2.42888e-07 )  
( 8.23786e-08 3.47243e-08 -2.41549e-07 )  
( 6.66666e-07 1.2889e-07 -6.09532e-07 )  
( 1.59333e-06 3.58435e-07 -7.64381e-07 )  
( 1.91614e-06 4.4113e-07 -6.84378e-07 )  
( 1.49877e-06 3.82027e-07 -6.43326e-07 )  
( 6.32319e-07 2.62413e-07 -6.58198e-07 )  
( 1.08839e-06 1.83267e-07 -5.33045e-07 )  
( 2.1652e-07 6.27233e-08 -5.38897e-08 )  
( 9.69932e-07 1.50752e-07 -6.08273e-07 )  
( 6.01728e-07 4.4135e-07 -9.93782e-07 )  
( 9.05197e-07 3.21865e-07 -3.88881e-07 )  
( 4.8213e-07 2.40031e-07 -1.95469e-07 )  
( 3.14107e-07 1.49692e-07 -1.55675e-07 )  
( 2.30821e-07 9.36159e-08 -5.16623e-08 )  
( 9.25258e-07 -3.04007e-07 -7.46037e-07 )  
( 2.46105e-07 2.59435e-07 -2.20385e-07 )  
( 2.27659e-09 2.91476e-07 -1.96243e-07 )  
( 1.71331e-06 2.34371e-07 -8.00765e-07 )  
( 4.44157e-07 3.11641e-08 -1.64473e-07 )  
( 1.34786e-06 2.90932e-07 -3.33436e-07 )  
( 2.87963e-07 1.93879e-07 -6.58782e-07 )  
( 6.17618e-07 2.62131e-07 -2.96617e-07 )  
( 8.29183e-07 7.1671e-08 -4.81222e-07 )  
( 1.0561e-06 9.51408e-08 -5.45894e-07 )  
( 1.09227e-06 4.03756e-07 -1.13516e-06 )  
( 1.81422e-07 7.38955e-08 -6.50881e-08 )  
( 1.46671e-06 5.49008e-07 -6.09339e-07 )  
( -8.57679e-08 -2.76337e-08 -1.18661e-07 )  
( 6.30439e-07 2.65293e-07 -2.48159e-07 )  
( 9.41016e-07 2.05401e-07 -3.45639e-07 )  
( 4.39788e-07 1.6081e-07 -8.12209e-07 )  
( -3.56446e-08 1.21161e-07 -3.21493e-07 )  
( 3.83359e-07 1.02412e-07 -1.2253e-07 )  
( 1.04817e-07 -1.10325e-08 -3.13415e-07 )  
( 1.3295e-06 2.2354e-07 -1.12668e-06 )  
( -2.5676e-07 6.88568e-08 -5.02329e-08 )  
( 4.0856e-07 3.06734e-07 -2.96495e-07 )  
( -8.24749e-08 6.28192e-07 -1.98705e-07 )  
( 3.23436e-07 1.2529e-07 -1.36204e-07 )  
( 6.01723e-07 5.12146e-07 -3.34174e-07 )  
( 2.65801e-07 1.42795e-07 -5.4596e-07 )  
( 8.71286e-07 4.01824e-07 -1.49549e-07 )  
( 8.68883e-07 2.38051e-07 -3.32168e-07 )  
( 1.7403e-06 5.74951e-07 -6.42968e-07 )  
( 1.98556e-07 -2.88151e-07 -1.75677e-07 )  
( 8.64017e-08 -7.81932e-11 -3.25766e-07 )  
( 5.65593e-07 1.31142e-07 -2.38434e-07 )  
( 2.73687e-08 4.12024e-08 -1.1352e-07 )  
( 9.48716e-07 2.03181e-07 -1.64098e-07 )  
( 1.45923e-06 4.29828e-07 -9.65302e-07 )  
( 1.27251e-06 4.39173e-07 -4.59937e-07 )  
( 1.31462e-06 1.52832e-07 -5.68575e-07 )  
( 1.25831e-06 2.58247e-07 -3.92105e-07 )  
( 5.41707e-07 3.83915e-07 -2.20018e-07 )  
( 1.43174e-06 9.97899e-08 -6.24684e-07 )  
( 1.4217e-07 3.54544e-08 -1.09206e-07 )  
( 1.26394e-07 -3.18786e-07 -5.13766e-07 )  
( 1.36182e-06 1.92498e-07 -1.08474e-06 )  
( -3.57781e-08 -8.0261e-08 -3.05274e-07 )  
( 4.66045e-07 7.09214e-08 -2.69906e-07 )  
( -7.21984e-08 1.48768e-08 -4.07513e-08 )  
( 1.50824e-07 1.65363e-07 -1.56706e-07 )  
( 1.41057e-06 2.27181e-07 -3.95929e-07 )  
( 2.30263e-07 4.75619e-08 -1.20849e-07 )  
( 8.18486e-08 1.69255e-07 -1.62368e-07 )  
( 4.43602e-07 7.03236e-08 -3.28162e-07 )  
( 3.7106e-07 1.98727e-07 -1.59688e-07 )  
( 6.00943e-07 2.38047e-07 -1.76578e-07 )  
( 7.51222e-07 -8.76712e-08 -5.209e-07 )  
( 3.63958e-07 -2.13079e-07 -1.12004e-07 )  
( 7.13561e-07 3.39096e-07 -2.12373e-07 )  
( 7.85621e-08 -5.87663e-08 -2.3903e-07 )  
( 6.1695e-07 3.37448e-07 -3.60426e-07 )  
( 1.95741e-07 -9.78758e-09 -1.13804e-07 )  
( 1.22028e-07 6.57497e-08 -1.01199e-07 )  
( 3.90437e-07 9.23494e-08 -4.39983e-07 )  
( 2.9745e-07 4.48593e-07 -1.85759e-07 )  
( 1.03739e-06 -1.00947e-07 -3.09611e-07 )  
( 7.12625e-07 1.49072e-07 -2.72947e-07 )  
( 1.08126e-06 -1.74346e-08 -5.42533e-07 )  
( 6.61469e-07 2.32642e-07 -2.13103e-07 )  
( 8.70686e-07 2.93091e-07 -3.3029e-07 )  
( 1.46697e-07 7.61098e-08 -1.15075e-07 )  
( 3.43388e-07 6.30131e-07 -2.88621e-07 )  
( 2.18558e-07 -7.96773e-08 -1.2348e-07 )  
( 4.65899e-07 1.31509e-07 -2.36294e-07 )  
( -9.44519e-08 4.14401e-08 -4.11434e-08 )  
( 3.60296e-07 3.48655e-08 -9.93075e-08 )  
( -1.43497e-07 1.8494e-07 -4.34017e-08 )  
( 9.23046e-07 4.0491e-07 -2.52799e-07 )  
( 3.18722e-07 1.57844e-07 -1.58004e-07 )  
( 3.55505e-07 7.71611e-08 -1.9558e-07 )  
( 1.65942e-07 1.67761e-07 -3.13754e-07 )  
( -8.03169e-08 -9.62498e-09 -4.20681e-08 )  
( 3.12457e-07 8.81605e-08 -5.90572e-08 )  
( 4.23258e-07 1.80122e-07 -2.00531e-07 )  
( -5.94442e-08 4.07373e-08 -1.33953e-07 )  
( 8.97995e-07 -3.72422e-08 -3.50117e-07 )  
( -6.20408e-08 3.82446e-08 -2.09263e-07 )  
( 7.75613e-07 1.59807e-07 -3.28372e-07 )  
( 1.46221e-07 4.71471e-08 -2.75735e-08 )  
( 8.0332e-07 7.62699e-08 -3.71359e-07 )  
( 9.49234e-07 3.5916e-07 -2.26433e-07 )  
( 3.4469e-07 7.60546e-08 -5.12107e-08 )  
( -4.57858e-08 -6.65788e-08 -2.17802e-07 )  
( 4.01267e-07 -2.40045e-07 -2.18254e-07 )  
( -1.32312e-08 3.04708e-08 -1.96374e-07 )  
( 5.30244e-07 3.80667e-07 -2.78328e-07 )  
( 7.14747e-07 1.55056e-07 -1.48128e-07 )  
( 5.14734e-07 3.69165e-07 -1.8956e-07 )  
( 1.13079e-07 3.04273e-08 -2.25216e-08 )  
( 4.13833e-08 1.57928e-07 -1.88578e-07 )  
( -5.90362e-08 -7.05802e-09 -7.27266e-08 )  
( 2.42187e-07 1.44639e-07 -1.6935e-07 )  
( 4.21444e-07 -3.63225e-08 -1.04225e-07 )  
( 1.13193e-07 -6.2966e-08 -3.64792e-08 )  
( 1.15356e-07 -2.55846e-07 -1.7423e-07 )  
( -1.07538e-07 2.18234e-07 -8.15817e-08 )  
( 1.99049e-07 4.49331e-08 -1.80274e-07 )  
( 8.66417e-09 1.59473e-07 -8.57676e-08 )  
( 6.12233e-07 -3.73543e-07 2.78732e-08 )  
( 3.25506e-07 1.29697e-07 -1.09146e-07 )  
( 2.00145e-07 6.61478e-09 -1.65234e-07 )  
( 4.77243e-07 1.63558e-08 -1.84291e-07 )  
( 4.35689e-07 1.41367e-07 -1.76842e-07 )  
( 4.81143e-07 1.09323e-07 -2.43708e-07 )  
( 3.38917e-07 -6.79061e-09 -1.77324e-07 )  
( -1.66951e-07 8.22993e-08 1.59116e-08 )  
( -6.59085e-08 -9.72564e-09 -1.8357e-08 )  
( 3.65618e-07 1.75312e-07 -1.58673e-07 )  
( 8.72207e-08 -4.1059e-08 -1.46585e-07 )  
( 1.4128e-07 9.33543e-08 -1.28085e-08 )  
( 1.58292e-07 -2.23891e-08 -5.03497e-08 )  
( 5.29835e-07 3.32666e-07 -1.10632e-07 )  
( 9.53456e-08 6.01645e-08 -6.37803e-08 )  
( 2.09501e-07 5.27797e-08 -7.25549e-08 )  
( 2.63413e-07 2.15901e-07 -1.01783e-07 )  
( -3.67511e-06 2.84215e-06 -7.09209e-08 )  
( 3.03041e-07 5.50837e-08 -1.54481e-07 )  
( 2.65737e-07 -4.89388e-10 -6.7797e-08 )  
( -2.65634e-08 4.63977e-08 -1.81307e-07 )  
( 4.32934e-07 2.0727e-07 -1.32075e-07 )  
( 8.94866e-08 9.54061e-09 2.13781e-08 )  
( -1.75622e-07 2.44088e-07 -8.72488e-08 )  
( -3.81069e-08 2.9236e-07 -7.4987e-08 )  
( -2.00287e-08 3.47274e-08 -1.65102e-07 )  
( 1.49972e-07 1.22889e-08 -1.58904e-07 )  
)
