/*--------------------------------*- C++ -*----------------------------------*\
  =========                 |
  \\      /  F ield         | OpenFOAM: The Open Source CFD Toolbox
   \\    /   O peration     | Website:  https://openfoam.org
    \\  /    A nd           | Version:  4.x
     \\/     M anipulation  |
\*---------------------------------------------------------------------------*/
FoamFile
{
    version     2.0;
    format      ascii;
    class       Cloud<passiveParticle>;
    location    0;
    object      positions;
}
// * * * * * * * * * * * * * * * * * * * * * * * * * * * * * * * * * * * * * //

302
(
( 0.252951 0.0900605 -0.0560083 ) 63
( 0.250491 0.0316069 -0.0549617 ) 45
( 0.250313 0.0300033 -0.0351762 ) 81
( 0.254096 0.0692917 -0.0504847 ) 54
( 0.251072 0.0682248 -0.0700095 ) 54
( 0.25057 0.0107685 -0.0752952 ) 0
( 0.250132 0.0359348 -0.07438 ) 9
( 0.256049 0.0312894 -0.0150853 ) 81
( 0.381205 -0.0139748 -0.0338232 ) 76
( 0.421076 -0.0111284 -0.0808265 ) 6
( 0.473706 -0.00617589 -0.0415338 ) 80
( 0.324566 -0.0105104 -0.0764116 ) 2
( 0.404019 -0.00383733 -0.0735715 ) 5
( 0.490065 -0.0109781 -0.0578568 ) 44
( 0.371749 -0.0059254 -0.0492983 ) 40
( 0.468681 -0.00181507 -0.0854859 ) 7
( 0.342671 -0.00284594 -0.0731271 ) 3
( 0.334718 -0.0140308 -0.0328697 ) 75
( 0.439323 -0.00179977 -0.0578433 ) 42
( 0.321676 -0.0118074 -0.0474387 ) 38
( 0.360843 -0.000893439 -0.0651547 ) 39
( 0.310679 -0.00597529 -0.0628279 ) 38
( 0.354276 -0.0122725 -0.0387188 ) 75
( 0.272164 -0.00318004 -0.0685337 ) 36
( 0.283871 -0.0122288 -0.0389952 ) 73
( 0.436716 0.00061191 -0.0773674 ) 6
( 0.490042 -0.0122235 -0.0777389 ) 8
( 0.302446 -0.00849756 -0.0445127 ) 37
( 0.394181 -0.00441925 -0.0448629 ) 41
( 0.472405 -0.0116092 -0.0684839 ) 44
( 0.275405 -0.0100751 -0.0201274 ) 72
( 0.473078 -0.0126281 -0.0212274 ) 80
( 0.387671 0.026523 -0.0548225 ) 49
( 0.303922 0.0718708 -0.0648306 ) 64
( 0.337054 0.0639258 -0.0467999 ) 57
( 0.325566 0.016494 -0.0484844 ) 47
( 0.443426 0.037631 -0.0466948 ) 51
( 0.286684 0.0646673 -0.0583113 ) 55
( 0.331277 0.0508311 -0.0605741 ) 56
( 0.45533 0.0130263 -0.085916 ) 7
( 0.369696 0.0348426 -0.0532812 ) 49
( 0.490046 0.0227676 -0.0532096 ) 53
( 0.324549 0.0376405 -0.0747002 ) 11
( 0.293303 0.0258618 -0.0575543 ) 46
( 0.379248 0.00960335 -0.0642787 ) 40
( 0.470493 0.0687445 -0.0577954 ) 61
( 0.431397 0.0711053 -0.0625258 ) 60
( 0.456064 0.0710506 -0.0785236 ) 25
( 0.342783 0.0322408 -0.0689553 ) 48
( 0.320167 0.0460748 -0.0447208 ) 56
( 0.301039 0.0613553 -0.0452 ) 55
( 0.368774 0.0542564 -0.0494173 ) 58
( 0.35379 0.0455097 -0.0592191 ) 57
( 0.324413 0.0853673 -0.0375388 ) 101
( 0.353102 0.0835959 -0.0694804 ) 66
( 0.452538 0.0772177 -0.055592 ) 70
( 0.286545 0.0901349 -0.0312208 ) 100
( 0.417194 0.0203292 -0.0480678 ) 51
( 0.334406 0.0725852 -0.0645412 ) 66
( 0.388253 0.0701358 -0.0536366 ) 58
( 0.471224 0.0901257 -0.0645158 ) 70
( 0.473995 0.0680753 -0.0382089 ) 98
( 0.490005 0.0146616 -0.0838813 ) 17
( 0.265392 0.0160716 -0.0366374 ) 81
( 0.399915 0.0666818 -0.0694243 ) 59
( 0.327137 0.028522 -0.0321583 ) 83
( 0.349281 0.0640711 -0.0205202 ) 93
( 0.395545 0.0137058 -0.077997 ) 5
( 0.306366 0.0317723 -0.0403228 ) 83
( 0.302991 0.0349256 -0.0724003 ) 10
( 0.458151 0.0434174 -0.0606186 ) 61
( 0.272564 0.0513284 -0.054333 ) 54
( 0.410992 0.0510388 -0.0599588 ) 59
( 0.457334 0.024263 -0.0515225 ) 52
( 0.430497 0.0826001 -0.0787191 ) 33
( 0.365745 0.0410831 -0.0348539 ) 85
( 0.316058 0.0314599 -0.0577021 ) 47
( 0.473523 0.0304717 -0.0613384 ) 53
( 0.366668 0.0114847 -0.079666 ) 4
( 0.290873 0.0900194 -0.0505464 ) 64
( 0.269166 0.0164581 -0.0710895 ) 45
( 0.405333 0.0262665 -0.0640978 ) 50
( 0.474273 0.0474032 -0.0500903 ) 62
( 0.441162 0.0386925 -0.0695581 ) 51
( 0.419595 0.0138286 -0.0704029 ) 42
( 0.346484 0.0806605 -0.0509248 ) 66
( 0.438816 0.055858 -0.040483 ) 96
( 0.437453 0.0204331 -0.0763653 ) 15
( 0.478473 0.074878 -0.0750715 ) 35
( 0.33461 0.0338889 -0.0508199 ) 48
( 0.380794 0.0380957 -0.0694395 ) 49
( 0.460892 0.0406581 -0.0375747 ) 88
( 0.40146 0.0836787 -0.0593781 ) 68
( 0.363274 0.0533896 -0.0747623 ) 22
( 0.280448 0.0682306 -0.0395414 ) 91
( 0.422413 0.0628924 -0.0782233 ) 24
( 0.371425 0.0898972 -0.0742472 ) 31
( 0.396989 0.0211213 -0.0382188 ) 86
( 0.347167 0.0156412 -0.0790317 ) 12
( 0.352743 0.0296459 -0.0442979 ) 48
( 0.273477 0.0789191 -0.0546938 ) 63
( 0.489996 0.0338869 -0.0785398 ) 17
( 0.384236 0.0740436 -0.0841412 ) 31
( 0.458143 0.0291059 -0.0743967 ) 16
( 0.424225 0.0430587 -0.0792267 ) 24
( 0.287388 0.0824257 -0.0685666 ) 64
( 0.430912 0.0736641 -0.04294 ) 69
( 0.490014 0.0897168 -0.0822925 ) 35
( 0.293575 0.0526682 -0.072575 ) 19
( 0.326577 0.00584059 -0.065192 ) 38
( 0.293777 0.0110489 -0.0709072 ) 37
( 0.351058 0.0159351 -0.0300844 ) 84
( 0.490038 0.0536931 -0.0821213 ) 26
( 0.413033 0.0679762 -0.0496087 ) 59
( 0.319353 0.0691 -0.077089 ) 20
( 0.45789 0.0583059 -0.0463299 ) 61
( 0.380896 0.00956915 -0.0399846 ) 76
( 0.473273 0.010744 -0.0537183 ) 44
( 0.472205 0.0135689 -0.0733414 ) 7
( 0.284002 0.0211026 -0.0407727 ) 82
( 0.269305 0.0318519 -0.0485079 ) 45
( 0.361818 0.0187355 -0.0617597 ) 49
( 0.472148 0.0230648 -0.0383428 ) 88
( 0.308228 0.0495525 -0.0293197 ) 92
( 0.37103 0.0729215 -0.0630237 ) 67
( 0.437722 0.090097 -0.0616533 ) 69
( 0.428956 0.00664902 -0.0395821 ) 78
( 0.488678 0.0765082 -0.0485541 ) 71
( 0.39129 0.0508079 -0.0566732 ) 59
( 0.474862 0.04976 -0.0697875 ) 62
( 0.406187 0.0514801 -0.0805745 ) 23
( 0.398405 0.0717386 -0.0366255 ) 104
( 0.392306 0.0901505 -0.0757868 ) 32
( 0.412502 0.0900745 -0.0746528 ) 32
( 0.274004 0.00935152 -0.0531995 ) 36
( 0.43654 0.0198877 -0.0540094 ) 51
( 0.444081 0.0900546 -0.0430242 ) 69
( 0.356205 0.0063593 -0.047203 ) 39
( 0.329765 0.0900767 -0.0560286 ) 65
( 0.490195 0.0413597 -0.0601304 ) 53
( 0.433048 0.0252964 -0.0351671 ) 87
( 0.342613 0.0154998 -0.0583415 ) 48
( 0.363814 0.0727303 -0.0445212 ) 67
( 0.490254 0.0379966 -0.0405798 ) 89
( 0.469739 0.0900447 -0.0845882 ) 34
( 0.419457 0.0507344 -0.041902 ) 96
( 0.283581 0.0519592 -0.0219657 ) 91
( 0.425772 0.0902838 -0.0339623 ) 105
( 0.363568 0.0902187 -0.0539487 ) 67
( 0.300584 0.0106004 -0.0394614 ) 73
( 0.265865 0.0902248 -0.0403274 ) 99
( 0.300797 0.0440602 -0.0548548 ) 55
( 0.342892 0.0554619 -0.0759991 ) 21
( 0.352752 0.0652278 -0.0617645 ) 57
( 0.398342 0.00855463 -0.0590207 ) 41
( 0.382865 0.0900378 -0.0579802 ) 67
( 0.417411 0.00157369 -0.0549216 ) 42
( 0.448741 0.0080747 -0.0435325 ) 43
( 0.295665 0.0668576 -0.0270924 ) 91
( 0.385409 0.0566716 -0.038696 ) 94
( 0.490527 0.0901597 -0.0624028 ) 71
( 0.399041 0.0329491 -0.0817793 ) 14
( 0.308346 0.0129602 -0.0574393 ) 38
( 0.490128 0.0523885 -0.0263949 ) 98
( 0.490051 0.0903481 -0.0346527 ) 107
( 0.270784 0.0663032 -0.069939 ) 54
( 0.307725 0.0800348 -0.0470749 ) 65
( 0.46431 0.090077 -0.0459539 ) 70
( 0.322019 0.0657767 -0.0339957 ) 92
( 0.490099 0.0045683 -0.0449963 ) 44
( 0.490014 0.0627424 -0.0643559 ) 62
( 0.266393 0.0471449 -0.0727774 ) 18
( 0.430987 0.0512672 -0.0580809 ) 60
( 0.347235 0.0904316 -0.0339164 ) 102
( 0.311552 0.0901638 -0.0638467 ) 65
( 0.405474 0.0902582 -0.0410585 ) 104
( 0.490359 0.0573021 -0.0452943 ) 62
( 0.382634 0.0575487 -0.0732138 ) 22
( 0.455417 0.0494999 -0.0793514 ) 25
( 0.473224 0.0277032 -0.087375 ) 17
( 0.267328 0.0901231 -0.0697995 ) 63
( 0.381395 0.0824929 -0.0396631 ) 103
( 0.452347 0.0118993 -0.0662693 ) 43
( 0.445199 0.0893986 -0.0903664 ) 34
( 0.375174 0.024845 -0.0286514 ) 85
( 0.335155 0.0900463 -0.0751267 ) 30
( 0.453647 0.0899828 -0.0727889 ) 34
( 0.318622 0.0646733 -0.0536257 ) 56
( 0.286937 0.0479905 -0.0411007 ) 91
( 0.447802 0.0599697 -0.0641893 ) 61
( 0.315783 0.0197599 -0.0745696 ) 11
( 0.474018 0.0715849 -0.0148978 ) 107
( 0.393411 0.0606361 -0.0209775 ) 95
( 0.410603 0.0815424 -0.0242992 ) 104
( 0.317485 0.0369815 -0.0168951 ) 83
( 0.455537 0.0776435 -0.0162658 ) 106
( 0.390619 0.0155787 -0.0202822 ) 86
( 0.490002 0.0185228 -0.0308292 ) 89
( 0.323716 0.0606498 -0.0149575 ) 92
( 0.363299 0.0817802 -0.0270128 ) 103
( 0.407698 0.0246407 -0.0171531 ) 86
( 0.440588 0.00382899 -0.0235242 ) 78
( 0.466788 0.0229657 -0.0192451 ) 88
( 0.348654 0.0850806 -0.0144128 ) 102
( 0.380625 0.0455416 -0.0230156 ) 94
( 0.447756 0.0607633 -0.023551 ) 97
( 0.431084 0.0440256 -0.0265434 ) 96
( 0.39295 0.090237 -0.0254504 ) 104
( 0.414749 0.043021 -0.0155199 ) 95
( 0.458246 0.00596864 -0.0147243 ) 79
( 0.490067 0.0721726 -0.0271405 ) 107
( 0.439559 0.0251549 -0.0164789 ) 87
( 0.305743 0.0221484 -0.0230727 ) 83
( 0.423849 0.0142607 -0.021288 ) 78
( 0.269654 0.0900713 -0.0207667 ) 99
( 0.333257 0.0124269 -0.0221112 ) 74
( 0.414951 0.0620439 -0.0262606 ) 95
( 0.330941 0.0782695 -0.0202862 ) 101
( 0.27055 0.0348184 -0.0288998 ) 81
( 0.380651 0.0750779 -0.02133 ) 103
( 0.471459 0.0895455 -0.0275663 ) 106
( 0.490085 0.08996 -0.0146744 ) 107
( 0.25953 0.0468929 -0.0400198 ) 90
( 0.255917 -0.000336635 -0.057232 ) 36
( 0.459511 -0.0033575 -0.0558504 ) 43
( 0.321384 -0.00175864 -0.0157076 ) 74
( 0.362261 0.0334523 -0.0751422 ) 13
( 0.419439 0.0900503 -0.0548655 ) 69
( 0.318692 0.00539548 -0.0337675 ) 74
( 0.489752 0.00725243 -0.0654078 ) 44
( 0.409339 0.00579477 -0.0368499 ) 77
( 0.280217 0.0330488 -0.0706028 ) 46
( 0.265822 0.056405 -0.0145008 ) 90
( 0.442745 0.090352 -0.0234679 ) 105
( 0.4747 0.00637388 -0.0261893 ) 80
( 0.262341 0.0723149 -0.0327042 ) 99
( 0.387678 -0.00840573 -0.0631286 ) 40
( 0.423706 0.0331968 -0.0619714 ) 51
( 0.268963 0.0104222 -0.017994 ) 72
( 0.428008 -0.0128028 -0.0421373 ) 78
( 0.266103 -0.00364257 -0.0404444 ) 72
( 0.396541 -0.00297992 -0.0244289 ) 77
( 0.33726 0.000502652 -0.0461812 ) 39
( 0.254353 -0.00878663 -0.075255 ) 0
( 0.331239 0.0476233 -0.0280756 ) 92
( 0.455449 0.0751372 -0.035955 ) 106
( 0.376886 -0.00564171 -0.0795945 ) 4
( 0.312947 0.0524044 -0.0681684 ) 56
( 0.402861 0.0374006 -0.0478812 ) 50
( 0.253131 0.0510278 -0.0583786 ) 54
( 0.288844 -0.00309452 -0.0577932 ) 37
( 0.348917 0.049602 -0.040478 ) 93
( 0.313781 -0.0138381 -0.0291825 ) 74
( 0.415422 0.0333668 -0.0331405 ) 86
( 0.347316 -0.00227806 -0.023007 ) 75
( 0.49014 -0.0098068 -0.0310307 ) 80
( 0.290405 0.0340759 -0.027436 ) 82
( 0.277639 0.0714129 -0.0199716 ) 90
( 0.367986 0.0606088 -0.0266307 ) 94
( 0.365297 0.00205508 -0.030255 ) 76
( 0.452233 0.0238675 -0.032212 ) 88
( 0.305725 0.0854488 -0.0280753 ) 101
( 0.477 0.0378435 -0.0261725 ) 89
( 0.250374 0.0141006 -0.0235164 ) 72
( 0.420177 -0.00486473 -0.0242534 ) 78
( 0.350162 0.0418087 -0.0224307 ) 84
( 0.468204 0.0552768 -0.0242794 ) 97
( 0.295155 -0.0110143 -0.0230214 ) 73
( 0.431873 0.0737051 -0.0229913 ) 105
( 0.286611 0.006727 -0.0261836 ) 73
( 0.456895 -0.00495595 -0.0310974 ) 79
( 0.399549 0.0436498 -0.0284287 ) 95
( 0.449902 0.0412081 -0.0212615 ) 88
( 0.346297 -0.0137523 -0.0568909 ) 39
( 0.281687 -0.0119749 -0.0836301 ) 1
( 0.470906 0.0602017 -0.0862776 ) 25
( 0.380471 0.02504 -0.0844815 ) 13
( 0.383934 0.0443718 -0.0881055 ) 22
( 0.300292 0.0676418 -0.0839501 ) 19
( 0.347346 0.0394275 -0.0869662 ) 12
( 0.445095 0.0342666 -0.0885825 ) 16
( 0.275599 0.0792282 -0.0843072 ) 27
( 0.28292 0.0196966 -0.0851778 ) 10
( 0.329362 0.00858202 -0.084714 ) 2
( 0.278752 0.0564526 -0.085333 ) 19
( 0.363992 0.0721265 -0.0816298 ) 31
( 0.302049 0.0873545 -0.0811263 ) 28
( 0.311079 0.0459321 -0.0869187 ) 20
( 0.266331 0.0307606 -0.0847196 ) 9
( 0.343065 0.0738481 -0.083672 ) 30
( 0.356925 0.0900349 -0.0879361 ) 30
( 0.407988 0.0742817 -0.0859796 ) 32
( 0.253333 0.0900639 -0.0839453 ) 27
( 0.417147 0.0257532 -0.0861607 ) 15
( 0.308648 0.00220979 -0.0808624 ) 2
( 0.438048 0.0547998 -0.0875761 ) 24
( 0.260826 0.0655652 -0.0871942 ) 18
( 0.289941 0.0392348 -0.0868681 ) 10
( 0.302203 0.023435 -0.0886902 ) 10
( 0.32053 0.088357 -0.0885492 ) 29
( 0.265796 0.00372708 -0.0861061 ) 0
( 0.328118 0.0560331 -0.0893623 ) 20
)
