/*--------------------------------*- C++ -*----------------------------------*\
| =========                 |                                                 |
| \\      /  F ield         | OpenFOAM: The Open Source CFD Toolbox           |
|  \\    /   O peration     | Version:  4.x                                   |
|   \\  /    A nd           | Web:      www.OpenFOAM.org                      |
|    \\/     M anipulation  |                                                 |
\*---------------------------------------------------------------------------*/
FoamFile
{
    version     2.0;
    format      ascii;
    class       volScalarField;
    location    "52.5";
    object      alpha.iron;
}
// * * * * * * * * * * * * * * * * * * * * * * * * * * * * * * * * * * * * * //

dimensions      [0 0 0 0 0 0 0];

internalField   nonuniform List<scalar> 
108
(
1
1
1
1
1
1
1
1
0.999902
1
1
1
1
1
1
1
1
0.999999
1
1
1
1
1
1
1
1
0.999925
1
1
1
1
1
1
1
1
1.01539
1
1
1
1
1
1
1
0.999999
0.999952
1
1
1
1
1
1
1
0.999999
0.999988
1
1
1
1
1
1
1
1
0.999961
1
1
1
1
1
1
1
1
0.999816
1
1
1
1
1
0.999999
0.999999
0.999998
0.999983
1
1
1
1
1
0.999999
0.999999
0.999998
0.999989
1
1
1
1
1
1
1
0.999999
0.999967
1
1
1
1
1
1
1
1
0.999875
)
;

boundaryField
{
    inlet
    {
        type            fixedValue;
        value           nonuniform 0();
    }
    outlet
    {
        type            fixedValue;
        value           uniform 1;
    }
    wall
    {
        type            zeroGradient;
    }
    procBoundary3to1
    {
        type            processor;
        value           nonuniform List<scalar> 
27
(
1
1
1
1
1
1
1
1
0.999729
1
1
1
1
1
1
0.999999
0.999999
0.99997
1
1
1
1
1
0.999999
0.999999
0.999998
0.999971
)
;
    }
    procBoundary3to2
    {
        type            processor;
        value           nonuniform List<scalar> 
12
(
1
1
1
1
1
1
1
1
1
1
1
1
)
;
    }
    procBoundary3to7
    {
        type            processor;
        value           nonuniform List<scalar> 
36
(
1
1
1
1
1
0.999999
0.999998
0.999997
0.999982
1
1
1
1
1
0.999999
0.999999
0.999998
0.999971
1
1
1
1
1
1
1
0.999999
0.999937
1
1
1
1
1
1
1
1
0.999888
)
;
    }
}


// ************************************************************************* //
