/*--------------------------------*- C++ -*----------------------------------*\
| =========                 |                                                 |
| \\      /  F ield         | OpenFOAM: The Open Source CFD Toolbox           |
|  \\    /   O peration     | Version:  4.x                                   |
|   \\  /    A nd           | Web:      www.OpenFOAM.org                      |
|    \\/     M anipulation  |                                                 |
\*---------------------------------------------------------------------------*/
FoamFile
{
    version     2.0;
    format      ascii;
    class       volVectorField;
    location    "52.5";
    object      DDtUrel;
}
// * * * * * * * * * * * * * * * * * * * * * * * * * * * * * * * * * * * * * //

dimensions      [0 1 -2 0 0 0 0];

internalField   nonuniform List<vector> 
108
(
(0.000172882 -1.54336e-06 2.74548e-05)
(9.53426e-05 -6.53263e-06 1.312e-05)
(8.45145e-05 -2.05708e-05 1.12777e-05)
(-7.28194e-05 -4.46982e-05 -3.09907e-05)
(-0.000133306 -5.06259e-05 -5.86555e-05)
(-0.000490759 -9.29232e-05 -0.000208713)
(-0.000753449 -7.1665e-05 -0.000343857)
(-0.0017825 -0.00027099 -0.000752273)
(-0.00304538 -0.000470052 -0.00115805)
(0.000134667 -8.90832e-06 3.62229e-05)
(5.54233e-05 -7.62632e-06 2.27599e-05)
(1.20114e-05 -6.70267e-06 2.48788e-05)
(-0.000122001 2.90085e-08 -1.41825e-05)
(-0.000252035 1.0227e-05 -5.32632e-05)
(-0.000519518 3.07742e-05 -0.000185135)
(-0.000925524 5.7775e-05 -0.000367341)
(-0.00162628 0.000135261 -0.000668532)
(-0.00245114 0.000217782 -0.000956078)
(0.000194891 -1.83771e-05 3.93025e-05)
(0.000110074 -1.29908e-05 3.44613e-05)
(9.61581e-05 -4.39053e-06 3.09456e-05)
(-5.31394e-05 3.53602e-05 1.40228e-06)
(-8.98672e-05 4.58392e-05 -4.34236e-05)
(-0.000440289 0.000130643 -0.000186529)
(-0.000664769 0.00012622 -0.00039487)
(-0.00184869 0.000494548 -0.000820796)
(-0.0032822 0.000770463 -0.00111443)
(0.000234245 -4.28672e-05 3.96301e-05)
(0.000140649 -4.49749e-05 3.54375e-05)
(0.000119967 -2.96081e-05 2.9373e-05)
(-2.46818e-05 -2.20172e-06 -6.00015e-07)
(-5.89951e-05 3.72778e-05 -4.85893e-05)
(-0.000421076 9.05301e-05 -0.000191305)
(-0.000655815 0.000172964 -0.00046364)
(-0.00199863 0.00035492 -0.00114559)
(-0.00364078 0.000333758 -0.00147804)
(0.000108292 1.30213e-06 2.22416e-05)
(4.62245e-05 -3.24828e-06 9.56712e-06)
(2.14884e-05 -1.06951e-05 6.79174e-06)
(-9.90564e-05 -1.87801e-05 -3.11758e-05)
(-0.000197378 -2.75477e-05 -5.86849e-05)
(-0.000482602 -3.68716e-05 -0.000186602)
(-0.000805726 -5.25908e-05 -0.000312755)
(-0.00154084 -9.18173e-05 -0.000737142)
(-0.00245719 -0.000137882 -0.00108246)
(9.17192e-05 -6.89261e-06 2.56605e-05)
(3.75145e-05 -6.70483e-06 1.46197e-05)
(-5.77427e-06 -7.04267e-06 8.42847e-06)
(-0.000109567 1.4417e-06 -2.57234e-05)
(-0.000236235 9.35926e-06 -6.612e-05)
(-0.000484895 4.21168e-05 -0.000186571)
(-0.00086268 7.70826e-05 -0.000351143)
(-0.0014929 0.000230957 -0.000680881)
(-0.00222352 0.000414585 -0.00102548)
(0.000142263 -2.09628e-05 2.66795e-05)
(7.59712e-05 -1.32203e-05 1.13543e-05)
(7.179e-05 -1.3357e-05 1.26023e-05)
(-5.39483e-05 2.31296e-05 -3.39369e-05)
(-8.5101e-05 3.05615e-05 -5.79234e-05)
(-0.000407622 0.000129399 -0.000219605)
(-0.000635866 0.000154123 -0.000370925)
(-0.0017143 0.000568973 -0.000934571)
(-0.00294618 0.000891607 -0.00146687)
(0.000171146 -3.95714e-05 2.46673e-05)
(9.29277e-05 -3.9557e-05 7.94449e-06)
(8.31848e-05 -2.93585e-05 6.65232e-06)
(-4.55406e-05 -3.69246e-06 -3.66943e-05)
(-6.47567e-05 3.12598e-05 -6.10299e-05)
(-0.000389034 9.98142e-05 -0.000213504)
(-0.000566547 0.000192036 -0.000410753)
(-0.00179616 0.000406914 -0.00115879)
(-0.00329722 0.000384967 -0.00170688)
(4.98522e-05 -6.95977e-07 1.61524e-05)
(4.85861e-06 -3.74089e-06 4.69417e-06)
(-3.54749e-05 -8.545e-06 -2.3716e-06)
(-0.000128733 -1.44572e-05 -3.00317e-05)
(-0.000256626 -1.5913e-05 -5.42193e-05)
(-0.000481636 -2.47977e-05 -0.000146549)
(-0.000831076 -2.03113e-05 -0.000248682)
(-0.00130223 -6.93777e-05 -0.000546835)
(-0.00191705 -0.000108628 -0.000803341)
(4.31844e-05 -6.62854e-06 1.53706e-05)
(6.1486e-06 -6.72712e-06 5.33158e-06)
(-4.11815e-05 -3.81963e-06 -3.17458e-06)
(-0.000124919 2.13737e-06 -2.77219e-05)
(-0.000252357 1.64995e-05 -5.83745e-05)
(-0.000467134 4.10801e-05 -0.000149282)
(-0.000823314 8.22489e-05 -0.000274818)
(-0.00128344 0.000190781 -0.000515885)
(-0.00186738 0.000303953 -0.000760316)
(7.20784e-05 -1.93128e-05 1.20477e-05)
(2.44194e-05 -1.43849e-05 2.8432e-06)
(-7.39526e-06 -8.92717e-06 -4.35385e-06)
(-9.90516e-05 1.30232e-05 -3.4766e-05)
(-0.000188606 3.29388e-05 -6.7283e-05)
(-0.000428787 0.000101566 -0.000179849)
(-0.000751717 0.000155674 -0.000311323)
(-0.00142513 0.000435158 -0.0006821)
(-0.00226178 0.000668508 -0.00104589)
(8.93538e-05 -3.36994e-05 1.1564e-05)
(2.8682e-05 -2.85938e-05 3.12803e-07)
(3.09964e-06 -2.36952e-05 -4.83112e-06)
(-9.57543e-05 5.04495e-06 -3.954e-05)
(-0.000160419 3.15243e-05 -6.82767e-05)
(-0.000409542 9.5372e-05 -0.000181991)
(-0.000658483 0.000169962 -0.000324094)
(-0.00153907 0.000349627 -0.000751818)
(-0.00265717 0.000431907 -0.00117164)
)
;

boundaryField
{
    inlet
    {
        type            calculated;
        value           nonuniform 0();
    }
    outlet
    {
        type            calculated;
        value           nonuniform List<vector> 
12
(
(-0.00987554 -0.00383536 -0.00256724)
(-0.0014558 0.000296146 -0.000571587)
(-0.0104027 0.00432407 -0.000357917)
(-0.0111122 -0.00122901 -0.0029678)
(-0.00595967 -0.000347858 -0.00286678)
(-0.00205417 0.00218331 -0.00164082)
(-0.00914213 0.00600261 -0.00617708)
(-0.0101429 -0.00122531 -0.00655701)
(-0.00289613 -0.000963756 -0.00236794)
(-0.0017769 0.000334518 -0.000801132)
(-0.00327989 0.00307961 -0.00269196)
(-0.006532 0.00055669 -0.00257644)
)
;
    }
    wall
    {
        type            calculated;
        value           nonuniform List<vector> 
63
(
(0.000746754 -3.09945e-05 6.98243e-05)
(0.000177066 -8.47946e-06 0.000136108)
(0.000678006 1.42664e-05 0.000108892)
(0.000808987 -0.000131932 0.000108899)
(0.00012753 -3.0059e-05 -9.84951e-06)
(-0.00029503 3.73546e-06 -9.1147e-06)
(5.88124e-05 5.88278e-05 0.000133659)
(0.000144278 -0.000216116 0.000128636)
(0.000952697 -0.000111193 0.000153947)
(-0.00011928 1.09218e-05 0.000231683)
(0.000794563 6.50027e-06 0.000194888)
(0.000707406 -0.000146501 0.000171605)
(-0.000242406 -0.000357344 -5.45279e-05)
(-0.00053442 1.33602e-05 2.50328e-05)
(-0.000291618 0.000391168 0.000212846)
(-0.000231377 -0.000151568 0.00016205)
(0.00126306 -0.00019064 0.000377238)
(-0.000715196 5.68236e-05 0.000272961)
(0.00131355 -1.26735e-05 0.000365242)
(0.00111491 -1.45836e-05 0.000280489)
(-0.000899038 -0.000788881 -0.000309823)
(-0.00050807 4.79711e-05 5.86625e-05)
(-0.000764575 0.000852778 0.000136315)
(-0.000873173 -0.000155019 0.000282035)
(0.00220132 0.000428224 0.000532409)
(-0.00148724 2.24585e-05 -1.89615e-05)
(0.00312684 -0.00110047 0.000363344)
(0.00268902 -6.50288e-05 0.000491034)
(-0.00183676 -0.00170282 -0.000655568)
(-0.000473098 -3.10145e-05 4.78665e-05)
(-0.00167444 0.00209328 -0.000372776)
(-0.00210836 0.000426674 -0.00323275)
(-0.00987554 -0.00383536 -0.00256724)
(-0.0014558 0.000296146 -0.000571587)
(-0.0104027 0.00432407 -0.000357917)
(-0.0111122 -0.00122901 -0.0029678)
(0.000808987 -0.000131932 0.000108899)
(0.000546548 -0.000113656 7.00345e-05)
(0.000133247 -9.8953e-05 4.20654e-05)
(0.000144278 -0.000216116 0.000128636)
(-2.63148e-05 -0.00017027 -0.000113425)
(-0.000190445 -5.57078e-05 -1.14427e-05)
(0.000707406 -0.000146501 0.000171605)
(0.000636561 -0.000144732 9.02003e-05)
(9.39543e-05 -0.000150455 8.10832e-05)
(-0.000231377 -0.000151568 0.00016205)
(-0.000285393 -0.000146924 -0.000208735)
(-0.000272542 2.53925e-05 -7.49289e-05)
(0.00111491 -1.45836e-05 0.000280489)
(0.00126225 -9.40362e-05 0.000328762)
(0.000336308 -6.63339e-05 0.000123256)
(-0.000873173 -0.000155019 0.000282035)
(-0.000646469 -2.59193e-05 -0.000214143)
(-0.000323793 0.000121182 -0.000138556)
(0.00268902 -6.50288e-05 0.000491034)
(0.00360738 3.62529e-05 0.0011483)
(0.00152286 -4.75524e-05 0.000447144)
(-0.00210836 0.000426674 -0.00323275)
(-0.00133474 0.0010121 -0.00378074)
(-0.000772192 0.000612996 -0.000631615)
(-0.0111122 -0.00122901 -0.0029678)
(-0.0101429 -0.00122531 -0.00655701)
(-0.006532 0.00055669 -0.00257644)
)
;
    }
    procBoundary3to1
    {
        type            processor;
        value           nonuniform List<vector> 
27
(
(0.000171369 1.85213e-05 2.15236e-05)
(0.000103205 8.50025e-06 1.26221e-06)
(9.16669e-05 -4.07134e-06 -1.68389e-06)
(-4.42003e-05 -3.25118e-05 -5.53798e-05)
(-9.22131e-05 -5.02358e-05 -7.68157e-05)
(-0.000437437 -0.000112583 -0.00023725)
(-0.000683539 -0.00014991 -0.000348407)
(-0.0019153 -0.000389018 -0.000885364)
(-0.0033345 -0.000601591 -0.00140487)
(0.000103098 1.24612e-05 2.07084e-05)
(5.3415e-05 3.94307e-06 5.91934e-06)
(1.82687e-05 -3.34728e-06 -3.33627e-06)
(-8.48164e-05 -2.11945e-05 -3.76323e-05)
(-0.000203825 -3.91325e-05 -7.28034e-05)
(-0.000473439 -7.63362e-05 -0.000192101)
(-0.000846067 -0.000126853 -0.000336761)
(-0.00161149 -0.000256856 -0.00077686)
(-0.00246795 -0.000367865 -0.00112536)
(5.44033e-05 1.08394e-05 1.39746e-05)
(1.17747e-05 3.14744e-06 3.50496e-06)
(-2.64602e-05 -1.38499e-06 -6.27967e-06)
(-0.000119873 -1.85927e-05 -3.13513e-05)
(-0.000242598 -3.10074e-05 -5.71736e-05)
(-0.000476815 -7.17075e-05 -0.000145088)
(-0.00082882 -0.000103102 -0.000239105)
(-0.00135396 -0.000260222 -0.000518636)
(-0.0020358 -0.000370429 -0.000773112)
)
;
    }
    procBoundary3to2
    {
        type            processor;
        value           nonuniform List<vector> 
12
(
(0.000171514 -2.14346e-06 3.1047e-05)
(0.000148215 -1.0281e-05 3.41783e-05)
(0.000200027 -1.72673e-05 3.71769e-05)
(0.000247344 -3.9583e-05 3.68935e-05)
(0.000109829 9.27957e-07 2.37457e-05)
(0.000104439 -8.06159e-06 2.7231e-05)
(0.000140854 -1.86274e-05 2.54444e-05)
(0.000178406 -3.67877e-05 2.36796e-05)
(6.17785e-05 1.00405e-06 1.583e-05)
(6.27803e-05 -7.80171e-06 1.756e-05)
(8.13574e-05 -1.94657e-05 1.60774e-05)
(9.95563e-05 -3.09254e-05 1.45615e-05)
)
;
    }
    procBoundary3to7
    {
        type            processor;
        value           nonuniform List<vector> 
36
(
(1.61428e-05 1.50031e-06 8.85924e-06)
(-1.99505e-05 -2.36651e-06 2.32845e-06)
(-6.68124e-05 -5.87597e-06 -1.926e-06)
(-0.000145576 -1.07625e-05 -1.31363e-05)
(-0.000273803 -1.30149e-05 -2.77344e-05)
(-0.000468563 -1.77512e-05 -7.07426e-05)
(-0.000798292 -2.93149e-05 -0.000120938)
(-0.00114775 -8.52248e-06 -0.000245746)
(-0.00163883 7.24812e-06 -0.000357911)
(2.18537e-05 -1.03569e-05 6.07045e-06)
(-1.52838e-05 -7.18124e-06 -3.96526e-07)
(-6.34238e-05 -6.15281e-06 -5.42553e-06)
(-0.000139003 9.29795e-07 -2.14143e-05)
(-0.000261952 6.45528e-06 -3.98587e-05)
(-0.000454511 4.2111e-05 -9.15589e-05)
(-0.000767186 6.3411e-05 -0.000156974)
(-0.00117316 0.000224756 -0.000271535)
(-0.00171489 0.000350218 -0.00041199)
(5.18981e-05 -2.08575e-05 1.91406e-06)
(-2.24307e-07 -1.10627e-05 -8.7478e-06)
(-2.39518e-05 -1.14499e-05 -1.53221e-05)
(-0.000118821 1.05652e-05 -3.66251e-05)
(-0.000199654 8.0693e-06 -5.43938e-05)
(-0.000434308 7.01974e-05 -0.000121928)
(-0.000703939 8.85965e-05 -0.000183672)
(-0.0013151 0.000303769 -0.000387177)
(-0.00212945 0.00050631 -0.000632183)
(6.37638e-05 -2.93421e-05 -3.23822e-06)
(3.06839e-06 -2.25782e-05 -1.25066e-05)
(-1.87017e-05 -1.64143e-05 -1.35595e-05)
(-0.000120974 1.64893e-06 -4.18296e-05)
(-0.000194875 2.24828e-05 -4.90728e-05)
(-0.000439191 6.47574e-05 -0.000136785)
(-0.000701138 0.000121961 -0.000199927)
(-0.00139482 0.00022381 -0.000462128)
(-0.00232974 0.000288854 -0.000747327)
)
;
    }
}


// ************************************************************************* //
