/*--------------------------------*- C++ -*----------------------------------*\
| =========                 |                                                 |
| \\      /  F ield         | OpenFOAM: The Open Source CFD Toolbox           |
|  \\    /   O peration     | Version:  4.x                                   |
|   \\  /    A nd           | Web:      www.OpenFOAM.org                      |
|    \\/     M anipulation  |                                                 |
\*---------------------------------------------------------------------------*/
FoamFile
{
    version     2.0;
    format      ascii;
    class       volVectorField;
    location    "52.5";
    object      GField;
}
// * * * * * * * * * * * * * * * * * * * * * * * * * * * * * * * * * * * * * //

dimensions      [1 -2 -1 0 0 0 0];

internalField   nonuniform List<vector> 
108
(
(72.6109 -1.08004 -0.787005)
(129.134 -1.14015 -1.53005)
(74.7161 -1.41375 -0.894195)
(137.518 -2.39482 0.225133)
(72.4537 -5.50168 -1.48084)
(147.406 -4.47167 4.41621)
(59.2944 -14.7248 -5.38428)
(161.014 0.69079 10.6663)
(29.0247 -37.3055 -17.1877)
(54.4771 -1.394 -0.508773)
(112.746 -0.846565 -0.441155)
(48.3399 -1.38881 -0.638611)
(112.121 -0.705797 3.0395)
(35.1109 -1.2797 -0.425409)
(103.088 0.194015 7.9534)
(11.8826 -0.264679 -0.263585)
(76.024 -0.0778751 9.81486)
(1.99963e-05 2.68219e-06 -4.37108e-07)
(71.7019 1.99099 0.378331)
(126.707 2.54987 0.167893)
(72.5882 2.67847 1.93312)
(134.534 2.55639 2.38686)
(69.4288 7.23433 4.45794)
(145.44 2.41369 6.23821)
(57.2925 17.643 5.96198)
(165.988 -8.57382 8.62215)
(31.1431 46.306 0.0678079)
(90.8894 -2.09892 0.244396)
(139.057 -1.86897 0.098405)
(92.5641 -4.30655 1.5246)
(144.017 -3.39314 1.72304)
(89.618 -5.84914 3.15722)
(153.42 -3.53234 4.30373)
(79.6043 -7.5477 6.09659)
(172.163 -3.3481 8.67635)
(43.8567 -3.40391 -30.439)
(21.5431 0.187671 -1.62222)
(102.269 0.625535 -1.17629)
(18.3907 0.319883 -2.03502)
(106.49 0.259507 1.81483)
(16.0166 0.237123 -3.29151)
(112.413 -1.01896 7.45354)
(14.9682 -0.0596808 -7.28499)
(118.74 -3.586 19.9057)
(17.6512 -2.67562 -33.6069)
(7.07699 -0.090036 -0.983354)
(93.9389 0.942324 0.739251)
(1.3938 0.0313917 -0.322437)
(93.3354 0.514617 2.8019)
(0.266221 0.024759 -0.0926964)
(89.2169 -1.17279 5.78116)
(2.46331 0.741267 -1.02535)
(74.6273 -8.83677 9.06452)
(11.56 9.89948 -4.71125)
(32.0506 1.47102 -3.0973)
(106.68 2.31406 -2.38835)
(32.5707 2.68767 -4.44955)
(114.936 -0.163761 0.687513)
(34.7937 6.622 -7.88767)
(128.816 -3.90542 6.44462)
(36.8154 17.7333 -15.7944)
(150.374 -14.4719 17.0536)
(24.5742 59.1325 -46.4397)
(64.0979 -1.76662 -4.27073)
(120.429 -1.52204 -3.48663)
(63.5205 -3.89557 -5.69927)
(125.412 -3.26958 -2.37227)
(58.6649 -5.78934 -8.35916)
(135.776 -4.1393 1.41629)
(49.3494 -6.18733 -11.5196)
(162.494 -2.01257 12.5825)
(29.5514 6.64675 -59.3575)
(11.9551 -1.10342 -2.25127)
(93.5173 -0.72703 -0.509315)
(9.78042 -1.44673 -2.54657)
(94.7471 -1.66805 0.638923)
(10.5093 -2.83671 -4.43312)
(94.0052 -2.10063 3.64394)
(12.7943 -5.2174 -8.22529)
(86.0436 3.34102 11.5421)
(24.1585 -12.92 -28.0344)
(3.47557e-05 -2.61649e-06 -2.0404e-06)
(84.5465 -0.748426 1.4575)
(3.43252e-05 -2.49422e-06 -2.45926e-06)
(83.9374 0.154341 2.08611)
(3.1806e-05 -4.06941e-06 -6.03486e-06)
(81.4938 2.68694 5.67395)
(3.06493e-05 -2.28148e-06 -6.47025e-06)
(69.8779 3.64892 8.07844)
(11.6327 -0.479587 -1.59962)
(2.85567 0.27224 -0.152141)
(92.3196 -0.722056 -0.193946)
(3.64903e-05 5.20797e-06 -2.71537e-06)
(93.8447 -0.97812 1.06647)
(3.70642 1.10028 -0.710557)
(95.5131 -0.786286 3.64572)
(14.9683 7.97207 -5.1244)
(91.859 -6.60193 9.92537)
(30.8276 34.4835 -21.7523)
(43.3896 -0.30549 -2.05008)
(104.976 -0.95211 -0.817534)
(39.6629 -1.18174 -2.25135)
(105.872 -3.21274 0.491848)
(33.5389 -0.737037 -3.57097)
(109.009 -3.99558 2.44299)
(26.7059 1.20164 -6.02441)
(123.435 -3.54441 8.26933)
(18.5734 11.0558 -16.0564)
)
;

boundaryField
{
    inlet
    {
        type            calculated;
        value           nonuniform 0();
    }
    outlet
    {
        type            calculated;
        value           nonuniform List<vector> 
12
(
(60.4894 -77.747 -35.8203)
(4.18915e-05 5.6191e-06 -9.15725e-07)
(64.9905 96.6331 0.141504)
(89.8677 -6.97502 -62.3734)
(37.9207 -5.74814 -72.199)
(24.8012 21.2386 -10.1077)
(52.6828 126.77 -99.5587)
(62.9166 14.1513 -126.376)
(52.6633 -28.1644 -61.1124)
(25.3401 -1.04471 -3.48454)
(66.9553 74.8957 -47.2445)
(40.4853 24.0987 -34.9988)
)
;
    }
    wall
    {
        type            calculated;
        value           uniform (0 0 0);
    }
    procBoundary3to1
    {
        type            processor;
        value           nonuniform List<vector> 
27
(
(66.2427 0.615145 -2.22123)
(121.242 0.95779 -2.42695)
(64.6626 1.65081 -3.04718)
(125.099 1.89808 -0.158361)
(61.0845 0.814418 -6.34507)
(134.101 2.11131 3.91163)
(54.7642 -3.0718 -14.1768)
(156.741 3.89754 14.5393)
(33.8332 -13.3989 -37.8205)
(8.19666 0.414678 -0.532554)
(94.9413 1.02594 0.687035)
(1.12509 0.106451 -0.116384)
(94.3999 1.2866 2.38884)
(3.63175e-05 -5.62955e-07 -6.77731e-06)
(89.9125 0.361357 5.66921)
(6.7225 0.555198 -2.67655)
(81.3712 -1.07738 13.1242)
(29.6393 1.3439 -35.3186)
(5.88628 -0.328215 -1.2946)
(91.0733 -0.000873996 0.578414)
(4.2404 -0.338051 -1.41523)
(91.5609 1.57489 0.336418)
(5.80347 -0.941935 -2.71853)
(91.5082 2.98728 1.79864)
(12.4724 -4.6019 -7.42696)
(86.8444 8.77016 7.71213)
(27.6856 -21.7099 -17.2202)
)
;
    }
    procBoundary3to2
    {
        type            processor;
        value           nonuniform List<vector> 
12
(
(122.738 -0.764856 -2.40805)
(112.285 -0.739043 -2.42155)
(121.321 2.4283 -1.13305)
(133.192 -0.45846 -1.00439)
(98.2745 0.183708 -2.2305)
(93.6958 0.483525 -0.741775)
(102.472 3.35862 -4.13048)
(116.445 -0.094996 -4.41949)
(92.5252 -0.123282 -2.02668)
(85.8951 -1.59364 0.182556)
(90.9161 -0.288594 -0.386007)
(103.43 0.634107 -1.50387)
)
;
    }
    procBoundary3to7
    {
        type            processor;
        value           nonuniform List<vector> 
36
(
(5.32985 0.620968 -0.920878)
(88.7189 1.21957 -0.399423)
(4.01293 0.897588 -1.15446)
(88.5326 1.6884 -0.158235)
(1.20533 0.379935 -0.500411)
(86.2605 2.29722 2.26732)
(0.445988 0.195322 -0.249296)
(74.7745 -3.92506 9.68788)
(10.172 4.23892 -5.58415)
(0.209743 0.0276228 -0.0255717)
(87.0852 0.564048 -0.3389)
(3.61331e-05 7.31932e-06 -2.53265e-06)
(85.3214 0.0598604 0.811031)
(2.04289 0.650235 -0.219337)
(81.7894 -2.13615 2.95466)
(12.4569 6.72916 -0.80001)
(73.203 -9.14867 4.55108)
(28.8145 31.2724 2.6554)
(28.4423 2.7778 -2.26356)
(99.6888 1.51576 -0.850928)
(27.93 3.84853 -3.65366)
(104.293 -0.209171 -1.76639)
(27.1454 6.63654 -6.11903)
(109.878 -5.78423 -1.478)
(24.6283 11.9652 -10.1138)
(117.807 -16.899 4.48176)
(17.2759 27.7252 -15.5222)
(50.8915 -1.60455 -3.9047)
(109.324 -1.10829 -3.57077)
(49.3476 -2.22443 -5.40741)
(112.828 -1.77117 -2.94447)
(45.314 -2.72245 -8.42812)
(116.189 -1.77986 0.529305)
(34.9527 -2.768 -13.9352)
(122.715 0.0675589 7.13986)
(18.2327 -1.38249 -26.6274)
)
;
    }
}


// ************************************************************************* //
