/*--------------------------------*- C++ -*----------------------------------*\
| =========                 |                                                 |
| \\      /  F ield         | OpenFOAM: The Open Source CFD Toolbox           |
|  \\    /   O peration     | Version:  4.x                                   |
|   \\  /    A nd           | Web:      www.OpenFOAM.org                      |
|    \\/     M anipulation  |                                                 |
\*---------------------------------------------------------------------------*/
FoamFile
{
    version     2.0;
    format      ascii;
    class       volScalarField;
    location    "52.5";
    object      magGField;
}
// * * * * * * * * * * * * * * * * * * * * * * * * * * * * * * * * * * * * * //

dimensions      [1 -2 -1 0 0 0 0];

internalField   nonuniform List<scalar> 
108
(
72.6232
129.148
74.7348
137.539
72.6773
147.54
61.3322
161.369
50.2947
54.4973
112.75
48.364
112.165
35.1368
103.395
11.8885
76.655
2.01801e-05
71.7306
126.733
72.6634
134.579
69.9469
145.593
60.2432
166.433
55.8045
90.9139
139.069
92.6768
144.067
89.8641
153.521
80.1934
172.414
53.4933
21.6049
102.277
18.5058
106.506
16.353
112.664
16.647
120.45
38.0545
7.14554
93.9465
1.43096
93.3789
0.282982
89.4117
2.76925
75.6934
15.9321
32.2335
106.732
32.983
114.938
36.2859
129.037
43.8099
152.028
79.1024
64.2643
120.49
63.8945
125.477
59.5395
135.847
51.0524
162.993
66.6392
12.2151
93.5215
10.2095
94.764
11.7535
94.0993
16.0802
86.8786
39.198
3.49137e-05
84.5624
3.45035e-05
83.9635
3.26282e-05
81.7353
3.14077e-05
70.4379
11.7519
2.87265
92.3226
3.696e-05
93.8559
3.93103
95.5859
17.7162
92.6292
51.1137
43.439
104.983
39.7443
105.922
33.7365
109.109
27.4034
123.762
26.926
)
;

boundaryField
{
    inlet
    {
        type            calculated;
        value           nonuniform 0();
    }
    outlet
    {
        type            calculated;
        value           nonuniform List<scalar> 
12
(
104.817
4.22766e-05
116.455
109.614
81.754
34.1811
169.582
141.879
85.4481
25.5999
111.015
58.6918
)
;
    }
    wall
    {
        type            calculated;
        value           uniform 0;
    }
    procBoundary3to1
    {
        type            processor;
        value           nonuniform List<scalar> 
27
(
66.2828
121.27
64.7554
125.113
61.4186
134.175
56.6527
157.463
52.4843
8.22441
94.9493
1.13609
94.4389
3.69487e-05
90.0918
7.25701
82.4298
46.127
6.03589
91.0751
4.4831
91.575
6.47749
91.5746
15.2282
87.6262
39.1708
)
;
    }
    procBoundary3to2
    {
        type            processor;
        value           nonuniform List<scalar> 
12
(
122.764
112.313
121.351
133.197
98.2999
93.6999
102.611
116.529
92.5475
85.9101
90.9174
103.443
)
;
    }
    procBoundary3to7
    {
        type            processor;
        value           nonuniform List<scalar> 
36
(
5.44434
88.7282
4.27107
88.5488
1.35926
86.3209
0.546996
75.5016
12.354
0.213094
87.0877
3.69539e-05
85.3253
2.15506
81.8706
14.1809
73.9128
42.6063
28.6671
99.7039
28.4296
104.308
28.607
110.04
29.1892
119.098
36.1674
51.0663
109.388
49.6928
112.88
46.1715
116.204
37.7299
122.922
32.3011
)
;
    }
}


// ************************************************************************* //
