/*--------------------------------*- C++ -*----------------------------------*\
| =========                 |                                                 |
| \\      /  F ield         | OpenFOAM: The Open Source CFD Toolbox           |
|  \\    /   O peration     | Version:  4.x                                   |
|   \\  /    A nd           | Web:      www.OpenFOAM.org                      |
|    \\/     M anipulation  |                                                 |
\*---------------------------------------------------------------------------*/
FoamFile
{
    version     2.0;
    format      ascii;
    class       volScalarField;
    location    "52.5";
    object      QPartFluid;
}
// * * * * * * * * * * * * * * * * * * * * * * * * * * * * * * * * * * * * * //

dimensions      [1 -1 -3 0 0 0 0];

internalField   nonuniform List<scalar> 
108
(
8.49357e+09
3.85776e+09
6.73819e+09
3.23824e+09
5.02327e+09
3.80584e+09
5.65159e+09
5.3135e+09
2.93068e+09
6.18468e+09
8.81744e+09
4.9418e+09
5.49432e+09
5.92033e+09
4.88647e+09
5.84927e+09
5.50299e+09
3.59304e+09
6.64269e+09
6.80652e+09
7.10238e+09
4.93753e+09
5.88394e+09
5.40802e+09
6.76245e+09
7.12865e+09
4.10206e+09
4.3395e+09
4.30693e+09
4.66345e+09
6.67766e+09
5.52831e+09
5.5159e+09
3.62092e+09
5.55542e+09
4.30349e+09
8.56627e+09
8.10147e+09
1.02978e+10
1.06795e+10
8.56528e+09
8.03023e+09
6.90304e+09
8.66468e+09
7.74583e+09
7.59904e+09
8.02178e+09
8.02704e+09
8.98708e+09
7.48865e+09
7.87056e+09
9.28034e+09
8.65356e+09
5.75928e+09
1.27445e+10
9.91069e+09
9.08433e+09
1.14243e+10
8.5587e+09
1.02444e+10
8.30428e+09
9.91442e+09
7.90275e+09
8.42944e+09
7.16825e+09
7.31628e+09
8.04506e+09
9.17163e+09
7.63572e+09
7.29699e+09
8.67695e+09
5.56058e+09
8.27345e+09
1.1043e+10
9.30355e+09
1.04056e+10
6.65923e+09
7.89107e+09
9.22808e+09
8.50697e+09
7.04105e+09
9.55555e+09
6.13766e+09
8.16599e+09
5.02076e+09
4.38308e+09
9.43271e+09
7.63252e+09
1.05815e+10
5.13472e+09
6.02652e+09
1.03091e+10
9.17882e+09
7.26924e+09
7.38362e+09
9.98067e+09
8.09839e+09
9.30651e+09
5.02247e+09
8.73976e+09
4.86069e+09
5.76057e+09
6.95589e+09
6.40935e+09
8.54555e+09
6.2692e+09
9.51732e+09
7.50754e+09
)
;

boundaryField
{
    inlet
    {
        type            calculated;
        value           nonuniform 0();
    }
    outlet
    {
        type            calculated;
        value           uniform 0;
    }
    wall
    {
        type            calculated;
        value           uniform 0;
    }
    procBoundary3to1
    {
        type            processor;
        value           nonuniform List<scalar> 
27
(
3.94909e+09
7.09844e+09
6.22981e+09
8.96397e+09
6.30359e+09
5.82838e+09
5.77805e+09
6.31494e+09
4.31709e+09
7.91335e+09
8.4848e+09
7.18713e+09
6.80767e+09
5.80217e+09
9.32473e+09
9.47593e+09
1.32192e+10
4.49251e+09
9.43192e+09
7.86698e+09
5.46282e+09
1.11353e+10
8.86705e+09
1.07166e+10
7.51108e+09
9.70689e+09
3.38974e+09
)
;
    }
    procBoundary3to2
    {
        type            processor;
        value           nonuniform List<scalar> 
12
(
4.59965e+09
4.4714e+09
6.51408e+09
3.98163e+09
1.12267e+10
6.40151e+09
7.69078e+09
4.82043e+09
9.30119e+09
5.72892e+09
1.02218e+10
7.73228e+09
)
;
    }
    procBoundary3to7
    {
        type            processor;
        value           nonuniform List<scalar> 
36
(
1.01711e+10
9.19185e+09
6.50265e+09
8.00015e+09
1.11315e+10
1.25656e+10
8.02764e+09
6.55394e+09
6.16256e+09
7.49924e+09
1.14703e+10
7.46211e+09
8.19092e+09
8.39503e+09
6.96678e+09
7.88117e+09
7.68842e+09
6.84732e+09
5.3555e+09
9.47769e+09
7.00148e+09
9.0366e+09
8.44443e+09
1.0581e+10
8.67934e+09
9.19973e+09
6.93953e+09
7.0835e+09
7.54545e+09
9.00453e+09
5.98906e+09
7.95802e+09
8.07109e+09
8.03519e+09
7.05704e+09
3.64167e+09
)
;
    }
}


// ************************************************************************* //
