/*--------------------------------*- C++ -*----------------------------------*\
| =========                 |                                                 |
| \\      /  F ield         | OpenFOAM: The Open Source CFD Toolbox           |
|  \\    /   O peration     | Version:  4.x                                   |
|   \\  /    A nd           | Web:      www.OpenFOAM.org                      |
|    \\/     M anipulation  |                                                 |
\*---------------------------------------------------------------------------*/
FoamFile
{
    version     2.0;
    format      ascii;
    class       volScalarField;
    location    "52.5";
    object      Qsource;
}
// * * * * * * * * * * * * * * * * * * * * * * * * * * * * * * * * * * * * * //

dimensions      [1 -1 -3 0 0 0 0];

internalField   nonuniform List<scalar> 
108
(
9.15378e+09
4.90414e+09
7.4137e+09
4.33867e+09
5.68387e+09
4.96982e+09
6.22832e+09
6.56397e+09
3.42276e+09
6.70939e+09
9.75611e+09
5.41871e+09
6.42908e+09
6.28967e+09
5.7623e+09
6.00448e+09
6.19236e+09
3.59304e+09
7.29639e+09
7.83721e+09
7.76288e+09
6.01897e+09
6.52461e+09
6.5597e+09
7.33097e+09
8.41042e+09
4.63681e+09
5.91985e+09
6.52734e+09
6.26827e+09
8.96167e+09
7.09405e+09
7.91906e+09
5.05034e+09
8.1924e+09
5.33741e+09
8.56627e+09
8.10147e+09
1.02978e+10
1.06795e+10
8.56528e+09
8.03023e+09
6.90304e+09
8.66468e+09
7.74583e+09
7.59904e+09
8.02178e+09
8.02704e+09
8.98708e+09
7.48865e+09
7.87056e+09
9.28034e+09
8.65356e+09
5.75928e+09
1.27445e+10
9.91069e+09
9.08433e+09
1.14243e+10
8.5587e+09
1.02444e+10
8.30428e+09
9.91442e+09
7.90275e+09
9.02812e+09
8.15812e+09
7.9122e+09
9.06757e+09
9.73483e+09
8.7253e+09
7.795e+09
9.93748e+09
6.17689e+09
8.27345e+09
1.1043e+10
9.30355e+09
1.04056e+10
6.65923e+09
7.89107e+09
9.22808e+09
8.50697e+09
7.04105e+09
9.55555e+09
6.13766e+09
8.16599e+09
5.02076e+09
4.38308e+09
9.43271e+09
7.63252e+09
1.05815e+10
5.13472e+09
6.02652e+09
1.03091e+10
9.17882e+09
7.26924e+09
7.38362e+09
9.98067e+09
8.09839e+09
9.30651e+09
5.02247e+09
9.1774e+09
5.74726e+09
6.16817e+09
7.8488e+09
6.76687e+09
9.45989e+09
6.57193e+09
1.05286e+10
7.80605e+09
)
;

boundaryField
{
    inlet
    {
        type            calculated;
        value           nonuniform 0();
    }
    outlet
    {
        type            calculated;
        value           uniform 0;
    }
    wall
    {
        type            calculated;
        value           uniform 0;
    }
    procBoundary3to1
    {
        type            processor;
        value           nonuniform List<scalar> 
27
(
4.56276e+09
8.09343e+09
6.83215e+09
9.98411e+09
6.88097e+09
6.90722e+09
6.31929e+09
7.54113e+09
4.82624e+09
7.91335e+09
8.4848e+09
7.18713e+09
6.80767e+09
5.80217e+09
9.32473e+09
9.47593e+09
1.32192e+10
4.49251e+09
9.43192e+09
7.86698e+09
5.46282e+09
1.11353e+10
8.86705e+09
1.07166e+10
7.51108e+09
9.70689e+09
3.38974e+09
)
;
    }
    procBoundary3to2
    {
        type            processor;
        value           nonuniform List<scalar> 
12
(
5.60443e+09
5.40716e+09
7.50961e+09
6.12671e+09
1.12267e+10
6.40151e+09
7.69078e+09
5.78419e+09
9.30119e+09
5.72892e+09
1.02218e+10
8.60843e+09
)
;
    }
    procBoundary3to7
    {
        type            processor;
        value           nonuniform List<scalar> 
36
(
1.01711e+10
9.19185e+09
6.50265e+09
8.00015e+09
1.11315e+10
1.25656e+10
8.02764e+09
6.55394e+09
6.16256e+09
7.49924e+09
1.14703e+10
7.46211e+09
8.19092e+09
8.39503e+09
6.96678e+09
7.88117e+09
7.68842e+09
6.84732e+09
5.3555e+09
9.47769e+09
7.00148e+09
9.0366e+09
8.44443e+09
1.0581e+10
8.67934e+09
9.19973e+09
6.93953e+09
7.58161e+09
8.46166e+09
9.4919e+09
6.92859e+09
8.41755e+09
9.0327e+09
8.42618e+09
8.06287e+09
3.98697e+09
)
;
    }
}


// ************************************************************************* //
