/*--------------------------------*- C++ -*----------------------------------*\
| =========                 |                                                 |
| \\      /  F ield         | OpenFOAM: The Open Source CFD Toolbox           |
|  \\    /   O peration     | Version:  4.x                                   |
|   \\  /    A nd           | Web:      www.OpenFOAM.org                      |
|    \\/     M anipulation  |                                                 |
\*---------------------------------------------------------------------------*/
FoamFile
{
    version     2.0;
    format      ascii;
    class       volVectorField;
    location    "59";
    object      DDtUrel;
}
// * * * * * * * * * * * * * * * * * * * * * * * * * * * * * * * * * * * * * //

dimensions      [0 1 -2 0 0 0 0];

internalField   nonuniform List<vector> 
87
(
(3.7513e-05 -8.28269e-06 9.01782e-06)
(8.6653e-05 -2.33189e-05 1.19402e-05)
(5.64994e-05 -1.69936e-05 4.60141e-06)
(0.000129802 -2.8493e-05 8.81568e-06)
(0.000106285 -3.24615e-05 7.60723e-06)
(6.77207e-05 -3.00923e-05 6.03318e-07)
(0.00161359 3.41113e-05 -6.47137e-05)
(0.000909345 1.45834e-05 -3.31839e-05)
(0.000520945 2.50853e-06 -1.63124e-05)
(0.000300833 -6.04396e-06 -2.83065e-06)
(0.000181181 -7.39011e-06 2.86861e-06)
(0.000106573 -1.08855e-05 5.69568e-06)
(6.78751e-05 -1.00307e-05 5.17344e-06)
(4.05211e-05 -1.13357e-05 3.74826e-06)
(2.23749e-05 -9.52392e-06 2.08825e-06)
(0.00165707 8.36647e-05 -6.67887e-05)
(0.000958353 3.133e-05 -3.69654e-05)
(0.00055896 5.65899e-06 -1.97779e-05)
(0.000333485 -1.23118e-05 -6.03134e-06)
(0.000200935 -1.44154e-05 9.1159e-07)
(0.000124988 -2.2671e-05 4.11631e-06)
(7.68044e-05 -2.0202e-05 4.10372e-06)
(5.05209e-05 -2.45368e-05 3.17932e-06)
(2.59466e-05 -1.95076e-05 9.17343e-07)
(0.00171207 7.75454e-05 -7.03295e-05)
(0.00101722 3.43472e-05 -4.0482e-05)
(0.000609702 5.56624e-06 -2.40067e-05)
(0.000374504 -1.17929e-05 -8.87978e-06)
(0.000228942 -1.7209e-05 -1.21288e-06)
(0.000145785 -2.31771e-05 3.34934e-06)
(8.48553e-05 -2.6345e-05 1.52894e-06)
(5.43831e-05 -3.38734e-05 1.9571e-06)
(1.91161e-05 -2.84863e-05 -9.31416e-07)
(0.00164749 4.0302e-05 6.20404e-06)
(0.000944019 1.55523e-05 -6.45155e-06)
(0.000543578 1.59421e-06 -7.78564e-06)
(0.000320645 -7.75867e-06 -7.1186e-06)
(0.000188553 -9.88273e-06 -3.75676e-06)
(0.000114823 -1.34037e-05 -6.28453e-06)
(6.71211e-05 -1.23222e-05 -2.68848e-06)
(4.2534e-05 -1.34764e-05 -5.36124e-06)
(1.90192e-05 -1.15869e-05 -6.1265e-06)
(0.00169154 8.23458e-05 1.84486e-07)
(0.000992364 3.09907e-05 -9.14491e-06)
(0.000586062 4.17738e-06 -1.1035e-05)
(0.000355927 -1.09966e-05 -7.77745e-06)
(0.000213839 -1.43363e-05 -4.89559e-06)
(0.000133341 -2.04383e-05 -4.79951e-06)
(7.80276e-05 -2.10251e-05 -4.67376e-06)
(5.48675e-05 -2.40917e-05 -7.97639e-06)
(2.50329e-05 -2.05918e-05 -7.35118e-06)
(0.00174078 7.36254e-05 -8.42625e-06)
(0.00104876 3.20407e-05 -1.27457e-05)
(0.000636951 4.83042e-06 -1.20248e-05)
(0.000398908 -1.11228e-05 -8.0243e-06)
(0.000247877 -1.66948e-05 -6.90501e-06)
(0.000160016 -2.21929e-05 -5.53642e-06)
(9.66053e-05 -2.61036e-05 -5.86587e-06)
(6.64661e-05 -3.0431e-05 -5.91396e-06)
(3.27922e-05 -3.02876e-05 -6.78089e-06)
(0.00169578 3.70661e-05 2.43564e-05)
(0.000994126 1.14929e-05 3.86014e-06)
(0.00058611 -8.91863e-07 -4.91857e-06)
(0.000356896 -1.05593e-05 -6.0932e-06)
(0.000214967 -1.3308e-05 -4.88335e-06)
(0.000136249 -1.7171e-05 -5.44202e-06)
(7.83792e-05 -1.63883e-05 -5.49954e-06)
(5.45826e-05 -1.60597e-05 -9.80095e-06)
(2.14157e-05 -1.51669e-05 -1.24739e-05)
(0.00173466 7.35515e-05 1.46294e-05)
(0.00103864 2.8597e-05 -1.49582e-06)
(0.000627884 4.04339e-06 -8.19412e-06)
(0.000393733 -1.21221e-05 -8.73466e-06)
(0.000243215 -1.63904e-05 -6.60485e-06)
(0.000155323 -2.20499e-05 -6.87839e-06)
(9.26043e-05 -2.51989e-05 -9.9928e-06)
(6.50635e-05 -2.73536e-05 -1.35351e-05)
(2.89645e-05 -2.1418e-05 -1.66816e-05)
(0.00177294 6.65737e-05 5.80631e-06)
(0.00108528 2.99842e-05 -4.97749e-06)
(0.000673311 5.49075e-06 -8.69602e-06)
(0.000436759 -1.13858e-05 -9.8478e-06)
(0.000278959 -1.94813e-05 -9.96382e-06)
(0.00018188 -2.43359e-05 -9.35524e-06)
(0.000111042 -2.83232e-05 -1.27545e-05)
(7.43493e-05 -3.24652e-05 -1.60923e-05)
(3.62428e-05 -3.11399e-05 -1.80599e-05)
)
;

boundaryField
{
    inlet
    {
        type            calculated;
        value           nonuniform List<vector> 9((0.00365745 8.97149e-05 -0.000155947) (0.00375483 0.000430875 -0.000165405) (0.00402718 0.000218874 -0.000180441) (0.00378324 0.000194465 0.000244609) (0.00391408 0.000427132 0.000199146) (0.00412308 0.000191292 0.000125151) (0.00404336 0.000160214 0.000174888) (0.00412356 0.000325413 0.000108298) (0.00421728 0.00014212 5.72907e-05));
    }
    outlet
    {
        type            calculated;
        value           nonuniform 0();
    }
    wall
    {
        type            calculated;
        value           nonuniform List<vector> 
57
(
(0.00404336 0.000160214 0.000174888)
(0.00412356 0.000325413 0.000108298)
(0.00421728 0.00014212 5.72907e-05)
(9.99031e-05 -3.17576e-05 -2.23995e-06)
(0.000249808 3.23391e-06 -1.43768e-05)
(0.000447186 -1.1283e-05 -1.47641e-05)
(4.41096e-05 -1.57493e-05 -2.21614e-05)
(0.000173 -1.29125e-05 -2.79899e-05)
(0.000355363 -1.27589e-05 -8.40088e-06)
(8.25658e-05 -5.86624e-05 -1.19673e-05)
(0.000219669 -6.11959e-05 -2.50775e-05)
(0.000429305 -3.83963e-05 -2.22311e-05)
(-2.28118e-06 -3.9882e-05 -5.65805e-06)
(0.000107329 -1.81867e-05 8.69689e-07)
(0.000286817 -4.8018e-05 -3.2017e-05)
(3.66482e-05 -6.84787e-05 -1.18927e-05)
(0.000118096 -4.31341e-05 -9.51187e-07)
(0.000245106 -4.07461e-05 -1.57094e-05)
(-9.727e-05 -3.23068e-05 1.08977e-05)
(1.02681e-05 -5.87248e-05 -3.02704e-05)
(0.000101011 -4.42364e-05 -4.25487e-05)
(1.8436e-05 -1.33417e-05 -2.1854e-05)
(0.000127696 -8.26733e-05 -3.55243e-05)
(0.000131484 -7.21688e-05 -5.95422e-05)
(-0.000125177 -1.34523e-05 -2.21808e-05)
(-3.14797e-05 5.52591e-06 -4.42613e-05)
(1.35101e-05 -6.58123e-05 -5.11361e-05)
(0.00402718 0.000218874 -0.000180441)
(0.00412308 0.000191292 0.000125151)
(0.00421728 0.00014212 5.72907e-05)
(0.000117244 5.40646e-06 -1.07944e-05)
(0.000298619 -1.21421e-05 2.10256e-05)
(0.000447186 -1.1283e-05 -1.47641e-05)
(5.87243e-05 -3.22522e-05 -4.45485e-05)
(0.000202274 -3.39727e-05 7.70802e-07)
(0.000355363 -1.27589e-05 -8.40088e-06)
(4.20548e-05 -5.73523e-05 -6.99747e-06)
(0.000207516 -4.23215e-05 8.69315e-06)
(0.000429305 -3.83963e-05 -2.22311e-05)
(-5.40989e-05 -2.43662e-05 -9.90089e-06)
(0.000110266 -1.4096e-05 -2.20213e-05)
(0.000286817 -4.8018e-05 -3.2017e-05)
(-4.43261e-05 -3.34752e-05 7.71264e-06)
(0.000139064 -2.31905e-05 -1.78909e-05)
(0.000245106 -4.07461e-05 -1.57094e-05)
(0.000102016 -7.05704e-05 -4.02193e-05)
(-0.000162786 -2.53168e-05 -1.33924e-05)
(3.74086e-05 -3.29133e-05 -1.20558e-05)
(0.000101011 -4.42364e-05 -4.25487e-05)
(0.000268303 -7.46426e-05 -1.52299e-05)
(-0.000114185 -0.000119402 1.56759e-05)
(0.000126197 -4.77114e-05 1.00271e-05)
(0.000131484 -7.21688e-05 -5.95422e-05)
(4.07818e-05 -7.01507e-05 -6.15877e-05)
(-0.000251136 -2.22159e-05 2.32862e-06)
(1.93291e-05 -6.07534e-05 1.31229e-05)
(1.35101e-05 -6.58123e-05 -5.11361e-05)
)
;
    }
    procBoundary6to0
    {
        type            processor;
        value           uniform (3.05232e-05 4.49882e-07 1.10093e-05);
    }
    procBoundary6to2
    {
        type            processor;
        value           nonuniform List<vector> 
32
(
(6.26019e-05 -7.8028e-06 1.69958e-05)
(0.00011118 -2.6363e-05 2.37274e-05)
(8.11319e-05 -1.94484e-05 1.58271e-05)
(0.000168258 -2.72267e-05 2.18412e-05)
(0.000140661 -3.32449e-05 2.25009e-05)
(9.86319e-05 -3.09929e-05 1.45995e-05)
(0.00162001 3.7911e-05 -0.000135725)
(0.000926372 1.71167e-05 -6.12015e-05)
(0.000535918 3.67924e-06 -2.37639e-05)
(0.000318531 -4.46101e-06 3.59804e-06)
(0.000195378 -6.65852e-06 1.08546e-05)
(0.00012677 -1.04432e-05 1.94712e-05)
(8.32078e-05 -9.0161e-06 1.42533e-05)
(5.87383e-05 -8.69692e-06 1.14157e-05)
(5.87383e-05 -8.69692e-06 1.14157e-05)
(5.87383e-05 -8.69692e-06 1.14157e-05)
(0.00166543 8.26188e-05 -0.000131674)
(0.000976801 3.37372e-05 -6.33842e-05)
(0.00057831 6.81154e-06 -2.72047e-05)
(0.000358109 -7.74277e-06 -1.22423e-06)
(0.000225526 -1.27353e-05 8.94977e-06)
(0.000158441 -1.93128e-05 1.7318e-05)
(0.000105355 -1.85363e-05 1.19516e-05)
(0.000105355 -1.85363e-05 1.19516e-05)
(0.000105355 -1.85363e-05 1.19516e-05)
(0.00171757 7.49076e-05 -0.00013143)
(0.0010345 3.38787e-05 -6.72765e-05)
(0.000630854 6.46562e-06 -3.21235e-05)
(0.000404944 -9.75161e-06 -5.34692e-06)
(0.000264419 -1.76202e-05 8.43441e-06)
(0.000190878 -2.4304e-05 1.67757e-05)
(0.000190878 -2.4304e-05 1.67757e-05)
)
;
    }
    procBoundary6to4
    {
        type            processor;
        value           nonuniform List<vector> 
27
(
(0.0016074 -2.2917e-05 -6.61889e-05)
(0.000903827 -8.10204e-06 -3.25573e-05)
(0.000512573 -4.0087e-06 -1.52982e-05)
(0.000296112 -2.31981e-07 -1.58079e-06)
(0.000173836 7.77302e-07 4.4185e-06)
(0.000105771 3.68011e-06 6.99733e-06)
(6.49349e-05 4.33086e-07 6.94136e-06)
(3.88641e-05 -1.69167e-06 7.92428e-06)
(2.13717e-05 -1.57791e-06 4.65428e-06)
(0.00163607 -1.64973e-05 4.9446e-07)
(0.000931781 -5.83844e-06 -3.34219e-06)
(0.00053236 -4.23395e-06 -6.46958e-06)
(0.000313252 -1.8005e-06 -3.43999e-06)
(0.000184565 -1.81808e-06 -6.20155e-07)
(0.000118251 -1.28357e-06 -2.42474e-07)
(7.1808e-05 -2.70607e-06 -6.14881e-07)
(5.16465e-05 -4.54798e-06 -4.24032e-06)
(2.61877e-05 -5.58938e-06 -2.18355e-06)
(0.00168109 -1.58139e-05 2.47268e-05)
(0.000981183 -9.55158e-06 9.09616e-06)
(0.000574801 -6.3342e-06 -1.21795e-06)
(0.000353707 -3.43411e-06 -3.07039e-06)
(0.000217279 -3.81398e-06 -2.24356e-06)
(0.0001491 -4.26373e-06 -1.66501e-06)
(9.6663e-05 -6.02218e-06 -4.75454e-06)
(7.7775e-05 -8.89411e-06 -8.33963e-06)
(4.37467e-05 -1.31394e-05 -6.40085e-06)
)
;
    }
    procBoundary6to7
    {
        type            processor;
        value           nonuniform List<vector> 
12
(
(2.23673e-05 -9.65024e-06 6.05191e-06)
(5.31017e-05 -1.99916e-05 1.84386e-06)
(6.46323e-05 -2.85378e-05 -2.75025e-06)
(7.85571e-06 -8.66067e-06 6.97948e-07)
(8.75249e-06 -1.91421e-05 -8.0253e-07)
(1.86554e-06 -3.03128e-05 -2.5106e-06)
(5.5398e-06 -1.12677e-05 -7.79747e-06)
(2.08939e-05 -2.32965e-05 -1.23066e-05)
(2.02657e-05 -3.08136e-05 -8.12093e-06)
(7.48602e-06 -1.41108e-05 -1.98444e-05)
(1.54207e-05 -2.12859e-05 -2.27903e-05)
(1.51853e-05 -2.9103e-05 -2.17629e-05)
)
;
    }
}


// ************************************************************************* //
