/*--------------------------------*- C++ -*----------------------------------*\
| =========                 |                                                 |
| \\      /  F ield         | OpenFOAM: The Open Source CFD Toolbox           |
|  \\    /   O peration     | Version:  4.x                                   |
|   \\  /    A nd           | Web:      www.OpenFOAM.org                      |
|    \\/     M anipulation  |                                                 |
\*---------------------------------------------------------------------------*/
FoamFile
{
    version     2.0;
    format      ascii;
    class       volScalarField;
    location    "59";
    object      KslNext;
}
// * * * * * * * * * * * * * * * * * * * * * * * * * * * * * * * * * * * * * //

dimensions      [1 -3 -1 0 0 0 0];

internalField   nonuniform List<scalar> 
87
(
3796.51
12052.3
3474.73
3217.49
6571.62
3122.42
3574.44
12774.3
3866.94
29554
4011.9
247045
4063.33
1e+10
4059.66
3482.95
10832.6
3683.53
16035.3
3787.7
27802.3
3824.35
78746
3816.05
3368.18
8196.91
3395.04
8094.83
3436.97
8628.37
3443.91
9679.76
3477.91
3517.89
10651.4
3708.37
15086.1
3761.52
23325.9
3797.18
45118.9
3770.91
3442.42
9071.57
3562.11
9958.53
3587.04
10937.8
3603.3
12487.1
3544.11
3361.09
7535.45
3300.22
6921.47
3264.08
6612.09
3220.76
6452.83
3156.89
3427.96
8107.16
3460.69
8107.48
3423.91
8165.13
3423.98
8647.24
3360.52
3369.57
7564.77
3342.25
7047.13
3288.58
6745.75
3254.33
6651.68
3175.04
3315.82
6984.74
3199.25
6034.67
3070.07
5511.44
3022.37
5275.27
2974.75
)
;

boundaryField
{
    inlet
    {
        type            zeroGradient;
    }
    outlet
    {
        type            zeroGradient;
    }
    wall
    {
        type            zeroGradient;
    }
    procBoundary6to0
    {
        type            processor;
        value           uniform 0;
    }
    procBoundary6to2
    {
        type            processor;
        value           uniform 0;
    }
    procBoundary6to4
    {
        type            processor;
        value           uniform 0;
    }
    procBoundary6to7
    {
        type            processor;
        value           uniform 0;
    }
}


// ************************************************************************* //
