/*--------------------------------*- C++ -*----------------------------------*\
| =========                 |                                                 |
| \\      /  F ield         | OpenFOAM: The Open Source CFD Toolbox           |
|  \\    /   O peration     | Version:  4.x                                   |
|   \\  /    A nd           | Web:      www.OpenFOAM.org                      |
|    \\/     M anipulation  |                                                 |
\*---------------------------------------------------------------------------*/
FoamFile
{
    version     2.0;
    format      ascii;
    class       surfaceScalarField;
    location    "59";
    object      phi;
}
// * * * * * * * * * * * * * * * * * * * * * * * * * * * * * * * * * * * * * //

dimensions      [0 3 -1 0 0 0 0];

internalField   nonuniform List<scalar> 
192
(
2.8719e-07
-7.32651e-08
7.49678e-06
8.52043e-08
-1.231e-07
1.52053e-07
-1.28719e-07
9.40566e-06
-2.73773e-07
9.48383e-06
-3.08991e-07
-2.64495e-07
7.21147e-06
3.6335e-07
7.43982e-08
6.86694e-06
1.45641e-07
2.58835e-08
6.0039e-06
3.37345e-07
1.15068e-07
5.72064e-06
9.22735e-08
3.65639e-08
5.17667e-06
1.69232e-07
9.72918e-08
5.00281e-06
5.2475e-08
3.66638e-08
4.97838e-06
-2.88785e-08
-4.90055e-09
4.87748e-06
2.27302e-08
3.61113e-08
-1.60236e-07
-3.95169e-08
7.61328e-06
4.83337e-07
4.59179e-08
7.37113e-06
1.90333e-07
2.44593e-09
6.81228e-06
4.66158e-07
8.06999e-08
6.60327e-06
1.34695e-07
-1.59729e-08
6.1276e-06
2.80016e-07
8.05281e-08
5.97059e-06
7.86063e-08
-8.19232e-09
5.5837e-06
9.42159e-08
6.05734e-08
5.45852e-06
2.24501e-08
2.36225e-09
-1.41469e-07
2.77276e-08
8.28813e-06
-9.75245e-09
8.28149e-06
-3.55871e-08
8.36521e-06
3.43355e-09
8.2686e-06
-6.56228e-08
8.17764e-06
1.04338e-08
8.07793e-06
-8.37159e-08
7.89204e-06
6.33069e-09
7.70884e-06
-1.0334e-07
3.93958e-08
7.55991e-06
4.3775e-07
3.14874e-07
7.33983e-06
1.88567e-07
1.14863e-07
6.82284e-06
4.52114e-07
3.19149e-07
6.66373e-06
1.33566e-07
9.46492e-08
6.25129e-06
3.50583e-07
2.56469e-07
6.10809e-06
9.61362e-08
7.20258e-08
5.77035e-06
2.4994e-07
1.23004e-07
5.64135e-06
6.68291e-08
7.74017e-08
1.72598e-07
7.04414e-08
7.96493e-06
4.48972e-07
2.33032e-07
7.85302e-06
2.0598e-07
9.69369e-08
7.70014e-06
4.34752e-07
2.50947e-07
7.60978e-06
1.47277e-07
6.06719e-08
7.48839e-06
3.36753e-07
2.15751e-07
7.38174e-06
1.34623e-07
5.99747e-08
7.22789e-06
2.69073e-07
1.95282e-07
7.18153e-06
9.15864e-08
2.39656e-08
1.73072e-07
1.03481e-07
8.44986e-06
1.52628e-07
8.57087e-06
4.93788e-08
8.85277e-06
1.56291e-07
8.88203e-06
5.23866e-08
9.08597e-06
1.43253e-07
9.1243e-06
1.25705e-08
9.28487e-06
1.14842e-07
9.30012e-06
-2.70067e-08
7.69054e-08
8.21376e-06
3.56072e-07
8.19975e-06
1.52089e-07
8.23789e-06
3.18972e-07
8.19282e-06
1.22948e-07
8.22517e-06
1.9573e-07
8.15481e-06
6.7579e-08
8.07931e-06
8.73041e-08
8.05719e-06
-1.57121e-08
-4.80867e-10
8.40873e-06
3.43638e-07
8.49602e-06
1.61735e-07
8.73726e-06
3.28684e-07
8.77259e-06
1.48288e-07
8.95252e-06
2.3155e-07
8.98369e-06
9.63867e-08
9.10793e-06
1.58348e-07
9.10389e-06
1.22907e-08
2.53441e-08
8.65953e-06
8.87065e-06
9.35562e-06
9.5563e-06
9.9311e-06
1.00401e-05
1.03132e-05
1.02985e-05
)
;

boundaryField
{
    inlet
    {
        type            calculated;
        value           uniform -8.16327e-06;
    }
    outlet
    {
        type            calculated;
        value           nonuniform 0();
    }
    wall
    {
        type            calculated;
        value           uniform 0;
    }
    procBoundary6to0
    {
        type            processor;
        value           uniform -1.04698e-07;
    }
    procBoundary6to2
    {
        type            processor;
        value           nonuniform List<scalar> 
32
(
3.4122e-08
1.27014e-07
8.33009e-08
3.14325e-07
3.16031e-07
2.6919e-07
4.42897e-07
1.70302e-07
3.42614e-07
1.15833e-07
1.87135e-07
5.2543e-08
2.95828e-08
-5.54992e-06
-1.38186e-07
2.78731e-08
3.8408e-07
1.95013e-07
3.49339e-07
1.82558e-07
2.84358e-07
1.39073e-07
-7.44771e-06
-2.88793e-07
2.03221e-07
3.68221e-07
2.32567e-07
3.78997e-07
2.96933e-07
3.60537e-07
-9.15742e-06
2.62038e-07
)
;
    }
    procBoundary6to4
    {
        type            processor;
        value           nonuniform List<scalar> 
27
(
7.11462e-08
2.70734e-09
6.80111e-08
3.85944e-08
9.0307e-08
3.21801e-08
2.86212e-08
1.41915e-08
7.63538e-08
-7.48682e-08
-5.74676e-08
-1.39203e-07
-3.25402e-08
-9.73258e-08
1.17055e-08
-4.01018e-08
2.08761e-08
-1.17242e-08
-9.16948e-08
-2.32132e-08
-3.79603e-08
1.67644e-08
2.83881e-08
7.48144e-08
1.11193e-07
1.15237e-07
1.42769e-07
)
;
    }
    procBoundary6to7
    {
        type            processor;
        value           nonuniform List<scalar> 
12
(
5.40657e-06
7.67733e-06
9.63119e-06
4.92761e-06
5.2833e-06
7.26348e-06
5.37052e-06
7.10531e-06
9.43568e-06
7.98534e-06
9.18155e-06
1.04008e-05
)
;
    }
}


// ************************************************************************* //
