/*--------------------------------*- C++ -*----------------------------------*\
| =========                 |                                                 |
| \\      /  F ield         | OpenFOAM: The Open Source CFD Toolbox           |
|  \\    /   O peration     | Version:  4.x                                   |
|   \\  /    A nd           | Web:      www.OpenFOAM.org                      |
|    \\/     M anipulation  |                                                 |
\*---------------------------------------------------------------------------*/
FoamFile
{
    version     2.0;
    format      ascii;
    class       volScalarField;
    location    "59";
    object      QPartFluid;
}
// * * * * * * * * * * * * * * * * * * * * * * * * * * * * * * * * * * * * * //

dimensions      [1 -1 -3 0 0 0 0];

internalField   nonuniform List<scalar> 
87
(
8.12295e+09
6.83491e+09
8.97796e+09
5.70644e+09
6.23937e+09
5.62995e+09
9.9547e+09
8.95534e+09
6.08331e+09
7.98145e+09
1.10798e+10
6.07075e+09
8.71066e+09
6.67685e+09
9.9708e+09
6.30409e+09
9.21332e+09
8.17641e+09
1.02068e+10
8.84991e+09
8.71641e+09
8.74936e+09
9.19889e+09
9.38943e+09
4.68035e+09
7.57921e+09
5.96084e+09
6.13546e+09
8.70253e+09
9.43074e+09
7.33395e+09
6.26076e+09
8.73469e+09
7.34984e+09
9.00214e+09
9.65956e+09
8.63446e+09
6.66992e+09
7.89239e+09
7.9321e+09
6.11343e+09
9.57419e+09
5.37382e+09
8.87296e+09
8.84648e+09
8.03863e+09
7.94998e+09
6.5637e+09
1.00282e+10
6.61214e+09
9.99729e+09
4.81049e+09
6.67958e+09
6.18044e+09
7.84415e+09
8.21754e+09
6.18417e+09
7.63081e+09
6.43663e+09
6.87889e+09
4.91332e+09
5.40863e+09
7.43562e+09
7.03193e+09
7.17471e+09
6.51456e+09
1.03059e+10
8.70005e+09
4.53502e+09
5.1986e+09
5.83299e+09
7.62996e+09
6.18904e+09
9.67775e+09
6.7205e+09
7.21523e+09
6.10885e+09
8.49211e+09
4.24851e+09
6.13437e+09
6.76608e+09
6.33509e+09
5.24255e+09
8.48719e+09
5.61286e+09
5.63831e+09
7.19128e+09
)
;

boundaryField
{
    inlet
    {
        type            calculated;
        value           uniform 0;
    }
    outlet
    {
        type            calculated;
        value           nonuniform 0();
    }
    wall
    {
        type            calculated;
        value           uniform 0;
    }
    procBoundary6to0
    {
        type            processor;
        value           uniform 2.6259e+09;
    }
    procBoundary6to2
    {
        type            processor;
        value           nonuniform List<scalar> 
32
(
5.72925e+09
8.44591e+09
1.02209e+10
9.69205e+09
5.33098e+09
7.7326e+09
4.89845e+09
9.48742e+09
1.03026e+10
7.15621e+09
8.24021e+09
6.27853e+09
7.58967e+09
7.52424e+09
7.52424e+09
7.52424e+09
5.87137e+09
7.91756e+09
1.05296e+10
6.62699e+09
9.12743e+09
7.73836e+09
1.03141e+10
1.03141e+10
1.03141e+10
4.25908e+09
6.3063e+09
7.51503e+09
7.25748e+09
6.75866e+09
6.51066e+09
6.51066e+09
)
;
    }
    procBoundary6to4
    {
        type            processor;
        value           nonuniform List<scalar> 
27
(
3.45927e+09
6.73882e+09
9.41096e+09
5.72961e+09
8.82851e+09
6.72684e+09
1.10697e+10
6.04065e+09
7.09138e+09
6.20581e+09
8.58781e+09
7.54815e+09
9.6584e+09
1.05337e+10
7.62014e+09
1.18545e+10
8.49075e+09
8.14677e+09
7.25412e+09
7.01403e+09
6.7032e+09
7.98276e+09
8.4474e+09
9.54412e+09
4.97565e+09
5.18584e+09
7.09518e+09
)
;
    }
    procBoundary6to7
    {
        type            processor;
        value           nonuniform List<scalar> 
12
(
7.51052e+09
5.35826e+09
7.08121e+09
3.8593e+09
6.02325e+09
6.56796e+09
8.5731e+09
8.2261e+09
6.05094e+09
7.2864e+09
6.3538e+09
6.09073e+09
)
;
    }
}


// ************************************************************************* //
