/*--------------------------------*- C++ -*----------------------------------*\
| =========                 |                                                 |
| \\      /  F ield         | OpenFOAM: The Open Source CFD Toolbox           |
|  \\    /   O peration     | Version:  4.x                                   |
|   \\  /    A nd           | Web:      www.OpenFOAM.org                      |
|    \\/     M anipulation  |                                                 |
\*---------------------------------------------------------------------------*/
FoamFile
{
    version     2.0;
    format      ascii;
    class       volScalarField;
    location    "59";
    object      QPartFluidCoeff;
}
// * * * * * * * * * * * * * * * * * * * * * * * * * * * * * * * * * * * * * //

dimensions      [1 -1 -3 -1 0 0 0];

internalField   nonuniform List<scalar> 
87
(
-2.70765e+07
-2.2783e+07
-2.99265e+07
-1.90215e+07
-2.07979e+07
-1.87665e+07
-3.31823e+07
-2.98511e+07
-2.02777e+07
-2.66048e+07
-3.69327e+07
-2.02358e+07
-2.90355e+07
-2.22562e+07
-3.3236e+07
-2.10136e+07
-3.07111e+07
-2.72547e+07
-3.40226e+07
-2.94997e+07
-2.90547e+07
-2.91645e+07
-3.0663e+07
-3.12981e+07
-1.56012e+07
-2.5264e+07
-1.98695e+07
-2.04515e+07
-2.90084e+07
-3.14358e+07
-2.44465e+07
-2.08692e+07
-2.91156e+07
-2.44995e+07
-3.00071e+07
-3.21985e+07
-2.87815e+07
-2.22331e+07
-2.6308e+07
-2.64403e+07
-2.03781e+07
-3.1914e+07
-1.79127e+07
-2.95765e+07
-2.94883e+07
-2.67954e+07
-2.64999e+07
-2.1879e+07
-3.34274e+07
-2.20405e+07
-3.33243e+07
-1.6035e+07
-2.22653e+07
-2.06015e+07
-2.61472e+07
-2.73918e+07
-2.06139e+07
-2.5436e+07
-2.14554e+07
-2.29296e+07
-1.63777e+07
-1.80288e+07
-2.47854e+07
-2.34398e+07
-2.39157e+07
-2.17152e+07
-3.4353e+07
-2.90002e+07
-1.51167e+07
-1.73287e+07
-1.94433e+07
-2.54332e+07
-2.06301e+07
-3.22592e+07
-2.24017e+07
-2.40508e+07
-2.03628e+07
-2.8307e+07
-1.41617e+07
-2.04479e+07
-2.25536e+07
-2.1117e+07
-1.74752e+07
-2.82906e+07
-1.87095e+07
-1.87944e+07
-2.39709e+07
)
;

boundaryField
{
    inlet
    {
        type            calculated;
        value           uniform 0;
    }
    outlet
    {
        type            calculated;
        value           nonuniform 0();
    }
    wall
    {
        type            calculated;
        value           uniform 0;
    }
    procBoundary6to0
    {
        type            processor;
        value           uniform 198.481;
    }
    procBoundary6to2
    {
        type            processor;
        value           nonuniform List<scalar> 
32
(
433.05
638.391
772.552
732.582
402.946
584.475
370.253
717.114
778.728
540.908
622.842
474.567
573.671
568.726
568.726
568.726
443.792
598.455
795.887
500.906
689.904
584.91
779.597
779.597
779.597
321.926
476.667
568.029
548.562
510.859
492.114
492.114
)
;
    }
    procBoundary6to4
    {
        type            processor;
        value           nonuniform List<scalar> 
27
(
261.472
509.359
711.335
433.077
667.31
508.453
836.71
456.588
536.008
469.071
649.116
570.533
730.038
796.195
575.974
896.028
641.78
615.78
548.309
530.161
506.667
603.383
638.504
721.4
376.089
391.976
536.295
)
;
    }
    procBoundary6to7
    {
        type            processor;
        value           nonuniform List<scalar> 
12
(
567.688
405.008
535.239
291.708
455.272
496.445
648.004
621.777
457.365
550.748
480.257
460.372
)
;
    }
}


// ************************************************************************* //
