/*--------------------------------*- C++ -*----------------------------------*\
| =========                 |                                                 |
| \\      /  F ield         | OpenFOAM: The Open Source CFD Toolbox           |
|  \\    /   O peration     | Version:  4.x                                   |
|   \\  /    A nd           | Web:      www.OpenFOAM.org                      |
|    \\/     M anipulation  |                                                 |
\*---------------------------------------------------------------------------*/
FoamFile
{
    version     2.0;
    format      ascii;
    class       volScalarField;
    location    "25";
    object      Deff;
}
// * * * * * * * * * * * * * * * * * * * * * * * * * * * * * * * * * * * * * //

dimensions      [0 2 -1 0 0 0 0];

internalField   nonuniform List<scalar> 
132
(
9.78312e-08
9.78114e-08
9.7844e-08
9.77732e-08
9.75948e-08
9.75616e-08
9.7619e-08
9.77401e-08
9.76498e-08
9.79151e-08
9.77574e-08
9.78062e-08
9.78097e-08
9.76901e-08
9.77246e-08
9.76628e-08
9.77059e-08
9.76611e-08
9.81081e-08
9.79026e-08
9.78966e-08
9.78613e-08
9.77553e-08
9.76743e-08
9.7669e-08
9.77116e-08
9.76949e-08
9.81134e-08
9.80131e-08
9.78863e-08
9.79636e-08
9.7835e-08
9.77873e-08
9.77293e-08
9.78384e-08
9.79732e-08
9.77439e-08
9.76521e-08
9.7613e-08
9.75747e-08
9.74989e-08
9.75278e-08
9.76007e-08
9.79421e-08
9.77094e-08
9.76929e-08
9.76597e-08
9.7562e-08
9.75833e-08
9.75998e-08
9.75568e-08
9.76506e-08
9.79716e-08
9.77581e-08
9.77618e-08
9.77542e-08
9.76212e-08
9.75326e-08
9.75053e-08
9.75889e-08
9.76124e-08
9.79735e-08
9.78254e-08
9.78398e-08
9.77732e-08
9.76995e-08
9.77047e-08
9.76478e-08
9.76545e-08
9.78449e-08
9.76317e-08
9.76125e-08
9.75447e-08
9.75917e-08
9.76512e-08
9.77922e-08
9.77102e-08
9.76752e-08
9.77058e-08
9.75596e-08
9.75967e-08
9.75542e-08
9.75038e-08
9.75894e-08
9.7875e-08
9.77681e-08
9.77157e-08
9.77008e-08
9.75957e-08
9.75801e-08
9.75393e-08
9.7585e-08
9.76116e-08
9.80051e-08
9.78624e-08
9.77903e-08
9.77558e-08
9.77376e-08
9.77438e-08
9.76176e-08
9.76745e-08
9.7827e-08
9.76695e-08
9.76626e-08
9.77108e-08
9.78779e-08
9.7832e-08
9.76808e-08
9.76704e-08
9.77162e-08
9.77848e-08
9.76482e-08
9.76499e-08
9.77428e-08
9.79435e-08
9.7871e-08
9.78128e-08
9.77666e-08
9.76963e-08
9.76998e-08
9.76293e-08
9.76835e-08
9.77139e-08
9.8003e-08
9.78546e-08
9.78845e-08
9.78419e-08
9.77574e-08
9.77345e-08
9.77016e-08
9.77796e-08
9.79801e-08
)
;

boundaryField
{
    inlet
    {
        type            calculated;
        value           nonuniform 0();
    }
    outlet
    {
        type            calculated;
        value           uniform 0;
    }
    wall
    {
        type            calculated;
        value           uniform 0;
    }
    procBoundary7to0
    {
        type            processor;
        value           uniform 0;
    }
    procBoundary7to1
    {
        type            processor;
        value           uniform 0;
    }
    procBoundary7to3
    {
        type            processor;
        value           uniform 0;
    }
    procBoundary7to5
    {
        type            processor;
        value           uniform 0;
    }
    procBoundary7to6
    {
        type            processor;
        value           uniform 0;
    }
}


// ************************************************************************* //
