/*--------------------------------*- C++ -*----------------------------------*\
| =========                 |                                                 |
| \\      /  F ield         | OpenFOAM: The Open Source CFD Toolbox           |
|  \\    /   O peration     | Version:  4.x                                   |
|   \\  /    A nd           | Web:      www.OpenFOAM.org                      |
|    \\/     M anipulation  |                                                 |
\*---------------------------------------------------------------------------*/
FoamFile
{
    version     2.0;
    format      ascii;
    class       volVectorField;
    location    "25";
    object      impParticleForces;
}
// * * * * * * * * * * * * * * * * * * * * * * * * * * * * * * * * * * * * * //

dimensions      [1 1 -2 0 0 0 0];

internalField   nonuniform List<vector> 
132
(
(0.00234714 2.62339e-05 -7.21261e-05)
(0.00229161 2.56952e-05 -6.91612e-05)
(0.0021497 1.88654e-05 -0.000101759)
(0.00224185 2.4094e-05 -9.16627e-05)
(0.00224452 2.84554e-05 -5.85223e-05)
(0.00228469 2.72283e-05 -2.84166e-05)
(0.00222228 1.26554e-05 -1.12873e-05)
(0.00224197 4.63676e-07 4.72011e-06)
(0.00220259 7.10084e-06 9.30361e-07)
(0.00243419 6.78707e-05 -6.59222e-05)
(0.00242551 7.47778e-05 -6.03666e-05)
(0.00231762 3.95282e-05 -7.7298e-05)
(0.00233884 2.16586e-05 -7.3688e-05)
(0.00232629 2.00458e-05 -5.32096e-05)
(0.00236496 1.75226e-05 -3.39067e-05)
(0.00232534 1.15589e-05 -1.44538e-05)
(0.00232059 3.26545e-06 8.66922e-07)
(0.00224614 3.00676e-05 -7.3025e-06)
(0.00251359 7.9063e-05 -6.10011e-05)
(0.00254591 8.37524e-05 -5.71635e-05)
(0.00248041 5.37804e-05 -6.45323e-05)
(0.0024808 2.94242e-05 -6.26962e-05)
(0.00245367 1.90227e-05 -5.1354e-05)
(0.00248778 1.14923e-05 -4.181e-05)
(0.00243093 1.64996e-05 -2.05537e-05)
(0.00240072 2.1598e-05 -5.43135e-06)
(0.00229393 5.51696e-05 -1.50467e-05)
(0.00253957 8.20223e-05 -5.90171e-05)
(0.00255849 8.31491e-05 -5.67962e-05)
(0.00254394 6.13186e-05 -5.83276e-05)
(0.0025192 3.63844e-05 -5.54429e-05)
(0.00251849 2.26487e-05 -4.87731e-05)
(0.00251769 1.34596e-05 -3.90892e-05)
(0.00245883 2.03849e-05 -2.61173e-05)
(0.00244072 2.74658e-05 -1.37874e-05)
(0.00231014 5.5534e-05 -2.11456e-05)
(0.002268 1.69331e-05 -6.06106e-05)
(0.00227608 1.52442e-05 -6.63633e-05)
(0.0022335 1.81444e-05 -5.25426e-05)
(0.00225005 2.28349e-05 -3.57772e-05)
(0.00219616 1.36794e-06 -2.23138e-05)
(0.0022028 -1.62078e-05 -8.74239e-06)
(0.00215855 -7.27042e-06 1.51073e-06)
(0.00240731 4.87137e-05 -4.13878e-05)
(0.00241909 5.19623e-05 -3.57382e-05)
(0.00233563 3.34384e-05 -5.21223e-05)
(0.0023455 2.02456e-05 -5.83944e-05)
(0.00230776 1.5295e-05 -5.24167e-05)
(0.00232215 8.98996e-06 -4.19444e-05)
(0.00227438 4.48664e-06 -2.79244e-05)
(0.00226601 2.4212e-06 -1.61386e-05)
(0.00219692 1.85184e-05 -8.42514e-06)
(0.00248606 6.29802e-05 -3.63031e-05)
(0.0025198 6.67475e-05 -3.29785e-05)
(0.00245559 4.65907e-05 -4.46573e-05)
(0.00245261 2.87959e-05 -5.12078e-05)
(0.00242382 1.70733e-05 -4.98177e-05)
(0.00243175 5.16239e-06 -4.43148e-05)
(0.00235909 1.28153e-05 -3.17769e-05)
(0.00233402 2.03152e-05 -1.93664e-05)
(0.00224699 4.33488e-05 -1.18863e-05)
(0.00250607 6.93318e-05 -3.64829e-05)
(0.00253147 7.37735e-05 -3.52156e-05)
(0.00251482 5.3025e-05 -4.16935e-05)
(0.00250265 3.33631e-05 -4.72736e-05)
(0.00248171 2.11466e-05 -4.66817e-05)
(0.00245621 1.28472e-05 -4.21969e-05)
(0.00239663 1.80478e-05 -3.25075e-05)
(0.00236322 2.39724e-05 -2.09231e-05)
(0.00226325 4.86742e-05 -1.61777e-05)
(0.00229187 7.57895e-06 -4.6534e-05)
(0.00229893 5.36481e-06 -4.71552e-05)
(0.00223902 -8.2206e-06 -3.17316e-05)
(0.00222857 -1.99117e-05 -2.52757e-05)
(0.00215953 -2.11866e-05 1.73808e-06)
(0.00246344 3.77588e-05 -1.85553e-05)
(0.00247619 4.67166e-05 -1.1081e-05)
(0.00242056 2.92119e-05 -3.05965e-05)
(0.00241551 1.87139e-05 -4.41609e-05)
(0.00237078 1.23612e-05 -4.98063e-05)
(0.00236655 6.72813e-06 -5.66011e-05)
(0.00230565 5.59324e-07 -4.13825e-05)
(0.00229256 -8.08329e-06 -3.62485e-05)
(0.0021995 1.79565e-05 -1.16406e-05)
(0.00251301 4.9437e-05 -1.77624e-05)
(0.00254471 5.2951e-05 -8.40169e-06)
(0.00251644 3.95918e-05 -2.67772e-05)
(0.0025166 2.70329e-05 -4.26075e-05)
(0.00248393 1.76807e-05 -4.79062e-05)
(0.00246998 1.07631e-05 -5.38924e-05)
(0.00240177 1.46859e-05 -4.26038e-05)
(0.00236887 2.05062e-05 -4.00243e-05)
(0.00225705 5.00875e-05 -1.44019e-05)
(0.00250496 5.52948e-05 -2.18079e-05)
(0.00253088 5.72674e-05 -1.80763e-05)
(0.00252028 4.4351e-05 -2.89222e-05)
(0.00253558 3.13267e-05 -4.0298e-05)
(0.00251106 2.19523e-05 -4.51329e-05)
(0.00250117 1.57818e-05 -5.03389e-05)
(0.00243399 2.12104e-05 -4.11015e-05)
(0.0023903 2.79369e-05 -3.69499e-05)
(0.00227641 5.44705e-05 -2.20921e-05)
(0.00227823 -1.35545e-05 -3.08747e-05)
(0.00224909 -2.30694e-05 -2.47319e-05)
(0.00216352 -2.97736e-05 -2.79395e-06)
(0.00246418 3.04345e-05 -1.67951e-05)
(0.00247482 3.33813e-05 -1.37905e-05)
(0.00244763 2.41124e-05 -2.61242e-05)
(0.00244707 1.61188e-05 -3.80223e-05)
(0.00240028 1.02775e-05 -4.59396e-05)
(0.00236661 5.08401e-06 -4.64699e-05)
(0.00230827 6.75132e-07 -4.16695e-05)
(0.00227058 -2.32789e-06 -3.18434e-05)
(0.00218255 7.05924e-06 -1.9307e-05)
(0.00248668 4.12177e-05 -1.85637e-05)
(0.00250301 4.25754e-05 -1.585e-05)
(0.00250354 3.44406e-05 -2.67421e-05)
(0.00251989 2.52344e-05 -3.87217e-05)
(0.0024839 1.80031e-05 -4.88284e-05)
(0.00243896 1.34947e-05 -5.0713e-05)
(0.00238197 1.49262e-05 -4.88974e-05)
(0.002339 1.89518e-05 -3.99275e-05)
(0.00223768 3.46524e-05 -3.47089e-05)
(0.00248404 4.74053e-05 -2.17415e-05)
(0.00251516 4.83672e-05 -1.9574e-05)
(0.00251407 3.92495e-05 -2.83245e-05)
(0.00254305 2.97781e-05 -3.89094e-05)
(0.00252304 2.2403e-05 -4.89441e-05)
(0.00246344 1.80241e-05 -4.95716e-05)
(0.00240042 2.16745e-05 -5.02929e-05)
(0.00235986 2.68574e-05 -4.31093e-05)
(0.00226297 4.39289e-05 -5.25218e-05)
)
;

boundaryField
{
    inlet
    {
        type            zeroGradient;
    }
    outlet
    {
        type            zeroGradient;
    }
    wall
    {
        type            zeroGradient;
    }
    procBoundary7to0
    {
        type            processor;
        value           uniform (0.00241135 2.56036e-05 -7.38198e-05);
    }
    procBoundary7to1
    {
        type            processor;
        value           uniform (0.00235935 -1.62282e-05 -8.77267e-05);
    }
    procBoundary7to3
    {
        type            processor;
        value           nonuniform List<vector> 
36
(
(0.00238082 2.81096e-05 -0.000131789)
(0.00228208 6.98789e-06 -0.000147574)
(0.00195127 1.70821e-05 -0.000137169)
(0.00229223 3.5156e-05 -7.2134e-05)
(0.00234843 3.52751e-05 -3.83918e-05)
(0.00240532 3.5794e-05 -1.03633e-05)
(0.00236613 2.59718e-05 8.42932e-06)
(0.00237431 1.89613e-05 2.83435e-05)
(0.00230498 2.15729e-05 1.4818e-07)
(0.00250171 8.10567e-05 -0.000111702)
(0.00246347 8.13076e-05 -0.000116495)
(0.00233471 3.85266e-05 -0.000100994)
(0.00239396 2.46194e-05 -6.67199e-05)
(0.00238885 2.60247e-05 -3.91777e-05)
(0.00246066 2.48604e-05 -9.71851e-06)
(0.00242977 2.08317e-05 4.99159e-06)
(0.00243734 1.68577e-05 1.5167e-05)
(0.0023306 3.66425e-05 -1.11412e-05)
(0.00259247 9.22956e-05 -9.61711e-05)
(0.00262278 9.71518e-05 -9.98666e-05)
(0.00254127 5.76984e-05 -8.41135e-05)
(0.00254314 3.07498e-05 -6.03354e-05)
(0.00250643 2.269e-05 -3.86626e-05)
(0.00255892 1.36551e-05 -1.62638e-05)
(0.00251234 2.11076e-05 -2.93268e-06)
(0.00248237 3.09623e-05 -6.38583e-07)
(0.00236238 5.82517e-05 -2.42889e-05)
(0.00259668 9.15861e-05 -8.69933e-05)
(0.00261172 9.44952e-05 -8.51068e-05)
(0.00259961 6.3505e-05 -7.3772e-05)
(0.00260035 3.68027e-05 -5.66755e-05)
(0.00258977 2.3449e-05 -3.9233e-05)
(0.00259656 1.22106e-05 -2.17387e-05)
(0.00252391 2.70181e-05 -1.45941e-05)
(0.00250087 3.98205e-05 -1.54449e-05)
(0.00238125 7.40333e-05 -3.91283e-05)
)
;
    }
    procBoundary7to5
    {
        type            processor;
        value           nonuniform List<vector> 
44
(
(0.00235107 -2.02811e-05 -9.89258e-05)
(0.00226362 9.89342e-06 -9.44548e-05)
(0.0023086 2.98111e-05 -7.34679e-05)
(0.00228243 2.89182e-05 -4.91708e-05)
(0.00229308 2.57464e-05 -2.63472e-05)
(0.00222627 1.50987e-05 -2.79159e-06)
(0.00225449 9.55698e-06 1.87931e-05)
(0.00221065 -9.80243e-06 1.25813e-05)
(0.00236506 2.07529e-05 -4.47536e-05)
(0.00234295 2.03049e-05 -4.1477e-05)
(0.00229945 2.32504e-06 -5.92844e-05)
(0.00230979 9.22474e-06 -5.72292e-05)
(0.00226031 1.33799e-05 -4.29081e-05)
(0.00225543 1.45516e-05 -2.45231e-05)
(0.00215155 -4.74077e-06 -1.26371e-05)
(0.00219868 -1.41481e-05 3.3104e-06)
(0.00216538 -3.06236e-05 2.03722e-05)
(0.00236506 2.07529e-05 -4.47536e-05)
(0.00234295 2.03049e-05 -4.1477e-05)
(0.00234295 2.03049e-05 -4.1477e-05)
(0.00237035 1.17094e-05 -3.48566e-05)
(0.00236497 8.8682e-06 -4.92092e-05)
(0.00236915 -3.15584e-08 -3.46211e-05)
(0.00235835 -3.80147e-06 -2.30385e-05)
(0.00229466 -2.01362e-05 -1.57506e-05)
(0.00227463 -3.3263e-05 -1.1267e-05)
(0.00219977 -6.49282e-05 2.83708e-05)
(0.00242643 1.39445e-05 -1.66807e-05)
(0.00244682 1.62002e-05 -6.05992e-06)
(0.00237035 1.17094e-05 -3.48566e-05)
(0.00236497 8.8682e-06 -4.92092e-05)
(0.00236497 8.8682e-06 -4.92092e-05)
(0.00238158 1.51371e-06 -4.16049e-05)
(0.0023368 -2.25546e-06 -3.73617e-05)
(0.00234076 -2.82735e-05 -1.58763e-05)
(0.00230332 -4.23509e-05 -5.84351e-06)
(0.00221089 -7.28848e-05 1.90839e-05)
(0.00243739 1.0131e-05 -1.39111e-05)
(0.0024525 1.07105e-05 -8.12622e-06)
(0.00242672 7.51185e-06 -2.53528e-05)
(0.00240974 5.1572e-06 -3.70967e-05)
(0.00238158 1.51371e-06 -4.16049e-05)
(0.0023368 -2.25546e-06 -3.73617e-05)
(0.0023368 -2.25546e-06 -3.73617e-05)
)
;
    }
    procBoundary7to6
    {
        type            processor;
        value           nonuniform List<vector> 
12
(
(0.00248502 6.13018e-05 -6.64747e-05)
(0.00255091 7.34788e-05 -6.45464e-05)
(0.00253151 7.49429e-05 -6.34314e-05)
(0.00246391 4.86931e-05 -4.49474e-05)
(0.00252571 5.82819e-05 -4.21559e-05)
(0.00252621 6.58162e-05 -4.21042e-05)
(0.0024916 3.59786e-05 -2.45325e-05)
(0.00254093 4.65249e-05 -2.18774e-05)
(0.00251902 5.33769e-05 -2.61934e-05)
(0.00247513 2.8387e-05 -2.1912e-05)
(0.0025059 3.91499e-05 -2.36364e-05)
(0.00250293 4.66972e-05 -2.63389e-05)
)
;
    }
}


// ************************************************************************* //
