/*--------------------------------*- C++ -*----------------------------------*\
| =========                 |                                                 |
| \\      /  F ield         | OpenFOAM: The Open Source CFD Toolbox           |
|  \\    /   O peration     | Version:  4.x                                   |
|   \\  /    A nd           | Web:      www.OpenFOAM.org                      |
|    \\/     M anipulation  |                                                 |
\*---------------------------------------------------------------------------*/
FoamFile
{
    version     2.0;
    format      ascii;
    class       volScalarField;
    location    "25";
    object      QWallFluidCoeff;
}
// * * * * * * * * * * * * * * * * * * * * * * * * * * * * * * * * * * * * * //

dimensions      [1 -1 -3 -1 0 0 0];

internalField   nonuniform List<scalar> 
132
(
0
0
0
0
0
0
0
0
0
0
0
0
0
0
0
0
0
0
0
0
0
0
0
0
0
0
0
-2.00725e+06
-3.25696e+06
-2.30518e+06
-3.4127e+06
-2.25476e+06
-3.64065e+06
-2.00169e+06
-4.15164e+06
-1.3648e+06
0
0
0
0
0
0
0
0
0
0
0
0
0
0
0
0
0
0
0
0
0
0
0
0
0
-1.56959e+06
-3.00883e+06
-2.33017e+06
-2.75074e+06
-2.09301e+06
-2.64863e+06
-1.24485e+06
-2.67795e+06
-1.04445e+06
0
0
0
0
0
0
0
0
0
0
0
0
0
0
0
0
0
0
0
0
0
0
0
-2.033e+06
-3.16198e+06
-2.34514e+06
-3.27438e+06
-2.36065e+06
-3.606e+06
-2.15936e+06
-4.46426e+06
-1.81914e+06
-1.60307e+06
-2.78032e+06
-892822
-1.61318e+06
-2.82309e+06
-1.89949e+06
-2.7787e+06
-1.85771e+06
-2.72114e+06
-1.21814e+06
-2.55566e+06
-565106
-1.80675e+06
-2.97838e+06
-2.51674e+06
-2.93012e+06
-2.26898e+06
-2.89215e+06
-1.84708e+06
-2.92424e+06
-921079
-4.67307e+06
-6.45572e+06
-5.40522e+06
-6.51119e+06
-5.36876e+06
-6.60673e+06
-4.83228e+06
-6.7432e+06
-4.83304e+06
)
;

boundaryField
{
    inlet
    {
        type            calculated;
        value           nonuniform 0();
    }
    outlet
    {
        type            calculated;
        value           uniform 0;
    }
    wall
    {
        type            calculated;
        value           uniform 0;
    }
    procBoundary7to0
    {
        type            processor;
        value           uniform 0;
    }
    procBoundary7to1
    {
        type            processor;
        value           uniform 0;
    }
    procBoundary7to3
    {
        type            processor;
        value           uniform 0;
    }
    procBoundary7to5
    {
        type            processor;
        value           uniform 0;
    }
    procBoundary7to6
    {
        type            processor;
        value           uniform 0;
    }
}


// ************************************************************************* //
