/*--------------------------------*- C++ -*----------------------------------*\
| =========                 |                                                 |
| \\      /  F ield         | OpenFOAM: The Open Source CFD Toolbox           |
|  \\    /   O peration     | Version:  4.x                                   |
|   \\  /    A nd           | Web:      www.OpenFOAM.org                      |
|    \\/     M anipulation  |                                                 |
\*---------------------------------------------------------------------------*/
FoamFile
{
    version     2.0;
    format      ascii;
    class       volScalarField;
    location    "25";
    object      Sm;
}
// * * * * * * * * * * * * * * * * * * * * * * * * * * * * * * * * * * * * * //

dimensions      [1 -3 -1 0 0 0 0];

internalField   nonuniform List<scalar> 
132
(
9.92134e-65
7.82825e-65
6.43278e-65
6.74259e-65
1.0307e-64
1.03851e-64
7.98173e-65
5.65734e-65
8.36983e-65
7.67301e-65
9.45572e-65
7.28522e-65
6.89779e-65
8.29241e-65
5.65719e-65
7.51638e-65
6.35477e-65
8.05985e-65
4.805e-65
7.44052e-65
6.12254e-65
7.13006e-65
7.44013e-65
8.0602e-65
7.51788e-65
7.20758e-65
8.60251e-65
6.50969e-65
6.58855e-65
8.68034e-65
5.50259e-65
7.28502e-65
6.74267e-65
7.90548e-65
5.89011e-65
4.34001e-65
6.43266e-65
7.36286e-65
6.74285e-65
6.89761e-65
8.60236e-65
8.4473e-65
7.3624e-65
3.95263e-65
8.52553e-65
7.44007e-65
7.51754e-65
8.1376e-65
7.05219e-65
5.73472e-65
7.67215e-65
5.73482e-65
5.50267e-65
8.21563e-65
6.97496e-65
6.04459e-65
7.36314e-65
8.60259e-65
8.91302e-65
7.05234e-65
7.98243e-65
6.74261e-65
7.90544e-65
5.96744e-65
7.20781e-65
7.36272e-65
6.20014e-65
6.58776e-65
7.98253e-65
5.34747e-65
5.03759e-65
5.81251e-65
7.36242e-65
6.04493e-65
5.81242e-65
8.06027e-65
7.36258e-65
6.82021e-65
5.19248e-65
8.52521e-65
7.05239e-65
7.1299e-65
8.75728e-65
7.51738e-65
7.05266e-65
7.36253e-65
7.51771e-65
6.97522e-65
7.9838e-65
7.59499e-65
7.67204e-65
7.05229e-65
7.74997e-65
5.58001e-65
6.35511e-65
7.05265e-65
6.89783e-65
6.12288e-65
5.27008e-65
7.595e-65
7.05252e-65
5.81243e-65
5.50257e-65
6.43251e-65
6.12243e-65
6.89767e-65
5.81257e-65
7.67287e-65
7.44018e-65
5.19266e-65
3.87506e-65
6.89757e-65
6.66501e-65
5.42491e-65
5.96757e-65
6.04509e-65
6.04518e-65
6.20022e-65
6.89798e-65
6.35516e-65
7.2076e-65
6.43254e-65
7.28491e-65
6.045e-65
7.4401e-65
5.65761e-65
5.81267e-65
6.58783e-65
6.51019e-65
6.51018e-65
6.3551e-65
4.10746e-65
)
;

boundaryField
{
    inlet
    {
        type            calculated;
        value           nonuniform 0();
    }
    outlet
    {
        type            calculated;
        value           uniform 0;
    }
    wall
    {
        type            calculated;
        value           uniform 0;
    }
    procBoundary7to0
    {
        type            processor;
        value           uniform 2.32512e-65;
    }
    procBoundary7to1
    {
        type            processor;
        value           uniform 5.73531e-65;
    }
    procBoundary7to3
    {
        type            processor;
        value           nonuniform List<scalar> 
36
(
7.67344e-65
9.06918e-65
8.75941e-65
8.52487e-65
6.12218e-65
6.27745e-65
8.52402e-65
7.12973e-65
7.44054e-65
9.06853e-65
5.03787e-65
7.75097e-65
4.34031e-65
4.64984e-65
7.90485e-65
7.28491e-65
8.8347e-65
6.12255e-65
5.11503e-65
8.13783e-65
8.2151e-65
5.81272e-65
6.81997e-65
7.98253e-65
6.66518e-65
7.20741e-65
5.42506e-65
8.52494e-65
4.02971e-65
5.42433e-65
6.12285e-65
5.58005e-65
7.13004e-65
6.20022e-65
7.90505e-65
8.52524e-65
)
;
    }
    procBoundary7to5
    {
        type            processor;
        value           nonuniform List<scalar> 
44
(
8.4479e-65
6.04523e-65
7.51752e-65
5.73496e-65
4.57263e-65
7.28538e-65
5.4251e-65
8.67993e-65
9.99835e-65
4.34012e-65
7.28526e-65
7.59514e-65
6.20012e-65
7.05258e-65
7.13011e-65
6.89747e-65
5.57995e-65
9.99835e-65
4.34012e-65
4.34012e-65
8.9904e-65
7.98271e-65
1.00756e-64
7.36265e-65
8.21516e-65
8.91253e-65
8.67999e-65
4.80517e-65
9.37793e-65
8.9904e-65
7.98271e-65
7.98271e-65
9.68792e-65
7.75016e-65
6.51012e-65
6.74255e-65
6.81997e-65
7.36265e-65
5.65755e-65
7.13076e-65
5.58019e-65
9.68792e-65
7.75016e-65
7.75016e-65
)
;
    }
    procBoundary7to6
    {
        type            processor;
        value           nonuniform List<scalar> 
12
(
6.74272e-65
7.13011e-65
4.95966e-65
8.52538e-65
7.59517e-65
7.51748e-65
7.90532e-65
7.75024e-65
5.65744e-65
3.79752e-65
7.82761e-65
6.04491e-65
)
;
    }
}


// ************************************************************************* //
