/*--------------------------------*- C++ -*----------------------------------*\
| =========                 |                                                 |
| \\      /  F ield         | OpenFOAM: The Open Source CFD Toolbox           |
|  \\    /   O peration     | Version:  4.x                                   |
|   \\  /    A nd           | Web:      www.OpenFOAM.org                      |
|    \\/     M anipulation  |                                                 |
\*---------------------------------------------------------------------------*/
FoamFile
{
    version     2.0;
    format      ascii;
    class       volVectorField;
    location    "22";
    object      impParticleForces;
}
// * * * * * * * * * * * * * * * * * * * * * * * * * * * * * * * * * * * * * //

dimensions      [1 1 -2 0 0 0 0];

internalField   nonuniform List<vector> 
114
(
(0.0023962 -4.52108e-06 -9.28013e-05)
(0.00243259 -3.29625e-06 -8.74482e-05)
(0.00243334 -1.55606e-06 -7.91854e-05)
(0.00246685 6.9686e-07 -7.11764e-05)
(0.00244061 4.0108e-06 -5.97159e-05)
(0.00245046 8.06258e-06 -4.88412e-05)
(0.00229916 3.16381e-06 -9.56115e-05)
(0.00232896 3.87102e-06 -9.70511e-05)
(0.00237284 4.71661e-06 -9.62412e-05)
(0.00239312 5.20669e-06 -9.19497e-05)
(0.00243737 5.78063e-06 -8.70666e-05)
(0.00243368 5.93008e-06 -7.87526e-05)
(0.00246876 6.67988e-06 -7.08242e-05)
(0.00245304 7.80168e-06 -6.01348e-05)
(0.00245212 9.82602e-06 -4.94586e-05)
(0.00227268 1.07379e-05 -9.31059e-05)
(0.00230782 1.16381e-05 -9.48172e-05)
(0.00235118 1.24347e-05 -9.41954e-05)
(0.00237352 1.24588e-05 -8.99762e-05)
(0.00241808 1.2697e-05 -8.51295e-05)
(0.00241789 1.18746e-05 -7.72289e-05)
(0.0024538 1.18555e-05 -6.95434e-05)
(0.00244761 1.15539e-05 -5.97263e-05)
(0.00246144 1.24298e-05 -5.0247e-05)
(0.00223506 1.3678e-05 -9.01345e-05)
(0.00225842 1.43531e-05 -9.09076e-05)
(0.0023113 1.53182e-05 -9.06999e-05)
(0.00232576 1.50253e-05 -8.65137e-05)
(0.00235874 1.48819e-05 -8.15795e-05)
(0.00236713 1.40562e-05 -7.43557e-05)
(0.0023835 1.36117e-05 -6.67192e-05)
(0.00240156 1.33282e-05 -5.81815e-05)
(0.00241524 1.37265e-05 -4.91302e-05)
(0.00249565 -2.13664e-06 -8.11327e-05)
(0.00252808 7.33013e-09 -7.32191e-05)
(0.00247362 3.15723e-06 -6.00313e-05)
(0.00249248 6.6422e-06 -4.92919e-05)
(0.00232627 3.9348e-06 -9.55768e-05)
(0.0023765 4.7827e-06 -9.85506e-05)
(0.00244065 5.90081e-06 -9.97916e-05)
(0.00245363 6.37747e-06 -9.44801e-05)
(0.00248805 6.93056e-06 -8.90508e-05)
(0.00247413 6.63197e-06 -7.96964e-05)
(0.00251664 7.29664e-06 -7.24157e-05)
(0.00247974 8.09232e-06 -6.07124e-05)
(0.0024753 9.73843e-06 -4.95846e-05)
(0.00230981 1.22454e-05 -9.39171e-05)
(0.00236587 1.37723e-05 -9.7199e-05)
(0.00243565 1.53814e-05 -9.87305e-05)
(0.00244047 1.47521e-05 -9.28695e-05)
(0.00246834 1.46293e-05 -8.71116e-05)
(0.00246578 1.35728e-05 -7.87308e-05)
(0.0024947 1.33553e-05 -7.1079e-05)
(0.00247571 1.26832e-05 -6.08521e-05)
(0.00248387 1.32208e-05 -5.08983e-05)
(0.00226106 1.50496e-05 -8.99475e-05)
(0.00230125 1.62603e-05 -9.18491e-05)
(0.00237201 1.79312e-05 -9.34063e-05)
(0.00237025 1.7042e-05 -8.78626e-05)
(0.00239333 1.65989e-05 -8.24008e-05)
(0.0024054 1.57012e-05 -7.53475e-05)
(0.00242464 1.52636e-05 -6.77167e-05)
(0.00242123 1.45525e-05 -5.88412e-05)
(0.00242116 1.46835e-05 -4.9429e-05)
(0.0024332 2.00125e-06 -5.40368e-05)
(0.00243547 4.77275e-06 -4.35263e-05)
(0.00235082 4.92257e-06 -9.00051e-05)
(0.00238395 5.66275e-06 -9.15003e-05)
(0.00243911 6.75932e-06 -9.19773e-05)
(0.00244475 6.98098e-06 -8.69785e-05)
(0.00246569 7.24643e-06 -8.12207e-05)
(0.00245387 7.05401e-06 -7.29339e-05)
(0.00247818 7.6582e-06 -6.53818e-05)
(0.00243941 8.21193e-06 -5.48508e-05)
(0.00243532 9.53865e-06 -4.45595e-05)
(0.00231965 1.33028e-05 -8.7421e-05)
(0.00236684 1.48054e-05 -8.9853e-05)
(0.0024384 1.67967e-05 -9.14471e-05)
(0.00244591 1.62228e-05 -8.68958e-05)
(0.00246207 1.58254e-05 -8.07172e-05)
(0.00244232 1.43071e-05 -7.2313e-05)
(0.00247642 1.44788e-05 -6.53864e-05)
(0.00244638 1.35839e-05 -5.5871e-05)
(0.00246009 1.40747e-05 -4.68082e-05)
(0.00227892 1.64274e-05 -8.45558e-05)
(0.00231996 1.7931e-05 -8.64917e-05)
(0.00237603 1.93607e-05 -8.69777e-05)
(0.0023852 1.87345e-05 -8.30221e-05)
(0.00238572 1.76177e-05 -7.65631e-05)
(0.00239942 1.68745e-05 -7.02613e-05)
(0.00243173 1.68757e-05 -6.36956e-05)
(0.00240284 1.55504e-05 -5.48177e-05)
(0.00241651 1.57412e-05 -4.64945e-05)
(0.00235356 5.56872e-06 -7.81898e-05)
(0.00240465 6.58333e-06 -7.99365e-05)
(0.00245465 7.75821e-06 -8.00406e-05)
(0.00243711 7.38537e-06 -7.48978e-05)
(0.00245289 7.55572e-06 -6.98727e-05)
(0.00242416 7.17231e-06 -6.23615e-05)
(0.00243827 7.69722e-06 -5.54301e-05)
(0.00239825 8.07935e-06 -4.64586e-05)
(0.00232587 1.4259e-05 -7.63935e-05)
(0.00237419 1.59219e-05 -7.82902e-05)
(0.00243974 1.78145e-05 -7.90435e-05)
(0.00242335 1.63061e-05 -7.43629e-05)
(0.00245073 1.62364e-05 -6.99857e-05)
(0.00242334 1.46814e-05 -6.28259e-05)
(0.00244472 1.47017e-05 -5.65071e-05)
(0.00227296 1.70914e-05 -7.38426e-05)
(0.00231502 1.86335e-05 -7.54572e-05)
(0.00237731 2.03398e-05 -7.62197e-05)
(0.00237733 1.93016e-05 -7.25949e-05)
(0.00240057 1.88857e-05 -6.81957e-05)
(0.00238418 1.73845e-05 -6.17007e-05)
)
;

boundaryField
{
    inlet
    {
        type            zeroGradient;
    }
    outlet
    {
        type            zeroGradient;
    }
    wall
    {
        type            zeroGradient;
    }
    procBoundary2to0
    {
        type            processor;
        value           nonuniform List<vector> 
44
(
(0.00238797 -1.37893e-05 -9.19904e-05)
(0.00243773 -1.19803e-05 -8.72553e-05)
(0.00243728 -8.6331e-06 -7.89114e-05)
(0.00245483 -4.69238e-06 -7.03237e-05)
(0.00245289 9.50775e-07 -5.95156e-05)
(0.00248632 7.9048e-06 -4.91609e-05)
(0.00229215 -6.53192e-06 -9.61039e-05)
(0.00231601 -6.26379e-06 -9.68877e-05)
(0.00235395 -5.58939e-06 -9.58685e-05)
(0.00235395 -5.58939e-06 -9.58685e-05)
(0.00244079 -4.89115e-06 -9.41002e-05)
(0.00250393 -3.56833e-06 -9.06461e-05)
(0.00248635 -1.03775e-05 -8.01091e-05)
(0.00252095 -6.91779e-06 -7.21818e-05)
(0.00247557 -1.32671e-06 -5.97308e-05)
(0.00248583 4.58659e-06 -4.8486e-05)
(0.00234854 -6.80765e-06 -9.82676e-05)
(0.00237632 -6.62631e-06 -9.93803e-05)
(0.00243043 -6.16192e-06 -0.000100031)
(0.00244079 -4.89115e-06 -9.41002e-05)
(0.00250393 -3.56833e-06 -9.06461e-05)
(0.00250393 -3.56833e-06 -9.06461e-05)
(0.00246874 -2.34604e-06 -7.37374e-05)
(0.00248269 -5.31584e-07 -6.53205e-05)
(0.00243433 -3.81048e-06 -5.38029e-05)
(0.00243445 6.25017e-07 -4.32162e-05)
(0.00236253 -6.72633e-06 -9.14532e-05)
(0.00239929 -6.68998e-06 -9.3461e-05)
(0.00245714 -6.23576e-06 -9.39215e-05)
(0.00245744 -5.06354e-06 -8.81659e-05)
(0.00248854 -3.8889e-06 -8.27283e-05)
(0.00246874 -2.34604e-06 -7.37374e-05)
(0.00248269 -5.31584e-07 -6.53205e-05)
(0.00248269 -5.31584e-07 -6.53205e-05)
(0.0023863 7.8679e-07 -4.53938e-05)
(0.00237509 2.82237e-06 -3.5866e-05)
(0.00234808 -6.81907e-06 -7.82475e-05)
(0.00239517 -6.77237e-06 -7.99906e-05)
(0.00245918 -6.49678e-06 -8.03198e-05)
(0.00245213 -5.2713e-06 -7.56303e-05)
(0.00245105 -4.19618e-06 -6.95766e-05)
(0.00243956 -2.76629e-06 -6.26805e-05)
(0.00244415 -1.17716e-06 -5.51395e-05)
(0.0023863 7.8679e-07 -4.53938e-05)
)
;
    }
    procBoundary2to3
    {
        type            processor;
        value           nonuniform List<vector> 
12
(
(0.00249209 1.2636e-05 -3.79096e-05)
(0.00248588 1.19882e-05 -3.87504e-05)
(0.00247501 1.35919e-05 -4.01662e-05)
(0.00240692 1.44377e-05 -3.94052e-05)
(0.00248564 1.05822e-05 -3.69196e-05)
(0.00248927 1.16989e-05 -3.85774e-05)
(0.00251369 1.42017e-05 -4.13924e-05)
(0.00244535 1.54196e-05 -4.08616e-05)
(0.00242969 7.73865e-06 -3.19276e-05)
(0.00243723 1.10607e-05 -3.41288e-05)
(0.0024439 1.4418e-05 -3.67358e-05)
(0.00241582 1.61146e-05 -3.79488e-05)
)
;
    }
    procBoundary2to6
    {
        type            processor;
        value           nonuniform List<vector> 
32
(
(0.00240661 9.29607e-06 -3.74301e-05)
(0.00240571 1.36604e-05 -4.81161e-05)
(0.00242187 1.40802e-05 -4.01033e-05)
(0.00238881 1.67014e-05 -5.51217e-05)
(0.00237318 1.57789e-05 -4.80398e-05)
(0.00238019 1.57251e-05 -4.06617e-05)
(0.00237348 6.31818e-06 -6.4185e-05)
(0.00240071 6.67552e-06 -6.41064e-05)
(0.00242294 7.24007e-06 -6.2782e-05)
(0.00242017 6.98918e-06 -5.97182e-05)
(0.00244338 7.1882e-06 -5.61945e-05)
(0.00240244 6.69859e-06 -5.02321e-05)
(0.00241615 7.03943e-06 -4.45696e-05)
(0.00240661 9.29607e-06 -3.74301e-05)
(0.00240571 1.36604e-05 -4.81161e-05)
(0.00237041 7.05128e-06 -3.74523e-05)
(0.00233823 1.55384e-05 -6.30243e-05)
(0.00237644 1.66899e-05 -6.34361e-05)
(0.00241352 1.75926e-05 -6.25726e-05)
(0.00241735 1.65666e-05 -5.99499e-05)
(0.00243577 1.61601e-05 -5.65027e-05)
(0.00241023 1.47282e-05 -5.13664e-05)
(0.00240571 1.36604e-05 -4.81161e-05)
(0.00238881 1.67014e-05 -5.51217e-05)
(0.00242088 1.44534e-05 -4.58312e-05)
(0.00228205 1.80601e-05 -6.18046e-05)
(0.002317 1.93508e-05 -6.24183e-05)
(0.00234522 1.9698e-05 -6.16001e-05)
(0.00235762 1.90205e-05 -5.94037e-05)
(0.0023944 1.89971e-05 -5.6217e-05)
(0.00238881 1.67014e-05 -5.51217e-05)
(0.00238716 1.78849e-05 -5.18124e-05)
)
;
    }
}


// ************************************************************************* //
