/*--------------------------------*- C++ -*----------------------------------*\
| =========                 |                                                 |
| \\      /  F ield         | OpenFOAM: The Open Source CFD Toolbox           |
|  \\    /   O peration     | Version:  4.x                                   |
|   \\  /    A nd           | Web:      www.OpenFOAM.org                      |
|    \\/     M anipulation  |                                                 |
\*---------------------------------------------------------------------------*/
FoamFile
{
    version     2.0;
    format      ascii;
    class       volScalarField;
    location    "19.5";
    object      Cs;
}
// * * * * * * * * * * * * * * * * * * * * * * * * * * * * * * * * * * * * * //

dimensions      [1 -3 0 0 0 0 0];

internalField   nonuniform List<scalar> 
114
(
334.999
334.999
334.999
334.998
334.997
334.992
335
335
334.999
334.998
334.997
334.998
335
335.003
335.002
335
334.999
334.998
334.995
334.988
334.975
334.961
334.949
334.942
335
334.999
334.998
334.996
334.993
334.99
334.991
334.994
334.997
334.997
334.993
334.984
334.965
335
335
334.999
334.999
334.998
334.998
334.997
334.991
334.977
335
335
334.999
334.998
334.996
334.997
334.999
334.999
334.99
335
335
334.999
334.998
334.997
334.996
334.997
334.998
334.997
334.974
334.95
335
335
335
334.999
334.999
334.998
334.995
334.986
334.971
335
335
334.999
334.999
334.998
334.998
334.997
334.991
334.976
335
335
334.999
334.999
334.999
334.998
334.998
334.998
334.994
335
335
335
334.999
334.999
334.998
334.995
334.989
335
335
335
334.999
334.999
334.998
334.996
335
335
335
334.999
334.999
334.999
)
;

boundaryField
{
    inlet
    {
        type            calculated;
        value           uniform 335;
    }
    outlet
    {
        type            calculated;
        value           nonuniform 0();
    }
    wall
    {
        type            calculated;
        value           nonuniform List<scalar> 
66
(
335
335
335
335
334.999
334.999
334.999
334.998
334.998
334.999
334.998
334.995
334.996
334.999
334.997
334.988
334.993
334.999
334.998
334.975
334.99
334.998
335
334.961
334.991
334.997
335.003
334.949
334.994
334.992
335.002
334.942
334.997
335
335
335
335
334.999
335
335
335
334.998
334.999
334.999
335
334.996
334.998
334.999
334.999
334.993
334.997
334.999
334.999
334.99
334.996
334.998
334.999
334.991
334.997
334.998
334.994
334.998
334.998
334.997
334.997
334.994
)
;
    }
    procBoundary2to0
    {
        type            processor;
        value           nonuniform List<scalar> 
44
(
335
334.999
334.999
334.997
334.995
334.99
335
335
335
335
334.999
334.999
334.997
334.992
334.982
334.965
335
335
335
334.999
334.999
334.999
334.996
334.989
334.975
334.956
335
335
335
334.999
334.998
334.996
334.989
334.989
334.986
334.974
335
335
335
334.999
334.999
334.997
334.993
334.986
)
;
    }
    procBoundary2to3
    {
        type            processor;
        value           nonuniform List<scalar> 
12
(
334.985
334.996
334.936
334.997
334.937
334.951
334.969
334.992
334.924
334.948
334.953
334.987
)
;
    }
    procBoundary2to6
    {
        type            processor;
        value           nonuniform List<scalar> 
32
(
334.98
334.992
334.984
334.999
334.998
334.995
335
335
335
334.999
334.998
334.996
334.99
334.98
334.992
334.979
335
335
335
334.999
334.999
334.997
334.992
334.999
334.995
335
335
335
334.999
334.999
334.999
334.999
)
;
    }
}


// ************************************************************************* //
