/*--------------------------------*- C++ -*----------------------------------*\
| =========                 |                                                 |
| \\      /  F ield         | OpenFOAM: The Open Source CFD Toolbox           |
|  \\    /   O peration     | Version:  4.x                                   |
|   \\  /    A nd           | Web:      www.OpenFOAM.org                      |
|    \\/     M anipulation  |                                                 |
\*---------------------------------------------------------------------------*/
FoamFile
{
    version     2.0;
    format      ascii;
    class       volScalarField;
    location    "19.5";
    object      KslPrev;
}
// * * * * * * * * * * * * * * * * * * * * * * * * * * * * * * * * * * * * * //

dimensions      [1 -3 -1 0 0 0 0];

internalField   nonuniform List<scalar> 
114
(
6081.59
3226.73
5367.1
3109.34
4862.37
2945.46
3489.72
7525.43
3400.57
6472.83
3321.79
5820.93
3207.16
5306.42
3044.4
3431.03
7160.27
3302.2
5946.51
3205.31
5307.78
3095.04
4886.71
2969.05
3369.85
6484.45
3159.63
5188.51
2978.83
4506.05
2813.47
4074.21
2692.5
11422.9
3826.77
13405.4
3782.02
3539.03
8855.4
3672.65
9790.68
3747.46
10800
3754.6
12262.8
3662.82
3501.78
8490.61
3619.33
8833.45
3640.81
9095.8
3636.17
9719.51
3600.98
3418.26
7159.4
3369.8
6291.96
3236.21
5709.05
3133.24
5312.16
3000.55
74420.7
3970.54
3585.32
9606.77
3798.05
12533.2
3901.55
17074.4
3944.43
27637.4
3916.91
3523.95
9229.55
3736.09
11519.3
3833.83
14664.1
3887.58
22414.4
3888.94
3443.36
7701.95
3465.2
7277.4
3389.21
6832.85
3371.1
6674.3
3283.84
3601.49
9845.75
3825.25
12504.5
3855.44
15273.6
3817.99
19278.1
3553.15
9151.42
3761.51
10871.2
3808.6
12649.3
3781.31
3436.72
7507.32
3466.81
7191.15
3409.24
6863.2
)
;

boundaryField
{
    inlet
    {
        type            zeroGradient;
    }
    outlet
    {
        type            zeroGradient;
    }
    wall
    {
        type            zeroGradient;
    }
    procBoundary2to0
    {
        type            processor;
        value           uniform 0;
    }
    procBoundary2to3
    {
        type            processor;
        value           uniform 0;
    }
    procBoundary2to6
    {
        type            processor;
        value           uniform 0;
    }
}


// ************************************************************************* //
