/*--------------------------------*- C++ -*----------------------------------*\
| =========                 |                                                 |
| \\      /  F ield         | OpenFOAM: The Open Source CFD Toolbox           |
|  \\    /   O peration     | Version:  4.x                                   |
|   \\  /    A nd           | Web:      www.OpenFOAM.org                      |
|    \\/     M anipulation  |                                                 |
\*---------------------------------------------------------------------------*/
FoamFile
{
    version     2.0;
    format      ascii;
    class       volScalarField;
    location    "19.5";
    object      magGField;
}
// * * * * * * * * * * * * * * * * * * * * * * * * * * * * * * * * * * * * * //

dimensions      [1 -2 -1 0 0 0 0];

internalField   nonuniform List<scalar> 
114
(
57.0862
109.173
65.9647
114.724
73.0184
120.366
96.355
44.964
101.436
53.7053
105.908
60.4995
110.624
66.4566
116.054
97.3174
46.9424
103.586
57.9652
109.57
66.1054
114.562
72.3222
119.24
97.7053
51.1043
106.834
65.4202
115.953
76.8548
123.958
85.5959
130.297
30.7218
92.4253
26.0712
92.3623
94.7642
38.4038
94.5135
35.5154
93.8895
32.3577
93.8262
28.4288
95.3493
95.2204
39.7672
95.5146
39.1507
96.0598
38.3864
96.8545
35.9207
97.2684
95.8697
46.3543
100.649
53.843
105.553
60.1597
110.27
64.7959
114.859
4.53103
84.7798
93.0181
35.1691
90.3735
27.2905
88.268
19.9597
86.7084
12.2321
86.323
93.9653
36.3043
91.5481
29.5525
89.6028
23.2134
88.2773
15.133
87.4128
94.825
42.6712
96.7589
46.0052
99.2361
49.1854
100.421
50.4303
102.459
92.0818
34.0148
88.7188
26.9091
87.6574
21.8416
87.5968
17.0371
92.1989
36.2425
89.8033
30.8454
88.7077
26.3484
88.5185
93.9037
43.3094
95.7571
45.8647
97.7706
48.0046
)
;

boundaryField
{
    inlet
    {
        type            calculated;
        value           uniform 67;
    }
    outlet
    {
        type            calculated;
        value           nonuniform 0();
    }
    wall
    {
        type            calculated;
        value           uniform 0;
    }
    procBoundary2to0
    {
        type            processor;
        value           nonuniform List<scalar> 
44
(
56.6212
109.267
64.1881
114.268
69.622
116.662
98.2913
47.0138
104.173
104.173
35.8321
93.4714
32.6423
94.6208
26.9599
94.9003
94.3773
38.1904
94.8953
35.8321
93.4714
93.4714
11.3841
84.9504
6.10871
85.1302
92.4998
32.0265
88.8313
20.9176
85.9555
11.3841
84.9504
84.9504
11.1875
84.0514
92.348
33.4797
87.8713
23.3222
85.8917
16.4881
84.7476
11.1875
)
;
    }
    procBoundary2to3
    {
        type            processor;
        value           nonuniform List<scalar> 
12
(
76.8976
71.3242
76.7247
92.8448
20.1068
24.2394
30.5135
67.6884
0.000196214
3.84677
6.85873
49.6297
)
;
    }
    procBoundary2to6
    {
        type            processor;
        value           nonuniform List<scalar> 
32
(
88.0069
22.8019
89.3402
100.127
50.0985
102.832
89.9584
30.0244
85.3693
16.8323
81.8815
6.30257
80.3092
88.0069
22.8019
0.000100947
91.7509
33.8904
88.2871
25.6524
85.6511
18.6225
22.8019
100.127
83.9879
93.812
41.9866
94.1704
42.4939
93.4254
100.127
40.6342
)
;
    }
}


// ************************************************************************* //
