/*--------------------------------*- C++ -*----------------------------------*\
| =========                 |                                                 |
| \\      /  F ield         | OpenFOAM: The Open Source CFD Toolbox           |
|  \\    /   O peration     | Version:  4.x                                   |
|   \\  /    A nd           | Web:      www.OpenFOAM.org                      |
|    \\/     M anipulation  |                                                 |
\*---------------------------------------------------------------------------*/
FoamFile
{
    version     2.0;
    format      ascii;
    class       volScalarField;
    location    "19.5";
    object      p_rgh;
}
// * * * * * * * * * * * * * * * * * * * * * * * * * * * * * * * * * * * * * //

dimensions      [1 -1 -2 0 0 0 0];

internalField   nonuniform List<scalar> 
114
(
74.7247
93.9056
57.1213
86.4115
39.021
79.0882
108.333
91.6299
101.166
74.702
93.8882
57.1868
86.3916
39.0707
78.953
108.189
91.6712
101.1
74.69
93.9371
57.5335
86.9636
40.0052
79.9057
107.832
91.5138
100.813
74.5781
93.5958
57.273
86.2746
39.4035
78.8405
57.3121
87.0565
39.2378
79.9541
109.036
92.0821
101.827
74.9181
94.3959
57.3007
86.9121
39.128
79.7503
108.982
92.1042
101.753
74.8444
94.3122
57.2658
86.8094
39.2547
79.613
108.467
91.8463
101.289
74.689
93.8744
57.2051
86.4335
39.2516
79.1424
40.242
80.23
110.063
92.7097
102.784
75.6303
95.1987
58.1714
87.5608
40.3218
80.1288
109.922
92.7986
102.707
75.529
95.1055
57.991
87.5898
40.1596
80.1844
109.375
92.4483
102.095
75.2745
94.5461
57.9281
87.0104
40.0362
79.6555
110.531
93.0568
102.888
75.6139
95.0967
57.9409
87.3884
40.036
110.408
93.0621
102.854
75.6808
95.0873
58.064
87.3366
109.74
92.6981
102.279
75.4219
94.5734
57.8097
)
;

boundaryField
{
    inlet
    {
        type            fixedFluxPressure;
        gradient        nonuniform List<scalar> 
12
(
-0.0897987
-0.147643
-0.183963
-0.0411265
-0.0607672
-0.0740497
-0.0134591
-0.017673
-0.020095
-1.76886e-05
-1.53134e-05
-1.40004e-05
)
;
        value           nonuniform List<scalar> 
12
(
108.331
108.187
107.829
109.035
108.981
108.466
110.062
109.921
109.375
110.531
110.408
109.74
)
;
    }
    outlet
    {
        type            fixedValue;
        value           nonuniform 0();
    }
    wall
    {
        type            fixedFluxPressure;
        gradient        nonuniform List<scalar> 
66
(
3.70112e-05
2.43267e-05
5.66798e-06
7.12103e-05
7.91724e-05
4.69734e-05
6.30134e-05
6.76902e-05
6.12195e-05
0.000108443
0.000111503
0.000146898
5.44707e-05
7.73602e-05
5.19369e-05
6.46652e-05
1.1774e-05
2.43211e-05
-2.83567e-06
-1.44904e-05
-3.39539e-05
3.63105e-05
-9.55985e-07
-1.79528e-06
1.72325e-05
8.24192e-05
7.28905e-05
1.13866e-05
-2.38546e-05
6.1243e-05
5.75951e-05
4.19507e-05
3.27372e-05
1.86568e-06
-2.0796e-06
-7.87092e-06
-1.35026e-06
1.9774e-05
6.44225e-06
-1.41581e-05
-1.61244e-05
5.4079e-06
7.09945e-06
1.04918e-05
4.4344e-06
-6.58149e-05
1.99907e-05
2.47882e-05
2.69783e-05
3.53128e-05
1.53638e-05
1.63881e-05
1.13629e-05
1.51397e-05
9.91783e-06
1.94989e-05
2.93479e-06
-2.87132e-05
-3.50447e-06
9.63148e-06
6.90656e-05
9.97916e-07
2.80133e-05
3.55131e-05
-1.72247e-06
-3.21129e-05
)
;
        value           nonuniform List<scalar> 
66
(
108.333
108.189
107.832
91.6299
91.6712
91.5138
101.166
101.1
100.813
74.7247
74.702
74.69
74.5781
93.9056
93.8882
93.9371
93.5958
57.1213
57.1868
57.5335
57.273
86.4115
86.3916
86.9636
86.2746
39.021
39.0707
40.0052
39.4035
79.0882
78.953
79.9057
78.8405
107.832
108.467
109.375
109.74
91.5138
91.8463
92.4483
92.6981
100.813
101.289
102.095
102.279
74.5781
74.689
75.2745
75.4219
93.5958
93.8744
94.5461
94.5734
57.273
57.2051
57.9281
57.8097
86.2746
86.4335
87.0104
39.4035
39.2516
40.0362
78.8405
79.1424
79.6555
)
;
    }
    procBoundary2to0
    {
        type            processor;
        value           nonuniform List<scalar> 
44
(
74.6963
94.0334
57.2672
86.5419
39.3409
79.2929
108.009
91.5279
101.162
101.162
75.0186
94.639
57.3906
87.1055
39.3223
80.1391
109.007
91.9386
101.901
75.0186
94.639
94.639
58.0203
87.6897
40.289
80.229
110.187
92.8024
102.973
75.6675
95.4182
58.0203
87.6897
87.6897
40.7421
80.1864
110.607
93.2773
103.24
75.9561
95.4378
58.4856
87.6153
40.7421
)
;
    }
    procBoundary2to3
    {
        type            processor;
        value           nonuniform List<scalar> 
12
(
21.0147
21.123
22.0218
21.1466
21.5741
21.3892
21.4572
21.0965
22.7744
22.8503
22.3954
22.0749
)
;
    }
    procBoundary2to6
    {
        type            processor;
        value           nonuniform List<scalar> 
32
(
79.8965
40.1532
79.7859
86.9152
39.9685
79.5068
111.565
93.5304
103.78
76.4647
95.8729
58.8897
87.8689
79.8965
40.1532
41.3883
111.084
93.5394
103.507
76.336
95.7123
58.7572
40.1532
86.9152
87.9541
110.389
93.1853
102.929
76.1362
95.272
86.9152
58.5527
)
;
    }
}


// ************************************************************************* //
