/*--------------------------------*- C++ -*----------------------------------*\
| =========                 |                                                 |
| \\      /  F ield         | OpenFOAM: The Open Source CFD Toolbox           |
|  \\    /   O peration     | Version:  4.x                                   |
|   \\  /    A nd           | Web:      www.OpenFOAM.org                      |
|    \\/     M anipulation  |                                                 |
\*---------------------------------------------------------------------------*/
FoamFile
{
    version     2.0;
    format      ascii;
    class       surfaceScalarField;
    location    "19.5";
    object      phi;
}
// * * * * * * * * * * * * * * * * * * * * * * * * * * * * * * * * * * * * * //

dimensions      [0 3 -1 0 0 0 0];

internalField   nonuniform List<scalar> 
259
(
1.00918e-05
2.00734e-09
1.06933e-05
1.42318e-08
1.09625e-05
-3.2292e-08
-3.25107e-07
1.14758e-05
-2.41239e-08
-6.12743e-07
1.17274e-05
-4.65506e-08
-2.62275e-07
-1.22475e-08
-4.15212e-07
8.61288e-06
1.8383e-07
-6.92327e-07
8.89306e-06
8.77798e-08
-3.82018e-07
9.46529e-06
1.95518e-07
-7.61087e-07
9.69087e-06
1.09114e-07
-3.32682e-07
1.01654e-05
1.63254e-07
-6.23595e-07
1.0383e-05
3.83113e-08
-2.8815e-07
1.08277e-05
7.78062e-08
-5.46678e-07
1.10667e-05
-5.85984e-08
-2.26898e-07
1.32311e-08
-4.26223e-07
8.78749e-06
2.76494e-07
-7.1689e-07
9.14177e-06
1.40587e-07
-4.07085e-07
9.85348e-06
2.57736e-07
-7.73928e-07
1.01722e-05
1.41251e-07
-3.50858e-07
1.07301e-05
2.22924e-07
-6.17552e-07
1.09661e-05
7.85276e-08
-2.76277e-07
1.14275e-05
1.43236e-07
-5.26815e-07
1.16208e-05
-1.85291e-08
-2.33349e-07
6.85956e-08
-4.27735e-07
9.06888e-06
-6.29117e-07
9.59759e-06
-3.88122e-07
1.05094e-05
-6.54116e-07
1.1018e-05
-3.67359e-07
1.17758e-05
-5.34846e-07
1.21938e-05
-3.39486e-07
1.28086e-05
-4.71565e-07
1.31019e-05
-3.1175e-07
-4.77041e-07
7.4415e-06
3.46652e-09
7.24063e-06
3.30209e-08
7.15398e-06
-1.92207e-08
-1.87255e-07
4.79787e-08
-2.81315e-07
8.08906e-06
2.42236e-07
-8.44522e-07
8.04166e-06
9.6494e-08
-4.46051e-07
7.90636e-06
2.51246e-07
-8.54232e-07
7.8268e-06
1.11241e-07
-3.42105e-07
7.69528e-06
2.51828e-07
-6.58946e-07
7.62707e-06
5.69934e-08
-2.73466e-07
7.46927e-06
1.62707e-07
-5.18562e-07
7.4764e-06
-2.53274e-08
-2.27919e-07
9.03852e-08
-3.18777e-07
8.19443e-06
3.36482e-07
-8.42296e-07
8.17984e-06
1.71896e-07
-4.67902e-07
8.18443e-06
3.48173e-07
-8.75443e-07
8.1779e-06
1.51111e-07
-3.84198e-07
8.19447e-06
3.08188e-07
-6.90483e-07
8.17743e-06
1.04506e-07
-3.06747e-07
8.10924e-06
2.62869e-07
-5.5879e-07
8.04925e-06
4.79198e-08
-2.46609e-07
2.21948e-07
-3.3574e-07
8.64185e-06
-7.71223e-07
8.90387e-06
-4.7824e-07
9.40065e-06
-8.02728e-07
9.65707e-06
-4.72664e-07
1.0102e-05
-6.71631e-07
1.03225e-05
-4.55445e-07
1.06867e-05
-5.72881e-07
1.08752e-05
-4.52362e-07
-5.32444e-07
5.39203e-06
-5.36462e-09
-4.25454e-08
7.79694e-06
3.13347e-07
-7.06696e-07
7.60918e-06
1.22848e-07
-3.51959e-07
7.17246e-06
3.12766e-07
-6.41988e-07
7.00195e-06
1.04224e-07
-2.5214e-07
6.61609e-06
2.66852e-07
-4.57451e-07
6.45666e-06
4.79936e-08
-1.68353e-07
6.06461e-06
1.45547e-07
-2.74434e-07
5.9547e-06
2.12874e-08
-1.44666e-07
5.90028e-08
7.91973e-06
3.6574e-07
-6.51155e-07
7.74443e-06
1.80607e-07
-3.50354e-07
7.37452e-06
4.13845e-07
-6.06616e-07
7.214e-06
1.65961e-07
-2.85419e-07
6.88941e-06
3.67789e-07
-4.66828e-07
6.74498e-06
1.02129e-07
-2.16449e-07
6.33389e-06
3.10793e-07
-3.1295e-07
6.19615e-06
8.67781e-08
2.29799e-07
8.36364e-06
-6.05862e-07
8.4522e-06
-3.86194e-07
8.69452e-06
-6.31203e-07
8.80196e-06
-4.14137e-07
9.0569e-06
-5.58786e-07
9.06438e-06
-3.60795e-07
9.21885e-06
9.25584e-06
7.67483e-06
3.07716e-07
7.44272e-06
1.54354e-07
7.04875e-06
3.20568e-07
6.94089e-06
1.02689e-07
6.69191e-06
2.44657e-07
6.62456e-06
7.67348e-08
6.40874e-06
2.00851e-07
7.81676e-06
4.01057e-07
7.64486e-06
1.99854e-07
7.3555e-06
3.83264e-07
7.24464e-06
1.443e-07
7.03002e-06
3.11185e-07
6.95393e-06
1.15802e-07
8.35237e-06
8.43662e-06
8.62848e-06
8.70521e-06
8.89565e-06
)
;

boundaryField
{
    inlet
    {
        type            calculated;
        value           nonuniform List<scalar> 
12
(
-8.16327e-06
-8.16327e-06
-8.16327e-06
-8.16327e-06
-8.16327e-06
-8.16327e-06
-8.16327e-06
-8.16327e-06
-8.16327e-06
-8.16327e-06
-8.16327e-06
-8.16327e-06
)
;
    }
    outlet
    {
        type            calculated;
        value           nonuniform 0();
    }
    wall
    {
        type            calculated;
        value           nonuniform List<scalar> 
66
(
0
0
0
0
0
0
0
0
0
0
0
0
1.97215e-31
0
0
0
0
0
0
0
0
0
-3.08149e-33
0
0
0
0
0
0
1.97215e-31
0
0
0
0
0
0
0
0
0
0
0
0
0
0
0
0
0
0
0
0
-4.93038e-32
0
0
0
0
0
0
0
0
0
0
0
0
0
0
0
)
;
    }
    procBoundary2to0
    {
        type            processor;
        value           nonuniform List<scalar> 
44
(
1.27136e-07
1.4159e-07
8.81544e-08
1.23603e-07
5.72092e-08
8.53485e-08
5.88836e-08
1.40587e-08
-9.83555e-06
-6.66846e-09
-3.85347e-07
-7.57322e-07
5.41394e-08
1.09967e-07
3.08574e-08
7.55106e-08
-1.5841e-08
1.4947e-08
-2.28031e-08
-2.22587e-08
-7.56674e-06
-8.49577e-08
-2.57474e-07
-5.54866e-07
1.72223e-08
7.32926e-08
-8.48472e-08
-2.91824e-08
-8.82903e-08
-2.3681e-08
-8.24851e-08
6.32739e-09
-5.4879e-06
2.37472e-09
-1.03244e-07
-1.10161e-07
-3.80704e-08
-4.6258e-08
-1.12845e-07
-5.669e-08
-1.05356e-07
-5.59274e-08
-6.32803e-08
-5.78353e-08
)
;
    }
    procBoundary2to3
    {
        type            processor;
        value           nonuniform List<scalar> 
12
(
1.20695e-05
1.14674e-05
1.19932e-05
1.36475e-05
6.89659e-06
7.32654e-06
7.82569e-06
1.11526e-05
5.19013e-06
5.54455e-06
5.79387e-06
9.30822e-06
)
;
    }
    procBoundary2to6
    {
        type            processor;
        value           nonuniform List<scalar> 
32
(
-1.01738e-08
-1.74355e-07
-1.04257e-07
-4.16556e-07
-4.02577e-07
-3.55024e-07
-4.87911e-07
-2.27944e-07
-4.55734e-07
-1.90283e-07
-3.47767e-07
-1.21809e-07
-1.96194e-07
6.34639e-06
6.51446e-08
-8.96251e-08
-3.97993e-07
-2.23952e-07
-3.79948e-07
-2.16175e-07
-3.18731e-07
-1.79433e-07
6.81514e-06
2.68859e-07
-2.42161e-07
-3.93906e-07
-2.70594e-07
-4.39796e-07
-3.46573e-07
-4.38043e-07
8.97559e-06
-3.24927e-07
)
;
    }
}


// ************************************************************************* //
