/*--------------------------------*- C++ -*----------------------------------*\
| =========                 |                                                 |
| \\      /  F ield         | OpenFOAM: The Open Source CFD Toolbox           |
|  \\    /   O peration     | Version:  4.x                                   |
|   \\  /    A nd           | Web:      www.OpenFOAM.org                      |
|    \\/     M anipulation  |                                                 |
\*---------------------------------------------------------------------------*/
FoamFile
{
    version     2.0;
    format      ascii;
    class       volScalarField;
    location    "19.5";
    object      QPartFluid;
}
// * * * * * * * * * * * * * * * * * * * * * * * * * * * * * * * * * * * * * //

dimensions      [1 -1 -3 0 0 0 0];

internalField   nonuniform List<scalar> 
114
(
7.16691e+09
5.57645e+09
3.07754e+09
5.98491e+09
2.83151e+09
3.04123e+09
5.78791e+09
6.95322e+09
6.10894e+09
4.42561e+09
7.35066e+09
5.06026e+09
7.05991e+09
6.89473e+09
4.52925e+09
3.85489e+09
6.18948e+09
5.08455e+09
5.42311e+09
5.79253e+09
5.27501e+09
6.78908e+09
5.4748e+09
6.52713e+09
3.96104e+09
4.00978e+09
5.12865e+09
4.55221e+09
3.93831e+09
4.09437e+09
3.04956e+09
5.3312e+09
3.95595e+09
9.90648e+09
1.22237e+10
6.64451e+09
1.11919e+10
4.71239e+09
7.97914e+09
9.59061e+09
9.27394e+09
8.90637e+09
7.19253e+09
1.12605e+10
8.91359e+09
6.46498e+09
5.83097e+09
1.00546e+10
1.06256e+10
9.22384e+09
9.42642e+09
8.91722e+09
9.17097e+09
8.9829e+09
7.71179e+09
5.04287e+09
5.41078e+09
8.31854e+09
6.03342e+09
7.56167e+09
6.55649e+09
6.69762e+09
7.12439e+09
4.79918e+09
7.85468e+09
9.16601e+09
6.8416e+09
5.77192e+09
6.75138e+09
6.86942e+09
6.78099e+09
7.85263e+09
9.88874e+09
7.31968e+09
5.75757e+09
4.9686e+09
6.98786e+09
9.06028e+09
1.05366e+10
9.16742e+09
7.09816e+09
9.46143e+09
8.53806e+09
1.02125e+10
4.98048e+09
7.6255e+09
6.94283e+09
7.51351e+09
4.76353e+09
6.84299e+09
9.64803e+09
5.39083e+09
7.69941e+09
4.87952e+09
9.55096e+09
1.03173e+10
7.391e+09
8.28992e+09
6.44204e+09
7.6328e+09
7.94437e+09
5.85343e+09
7.95027e+09
1.04923e+10
6.64569e+09
9.08048e+09
7.71924e+09
1.02805e+10
4.2379e+09
6.33345e+09
7.47062e+09
7.26645e+09
6.70666e+09
6.4991e+09
)
;

boundaryField
{
    inlet
    {
        type            calculated;
        value           uniform 0;
    }
    outlet
    {
        type            calculated;
        value           nonuniform 0();
    }
    wall
    {
        type            calculated;
        value           uniform 0;
    }
    procBoundary2to0
    {
        type            processor;
        value           nonuniform List<scalar> 
44
(
5.10052e+09
5.55967e+09
4.93553e+09
4.00728e+09
5.23277e+09
8.53211e+09
2.95438e+09
4.54273e+09
3.49822e+09
3.49822e+09
5.53481e+09
1.13051e+10
7.71615e+09
1.05367e+10
6.99814e+09
6.33805e+09
7.92992e+09
7.07285e+09
7.7642e+09
5.53481e+09
1.13051e+10
1.13051e+10
8.0216e+09
8.66174e+09
6.30543e+09
5.34669e+09
6.87852e+09
8.69124e+09
9.52617e+09
8.99088e+09
9.92573e+09
8.0216e+09
8.66174e+09
8.66174e+09
5.61753e+09
2.60731e+09
4.81862e+09
6.77409e+09
9.65411e+09
1.04978e+10
5.50491e+09
9.95339e+09
8.53678e+09
5.61753e+09
)
;
    }
    procBoundary2to3
    {
        type            processor;
        value           nonuniform List<scalar> 
12
(
8.61229e+09
6.48294e+09
6.69474e+09
4.35076e+09
8.55293e+09
7.8371e+09
1.28001e+10
8.45401e+09
8.06709e+09
9.61567e+09
6.03262e+09
8.78569e+09
)
;
    }
    procBoundary2to6
    {
        type            processor;
        value           nonuniform List<scalar> 
32
(
8.14641e+09
6.7446e+09
8.87062e+09
5.65293e+09
6.20319e+09
5.575e+09
9.9403e+09
8.99033e+09
6.09046e+09
8.12135e+09
1.11298e+10
6.23213e+09
8.73569e+09
8.14641e+09
6.7446e+09
6.6872e+09
6.27766e+09
9.26257e+09
8.14822e+09
1.02811e+10
8.8264e+09
8.82877e+09
6.7446e+09
5.65293e+09
8.72079e+09
4.64866e+09
7.61814e+09
5.92733e+09
6.15769e+09
8.64456e+09
5.65293e+09
9.46594e+09
)
;
    }
}


// ************************************************************************* //
