/*--------------------------------*- C++ -*----------------------------------*\
| =========                 |                                                 |
| \\      /  F ield         | OpenFOAM: The Open Source CFD Toolbox           |
|  \\    /   O peration     | Version:  4.x                                   |
|   \\  /    A nd           | Web:      www.OpenFOAM.org                      |
|    \\/     M anipulation  |                                                 |
\*---------------------------------------------------------------------------*/
FoamFile
{
    version     2.0;
    format      ascii;
    class       volVectorField;
    location    "19.5";
    object      U;
}
// * * * * * * * * * * * * * * * * * * * * * * * * * * * * * * * * * * * * * //

dimensions      [0 1 -1 0 0 0 0];

internalField   nonuniform List<vector> 
114
(
(0.0174167 -0.000149631 -0.000754266)
(0.0333345 -0.000123766 -0.00142075)
(0.0200536 -0.000142826 -0.000723423)
(0.0350923 -0.000111377 -0.00120145)
(0.0221992 7.19903e-07 -0.000560597)
(0.0367678 7.4742e-05 -0.000980601)
(0.029116 0.000121238 -0.00112765)
(0.0136713 7.02897e-05 -0.000673979)
(0.0308427 0.000267467 -0.00127597)
(0.0163489 0.000159999 -0.000586536)
(0.0324617 0.000198068 -0.00102619)
(0.0185022 -2.27935e-05 -0.00048115)
(0.0340671 -1.30576e-05 -0.000949923)
(0.0204581 -0.000241958 -0.000291869)
(0.0356175 -0.000138176 -0.000800719)
(0.0292548 0.000813232 -0.00124206)
(0.0142301 0.000380075 -0.000717604)
(0.0314562 0.000736585 -0.0013012)
(0.0176415 0.000401221 -0.000603454)
(0.0333576 0.000643021 -0.000978516)
(0.0201511 0.000219754 -0.000404119)
(0.0350729 0.000415239 -0.000755765)
(0.0221587 -6.26959e-05 -0.000281417)
(0.0366539 0.000206984 -0.000705413)
(0.0293048 0.000589551 -0.00101134)
(0.0153841 0.000337624 -0.000615505)
(0.0323257 0.000583334 -0.00101466)
(0.0198115 0.000323284 -0.000520432)
(0.0350049 0.000498624 -0.000745994)
(0.0232247 0.000182948 -0.000346977)
(0.0374565 0.000320659 -0.000583265)
(0.0260559 -3.25722e-05 -0.000229439)
(0.0396335 0.000147239 -0.00062674)
(0.009622 -4.98574e-05 -0.000979898)
(0.0291725 8.97981e-06 -0.00203051)
(0.00812345 1.1169e-05 -0.000810494)
(0.0291114 0.000277371 -0.00119799)
(0.0289645 0.000327291 -0.00244133)
(0.011797 6.50009e-05 -0.00130889)
(0.0292768 0.000356399 -0.0026928)
(0.0110292 0.000199316 -0.00115322)
(0.0293031 0.000478955 -0.00224825)
(0.0100902 6.81299e-05 -0.0010329)
(0.0296157 0.000167258 -0.00194394)
(0.00890296 -0.000113639 -0.0009094)
(0.0298542 -2.16589e-05 -0.00143737)
(0.0290503 0.000926479 -0.00244278)
(0.0122347 0.000439859 -0.00139716)
(0.0296249 0.000965488 -0.00273794)
(0.0121542 0.000387228 -0.00123132)
(0.0299027 0.000850678 -0.00225283)
(0.0119486 0.000232779 -0.00104442)
(0.030288 0.000695904 -0.00201466)
(0.01123 -2.03127e-05 -0.000949165)
(0.0304587 0.000500816 -0.00154463)
(0.0291511 0.000809148 -0.00221205)
(0.0141368 0.000453885 -0.00138276)
(0.0310228 0.000858771 -0.00237879)
(0.0165953 0.000405313 -0.00138792)
(0.0326337 0.000767289 -0.00203263)
(0.0185745 0.000315663 -0.00142052)
(0.0341631 0.000687521 -0.00187205)
(0.0200997 0.000271432 -0.00140376)
(0.0356039 0.000666553 -0.00186075)
(0.00143517 -1.65698e-05 -0.000181324)
(0.0271302 -4.28548e-05 -0.000304835)
(0.0289188 0.000578844 -0.00196246)
(0.0109236 0.000202457 -0.00102794)
(0.0283466 0.000532223 -0.00181138)
(0.00860505 0.000162517 -0.000657358)
(0.0279428 0.00043978 -0.00124841)
(0.00634843 3.21698e-05 -0.000419039)
(0.0278007 2.54742e-05 -0.000835966)
(0.00389363 -1.17025e-05 -0.000302831)
(0.0274958 -0.000186174 -0.000253153)
(0.0290172 0.00106381 -0.0019338)
(0.0112794 0.000445936 -0.0010581)
(0.0287795 0.00113199 -0.00188887)
(0.00934855 0.000396057 -0.000806687)
(0.0283594 0.000989394 -0.00140773)
(0.00734176 0.000224591 -0.000581356)
(0.0281553 0.00076014 -0.000958461)
(0.00481135 0.000125874 -0.000360864)
(0.0279554 0.000506348 -0.000236389)
(0.0291897 0.000844182 -0.00177918)
(0.0132587 0.000504912 -0.00111138)
(0.0302393 0.00106275 -0.00183497)
(0.0144395 0.00048949 -0.00109938)
(0.0310712 0.000967584 -0.00149769)
(0.0154904 0.000320993 -0.000977288)
(0.0318558 0.000908683 -0.00115465)
(0.015876 0.000337678 -0.000983225)
(0.0324865 0.000727523 -0.000949547)
(0.0288256 0.000497318 -0.00176914)
(0.0107589 0.000312393 -0.000841043)
(0.0283211 0.000691775 -0.00162606)
(0.00858776 0.000259017 -0.000700078)
(0.0281157 0.000532235 -0.00121755)
(0.00700032 0.000244182 -0.000494207)
(0.0282453 0.00040558 -0.000655874)
(0.00547537 0.000248277 -0.000486559)
(0.0288674 0.00113332 -0.00149119)
(0.0114255 0.000513846 -0.000800339)
(0.0286182 0.00103855 -0.00135887)
(0.00982214 0.000296536 -0.000729934)
(0.0284159 0.000794268 -0.00110588)
(0.00844675 0.00017367 -0.000587648)
(0.0285603 0.000689605 -0.000739076)
(0.0291747 0.000981662 -0.00138994)
(0.0135819 0.000549586 -0.000931573)
(0.0302453 0.00101679 -0.00152034)
(0.0145555 0.000479513 -0.00111648)
(0.0310625 0.000882433 -0.00148425)
(0.0153079 0.000451442 -0.000959712)
)
;

boundaryField
{
    inlet
    {
        type            fixedValue;
        value           uniform (0.01 0 0);
    }
    outlet
    {
        type            zeroGradient;
    }
    wall
    {
        type            fixedValue;
        value           uniform (0 0 0);
    }
    procBoundary2to0
    {
        type            processor;
        value           nonuniform List<vector> 
44
(
(0.0171541 -0.000501922 -0.00065193)
(0.0331402 -0.00060267 -0.00114107)
(0.0194999 -0.00030998 -0.000565958)
(0.0346977 -0.000524081 -0.0010202)
(0.0211955 -0.000296169 -0.000233716)
(0.0357522 -0.000517731 -0.000835027)
(0.0293654 -0.000418419 -0.0014763)
(0.0141586 -0.000141418 -0.000734111)
(0.0314409 -0.00023184 -0.00143563)
(0.0314409 -0.00023184 -0.00143563)
(0.0110481 -8.17414e-05 -0.00125267)
(0.0292605 -3.06503e-05 -0.00255629)
(0.010146 -0.000236162 -0.000954239)
(0.0296148 -0.000591556 -0.00185566)
(0.00837425 -0.00017386 -0.000684635)
(0.0295522 -0.000672491 -0.00102719)
(0.0289082 -0.000246581 -0.00286825)
(0.0116714 -0.000142562 -0.00149517)
(0.0291859 -0.000235772 -0.0030251)
(0.0110481 -8.17414e-05 -0.00125267)
(0.0292605 -3.06503e-05 -0.00255629)
(0.0292605 -3.06503e-05 -0.00255629)
(0.00361647 -6.57624e-05 -0.00039363)
(0.0271758 -3.86243e-05 -0.000943573)
(0.00192874 -7.66669e-05 -0.00016945)
(0.0269548 -0.000349783 0.000169379)
(0.0287966 -0.000133264 -0.00207322)
(0.00996845 -4.97072e-05 -0.00117927)
(0.027956 -6.46901e-05 -0.00217172)
(0.00661597 -3.63229e-05 -0.000661143)
(0.027395 9.78908e-07 -0.0013862)
(0.00361647 -6.57624e-05 -0.00039363)
(0.0271758 -3.86243e-05 -0.000943573)
(0.0271758 -3.86243e-05 -0.000943573)
(0.00356836 6.41257e-05 -0.000377729)
(0.0268761 0.000112485 -0.000290327)
(0.0288208 -0.000295201 -0.00134905)
(0.0105201 -6.51372e-05 -0.000867762)
(0.0280452 -8.37797e-05 -0.00135902)
(0.0074806 4.65428e-05 -0.000624464)
(0.0274904 3.76106e-05 -0.00104186)
(0.00531466 5.77946e-05 -0.000507956)
(0.0273686 -6.18551e-05 -0.000776606)
(0.00356836 6.41257e-05 -0.000377729)
)
;
    }
    procBoundary2to3
    {
        type            processor;
        value           nonuniform List<vector> 
12
(
(0.0238378 -4.32294e-05 -0.000350075)
(0.0221285 -0.000291086 3.03403e-06)
(0.023803 2.59653e-05 -0.000229414)
(0.0285482 -7.23542e-05 -0.000263589)
(0.00634566 7.46509e-05 -0.000562143)
(0.00763942 -0.000139151 -0.000728125)
(0.00969311 -1.70939e-05 -0.000673151)
(0.0212755 0.000380038 -0.00155487)
(-6.14398e-08 9.16651e-09 -1.18751e-08)
(0.00123967 1.48775e-05 -7.38614e-05)
(0.00218932 0.000105711 -0.000110023)
(0.0158647 0.000326653 -0.000908338)
)
;
    }
    procBoundary2to6
    {
        type            processor;
        value           nonuniform List<vector> 
32
(
(0.0284036 0.000598185 0.000200193)
(0.00730907 0.000107962 -0.000585248)
(0.0287957 0.000569371 -0.000331424)
(0.0319289 0.000766047 -0.00108596)
(0.0159397 0.000382387 -0.00117708)
(0.0328436 0.000573508 -0.000960778)
(0.0287689 0.000428824 -0.00082865)
(0.00958912 0.000287625 -0.000382503)
(0.0272779 0.000544222 -0.000832068)
(0.00542811 0.000148725 -0.000329585)
(0.026645 0.000408438 -0.000674454)
(0.00203557 6.39376e-05 -0.000165606)
(0.0261379 0.00018063 -0.000414548)
(0.0284036 0.000598185 0.000200193)
(0.00730907 0.000107962 -0.000585248)
(-3.23656e-08 -4.0127e-09 -3.98624e-09)
(0.0289048 0.00146247 -0.00061922)
(0.0107834 0.000522508 -0.000397893)
(0.0281875 0.00136285 -0.000688306)
(0.00827282 0.000371091 -0.000439726)
(0.0277098 0.000937793 -0.000623863)
(0.00602988 0.000233365 -0.000388462)
(0.00730907 0.000107962 -0.000585248)
(0.0319289 0.000766047 -0.00108596)
(0.0272665 0.000668933 -0.000582108)
(0.0292896 0.00098035 -0.000681202)
(0.0132709 0.000519386 -0.000507846)
(0.0298533 0.00100757 -0.000829923)
(0.0135895 0.000403727 -0.000749898)
(0.0301565 0.000745153 -0.000880125)
(0.0319289 0.000766047 -0.00108596)
(0.0131658 0.000331222 -0.000804397)
)
;
    }
}


// ************************************************************************* //
