/*--------------------------------*- C++ -*----------------------------------*\
| =========                 |                                                 |
| \\      /  F ield         | OpenFOAM: The Open Source CFD Toolbox           |
|  \\    /   O peration     | Version:  4.x                                   |
|   \\  /    A nd           | Web:      www.OpenFOAM.org                      |
|    \\/     M anipulation  |                                                 |
\*---------------------------------------------------------------------------*/
FoamFile
{
    version     2.0;
    format      ascii;
    class       volVectorField;
    location    "19.5";
    object      UsPrev;
}
// * * * * * * * * * * * * * * * * * * * * * * * * * * * * * * * * * * * * * //

dimensions      [0 1 -1 0 0 0 0];

internalField   nonuniform List<vector> 
114
(
(-6.08053e-10 -6.64226e-09 -8.75711e-09)
(-1.42494e-08 -8.50871e-09 -1.17645e-08)
(-3.88707e-08 -1.34554e-08 -2.32098e-09)
(-5.14349e-08 -9.55205e-09 -5.72356e-09)
(-6.23016e-08 -5.64282e-09 -8.32567e-09)
(-7.26974e-08 2.74588e-09 -1.0142e-08)
(5.76825e-08 -2.18455e-08 -5.26623e-09)
(6.71001e-09 -1.88653e-09 -4.63771e-09)
(3.75187e-09 -2.03392e-09 -9.10105e-09)
(-3.24427e-09 -3.17073e-09 -8.45309e-09)
(-1.6595e-08 -4.75016e-09 -7.64017e-09)
(-3.94409e-08 -7.20065e-09 2.06016e-10)
(-6.04126e-08 -8.67207e-09 1.40995e-10)
(-7.15819e-08 -1.2823e-08 -6.64126e-09)
(-7.40737e-08 1.12822e-09 -9.16358e-09)
(5.9849e-09 -1.58502e-09 -3.53141e-09)
(8.29585e-09 5.72844e-10 -5.44476e-09)
(4.70899e-09 1.82375e-09 -1.0081e-08)
(-4.57445e-09 6.67218e-09 -1.21164e-08)
(-1.56372e-08 4.627e-09 -9.9081e-09)
(-3.3672e-08 1.65411e-09 1.32045e-09)
(-5.29872e-08 -9.4205e-09 2.81411e-10)
(-6.54781e-08 2.46097e-10 -1.12459e-09)
(-6.51499e-08 2.28313e-09 -6.83902e-09)
(1.20363e-08 3.07776e-10 -8.31743e-10)
(8.05848e-09 1.55868e-09 -3.59005e-09)
(6.45718e-09 8.80824e-10 -9.55576e-09)
(1.15536e-08 -6.23228e-09 -5.17965e-09)
(-3.74129e-09 5.85633e-09 -1.96845e-09)
(-1.18995e-08 1.6322e-09 3.70874e-09)
(-2.67118e-08 -5.07684e-09 -3.02695e-09)
(-3.48087e-08 8.27058e-09 2.86965e-09)
(-3.56657e-08 6.43117e-09 -5.96706e-09)
(-3.50668e-08 -1.19658e-08 -3.70447e-09)
(-4.78253e-08 -1.03396e-08 -6.79304e-09)
(-6.23134e-08 -4.48765e-09 -6.87034e-09)
(-6.7434e-08 2.27089e-09 -9.51472e-09)
(4.52052e-09 -1.26045e-09 -1.82101e-09)
(6.55066e-09 -2.108e-09 -5.05011e-09)
(3.79512e-09 -2.06482e-09 -8.02395e-09)
(-5.0056e-09 -9.76308e-10 -7.94408e-09)
(-1.29253e-08 -3.18422e-09 -6.0709e-09)
(-3.90346e-08 -1.00782e-08 2.1503e-09)
(-5.37552e-08 -9.35103e-09 -7.16922e-10)
(-6.31596e-08 -7.07359e-09 -6.67237e-09)
(-6.99346e-08 -6.65762e-10 -9.26917e-09)
(7.24627e-09 -6.63193e-10 -3.06354e-09)
(6.57891e-09 -4.37106e-10 -5.04273e-09)
(3.5612e-09 9.474e-10 -7.17021e-09)
(-2.18902e-09 8.47097e-10 -8.82459e-09)
(-1.2551e-08 2.59256e-09 -2.59913e-09)
(-2.77497e-08 -5.6197e-10 5.56687e-10)
(-4.36255e-08 -2.90688e-09 1.61377e-09)
(-5.36628e-08 -3.8155e-09 -2.4196e-09)
(-5.97264e-08 -2.42021e-09 -6.47137e-09)
(6.1614e-09 -2.49451e-10 -1.65755e-09)
(7.16441e-09 5.00569e-10 -4.53835e-09)
(4.31557e-09 1.06336e-09 -5.9341e-09)
(-5.96957e-10 1.54604e-09 -4.0617e-09)
(-5.37001e-09 2.28144e-09 1.873e-09)
(-1.03069e-08 8.06726e-10 9.89445e-10)
(-2.06281e-08 -5.77481e-10 -2.05859e-09)
(-2.84786e-08 5.75635e-11 -1.3462e-09)
(-2.13562e-08 -2.92461e-10 -4.5602e-09)
(-5.80736e-08 -5.94857e-09 -6.27813e-09)
(-6.49973e-08 1.88642e-09 -8.87973e-09)
(5.65959e-09 -1.14929e-10 -1.2122e-09)
(7.19838e-09 -1.52781e-09 -3.16951e-09)
(4.02246e-09 -1.73604e-09 -5.30292e-09)
(-6.89711e-09 -4.71766e-10 -7.15018e-09)
(-1.70073e-08 -3.68848e-09 -5.55326e-09)
(-3.41334e-08 -7.70324e-09 -1.50641e-09)
(-4.26533e-08 -6.72569e-09 -4.03221e-09)
(-5.4097e-08 -6.28128e-09 -6.85906e-09)
(-6.10398e-08 -1.952e-09 -8.52241e-09)
(5.50797e-09 -5.07763e-10 -1.35339e-09)
(7.59879e-09 -6.64367e-10 -1.53869e-09)
(2.4879e-09 4.9996e-10 -5.60715e-09)
(-2.4501e-09 -1.22052e-10 -5.99287e-09)
(-1.35675e-08 3.09102e-10 -1.25711e-09)
(-2.59127e-08 -2.33461e-09 -1.32923e-10)
(-3.60782e-08 -1.37507e-09 -1.64415e-09)
(-4.44777e-08 -4.53163e-09 -4.95677e-09)
(-5.08725e-08 -3.08799e-09 -7.84867e-09)
(5.53399e-09 -1.06894e-09 -1.5187e-09)
(7.2305e-09 -8.30668e-10 -2.35888e-09)
(5.42042e-09 1.47785e-09 -2.28301e-09)
(2.54957e-10 1.63104e-09 -2.29519e-09)
(-5.72374e-09 2.30241e-09 -6.64122e-10)
(-1.02562e-08 1.33357e-09 -1.07547e-09)
(-1.74519e-08 1.3219e-09 2.07268e-10)
(-2.24529e-08 1.96268e-09 -3.93727e-09)
(-2.94515e-08 -4.61422e-09 -6.47112e-09)
(4.93112e-09 1.30255e-10 -2.05386e-10)
(7.28485e-09 -1.35883e-09 -5.91793e-10)
(4.90786e-09 -2.06803e-09 -2.05608e-09)
(-3.67534e-09 -1.60614e-09 -2.70784e-09)
(-1.54868e-08 -4.47457e-09 -2.24403e-09)
(-3.00443e-08 -4.12807e-09 -4.3203e-10)
(-4.12353e-08 -4.26314e-09 -4.2163e-09)
(-5.15298e-08 -3.70974e-09 -6.03047e-09)
(4.31572e-09 -2.31156e-10 2.65747e-10)
(8.39546e-09 -1.25565e-10 -8.32433e-10)
(5.48127e-09 1.39783e-09 -2.27834e-09)
(-1.35206e-09 1.41062e-09 -2.15764e-09)
(-1.25232e-08 -6.00239e-10 -9.36479e-10)
(-2.21599e-08 -2.57517e-09 -1.17493e-09)
(-2.85697e-08 -1.21242e-09 -3.22848e-09)
(4.08047e-09 -1.76249e-10 -4.91073e-10)
(5.80923e-09 -9.91659e-10 -1.45335e-09)
(7.03386e-09 6.42154e-10 -1.35384e-09)
(3.30256e-09 1.7713e-09 -3.46733e-10)
(-4.97276e-09 1.56182e-09 -1.05756e-09)
(-8.53706e-09 1.924e-10 -5.76267e-10)
)
;

boundaryField
{
    inlet
    {
        type            calculated;
        value           uniform (0 0 0);
    }
    outlet
    {
        type            calculated;
        value           nonuniform 0();
    }
    wall
    {
        type            calculated;
        value           uniform (0 0 0);
    }
    procBoundary2to0
    {
        type            processor;
        value           uniform (0 0 0);
    }
    procBoundary2to3
    {
        type            processor;
        value           uniform (0 0 0);
    }
    procBoundary2to6
    {
        type            processor;
        value           uniform (0 0 0);
    }
}


// ************************************************************************* //
