/*--------------------------------*- C++ -*----------------------------------*\
| =========                 |                                                 |
| \\      /  F ield         | OpenFOAM: The Open Source CFD Toolbox           |
|  \\    /   O peration     | Version:  4.x                                   |
|   \\  /    A nd           | Web:      www.OpenFOAM.org                      |
|    \\/     M anipulation  |                                                 |
\*---------------------------------------------------------------------------*/
FoamFile
{
    version     2.0;
    format      ascii;
    class       volScalarField;
    location    "56.5";
    object      magGField;
}
// * * * * * * * * * * * * * * * * * * * * * * * * * * * * * * * * * * * * * //

dimensions      [1 -2 -1 0 0 0 0];

internalField   nonuniform List<scalar> 
132
(
100.296
49.0082
110.586
65.3288
119.82
77.3001
127.203
86.2884
134.952
100.686
46.4476
108.046
58.842
115.539
68.4039
121.663
75.6801
127.629
101.452
44.4899
106.369
54.4004
111.251
61.6565
115.668
65.8051
117.602
100.884
45.0096
106.773
99.2783
42.247
102.785
48.5873
106.366
53.4481
109.724
56.5691
112.788
98.9251
37.5196
99.8941
38.1437
100.143
36.638
100.836
33.8977
102.009
98.2435
33.8904
97.6944
30.5262
96.0474
24.7167
94.7525
16.9321
94.8599
96.9896
35.228
97.3891
32.5302
96.1647
97.3694
41.0219
99.825
45.6109
102.938
49.7448
106.157
52.3144
109.882
96.7678
35.8587
96.6757
34.0705
96.4088
31.5393
97.0756
28.721
99.1233
95.7116
31.5601
93.3976
22.9038
90.9041
15.5407
90.1817
10.9575
90.7169
95.0035
30.579
92.3733
21.925
90.8523
16.4449
91.3291
97.1871
40.4288
98.9131
43.5353
100.311
44.5336
101.255
43.4561
101.141
96.1408
32.9423
93.9175
26.642
92.2441
20.1399
90.8338
12.6204
90.5241
95.329
28.772
90.3094
15.3715
86.4717
4.23585
83.8498
4.26135e-05
81.1346
95.0634
30.7722
91.112
20.828
89.8714
14.8678
89.4307
11.2078
89.2654
)
;

boundaryField
{
    inlet
    {
        type            calculated;
        value           uniform 67;
    }
    outlet
    {
        type            calculated;
        value           nonuniform 0();
    }
    wall
    {
        type            calculated;
        value           uniform 0;
    }
    procBoundary0to1
    {
        type            processor;
        value           nonuniform List<scalar> 
12
(
93.3523
80.4326
66.0687
57.9836
30.7599
8.59789
53.0451
28.2272
6.16696
37.1166
5.85625
4.34945e-05
)
;
    }
    procBoundary0to2
    {
        type            processor;
        value           nonuniform List<scalar> 
44
(
55.4467
111.824
64.0765
117.321
69.7424
122.767
99.2558
41.8559
55.4467
103.67
55.4467
111.824
27.4284
96.0464
23.9386
98.3261
97.8302
34.2534
96.8086
29.1029
27.4284
95.1369
27.4284
96.0464
14.4459
92.5444
95.6592
31.0689
92.2871
20.489
89.3396
10.14
14.4459
87.0787
14.4459
92.5444
94.8797
29.1272
90.4912
19.0309
88.3589
11.2787
87.4215
4.7285
)
;
    }
    procBoundary0to4
    {
        type            processor;
        value           nonuniform List<scalar> 
36
(
96.1832
41.0167
97.5479
43.7581
99.3701
45.634
100.978
46.1024
102.774
94.5216
33.6902
92.416
26.7119
91.1173
21.9629
91.3673
17.5131
91.8203
94.2033
29.8482
89.692
19.2477
87.743
11.6902
87.4327
3.99814
87.6184
94.5095
30.3467
89.5557
19.314
87.0122
9.73733
85.5054
2.52289
85.0951
)
;
    }
    procBoundary0to6
    {
        type            processor;
        value           uniform 87.4174;
    }
    procBoundary0to7
    {
        type            processor;
        value           uniform 6.32442;
    }
}


// ************************************************************************* //
