/*--------------------------------*- C++ -*----------------------------------*\
| =========                 |                                                 |
| \\      /  F ield         | OpenFOAM: The Open Source CFD Toolbox           |
|  \\    /   O peration     | Version:  4.x                                   |
|   \\  /    A nd           | Web:      www.OpenFOAM.org                      |
|    \\/     M anipulation  |                                                 |
\*---------------------------------------------------------------------------*/
FoamFile
{
    version     2.0;
    format      ascii;
    class       volScalarField;
    location    "56.5";
    object      QWallFluidCoeff;
}
// * * * * * * * * * * * * * * * * * * * * * * * * * * * * * * * * * * * * * //

dimensions      [1 -1 -3 -1 0 0 0];

internalField   nonuniform List<scalar> 
132
(
-5.69841e+06
-3.21323e+06
-6.1615e+06
-4.044e+06
-6.56976e+06
-4.6267e+06
-6.89167e+06
-5.0523e+06
-7.22553e+06
-2.85808e+06
-1.5391e+06
-3.02403e+06
-1.85972e+06
-3.19067e+06
-2.09779e+06
-3.32526e+06
-2.27448e+06
-3.45506e+06
0
-1.48698e+06
-2.98641e+06
-1.74654e+06
-3.09556e+06
-1.93055e+06
-3.19351e+06
-2.03379e+06
-3.23615e+06
-2.86256e+06
-1.50087e+06
-2.99547e+06
-2.82606e+06
-1.42671e+06
-2.90564e+06
-1.59557e+06
-2.98635e+06
-1.72204e+06
-3.06153e+06
-1.80202e+06
-3.12975e+06
0
0
0
0
0
0
0
0
0
0
0
0
0
0
0
0
0
0
0
0
0
0
0
-2.7825e+06
-1.39351e+06
-2.8385e+06
-1.51688e+06
-2.9091e+06
-1.62591e+06
-2.98165e+06
-1.69276e+06
-3.06506e+06
0
0
0
0
0
0
0
0
0
0
0
0
0
0
0
0
0
0
0
0
0
0
0
0
0
-2.77833e+06
-1.37737e+06
-2.81774e+06
-1.4614e+06
-2.84954e+06
-1.48815e+06
-2.87098e+06
-1.45928e+06
-2.8684e+06
0
0
0
0
0
0
0
0
0
0
0
0
0
0
0
0
0
0
0
0
0
0
0
0
0
0
0
)
;

boundaryField
{
    inlet
    {
        type            calculated;
        value           uniform 0;
    }
    outlet
    {
        type            calculated;
        value           nonuniform 0();
    }
    wall
    {
        type            calculated;
        value           uniform 0;
    }
    procBoundary0to1
    {
        type            processor;
        value           uniform 0;
    }
    procBoundary0to2
    {
        type            processor;
        value           uniform 0;
    }
    procBoundary0to4
    {
        type            processor;
        value           uniform 0;
    }
    procBoundary0to6
    {
        type            processor;
        value           uniform 0;
    }
    procBoundary0to7
    {
        type            processor;
        value           uniform 0;
    }
}


// ************************************************************************* //
