/*--------------------------------*- C++ -*----------------------------------*\
| =========                 |                                                 |
| \\      /  F ield         | OpenFOAM: The Open Source CFD Toolbox           |
|  \\    /   O peration     | Version:  4.x                                   |
|   \\  /    A nd           | Web:      www.OpenFOAM.org                      |
|    \\/     M anipulation  |                                                 |
\*---------------------------------------------------------------------------*/
FoamFile
{
    version     2.0;
    format      ascii;
    class       volScalarField;
    location    "37.5";
    object      particleRelTemp;
}
// * * * * * * * * * * * * * * * * * * * * * * * * * * * * * * * * * * * * * //

dimensions      [0 0 0 0 0 0 0];

internalField   nonuniform List<scalar> 
108
(
-3.67835e-11
1.54964e-12
5.17672e-11
9.45047e-11
1.24123e-10
1.8244e-10
2.24129e-10
2.7518e-10
3.35655e-10
-6.35222e-11
-1.80187e-11
2.74985e-11
6.90876e-11
1.0742e-10
1.30748e-10
2.09106e-10
2.47933e-10
3.12889e-10
-1.12572e-10
-8.09113e-11
-3.62021e-11
-6.61451e-12
4.66849e-11
6.31984e-11
1.16288e-10
1.39139e-10
1.92736e-10
-1.69942e-10
-1.38422e-10
-1.42179e-10
-7.51843e-11
-2.93574e-11
-1.92664e-11
-1.53666e-11
2.54577e-11
4.26507e-11
2.52609e-11
1.00624e-10
1.22018e-10
1.84912e-10
2.34359e-10
2.66653e-10
3.46564e-10
4.02754e-10
4.32534e-10
-4.10089e-12
5.26288e-11
1.09073e-10
1.52616e-10
1.86592e-10
2.79372e-10
3.13626e-10
3.5731e-10
4.0475e-10
-6.74567e-11
-3.50505e-12
3.87503e-11
7.34545e-11
1.25669e-10
1.64349e-10
2.22639e-10
2.5828e-10
2.95661e-10
-1.07956e-10
-7.89254e-11
-5.28184e-11
-2.41795e-12
4.75014e-11
5.85803e-11
1.22629e-10
1.47167e-10
1.78526e-10
1.0354e-10
1.51272e-10
2.22733e-10
2.60843e-10
3.22974e-10
3.97342e-10
4.52559e-10
5.38691e-10
5.61038e-10
6.43051e-11
1.31405e-10
1.96168e-10
2.56544e-10
3.22645e-10
3.75416e-10
4.36251e-10
4.76799e-10
5.01439e-10
2.05385e-11
5.09012e-11
1.33941e-10
1.86971e-10
2.49297e-10
2.98939e-10
3.19701e-10
3.7998e-10
4.0216e-10
-3.84123e-11
-2.22617e-11
3.74314e-11
9.71492e-11
1.52154e-10
1.66602e-10
2.22068e-10
2.70406e-10
3.3668e-10
)
;

boundaryField
{
    inlet
    {
        type            calculated;
        value           nonuniform 0();
    }
    outlet
    {
        type            calculated;
        value           nonuniform List<scalar> 
12
(
3.35655e-10
3.12889e-10
1.92736e-10
4.26507e-11
4.32534e-10
4.0475e-10
2.95661e-10
1.78526e-10
5.61038e-10
5.01439e-10
4.0216e-10
3.3668e-10
)
;
    }
    wall
    {
        type            calculated;
        value           nonuniform List<scalar> 
63
(
-3.67835e-11
-6.35222e-11
-1.12572e-10
-1.69942e-10
1.54964e-12
-1.80187e-11
-8.09113e-11
-1.38422e-10
5.17672e-11
2.74985e-11
-3.62021e-11
-1.42179e-10
9.45047e-11
6.90876e-11
-6.61451e-12
-7.51843e-11
1.24123e-10
1.0742e-10
4.66849e-11
-2.93574e-11
1.8244e-10
1.30748e-10
6.31984e-11
-1.92664e-11
2.24129e-10
2.09106e-10
1.16288e-10
-1.53666e-11
2.7518e-10
2.47933e-10
1.39139e-10
2.54577e-11
3.35655e-10
3.12889e-10
1.92736e-10
4.26507e-11
-1.69942e-10
-1.07956e-10
-3.84123e-11
-1.38422e-10
-7.89254e-11
-2.22617e-11
-1.42179e-10
-5.28184e-11
3.74314e-11
-7.51843e-11
-2.41795e-12
9.71492e-11
-2.93574e-11
4.75014e-11
1.52154e-10
-1.92664e-11
5.85803e-11
1.66602e-10
-1.53666e-11
1.22629e-10
2.22068e-10
2.54577e-11
1.47167e-10
2.70406e-10
4.26507e-11
1.78526e-10
3.3668e-10
)
;
    }
    procBoundary3to1
    {
        type            processor;
        value           nonuniform List<scalar> 
27
(
-2.77158e-11
-1.09885e-11
2.05126e-11
7.91599e-11
1.12929e-10
1.37741e-10
1.9025e-10
2.07275e-10
2.62969e-10
3.18928e-11
4.58134e-11
9.71902e-11
1.37417e-10
2.13055e-10
2.5901e-10
2.97787e-10
3.77766e-10
4.40875e-10
6.22795e-11
1.45027e-10
1.77929e-10
2.57238e-10
3.19377e-10
3.88396e-10
4.52508e-10
5.14183e-10
5.41514e-10
)
;
    }
    procBoundary3to2
    {
        type            processor;
        value           nonuniform List<scalar> 
12
(
-9.12546e-11
-1.06956e-10
-1.45083e-10
-1.9169e-10
-2.73018e-11
-4.85385e-11
-9.95563e-11
-1.54401e-10
3.39097e-11
-1.15649e-12
-3.25902e-11
-9.39749e-11
)
;
    }
    procBoundary3to7
    {
        type            processor;
        value           nonuniform List<scalar> 
36
(
1.3174e-10
1.97353e-10
2.58098e-10
3.30567e-10
3.87952e-10
4.64708e-10
5.28034e-10
5.93426e-10
6.23018e-10
1.14886e-10
1.79186e-10
2.56188e-10
3.05635e-10
3.71969e-10
4.17007e-10
4.74712e-10
5.33037e-10
5.77754e-10
6.86885e-11
1.1275e-10
1.80069e-10
2.26492e-10
2.85836e-10
3.13072e-10
3.73324e-10
4.37261e-10
4.78951e-10
6.15901e-12
4.44878e-11
8.90602e-11
1.51457e-10
1.87061e-10
2.23888e-10
2.74677e-10
3.23189e-10
3.74253e-10
)
;
    }
}


// ************************************************************************* //
