/*--------------------------------*- C++ -*----------------------------------*\
| =========                 |                                                 |
| \\      /  F ield         | OpenFOAM: The Open Source CFD Toolbox           |
|  \\    /   O peration     | Version:  4.x                                   |
|   \\  /    A nd           | Web:      www.OpenFOAM.org                      |
|    \\/     M anipulation  |                                                 |
\*---------------------------------------------------------------------------*/
FoamFile
{
    version     2.0;
    format      ascii;
    class       volScalarField;
    location    "37.5";
    object      QWallFluidCoeff;
}
// * * * * * * * * * * * * * * * * * * * * * * * * * * * * * * * * * * * * * //

dimensions      [1 -1 -3 -1 0 0 0];

internalField   nonuniform List<scalar> 
108
(
-2.15748e+06
-3.45008e+06
-2.19016e+06
-3.60519e+06
-2.11811e+06
-3.77419e+06
-1.82089e+06
-3.99151e+06
-1.56914e+06
-1.82256e+06
-3.1685e+06
-1.72403e+06
-3.20251e+06
-1.49155e+06
-3.07968e+06
-970459
-2.5593e+06
-375264
-2.16357e+06
-3.42703e+06
-2.18563e+06
-3.59487e+06
-2.12169e+06
-3.82459e+06
-1.89021e+06
-4.23254e+06
-1.84907e+06
-5.30793e+06
-7.4438e+06
-5.40249e+06
-7.68781e+06
-5.27371e+06
-8.13558e+06
-4.80956e+06
-9.02819e+06
-4.07557e+06
0
0
0
0
0
0
0
0
0
0
0
0
0
0
0
0
0
0
0
0
0
0
0
0
0
0
0
-1.98188e+06
-3.28821e+06
-1.97131e+06
-3.39722e+06
-1.86107e+06
-3.62031e+06
-1.62121e+06
-4.18185e+06
-1.97091e+06
0
0
0
0
0
0
0
0
0
0
0
0
0
0
0
0
0
0
0
0
0
0
0
0
0
0
0
-1.6056e+06
-3.04523e+06
-1.56753e+06
-3.11986e+06
-1.45291e+06
-3.265e+06
-1.31591e+06
-3.73115e+06
-1.26438e+06
)
;

boundaryField
{
    inlet
    {
        type            calculated;
        value           nonuniform 0();
    }
    outlet
    {
        type            calculated;
        value           uniform 0;
    }
    wall
    {
        type            calculated;
        value           uniform 0;
    }
    procBoundary3to1
    {
        type            processor;
        value           uniform 0;
    }
    procBoundary3to2
    {
        type            processor;
        value           uniform 0;
    }
    procBoundary3to7
    {
        type            processor;
        value           uniform 0;
    }
}


// ************************************************************************* //
