/*--------------------------------*- C++ -*----------------------------------*\
| =========                 |                                                 |
| \\      /  F ield         | OpenFOAM: The Open Source CFD Toolbox           |
|  \\    /   O peration     | Version:  4.x                                   |
|   \\  /    A nd           | Web:      www.OpenFOAM.org                      |
|    \\/     M anipulation  |                                                 |
\*---------------------------------------------------------------------------*/
FoamFile
{
    version     2.0;
    format      ascii;
    class       volScalarField;
    location    "4";
    object      Deff;
}
// * * * * * * * * * * * * * * * * * * * * * * * * * * * * * * * * * * * * * //

dimensions      [0 2 -1 0 0 0 0];

internalField   nonuniform List<scalar> 
87
(
9.94131e-08
9.91999e-08
9.91938e-08
9.90491e-08
9.90686e-08
9.887e-08
9.87797e-08
9.87888e-08
9.88715e-08
9.93042e-08
9.92342e-08
9.90847e-08
9.89952e-08
9.89746e-08
9.88201e-08
9.86643e-08
9.87779e-08
9.89076e-08
9.91189e-08
9.89958e-08
9.8884e-08
9.87591e-08
9.88186e-08
9.882e-08
9.87134e-08
9.87407e-08
9.88265e-08
9.88952e-08
9.88653e-08
9.87998e-08
9.86292e-08
9.85916e-08
9.84309e-08
9.82853e-08
9.83825e-08
9.85252e-08
9.87431e-08
9.87967e-08
9.86891e-08
9.85499e-08
9.84959e-08
9.84323e-08
9.828e-08
9.83244e-08
9.85388e-08
9.85853e-08
9.85985e-08
9.85632e-08
9.84672e-08
9.84564e-08
9.83303e-08
9.82193e-08
9.81641e-08
9.8464e-08
9.8502e-08
9.84699e-08
9.82963e-08
9.8193e-08
9.81968e-08
9.80232e-08
9.80425e-08
9.81702e-08
9.83491e-08
9.83566e-08
9.83274e-08
9.83287e-08
9.82181e-08
9.81259e-08
9.80445e-08
9.80184e-08
9.80551e-08
9.82956e-08
9.82505e-08
9.82365e-08
9.82427e-08
9.80133e-08
9.79892e-08
9.79272e-08
9.79444e-08
9.79611e-08
9.82253e-08
9.82623e-08
9.8214e-08
9.80081e-08
9.8121e-08
9.79379e-08
9.80678e-08
)
;

boundaryField
{
    inlet
    {
        type            calculated;
        value           nonuniform 0();
    }
    outlet
    {
        type            calculated;
        value           uniform 0;
    }
    wall
    {
        type            calculated;
        value           uniform 0;
    }
    procBoundary1to0
    {
        type            processor;
        value           uniform 0;
    }
    procBoundary1to3
    {
        type            processor;
        value           uniform 0;
    }
    procBoundary1to5
    {
        type            processor;
        value           uniform 0;
    }
    procBoundary1to7
    {
        type            processor;
        value           uniform 0;
    }
}


// ************************************************************************* //
