/*--------------------------------*- C++ -*----------------------------------*\
| =========                 |                                                 |
| \\      /  F ield         | OpenFOAM: The Open Source CFD Toolbox           |
|  \\    /   O peration     | Version:  4.x                                   |
|   \\  /    A nd           | Web:      www.OpenFOAM.org                      |
|    \\/     M anipulation  |                                                 |
\*---------------------------------------------------------------------------*/
FoamFile
{
    version     2.0;
    format      ascii;
    class       volScalarField;
    location    "4";
    object      Sm;
}
// * * * * * * * * * * * * * * * * * * * * * * * * * * * * * * * * * * * * * //

dimensions      [1 -3 -1 0 0 0 0];

internalField   nonuniform List<scalar> 
87
(
3.71992e-65
5.89052e-65
3.79778e-65
5.11501e-65
3.2544e-65
4.88001e-65
4.41331e-65
5.02999e-65
4.79585e-65
3.64298e-65
3.25548e-65
4.65059e-65
4.18469e-65
3.71847e-65
5.03336e-65
6.57555e-65
4.56173e-65
3.94171e-65
3.4882e-65
5.50344e-65
5.50241e-65
7.43891e-65
5.49909e-65
4.33601e-65
4.94801e-65
4.5595e-65
4.47924e-65
6.43224e-65
5.65811e-65
5.03809e-65
6.51004e-65
5.81088e-65
6.58207e-65
8.35843e-65
7.11608e-65
6.49462e-65
7.51751e-65
5.03839e-65
6.27827e-65
7.12915e-65
6.97149e-65
5.65111e-65
7.50382e-65
7.41904e-65
5.63742e-65
8.13789e-65
6.58877e-65
5.6581e-65
5.81195e-65
5.26613e-65
7.351e-65
8.04205e-65
1.02754e-64
4.86299e-65
7.05177e-65
5.81294e-65
7.67322e-65
7.90462e-65
5.81031e-65
8.43953e-65
7.04226e-65
5.72373e-65
4.17388e-65
7.67165e-65
7.05316e-65
5.65831e-65
6.1222e-65
6.97079e-65
6.96675e-65
6.57296e-65
7.18695e-65
4.40099e-65
7.90393e-65
6.35604e-65
5.1158e-65
9.06675e-65
8.28727e-65
8.74425e-65
6.80206e-65
7.87908e-65
3.47314e-65
6.58638e-65
5.27004e-65
8.06043e-65
7.0512e-65
9.99763e-65
5.73333e-65
)
;

boundaryField
{
    inlet
    {
        type            calculated;
        value           nonuniform 0();
    }
    outlet
    {
        type            calculated;
        value           uniform 0;
    }
    wall
    {
        type            calculated;
        value           uniform 0;
    }
    procBoundary1to0
    {
        type            processor;
        value           nonuniform List<scalar> 
12
(
1.70463e-65
4.26156e-65
7.20586e-65
6.19866e-65
6.74078e-65
4.95878e-65
4.72597e-65
6.27471e-65
4.57038e-65
4.95774e-65
5.34453e-65
8.2099e-65
)
;
    }
    procBoundary1to3
    {
        type            processor;
        value           nonuniform List<scalar> 
27
(
6.97468e-65
3.25557e-65
5.81342e-65
2.55746e-65
4.10551e-65
3.01911e-65
4.71717e-65
3.86441e-65
4.55764e-65
7.5171e-65
6.27871e-65
8.99155e-65
8.52414e-65
7.59049e-65
6.269e-65
6.0307e-65
6.41068e-65
9.03323e-65
7.67113e-65
8.99078e-65
8.29345e-65
9.06653e-65
6.11805e-65
6.19028e-65
8.58143e-65
6.79564e-65
7.71934e-65
)
;
    }
    procBoundary1to5
    {
        type            processor;
        value           nonuniform List<scalar> 
32
(
6.81974e-65
8.05748e-65
6.35042e-65
6.73377e-65
7.58221e-65
8.42947e-65
6.82042e-65
5.65697e-65
5.8099e-65
6.65704e-65
8.19988e-65
8.50326e-65
7.88076e-65
8.44742e-65
6.04539e-65
7.43824e-65
5.80875e-65
4.56625e-65
6.95891e-65
5.71693e-65
8.64774e-65
6.27627e-65
4.88219e-65
6.81974e-65
6.82042e-65
6.97498e-65
7.12844e-65
6.82042e-65
8.44742e-65
6.81963e-65
8.44742e-65
8.21218e-65
)
;
    }
    procBoundary1to7
    {
        type            processor;
        value           uniform 9.917e-65;
    }
}


// ************************************************************************* //
