/*--------------------------------*- C++ -*----------------------------------*\
| =========                 |                                                 |
| \\      /  F ield         | OpenFOAM: The Open Source CFD Toolbox           |
|  \\    /   O peration     | Version:  4.x                                   |
|   \\  /    A nd           | Web:      www.OpenFOAM.org                      |
|    \\/     M anipulation  |                                                 |
\*---------------------------------------------------------------------------*/
FoamFile
{
    version     2.0;
    format      ascii;
    class       volScalarField;
    location    "44";
    object      p_rgh;
}
// * * * * * * * * * * * * * * * * * * * * * * * * * * * * * * * * * * * * * //

dimensions      [1 -1 -2 0 0 0 0];

internalField   nonuniform List<scalar> 
114
(
74.2685
94.9081
55.8622
87.8413
37.1368
81.103
109.066
92.0819
102.321
74.4639
95.3343
56.2873
88.3215
37.7298
81.5249
108.648
91.8492
101.934
74.216
94.9667
56.085
88.0133
37.5907
81.1949
108.35
91.7354
101.705
74.1716
94.7987
56.1955
87.9294
37.8638
81.1529
56.0662
88.4622
37.1477
81.5176
109.955
92.6137
103.174
74.7414
96.0792
56.4504
88.9792
37.7252
82.0079
109.492
92.2958
102.642
74.3653
95.5009
56.077
88.3732
37.3715
81.4442
109.039
92.0995
102.266
74.3015
95.2237
56.1719
88.216
37.6558
81.3677
37.7085
81.4909
110.751
93.0727
103.809
75.3618
96.4622
57.3146
89.0382
38.9778
81.6749
110.336
92.9126
103.465
75.0364
96.1603
56.8762
88.9462
38.3979
81.7952
109.841
92.6159
102.93
74.8602
95.7315
56.9275
88.5766
38.4695
81.6388
111.419
93.6015
104.271
75.5198
96.8051
57.2833
89.3326
38.9658
110.826
93.1645
103.654
75.1063
96.1864
56.7276
88.7243
110.275
92.9073
103.217
75.0017
95.8699
56.7361
)
;

boundaryField
{
    inlet
    {
        type            fixedFluxPressure;
        gradient        nonuniform List<scalar> 
12
(
-1.42345e-06
-4.22486e-07
-4.82285e-08
-3.53441e-07
-1.96818e-07
-1.13782e-07
-3.4738e-07
-1.73109e-07
-1.05776e-07
-4.09062e-07
-1.401e-07
-7.95226e-08
)
;
        value           nonuniform List<scalar> 
12
(
109.066
108.648
108.35
109.955
109.492
109.039
110.751
110.336
109.841
111.419
110.826
110.275
)
;
    }
    outlet
    {
        type            fixedValue;
        value           nonuniform 0();
    }
    wall
    {
        type            fixedFluxPressure;
        gradient        nonuniform List<scalar> 
66
(
-1.05679e-06
-1.14666e-06
-1.07362e-06
-6.35372e-06
-4.67449e-06
-3.67881e-06
-3.65989e-06
-3.92097e-06
-4.16917e-06
-7.06972e-06
-8.4252e-06
-7.65646e-06
-3.03201e-06
-4.86864e-06
-3.92785e-06
-4.06915e-06
-8.1165e-07
-8.35758e-06
-6.96976e-06
-4.44623e-06
2.8859e-08
-6.76e-06
-5.06081e-06
-4.74272e-06
-2.73939e-06
-1.86729e-05
-1.2533e-05
-1.00534e-05
-7.37397e-06
-1.20319e-05
-8.57951e-06
-6.70077e-06
-3.87701e-06
-4.91713e-07
-2.64497e-07
-5.99304e-07
-6.23713e-07
-1.09743e-06
-1.29279e-06
-1.10586e-06
-1.18469e-06
-4.00879e-07
-1.01893e-06
-1.00674e-06
-5.06771e-07
-8.03892e-06
-1.5567e-06
-2.82522e-06
-2.59935e-06
-3.95618e-06
-1.66312e-06
-1.45888e-06
-1.48517e-06
-3.31333e-06
-4.43783e-06
-3.98098e-06
-2.95331e-06
-3.7167e-06
-3.24513e-06
-2.13504e-06
-1.02334e-05
-5.71362e-06
-6.93687e-06
-5.79854e-06
-2.94105e-06
-3.40321e-06
)
;
        value           nonuniform List<scalar> 
66
(
109.066
108.648
108.35
92.0819
91.8492
91.7354
102.321
101.934
101.705
74.2685
74.4639
74.216
74.1716
94.9081
95.3343
94.9667
94.7987
55.8622
56.2873
56.085
56.1955
87.8413
88.3215
88.0133
87.9294
37.1368
37.7298
37.5907
37.8638
81.103
81.5249
81.1949
81.1529
108.35
109.039
109.841
110.275
91.7354
92.0995
92.6159
92.9073
101.705
102.266
102.93
103.217
74.1716
74.3015
74.8602
75.0017
94.7987
95.2237
95.7315
95.8699
56.1955
56.1719
56.9275
56.7361
87.9294
88.216
88.5766
37.8638
37.6558
38.4695
81.1529
81.3677
81.6388
)
;
    }
    procBoundary2to0
    {
        type            processor;
        value           nonuniform List<scalar> 
44
(
74.3185
95.0008
56.0336
88.0618
37.7794
81.3841
108.918
92.0189
102.116
102.116
74.6129
95.7774
56.3726
88.8729
37.8584
82.015
109.911
92.4688
102.98
74.6129
95.7774
95.7774
56.4497
88.6126
38.0739
81.5995
110.729
92.9948
103.636
74.9886
96.1111
56.4497
88.6126
88.6126
38.6835
81.8591
111.326
93.6035
104.233
75.4597
96.6196
57.19
89.0217
38.6835
)
;
    }
    procBoundary2to3
    {
        type            processor;
        value           nonuniform List<scalar> 
12
(
18.1298
19.3435
18.5534
19.0417
18.0787
19.2927
18.35
18.7912
19.0239
21.0793
19.7948
19.9044
)
;
    }
    procBoundary2to6
    {
        type            processor;
        value           nonuniform List<scalar> 
32
(
82.0137
37.9841
81.5153
88.5611
38.2729
81.5245
111.999
93.7879
104.666
76.2216
96.929
58.1751
89.0502
82.0137
37.9841
40.3421
111.409
93.5699
104.254
75.7667
96.7751
57.5215
37.9841
88.5611
89.2892
110.784
93.2749
103.682
75.6505
96.3552
88.5611
57.4478
)
;
    }
}


// ************************************************************************* //
