/*--------------------------------*- C++ -*----------------------------------*\
| =========                 |                                                 |
| \\      /  F ield         | OpenFOAM: The Open Source CFD Toolbox           |
|  \\    /   O peration     | Version:  4.x                                   |
|   \\  /    A nd           | Web:      www.OpenFOAM.org                      |
|    \\/     M anipulation  |                                                 |
\*---------------------------------------------------------------------------*/
FoamFile
{
    version     2.0;
    format      ascii;
    class       volScalarField;
    location    "44";
    object      QWallFluid;
}
// * * * * * * * * * * * * * * * * * * * * * * * * * * * * * * * * * * * * * //

dimensions      [1 -1 -3 0 0 0 0];

internalField   nonuniform List<scalar> 
114
(
5.31937e+08
9.32994e+08
5.97297e+08
9.69117e+08
6.39019e+08
1.00431e+09
8.47777e+08
4.24777e+08
8.77867e+08
4.86527e+08
9.00551e+08
5.23408e+08
9.19705e+08
5.38231e+08
9.36788e+08
8.52868e+08
4.47406e+08
8.94561e+08
5.3454e+08
9.33168e+08
5.93546e+08
9.6524e+08
6.31007e+08
9.95466e+08
1.70994e+09
9.64563e+08
1.83241e+09
1.19707e+09
1.95736e+09
1.37972e+09
2.06867e+09
1.5063e+09
2.14703e+09
0
0
0
0
0
0
0
0
0
0
0
0
0
0
0
0
0
0
0
0
0
0
8.43455e+08
4.40926e+08
8.74896e+08
5.02872e+08
9.06767e+08
5.51495e+08
9.35734e+08
5.82144e+08
9.62527e+08
0
0
0
0
0
0
0
0
0
0
0
0
0
0
0
0
0
0
0
0
8.34481e+08
4.12253e+08
8.47322e+08
4.40997e+08
8.63171e+08
4.64983e+08
8.68918e+08
4.69366e+08
8.80691e+08
0
0
0
0
0
0
0
0
0
0
0
0
0
0
0
8.29242e+08
4.17226e+08
8.42089e+08
4.43279e+08
8.56396e+08
4.66094e+08
)
;

boundaryField
{
    inlet
    {
        type            calculated;
        value           uniform 0;
    }
    outlet
    {
        type            calculated;
        value           nonuniform 0();
    }
    wall
    {
        type            calculated;
        value           uniform 0;
    }
    procBoundary2to0
    {
        type            processor;
        value           nonuniform List<scalar> 
44
(
5.23913e+08
9.29237e+08
5.78893e+08
9.58759e+08
6.09675e+08
9.71159e+08
8.59495e+08
4.49869e+08
8.99315e+08
8.99315e+08
0
0
0
0
0
0
0
0
0
0
0
0
0
0
0
0
0
0
0
0
0
0
0
0
0
0
0
0
0
0
0
0
0
0
)
;
    }
    procBoundary2to3
    {
        type            processor;
        value           nonuniform List<scalar> 
12
(
6.5895e+08
5.28243e+08
6.52835e+08
1.58257e+09
0
0
0
5.95662e+08
0
0
0
4.53516e+08
)
;
    }
    procBoundary2to6
    {
        type            processor;
        value           nonuniform List<scalar> 
32
(
0
0
0
8.73089e+08
4.85169e+08
8.90256e+08
0
0
0
0
0
0
0
0
0
0
0
0
0
0
0
0
0
8.73089e+08
0
8.26685e+08
4.09269e+08
8.30364e+08
4.19002e+08
8.26769e+08
8.73089e+08
4.06481e+08
)
;
    }
}


// ************************************************************************* //
