/*--------------------------------*- C++ -*----------------------------------*\
| =========                 |                                                 |
| \\      /  F ield         | OpenFOAM: The Open Source CFD Toolbox           |
|  \\    /   O peration     | Version:  4.x                                   |
|   \\  /    A nd           | Web:      www.OpenFOAM.org                      |
|    \\/     M anipulation  |                                                 |
\*---------------------------------------------------------------------------*/
FoamFile
{
    version     2.0;
    format      ascii;
    class       volScalarField;
    location    "15";
    object      Deff;
}
// * * * * * * * * * * * * * * * * * * * * * * * * * * * * * * * * * * * * * //

dimensions      [0 2 -1 0 0 0 0];

internalField   nonuniform List<scalar> 
87
(
9.93821e-08
9.91728e-08
9.91675e-08
9.90306e-08
9.90285e-08
9.8912e-08
9.87938e-08
9.87955e-08
9.88829e-08
9.92756e-08
9.92051e-08
9.90571e-08
9.89867e-08
9.89793e-08
9.88294e-08
9.86692e-08
9.87815e-08
9.89186e-08
9.90811e-08
9.89553e-08
9.88352e-08
9.87595e-08
9.88151e-08
9.8818e-08
9.87116e-08
9.87399e-08
9.88397e-08
9.8862e-08
9.8841e-08
9.87662e-08
9.86306e-08
9.85822e-08
9.84372e-08
9.82887e-08
9.83797e-08
9.85427e-08
9.87382e-08
9.87735e-08
9.86611e-08
9.85483e-08
9.84795e-08
9.84307e-08
9.82797e-08
9.83207e-08
9.85551e-08
9.85549e-08
9.85637e-08
9.85122e-08
9.84767e-08
9.84512e-08
9.83259e-08
9.82162e-08
9.81633e-08
9.84752e-08
9.84957e-08
9.84637e-08
9.82825e-08
9.81835e-08
9.8195e-08
9.80231e-08
9.80428e-08
9.81715e-08
9.83562e-08
9.84212e-08
9.8327e-08
9.8315e-08
9.82106e-08
9.81196e-08
9.80414e-08
9.80168e-08
9.80562e-08
9.83029e-08
9.82366e-08
9.82156e-08
9.8217e-08
9.80072e-08
9.79842e-08
9.79221e-08
9.79398e-08
9.79618e-08
9.82343e-08
9.8251e-08
9.82069e-08
9.79999e-08
9.81179e-08
9.79313e-08
9.8053e-08
)
;

boundaryField
{
    inlet
    {
        type            calculated;
        value           nonuniform 0();
    }
    outlet
    {
        type            calculated;
        value           uniform 0;
    }
    wall
    {
        type            calculated;
        value           uniform 0;
    }
    procBoundary1to0
    {
        type            processor;
        value           uniform 0;
    }
    procBoundary1to3
    {
        type            processor;
        value           uniform 0;
    }
    procBoundary1to5
    {
        type            processor;
        value           uniform 0;
    }
    procBoundary1to7
    {
        type            processor;
        value           uniform 0;
    }
}


// ************************************************************************* //
