/*--------------------------------*- C++ -*----------------------------------*\
| =========                 |                                                 |
| \\      /  F ield         | OpenFOAM: The Open Source CFD Toolbox           |
|  \\    /   O peration     | Version:  4.x                                   |
|   \\  /    A nd           | Web:      www.OpenFOAM.org                      |
|    \\/     M anipulation  |                                                 |
\*---------------------------------------------------------------------------*/
FoamFile
{
    version     2.0;
    format      ascii;
    class       volScalarField;
    location    "15";
    object      nu;
}
// * * * * * * * * * * * * * * * * * * * * * * * * * * * * * * * * * * * * * //

dimensions      [0 2 -1 0 0 0 0];

internalField   nonuniform List<scalar> 
87
(
1.0001e-06
1.00016e-06
1.00027e-06
1.0004e-06
1.00054e-06
1.00067e-06
1.00078e-06
1.00086e-06
9.74952e-07
1.00015e-06
1.00026e-06
1.00042e-06
1.00058e-06
1.00071e-06
1.00078e-06
1.00071e-06
1.0006e-06
1.00008e-06
1.00025e-06
1.0004e-06
1.00057e-06
1.0007e-06
1.00071e-06
1.00057e-06
1.0003e-06
9.99994e-07
9.99508e-07
1.00014e-06
1.00025e-06
1.00042e-06
1.00056e-06
1.00066e-06
1.00075e-06
1.00077e-06
1.00082e-06
1.00073e-06
1.00019e-06
1.00041e-06
1.0006e-06
1.00065e-06
1.00059e-06
1.00051e-06
1.00029e-06
1.00019e-06
9.99773e-07
1.0004e-06
1.00053e-06
1.00055e-06
1.0004e-06
1.00013e-06
9.99923e-07
9.99719e-07
9.99703e-07
9.99789e-07
1.00001e-06
1.00019e-06
1.0004e-06
1.00054e-06
1.00064e-06
1.00073e-06
1.00071e-06
1.00076e-06
1.00036e-06
1.00076e-06
1.00081e-06
1.00066e-06
1.00049e-06
1.00031e-06
1.00021e-06
1.00003e-06
1.00003e-06
9.99268e-07
1.00011e-06
1.00029e-06
1.00024e-06
1.00014e-06
9.99965e-07
9.9982e-07
9.99681e-07
9.9962e-07
9.99249e-07
1.00004e-06
1.00013e-06
1.00024e-06
9.99961e-07
1.00014e-06
1.00014e-06
)
;

boundaryField
{
    inlet
    {
        type            calculated;
        value           nonuniform 0();
    }
    outlet
    {
        type            calculated;
        value           uniform 1e-06;
    }
    wall
    {
        type            calculated;
        value           nonuniform List<scalar> 
57
(
1.0001e-06
1.00015e-06
1.00025e-06
1.00016e-06
1.00026e-06
1.0004e-06
1.00027e-06
1.00042e-06
1.00057e-06
1.0004e-06
1.00058e-06
1.0007e-06
1.00054e-06
1.00071e-06
1.00071e-06
1.00067e-06
1.00078e-06
1.00057e-06
1.00078e-06
1.00071e-06
1.0003e-06
1.00086e-06
1.0006e-06
9.99994e-07
9.74952e-07
1.00008e-06
9.99508e-07
1.0001e-06
1.00014e-06
1.00001e-06
1.00004e-06
1.00016e-06
1.00025e-06
1.00019e-06
1.00013e-06
1.00027e-06
1.00042e-06
1.0004e-06
1.00024e-06
1.0004e-06
1.00056e-06
1.00054e-06
1.00054e-06
1.00066e-06
1.00064e-06
1.00067e-06
1.00075e-06
1.00073e-06
1.00078e-06
1.00077e-06
1.00071e-06
1.00086e-06
1.00082e-06
1.00076e-06
9.74952e-07
1.00073e-06
1.00036e-06
)
;
    }
    procBoundary1to0
    {
        type            processor;
        value           nonuniform List<scalar> 
12
(
1.00008e-06
1.00012e-06
1.00016e-06
1.00013e-06
1.00024e-06
1.00032e-06
1.00011e-06
1.00077e-06
1.00018e-06
1.00006e-06
1.00006e-06
1.00014e-06
)
;
    }
    procBoundary1to3
    {
        type            processor;
        value           nonuniform List<scalar> 
27
(
1.00027e-06
1.00041e-06
1.00057e-06
1.00068e-06
1.0007e-06
1.00062e-06
1.00041e-06
1.00022e-06
9.92976e-07
1.00049e-06
1.00058e-06
1.0006e-06
1.00055e-06
1.00039e-06
1.00023e-06
1.00002e-06
9.99853e-07
9.99443e-07
1.00034e-06
1.00037e-06
1.00032e-06
1.00024e-06
1.00012e-06
9.99991e-07
9.99861e-07
9.99735e-07
9.99425e-07
)
;
    }
    procBoundary1to5
    {
        type            processor;
        value           nonuniform List<scalar> 
32
(
1.00036e-06
1.00044e-06
1.00054e-06
1.00052e-06
1.00058e-06
1.00065e-06
1.00021e-06
1.00021e-06
1.00012e-06
1.00007e-06
9.99958e-07
9.99979e-07
9.99443e-07
1.00018e-06
1.00018e-06
1.00011e-06
1.00001e-06
9.99898e-07
9.99778e-07
9.99703e-07
9.99184e-07
1.00006e-06
1.00011e-06
1.00036e-06
1.00021e-06
1.00017e-06
1.00009e-06
1.00021e-06
1.00018e-06
1.00009e-06
1.00018e-06
1.00012e-06
)
;
    }
    procBoundary1to7
    {
        type            processor;
        value           uniform 1.00021e-06;
    }
}


// ************************************************************************* //
