/*--------------------------------*- C++ -*----------------------------------*\
| =========                 |                                                 |
| \\      /  F ield         | OpenFOAM: The Open Source CFD Toolbox           |
|  \\    /   O peration     | Version:  4.x                                   |
|   \\  /    A nd           | Web:      www.OpenFOAM.org                      |
|    \\/     M anipulation  |                                                 |
\*---------------------------------------------------------------------------*/
FoamFile
{
    version     2.0;
    format      ascii;
    class       volScalarField;
    location    "15";
    object      QWallFluid;
}
// * * * * * * * * * * * * * * * * * * * * * * * * * * * * * * * * * * * * * //

dimensions      [1 -1 -3 0 0 0 0];

internalField   nonuniform List<scalar> 
87
(
1.71014e+09
2.26933e+09
1.72072e+09
2.30896e+09
1.66043e+09
2.38067e+09
1.48008e+09
2.44754e+09
1.16728e+09
7.79538e+08
1.06739e+09
7.51272e+08
1.05959e+09
6.57419e+08
1.04184e+09
5.07419e+08
1.0438e+09
4.5718e+08
6.74958e+08
9.81004e+08
5.77703e+08
9.4115e+08
4.0705e+08
8.61816e+08
2.13545e+08
7.11278e+08
1.6636e+08
6.22244e+08
9.83994e+08
6.25604e+08
1.02807e+09
6.17428e+08
1.12396e+09
5.80038e+08
1.3416e+09
7.28311e+08
0
0
0
0
0
0
0
0
0
0
0
0
0
0
0
0
0
0
4.83741e+08
8.79617e+08
4.81603e+08
9.196e+08
4.88067e+08
1.00958e+09
4.85614e+08
1.24672e+09
4.93848e+08
0
0
0
0
0
0
0
0
0
0
0
0
0
0
0
0
0
0
5.14296e+08
9.08736e+08
5.05099e+08
0
0
0
)
;

boundaryField
{
    inlet
    {
        type            calculated;
        value           nonuniform 0();
    }
    outlet
    {
        type            calculated;
        value           uniform 0;
    }
    wall
    {
        type            calculated;
        value           uniform 0;
    }
    procBoundary1to0
    {
        type            processor;
        value           nonuniform List<scalar> 
12
(
2.17699e+09
1.04003e+09
9.73954e+08
9.39785e+08
0
0
8.69595e+08
0
0
8.81188e+08
0
0
)
;
    }
    procBoundary1to3
    {
        type            processor;
        value           nonuniform List<scalar> 
27
(
6.92987e+08
9.86254e+08
6.33449e+08
9.7513e+08
5.33072e+08
9.81346e+08
4.55681e+08
1.1001e+09
5.76737e+08
0
0
0
0
0
0
0
0
0
0
0
0
0
0
0
0
0
0
)
;
    }
    procBoundary1to5
    {
        type            processor;
        value           nonuniform List<scalar> 
32
(
9.48388e+08
4.84051e+08
1.03783e+09
4.60651e+08
1.23226e+09
5.75119e+08
0
0
0
0
0
0
0
0
0
0
0
0
0
0
0
4.74046e+08
8.50217e+08
9.48388e+08
0
4.25167e+08
0
0
0
0
0
0
)
;
    }
    procBoundary1to7
    {
        type            processor;
        value           uniform 0;
    }
}


// ************************************************************************* //
