/*--------------------------------*- C++ -*----------------------------------*\
| =========                 |                                                 |
| \\      /  F ield         | OpenFOAM: The Open Source CFD Toolbox           |
|  \\    /   O peration     | Version:  4.x                                   |
|   \\  /    A nd           | Web:      www.OpenFOAM.org                      |
|    \\/     M anipulation  |                                                 |
\*---------------------------------------------------------------------------*/
FoamFile
{
    version     2.0;
    format      ascii;
    class       volScalarField;
    location    "15";
    object      rho;
}
// * * * * * * * * * * * * * * * * * * * * * * * * * * * * * * * * * * * * * //

dimensions      [1 -3 0 0 0 0 0];

internalField   nonuniform List<scalar> 
87
(
6699.32
6698.92
6698.19
6697.31
6696.36
6695.49
6694.8
6694.26
6872.13
6698.97
6698.28
6697.22
6696.11
6695.22
6694.8
6695.24
6696
6699.45
6698.3
6697.34
6696.2
6695.34
6695.25
6696.19
6698.01
6700.04
6703.29
6699.08
6698.29
6697.18
6696.25
6695.56
6694.95
6694.85
6694.53
6695.08
6698.72
6697.26
6696
6695.66
6696.03
6696.55
6698.06
6698.73
6701.52
6697.33
6696.45
6696.34
6697.29
6699.13
6700.52
6701.88
6701.99
6701.42
6699.91
6698.73
6697.33
6696.36
6695.74
6695.12
6695.23
6694.91
6697.6
6694.94
6694.55
6695.61
6696.72
6697.94
6698.58
6699.79
6699.79
6704.91
6699.27
6698.09
6698.39
6699.08
6700.23
6701.21
6702.14
6702.55
6705.03
6699.7
6699.15
6698.37
6700.26
6699.06
6699.09
)
;

boundaryField
{
    inlet
    {
        type            calculated;
        value           nonuniform 0();
    }
    outlet
    {
        type            calculated;
        value           uniform 6700;
    }
    wall
    {
        type            calculated;
        value           nonuniform List<scalar> 
57
(
6699.32
6698.97
6698.3
6698.92
6698.28
6697.34
6698.19
6697.22
6696.2
6697.31
6696.11
6695.34
6696.36
6695.22
6695.25
6695.49
6694.8
6696.19
6694.8
6695.24
6698.01
6694.26
6696
6700.04
6872.13
6699.45
6703.29
6699.32
6699.08
6699.91
6699.7
6698.92
6698.29
6698.73
6699.15
6698.19
6697.18
6697.33
6698.37
6697.31
6696.25
6696.36
6696.36
6695.56
6695.74
6695.49
6694.95
6695.12
6694.8
6694.85
6695.23
6694.26
6694.53
6694.91
6872.13
6695.08
6697.6
)
;
    }
    procBoundary1to0
    {
        type            processor;
        value           nonuniform List<scalar> 
12
(
6699.46
6699.21
6698.94
6699.12
6698.37
6697.86
6699.28
6694.82
6698.79
6699.63
6699.63
6699.08
)
;
    }
    procBoundary1to3
    {
        type            processor;
        value           nonuniform List<scalar> 
27
(
6698.21
6697.24
6696.19
6695.42
6695.28
6695.88
6697.23
6698.53
6747.4
6696.75
6696.12
6695.97
6696.35
6697.36
6698.48
6699.87
6700.99
6703.74
6697.7
6697.51
6697.83
6698.37
6699.19
6700.06
6700.93
6701.78
6703.85
)
;
    }
    procBoundary1to5
    {
        type            processor;
        value           nonuniform List<scalar> 
32
(
6697.6
6697.05
6696.4
6696.5
6696.12
6695.65
6698.58
6698.62
6699.19
6699.52
6700.28
6700.14
6703.74
6698.78
6698.82
6699.27
6699.94
6700.69
6701.49
6701.99
6705.47
6699.57
6699.28
6697.6
6698.58
6698.87
6699.39
6698.58
6698.78
6699.37
6698.78
6699.2
)
;
    }
    procBoundary1to7
    {
        type            processor;
        value           uniform 6698.62;
    }
}


// ************************************************************************* //
