/*--------------------------------*- C++ -*----------------------------------*\
| =========                 |                                                 |
| \\      /  F ield         | OpenFOAM: The Open Source CFD Toolbox           |
|  \\    /   O peration     | Version:  4.x                                   |
|   \\  /    A nd           | Web:      www.OpenFOAM.org                      |
|    \\/     M anipulation  |                                                 |
\*---------------------------------------------------------------------------*/
FoamFile
{
    version     2.0;
    format      ascii;
    class       volVectorField;
    location    "15";
    object      Urel;
}
// * * * * * * * * * * * * * * * * * * * * * * * * * * * * * * * * * * * * * //

dimensions      [0 1 -1 0 0 0 0];

internalField   nonuniform List<vector> 
87
(
(-0.0262087 0.0003315 -1.6803e-05)
(-0.0272437 0.000387479 -0.000364881)
(-0.0262347 0.000526981 -0.000644167)
(-0.0271481 0.000729232 -0.000843239)
(-0.0257547 0.000997395 -0.000970882)
(-0.0265761 0.00121986 -0.000922656)
(-0.0243433 0.00182548 -0.000564246)
(-0.024995 0.00229059 0.000536237)
(-0.0209295 0.00401514 0.0028781)
(-0.0249652 0.000430205 -6.16317e-05)
(-0.0258787 0.000461459 -0.000395205)
(-0.0245956 0.000562429 -0.000603079)
(-0.025391 0.000734002 -0.00071991)
(-0.0236216 0.000915172 -0.000700902)
(-0.0243923 0.00106783 -0.000565128)
(-0.0220063 0.00155206 -5.97542e-05)
(-0.0225914 0.00180286 0.000685327)
(-0.0192754 0.00338262 0.00187792)
(-0.0235266 0.00026522 -5.99901e-05)
(-0.0244146 0.000220737 -0.000379104)
(-0.0227765 0.000262081 -0.000471451)
(-0.023641 0.000288277 -0.000492979)
(-0.0215177 0.000388682 -0.000411852)
(-0.022451 0.000418051 -0.000204416)
(-0.0199427 0.00058848 0.000339354)
(-0.0206455 0.000673463 0.00110925)
(-0.0177887 0.000950797 0.00189186)
(-0.0241063 0.000342427 5.65149e-06)
(-0.0253235 0.000374507 -0.000369485)
(-0.0242397 0.000474501 -0.000635686)
(-0.0255169 0.000628292 -0.00090916)
(-0.0241614 0.000871519 -0.00095084)
(-0.0255041 0.00103272 -0.00104694)
(-0.0233828 0.00176818 -0.000566525)
(-0.0248418 0.00224836 0.000192429)
(-0.0204373 0.00473283 0.00264511)
(-0.0225139 0.000419735 -0.000112045)
(-0.0237581 0.000413459 -0.000397992)
(-0.0223145 0.000482015 -0.000562415)
(-0.0236249 0.000612765 -0.000722286)
(-0.0218364 0.000734439 -0.000592831)
(-0.0231814 0.000821914 -0.0005492)
(-0.0209639 0.00142793 1.65695e-05)
(-0.0218727 0.00177139 0.00053147)
(-0.0188115 0.00405822 0.00193021)
(-0.020744 0.000214822 -8.26207e-05)
(-0.0222181 0.000155949 -0.000373193)
(-0.0202944 0.000183211 -0.000421417)
(-0.0217896 0.000194881 -0.000544743)
(-0.0194884 0.000294457 -0.000287354)
(-0.0211513 0.000329967 -0.000104947)
(-0.018725 0.000544859 0.000418698)
(-0.019696 0.000655455 0.000949731)
(-0.0168902 0.00114863 0.00186262)
(-0.0222793 0.000308492 -1.85407e-05)
(-0.0235921 0.000369055 -0.000373547)
(-0.0225481 0.000384919 -0.000598709)
(-0.0239699 0.000466887 -0.000853045)
(-0.0226887 0.000667252 -0.000879728)
(-0.0242783 0.00078843 -0.000963694)
(-0.0223925 0.00150668 -0.000555215)
(-0.0240968 0.00191747 -9.61371e-05)
(-0.0199082 0.00417076 0.00132447)
(-0.020737 0.00038795 -6.84385e-05)
(-0.0220292 0.000365386 -0.000382305)
(-0.0206258 0.000360448 -0.000466585)
(-0.0221895 0.000355772 -0.000589477)
(-0.0205932 0.000552589 -0.00044793)
(-0.0221824 0.000623912 -0.000355147)
(-0.0202546 0.00127186 6.17549e-05)
(-0.0213664 0.00153449 0.0004823)
(-0.0186329 0.00380532 0.00147881)
(-0.0189445 0.000203809 -0.000115852)
(-0.020632 8.91456e-05 -0.000337318)
(-0.018629 0.000156269 -0.00033834)
(-0.0206017 0.000134402 -0.000383792)
(-0.0186717 0.000268009 -0.000135053)
(-0.0204244 0.000308401 0.000156856)
(-0.0182632 0.000560602 0.000441196)
(-0.0193467 0.000679145 0.000892444)
(-0.016886 0.00138709 0.00147715)
(-0.0214321 0.000369924 -2.51847e-05)
(-0.0228233 0.000311892 -0.000320563)
(-0.0216938 0.000318469 -0.000438996)
(-0.0197284 0.000335647 -3.56695e-05)
(-0.0213358 0.000287974 -0.000326337)
(-0.018514 0.000213591 -9.90029e-05)
)
;

boundaryField
{
    inlet
    {
        type            calculated;
        value           nonuniform 0();
    }
    outlet
    {
        type            calculated;
        value           nonuniform List<vector> 9((-0.0143391 0.00934203 0.0142424) (-0.00943064 0.0119433 0.00247697) (-0.0047465 -0.00100525 7.76849e-05) (-0.0112496 0.0187688 0.0161125) (-0.00892017 0.0211548 0.00602201) (0.00315585 -9.05757e-05 0.000783148) (-0.0103867 0.0118936 0.000730698) (-0.0121918 0.0179378 0.00358371) (-0.00461498 0.00168964 0.00037667));
    }
    wall
    {
        type            calculated;
        value           nonuniform List<vector> 
57
(
(-1.79477e-05 1.92161e-06 2.28646e-06)
(-1.39405e-05 5.21165e-07 4.8947e-06)
(-1.37923e-05 -1.15025e-06 2.53901e-06)
(-1.40097e-05 -1.23452e-05 1.34887e-05)
(-1.36505e-05 -1.08418e-05 8.6659e-06)
(-1.3217e-05 -1.88598e-06 4.42795e-06)
(-9.63595e-06 -1.36361e-05 1.02085e-05)
(-1.37187e-05 -6.51587e-06 6.73985e-06)
(-1.52083e-05 1.01454e-06 2.06953e-06)
(-1.02583e-05 1.3897e-06 7.42679e-06)
(-1.36325e-05 1.11004e-08 1.18923e-06)
(-1.0856e-05 -2.12777e-06 1.56423e-06)
(-1.30357e-05 4.05729e-06 2.15507e-05)
(-8.67919e-06 -2.47449e-07 3.41126e-06)
(-1.03703e-05 -2.13727e-06 2.35111e-06)
(-1.05338e-05 2.18906e-06 7.88899e-06)
(-6.48343e-06 -3.86428e-07 4.39549e-06)
(-8.292e-06 -1.52787e-06 3.03731e-06)
(-5.30454e-06 3.77277e-07 9.65838e-07)
(-4.90991e-06 6.43329e-07 1.63883e-06)
(-6.23742e-06 2.17412e-07 2.75881e-06)
(-2.45484e-06 9.92001e-07 1.29379e-06)
(-2.83669e-06 1.59233e-06 1.50899e-06)
(-1.23604e-06 3.33841e-06 2.76949e-06)
(-6.3134e-07 7.49178e-07 7.04449e-07)
(-1.83707e-06 6.47207e-07 1.26492e-06)
(-9.14514e-07 1.92667e-06 2.18372e-06)
(-1.79477e-05 1.92161e-06 2.28646e-06)
(-1.69857e-05 2.47969e-07 2.54989e-06)
(-1.69118e-05 1.88234e-07 8.62965e-07)
(-1.11184e-05 7.4521e-07 -4.52436e-07)
(-1.40097e-05 -1.23452e-05 1.34887e-05)
(-1.66153e-05 -1.64779e-06 6.04613e-06)
(-1.55434e-05 9.81016e-07 4.38897e-06)
(-1.03171e-05 9.93082e-07 2.30363e-06)
(-9.63595e-06 -1.36361e-05 1.02085e-05)
(-1.44524e-05 -2.16306e-06 5.18866e-06)
(-1.25361e-05 1.18608e-06 2.41132e-06)
(-1.00523e-05 2.78179e-07 1.73183e-06)
(-1.02583e-05 1.3897e-06 7.42679e-06)
(-1.19475e-05 -3.13048e-06 4.78038e-06)
(-1.40163e-05 -2.64511e-07 2.40282e-06)
(-1.30357e-05 4.05729e-06 2.15507e-05)
(-4.78585e-06 -9.92366e-07 1.18883e-05)
(-1.10483e-05 3.7222e-07 4.94983e-06)
(-1.05338e-05 2.18906e-06 7.88899e-06)
(-5.88593e-06 5.51642e-08 6.72402e-06)
(-6.08339e-06 -5.73449e-07 8.02727e-07)
(-5.30454e-06 3.77277e-07 9.65838e-07)
(-3.37465e-06 2.16138e-08 7.29312e-07)
(-3.16065e-06 -3.36181e-07 5.80798e-07)
(-2.45484e-06 9.92001e-07 1.29379e-06)
(-1.83067e-06 2.70128e-08 5.64075e-07)
(-1.91349e-06 3.86022e-07 2.94046e-07)
(-6.3134e-07 7.49178e-07 7.04449e-07)
(-6.75683e-07 1.21333e-07 3.81831e-07)
(-6.43488e-07 1.02105e-08 3.7459e-07)
)
;
    }
    procBoundary1to0
    {
        type            processor;
        value           nonuniform List<vector> 
12
(
(-0.026747 0.000364432 0.000334659)
(-0.0257893 0.000450222 0.00029403)
(-0.0246656 0.000281787 0.00027624)
(-0.0248902 0.000409802 0.000365766)
(-0.0236601 0.000496909 0.000250681)
(-0.0224616 0.000277223 0.000177199)
(-0.0232485 0.000435208 0.000233222)
(-0.0218495 0.00045143 0.000137398)
(-0.0207764 0.000280757 9.108e-06)
(-0.0224838 0.000477977 0.000137278)
(-0.0212222 0.000426941 9.80928e-05)
(-0.0202662 0.000240805 7.80463e-07)
)
;
    }
    procBoundary1to3
    {
        type            processor;
        value           nonuniform List<vector> 
27
(
(-0.0232274 -5.18627e-07 -9.53392e-05)
(-0.0240998 -6.36042e-05 -0.000399518)
(-0.0225433 -8.51383e-05 -0.000481639)
(-0.0234406 -0.000118178 -0.000522038)
(-0.0215477 -9.92575e-05 -0.000336977)
(-0.0226212 -0.000121866 -6.49295e-05)
(-0.0204459 -0.000206238 0.000623124)
(-0.021663 -0.000276283 0.0015046)
(-0.0184386 -0.000746842 0.00335566)
(-0.0205389 -3.43356e-06 -8.32406e-05)
(-0.021983 -5.23836e-05 -0.000380898)
(-0.0202881 -7.44193e-05 -0.00037319)
(-0.0217793 -0.000122062 -0.000461526)
(-0.0199043 -8.01821e-05 -0.000160948)
(-0.0213569 -4.84254e-05 5.29157e-05)
(-0.0192619 -0.000200637 0.000768638)
(-0.0203226 -0.000263192 0.00143247)
(-0.0176493 -0.000874828 0.0034691)
(-0.0184501 1.06846e-05 -0.000107095)
(-0.0202972 -8.53187e-05 -0.000286749)
(-0.0184511 -1.2493e-05 -0.000258982)
(-0.0203372 3.4799e-05 -0.000238429)
(-0.0185027 2.09327e-05 -2.08718e-05)
(-0.0201607 1.58592e-05 0.000218064)
(-0.0180569 -1.85571e-05 0.000674314)
(-0.0192185 -7.09441e-05 0.00117387)
(-0.0167309 -0.000202081 0.00216379)
)
;
    }
    procBoundary1to5
    {
        type            processor;
        value           nonuniform List<vector> 
32
(
(-0.0232454 0.00033135 -0.000644382)
(-0.0219138 0.000547445 -0.000610898)
(-0.0236183 0.000607546 -0.000714366)
(-0.0216471 0.00134262 -0.0002503)
(-0.0233855 0.00162701 -5.42131e-05)
(-0.0193338 0.00383622 0.00154633)
(-0.019863 0.000288333 -0.000296483)
(-0.0215975 0.000296195 -0.000369877)
(-0.0200391 0.000465557 -0.000216043)
(-0.0216657 0.000531035 -0.000174885)
(-0.0197208 0.0011345 0.000236105)
(-0.0208232 0.00134871 0.000455936)
(-0.0181344 0.00339338 0.00154997)
(-0.0202161 0.000174507 -0.000309683)
(-0.0184827 0.000203267 -0.000177649)
(-0.0203138 0.000199866 -0.000100514)
(-0.0185367 0.000315816 5.80583e-05)
(-0.0201297 0.000308022 0.000218574)
(-0.0179669 0.000588204 0.000478119)
(-0.0191125 0.000638304 0.000728941)
(-0.0166848 0.00144683 0.00138171)
(-0.0209697 0.000415372 -0.000102419)
(-0.0223354 0.0003302 -0.000288672)
(-0.0232454 0.00033135 -0.000644382)
(-0.019863 0.000288333 -0.000296483)
(-0.0211501 0.000341474 -0.000367873)
(-0.0190638 0.000317331 -0.000144305)
(-0.019863 0.000288333 -0.000296483)
(-0.0202161 0.000174507 -0.000309683)
(-0.0208357 0.00023192 -0.000254619)
(-0.0202161 0.000174507 -0.000309683)
(-0.0180573 0.000203538 -0.000165008)
)
;
    }
    procBoundary1to7
    {
        type            processor;
        value           uniform (-0.0180834 2.10714e-05 -8.86466e-05);
    }
}


// ************************************************************************* //
