/*--------------------------------*- C++ -*----------------------------------*\
| =========                 |                                                 |
| \\      /  F ield         | OpenFOAM: The Open Source CFD Toolbox           |
|  \\    /   O peration     | Version:  4.x                                   |
|   \\  /    A nd           | Web:      www.OpenFOAM.org                      |
|    \\/     M anipulation  |                                                 |
\*---------------------------------------------------------------------------*/
FoamFile
{
    version     2.0;
    format      ascii;
    class       volVectorField;
    location    "15";
    object      Us;
}
// * * * * * * * * * * * * * * * * * * * * * * * * * * * * * * * * * * * * * //

dimensions      [0 1 -1 0 0 0 0];

internalField   nonuniform List<vector> 
87
(
(2.24775e-05 2.68321e-06 -1.70704e-06)
(1.19666e-05 8.17549e-06 -8.98392e-07)
(1.02215e-05 1.01544e-06 -9.83468e-07)
(7.15988e-06 5.34052e-07 -5.15258e-07)
(4.20347e-06 9.91723e-07 2.38521e-07)
(3.02014e-06 2.22141e-07 -1.80078e-07)
(1.91832e-06 3.30104e-07 -1.58768e-07)
(2.52519e-06 2.65937e-07 -2.30133e-07)
(9.86771e-07 -1.24767e-09 -1.77062e-07)
(2.57832e-05 5.27854e-06 -1.46471e-06)
(1.98141e-05 5.04423e-06 -2.78961e-06)
(1.15901e-05 2.89312e-06 -1.05086e-06)
(9.21909e-06 1.87679e-06 -8.24779e-07)
(7.13205e-06 1.59034e-06 -4.76126e-07)
(3.0671e-06 9.18977e-07 -7.85348e-08)
(1.88659e-06 6.78753e-07 -1.33281e-07)
(1.12213e-06 3.70308e-07 -2.08181e-07)
(1.27412e-07 4.40681e-08 -1.26725e-07)
(1.5553e-05 6.70669e-06 -1.73607e-06)
(1.4636e-05 6.33397e-06 -1.80414e-06)
(7.52587e-06 4.24352e-06 -1.24507e-06)
(6.10293e-06 3.14555e-06 -6.04583e-07)
(3.59158e-06 2.11854e-06 -6.64234e-07)
(2.21556e-06 1.45367e-06 -2.92405e-07)
(1.03899e-06 6.93363e-07 -1.1609e-07)
(4.30114e-07 5.75466e-07 -1.00261e-07)
(-1.0548e-07 1.29876e-07 -5.78486e-08)
(2.01641e-05 1.62112e-06 -2.68149e-06)
(1.3636e-05 2.65732e-06 -1.43131e-06)
(1.12248e-05 9.90456e-07 -1.8637e-06)
(8.69265e-06 7.95794e-07 -1.12558e-06)
(5.62071e-06 2.7887e-07 -4.37799e-07)
(3.03439e-06 2.962e-07 -4.03716e-07)
(2.55526e-06 2.72079e-07 -4.0211e-08)
(1.54678e-06 1.14336e-07 -2.08315e-07)
(6.50516e-07 -6.56139e-08 -1.67522e-07)
(2.85785e-05 4.83778e-06 -3.8036e-06)
(2.12993e-05 4.71239e-06 -2.72479e-06)
(1.45526e-05 3.27136e-06 -2.17876e-06)
(1.13084e-05 2.41907e-06 -1.30033e-06)
(7.05296e-06 1.50645e-06 -9.40149e-07)
(4.37259e-06 8.81122e-07 -6.67806e-07)
(2.99641e-06 7.21752e-07 -2.87369e-07)
(1.69339e-06 4.18898e-07 -3.824e-07)
(4.13995e-07 2.89394e-09 -1.53495e-07)
(2.14945e-05 7.75026e-06 -4.67863e-06)
(1.68484e-05 6.08578e-06 -3.36627e-06)
(1.14586e-05 4.29286e-06 -1.95418e-06)
(8.04783e-06 3.2747e-06 -1.47724e-06)
(4.48439e-06 1.72985e-06 -1.07547e-06)
(3.08912e-06 1.43917e-06 -8.01019e-07)
(1.86117e-06 9.53291e-07 -5.22572e-07)
(6.93548e-07 5.46735e-07 -3.92701e-07)
(1.17751e-07 6.21656e-08 -9.29777e-08)
(1.69832e-05 4.75059e-07 -3.98328e-06)
(1.32052e-05 1.25619e-06 -1.74406e-06)
(1.06168e-05 2.1038e-06 -1.7366e-06)
(8.71419e-06 1.18154e-06 -1.4547e-06)
(6.12303e-06 6.0927e-07 -1.04456e-06)
(4.05983e-06 3.9162e-07 -6.95889e-07)
(3.08504e-06 3.81145e-07 -5.17041e-07)
(1.85965e-06 2.26523e-07 -2.87687e-07)
(1.03136e-06 -4.42291e-08 -1.15768e-07)
(2.56691e-05 4.04832e-06 -4.75291e-06)
(2.02409e-05 2.69699e-06 -3.50166e-06)
(1.40092e-05 2.22091e-06 -2.8479e-06)
(1.06181e-05 1.89664e-06 -2.54452e-06)
(7.50959e-06 1.05134e-06 -1.52337e-06)
(5.25334e-06 8.75133e-07 -9.9279e-07)
(3.31448e-06 6.44252e-07 -6.35564e-07)
(1.91685e-06 2.92959e-07 -5.14812e-07)
(6.40131e-07 1.17722e-07 -1.23207e-07)
(2.30624e-05 5.80619e-06 -5.4088e-06)
(1.54698e-05 4.63502e-06 -4.37492e-06)
(1.31733e-05 3.38e-06 -3.24899e-06)
(8.90964e-06 2.26677e-06 -2.78384e-06)
(5.82955e-06 1.8712e-06 -1.78091e-06)
(3.74292e-06 1.12715e-06 -1.0981e-06)
(2.09994e-06 6.69401e-07 -7.79128e-07)
(1.31428e-06 4.97806e-07 -5.59658e-07)
(4.09552e-07 1.21161e-07 -1.79646e-07)
(1.72071e-05 1.11514e-06 -3.12932e-06)
(1.24809e-05 6.99805e-07 -1.21163e-06)
(1.06867e-05 9.08507e-07 -1.29157e-06)
(2.77739e-05 3.25848e-06 -4.04323e-06)
(2.08916e-05 2.31563e-06 -3.60386e-06)
(2.52451e-05 4.90632e-06 -5.5704e-06)
)
;

boundaryField
{
    inlet
    {
        type            zeroGradient;
    }
    outlet
    {
        type            zeroGradient;
    }
    wall
    {
        type            zeroGradient;
    }
    procBoundary1to0
    {
        type            processor;
        value           nonuniform List<vector> 
12
(
(3.12007e-05 1.86974e-06 -3.27085e-06)
(3.51706e-05 7.31738e-06 -3.25384e-06)
(3.01867e-05 1.11059e-05 -4.25464e-06)
(2.58083e-05 3.3654e-06 -2.38679e-06)
(3.55344e-05 6.4964e-06 -4.99442e-06)
(3.22628e-05 1.08607e-05 -6.60184e-06)
(2.46482e-05 3.39789e-06 -3.88468e-06)
(3.30648e-05 4.25474e-06 -6.0858e-06)
(3.14975e-05 7.15293e-06 -6.52068e-06)
(2.90666e-05 2.20668e-06 -3.84997e-06)
(3.26463e-05 4.1564e-06 -5.9555e-06)
(3.21527e-05 5.27906e-06 -7.45181e-06)
)
;
    }
    procBoundary1to3
    {
        type            processor;
        value           nonuniform List<vector> 
27
(
(1.87701e-05 1.18027e-05 -4.46313e-06)
(1.11841e-05 7.30606e-06 -3.10197e-06)
(6.28184e-06 4.47894e-06 -1.70056e-06)
(4.69234e-06 3.68228e-06 -1.42607e-06)
(2.59814e-06 2.28285e-06 -9.15765e-07)
(1.59022e-06 1.68662e-06 -7.56948e-07)
(8.16524e-07 9.57435e-07 -1.4892e-07)
(-8.58184e-07 2.36095e-07 -7.57446e-08)
(-4.85242e-07 7.3024e-08 -2.67272e-08)
(1.82383e-05 9.84792e-06 -6.30552e-06)
(1.28043e-05 7.38435e-06 -5.16814e-06)
(8.5938e-06 4.74307e-06 -2.71313e-06)
(5.65849e-06 3.53738e-06 -2.11007e-06)
(3.39877e-06 2.39162e-06 -1.20214e-06)
(2.33515e-06 1.81101e-06 -9.46071e-07)
(1.16228e-06 9.4027e-07 -5.16066e-07)
(3.28976e-08 5.03081e-07 -3.62854e-07)
(-2.94795e-07 8.87667e-08 -1.03308e-07)
(2.02945e-05 7.52706e-06 -8.21478e-06)
(1.39283e-05 5.81747e-06 -5.97679e-06)
(9.42339e-06 3.56798e-06 -3.94817e-06)
(6.63336e-06 3.01234e-06 -2.97406e-06)
(4.41092e-06 1.86681e-06 -2.06238e-06)
(3.061e-06 1.52209e-06 -1.39923e-06)
(1.87953e-06 8.83679e-07 -8.73156e-07)
(5.15629e-07 5.27612e-07 -5.63095e-07)
(5.33612e-08 1.12952e-07 -1.3113e-07)
)
;
    }
    procBoundary1to5
    {
        type            processor;
        value           nonuniform List<vector> 
32
(
(8.85366e-06 5.21855e-07 -1.93352e-06)
(5.31348e-06 1.12282e-06 -1.02755e-06)
(4.89653e-06 3.5151e-07 -8.65535e-07)
(3.21601e-06 1.08394e-07 -6.85849e-07)
(1.93183e-06 9.02297e-09 -4.42354e-07)
(2.19742e-07 5.00662e-07 -1.45781e-07)
(1.47268e-05 2.0609e-06 -2.10463e-06)
(1.14703e-05 1.43604e-06 -2.21858e-06)
(8.6536e-06 1.37723e-06 -1.5141e-06)
(5.76422e-06 6.45882e-07 -1.1568e-06)
(4.44294e-06 5.93546e-07 -8.28279e-07)
(2.27178e-06 3.50163e-07 -4.15084e-07)
(1.07785e-06 3.88195e-07 -2.06483e-07)
(1.9525e-05 3.64426e-06 -4.42201e-06)
(1.32485e-05 2.63604e-06 -2.91319e-06)
(8.79145e-06 2.31533e-06 -2.38796e-06)
(7.24606e-06 1.37409e-06 -1.90995e-06)
(4.39278e-06 9.5578e-07 -1.18216e-06)
(2.86886e-06 4.36279e-07 -8.08356e-07)
(1.54687e-06 4.12231e-07 -5.739e-07)
(5.94067e-07 1.91247e-08 -2.37535e-07)
(1.83222e-05 9.24022e-07 -1.71592e-06)
(1.36777e-05 5.91575e-07 -1.74608e-06)
(8.85366e-06 5.21855e-07 -1.93352e-06)
(1.47268e-05 2.0609e-06 -2.10463e-06)
(1.23233e-05 1.08267e-06 -1.8447e-06)
(2.76156e-05 2.47429e-06 -2.71048e-06)
(1.47268e-05 2.0609e-06 -2.10463e-06)
(1.9525e-05 3.64426e-06 -4.42201e-06)
(2.13705e-05 1.59888e-06 -2.86341e-06)
(1.9525e-05 3.64426e-06 -4.42201e-06)
(2.46324e-05 3.10696e-06 -3.66147e-06)
)
;
    }
    procBoundary1to7
    {
        type            processor;
        value           uniform (2.24821e-05 5.08806e-06 -7.0245e-06);
    }
}


// ************************************************************************* //
