/*--------------------------------*- C++ -*----------------------------------*\
| =========                 |                                                 |
| \\      /  F ield         | OpenFOAM: The Open Source CFD Toolbox           |
|  \\    /   O peration     | Version:  4.x                                   |
|   \\  /    A nd           | Web:      www.OpenFOAM.org                      |
|    \\/     M anipulation  |                                                 |
\*---------------------------------------------------------------------------*/
FoamFile
{
    version     2.0;
    format      ascii;
    class       volScalarField;
    location    "11.5";
    object      alpha.iron;
}
// * * * * * * * * * * * * * * * * * * * * * * * * * * * * * * * * * * * * * //

dimensions      [0 0 0 0 0 0 0];

internalField   nonuniform List<scalar> 
132
(
0.999999
0.999997
0.999988
0.999971
0.999938
0.999888
0.999811
0.999707
0.999569
0.999999
0.999997
0.999987
0.999966
0.999924
0.999856
0.999751
0.999609
0.999425
0.999999
0.999996
0.999986
0.99996
0.999906
0.999818
0.999682
0.999495
0.999281
0.999999
0.999996
0.999985
1
0.999998
0.999991
0.999974
0.999938
0.999876
0.999777
0.999646
0.999488
1
0.999998
0.999989
0.999963
0.999906
0.999804
0.999656
0.999483
0.999329
1
0.999997
0.999987
0.999953
0.999878
0.999747
0.999576
0.999411
0.999305
1
0.999997
0.999985
0.999946
0.99986
1
0.999999
0.999994
0.99998
0.99995
0.999898
0.999814
0.999706
0.999573
1
0.999998
0.999991
0.999969
0.999918
0.99983
0.999713
0.999598
0.999518
1
0.999998
0.999989
0.999958
0.999892
0.999781
0.999657
0.99957
0.999545
1
0.999998
0.999988
0.999953
0.999879
0.999759
0.999627
1
0.999999
0.999996
0.999988
0.99997
0.999941
0.999895
0.999834
0.999751
1
0.999999
0.999994
0.99998
0.999948
0.999898
0.999832
0.999769
0.999726
1
0.999999
0.999993
0.999974
0.999934
0.999872
0.9998
0.999748
0.999732
1
0.999998
0.999992
0.99997
0.999924
0.999855
0.999773
0.999714
0.999688
)
;

boundaryField
{
    inlet
    {
        type            fixedValue;
        value           uniform 1;
    }
    outlet
    {
        type            fixedValue;
        value           nonuniform 0();
    }
    wall
    {
        type            zeroGradient;
    }
    procBoundary0to1
    {
        type            processor;
        value           nonuniform List<scalar> 
12
(
0.999406
0.99922
0.99909
0.999326
0.999238
0.999317
0.999437
0.99952
0.999629
0.999656
0.999734
0.999775
)
;
    }
    procBoundary0to2
    {
        type            processor;
        value           nonuniform List<scalar> 
44
(
0.999958
0.999899
0.999801
0.999653
0.999453
0.999239
0.999999
0.999996
0.999958
0.999986
0.999958
0.999899
0.999708
0.999518
0.999349
0.999253
1
0.999997
0.999988
0.999955
0.999708
0.999883
0.999708
0.999518
0.999542
0.999512
1
0.999998
0.999991
0.999964
0.999909
0.99981
0.999542
0.99969
0.999542
0.999512
1
0.999999
0.999993
0.999976
0.999942
0.999887
0.999821
0.999773
)
;
    }
    procBoundary0to4
    {
        type            processor;
        value           nonuniform List<scalar> 
36
(
1
0.999999
0.999997
0.99999
0.999976
0.999952
0.999917
0.999875
0.999824
1
0.999999
0.999995
0.999981
0.999951
0.999904
0.999852
0.999819
0.999822
1
0.999999
0.999994
0.999978
0.999944
0.999892
0.999839
0.999808
0.999818
1
0.999999
0.999994
0.999976
0.99994
0.999883
0.999825
0.999793
0.999802
)
;
    }
    procBoundary0to6
    {
        type            processor;
        value           uniform 0.999749;
    }
    procBoundary0to7
    {
        type            processor;
        value           uniform 0.999716;
    }
}


// ************************************************************************* //
