/*--------------------------------*- C++ -*----------------------------------*\
| =========                 |                                                 |
| \\      /  F ield         | OpenFOAM: The Open Source CFD Toolbox           |
|  \\    /   O peration     | Version:  4.x                                   |
|   \\  /    A nd           | Web:      www.OpenFOAM.org                      |
|    \\/     M anipulation  |                                                 |
\*---------------------------------------------------------------------------*/
FoamFile
{
    version     2.0;
    format      ascii;
    class       volVectorField;
    location    "11.5";
    object      DDtUrel;
}
// * * * * * * * * * * * * * * * * * * * * * * * * * * * * * * * * * * * * * //

dimensions      [0 1 -2 0 0 0 0];

internalField   nonuniform List<vector> 
132
(
(0.00195622 -8.45836e-05 -0.000211548)
(0.0013705 -4.94045e-05 -0.000113883)
(0.00102937 -2.32227e-05 -2.58919e-05)
(0.000844956 -1.17951e-05 4.43556e-05)
(0.000715297 -1.19561e-05 0.00010307)
(0.000620929 -2.38407e-05 0.000160454)
(0.00050519 -4.1376e-05 0.000201211)
(0.000419718 -4.9131e-05 0.000240437)
(0.000299676 -4.71089e-05 0.000234725)
(0.00191375 -8.3366e-05 -0.000214297)
(0.00131383 -4.4949e-05 -0.000113902)
(0.000965923 -1.96316e-05 -2.47206e-05)
(0.000773878 -1.0462e-05 4.54807e-05)
(0.000629983 -1.25029e-05 0.000106387)
(0.000518731 -2.91615e-05 0.000164533)
(0.00038858 -4.81997e-05 0.000194809)
(0.000288317 -5.71656e-05 0.00021461)
(0.000174464 -4.49683e-05 0.000176922)
(0.00187398 -6.12317e-05 -0.000216118)
(0.00126273 -3.23006e-05 -0.000112717)
(0.000905527 -1.64142e-05 -2.18282e-05)
(0.000698773 -8.25311e-06 5.1511e-05)
(0.000539545 -1.05003e-05 0.000110866)
(0.000416281 -2.14463e-05 0.000171981)
(0.000272366 -3.2134e-05 0.000190325)
(0.000182153 -3.29363e-05 0.000189516)
(9.59651e-05 -2.44866e-05 0.000123601)
(0.00185667 -1.87424e-05 -0.000218948)
(0.00124198 -6.0942e-06 -0.000113512)
(0.000881792 -4.64223e-06 -2.09338e-05)
(0.00186102 -9.02824e-05 -0.00025391)
(0.00124362 -5.20795e-05 -0.000124469)
(0.000880031 -2.52675e-05 -2.82692e-05)
(0.000681022 -1.36838e-05 4.58948e-05)
(0.00055332 -9.52451e-06 9.91993e-05)
(0.000475634 -1.43977e-05 0.000153249)
(0.000400403 -2.38374e-05 0.00018525)
(0.000362032 -2.66883e-05 0.00022137)
(0.000300861 -2.63058e-05 0.000211739)
(0.00181557 -8.87817e-05 -0.000257534)
(0.00118405 -4.67167e-05 -0.000123292)
(0.000815181 -2.07517e-05 -2.42483e-05)
(0.000607843 -1.04879e-05 5.05808e-05)
(0.000474004 -9.26063e-06 0.000101552)
(0.000389018 -1.46705e-05 0.000153226)
(0.000312603 -2.42335e-05 0.000168221)
(0.000271803 -2.91903e-05 0.000182112)
(0.000217967 -2.51254e-05 0.000143043)
(0.00177383 -6.48938e-05 -0.000259725)
(0.00113354 -3.27535e-05 -0.000122071)
(0.000759761 -1.56323e-05 -2.09005e-05)
(0.000546438 -7.17834e-06 5.82906e-05)
(0.000410056 -8.18689e-06 0.000104805)
(0.000322012 -1.02884e-05 0.000155764)
(0.000249096 -1.76753e-05 0.000154718)
(0.000218598 -1.82432e-05 0.000146931)
(0.000176261 -1.43566e-05 9.30889e-05)
(0.00175694 -1.83003e-05 -0.000263685)
(0.00111113 -8.3117e-06 -0.000122205)
(0.000736661 -4.86602e-06 -1.87527e-05)
(0.000521058 -3.64328e-06 6.11419e-05)
(0.000387399 -8.35434e-06 0.000105394)
(0.00177483 -9.97043e-05 -0.000236182)
(0.0011275 -5.60483e-05 -0.000115765)
(0.000750504 -2.54102e-05 -3.00559e-05)
(0.000543099 -1.11775e-05 4.01801e-05)
(0.000422151 -5.46502e-06 8.32306e-05)
(0.00036348 -4.18262e-06 0.000129594)
(0.000319525 -7.54344e-06 0.000149009)
(0.000314185 -6.41575e-06 0.000174312)
(0.000299115 -6.02476e-06 0.00016578)
(0.00172528 -9.82455e-05 -0.000238648)
(0.00106625 -5.0682e-05 -0.00011211)
(0.0006883 -2.12972e-05 -2.35387e-05)
(0.000479231 -6.26472e-06 4.74728e-05)
(0.000360751 -3.72876e-06 8.2805e-05)
(0.00029988 -2.9858e-06 0.000122892)
(0.000261582 -9.35867e-06 0.000126645)
(0.000254973 -1.50911e-05 0.000130614)
(0.000239099 -1.12989e-05 0.000101378)
(0.00168082 -7.13734e-05 -0.000237422)
(0.00101379 -3.46125e-05 -0.000109111)
(0.000637541 -1.46259e-05 -1.91518e-05)
(0.000430681 -2.87814e-06 5.31834e-05)
(0.000319599 -3.8626e-06 8.30325e-05)
(0.000260793 -3.1026e-06 0.000118437)
(0.000227584 -8.74479e-06 0.000110791)
(0.000221826 -9.89705e-06 0.000101032)
(0.000208865 -7.71216e-06 6.34796e-05)
(0.00166279 -1.50342e-05 -0.000239677)
(0.000991256 -7.69644e-06 -0.000108335)
(0.000618331 -5.36935e-06 -1.69943e-05)
(0.000412931 -4.1758e-06 5.58409e-05)
(0.000306652 -6.90944e-06 8.29254e-05)
(0.0002498 -9.37675e-06 0.000117086)
(0.000223044 -9.68754e-06 0.0001077)
(0.00172968 -0.000107431 -0.000191384)
(0.00106817 -5.77846e-05 -9.55062e-05)
(0.000682392 -2.38119e-05 -2.60931e-05)
(0.00047315 -6.21067e-06 3.12373e-05)
(0.000357202 -1.45274e-06 6.4496e-05)
(0.000309569 1.60639e-06 9.95009e-05)
(0.000282178 2.16097e-06 0.000113441)
(0.000295378 3.61764e-06 0.000132471)
(0.000293155 1.4865e-06 0.000126557)
(0.00167607 -0.000103336 -0.000190754)
(0.00100391 -5.13074e-05 -9.07836e-05)
(0.000621157 -1.96974e-05 -2.0045e-05)
(0.000416272 -2.27753e-06 3.77712e-05)
(0.000307028 2.76897e-07 6.51141e-05)
(0.00026149 3.15382e-06 9.36483e-05)
(0.000235705 -1.88122e-07 9.34241e-05)
(0.000244435 -2.01861e-06 9.21995e-05)
(0.000240938 -2.75558e-06 6.99911e-05)
(0.00163301 -7.35496e-05 -0.000186746)
(0.000955096 -3.51916e-05 -8.46547e-05)
(0.000576131 -1.36552e-05 -1.48846e-05)
(0.000378077 -6.49311e-07 4.13046e-05)
(0.000275321 -9.81142e-07 6.41013e-05)
(0.000234692 1.23904e-06 8.68798e-05)
(0.000208763 -3.63566e-06 8.00239e-05)
(0.000215566 -5.52695e-06 6.91717e-05)
(0.000211368 -6.73785e-06 4.1162e-05)
(0.00161654 -1.80021e-05 -0.000185883)
(0.000932979 -6.93412e-06 -8.38735e-05)
(0.000558776 -4.2949e-06 -1.40859e-05)
(0.000363583 -3.04691e-06 4.09901e-05)
(0.000265806 -5.24734e-06 6.34742e-05)
(0.00022495 -6.54784e-06 8.55302e-05)
(0.000205354 -6.98753e-06 7.6012e-05)
(0.000205506 -4.25065e-06 5.97211e-05)
(0.000205243 -3.58301e-06 2.8211e-05)
)
;

boundaryField
{
    inlet
    {
        type            calculated;
        value           nonuniform List<vector> 
16
(
(0.00427544 -0.000184857 -0.000389842)
(0.00414979 -0.000255351 -0.000410037)
(0.00409326 -0.000206047 -0.000414574)
(0.00408029 -8.02423e-05 -0.0004426)
(0.00397297 -0.000207471 -0.00084626)
(0.00382742 -0.000281188 -0.000887347)
(0.00375114 -0.000230197 -0.000902359)
(0.00373939 -7.40291e-05 -0.000967668)
(0.00389838 -0.000250811 -0.000701685)
(0.00371852 -0.000343547 -0.000748886)
(0.0036229 -0.000293958 -0.000729708)
(0.00357553 -1.94667e-05 -0.000770413)
(0.00395177 -0.000292332 -0.000569761)
(0.0037303 -0.000357025 -0.000599929)
(0.00365563 -0.000282367 -0.000577953)
(0.00364238 -7.45161e-05 -0.000566467)
)
;
    }
    outlet
    {
        type            calculated;
        value           nonuniform 0();
    }
    wall
    {
        type            calculated;
        value           nonuniform List<vector> 
66
(
(0.00427544 -0.000184857 -0.000389842)
(0.00414979 -0.000255351 -0.000410037)
(0.00409326 -0.000206047 -0.000414574)
(0.00408029 -8.02423e-05 -0.0004426)
(0.00114004 -2.57976e-05 -5.00491e-05)
(0.000879106 -2.22654e-05 -5.25735e-05)
(0.000742831 -3.03495e-05 -3.75265e-05)
(0.000729168 4.19441e-05 -3.92864e-05)
(0.0011743 1.97758e-05 3.50949e-05)
(0.000912756 3.71591e-05 3.01335e-05)
(0.000753209 -1.98631e-05 3.82391e-05)
(0.000750422 -4.02148e-06 3.72791e-05)
(0.00138731 2.73644e-05 7.35427e-05)
(0.00113885 2.32798e-05 4.50476e-05)
(0.000879056 1.60511e-05 8.89235e-05)
(0.00135878 2.02977e-05 0.000109117)
(0.00101823 1.7136e-05 0.000126503)
(0.000643601 1.21299e-05 0.000129622)
(0.00144898 -1.80373e-05 0.000223999)
(0.000977942 -0.000105695 0.000279067)
(0.000560094 -5.74522e-05 0.000366607)
(0.0010853 -0.000105521 0.000274584)
(0.000522048 -0.000224068 0.000304057)
(-0.000113457 -0.000106367 0.000347037)
(0.00111128 -0.000124637 0.000523459)
(0.00030612 -0.000309701 0.000497864)
(-0.000257836 -8.85633e-05 0.000471124)
(0.000554485 -9.85013e-05 0.000572581)
(-0.000304104 -0.000127903 0.00031757)
(-0.000681984 -4.87674e-05 8.77992e-05)
(0.00427544 -0.000184857 -0.000389842)
(0.00397297 -0.000207471 -0.00084626)
(0.00389838 -0.000250811 -0.000701685)
(0.00395177 -0.000292332 -0.000569761)
(0.00114004 -2.57976e-05 -5.00491e-05)
(0.000571155 -2.75781e-05 -7.94564e-05)
(0.000264427 -3.72287e-05 -5.0098e-05)
(0.000287578 -2.60824e-05 -5.58095e-05)
(0.0011743 1.97758e-05 3.50949e-05)
(0.000484832 4.17014e-06 2.88555e-05)
(0.000203524 1.00379e-05 -1.76203e-05)
(0.000201712 2.34608e-05 -1.14483e-05)
(0.00138731 2.73644e-05 7.35427e-05)
(0.000594172 -1.27746e-05 0.000121434)
(0.000250771 -5.97132e-06 0.000115664)
(0.000248901 3.27263e-05 9.20933e-05)
(0.00135878 2.02977e-05 0.000109117)
(0.000540232 1.3981e-05 0.000126595)
(0.000206637 3.89961e-06 8.21033e-05)
(0.000198314 -2.68147e-06 5.61952e-05)
(0.00144898 -1.80373e-05 0.000223999)
(0.000631299 -6.8517e-07 0.000275087)
(0.000332543 2.11474e-05 0.000256941)
(0.000327066 3.87235e-06 0.000185087)
(0.0010853 -0.000105521 0.000274584)
(0.000476948 -3.99048e-05 0.000285911)
(0.000239224 3.71538e-06 0.000196517)
(0.000256191 2.60426e-05 0.000151143)
(0.00111128 -0.000124637 0.000523459)
(0.000683112 -2.24305e-05 0.000575284)
(0.00043862 5.43351e-05 0.000402063)
(0.000511533 5.64854e-05 0.000328574)
(0.000554485 -9.85013e-05 0.000572581)
(0.000434302 -3.91848e-05 0.000532158)
(0.000411558 3.19023e-05 0.000369044)
(0.000394253 4.16749e-06 0.000350327)
)
;
    }
    procBoundary0to1
    {
        type            processor;
        value           nonuniform List<vector> 
12
(
(0.000218896 -5.05474e-05 0.000201026)
(0.000122819 -4.29667e-05 0.000123845)
(8.15176e-05 -9.01779e-06 5.56535e-05)
(0.000280289 -2.24606e-05 0.000189545)
(0.000208402 -2.04436e-05 9.86543e-05)
(0.000178344 -4.97736e-06 3.17073e-05)
(0.000310345 -2.03677e-07 0.000148953)
(0.000245147 -1.04223e-05 6.3536e-05)
(0.000208403 -1.8794e-06 1.61672e-05)
(0.000320805 8.21902e-06 0.000107745)
(0.000255801 9.30507e-08 2.98533e-05)
(0.000215442 -3.44327e-06 4.34633e-06)
)
;
    }
    procBoundary0to2
    {
        type            processor;
        value           nonuniform List<vector> 
44
(
(0.000667309 -4.1318e-06 5.32487e-05)
(0.000506872 -8.99061e-06 0.000113331)
(0.000383012 -1.3331e-05 0.000177255)
(0.000249078 -1.68183e-05 0.000190658)
(0.000179091 -1.49184e-05 0.000184164)
(0.000117084 -1.40308e-05 0.000114927)
(0.00186388 3.00182e-05 -0.000215621)
(0.0012505 1.84992e-05 -0.00011624)
(0.000667309 -4.1318e-06 5.32487e-05)
(0.00089255 8.07367e-06 -2.18897e-05)
(0.000667309 -4.1318e-06 5.32487e-05)
(0.000506872 -8.99061e-06 0.000113331)
(0.000301069 -1.25114e-05 0.000157335)
(0.000239644 -1.47674e-05 0.000152462)
(0.000222666 -1.28079e-05 0.000143204)
(0.000192566 -9.34841e-06 8.41609e-05)
(0.00177082 3.31097e-05 -0.000256281)
(0.00112457 1.74253e-05 -0.000123619)
(0.000750599 7.60265e-06 -2.15468e-05)
(0.000541615 -8.50297e-07 5.77799e-05)
(0.000301069 -1.25114e-05 0.000157335)
(0.000411109 -9.39932e-06 0.000104937)
(0.000301069 -1.25114e-05 0.000157335)
(0.000239644 -1.47674e-05 0.000152462)
(0.000220391 -4.97877e-06 9.33315e-05)
(0.00021032 -3.79236e-06 5.33455e-05)
(0.00168311 4.13213e-05 -0.000237529)
(0.00101092 1.81136e-05 -0.000108441)
(0.000634716 5.60544e-06 -1.92623e-05)
(0.000431016 -3.91068e-06 5.26661e-05)
(0.000320096 -9.22344e-06 8.51801e-05)
(0.000268378 -1.54393e-05 0.000123989)
(0.000220391 -4.97877e-06 9.33315e-05)
(0.000245262 -1.33454e-05 0.000119438)
(0.000220391 -4.97877e-06 9.33315e-05)
(0.00021032 -3.79236e-06 5.33455e-05)
(0.00163277 4.18464e-05 -0.00018911)
(0.00094976 1.93413e-05 -8.39312e-05)
(0.000573567 4.54369e-06 -1.64475e-05)
(0.000377457 -5.82457e-06 3.93255e-05)
(0.000276322 -8.49797e-06 6.48625e-05)
(0.000238215 -1.25146e-05 9.00234e-05)
(0.000221284 -1.05634e-05 8.22356e-05)
(0.000231665 -6.14078e-06 7.01515e-05)
)
;
    }
    procBoundary0to4
    {
        type            processor;
        value           nonuniform List<vector> 
36
(
(0.00171285 -0.000111343 -0.000125309)
(0.00103647 -5.96173e-05 -6.52269e-05)
(0.000646133 -2.42423e-05 -2.04228e-05)
(0.000434968 -4.16338e-06 2.11448e-05)
(0.000321874 3.15118e-06 4.58566e-05)
(0.000276717 7.96172e-06 6.94831e-05)
(0.000256719 5.59695e-06 8.00723e-05)
(0.00027334 5.89688e-06 9.33099e-05)
(0.000275622 2.86888e-06 8.40937e-05)
(0.0016568 -0.000106185 -0.000118687)
(0.000971534 -5.06423e-05 -5.90139e-05)
(0.000586886 -1.88649e-05 -1.47413e-05)
(0.000383553 -2.79004e-07 2.43006e-05)
(0.000280254 2.94441e-06 4.54885e-05)
(0.000238483 5.95337e-06 6.44505e-05)
(0.000223003 2.32759e-06 6.52481e-05)
(0.000232715 -2.55685e-06 6.33434e-05)
(0.000234881 -1.67933e-06 4.50173e-05)
(0.00161573 -7.36391e-05 -0.000113452)
(0.000924226 -3.39192e-05 -5.30984e-05)
(0.000547844 -1.34606e-05 -9.59848e-06)
(0.000351238 -1.24698e-06 2.75746e-05)
(0.000254927 2.99161e-07 4.50396e-05)
(0.0002159 2.39412e-06 6.00233e-05)
(0.000201544 -1.05897e-06 5.57601e-05)
(0.00020565 -5.13169e-06 4.66591e-05)
(0.000213861 -6.58331e-06 2.39856e-05)
(0.00159909 -1.82824e-05 -0.000112)
(0.000902812 -6.76187e-06 -5.09466e-05)
(0.000531629 -5.59707e-06 -9.36346e-06)
(0.00033547 -3.70543e-06 2.68065e-05)
(0.000244987 -4.01504e-06 4.45864e-05)
(0.000202821 -3.62423e-06 5.76828e-05)
(0.000194427 -4.58396e-06 5.13365e-05)
(0.000190692 -2.08921e-06 3.90205e-05)
(0.000198502 -3.53525e-06 1.28889e-05)
)
;
    }
    procBoundary0to6
    {
        type            processor;
        value           uniform (0.000229295 -2.50904e-06 3.56179e-05);
    }
    procBoundary0to7
    {
        type            processor;
        value           uniform (0.000203227 -1.97312e-06 -1.29772e-05);
    }
}


// ************************************************************************* //
