/*--------------------------------*- C++ -*----------------------------------*\
| =========                 |                                                 |
| \\      /  F ield         | OpenFOAM: The Open Source CFD Toolbox           |
|  \\    /   O peration     | Version:  4.x                                   |
|   \\  /    A nd           | Web:      www.OpenFOAM.org                      |
|    \\/     M anipulation  |                                                 |
\*---------------------------------------------------------------------------*/
FoamFile
{
    version     2.0;
    format      ascii;
    class       volScalarField;
    location    "11.5";
    object      Deff;
}
// * * * * * * * * * * * * * * * * * * * * * * * * * * * * * * * * * * * * * //

dimensions      [0 2 -1 0 0 0 0];

internalField   nonuniform List<scalar> 
132
(
9.98354e-08
9.97528e-08
9.96895e-08
9.96315e-08
9.95187e-08
9.94125e-08
9.93666e-08
9.94741e-08
9.95791e-08
9.96995e-08
9.95867e-08
9.95115e-08
9.94258e-08
9.9436e-08
9.92708e-08
9.93067e-08
9.9299e-08
9.93033e-08
9.97293e-08
9.94832e-08
9.94173e-08
9.93257e-08
9.93001e-08
9.92673e-08
9.92752e-08
9.92319e-08
9.90479e-08
9.96289e-08
9.94626e-08
9.94218e-08
9.95077e-08
9.92392e-08
9.90531e-08
9.90186e-08
9.89695e-08
9.89175e-08
9.89231e-08
9.89362e-08
9.8973e-08
9.93311e-08
9.90921e-08
9.90452e-08
9.89468e-08
9.8875e-08
9.88259e-08
9.88112e-08
9.87724e-08
9.88129e-08
9.9201e-08
9.90056e-08
9.89671e-08
9.88982e-08
9.87884e-08
9.87358e-08
9.86522e-08
9.87626e-08
9.87522e-08
9.90455e-08
9.90237e-08
9.89544e-08
9.88836e-08
9.86206e-08
9.91194e-08
9.8926e-08
9.87658e-08
9.87206e-08
9.86746e-08
9.86886e-08
9.85888e-08
9.85913e-08
9.86706e-08
9.89771e-08
9.88175e-08
9.87219e-08
9.86776e-08
9.85574e-08
9.85685e-08
9.84503e-08
9.83999e-08
9.84943e-08
9.88312e-08
9.87727e-08
9.86412e-08
9.84838e-08
9.84015e-08
9.83766e-08
9.83504e-08
9.84338e-08
9.84665e-08
9.87631e-08
9.8683e-08
9.85496e-08
9.84201e-08
9.83275e-08
9.82965e-08
9.8268e-08
9.90156e-08
9.88368e-08
9.86586e-08
9.85988e-08
9.84986e-08
9.83968e-08
9.84669e-08
9.84969e-08
9.84036e-08
9.88446e-08
9.86136e-08
9.84932e-08
9.84369e-08
9.84001e-08
9.83512e-08
9.82326e-08
9.82862e-08
9.82654e-08
9.88143e-08
9.86508e-08
9.84163e-08
9.83406e-08
9.82388e-08
9.81503e-08
9.81785e-08
9.82559e-08
9.81492e-08
9.87293e-08
9.8559e-08
9.83129e-08
9.81784e-08
9.82628e-08
9.80522e-08
9.80916e-08
9.82181e-08
9.82739e-08
)
;

boundaryField
{
    inlet
    {
        type            calculated;
        value           uniform 0;
    }
    outlet
    {
        type            calculated;
        value           nonuniform 0();
    }
    wall
    {
        type            calculated;
        value           uniform 0;
    }
    procBoundary0to1
    {
        type            processor;
        value           uniform 0;
    }
    procBoundary0to2
    {
        type            processor;
        value           uniform 0;
    }
    procBoundary0to4
    {
        type            processor;
        value           uniform 0;
    }
    procBoundary0to6
    {
        type            processor;
        value           uniform 0;
    }
    procBoundary0to7
    {
        type            processor;
        value           uniform 0;
    }
}


// ************************************************************************* //
