/*--------------------------------*- C++ -*----------------------------------*\
| =========                 |                                                 |
| \\      /  F ield         | OpenFOAM: The Open Source CFD Toolbox           |
|  \\    /   O peration     | Version:  4.x                                   |
|   \\  /    A nd           | Web:      www.OpenFOAM.org                      |
|    \\/     M anipulation  |                                                 |
\*---------------------------------------------------------------------------*/
FoamFile
{
    version     2.0;
    format      ascii;
    class       volScalarField;
    location    "11.5";
    object      SPartFluid;
}
// * * * * * * * * * * * * * * * * * * * * * * * * * * * * * * * * * * * * * //

dimensions      [1 -3 -1 0 0 0 0];

internalField   nonuniform List<scalar> 
132
(
4.02997e-65
3.64248e-65
3.09999e-65
2.86747e-65
3.79745e-65
4.02992e-65
4.88242e-65
3.48741e-65
1.70491e-65
4.88247e-65
4.64997e-65
4.64996e-65
5.11494e-65
3.17744e-65
5.81237e-65
4.26241e-65
4.6499e-65
4.26239e-65
2.71248e-65
5.34746e-65
4.72745e-65
4.72742e-65
4.2624e-65
4.33986e-65
3.25489e-65
4.18482e-65
7.20722e-65
2.86747e-65
4.41746e-65
3.25496e-65
4.18497e-65
6.66496e-65
8.05996e-65
7.05244e-65
6.81991e-65
7.12988e-65
6.2774e-65
6.43237e-65
6.1998e-65
5.42496e-65
7.98245e-65
6.27745e-65
7.20742e-65
7.28487e-65
7.12985e-65
6.50984e-65
7.74973e-65
6.74228e-65
5.88995e-65
8.13744e-65
6.81993e-65
6.27737e-65
6.66484e-65
6.5873e-65
8.29217e-65
6.04474e-65
4.9598e-65
8.05994e-65
6.12244e-65
6.12241e-65
4.57232e-65
9.14471e-65
5.96746e-65
6.81995e-65
7.28495e-65
6.81993e-65
6.58742e-65
5.19242e-65
7.05239e-65
6.89735e-65
4.72734e-65
6.43246e-65
7.05245e-65
6.74245e-65
5.57992e-65
7.36235e-65
5.73484e-65
7.36228e-65
8.83472e-65
6.27723e-65
7.67245e-65
6.27745e-65
6.58743e-65
8.21486e-65
7.82729e-65
7.36215e-65
7.43962e-65
6.19983e-65
4.5723e-65
7.28494e-65
7.59494e-65
7.67238e-65
7.98226e-65
8.36981e-65
7.12979e-65
7.12964e-65
4.57247e-65
4.88247e-65
5.73496e-65
5.34744e-65
6.12243e-65
7.7499e-65
4.80494e-65
4.10743e-65
4.95986e-65
5.50247e-65
8.13745e-65
7.28494e-65
6.74241e-65
5.81237e-65
5.65727e-65
8.3698e-65
6.58731e-65
5.50227e-65
4.57247e-65
4.95997e-65
7.28495e-65
5.73492e-65
7.28477e-65
8.05935e-65
6.74232e-65
5.11487e-65
8.05975e-65
5.26997e-65
5.88997e-65
7.82745e-65
9.22239e-65
4.4174e-65
9.22217e-65
7.12973e-65
5.42474e-65
2.32488e-65
)
;

boundaryField
{
    inlet
    {
        type            calculated;
        value           uniform 0;
    }
    outlet
    {
        type            calculated;
        value           nonuniform 0();
    }
    wall
    {
        type            calculated;
        value           uniform 0;
    }
    procBoundary0to1
    {
        type            processor;
        value           nonuniform List<scalar> 
12
(
3.71978e-65
3.64232e-65
3.48728e-65
6.43219e-65
7.51711e-65
8.13694e-65
7.05225e-65
7.67209e-65
7.90451e-65
6.58732e-65
7.05211e-65
5.73467e-65
)
;
    }
    procBoundary0to2
    {
        type            processor;
        value           nonuniform List<scalar> 
44
(
6.50983e-65
4.88232e-65
2.55739e-65
4.88219e-65
2.24732e-65
2.63476e-65
5.73493e-65
6.50992e-65
6.50983e-65
5.11491e-65
6.50983e-65
4.88232e-65
8.44719e-65
9.76446e-65
5.73466e-65
9.37676e-65
5.42493e-65
6.81991e-65
7.67232e-65
7.7496e-65
8.44719e-65
7.05211e-65
8.44719e-65
9.76446e-65
7.59465e-65
7.98202e-65
7.28494e-65
4.95994e-65
5.50237e-65
6.12216e-65
5.57993e-65
7.12988e-65
7.59465e-65
8.36957e-65
7.59465e-65
7.98202e-65
4.80497e-65
8.13747e-65
8.36995e-65
6.50996e-65
6.43243e-65
6.27735e-65
6.27727e-65
7.74952e-65
)
;
    }
    procBoundary0to4
    {
        type            processor;
        value           nonuniform List<scalar> 
36
(
5.19248e-65
7.36247e-65
7.51746e-65
5.57996e-65
5.96744e-65
5.65746e-65
7.59493e-65
6.74247e-65
8.91239e-65
7.74997e-65
6.35497e-65
7.28496e-65
8.52493e-65
8.21488e-65
7.51737e-65
6.35486e-65
5.42486e-65
9.06719e-65
6.97497e-65
8.75747e-65
6.43247e-65
8.52494e-65
6.97487e-65
5.96732e-65
6.12233e-65
9.68717e-65
5.65725e-65
4.33997e-65
5.73498e-65
7.595e-65
5.19249e-65
7.36241e-65
6.04486e-65
9.5322e-65
5.96719e-65
5.96717e-65
)
;
    }
    procBoundary0to6
    {
        type            processor;
        value           uniform 6.74202e-65;
    }
    procBoundary0to7
    {
        type            processor;
        value           uniform 9.91935e-65;
    }
}


// ************************************************************************* //
