/*--------------------------------*- C++ -*----------------------------------*\
| =========                 |                                                 |
| \\      /  F ield         | OpenFOAM: The Open Source CFD Toolbox           |
|  \\    /   O peration     | Version:  4.x                                   |
|   \\  /    A nd           | Web:      www.OpenFOAM.org                      |
|    \\/     M anipulation  |                                                 |
\*---------------------------------------------------------------------------*/
FoamFile
{
    version     2.0;
    format      ascii;
    class       volScalarField;
    location    "51.5";
    object      alpha.iron;
}
// * * * * * * * * * * * * * * * * * * * * * * * * * * * * * * * * * * * * * //

dimensions      [0 0 0 0 0 0 0];

internalField   nonuniform List<scalar> 
108
(
1
1
1
1
1
1
1
1
0.999888
1
1
1
1
1
1
1
1
0.999999
1
1
1
1
1
1
1
1
0.999918
1
1
1
1
1
1
1
1
1.0155
1
1
1
1
1
1
0.999999
0.999999
0.999942
1
1
1
1
1
1
0.999999
0.999999
0.999985
1
1
1
1
1
1
1
1
0.999954
1
1
1
1
1
1
1
1
0.999789
1
1
1
1
1
0.999999
0.999998
0.999997
0.999978
1
1
1
1
1
0.999999
0.999998
0.999997
0.999986
1
1
1
1
1
1
0.999999
0.999999
0.99996
1
1
1
1
1
1
1
1
0.999856
)
;

boundaryField
{
    inlet
    {
        type            fixedValue;
        value           nonuniform 0();
    }
    outlet
    {
        type            fixedValue;
        value           uniform 1;
    }
    wall
    {
        type            zeroGradient;
    }
    procBoundary3to1
    {
        type            processor;
        value           nonuniform List<scalar> 
27
(
1
1
1
1
1
1
1
1
0.999702
1
1
1
1
1
0.999999
0.999999
0.999999
0.999964
1
1
1
1
1
0.999999
0.999998
0.999998
0.999965
)
;
    }
    procBoundary3to2
    {
        type            processor;
        value           nonuniform List<scalar> 
12
(
1
1
1
1
1
1
1
1
1
1
1
1
)
;
    }
    procBoundary3to7
    {
        type            processor;
        value           nonuniform List<scalar> 
36
(
1
1
1
1
1
0.999999
0.999998
0.999996
0.999978
1
1
1
1
1
0.999999
0.999998
0.999998
0.999965
1
1
1
1
1
1
0.999999
0.999999
0.999925
1
1
1
1
1
1
1
1
0.999871
)
;
    }
}


// ************************************************************************* //
