/*--------------------------------*- C++ -*----------------------------------*\
| =========                 |                                                 |
| \\      /  F ield         | OpenFOAM: The Open Source CFD Toolbox           |
|  \\    /   O peration     | Version:  4.x                                   |
|   \\  /    A nd           | Web:      www.OpenFOAM.org                      |
|    \\/     M anipulation  |                                                 |
\*---------------------------------------------------------------------------*/
FoamFile
{
    version     2.0;
    format      ascii;
    class       volScalarField;
    location    "51.5";
    object      Ksl;
}
// * * * * * * * * * * * * * * * * * * * * * * * * * * * * * * * * * * * * * //

dimensions      [1 -3 -1 0 0 0 0];

internalField   nonuniform List<scalar> 
108
(
4876.43
2747.22
4723.15
2576.09
4835.72
2373.29
5583.5
2082.87
6453.86
6465.1
3133.93
7277.03
3140.81
9919.49
3381.74
28341.2
4333.38
9.93254e+09
4914.7
2793.83
4854.08
2645.98
5058.18
2444.26
5718.99
2041.76
5840.85
3811.95
2516.42
3798.19
2445.15
3908.37
2285.13
4276.31
1935.11
6166.8
16104.4
3438.05
18782.6
3279.59
21162.2
3064.14
20313.1
2775.46
8416.23
48453.3
3734.62
244181
3728.58
1.73497e+06
3855.5
124282
4367.03
19881.8
10859.7
3307.42
10609.4
3085.32
9665.21
2733.79
7818.25
2224.96
4075.24
5353.56
2895.41
5426.09
2802.52
5842.9
2586.76
6641.68
2059.18
4821.23
27528.7
3632.83
32879.6
3567.16
28482.6
3547.17
20231
3701.28
7950.94
1e+10
4016.03
1e+10
4008.4
1e+10
4068.05
1e+10
4554.24
26524.6
114215
3709.23
1e+10
3623.83
83680.1
3527.78
18484.4
3518.84
6110.72
7706.33
3229.92
8426.25
3185.28
9926.44
3078.45
11862.5
2617.18
11543.4
)
;

boundaryField
{
    inlet
    {
        type            zeroGradient;
    }
    outlet
    {
        type            zeroGradient;
    }
    wall
    {
        type            zeroGradient;
    }
    procBoundary3to1
    {
        type            processor;
        value           nonuniform List<scalar> 
27
(
5377.13
2965.58
5493.04
2868.11
5765.75
2646.32
6131.3
2201.4
6306.51
42820
3731.98
319958
3735.27
9.79001e+09
3858.94
47622.6
4113.27
7085.41
54100.4
3756.82
72661.7
3718.59
51031.4
3656.78
21502.9
3709.36
8034.24
)
;
    }
    procBoundary3to2
    {
        type            processor;
        value           nonuniform List<scalar> 
12
(
2875.32
3132.69
2914.4
2637.46
3555.26
3721.4
3416.21
2965.46
3657.69
3947.71
3755.24
3269.5
)
;
    }
    procBoundary3to7
    {
        type            processor;
        value           nonuniform List<scalar> 
36
(
62441.2
3713.91
78643
3696.66
248059
3736.56
600092
4116.8
24256.2
1.58579e+06
3794.83
1e+10
3836.48
147429
3954.27
22158
4223.13
7051.29
11602.7
3346.38
11606.2
3169.28
11409
2981.63
10918.3
2654.1
8347.71
6447.51
3011.59
6548.26
2892.06
7022.43
2791.49
8352.16
2562.05
9391.09
)
;
    }
}


// ************************************************************************* //
