/*--------------------------------*- C++ -*----------------------------------*\
| =========                 |                                                 |
| \\      /  F ield         | OpenFOAM: The Open Source CFD Toolbox           |
|  \\    /   O peration     | Version:  4.x                                   |
|   \\  /    A nd           | Web:      www.OpenFOAM.org                      |
|    \\/     M anipulation  |                                                 |
\*---------------------------------------------------------------------------*/
FoamFile
{
    version     2.0;
    format      ascii;
    class       surfaceScalarField;
    location    "51.5";
    object      phi;
}
// * * * * * * * * * * * * * * * * * * * * * * * * * * * * * * * * * * * * * //

dimensions      [0 3 -1 0 0 0 0];

internalField   nonuniform List<scalar> 
249
(
1.22232e-05
-1.46739e-07
-1.42784e-07
1.24917e-05
-1.17209e-07
-1.61116e-07
1.28469e-05
-1.66389e-07
-1.74077e-07
1.28809e-05
-1.82623e-07
1.20383e-07
1.32929e-05
-4.02915e-07
-2.83345e-07
1.2701e-05
-2.51971e-07
7.04174e-07
1.32968e-05
-8.92947e-07
-7.51322e-07
1.17136e-05
3.62261e-08
1.81525e-06
-2.21284e-06
-3.00309e-06
1.01249e-05
3.62502e-08
-8.81806e-08
9.88952e-06
1.01213e-07
1.69738e-08
9.70181e-06
7.78911e-08
-5.65708e-08
9.06383e-06
1.10197e-07
3.45162e-07
8.33414e-06
3.55812e-07
-2.90387e-08
7.11332e-06
1.54528e-07
8.14322e-07
5.25777e-06
1.03678e-06
-7.41788e-08
4.68821e-06
-5.15137e-07
1.12092e-06
2.75391e-06
-2.78234e-07
1.20207e-05
-5.70195e-09
-1.60881e-07
1.22145e-05
4.03424e-08
-1.3293e-07
1.25382e-05
-9.72246e-08
-1.48637e-07
1.25155e-05
-5.00233e-08
1.82912e-07
1.29922e-05
8.079e-08
-2.01672e-07
1.24611e-05
-6.62096e-08
7.51829e-07
1.3482e-05
5.96868e-07
-5.80955e-07
1.2149e-05
-7.03225e-07
1.52105e-06
2.54798e-06
-2.74048e-06
1.39433e-05
-2.38078e-07
1.4184e-05
-2.00345e-07
1.43337e-05
-2.46988e-07
1.43222e-05
-3.84797e-08
1.4711e-05
-3.08007e-07
1.43069e-05
3.37861e-07
1.52247e-05
-3.20894e-07
1.32659e-05
1.2555e-06
-5.3177e-06
7.47337e-06
5.08505e-09
-2.29278e-07
7.41624e-06
9.20735e-08
-9.85737e-08
7.52139e-06
1.91672e-08
-2.71128e-07
7.54069e-06
4.42396e-08
1.46825e-07
7.71775e-06
1.18746e-08
-4.56429e-07
7.85263e-06
-1.28163e-07
6.593e-07
8.01712e-06
3.24345e-08
-9.17135e-07
8.41951e-06
-7.30575e-07
1.86727e-06
4.19604e-07
-3.63656e-06
6.09311e-06
8.23263e-08
-5.87773e-08
5.87747e-06
1.93676e-07
1.31006e-07
5.69726e-06
1.62318e-07
-1.95083e-08
5.77341e-06
2.18163e-08
2.91434e-07
5.36498e-06
3.95632e-07
-4.36402e-09
5.67365e-06
-3.01201e-07
6.7869e-07
4.59286e-06
1.09887e-06
-5.98315e-08
5.35651e-06
-1.3859e-06
1.01259e-06
4.10785e-06
-3.74449e-07
8.38322e-06
-1.8045e-08
-1.93451e-07
8.55118e-06
4.71594e-08
-1.54366e-07
8.90186e-06
-7.2849e-08
-2.64158e-07
9.20316e-06
-2.02636e-07
1.06065e-07
9.86258e-06
4.72318e-08
-5.12694e-07
1.01898e-05
-4.76239e-07
5.99686e-07
1.12737e-05
6.81089e-07
-1.24711e-06
1.07847e-05
-9.7673e-07
1.60093e-06
3.9012e-06
-4.04545e-06
1.11752e-05
-3.75404e-07
1.12768e-05
-2.5474e-07
1.14301e-05
-4.73145e-07
1.13003e-05
-1.11325e-07
1.175e-05
-7.10445e-07
1.13832e-05
2.28384e-07
1.27893e-05
-1.04588e-06
1.1836e-05
1.23201e-06
-4.47167e-06
6.35984e-06
-6.58985e-08
6.35815e-06
-8.75273e-08
6.28731e-06
-8.64804e-08
6.48675e-06
-8.74682e-08
6.26877e-06
-1.68704e-07
6.59358e-06
3.45573e-08
5.90921e-06
-3.09636e-07
6.81529e-06
4.11076e-07
-7.94595e-07
5.12046e-06
1.70278e-08
5.18395e-06
-8.75725e-08
5.07796e-06
1.48482e-12
5.15349e-06
-4.6782e-08
4.92504e-06
6.72771e-08
5.01174e-06
1.13148e-07
4.21113e-06
4.76605e-07
5.06322e-06
-1.76967e-07
2.0271e-06
5.7431e-06
-1.13742e-09
5.65784e-06
-9.64088e-08
5.67858e-06
-6.95013e-08
6.02896e-06
-2.49379e-07
5.9645e-06
2.17647e-08
6.83499e-06
-2.84694e-07
6.41853e-06
5.46986e-07
7.58951e-06
-6.03298e-07
2.71066e-06
8.98197e-06
8.88937e-06
8.8006e-06
8.58642e-06
8.60925e-06
8.38298e-06
9.06898e-06
8.78592e-06
)
;

boundaryField
{
    inlet
    {
        type            calculated;
        value           nonuniform 0();
    }
    outlet
    {
        type            calculated;
        value           nonuniform List<scalar> 
12
(
1.39378e-05
-3.15851e-10
1.50955e-05
2.11316e-05
8.56656e-06
1.76448e-06
1.22963e-05
1.48912e-05
3.90639e-06
1.79723e-06
5.0513e-06
9.54125e-06
)
;
    }
    wall
    {
        type            calculated;
        value           nonuniform List<scalar> 
63
(
0
0
0
0
0
0
0
0
0
0
0
0
0
0
0
0
0
0
0
0
0
-1.2326e-32
0
0
0
0
0
0
0
0
0
0
0
0
0
0
0
0
0
0
0
0
0
0
0
0
0
0
0
0
0
0
0
0
0
0
0
0
0
0
0
0
0
)
;
    }
    procBoundary3to1
    {
        type            processor;
        value           nonuniform List<scalar> 
27
(
2.63095e-08
9.79536e-09
-1.46571e-08
2.82187e-08
2.74289e-07
1.39641e-07
1.04847e-06
-2.68256e-07
2.99169e-06
-3.69558e-08
-9.74927e-08
-2.72626e-08
-8.99836e-08
-1.58501e-08
3.81539e-08
-3.11088e-08
2.7617e-07
6.68107e-08
8.39471e-08
4.28024e-08
1.04063e-07
4.79364e-09
2.20605e-07
-5.26777e-08
5.76797e-07
-7.15714e-07
2.04757e-06
)
;
    }
    procBoundary3to2
    {
        type            processor;
        value           nonuniform List<scalar> 
12
(
-1.196e-05
-1.02197e-05
-1.18178e-05
-1.37109e-05
-7.355e-06
-6.19975e-06
-8.25028e-06
-1.10559e-05
-6.42058e-06
-5.26116e-06
-5.77608e-06
-9.00607e-06
)
;
    }
    procBoundary3to7
    {
        type            processor;
        value           nonuniform List<scalar> 
36
(
-1.86586e-07
-5.21664e-08
-2.17862e-07
3.00515e-08
-2.90341e-07
3.52603e-07
-4.99918e-07
1.26583e-06
-1.98064e-06
-9.97851e-10
6.75532e-08
8.19089e-13
1.75222e-07
-1.18997e-08
5.13398e-07
-4.54619e-08
7.48551e-07
6.98435e-08
-1.42305e-07
-6.02681e-08
-2.15391e-07
-4.17205e-08
-4.02719e-07
1.27034e-07
-9.01034e-07
8.5628e-07
-2.1908e-06
-3.52438e-07
-2.58549e-07
-4.53874e-07
-1.46527e-07
-7.1151e-07
1.69963e-07
-1.1849e-06
9.1178e-07
-2.51634e-06
)
;
    }
}


// ************************************************************************* //
