/*--------------------------------*- C++ -*----------------------------------*\
| =========                 |                                                 |
| \\      /  F ield         | OpenFOAM: The Open Source CFD Toolbox           |
|  \\    /   O peration     | Version:  4.x                                   |
|   \\  /    A nd           | Web:      www.OpenFOAM.org                      |
|    \\/     M anipulation  |                                                 |
\*---------------------------------------------------------------------------*/
FoamFile
{
    version     2.0;
    format      ascii;
    class       volScalarField;
    location    "51.5";
    object      QPartFluid;
}
// * * * * * * * * * * * * * * * * * * * * * * * * * * * * * * * * * * * * * //

dimensions      [1 -1 -3 0 0 0 0];

internalField   nonuniform List<scalar> 
108
(
8.49332e+09
3.85755e+09
6.73791e+09
3.23805e+09
5.02298e+09
3.80535e+09
5.6507e+09
5.31278e+09
2.92916e+09
6.18499e+09
8.81781e+09
4.94206e+09
5.49454e+09
5.92108e+09
4.8869e+09
5.84924e+09
5.50277e+09
3.5928e+09
6.64249e+09
6.80644e+09
7.10242e+09
4.93758e+09
5.88382e+09
5.40801e+09
6.76241e+09
7.12886e+09
4.10307e+09
4.33946e+09
4.30689e+09
4.66348e+09
6.6777e+09
5.52822e+09
5.5161e+09
3.62105e+09
5.556e+09
4.30763e+09
8.56556e+09
8.10083e+09
1.02961e+10
1.0678e+10
8.56264e+09
8.02825e+09
6.90041e+09
8.66104e+09
7.74099e+09
7.59953e+09
8.02212e+09
8.02661e+09
8.98688e+09
7.487e+09
7.86969e+09
9.27794e+09
8.65262e+09
5.75886e+09
1.27444e+10
9.9107e+09
9.08391e+09
1.1424e+10
8.55837e+09
1.0244e+10
8.30412e+09
9.9141e+09
7.90338e+09
8.42938e+09
7.16813e+09
7.31613e+09
8.04504e+09
9.17195e+09
7.636e+09
7.29743e+09
8.67794e+09
5.56238e+09
8.27221e+09
1.10422e+10
9.30224e+09
1.0404e+10
6.65742e+09
7.88873e+09
9.22469e+09
8.50384e+09
7.03698e+09
9.55516e+09
6.13773e+09
8.16499e+09
5.02041e+09
4.38275e+09
9.43253e+09
7.63179e+09
1.05813e+10
5.13328e+09
6.02689e+09
1.03095e+10
9.17841e+09
7.26932e+09
7.38505e+09
9.98192e+09
8.10014e+09
9.30792e+09
5.02393e+09
8.74075e+09
4.86115e+09
5.76157e+09
6.95674e+09
6.41098e+09
8.54799e+09
6.27403e+09
9.52086e+09
7.50889e+09
)
;

boundaryField
{
    inlet
    {
        type            calculated;
        value           nonuniform 0();
    }
    outlet
    {
        type            calculated;
        value           uniform 0;
    }
    wall
    {
        type            calculated;
        value           uniform 0;
    }
    procBoundary3to1
    {
        type            processor;
        value           nonuniform List<scalar> 
27
(
3.94873e+09
7.09796e+09
6.22908e+09
8.9633e+09
6.30268e+09
5.82773e+09
5.77648e+09
6.31331e+09
4.31421e+09
7.91281e+09
8.48456e+09
7.18662e+09
6.80758e+09
5.80169e+09
9.32341e+09
9.47247e+09
1.32146e+10
4.48792e+09
9.43657e+09
7.86805e+09
5.46513e+09
1.11364e+10
8.86772e+09
1.0716e+10
7.50937e+09
9.70504e+09
3.3887e+09
)
;
    }
    procBoundary3to2
    {
        type            processor;
        value           nonuniform List<scalar> 
12
(
4.59954e+09
4.47139e+09
6.51396e+09
3.98157e+09
1.12268e+10
6.40181e+09
7.69094e+09
4.82042e+09
9.30104e+09
5.72949e+09
1.02223e+10
7.73258e+09
)
;
    }
    procBoundary3to7
    {
        type            processor;
        value           nonuniform List<scalar> 
36
(
1.01639e+10
9.18928e+09
6.49997e+09
7.99876e+09
1.11306e+10
1.25634e+10
8.02652e+09
6.55307e+09
6.16094e+09
7.49783e+09
1.14686e+10
7.46083e+09
8.19e+09
8.39483e+09
6.96642e+09
7.88124e+09
7.68784e+09
6.8468e+09
5.354e+09
9.47653e+09
7.00003e+09
9.03565e+09
8.44347e+09
1.05803e+10
8.68e+09
9.19836e+09
6.93907e+09
7.08355e+09
7.5452e+09
9.00407e+09
5.98931e+09
7.95859e+09
8.07164e+09
8.03725e+09
7.05722e+09
3.64225e+09
)
;
    }
}


// ************************************************************************* //
