/*--------------------------------*- C++ -*----------------------------------*\
| =========                 |                                                 |
| \\      /  F ield         | OpenFOAM: The Open Source CFD Toolbox           |
|  \\    /   O peration     | Version:  4.x                                   |
|   \\  /    A nd           | Web:      www.OpenFOAM.org                      |
|    \\/     M anipulation  |                                                 |
\*---------------------------------------------------------------------------*/
FoamFile
{
    version     2.0;
    format      ascii;
    class       volVectorField;
    location    "51.5";
    object      UsNext;
}
// * * * * * * * * * * * * * * * * * * * * * * * * * * * * * * * * * * * * * //

dimensions      [0 1 -1 0 0 0 0];

internalField   nonuniform List<vector> 
108
(
(1.98816e-09 -3.16613e-09 1.41399e-09)
(2.51278e-09 -4.89167e-09 1.91325e-09)
(2.59585e-09 -5.43182e-09 6.60398e-10)
(1.46034e-09 -1.80467e-09 2.43973e-10)
(8.48135e-10 -9.224e-10 -2.97576e-10)
(1.41293e-09 -3.15099e-10 -4.77725e-10)
(1.00233e-09 -2.36897e-10 4.26761e-11)
(-3.74816e-09 -2.47886e-10 6.94381e-10)
(-3.96361e-09 -4.53273e-10 9.17929e-10)
(1.43948e-09 -1.31764e-09 6.03886e-10)
(1.32935e-09 -1.41643e-09 4.5786e-10)
(1.37178e-09 -1.38756e-09 1.17012e-10)
(1.28544e-09 -7.74237e-10 -1.9783e-10)
(1.03849e-09 -5.10856e-10 -3.53e-10)
(7.93623e-10 -2.22856e-10 -5.50853e-10)
(1.80723e-10 -2.22176e-10 -4.2791e-10)
(-2.20664e-09 -1.47555e-10 -6.69502e-10)
(-7.48969e-09 1.04796e-10 1.77603e-11)
(1.34487e-09 -2.04706e-10 1.77509e-10)
(1.53391e-09 -9.49894e-10 2.08277e-10)
(9.80387e-10 -3.79923e-10 -2.91473e-11)
(1.11584e-09 -2.92493e-10 -2.94088e-10)
(9.82473e-10 -3.15336e-10 -3.0386e-10)
(2.51697e-10 -1.38784e-10 -5.63772e-10)
(-4.18076e-10 1.25878e-10 -4.05254e-10)
(-3.51264e-09 -1.12362e-09 -1.74831e-09)
(-2.45079e-09 8.13682e-09 -3.21365e-09)
(6.85016e-10 -2.98304e-10 1.59352e-10)
(1.08148e-09 -6.75931e-10 -7.6557e-11)
(9.80143e-10 -1.15872e-09 -5.72285e-11)
(6.85723e-10 -7.93138e-11 -8.54457e-11)
(9.15917e-10 -2.37237e-11 -1.16797e-10)
(4.62213e-10 1.27882e-10 -5.65372e-10)
(3.40432e-09 1.10441e-09 -4.51395e-10)
(3.24865e-09 1.14294e-09 -2.04498e-09)
(-2.2099e-09 3.45965e-07 -1.39493e-08)
(1.90259e-09 -1.89967e-09 1.20482e-09)
(1.95177e-09 -8.60013e-10 1.31948e-09)
(1.64794e-09 -1.23167e-09 1.05322e-09)
(1.5703e-09 -7.10452e-10 3.97157e-10)
(1.60622e-09 -6.32181e-10 -2.89465e-10)
(1.52798e-09 -3.80024e-10 -7.22234e-10)
(1.33351e-09 -8.8335e-11 -9.52097e-10)
(5.74638e-10 3.01247e-10 4.41459e-10)
(2.36657e-10 -4.71258e-10 5.45694e-10)
(1.48971e-09 -8.43452e-10 5.13131e-10)
(1.60254e-09 -9.07382e-10 3.35517e-10)
(1.57232e-09 -9.27553e-10 3.44852e-11)
(1.54004e-09 -6.66696e-10 -2.81571e-10)
(1.48264e-09 -3.87185e-10 -3.48394e-10)
(1.18133e-09 -4.38585e-10 -6.53646e-10)
(1.58232e-09 4.18222e-10 -7.7557e-10)
(7.99947e-11 1.01663e-10 -8.9385e-10)
(1.76854e-10 3.1522e-10 -7.27022e-10)
(1.25312e-09 -4.16793e-10 2.87022e-10)
(1.34656e-09 -4.95347e-10 1.24534e-10)
(1.32243e-09 -5.0547e-10 -1.19976e-10)
(1.15701e-09 -3.88664e-10 -2.86526e-10)
(1.07296e-09 -2.63989e-10 -2.61858e-10)
(7.20451e-10 -2.98381e-10 -3.35838e-10)
(-3.73725e-10 -3.23642e-10 -6.59351e-10)
(-1.02139e-09 -6.34261e-12 -1.8716e-09)
(-9.35851e-10 7.53185e-11 -1.94374e-09)
(8.1162e-10 -9.27218e-11 2.05576e-10)
(1.06163e-09 -3.37259e-10 -1.69956e-12)
(7.04077e-10 -2.10072e-10 -6.62215e-11)
(7.48914e-10 -1.71513e-10 -1.10035e-10)
(7.7436e-10 -5.31416e-11 -1.43874e-10)
(9.6864e-10 -1.84434e-10 -2.25888e-10)
(7.59294e-10 2.5333e-10 -6.29443e-10)
(1.77802e-10 2.41778e-10 -2.26259e-09)
(-4.843e-10 9.26353e-11 -8.27792e-09)
(1.64697e-09 -8.10031e-11 1.10261e-09)
(1.80464e-09 1.52377e-10 1.52045e-09)
(1.68738e-09 1.09537e-09 2.11372e-09)
(1.90534e-09 -2.55247e-10 6.86215e-10)
(1.81762e-09 -3.96867e-10 -7.5141e-11)
(1.65221e-09 -1.81967e-11 -7.99576e-10)
(1.35874e-09 -3.93825e-11 -1.00129e-09)
(9.6377e-10 5.43279e-11 -5.376e-10)
(7.3398e-10 -7.00855e-11 -1.49045e-10)
(1.44299e-09 -2.57306e-10 5.16894e-10)
(1.72031e-09 -3.28931e-10 3.5221e-10)
(1.98542e-09 -1.98086e-12 4.18861e-10)
(1.77741e-09 -1.10515e-10 -6.50003e-11)
(1.62895e-09 -2.02284e-10 -3.21832e-10)
(1.39565e-09 -6.19349e-11 -5.4128e-10)
(9.81258e-10 -5.53137e-11 -6.96321e-10)
(5.7815e-10 8.65786e-11 -7.53264e-10)
(2.86536e-10 -2.28906e-11 -2.07623e-10)
(1.2797e-09 -2.36957e-10 2.04532e-10)
(1.37858e-09 -3.05237e-10 8.48254e-11)
(1.40238e-09 -2.40853e-11 5.02864e-11)
(1.23778e-09 -3.85719e-11 -1.03996e-10)
(1.10925e-09 -5.68608e-11 -1.38512e-10)
(7.09179e-10 1.40961e-12 -2.03858e-10)
(1.92667e-10 -1.10033e-10 -4.94064e-10)
(1.44924e-10 5.04958e-11 -1.53208e-09)
(4.21217e-11 -2.57433e-10 -1.5702e-09)
(7.45406e-10 -2.34988e-10 1.06564e-10)
(8.34474e-10 -2.0136e-10 2.09496e-11)
(8.16216e-10 -3.20824e-11 2.63887e-11)
(5.83511e-10 1.52554e-10 -1.5343e-11)
(5.32188e-10 -2.90376e-11 -1.07708e-10)
(2.57006e-10 3.66055e-11 -8.34568e-11)
(-1.99313e-10 2.48783e-11 -3.50867e-10)
(-4.23422e-10 -1.70912e-10 -1.46531e-09)
(-2.56142e-10 -8.87522e-10 -2.83955e-09)
)
;

boundaryField
{
    inlet
    {
        type            calculated;
        value           nonuniform 0();
    }
    outlet
    {
        type            calculated;
        value           nonuniform List<vector> 
12
(
(-3.96361e-09 -4.53273e-10 9.17929e-10)
(-7.48969e-09 1.04796e-10 1.77603e-11)
(-2.45079e-09 8.13682e-09 -3.21365e-09)
(-2.2099e-09 3.45965e-07 -1.39493e-08)
(2.36657e-10 -4.71258e-10 5.45694e-10)
(1.76854e-10 3.1522e-10 -7.27022e-10)
(-9.35851e-10 7.53185e-11 -1.94374e-09)
(-4.843e-10 9.26353e-11 -8.27792e-09)
(7.3398e-10 -7.00855e-11 -1.49045e-10)
(2.86536e-10 -2.28906e-11 -2.07623e-10)
(4.21217e-11 -2.57433e-10 -1.5702e-09)
(-2.56142e-10 -8.87522e-10 -2.83955e-09)
)
;
    }
    wall
    {
        type            calculated;
        value           nonuniform List<vector> 
63
(
(1.98816e-09 -3.16613e-09 1.41399e-09)
(1.43948e-09 -1.31764e-09 6.03886e-10)
(1.34487e-09 -2.04706e-10 1.77509e-10)
(6.85016e-10 -2.98304e-10 1.59352e-10)
(2.51278e-09 -4.89167e-09 1.91325e-09)
(1.32935e-09 -1.41643e-09 4.5786e-10)
(1.53391e-09 -9.49894e-10 2.08277e-10)
(1.08148e-09 -6.75931e-10 -7.6557e-11)
(2.59585e-09 -5.43182e-09 6.60398e-10)
(1.37178e-09 -1.38756e-09 1.17012e-10)
(9.80387e-10 -3.79923e-10 -2.91473e-11)
(9.80143e-10 -1.15872e-09 -5.72285e-11)
(1.46034e-09 -1.80467e-09 2.43973e-10)
(1.28544e-09 -7.74237e-10 -1.9783e-10)
(1.11584e-09 -2.92493e-10 -2.94088e-10)
(6.85723e-10 -7.93138e-11 -8.54457e-11)
(8.48135e-10 -9.224e-10 -2.97576e-10)
(1.03849e-09 -5.10856e-10 -3.53e-10)
(9.82473e-10 -3.15336e-10 -3.0386e-10)
(9.15917e-10 -2.37237e-11 -1.16797e-10)
(1.41293e-09 -3.15099e-10 -4.77725e-10)
(7.93623e-10 -2.22856e-10 -5.50853e-10)
(2.51697e-10 -1.38784e-10 -5.63772e-10)
(4.62213e-10 1.27882e-10 -5.65372e-10)
(1.00233e-09 -2.36897e-10 4.26761e-11)
(1.80723e-10 -2.22176e-10 -4.2791e-10)
(-4.18076e-10 1.25878e-10 -4.05254e-10)
(3.40432e-09 1.10441e-09 -4.51395e-10)
(-3.74816e-09 -2.47886e-10 6.94381e-10)
(-2.20664e-09 -1.47555e-10 -6.69502e-10)
(-3.51264e-09 -1.12362e-09 -1.74831e-09)
(3.24865e-09 1.14294e-09 -2.04498e-09)
(-3.96361e-09 -4.53273e-10 9.17929e-10)
(-7.48969e-09 1.04796e-10 1.77603e-11)
(-2.45079e-09 8.13682e-09 -3.21365e-09)
(-2.2099e-09 3.45965e-07 -1.39493e-08)
(6.85016e-10 -2.98304e-10 1.59352e-10)
(8.1162e-10 -9.27218e-11 2.05576e-10)
(7.45406e-10 -2.34988e-10 1.06564e-10)
(1.08148e-09 -6.75931e-10 -7.6557e-11)
(1.06163e-09 -3.37259e-10 -1.69956e-12)
(8.34474e-10 -2.0136e-10 2.09496e-11)
(9.80143e-10 -1.15872e-09 -5.72285e-11)
(7.04077e-10 -2.10072e-10 -6.62215e-11)
(8.16216e-10 -3.20824e-11 2.63887e-11)
(6.85723e-10 -7.93138e-11 -8.54457e-11)
(7.48914e-10 -1.71513e-10 -1.10035e-10)
(5.83511e-10 1.52554e-10 -1.5343e-11)
(9.15917e-10 -2.37237e-11 -1.16797e-10)
(7.7436e-10 -5.31416e-11 -1.43874e-10)
(5.32188e-10 -2.90376e-11 -1.07708e-10)
(4.62213e-10 1.27882e-10 -5.65372e-10)
(9.6864e-10 -1.84434e-10 -2.25888e-10)
(2.57006e-10 3.66055e-11 -8.34568e-11)
(3.40432e-09 1.10441e-09 -4.51395e-10)
(7.59294e-10 2.5333e-10 -6.29443e-10)
(-1.99313e-10 2.48783e-11 -3.50867e-10)
(3.24865e-09 1.14294e-09 -2.04498e-09)
(1.77802e-10 2.41778e-10 -2.26259e-09)
(-4.23422e-10 -1.70912e-10 -1.46531e-09)
(-2.2099e-09 3.45965e-07 -1.39493e-08)
(-4.843e-10 9.26353e-11 -8.27792e-09)
(-2.56142e-10 -8.87522e-10 -2.83955e-09)
)
;
    }
    procBoundary3to1
    {
        type            processor;
        value           nonuniform List<vector> 
27
(
(3.30063e-09 -6.05216e-09 4.54502e-09)
(1.38131e-09 -9.17115e-09 7.40829e-09)
(1.25137e-09 -5.13781e-09 4.319e-09)
(-1.30522e-10 -1.30783e-09 1.26336e-09)
(1.94719e-10 -1.11653e-09 1.16663e-10)
(9.85115e-10 -2.06359e-10 -3.03656e-10)
(1.71097e-09 -2.34491e-10 -7.20196e-10)
(1.5506e-09 -2.0784e-09 -2.50754e-09)
(3.03488e-09 2.55917e-11 -5.66093e-10)
(1.11699e-09 -1.09753e-09 3.78776e-09)
(1.77773e-09 -1.41016e-09 6.65085e-09)
(1.79089e-09 -1.00897e-09 3.61737e-09)
(3.60997e-10 -1.51033e-09 1.5698e-09)
(7.02151e-10 -1.15512e-09 -1.0473e-10)
(1.04657e-09 -5.16437e-10 -5.74495e-10)
(1.90537e-09 -2.1287e-10 -1.40134e-09)
(2.38139e-09 -4.74016e-10 -7.42801e-10)
(9.47854e-10 -1.42669e-09 -1.94259e-09)
(8.9671e-10 8.48469e-10 3.07646e-09)
(1.76079e-09 1.32941e-09 4.28612e-09)
(2.22308e-09 1.54409e-09 4.92539e-09)
(1.83489e-09 2.61219e-10 1.82571e-09)
(1.42125e-09 -1.4258e-10 2.29557e-10)
(1.33691e-09 -9.90891e-12 -4.37002e-10)
(1.22717e-09 -2.73587e-11 -8.59385e-10)
(1.05602e-09 4.93523e-11 -7.27243e-10)
(6.94001e-10 -6.55113e-10 -2.31959e-10)
)
;
    }
    procBoundary3to2
    {
        type            processor;
        value           nonuniform List<vector> 
12
(
(2.00542e-09 -1.84509e-09 1.17681e-09)
(1.44467e-09 -1.23888e-09 6.95132e-10)
(1.27791e-09 -8.54049e-10 5.18997e-10)
(8.04455e-10 -4.87909e-10 2.84584e-10)
(1.44495e-09 -8.27197e-10 1.13142e-09)
(1.39291e-09 -7.42393e-10 5.563e-10)
(1.08698e-09 -5.20036e-10 3.45884e-10)
(5.20144e-10 -1.35172e-10 1.15519e-10)
(9.88613e-10 1.44599e-10 1.24798e-09)
(1.05371e-09 -1.01641e-10 3.87079e-10)
(9.49452e-10 -1.3161e-10 1.84409e-10)
(5.68835e-10 -7.19493e-11 1.10936e-10)
)
;
    }
    procBoundary3to7
    {
        type            processor;
        value           nonuniform List<vector> 
36
(
(1.6145e-09 4.53969e-10 1.18586e-09)
(1.80894e-09 4.79288e-10 1.20149e-09)
(2.11325e-09 8.29159e-10 1.58202e-09)
(2.12119e-09 4.85391e-10 4.7519e-10)
(1.87484e-09 3.35727e-10 1.02425e-10)
(1.45132e-09 2.90593e-10 -5.59648e-10)
(8.89995e-10 3.20339e-10 -6.25436e-10)
(6.90655e-10 3.08831e-10 -6.71893e-10)
(3.18673e-10 6.87768e-11 -6.02004e-11)
(1.52965e-09 6.59375e-11 4.00103e-10)
(1.83113e-09 2.41442e-10 4.80782e-10)
(1.95957e-09 3.32195e-10 4.54201e-10)
(2.12011e-09 4.34913e-10 1.7722e-10)
(1.67223e-09 2.51301e-10 2.99511e-12)
(1.32194e-09 2.68835e-10 -2.56103e-10)
(1.08023e-09 1.99576e-10 -3.43848e-10)
(6.65056e-10 2.6822e-10 -4.50686e-10)
(2.65949e-10 2.24372e-10 -7.19313e-11)
(1.20545e-09 1.74135e-10 1.51541e-10)
(1.49185e-09 9.82659e-13 2.62693e-11)
(1.46454e-09 2.58372e-10 2.59182e-10)
(1.36918e-09 3.66951e-10 1.48628e-10)
(1.19508e-09 2.09188e-10 -1.1358e-11)
(8.65794e-10 1.76675e-10 5.45277e-13)
(5.81745e-10 1.7646e-10 -3.03075e-10)
(5.67639e-10 2.70718e-10 -7.76306e-10)
(1.89825e-11 2.69963e-10 -3.32366e-10)
(6.09977e-10 -6.97642e-11 6.66999e-11)
(8.33323e-10 -1.01006e-10 7.05342e-11)
(7.37308e-10 1.47552e-10 1.18297e-10)
(7.0849e-10 1.93229e-10 1.37273e-10)
(5.96935e-10 1.2247e-10 1.12172e-10)
(4.05705e-10 1.04989e-10 1.53161e-10)
(2.31719e-10 5.61703e-11 -2.07224e-10)
(2.31883e-10 1.18858e-10 -6.81333e-10)
(6.91714e-12 8.57956e-11 -3.36959e-11)
)
;
    }
}


// ************************************************************************* //
