/*--------------------------------*- C++ -*----------------------------------*\
| =========                 |                                                 |
| \\      /  F ield         | OpenFOAM: The Open Source CFD Toolbox           |
|  \\    /   O peration     | Version:  4.x                                   |
|   \\  /    A nd           | Web:      www.OpenFOAM.org                      |
|    \\/     M anipulation  |                                                 |
\*---------------------------------------------------------------------------*/
FoamFile
{
    version     2.0;
    format      ascii;
    class       volScalarField;
    location    "23";
    object      KslNext;
}
// * * * * * * * * * * * * * * * * * * * * * * * * * * * * * * * * * * * * * //

dimensions      [1 -3 -1 0 0 0 0];

internalField   nonuniform List<scalar> 
114
(
6016
3222.34
5312.9
3102.33
4840.42
2939.09
3494.02
7483.42
3407.69
6483.59
3334.64
5889.84
3233.28
5478.57
3093.81
3435.03
7093.1
3303.95
5904.71
3206.32
5288.69
3097.22
4925.63
2983.13
3376.98
6390.64
3155.98
5073.72
2958.32
4361.78
2776.76
3940.49
2659.89
11448.9
3821.78
13234.9
3746.55
3542.85
8801.94
3680.6
9839.31
3761.09
11008.7
3771.6
12447
3666.81
3504.07
8434.49
3623.45
8861.76
3649.35
9298.27
3653.62
10158.8
3610.64
3424.07
7065.95
3369.48
6192.12
3230.87
5624.71
3129.14
5259.22
2997.97
55309.9
3961.75
3590.25
9593.79
3812.92
12841.6
3926.37
18297.6
3973.59
30326.3
3940.41
3528.32
9156.71
3744.19
11489.9
3848.31
14813.8
3912.04
22655.8
3916.22
3450.63
7604.82
3470.07
7164.68
3393.47
6727.41
3379.46
6562.15
3291.56
3611.01
9790.66
3843.44
12600
3878.9
15403.3
3842.13
18734.1
3559.93
9050.94
3770.01
10761.8
3819.96
12468.5
3795.25
3447.05
7391.26
3471.31
7019.46
3406.1
6635.12
)
;

boundaryField
{
    inlet
    {
        type            zeroGradient;
    }
    outlet
    {
        type            zeroGradient;
    }
    wall
    {
        type            zeroGradient;
    }
    procBoundary2to0
    {
        type            processor;
        value           uniform 0;
    }
    procBoundary2to3
    {
        type            processor;
        value           uniform 0;
    }
    procBoundary2to6
    {
        type            processor;
        value           uniform 0;
    }
}


// ************************************************************************* //
