/*--------------------------------*- C++ -*----------------------------------*\
| =========                 |                                                 |
| \\      /  F ield         | OpenFOAM: The Open Source CFD Toolbox           |
|  \\    /   O peration     | Version:  4.x                                   |
|   \\  /    A nd           | Web:      www.OpenFOAM.org                      |
|    \\/     M anipulation  |                                                 |
\*---------------------------------------------------------------------------*/
FoamFile
{
    version     2.0;
    format      ascii;
    class       volScalarField;
    location    "23";
    object      particleRelTemp;
}
// * * * * * * * * * * * * * * * * * * * * * * * * * * * * * * * * * * * * * //

dimensions      [0 0 0 0 0 0 0];

internalField   nonuniform List<scalar> 
114
(
-1.30166e-08
-1.09039e-08
-6.99376e-09
-4.664e-09
-1.49491e-09
-7.42378e-10
-1.81878e-08
-1.68047e-08
-1.52201e-08
-1.30751e-08
-1.05518e-08
-7.74557e-09
-5.6606e-09
-3.37097e-09
-2.1824e-09
-1.85919e-08
-1.74189e-08
-1.57316e-08
-1.40703e-08
-1.17109e-08
-9.8554e-09
-7.70658e-09
-5.11718e-09
-4.64303e-09
-1.85698e-08
-1.78642e-08
-1.66567e-08
-1.52101e-08
-1.32678e-08
-1.23442e-08
-9.83842e-09
-8.54918e-09
-7.90005e-09
-5.47277e-09
-1.88668e-09
8.25002e-10
3.14775e-09
-1.82655e-08
-1.66568e-08
-1.43873e-08
-1.18758e-08
-9.40209e-09
-5.77848e-09
-3.21973e-09
-1.04633e-10
1.76149e-09
-1.8328e-08
-1.69059e-08
-1.51171e-08
-1.28691e-08
-1.05543e-08
-8.32054e-09
-5.76142e-09
-3.14762e-09
-1.55023e-09
-1.83804e-08
-1.73106e-08
-1.58488e-08
-1.41178e-08
-1.23811e-08
-1.04865e-08
-8.59458e-09
-6.08909e-09
-5.2881e-09
5.00092e-09
7.28527e-09
-1.78051e-08
-1.62073e-08
-1.36096e-08
-1.07175e-08
-7.44917e-09
-3.51713e-09
-2.80931e-10
3.02796e-09
5.03508e-09
-1.82402e-08
-1.6524e-08
-1.39822e-08
-1.18141e-08
-8.48483e-09
-5.761e-09
-3.13529e-09
-3.3307e-10
2.60662e-09
-1.82667e-08
-1.68823e-08
-1.51518e-08
-1.26703e-08
-1.07837e-08
-8.31115e-09
-5.87958e-09
-3.79323e-09
-1.325e-09
-1.7709e-08
-1.5378e-08
-1.29046e-08
-1.02469e-08
-6.79584e-09
-2.63818e-09
1.21212e-09
6.11602e-09
-1.81328e-08
-1.60952e-08
-1.42031e-08
-1.11176e-08
-8.08182e-09
-4.75174e-09
-2.82529e-09
-1.83439e-08
-1.67574e-08
-1.46595e-08
-1.25561e-08
-1.00269e-08
-7.05355e-09
)
;

boundaryField
{
    inlet
    {
        type            calculated;
        value           nonuniform List<scalar> 
12
(
-1.81878e-08
-1.85919e-08
-1.85698e-08
-1.82655e-08
-1.8328e-08
-1.83804e-08
-1.78051e-08
-1.82402e-08
-1.82667e-08
-1.7709e-08
-1.81328e-08
-1.83439e-08
)
;
    }
    outlet
    {
        type            calculated;
        value           nonuniform 0();
    }
    wall
    {
        type            calculated;
        value           nonuniform List<scalar> 
66
(
-1.81878e-08
-1.85919e-08
-1.85698e-08
-1.68047e-08
-1.74189e-08
-1.78642e-08
-1.52201e-08
-1.57316e-08
-1.66567e-08
-1.30166e-08
-1.30751e-08
-1.40703e-08
-1.52101e-08
-1.09039e-08
-1.05518e-08
-1.17109e-08
-1.32678e-08
-6.99376e-09
-7.74557e-09
-9.8554e-09
-1.23442e-08
-4.664e-09
-5.6606e-09
-7.70658e-09
-9.83842e-09
-1.49491e-09
-3.37097e-09
-5.11718e-09
-8.54918e-09
-7.42378e-10
-2.1824e-09
-4.64303e-09
-7.90005e-09
-1.85698e-08
-1.83804e-08
-1.82667e-08
-1.83439e-08
-1.78642e-08
-1.73106e-08
-1.68823e-08
-1.67574e-08
-1.66567e-08
-1.58488e-08
-1.51518e-08
-1.46595e-08
-1.52101e-08
-1.41178e-08
-1.26703e-08
-1.25561e-08
-1.32678e-08
-1.23811e-08
-1.07837e-08
-1.00269e-08
-1.23442e-08
-1.04865e-08
-8.31115e-09
-7.05355e-09
-9.83842e-09
-8.59458e-09
-5.87958e-09
-8.54918e-09
-6.08909e-09
-3.79323e-09
-7.90005e-09
-5.2881e-09
-1.325e-09
)
;
    }
    procBoundary2to0
    {
        type            processor;
        value           nonuniform List<scalar> 
44
(
-1.27602e-08
-1.0664e-08
-8.18776e-09
-5.28432e-09
-2.82282e-09
-1.30704e-09
-1.85257e-08
-1.66024e-08
-1.57913e-08
-1.57913e-08
-1.06893e-08
-8.41455e-09
-6.82647e-09
-2.90834e-09
1.64773e-10
2.74885e-09
-1.78691e-08
-1.59914e-08
-1.36155e-08
-1.06893e-08
-8.41455e-09
-8.41455e-09
-3.52681e-09
2.05182e-09
4.56558e-09
5.81911e-09
-1.77211e-08
-1.54129e-08
-1.28472e-08
-1.02479e-08
-6.61272e-09
-3.52681e-09
2.05182e-09
2.05182e-09
6.24261e-09
9.13091e-09
-1.76935e-08
-1.58073e-08
-1.30544e-08
-9.35787e-09
-6.09939e-09
-1.71103e-09
3.54066e-09
6.24261e-09
)
;
    }
    procBoundary2to3
    {
        type            processor;
        value           nonuniform List<scalar> 
12
(
1.54451e-09
-1.52418e-10
-3.37179e-09
-7.02474e-09
5.37555e-09
3.71262e-09
-2.86663e-10
-3.00667e-09
1.04759e-08
8.26801e-09
5.09449e-09
1.30643e-09
)
;
    }
    procBoundary2to6
    {
        type            processor;
        value           nonuniform List<scalar> 
32
(
8.04956e-09
3.26115e-10
4.65146e-09
-5.23206e-09
-2.11374e-09
-6.88311e-13
-1.76108e-08
-1.56788e-08
-1.28881e-08
-9.48665e-09
-5.92227e-09
-2.49958e-09
3.27463e-10
8.04956e-09
3.26115e-10
3.65973e-09
-1.7729e-08
-1.63992e-08
-1.40708e-08
-1.10189e-08
-8.32106e-09
-5.14889e-09
3.26115e-10
-5.23206e-09
-1.6553e-09
-1.82235e-08
-1.67204e-08
-1.5058e-08
-1.2174e-08
-1.01103e-08
-5.23206e-09
-7.03245e-09
)
;
    }
}


// ************************************************************************* //
