/*--------------------------------*- C++ -*----------------------------------*\
| =========                 |                                                 |
| \\      /  F ield         | OpenFOAM: The Open Source CFD Toolbox           |
|  \\    /   O peration     | Version:  4.x                                   |
|   \\  /    A nd           | Web:      www.OpenFOAM.org                      |
|    \\/     M anipulation  |                                                 |
\*---------------------------------------------------------------------------*/
FoamFile
{
    version     2.0;
    format      ascii;
    class       volScalarField;
    location    "23";
    object      QWallFluidCoeff;
}
// * * * * * * * * * * * * * * * * * * * * * * * * * * * * * * * * * * * * * //

dimensions      [1 -1 -3 -1 0 0 0];

internalField   nonuniform List<scalar> 
114
(
-1.82654e+06
-3.04416e+06
-2.04834e+06
-3.169e+06
-2.21238e+06
-3.29584e+06
-2.75139e+06
-1.50346e+06
-2.86391e+06
-1.72206e+06
-2.95838e+06
-1.87791e+06
-3.05167e+06
-1.99193e+06
-3.15315e+06
-2.77374e+06
-1.56117e+06
-2.91672e+06
-1.84392e+06
-3.0499e+06
-2.04189e+06
-3.15873e+06
-2.17383e+06
-3.25278e+06
-5.56128e+06
-3.356e+06
-5.98865e+06
-4.11422e+06
-6.42257e+06
-4.7178e+06
-6.8079e+06
-5.14634e+06
-7.08362e+06
0
0
0
0
0
0
0
0
0
0
0
0
0
0
0
0
0
0
0
0
0
0
-2.73993e+06
-1.55038e+06
-2.85251e+06
-1.75133e+06
-2.96613e+06
-1.91186e+06
-3.07049e+06
-2.02112e+06
-3.17286e+06
0
0
0
0
0
0
0
0
0
0
0
0
0
0
0
0
0
0
0
0
-2.71545e+06
-1.45072e+06
-2.76102e+06
-1.54407e+06
-2.81724e+06
-1.62858e+06
-2.84127e+06
-1.66371e+06
-2.8893e+06
0
0
0
0
0
0
0
0
0
0
0
0
0
0
0
-2.69306e+06
-1.47186e+06
-2.73932e+06
-1.55159e+06
-2.79037e+06
-1.62194e+06
)
;

boundaryField
{
    inlet
    {
        type            calculated;
        value           uniform 0;
    }
    outlet
    {
        type            calculated;
        value           nonuniform 0();
    }
    wall
    {
        type            calculated;
        value           uniform 0;
    }
    procBoundary2to0
    {
        type            processor;
        value           uniform 0;
    }
    procBoundary2to3
    {
        type            processor;
        value           uniform 0;
    }
    procBoundary2to6
    {
        type            processor;
        value           uniform 0;
    }
}


// ************************************************************************* //
