/*--------------------------------*- C++ -*----------------------------------*\
| =========                 |                                                 |
| \\      /  F ield         | OpenFOAM: The Open Source CFD Toolbox           |
|  \\    /   O peration     | Version:  4.x                                   |
|   \\  /    A nd           | Web:      www.OpenFOAM.org                      |
|    \\/     M anipulation  |                                                 |
\*---------------------------------------------------------------------------*/
FoamFile
{
    version     2.0;
    format      ascii;
    class       surfaceScalarField;
    location    "54.5";
    object      phi;
}
// * * * * * * * * * * * * * * * * * * * * * * * * * * * * * * * * * * * * * //

dimensions      [0 3 -1 0 0 0 0];

internalField   nonuniform List<scalar> 
259
(
1.0165e-05
-5.32302e-08
1.07541e-05
-6.53826e-09
1.10298e-05
-1.6419e-07
-2.98396e-07
1.14637e-05
3.27055e-08
-4.30211e-07
1.17244e-05
-2.59296e-07
-2.22181e-07
1.08105e-07
-2.43646e-07
8.60099e-06
2.06934e-07
-7.34229e-07
8.84041e-06
9.89143e-08
-3.78399e-07
9.34738e-06
2.44047e-07
-7.92517e-07
9.50573e-06
1.30382e-07
-3.41964e-07
9.87194e-06
2.60337e-07
-6.3309e-07
9.9605e-06
1.70565e-08
-2.69804e-07
1.02233e-05
2.4258e-07
-4.72674e-07
1.02689e-05
-9.29416e-08
-2.11959e-07
2.21264e-07
-1.57227e-07
8.80857e-06
2.87552e-07
-7.25925e-07
9.15606e-06
1.38107e-07
-3.86685e-07
9.86693e-06
3.00735e-07
-7.67556e-07
1.01806e-05
1.57497e-07
-3.40736e-07
1.07427e-05
3.01806e-07
-6.03645e-07
1.09431e-05
8.13681e-08
-2.6467e-07
1.13864e-05
2.58542e-07
-4.59248e-07
1.15406e-05
-3.35263e-08
-2.13666e-07
1.91631e-07
-3.24579e-07
9.09917e-06
-6.48349e-07
9.6153e-06
-3.78026e-07
1.05842e-05
-6.68167e-07
1.11112e-05
-3.69508e-07
1.1962e-05
-5.4903e-07
1.23814e-05
-3.38e-07
1.30673e-05
-4.27376e-07
1.33004e-05
-2.66618e-07
-3.16813e-07
7.51571e-06
-7.14398e-08
7.39329e-06
1.41983e-07
7.43388e-06
-1.68873e-07
-2.46959e-07
1.74221e-07
-1.91389e-07
8.03246e-06
3.02737e-07
-8.75899e-07
7.9355e-06
1.21349e-07
-4.03207e-07
7.65499e-06
3.53289e-07
-8.35591e-07
7.51693e-06
1.64273e-07
-3.38272e-07
7.18933e-06
4.10506e-07
-5.91251e-07
7.00586e-06
5.89833e-08
-2.16755e-07
6.66142e-06
3.76293e-07
-3.62538e-07
6.56311e-06
-2.35762e-08
-2.5895e-07
3.33708e-07
2.2786e-09
8.21831e-06
3.63436e-07
-8.41668e-07
8.21166e-06
1.70217e-07
-4.28902e-07
8.21776e-06
4.07018e-07
-8.27387e-07
8.2396e-06
1.67306e-07
-3.65607e-07
8.27838e-06
3.92389e-07
-6.24309e-07
8.26043e-06
8.74578e-08
-2.75194e-07
8.27711e-06
3.46198e-07
-4.45841e-07
8.2847e-06
-2.57215e-09
-2.42254e-07
2.52242e-07
-2.81416e-07
8.66531e-06
-7.86958e-07
8.91827e-06
-4.6077e-07
9.43972e-06
-7.82595e-07
9.69564e-06
-4.58123e-07
1.01714e-05
-6.32407e-07
1.03472e-05
-4.26323e-07
1.07414e-05
-4.75437e-07
1.08646e-05
-3.92352e-07
-3.49582e-07
6.46868e-06
-1.80396e-07
1.95217e-08
7.7099e-06
3.12129e-07
-7.31517e-07
7.47885e-06
1.56402e-07
-3.42614e-07
6.94032e-06
2.76235e-07
-6.36382e-07
6.62059e-06
1.06964e-07
-1.98262e-07
6.016e-06
2.22421e-07
-3.16057e-07
5.78778e-06
-3.85524e-09
-1.11575e-07
5.25601e-06
1.31562e-07
-1.15234e-07
5.05953e-06
-6.38876e-08
-1.78972e-07
-5.09292e-08
7.88875e-06
3.81779e-07
-6.36803e-07
7.7443e-06
1.86892e-07
-3.14944e-07
7.3089e-06
4.35282e-07
-5.51028e-07
7.14798e-06
1.68553e-07
-2.66277e-07
6.74917e-06
3.88626e-07
-3.91706e-07
6.58213e-06
6.58041e-08
-1.77817e-07
6.16138e-06
3.2742e-07
-2.20948e-07
6.01173e-06
1.53809e-08
9.73347e-08
8.36002e-06
-6.01936e-07
8.44429e-06
-3.5815e-07
8.67879e-06
-5.81805e-07
8.77247e-06
-3.83253e-07
9.01509e-06
-4.86401e-07
8.96269e-06
-3.08117e-07
9.12658e-06
9.08244e-06
7.53342e-06
3.90885e-07
7.2333e-06
2.3811e-07
6.76131e-06
3.2487e-07
6.45396e-06
3.0526e-07
6.06789e-06
3.99157e-07
5.93806e-06
1.11088e-07
5.63887e-06
4.03478e-07
7.86948e-06
4.35354e-07
7.76366e-06
2.19246e-07
7.51261e-06
3.99201e-07
7.51568e-06
2.10481e-07
7.44006e-06
3.88728e-07
7.41485e-06
1.22049e-07
8.37588e-06
8.47632e-06
8.68984e-06
8.81205e-06
9.08058e-06
)
;

boundaryField
{
    inlet
    {
        type            calculated;
        value           nonuniform List<scalar> 
12
(
-8.16327e-06
-8.16327e-06
-8.16327e-06
-8.16327e-06
-8.16327e-06
-8.16327e-06
-8.16327e-06
-8.16327e-06
-8.16327e-06
-8.16327e-06
-8.16327e-06
-8.16327e-06
)
;
    }
    outlet
    {
        type            calculated;
        value           nonuniform 0();
    }
    wall
    {
        type            calculated;
        value           nonuniform List<scalar> 
66
(
0
0
0
0
0
0
0
0
0
0
0
0
0
0
0
0
0
0
0
0
0
0
0
0
0
0
0
0
0
0
0
0
0
0
0
0
0
0
0
0
0
0
0
0
0
0
0
0
0
0
0
0
0
0
0
0
0
8.07794e-28
0
0
0
0
0
0
0
0
)
;
    }
    procBoundary2to0
    {
        type            processor;
        value           nonuniform List<scalar> 
44
(
1.57721e-07
7.08584e-08
1.86851e-07
-3.63505e-08
2.20698e-07
-1.31953e-07
8.9575e-08
4.00626e-08
-9.87519e-06
4.15007e-08
-3.94308e-07
-6.53378e-07
1.04188e-07
-1.05979e-07
1.53061e-07
-1.93898e-07
-3.02638e-08
4.1926e-10
-2.97089e-08
-2.98966e-08
-7.58403e-06
-1.24751e-07
-2.62828e-07
-3.4379e-07
1.94344e-07
-7.64437e-08
-3.14887e-09
1.40539e-08
6.3091e-08
7.27513e-08
1.06982e-07
1.2689e-07
-6.48905e-06
1.52904e-07
-2.40539e-07
-1.84448e-07
-5.90358e-08
-1.57118e-07
-1.55387e-07
-8.87866e-08
-1.46423e-07
-1.02759e-08
-1.92524e-07
4.76757e-08
)
;
    }
    procBoundary2to3
    {
        type            processor;
        value           nonuniform List<scalar> 
12
(
1.19919e-05
1.0313e-05
1.18948e-05
1.38089e-05
7.4013e-06
6.24412e-06
8.323e-06
1.11496e-05
6.51867e-06
5.17299e-06
5.76366e-06
9.09959e-06
)
;
    }
    procBoundary2to6
    {
        type            processor;
        value           nonuniform List<scalar> 
32
(
-4.07399e-08
-1.71869e-07
-1.8161e-07
-3.11907e-07
-3.32833e-07
-2.69394e-07
-4.33523e-07
-1.23483e-07
-3.33878e-07
-1.07383e-07
-1.82722e-07
-8.25603e-08
-2.69894e-08
5.51609e-06
6.29963e-08
-1.66864e-07
-3.87487e-07
-1.90263e-07
-3.74307e-07
-1.74562e-07
-3.05656e-07
-1.63578e-07
7.49491e-06
3.32599e-07
-2.30127e-07
-3.79192e-07
-2.3935e-07
-3.96127e-07
-2.94981e-07
-3.66196e-07
9.16437e-06
-2.69863e-07
)
;
    }
}


// ************************************************************************* //
