/*--------------------------------*- C++ -*----------------------------------*\
| =========                 |                                                 |
| \\      /  F ield         | OpenFOAM: The Open Source CFD Toolbox           |
|  \\    /   O peration     | Version:  4.x                                   |
|   \\  /    A nd           | Web:      www.OpenFOAM.org                      |
|    \\/     M anipulation  |                                                 |
\*---------------------------------------------------------------------------*/
FoamFile
{
    version     2.0;
    format      ascii;
    class       volScalarField;
    location    "54.5";
    object      QWallFluidCoeff;
}
// * * * * * * * * * * * * * * * * * * * * * * * * * * * * * * * * * * * * * //

dimensions      [1 -1 -3 -1 0 0 0];

internalField   nonuniform List<scalar> 
114
(
-1.74319e+06
-3.12866e+06
-1.97491e+06
-3.2561e+06
-2.12665e+06
-3.35936e+06
-2.82708e+06
-1.41235e+06
-2.91832e+06
-1.60128e+06
-3.0115e+06
-1.73297e+06
-3.08505e+06
-1.7996e+06
-3.13344e+06
-2.84216e+06
-1.48951e+06
-2.97668e+06
-1.77082e+06
-3.11851e+06
-1.97351e+06
-3.23146e+06
-2.10771e+06
-3.32507e+06
-5.69885e+06
-3.20987e+06
-6.09832e+06
-3.9727e+06
-6.53295e+06
-4.59253e+06
-6.91505e+06
-5.03198e+06
-7.16811e+06
0
0
0
0
0
0
0
0
0
0
0
0
0
0
0
0
0
0
0
0
0
0
-2.81073e+06
-1.47146e+06
-2.91132e+06
-1.67287e+06
-3.02983e+06
-1.84605e+06
-3.13301e+06
-1.95931e+06
-3.22184e+06
0
0
0
0
0
0
0
0
0
0
0
0
0
0
0
0
0
0
0
0
-2.7835e+06
-1.36655e+06
-2.81308e+06
-1.44386e+06
-2.87647e+06
-1.52846e+06
-2.89561e+06
-1.5464e+06
-2.92442e+06
0
0
0
0
0
0
0
0
0
0
0
0
0
0
0
-2.76342e+06
-1.39634e+06
-2.79303e+06
-1.46956e+06
-2.86455e+06
-1.57487e+06
)
;

boundaryField
{
    inlet
    {
        type            calculated;
        value           uniform 0;
    }
    outlet
    {
        type            calculated;
        value           nonuniform 0();
    }
    wall
    {
        type            calculated;
        value           uniform 0;
    }
    procBoundary2to0
    {
        type            processor;
        value           uniform 0;
    }
    procBoundary2to3
    {
        type            processor;
        value           uniform 0;
    }
    procBoundary2to6
    {
        type            processor;
        value           uniform 0;
    }
}


// ************************************************************************* //
