/*--------------------------------*- C++ -*----------------------------------*\
| =========                 |                                                 |
| \\      /  F ield         | OpenFOAM: The Open Source CFD Toolbox           |
|  \\    /   O peration     | Version:  4.x                                   |
|   \\  /    A nd           | Web:      www.OpenFOAM.org                      |
|    \\/     M anipulation  |                                                 |
\*---------------------------------------------------------------------------*/
FoamFile
{
    version     2.0;
    format      ascii;
    class       volScalarField;
    location    "54.5";
    object      SPartFluid;
}
// * * * * * * * * * * * * * * * * * * * * * * * * * * * * * * * * * * * * * //

dimensions      [1 -3 -1 0 0 0 0];

internalField   nonuniform List<scalar> 
114
(
6.50972e-65
4.88225e-65
2.55733e-65
4.8821e-65
3.02241e-65
4.10751e-65
5.73495e-65
6.50995e-65
5.11493e-65
3.79741e-65
6.19974e-65
4.41736e-65
5.88975e-65
6.12234e-65
3.95253e-65
4.02999e-65
5.65748e-65
4.57246e-65
4.95993e-65
4.49491e-65
4.57241e-65
5.34738e-65
4.41748e-65
5.27006e-65
4.41748e-65
4.26249e-65
4.64996e-65
4.57246e-65
3.33246e-65
3.79746e-65
2.71248e-65
4.80499e-65
3.10004e-65
8.44679e-65
9.76397e-65
5.73478e-65
9.22253e-65
5.42499e-65
6.81998e-65
7.67237e-65
7.82724e-65
6.9747e-65
6.27726e-65
8.98956e-65
7.59481e-65
5.19254e-65
6.04498e-65
8.60245e-65
8.2924e-65
7.59484e-65
7.43979e-65
7.2848e-65
7.05234e-65
7.43995e-65
5.96756e-65
5.88998e-65
5.19248e-65
6.97492e-65
5.81243e-65
6.89735e-65
5.88991e-65
5.88992e-65
6.50998e-65
4.26255e-65
7.59464e-65
8.13731e-65
7.28501e-65
4.96003e-65
5.50251e-65
6.1223e-65
5.57981e-65
7.12973e-65
8.36968e-65
6.58735e-65
4.8825e-65
5.34751e-65
6.04502e-65
7.12998e-65
9.06725e-65
7.2848e-65
6.43236e-65
7.51732e-65
7.43991e-65
8.37002e-65
5.34749e-65
7.51749e-65
6.04496e-65
6.9749e-65
4.64994e-65
6.5099e-65
8.29233e-65
4.95999e-65
6.66505e-65
4.80505e-65
8.13774e-65
8.37039e-65
6.50968e-65
6.81967e-65
5.88984e-65
6.27734e-65
7.74985e-65
6.89752e-65
6.89755e-65
8.37006e-65
5.81236e-65
7.20728e-65
6.89735e-65
8.3698e-65
5.27001e-65
6.51001e-65
6.27748e-65
7.12991e-65
5.50241e-65
6.35491e-65
)
;

boundaryField
{
    inlet
    {
        type            calculated;
        value           uniform 0;
    }
    outlet
    {
        type            calculated;
        value           nonuniform 0();
    }
    wall
    {
        type            calculated;
        value           uniform 0;
    }
    procBoundary2to0
    {
        type            processor;
        value           nonuniform List<scalar> 
44
(
4.72729e-65
4.26218e-65
4.33952e-65
3.25428e-65
4.49401e-65
6.89636e-65
2.86748e-65
4.41748e-65
3.25496e-65
3.25496e-65
4.7273e-65
8.98923e-65
5.88945e-65
8.29113e-65
6.04403e-65
4.95962e-65
8.05992e-65
6.12248e-65
6.12246e-65
4.7273e-65
8.98923e-65
8.98923e-65
7.12952e-65
7.12952e-65
6.1995e-65
4.57228e-65
7.28503e-65
7.59517e-65
7.67274e-65
8.13672e-65
8.21429e-65
7.12952e-65
7.12952e-65
7.12952e-65
5.42483e-65
2.32502e-65
5.27009e-65
5.89036e-65
7.83012e-65
9.2191e-65
4.49427e-65
9.14433e-65
7.12963e-65
5.42483e-65
)
;
    }
    procBoundary2to3
    {
        type            processor;
        value           nonuniform List<scalar> 
12
(
6.97608e-65
5.19282e-65
5.5027e-65
4.65012e-65
7.51827e-65
6.66534e-65
1.03854e-64
7.75021e-65
7.67254e-65
9.06773e-65
5.1151e-65
8.52518e-65
)
;
    }
    procBoundary2to6
    {
        type            processor;
        value           nonuniform List<scalar> 
32
(
6.74248e-65
6.04496e-65
7.13e-65
5.11496e-65
5.81249e-65
4.96003e-65
1.03851e-64
7.5951e-65
4.96005e-65
7.43978e-65
9.37708e-65
6.12238e-65
7.36235e-65
6.74248e-65
6.04496e-65
6.50994e-65
5.81253e-65
7.90504e-65
6.43251e-65
8.83481e-65
7.05235e-65
7.82735e-65
6.04496e-65
5.11496e-65
7.0524e-65
4.96001e-65
7.20752e-65
5.425e-65
6.12246e-65
7.59487e-65
5.11496e-65
8.75733e-65
)
;
    }
}


// ************************************************************************* //
