/*--------------------------------*- C++ -*----------------------------------*\
| =========                 |                                                 |
| \\      /  F ield         | OpenFOAM: The Open Source CFD Toolbox           |
|  \\    /   O peration     | Version:  4.x                                   |
|   \\  /    A nd           | Web:      www.OpenFOAM.org                      |
|    \\/     M anipulation  |                                                 |
\*---------------------------------------------------------------------------*/
FoamFile
{
    version     2.0;
    format      ascii;
    class       volScalarField;
    location    "54.5";
    object      thCond;
}
// * * * * * * * * * * * * * * * * * * * * * * * * * * * * * * * * * * * * * //

dimensions      [1 1 -3 -1 0 0 0];

internalField   nonuniform List<scalar> 
114
(
192.386
192.349
192.519
192.246
192.37
192.126
192.781
192.52
192.529
192.486
192.225
192.307
192.021
192.007
192.108
192.964
192.622
192.571
192.493
192.486
192.444
192.269
192.236
192.104
193.074
192.918
192.731
192.702
192.826
192.789
192.783
192.495
192.516
191.252
191.05
191.394
191.121
192.231
191.945
191.699
191.552
191.457
191.405
191.064
191.221
191.377
192.286
191.852
191.635
191.567
191.551
191.52
191.399
191.361
191.38
192.444
192.252
191.924
191.904
191.845
191.859
191.776
191.694
191.755
190.734
190.65
191.636
191.593
191.318
191.088
191.018
190.809
190.583
190.74
190.822
191.873
191.562
191.213
190.925
191.003
190.962
190.754
190.784
190.682
192.015
191.594
191.445
191.25
191.401
191.166
190.944
191.177
190.972
191.402
190.976
190.704
190.651
190.561
190.515
190.397
190.35
191.394
191.096
190.77
190.745
190.606
190.524
190.368
191.693
191.296
191.085
190.855
190.883
190.72
)
;

boundaryField
{
    inlet
    {
        type            zeroGradient;
    }
    outlet
    {
        type            zeroGradient;
    }
    wall
    {
        type            zeroGradient;
    }
    procBoundary2to0
    {
        type            processor;
        value           nonuniform List<scalar> 
44
(
192.645
192.606
192.561
192.55
192.426
192.161
193.204
192.884
192.807
192.807
191.782
191.311
191.596
191.378
191.583
191.601
192.099
192.058
191.922
191.782
191.311
191.311
190.715
190.654
190.968
191.021
191.582
191.427
191.167
190.911
190.769
190.715
190.654
190.654
190.582
190.694
191.546
191.214
190.736
190.478
190.648
190.264
190.341
190.582
)
;
    }
    procBoundary2to3
    {
        type            processor;
        value           nonuniform List<scalar> 
12
(
191.761
191.751
191.776
192.103
191.016
191.035
190.837
191.2
190.355
190.359
190.677
190.645
)
;
    }
    procBoundary2to6
    {
        type            processor;
        value           nonuniform List<scalar> 
32
(
190.367
190.5
190.416
190.771
190.774
190.724
190.693
190.714
190.717
190.34
190.089
190.229
190.09
190.367
190.5
190.135
191.193
190.824
190.717
190.332
190.276
190.176
190.5
190.771
190.163
191.545
191.075
190.987
190.64
190.358
190.771
190.176
)
;
    }
}


// ************************************************************************* //
