/*--------------------------------*- C++ -*----------------------------------*\
| =========                 |                                                 |
| \\      /  F ield         | OpenFOAM: The Open Source CFD Toolbox           |
|  \\    /   O peration     | Version:  4.x                                   |
|   \\  /    A nd           | Web:      www.OpenFOAM.org                      |
|    \\/     M anipulation  |                                                 |
\*---------------------------------------------------------------------------*/
FoamFile
{
    version     2.0;
    format      ascii;
    class       volScalarField;
    location    "42";
    object      QPartFluidCoeff;
}
// * * * * * * * * * * * * * * * * * * * * * * * * * * * * * * * * * * * * * //

dimensions      [1 -1 -3 -1 0 0 0];

internalField   nonuniform List<scalar> 
87
(
-1.43249e+07
-2.35313e+07
-1.39944e+07
-2.18647e+07
-1.45758e+07
-1.6283e+07
-1.74923e+07
-2.19808e+07
-1.33707e+07
-1.51088e+07
-1.47721e+07
-1.94692e+07
-1.91638e+07
-1.465e+07
-2.22161e+07
-2.54615e+07
-2.23964e+07
-1.33276e+07
-1.31544e+07
-2.36564e+07
-2.07499e+07
-2.98651e+07
-2.09831e+07
-1.94132e+07
-1.92032e+07
-2.10074e+07
-1.42914e+07
-2.47584e+07
-2.19819e+07
-2.04779e+07
-2.52939e+07
-2.12396e+07
-2.62036e+07
-3.02866e+07
-2.99974e+07
-1.79884e+07
-3.00758e+07
-2.24181e+07
-2.52461e+07
-3.14391e+07
-3.071e+07
-2.57596e+07
-3.14029e+07
-3.52225e+07
-1.57004e+07
-2.64186e+07
-2.82995e+07
-2.39586e+07
-2.27054e+07
-1.93073e+07
-3.10127e+07
-3.14075e+07
-4.38614e+07
-1.4755e+07
-2.37536e+07
-2.33857e+07
-2.74559e+07
-3.2121e+07
-2.0354e+07
-3.22951e+07
-2.54574e+07
-2.49026e+07
-1.0673e+07
-2.16164e+07
-2.95569e+07
-2.16534e+07
-2.70381e+07
-2.73035e+07
-3.03059e+07
-2.54681e+07
-3.1509e+07
-1.23478e+07
-3.17091e+07
-2.62998e+07
-1.83588e+07
-3.71755e+07
-2.96189e+07
-3.56556e+07
-2.49357e+07
-3.22288e+07
-1.12275e+07
-2.15831e+07
-1.84555e+07
-2.53694e+07
-2.61944e+07
-4.06898e+07
-1.96343e+07
)
;

boundaryField
{
    inlet
    {
        type            calculated;
        value           nonuniform 0();
    }
    outlet
    {
        type            calculated;
        value           uniform 0;
    }
    wall
    {
        type            calculated;
        value           uniform 0;
    }
    procBoundary1to0
    {
        type            processor;
        value           nonuniform List<scalar> 
12
(
152.501
396.335
642.981
548.765
678.461
479.848
409.618
767.322
408.037
456.65
524.135
705.428
)
;
    }
    procBoundary1to3
    {
        type            processor;
        value           nonuniform List<scalar> 
27
(
641.477
291.374
508.652
244.568
378.673
286.862
425.237
399.649
219.633
645.867
611.484
775.28
804.625
642.211
603.231
516.789
647.851
577.729
621.158
832.258
696.771
782.594
498.422
591.402
689.818
637.323
525.676
)
;
    }
    procBoundary1to5
    {
        type            processor;
        value           nonuniform List<scalar> 
32
(
593.992
548.463
530.827
431.131
593.833
440.011
548.595
532.485
444.457
622.696
639.696
763.42
492.551
752.292
464.42
658.806
444.673
401.696
563.324
472.042
502.742
502.413
430.731
593.992
548.595
571.986
613.136
548.595
752.292
622.962
752.292
643.769
)
;
    }
    procBoundary1to7
    {
        type            processor;
        value           uniform 756.322;
    }
}


// ************************************************************************* //
