/*--------------------------------*- C++ -*----------------------------------*\
| =========                 |                                                 |
| \\      /  F ield         | OpenFOAM: The Open Source CFD Toolbox           |
|  \\    /   O peration     | Version:  4.x                                   |
|   \\  /    A nd           | Web:      www.OpenFOAM.org                      |
|    \\/     M anipulation  |                                                 |
\*---------------------------------------------------------------------------*/
FoamFile
{
    version     2.0;
    format      ascii;
    class       volVectorField;
    location    "7.5";
    object      ddtUrel;
}
// * * * * * * * * * * * * * * * * * * * * * * * * * * * * * * * * * * * * * //

dimensions      [0 1 -2 0 0 0 0];

internalField   nonuniform List<vector> 
108
(
(8.44388e-06 9.26442e-07 -2.45898e-06)
(4.82976e-06 3.76353e-07 -2.52411e-06)
(1.12621e-06 1.18746e-07 -2.36721e-06)
(-4.11179e-06 -1.09535e-07 -1.94886e-06)
(-1.29354e-05 -1.2344e-07 -1.99842e-06)
(-2.85658e-05 1.79491e-07 -2.17137e-06)
(-5.67118e-05 4.79789e-07 -2.0854e-06)
(-6.97693e-05 9.18652e-07 -1.8297e-06)
(-5.55607e-05 8.32058e-07 -2.33921e-06)
(7.52831e-06 5.84869e-07 -2.75385e-06)
(4.4529e-06 6.84642e-07 -2.72488e-06)
(1.13313e-06 5.01796e-07 -2.44799e-06)
(-5.00348e-06 -2.18763e-08 -2.09729e-06)
(-1.34651e-05 -5.09248e-08 -2.1241e-06)
(-2.74246e-05 3.97161e-08 -2.15889e-06)
(-5.58475e-05 -1.27921e-07 -2.19363e-06)
(-7.01436e-05 1.97359e-07 -1.61304e-06)
(-5.79561e-05 7.97901e-07 -1.60537e-06)
(4.81485e-06 7.39266e-07 -3.19349e-06)
(1.98363e-06 9.89664e-07 -3.28517e-06)
(-4.38267e-07 9.59028e-07 -3.19912e-06)
(-6.69677e-06 4.50865e-07 -2.34833e-06)
(-1.33866e-05 3.25411e-07 -2.25022e-06)
(-2.54302e-05 1.3992e-07 -2.26041e-06)
(-5.25479e-05 -6.294e-07 -2.20847e-06)
(-7.08525e-05 -1.04552e-06 -2.53023e-06)
(-5.78177e-05 -1.94203e-07 -2.93102e-06)
(4.17268e-07 8.98553e-07 -3.97338e-06)
(-2.07451e-06 1.04344e-06 -3.9808e-06)
(-1.99538e-06 8.02132e-07 -2.92372e-06)
(-8.5554e-06 6.20814e-07 -2.67032e-06)
(-1.27862e-05 4.93486e-07 -2.91371e-06)
(-2.44726e-05 6.20864e-07 -2.6493e-06)
(-4.48614e-05 -6.03186e-07 -1.81215e-06)
(-6.134e-05 -2.26202e-06 -2.11848e-06)
(-5.47459e-05 -1.54315e-06 -2.49476e-06)
(6.14801e-06 4.01897e-07 -2.65214e-06)
(3.53694e-06 1.35145e-07 -2.62648e-06)
(-2.5009e-07 4.89866e-08 -2.46028e-06)
(-6.26022e-06 3.19791e-09 -2.3359e-06)
(-1.57702e-05 1.21007e-08 -2.4635e-06)
(-3.11698e-05 1.50548e-07 -2.67868e-06)
(-6.0664e-05 3.85828e-07 -2.41904e-06)
(-7.29741e-05 7.7547e-07 -2.14355e-06)
(-5.87484e-05 9.90869e-07 -3.16746e-06)
(5.62303e-06 5.0748e-07 -2.88852e-06)
(3.00351e-06 4.39653e-07 -2.84919e-06)
(-5.30591e-07 2.94458e-07 -2.55966e-06)
(-6.3597e-06 1.59553e-07 -2.395e-06)
(-1.55528e-05 9.70679e-08 -2.44925e-06)
(-3.03422e-05 9.62393e-08 -2.6193e-06)
(-5.97464e-05 -8.3653e-08 -2.44456e-06)
(-7.267e-05 -1.87992e-07 -1.87905e-06)
(-5.88906e-05 -1.06859e-08 -2.76037e-06)
(4.50685e-06 7.16165e-07 -3.33567e-06)
(2.14834e-06 8.26267e-07 -3.12272e-06)
(-1.04264e-06 6.47836e-07 -2.67696e-06)
(-6.39217e-06 4.11525e-07 -2.46032e-06)
(-1.49236e-05 2.42233e-07 -2.42894e-06)
(-2.93124e-05 2.27335e-07 -2.64921e-06)
(-5.75426e-05 -4.96408e-07 -2.41401e-06)
(-7.09412e-05 -1.25691e-06 -2.22428e-06)
(-5.80537e-05 -7.30881e-07 -2.90542e-06)
(3.17503e-06 8.03226e-07 -3.75039e-06)
(8.64579e-07 1.02597e-06 -3.33118e-06)
(-8.706e-07 9.19679e-07 -2.68993e-06)
(-5.62005e-06 5.52573e-07 -2.51792e-06)
(-1.41825e-05 3.65307e-07 -2.62119e-06)
(-2.78915e-05 3.14355e-07 -2.60816e-06)
(-5.17421e-05 -4.2351e-07 -2.29784e-06)
(-6.40385e-05 -1.18473e-06 -2.30388e-06)
(-5.58118e-05 -1.05479e-06 -2.79571e-06)
(4.96076e-06 1.36634e-07 -3.18987e-06)
(2.80134e-06 9.9618e-08 -3.09962e-06)
(-1.04895e-06 2.49476e-07 -3.02147e-06)
(-7.56705e-06 1.23268e-07 -3.11844e-06)
(-1.71853e-05 6.48934e-09 -3.16301e-06)
(-3.26045e-05 7.41249e-08 -3.17746e-06)
(-6.29093e-05 8.36182e-08 -3.2416e-06)
(-7.52524e-05 2.68625e-07 -2.79529e-06)
(-6.13413e-05 3.84822e-07 -2.88755e-06)
(4.82908e-06 4.2191e-07 -3.29996e-06)
(2.35891e-06 3.88811e-07 -3.23451e-06)
(-1.32902e-06 3.93148e-07 -3.17684e-06)
(-7.27727e-06 2.74886e-07 -3.18959e-06)
(-1.67373e-05 8.62709e-08 -3.10079e-06)
(-3.22736e-05 6.76999e-08 -3.08601e-06)
(-6.27657e-05 -1.74151e-07 -3.14838e-06)
(-7.60852e-05 -3.27773e-07 -2.52641e-06)
(-6.13445e-05 -2.077e-07 -2.56416e-06)
(4.12544e-06 7.26225e-07 -3.48593e-06)
(1.99746e-06 8.86142e-07 -3.34293e-06)
(-1.23794e-06 6.60198e-07 -3.22207e-06)
(-6.7178e-06 5.5502e-07 -3.1357e-06)
(-1.58398e-05 2.64222e-07 -2.95938e-06)
(-3.08812e-05 1.58002e-07 -3.01767e-06)
(-5.99578e-05 -3.72495e-07 -3.10035e-06)
(-7.30093e-05 -8.2167e-07 -2.59096e-06)
(-5.87046e-05 -4.87793e-07 -2.56907e-06)
(2.86226e-06 8.62798e-07 -3.41417e-06)
(1.68275e-06 1.11062e-06 -3.41805e-06)
(-8.45128e-07 8.69831e-07 -3.22409e-06)
(-6.1898e-06 6.13921e-07 -2.96398e-06)
(-1.44307e-05 4.65679e-07 -2.82757e-06)
(-2.92044e-05 1.62604e-07 -2.92301e-06)
(-5.38389e-05 -3.45604e-07 -2.87252e-06)
(-6.69323e-05 -6.31182e-07 -2.39201e-06)
(-5.61435e-05 -5.58516e-07 -2.41386e-06)
)
;

boundaryField
{
    inlet
    {
        type            calculated;
        value           nonuniform 0();
    }
    outlet
    {
        type            calculated;
        value           nonuniform List<vector> 
12
(
(1.68402e-05 -3.68266e-06 -3.30781e-06)
(1.15012e-06 5.8116e-06 3.98127e-06)
(-3.39233e-07 3.71287e-06 -1.03887e-05)
(-4.11409e-06 -5.96723e-06 -9.47944e-07)
(-3.68574e-07 4.4971e-06 -1.32282e-05)
(-1.11517e-06 -2.40777e-06 -1.05661e-05)
(-3.61054e-06 -3.83943e-06 -8.41974e-06)
(-1.06746e-05 -1.76455e-06 -4.71277e-06)
(-3.64451e-06 -6.79064e-07 -6.17885e-06)
(-2.87641e-06 -1.17291e-06 -4.42529e-06)
(-9.10089e-07 -5.57575e-07 -3.64207e-06)
(-5.40419e-06 5.51333e-07 -1.86668e-06)
)
;
    }
    wall
    {
        type            calculated;
        value           nonuniform List<vector> 
63
(
(2.84781e-05 9.69103e-06 -7.49859e-06)
(3.99737e-05 -2.44845e-06 -2.81573e-06)
(3.06263e-05 -9.28523e-07 -1.62065e-07)
(-5.78036e-05 -4.28644e-08 -5.49223e-06)
(1.55825e-05 -1.5997e-08 -2.78722e-06)
(2.72727e-05 2.40536e-06 -2.6521e-06)
(4.28342e-06 5.45424e-06 -4.29642e-06)
(-0.000107148 5.68694e-06 -1.45316e-05)
(1.82258e-05 -9.34541e-07 -3.02104e-06)
(3.15012e-05 5.1542e-06 -4.49876e-07)
(1.77732e-05 7.86503e-06 -1.30372e-05)
(-3.63813e-06 1.91082e-07 -1.22861e-06)
(3.69601e-05 -1.71182e-06 2.02493e-06)
(1.57217e-05 -4.05521e-06 1.05955e-06)
(-5.84362e-06 -4.05463e-08 1.67141e-06)
(-9.5401e-05 5.20808e-07 -1.82401e-06)
(5.68516e-05 -1.94732e-06 1.48348e-06)
(2.15908e-05 -2.20683e-06 -6.93628e-07)
(2.50579e-05 7.3284e-07 9.14485e-07)
(2.17091e-05 4.27966e-07 -8.42418e-06)
(2.78318e-05 -2.41049e-07 -1.22475e-06)
(4.053e-05 -1.34399e-06 2.0505e-07)
(5.85478e-05 -1.9533e-06 5.61727e-07)
(3.82429e-06 9.06174e-06 -7.12827e-06)
(-8.41694e-05 2.35709e-06 -1.39091e-06)
(-9.14943e-05 -2.04964e-06 -3.98199e-06)
(-6.0087e-05 -5.35997e-06 -8.60162e-07)
(3.61636e-05 -6.53591e-06 1.52998e-05)
(-0.000165039 -9.46528e-07 1.13522e-05)
(-0.000163463 9.74453e-06 7.42076e-06)
(-0.000214577 5.50395e-07 -7.62103e-06)
(-0.000103517 -2.93367e-05 -1.06427e-06)
(1.2602e-05 -9.02407e-06 8.73598e-06)
(-3.99234e-05 2.68684e-05 2.62167e-05)
(-2.2463e-05 6.20081e-06 -8.4638e-06)
(-1.93479e-06 -6.44534e-06 -1.77617e-06)
(-7.475e-06 2.6075e-06 -8.22801e-06)
(1.07545e-05 3.12577e-08 -4.85435e-06)
(-1.11796e-05 8.77464e-07 9.27021e-07)
(-2.41914e-05 2.63049e-06 -1.10707e-05)
(1.11095e-06 2.5747e-06 -1.9596e-06)
(-5.61358e-06 4.36937e-06 -2.89398e-06)
(5.3725e-06 -5.27117e-07 -6.15949e-07)
(1.69151e-05 3.25431e-06 1.50108e-06)
(5.01842e-06 2.79358e-06 -3.46053e-06)
(2.24808e-05 3.72351e-07 -2.88767e-06)
(3.4606e-05 -5.97099e-07 7.4475e-07)
(8.16088e-06 8.70454e-07 -1.06574e-06)
(4.75361e-05 -6.51075e-09 -5.97274e-06)
(7.61749e-06 -5.6539e-07 -1.8423e-06)
(2.18156e-05 2.69333e-06 2.32313e-07)
(1.00252e-05 9.07146e-06 -7.72607e-06)
(-1.43928e-06 2.88304e-06 -2.98465e-06)
(3.5486e-06 1.49098e-06 -2.15938e-06)
(-1.08971e-05 3.73794e-06 1.21597e-06)
(-8.5653e-05 3.73467e-07 -8.23285e-07)
(-6.93731e-05 -7.64507e-07 -3.70508e-06)
(-0.000108004 -2.57932e-05 1.44193e-06)
(-0.000106845 -3.19653e-06 -1.45061e-06)
(-0.000155489 -3.02983e-07 -1.80273e-07)
(-3.75651e-05 -1.00713e-05 1.46864e-05)
(-3.05456e-05 -2.63111e-06 -7.58018e-06)
(-2.29152e-05 2.9495e-07 -1.08253e-06)
)
;
    }
    procBoundary3to1
    {
        type            processor;
        value           nonuniform List<vector> 
27
(
(7.82115e-06 2.54827e-07 -2.44598e-06)
(4.73588e-06 1.60691e-07 -2.38384e-06)
(1.06888e-06 -9.15234e-08 -2.19447e-06)
(-5.01057e-06 -1.70664e-07 -1.86887e-06)
(-1.57922e-05 -4.07339e-08 -2.06137e-06)
(-2.89934e-05 1.42421e-07 -1.89836e-06)
(-5.54893e-05 4.89277e-07 -1.99127e-06)
(-6.96314e-05 1.46126e-06 -1.80312e-06)
(-5.54733e-05 2.16248e-06 -2.80742e-06)
(6.23083e-06 1.46007e-07 -2.50839e-06)
(3.68411e-06 4.19005e-08 -2.54003e-06)
(1.11743e-07 -8.25633e-08 -2.42422e-06)
(-6.50298e-06 -1.29764e-07 -2.22682e-06)
(-1.65968e-05 1.65197e-08 -2.32632e-06)
(-3.13957e-05 2.08831e-07 -2.38828e-06)
(-6.02774e-05 5.90478e-07 -2.32654e-06)
(-7.43772e-05 1.21266e-06 -2.08069e-06)
(-6.11679e-05 1.49391e-06 -3.06254e-06)
(5.23179e-06 -2.91187e-08 -2.99162e-06)
(3.42767e-06 -1.65054e-08 -2.98437e-06)
(-7.62246e-07 -2.67121e-08 -2.95575e-06)
(-7.76838e-06 -7.19924e-08 -2.92197e-06)
(-1.73791e-05 -2.28846e-08 -2.94346e-06)
(-3.26946e-05 6.18953e-08 -3.0263e-06)
(-6.2484e-05 4.30475e-07 -3.09276e-06)
(-7.5608e-05 8.0484e-07 -2.64397e-06)
(-6.20255e-05 7.17472e-07 -2.75439e-06)
)
;
    }
    procBoundary3to2
    {
        type            processor;
        value           nonuniform List<vector> 
12
(
(9.79388e-06 2.00834e-07 -2.45803e-06)
(9.14055e-06 2.16654e-07 -2.62365e-06)
(6.23489e-06 3.23426e-07 -3.04854e-06)
(4.81003e-07 5.24046e-07 -3.77072e-06)
(7.57208e-06 2.27084e-07 -2.72856e-06)
(7.25407e-06 3.71584e-07 -2.91127e-06)
(5.95117e-06 4.83686e-07 -3.40323e-06)
(4.06952e-06 7.4688e-07 -4.41143e-06)
(6.72817e-06 1.33527e-07 -3.3278e-06)
(6.46683e-06 3.42457e-07 -3.45314e-06)
(5.69905e-06 4.12561e-07 -3.72857e-06)
(4.25119e-06 4.96889e-07 -4.00152e-06)
)
;
    }
    procBoundary3to7
    {
        type            processor;
        value           nonuniform List<vector> 
36
(
(4.78498e-06 1.74389e-07 -3.77294e-06)
(2.5198e-06 1.62381e-07 -3.69782e-06)
(-1.4821e-06 2.02838e-07 -3.61932e-06)
(-8.04112e-06 1.30605e-07 -3.66522e-06)
(-1.77536e-05 7.76465e-08 -3.65245e-06)
(-3.34781e-05 6.0482e-08 -3.71284e-06)
(-6.35988e-05 3.43065e-08 -3.80466e-06)
(-7.66927e-05 1.97805e-07 -3.1384e-06)
(-6.20989e-05 1.84365e-07 -2.70219e-06)
(4.7176e-06 5.13372e-07 -3.84931e-06)
(2.38481e-06 4.0446e-07 -3.73869e-06)
(-1.43071e-06 3.27792e-07 -3.73566e-06)
(-7.59666e-06 2.72975e-07 -3.73145e-06)
(-1.72417e-05 1.76725e-07 -3.57274e-06)
(-3.29129e-05 -1.8141e-08 -3.55512e-06)
(-6.2873e-05 -2.42444e-07 -3.55184e-06)
(-7.70179e-05 -2.93873e-07 -2.94971e-06)
(-6.27505e-05 -1.95757e-07 -2.58923e-06)
(4.56953e-06 8.60763e-07 -3.96921e-06)
(2.5675e-06 6.92483e-07 -3.90083e-06)
(-1.00339e-06 5.33106e-07 -3.75247e-06)
(-6.79317e-06 3.91731e-07 -3.57352e-06)
(-1.62681e-05 2.29284e-07 -3.43167e-06)
(-3.15001e-05 -3.64725e-08 -3.47119e-06)
(-5.99048e-05 -4.43654e-07 -3.55848e-06)
(-7.21413e-05 -6.93594e-07 -3.00181e-06)
(-5.86173e-05 -3.64388e-07 -2.5118e-06)
(4.98153e-06 1.03475e-06 -3.80757e-06)
(3.43819e-06 8.90312e-07 -3.84384e-06)
(-8.19074e-07 6.71726e-07 -3.6391e-06)
(-6.10465e-06 4.70816e-07 -3.43601e-06)
(-1.51795e-05 2.68757e-07 -3.35822e-06)
(-2.97072e-05 -5.08802e-08 -3.31913e-06)
(-5.48314e-05 -3.47194e-07 -3.23017e-06)
(-6.56827e-05 -3.91227e-07 -2.6503e-06)
(-5.50588e-05 -1.67455e-07 -2.33634e-06)
)
;
    }
}


// ************************************************************************* //
