/*--------------------------------*- C++ -*----------------------------------*\
| =========                 |                                                 |
| \\      /  F ield         | OpenFOAM: The Open Source CFD Toolbox           |
|  \\    /   O peration     | Version:  4.x                                   |
|   \\  /    A nd           | Web:      www.OpenFOAM.org                      |
|    \\/     M anipulation  |                                                 |
\*---------------------------------------------------------------------------*/
FoamFile
{
    version     2.0;
    format      ascii;
    class       volScalarField;
    location    "7.5";
    object      nu;
}
// * * * * * * * * * * * * * * * * * * * * * * * * * * * * * * * * * * * * * //

dimensions      [0 2 -1 0 0 0 0];

internalField   nonuniform List<scalar> 
108
(
1.00064e-06
1.00024e-06
9.99891e-07
9.99635e-07
9.9948e-07
9.99406e-07
9.99398e-07
9.99423e-07
9.97498e-07
1.00088e-06
1.0005e-06
1.00013e-06
9.99836e-07
9.99608e-07
9.99448e-07
9.99355e-07
9.99314e-07
9.95176e-07
1.00112e-06
1.00075e-06
1.00037e-06
1.00003e-06
9.99754e-07
9.99545e-07
9.99399e-07
9.99328e-07
9.96722e-07
1.0015e-06
1.00141e-06
1.00124e-06
1.00101e-06
1.00074e-06
1.0005e-06
1.00025e-06
1.0001e-06
9.73019e-07
1.00026e-06
9.99982e-07
9.99736e-07
9.99535e-07
9.99407e-07
9.99336e-07
9.9933e-07
9.99368e-07
9.98996e-07
1.00034e-06
1.00009e-06
9.99843e-07
9.99634e-07
9.99461e-07
9.99342e-07
9.9929e-07
9.9929e-07
9.98693e-07
1.0005e-06
1.00021e-06
9.99916e-07
9.99657e-07
9.99453e-07
9.99369e-07
9.99313e-07
9.9937e-07
9.98059e-07
1.00114e-06
1.00108e-06
1.00095e-06
1.00078e-06
1.00054e-06
1.00034e-06
1.00012e-06
9.99997e-07
9.94827e-07
1.00015e-06
9.99983e-07
9.99838e-07
9.99675e-07
9.9954e-07
9.9944e-07
9.99423e-07
9.99458e-07
9.99567e-07
1.00013e-06
9.9996e-07
9.998e-07
9.99648e-07
9.99518e-07
9.99415e-07
9.99369e-07
9.99351e-07
9.99153e-07
1.0002e-06
9.99981e-07
9.99767e-07
9.99637e-07
9.99514e-07
9.99476e-07
9.99406e-07
9.99435e-07
9.98408e-07
1.0008e-06
1.00078e-06
1.0007e-06
1.0006e-06
1.00046e-06
1.00034e-06
1.00018e-06
1.00008e-06
9.96248e-07
)
;

boundaryField
{
    inlet
    {
        type            calculated;
        value           nonuniform 0();
    }
    outlet
    {
        type            calculated;
        value           uniform 1e-06;
    }
    wall
    {
        type            calculated;
        value           nonuniform List<scalar> 
63
(
1.00064e-06
1.00088e-06
1.00112e-06
1.0015e-06
1.00024e-06
1.0005e-06
1.00075e-06
1.00141e-06
9.99891e-07
1.00013e-06
1.00037e-06
1.00124e-06
9.99635e-07
9.99836e-07
1.00003e-06
1.00101e-06
9.9948e-07
9.99608e-07
9.99754e-07
1.00074e-06
9.99406e-07
9.99448e-07
9.99545e-07
1.0005e-06
9.99398e-07
9.99355e-07
9.99399e-07
1.00025e-06
9.99423e-07
9.99314e-07
9.99328e-07
1.0001e-06
9.97498e-07
9.95176e-07
9.96722e-07
9.73019e-07
1.0015e-06
1.00114e-06
1.0008e-06
1.00141e-06
1.00108e-06
1.00078e-06
1.00124e-06
1.00095e-06
1.0007e-06
1.00101e-06
1.00078e-06
1.0006e-06
1.00074e-06
1.00054e-06
1.00046e-06
1.0005e-06
1.00034e-06
1.00034e-06
1.00025e-06
1.00012e-06
1.00018e-06
1.0001e-06
9.99997e-07
1.00008e-06
9.73019e-07
9.94827e-07
9.96248e-07
)
;
    }
    procBoundary3to1
    {
        type            processor;
        value           nonuniform List<scalar> 
27
(
1.00078e-06
1.00035e-06
9.99965e-07
9.9967e-07
9.99484e-07
9.99414e-07
9.99449e-07
9.9954e-07
9.99419e-07
1.00019e-06
9.99897e-07
9.99649e-07
9.99461e-07
9.99348e-07
9.99305e-07
9.99324e-07
9.99398e-07
9.99089e-07
1.00003e-06
9.99822e-07
9.99622e-07
9.99468e-07
9.99369e-07
9.99337e-07
9.99354e-07
9.99409e-07
9.99043e-07
)
;
    }
    procBoundary3to2
    {
        type            processor;
        value           nonuniform List<scalar> 
12
(
1.00103e-06
1.00121e-06
1.00139e-06
1.00146e-06
1.00054e-06
1.00061e-06
1.00076e-06
1.00111e-06
1.00031e-06
1.0003e-06
1.0004e-06
1.00078e-06
)
;
    }
    procBoundary3to7
    {
        type            processor;
        value           nonuniform List<scalar> 
36
(
1.0001e-06
9.99957e-07
9.99835e-07
9.99708e-07
9.99605e-07
9.9956e-07
9.99637e-07
9.99782e-07
9.99919e-07
1.00002e-06
9.99889e-07
9.99775e-07
9.99664e-07
9.99567e-07
9.99496e-07
9.99502e-07
9.9951e-07
9.99576e-07
1.00007e-06
9.99922e-07
9.99773e-07
9.99667e-07
9.99554e-07
9.99532e-07
9.99496e-07
9.99532e-07
9.99453e-07
1.00051e-06
1.00052e-06
1.00048e-06
1.00042e-06
1.00032e-06
1.00025e-06
1.00011e-06
1.00005e-06
9.98535e-07
)
;
    }
}


// ************************************************************************* //
