/*--------------------------------*- C++ -*----------------------------------*\
| =========                 |                                                 |
| \\      /  F ield         | OpenFOAM: The Open Source CFD Toolbox           |
|  \\    /   O peration     | Version:  4.x                                   |
|   \\  /    A nd           | Web:      www.OpenFOAM.org                      |
|    \\/     M anipulation  |                                                 |
\*---------------------------------------------------------------------------*/
FoamFile
{
    version     2.0;
    format      ascii;
    class       volScalarField;
    location    "7.5";
    object      p;
}
// * * * * * * * * * * * * * * * * * * * * * * * * * * * * * * * * * * * * * //

dimensions      [1 -1 -2 0 0 0 0];

internalField   nonuniform List<scalar> 
108
(
5654.75
5704.54
5637.08
5698.23
5618.63
5692.42
5598.78
5688.2
5575.87
5654.48
5704.61
5636.22
5698.74
5617.45
5693.6
5597.34
5689.9
5574.22
5654.34
5704.51
5635.98
5698.4
5617.2
5693.27
5598.14
5689.8
5580.62
5653.67
5703.71
5635.19
5697.89
5615.66
5693.21
5594.82
5690.93
5572.67
3777.65
3826.83
3759.6
3819.98
3741.06
3813.88
3722.56
3808.05
3705.81
3777.59
3827.11
3759.03
3820.77
3739.98
3815.11
3720.58
3810.59
3701.7
3777.53
3827.14
3758.59
3820.48
3738.9
3814.46
3718.5
3810.01
3697.76
3777.26
3826.88
3758.27
3820.75
3737.67
3815.64
3714.44
3813.44
3684.86
1901.59
1949.2
1883.59
1941.61
1865.39
1934.9
1847.22
1927.31
1822.97
1901.15
1949.56
1882.76
1942.54
1864.18
1936.18
1844.78
1930.81
1826.52
1900.93
1949.5
1882.2
1942.01
1862.91
1935.45
1841.91
1930.97
1818.52
1900.82
1949.51
1882.28
1942.79
1862.33
1937.11
1839.52
1934.31
1808.99
)
;

boundaryField
{
    inlet
    {
        type            calculated;
        value           nonuniform 0();
    }
    outlet
    {
        type            calculated;
        value           nonuniform List<scalar> 
12
(
5633.74
5633.74
5633.74
5633.74
3755.83
3755.83
3755.83
3755.83
1877.91
1877.91
1877.91
1877.91
)
;
    }
    wall
    {
        type            calculated;
        value           nonuniform List<scalar> 
63
(
6593.1
6592.61
6592.25
6591.22
6643.28
6643.1
6642.76
6641.34
6576.14
6575.05
6574.59
6572.98
6637.53
6637.85
6637.32
6635.9
6558.08
6556.77
6556.39
6553.93
6631.94
6633.08
6632.66
6631.7
6538.31
6536.9
6537.66
6533.55
6627.7
6629.51
6629.39
6629.79
6517.18
6517.73
6522.67
6537.66
5653.67
3777.26
1900.82
5703.71
3826.88
1949.51
5635.19
3758.27
1882.28
5697.89
3820.75
1942.79
5615.66
3737.67
1862.33
5693.21
3815.64
1937.11
5594.82
3714.44
1839.52
5690.93
3813.44
1934.31
5572.67
3684.86
1808.99
)
;
    }
    procBoundary3to1
    {
        type            processor;
        value           nonuniform List<scalar> 
27
(
5654.32
5705
5636.82
5699.15
5618.51
5693.45
5600.26
5688.12
5584.07
3777.39
3827.15
3759.29
3820.89
3740.74
3815.66
3722.33
3810.23
3704.6
1901.25
1949.61
1883.54
1942.77
1865.44
1936.4
1847.57
1930.34
1833.08
)
;
    }
    procBoundary3to2
    {
        type            processor;
        value           nonuniform List<scalar> 
12
(
5711.13
5711.05
5711.15
5710.31
3833.82
3834.03
3834.37
3833.75
1956.9
1956.92
1957.18
1956.71
)
;
    }
    procBoundary3to7
    {
        type            processor;
        value           nonuniform List<scalar> 
36
(
23.9111
71.1958
5.82067
63.6419
-11.8735
56.6866
-28.7511
51.6262
-35.9517
23.0266
71.485
4.00868
64.2962
-15.1449
58.0334
-34.5803
53.8946
-53.5583
23.0873
71.3444
4.15452
63.7594
-15.2609
56.8904
-35.2883
52.0673
-53.3713
23.2467
71.6691
4.05434
64.7578
-16.5489
59.0791
-40.6151
57.0556
-72.8174
)
;
    }
}


// ************************************************************************* //
