/*--------------------------------*- C++ -*----------------------------------*\
| =========                 |                                                 |
| \\      /  F ield         | OpenFOAM: The Open Source CFD Toolbox           |
|  \\    /   O peration     | Version:  4.x                                   |
|   \\  /    A nd           | Web:      www.OpenFOAM.org                      |
|    \\/     M anipulation  |                                                 |
\*---------------------------------------------------------------------------*/
FoamFile
{
    version     2.0;
    format      ascii;
    class       volScalarField;
    location    "7.5";
    object      rho;
}
// * * * * * * * * * * * * * * * * * * * * * * * * * * * * * * * * * * * * * //

dimensions      [1 -3 0 0 0 0 0];

internalField   nonuniform List<scalar> 
108
(
6695.69
6698.39
6700.73
6702.45
6703.49
6703.98
6704.04
6703.87
6716.8
6694.13
6696.66
6699.13
6701.1
6702.63
6703.7
6704.32
6704.6
6732.48
6692.5
6695
6697.53
6699.77
6701.65
6703.05
6704.03
6704.51
6722.04
6689.96
6690.55
6691.68
6693.23
6695.04
6696.64
6698.32
6699.32
6885.79
6698.28
6700.12
6701.77
6703.11
6703.98
6704.45
6704.49
6704.24
6706.73
6697.69
6699.39
6701.05
6702.45
6703.61
6704.41
6704.76
6704.76
6708.77
6696.68
6698.63
6700.56
6702.3
6703.67
6704.23
6704.61
6704.22
6713.03
6692.4
6692.74
6693.63
6694.79
6696.42
6697.73
6699.22
6700.02
6734.84
6699
6700.11
6701.09
6702.18
6703.08
6703.76
6703.87
6703.63
6702.9
6699.13
6700.27
6701.34
6702.36
6703.23
6703.92
6704.23
6704.35
6705.68
6698.68
6700.13
6701.56
6702.43
6703.26
6703.51
6703.99
6703.79
6710.68
6694.63
6694.76
6695.31
6695.99
6696.92
6697.73
6698.83
6699.48
6725.23
)
;

boundaryField
{
    inlet
    {
        type            calculated;
        value           nonuniform 0();
    }
    outlet
    {
        type            calculated;
        value           uniform 6700;
    }
    wall
    {
        type            calculated;
        value           nonuniform List<scalar> 
63
(
6695.69
6694.13
6692.5
6689.96
6698.39
6696.66
6695
6690.55
6700.73
6699.13
6697.53
6691.68
6702.45
6701.1
6699.77
6693.23
6703.49
6702.63
6701.65
6695.04
6703.98
6703.7
6703.05
6696.64
6704.04
6704.32
6704.03
6698.32
6703.87
6704.6
6704.51
6699.32
6716.8
6732.48
6722.04
6885.79
6689.96
6692.4
6694.63
6690.55
6692.74
6694.76
6691.68
6693.63
6695.31
6693.23
6694.79
6695.99
6695.04
6696.42
6696.92
6696.64
6697.73
6697.73
6698.32
6699.22
6698.83
6699.32
6700.02
6699.48
6885.79
6734.84
6725.23
)
;
    }
    procBoundary3to1
    {
        type            processor;
        value           nonuniform List<scalar> 
27
(
6694.75
6697.63
6700.23
6702.21
6703.46
6703.93
6703.69
6703.09
6703.89
6698.74
6700.69
6702.35
6703.61
6704.37
6704.66
6704.53
6704.04
6706.11
6699.79
6701.19
6702.53
6703.57
6704.23
6704.44
6704.33
6703.96
6706.42
)
;
    }
    procBoundary3to2
    {
        type            processor;
        value           nonuniform List<scalar> 
12
(
6693.11
6691.88
6690.73
6690.21
6696.39
6695.93
6694.89
6692.54
6697.89
6697.98
6697.35
6694.78
)
;
    }
    procBoundary3to7
    {
        type            processor;
        value           nonuniform List<scalar> 
36
(
6699.35
6700.29
6701.11
6701.96
6702.65
6702.95
6702.43
6701.46
6700.54
6699.88
6700.74
6701.51
6702.25
6702.9
6703.38
6703.34
6703.28
6702.84
6699.56
6700.52
6701.52
6702.23
6702.99
6703.14
6703.38
6703.14
6703.66
6696.58
6696.53
6696.8
6697.16
6697.83
6698.32
6699.28
6699.66
6709.83
)
;
    }
}


// ************************************************************************* //
