/*--------------------------------*- C++ -*----------------------------------*\
| =========                 |                                                 |
| \\      /  F ield         | OpenFOAM: The Open Source CFD Toolbox           |
|  \\    /   O peration     | Version:  4.x                                   |
|   \\  /    A nd           | Web:      www.OpenFOAM.org                      |
|    \\/     M anipulation  |                                                 |
\*---------------------------------------------------------------------------*/
FoamFile
{
    version     2.0;
    format      ascii;
    class       volVectorField;
    location    "7.5";
    object      UsNext;
}
// * * * * * * * * * * * * * * * * * * * * * * * * * * * * * * * * * * * * * //

dimensions      [0 1 -1 0 0 0 0];

internalField   nonuniform List<vector> 
108
(
(-7.63213e-07 -8.15977e-08 3.02603e-08)
(-8.51378e-07 -2.64129e-08 3.93168e-08)
(-9.4531e-07 2.66579e-08 2.00675e-08)
(-9.61381e-07 -1.05778e-08 2.75524e-08)
(-8.66078e-07 -1.70698e-08 4.13946e-08)
(-6.10492e-07 -4.37582e-09 2.46591e-08)
(-4.35701e-07 -1.06103e-08 1.57175e-07)
(-5.34702e-07 -2.54862e-07 1.98432e-07)
(2.61053e-06 -6.89203e-08 1.37451e-07)
(-7.12713e-07 -8.81348e-08 8.34474e-09)
(-7.90519e-07 -8.23458e-08 1.36393e-08)
(-8.17905e-07 -6.08063e-08 1.7489e-08)
(-9.02186e-07 -6.34642e-08 5.76452e-08)
(-7.36793e-07 -3.9062e-08 3.54105e-08)
(-6.15976e-07 8.05721e-10 -2.11764e-08)
(-4.45356e-07 -9.67733e-09 9.70272e-08)
(-2.6522e-07 -1.30671e-07 2.54839e-07)
(4.60716e-06 1.51854e-07 3.56537e-07)
(-6.14093e-07 -3.87088e-07 4.14193e-08)
(-6.43611e-07 -6.34579e-08 4.44937e-08)
(-7.29499e-07 -7.59362e-08 3.32483e-08)
(-7.45093e-07 -8.5548e-08 5.30526e-08)
(-7.28224e-07 -2.07976e-09 8.78945e-08)
(-5.15736e-07 -2.12919e-08 -6.23862e-08)
(-4.63052e-07 -2.40527e-08 1.59229e-08)
(-2.41072e-07 -1.17664e-07 1.29348e-07)
(7.75324e-09 -2.76272e-07 1.59416e-07)
(-2.98852e-07 -6.79067e-08 5.57858e-08)
(-4.18091e-07 -9.99402e-08 5.29767e-08)
(-3.98963e-07 -1.46158e-07 5.01256e-08)
(-4.95039e-07 -5.32715e-08 7.72547e-09)
(-6.36195e-07 -6.40262e-08 4.8843e-08)
(-3.95799e-07 -2.05971e-08 -2.05155e-08)
(-3.37638e-07 -1.35307e-07 -9.02601e-08)
(-2.42091e-07 -8.02565e-08 8.04672e-08)
(-3.14636e-08 -1.31669e-05 6.26558e-07)
(-7.90186e-07 -6.58982e-08 5.45597e-08)
(-8.20798e-07 -4.65351e-08 4.14045e-08)
(-8.76873e-07 -3.0236e-08 2.32472e-08)
(-9.26902e-07 -2.09965e-08 3.28009e-08)
(-7.52148e-07 -1.38118e-08 1.85619e-08)
(-5.73425e-07 -1.13331e-08 -2.09195e-09)
(-3.69699e-07 -1.28617e-08 4.2886e-08)
(-2.02829e-07 -4.95648e-08 1.19678e-07)
(6.0528e-07 -1.18496e-09 8.94417e-08)
(-7.11635e-07 -7.47194e-08 3.92236e-08)
(-7.83913e-07 -5.97372e-08 2.18954e-08)
(-8.25156e-07 -5.86575e-08 1.94829e-08)
(-8.26221e-07 -3.16243e-08 5.85936e-08)
(-6.82941e-07 -7.53786e-08 3.70248e-08)
(-5.04135e-07 -1.98926e-08 -1.12726e-08)
(-3.33974e-07 1.09297e-09 4.04021e-08)
(-1.95542e-07 -5.514e-09 1.34451e-07)
(-3.17872e-08 2.56028e-09 1.79005e-07)
(-5.96723e-07 -9.65307e-08 8.95898e-09)
(-6.37646e-07 -5.77756e-08 4.23134e-08)
(-6.86847e-07 -5.74044e-08 2.22558e-08)
(-6.53593e-07 -5.98264e-08 4.19138e-08)
(-5.24586e-07 -4.32303e-08 -1.85663e-10)
(-4.0471e-07 -2.20057e-08 -2.15633e-08)
(-3.17398e-07 -1.28547e-09 2.64569e-08)
(-1.66473e-07 -2.74473e-09 1.28648e-07)
(-3.51018e-08 2.67358e-09 1.29995e-07)
(-4.01865e-07 -4.77978e-08 -1.64773e-08)
(-4.16144e-07 -2.37682e-08 3.19003e-08)
(-3.63943e-07 -3.31362e-08 1.59565e-08)
(-4.19044e-07 -5.06276e-08 5.37186e-09)
(-3.09693e-07 -5.96975e-08 -3.49225e-08)
(-2.57283e-07 -2.06899e-08 -4.01044e-08)
(-1.69735e-07 -3.26462e-08 2.37746e-08)
(-1.09979e-07 -1.96907e-08 1.0107e-07)
(-3.01285e-08 -8.92041e-10 3.64812e-07)
(-7.47085e-07 -2.49698e-08 5.75742e-08)
(-7.81979e-07 -2.05225e-08 5.03027e-08)
(-8.0745e-07 -6.07283e-09 3.14892e-08)
(-8.2584e-07 -1.46724e-08 1.97886e-08)
(-6.59223e-07 -1.55349e-08 -1.93606e-08)
(-4.15902e-07 -1.56633e-08 3.85954e-09)
(-3.12685e-07 -1.04385e-08 1.95193e-08)
(-1.76646e-07 1.04853e-08 4.12464e-08)
(-9.33926e-08 -2.68343e-09 5.64855e-08)
(-7.14833e-07 -3.0657e-08 4.7308e-08)
(-7.47338e-07 -3.57404e-08 4.24687e-08)
(-7.81992e-07 -3.66749e-08 2.45964e-08)
(-7.18624e-07 -6.85992e-09 5.40397e-08)
(-5.58873e-07 -2.36832e-08 1.39113e-08)
(-4.19289e-07 -6.13021e-08 -1.31814e-08)
(-2.77606e-07 -2.62961e-08 5.07525e-09)
(-1.80433e-07 -7.63061e-09 3.34228e-08)
(-8.03682e-08 -2.96414e-09 6.72768e-08)
(-6.27875e-07 -4.85955e-09 4.49717e-08)
(-6.44112e-07 -2.896e-08 4.02632e-08)
(-7.11289e-07 -5.6143e-08 1.32848e-08)
(-6.25548e-07 -4.1684e-08 5.20712e-08)
(-4.61152e-07 -3.66992e-08 -1.19798e-08)
(-3.46408e-07 -6.84859e-08 -3.12164e-08)
(-2.61749e-07 -3.77694e-08 -5.19912e-10)
(-1.45632e-07 -6.47442e-09 6.75393e-08)
(-5.48973e-08 1.76081e-08 1.00213e-07)
(-4.24502e-07 4.50442e-08 9.47689e-09)
(-3.77281e-07 -1.05701e-08 -1.03513e-08)
(-4.1218e-07 -5.36785e-08 -2.23192e-10)
(-3.60309e-07 -6.7938e-08 -1.56307e-09)
(-3.14701e-07 -2.80945e-08 -1.2097e-08)
(-1.947e-07 -4.41858e-08 -4.21668e-08)
(-1.08349e-07 -1.02157e-08 2.71579e-09)
(-6.28657e-08 -5.79702e-09 7.51932e-08)
(-3.35147e-08 3.81198e-08 1.26692e-07)
)
;

boundaryField
{
    inlet
    {
        type            calculated;
        value           nonuniform 0();
    }
    outlet
    {
        type            calculated;
        value           nonuniform List<vector> 
12
(
(2.61053e-06 -6.89203e-08 1.37451e-07)
(4.60716e-06 1.51854e-07 3.56537e-07)
(7.75324e-09 -2.76272e-07 1.59416e-07)
(-3.14636e-08 -1.31669e-05 6.26558e-07)
(6.0528e-07 -1.18496e-09 8.94417e-08)
(-3.17872e-08 2.56028e-09 1.79005e-07)
(-3.51018e-08 2.67358e-09 1.29995e-07)
(-3.01285e-08 -8.92041e-10 3.64812e-07)
(-9.33926e-08 -2.68343e-09 5.64855e-08)
(-8.03682e-08 -2.96414e-09 6.72768e-08)
(-5.48973e-08 1.76081e-08 1.00213e-07)
(-3.35147e-08 3.81198e-08 1.26692e-07)
)
;
    }
    wall
    {
        type            calculated;
        value           nonuniform List<vector> 
63
(
(-7.63213e-07 -8.15977e-08 3.02603e-08)
(-7.12713e-07 -8.81348e-08 8.34474e-09)
(-6.14093e-07 -3.87088e-07 4.14193e-08)
(-2.98852e-07 -6.79067e-08 5.57858e-08)
(-8.51378e-07 -2.64129e-08 3.93168e-08)
(-7.90519e-07 -8.23458e-08 1.36393e-08)
(-6.43611e-07 -6.34579e-08 4.44937e-08)
(-4.18091e-07 -9.99402e-08 5.29767e-08)
(-9.4531e-07 2.66579e-08 2.00675e-08)
(-8.17905e-07 -6.08063e-08 1.7489e-08)
(-7.29499e-07 -7.59362e-08 3.32483e-08)
(-3.98963e-07 -1.46158e-07 5.01256e-08)
(-9.61381e-07 -1.05778e-08 2.75524e-08)
(-9.02186e-07 -6.34642e-08 5.76452e-08)
(-7.45093e-07 -8.5548e-08 5.30526e-08)
(-4.95039e-07 -5.32715e-08 7.72547e-09)
(-8.66078e-07 -1.70698e-08 4.13946e-08)
(-7.36793e-07 -3.9062e-08 3.54105e-08)
(-7.28224e-07 -2.07976e-09 8.78945e-08)
(-6.36195e-07 -6.40262e-08 4.8843e-08)
(-6.10492e-07 -4.37582e-09 2.46591e-08)
(-6.15976e-07 8.05721e-10 -2.11764e-08)
(-5.15736e-07 -2.12919e-08 -6.23862e-08)
(-3.95799e-07 -2.05971e-08 -2.05155e-08)
(-4.35701e-07 -1.06103e-08 1.57175e-07)
(-4.45356e-07 -9.67733e-09 9.70272e-08)
(-4.63052e-07 -2.40527e-08 1.59229e-08)
(-3.37638e-07 -1.35307e-07 -9.02601e-08)
(-5.34702e-07 -2.54862e-07 1.98432e-07)
(-2.6522e-07 -1.30671e-07 2.54839e-07)
(-2.41072e-07 -1.17664e-07 1.29348e-07)
(-2.42091e-07 -8.02565e-08 8.04672e-08)
(2.61053e-06 -6.89203e-08 1.37451e-07)
(4.60716e-06 1.51854e-07 3.56537e-07)
(7.75324e-09 -2.76272e-07 1.59416e-07)
(-3.14636e-08 -1.31669e-05 6.26558e-07)
(-2.98852e-07 -6.79067e-08 5.57858e-08)
(-4.01865e-07 -4.77978e-08 -1.64773e-08)
(-4.24502e-07 4.50442e-08 9.47689e-09)
(-4.18091e-07 -9.99402e-08 5.29767e-08)
(-4.16144e-07 -2.37682e-08 3.19003e-08)
(-3.77281e-07 -1.05701e-08 -1.03513e-08)
(-3.98963e-07 -1.46158e-07 5.01256e-08)
(-3.63943e-07 -3.31362e-08 1.59565e-08)
(-4.1218e-07 -5.36785e-08 -2.23192e-10)
(-4.95039e-07 -5.32715e-08 7.72547e-09)
(-4.19044e-07 -5.06276e-08 5.37186e-09)
(-3.60309e-07 -6.7938e-08 -1.56307e-09)
(-6.36195e-07 -6.40262e-08 4.8843e-08)
(-3.09693e-07 -5.96975e-08 -3.49225e-08)
(-3.14701e-07 -2.80945e-08 -1.2097e-08)
(-3.95799e-07 -2.05971e-08 -2.05155e-08)
(-2.57283e-07 -2.06899e-08 -4.01044e-08)
(-1.947e-07 -4.41858e-08 -4.21668e-08)
(-3.37638e-07 -1.35307e-07 -9.02601e-08)
(-1.69735e-07 -3.26462e-08 2.37746e-08)
(-1.08349e-07 -1.02157e-08 2.71579e-09)
(-2.42091e-07 -8.02565e-08 8.04672e-08)
(-1.09979e-07 -1.96907e-08 1.0107e-07)
(-6.28657e-08 -5.79702e-09 7.51932e-08)
(-3.14636e-08 -1.31669e-05 6.26558e-07)
(-3.01285e-08 -8.92041e-10 3.64812e-07)
(-3.35147e-08 3.81198e-08 1.26692e-07)
)
;
    }
    procBoundary3to1
    {
        type            processor;
        value           nonuniform List<vector> 
27
(
(-7.75422e-07 -1.95045e-08 5.68618e-08)
(-8.61311e-07 1.59571e-08 2.65292e-08)
(-1.11827e-06 1.26084e-07 -6.44451e-10)
(-1.03384e-06 5.23442e-08 -2.50926e-08)
(-8.39072e-07 -3.05277e-08 -1.80928e-08)
(-5.62099e-07 -2.1057e-09 5.57772e-08)
(-3.55901e-07 -2.47222e-09 1.53518e-07)
(-1.80445e-07 1.82648e-08 1.54881e-07)
(-1.22766e-07 -5.29177e-08 1.28051e-07)
(-7.33651e-07 -9.71167e-10 8.05563e-08)
(-7.83728e-07 1.99011e-08 4.98789e-08)
(-8.80505e-07 -1.20696e-08 2.11486e-08)
(-9.04801e-07 2.00979e-08 -3.36283e-08)
(-7.34597e-07 4.67993e-09 -2.9387e-08)
(-5.34633e-07 1.58196e-08 -7.13028e-09)
(-3.24752e-07 -1.49207e-08 9.04856e-08)
(-2.28356e-07 6.35805e-09 7.52173e-08)
(-8.20911e-08 3.08467e-08 1.55691e-07)
(-7.03134e-07 -3.73283e-09 7.21455e-08)
(-7.40696e-07 -1.24885e-08 4.50495e-08)
(-7.45318e-07 2.67428e-08 2.89815e-08)
(-7.54364e-07 1.26427e-08 4.40007e-09)
(-6.24565e-07 2.42095e-08 -3.21523e-08)
(-4.36615e-07 4.25318e-08 3.54895e-09)
(-2.4078e-07 -9.22295e-09 4.12085e-08)
(-1.75419e-07 1.91484e-08 4.23241e-08)
(-1.04379e-07 2.89934e-08 4.2007e-08)
)
;
    }
    procBoundary3to2
    {
        type            processor;
        value           nonuniform List<vector> 
12
(
(-6.71884e-07 -5.48312e-08 3.11209e-08)
(-6.20842e-07 -8.7205e-08 4.97405e-08)
(-5.71424e-07 -8.09812e-08 1.41581e-08)
(-3.34877e-07 6.53677e-08 -2.12602e-08)
(-6.45362e-07 -3.83517e-08 4.92493e-08)
(-6.4013e-07 -6.04871e-08 6.25998e-08)
(-5.38018e-07 -6.0378e-08 2.82267e-08)
(-2.65952e-07 -1.07872e-08 -2.12266e-08)
(-6.66842e-07 -3.25338e-08 6.88607e-08)
(-6.22079e-07 -4.57711e-08 5.84722e-08)
(-5.51017e-07 -4.29329e-08 3.13324e-08)
(-3.43995e-07 -9.43222e-09 -2.57923e-08)
)
;
    }
    procBoundary3to7
    {
        type            processor;
        value           nonuniform List<vector> 
36
(
(-7.00167e-07 -2.81267e-08 4.63269e-08)
(-7.30933e-07 -3.01095e-08 4.17518e-08)
(-7.34724e-07 -2.3109e-08 2.93419e-08)
(-7.14811e-07 -3.89974e-08 -4.43235e-10)
(-5.71818e-07 4.89748e-09 -5.99491e-09)
(-3.56054e-07 2.36644e-08 4.1675e-08)
(-2.5497e-07 -1.04472e-08 8.19422e-09)
(-1.53047e-07 6.20222e-09 1.13654e-08)
(-4.8936e-08 1.36943e-08 3.83132e-09)
(-6.74056e-07 -6.34812e-09 4.53202e-08)
(-7.04676e-07 -2.52234e-08 3.87085e-08)
(-7.03269e-07 -2.73821e-08 2.25384e-08)
(-6.97552e-07 -3.91289e-08 1.28722e-08)
(-4.79413e-07 -2.12248e-08 -1.51868e-08)
(-3.56477e-07 -3.6722e-08 -1.6506e-08)
(-2.61085e-07 -3.26981e-08 -9.6006e-09)
(-1.76522e-07 -2.84436e-08 1.35026e-08)
(-8.87272e-08 2.1497e-09 1.48845e-08)
(-6.06857e-07 -3.43608e-08 4.0014e-08)
(-6.25817e-07 -1.50904e-08 3.9508e-08)
(-6.14075e-07 -1.97159e-08 2.30423e-08)
(-5.5931e-07 -3.74002e-08 1.54704e-08)
(-4.26814e-07 -3.07931e-08 -9.11313e-09)
(-3.02533e-07 -5.39649e-08 -3.37877e-08)
(-2.32264e-07 -3.2193e-08 -2.45977e-08)
(-1.64867e-07 -4.88831e-08 2.94794e-08)
(-1.18174e-07 -4.93268e-08 2.08753e-08)
(-4.99451e-07 2.77134e-08 3.68358e-09)
(-4.39653e-07 -1.58931e-09 -2.469e-08)
(-3.82444e-07 -4.28972e-08 -5.05064e-09)
(-3.7618e-07 -2.66799e-08 2.30884e-09)
(-2.91676e-07 -2.58577e-08 -9.18022e-09)
(-2.05792e-07 -2.19996e-08 -2.80743e-08)
(-1.36881e-07 -2.95012e-08 -5.77775e-09)
(-8.79389e-08 -1.86828e-08 2.09395e-08)
(-6.19598e-08 -2.51949e-08 3.59633e-09)
)
;
    }
}


// ************************************************************************* //
