/*--------------------------------*- C++ -*----------------------------------*\
  =========                 |
  \\      /  F ield         | OpenFOAM: The Open Source CFD Toolbox
   \\    /   O peration     | Website:  https://openfoam.org
    \\  /    A nd           | Version:  4.x
     \\/     M anipulation  |
\*---------------------------------------------------------------------------*/
FoamFile
{
    version     2.0;
    format      ascii;
    class       Cloud<passiveParticle>;
    location    0;
    object      positions;
}
// * * * * * * * * * * * * * * * * * * * * * * * * * * * * * * * * * * * * * //

302
(
( 0.253025 0.0900613 -0.0560368 ) 63
( 0.250566 0.0316048 -0.0549857 ) 45
( 0.250388 0.0300036 -0.0351961 ) 81
( 0.254162 0.0692918 -0.0505359 ) 54
( 0.251157 0.0682376 -0.0700697 ) 54
( 0.250644 0.0107706 -0.0753134 ) 0
( 0.250211 0.0359358 -0.074405 ) 9
( 0.256106 0.0313028 -0.0150889 ) 81
( 0.381255 -0.0139652 -0.0338299 ) 76
( 0.421113 -0.0111107 -0.0808572 ) 6
( 0.473711 -0.00616927 -0.0415447 ) 80
( 0.32464 -0.0105133 -0.076427 ) 2
( 0.404063 -0.0038222 -0.0735894 ) 5
( 0.490063 -0.0109761 -0.0578754 ) 44
( 0.371807 -0.00591819 -0.0493101 ) 40
( 0.468873 -0.00178816 -0.0855471 ) 7
( 0.342741 -0.00284249 -0.0731394 ) 3
( 0.33478 -0.0140254 -0.0328832 ) 75
( 0.439369 -0.00179021 -0.0578665 ) 42
( 0.321745 -0.0118069 -0.047456 ) 38
( 0.360911 -0.000880372 -0.0651692 ) 39
( 0.310749 -0.00597806 -0.0628469 ) 38
( 0.35433 -0.0122691 -0.0387258 ) 75
( 0.272236 -0.003175 -0.0685537 ) 36
( 0.283945 -0.0122308 -0.0390125 ) 73
( 0.436761 0.00062076 -0.0773925 ) 6
( 0.490045 -0.0122296 -0.0777663 ) 8
( 0.302516 -0.00849628 -0.0445323 ) 37
( 0.394225 -0.00441261 -0.0448743 ) 41
( 0.472411 -0.0116071 -0.0685115 ) 44
( 0.275482 -0.010074 -0.0201376 ) 72
( 0.47309 -0.0126314 -0.0212332 ) 80
( 0.387717 0.0265424 -0.054837 ) 49
( 0.304011 0.0718542 -0.0648558 ) 64
( 0.337134 0.0639301 -0.0468227 ) 57
( 0.325629 0.0164946 -0.0485029 ) 47
( 0.443447 0.0376346 -0.0467038 ) 51
( 0.286763 0.0646692 -0.0583289 ) 55
( 0.331349 0.0508305 -0.0605908 ) 56
( 0.455465 0.0130023 -0.0859339 ) 7
( 0.369749 0.0348568 -0.0532908 ) 49
( 0.490045 0.0227695 -0.0532161 ) 53
( 0.324616 0.0376369 -0.0747212 ) 11
( 0.293371 0.025859 -0.0575724 ) 46
( 0.379308 0.00961615 -0.0642907 ) 40
( 0.470536 0.0687013 -0.0578168 ) 61
( 0.431439 0.0710966 -0.0625295 ) 60
( 0.45609 0.0710607 -0.0785457 ) 25
( 0.342848 0.0322439 -0.0689723 ) 48
( 0.320234 0.0460795 -0.044737 ) 56
( 0.301115 0.0613425 -0.0452172 ) 55
( 0.368822 0.0542655 -0.0494162 ) 58
( 0.353864 0.0455082 -0.0592411 ) 57
( 0.32449 0.085368 -0.0375795 ) 101
( 0.353191 0.0835899 -0.0695131 ) 66
( 0.452592 0.0772049 -0.0555882 ) 70
( 0.286623 0.0901329 -0.0312501 ) 100
( 0.417233 0.0203406 -0.0480746 ) 51
( 0.33449 0.0725811 -0.0645678 ) 66
( 0.388336 0.0701541 -0.0536557 ) 58
( 0.471242 0.0901297 -0.0645239 ) 70
( 0.474013 0.0680517 -0.0382239 ) 98
( 0.4899 0.0146722 -0.0838956 ) 17
( 0.26546 0.0160628 -0.0366485 ) 81
( 0.399991 0.0667067 -0.06945 ) 59
( 0.327188 0.0285198 -0.0321801 ) 83
( 0.349346 0.064107 -0.0205498 ) 93
( 0.395614 0.013736 -0.0780024 ) 5
( 0.306439 0.0317666 -0.0403401 ) 83
( 0.303065 0.0349228 -0.0724188 ) 10
( 0.458185 0.0434201 -0.0606571 ) 61
( 0.272638 0.0513306 -0.0543585 ) 54
( 0.411047 0.051038 -0.0599735 ) 59
( 0.457354 0.0242689 -0.0515393 ) 52
( 0.430503 0.0824941 -0.0787857 ) 33
( 0.365799 0.0410865 -0.0348605 ) 85
( 0.31613 0.0314626 -0.0577197 ) 47
( 0.473534 0.0304654 -0.0613794 ) 53
( 0.366735 0.0115038 -0.0796782 ) 4
( 0.290981 0.0900342 -0.0505639 ) 64
( 0.269237 0.0164639 -0.0711067 ) 45
( 0.405378 0.0262712 -0.0641103 ) 50
( 0.474281 0.047405 -0.0501005 ) 62
( 0.441201 0.0387058 -0.069605 ) 51
( 0.419641 0.0138363 -0.0704225 ) 42
( 0.346568 0.0806628 -0.0509555 ) 66
( 0.438845 0.0558636 -0.0404915 ) 96
( 0.437491 0.0204449 -0.076405 ) 15
( 0.478486 0.074882 -0.0750851 ) 35
( 0.334676 0.0338907 -0.050833 ) 48
( 0.380845 0.0381307 -0.0694486 ) 49
( 0.460909 0.0406582 -0.0375826 ) 88
( 0.40155 0.0836891 -0.0593874 ) 68
( 0.36334 0.0533922 -0.074789 ) 22
( 0.280527 0.0682292 -0.0395728 ) 91
( 0.422478 0.0628993 -0.0782487 ) 24
( 0.371516 0.08988 -0.0742788 ) 31
( 0.397033 0.02113 -0.0382337 ) 86
( 0.347231 0.0156467 -0.07905 ) 12
( 0.352803 0.0296466 -0.0443053 ) 48
( 0.273583 0.0789398 -0.054715 ) 63
( 0.489971 0.0338968 -0.0785471 ) 17
( 0.385225 0.0737775 -0.0844601 ) 31
( 0.458183 0.029113 -0.0744366 ) 16
( 0.424254 0.0430598 -0.0792831 ) 24
( 0.287512 0.0824476 -0.0685851 ) 64
( 0.430964 0.0736789 -0.0429465 ) 69
( 0.490014 0.0898763 -0.0822963 ) 35
( 0.293651 0.0526729 -0.0725936 ) 19
( 0.326644 0.0058393 -0.0652087 ) 38
( 0.293847 0.0110472 -0.0709268 ) 37
( 0.351115 0.0159395 -0.0300937 ) 84
( 0.490038 0.0537443 -0.0821459 ) 26
( 0.413097 0.067972 -0.049624 ) 59
( 0.319441 0.0690859 -0.0771138 ) 20
( 0.457922 0.0583146 -0.0463228 ) 61
( 0.380945 0.00957625 -0.0399953 ) 76
( 0.473284 0.0107622 -0.0537303 ) 44
( 0.472268 0.0135799 -0.0733553 ) 8
( 0.284071 0.0210981 -0.0407867 ) 82
( 0.269379 0.031847 -0.0485225 ) 45
( 0.36188 0.0187486 -0.061772 ) 49
( 0.472151 0.0230642 -0.0383422 ) 88
( 0.308294 0.049555 -0.0293354 ) 92
( 0.371108 0.0729182 -0.0630312 ) 67
( 0.437784 0.0900975 -0.0616379 ) 69
( 0.428991 0.0066543 -0.0395948 ) 78
( 0.488689 0.0765093 -0.0485582 ) 71
( 0.391346 0.050823 -0.056688 ) 59
( 0.474881 0.0497667 -0.0698 ) 62
( 0.406236 0.0515167 -0.0806236 ) 23
( 0.398466 0.0717179 -0.0366387 ) 104
( 0.39253 0.0901387 -0.0758666 ) 32
( 0.412568 0.0900768 -0.0746819 ) 32
( 0.274075 0.00935095 -0.0532152 ) 36
( 0.436572 0.0198982 -0.0540184 ) 51
( 0.444155 0.0900529 -0.0430165 ) 69
( 0.356267 0.00636951 -0.0472137 ) 39
( 0.329861 0.0900799 -0.0560691 ) 65
( 0.4902 0.0413613 -0.0601316 ) 53
( 0.433079 0.0252978 -0.0351727 ) 87
( 0.342676 0.0155042 -0.0583575 ) 48
( 0.363872 0.0727429 -0.0445349 ) 67
( 0.490256 0.0379979 -0.0405836 ) 89
( 0.469765 0.0900454 -0.0846158 ) 34
( 0.419507 0.0507317 -0.0419126 ) 96
( 0.283641 0.0519601 -0.0219842 ) 91
( 0.425806 0.090287 -0.0339655 ) 105
( 0.363656 0.0902199 -0.0539812 ) 67
( 0.300648 0.0105975 -0.0394773 ) 73
( 0.265907 0.0902206 -0.0403586 ) 99
( 0.300868 0.0440536 -0.0548718 ) 55
( 0.342956 0.055462 -0.0760191 ) 21
( 0.352833 0.0652251 -0.0617895 ) 57
( 0.398398 0.00855925 -0.0590286 ) 41
( 0.382954 0.0900408 -0.0580117 ) 67
( 0.417447 0.00158984 -0.0549387 ) 42
( 0.448768 0.0080802 -0.0435402 ) 43
( 0.295731 0.06685 -0.0271142 ) 91
( 0.385466 0.0566789 -0.0387071 ) 94
( 0.490535 0.0901587 -0.062403 ) 71
( 0.399118 0.0329764 -0.0817945 ) 14
( 0.308411 0.0129569 -0.0574563 ) 38
( 0.49013 0.0523916 -0.0263984 ) 98
( 0.490056 0.0903492 -0.0346562 ) 107
( 0.27087 0.0663192 -0.0699644 ) 54
( 0.307799 0.0800183 -0.0471032 ) 65
( 0.464347 0.0900766 -0.045952 ) 70
( 0.322095 0.0657543 -0.0340199 ) 92
( 0.490102 0.00457524 -0.0450028 ) 44
( 0.490015 0.0627437 -0.0643583 ) 62
( 0.26647 0.047154 -0.0728028 ) 18
( 0.431036 0.051266 -0.0580956 ) 60
( 0.347275 0.0904298 -0.0339378 ) 102
( 0.311634 0.0901589 -0.0638683 ) 65
( 0.405512 0.0902545 -0.0410597 ) 104
( 0.490361 0.0573055 -0.0452966 ) 62
( 0.382695 0.0575937 -0.0732205 ) 22
( 0.455442 0.0495122 -0.0793865 ) 25
( 0.473243 0.0276698 -0.0874355 ) 17
( 0.267413 0.0901211 -0.0698154 ) 63
( 0.381467 0.0825117 -0.039688 ) 103
( 0.452382 0.0119126 -0.0663001 ) 43
( 0.445218 0.0893687 -0.0903707 ) 34
( 0.375224 0.0248493 -0.0286608 ) 85
( 0.335252 0.0900467 -0.0751666 ) 30
( 0.453679 0.0899907 -0.0728066 ) 34
( 0.318699 0.064666 -0.0536405 ) 56
( 0.287003 0.0479862 -0.0411206 ) 91
( 0.447845 0.059973 -0.0642084 ) 61
( 0.315853 0.0197563 -0.0745859 ) 11
( 0.474024 0.0715793 -0.0148916 ) 107
( 0.393451 0.0606447 -0.0209838 ) 95
( 0.410642 0.0815349 -0.0243042 ) 104
( 0.317548 0.0369816 -0.0169106 ) 83
( 0.455553 0.0776489 -0.0162606 ) 106
( 0.390664 0.0155853 -0.0202895 ) 86
( 0.490006 0.0185252 -0.0308294 ) 89
( 0.323778 0.060642 -0.0149795 ) 92
( 0.36335 0.0818013 -0.0270315 ) 103
( 0.407734 0.0246518 -0.0171577 ) 86
( 0.440613 0.00383642 -0.0235433 ) 78
( 0.466807 0.0229627 -0.019243 ) 88
( 0.348696 0.0850763 -0.0144357 ) 102
( 0.38067 0.0455505 -0.0230208 ) 94
( 0.447777 0.0607662 -0.0235544 ) 97
( 0.431112 0.044034 -0.0265491 ) 96
( 0.393006 0.0902447 -0.0254563 ) 104
( 0.414783 0.0430312 -0.0155219 ) 95
( 0.458261 0.00596818 -0.0147288 ) 79
( 0.490069 0.0721741 -0.0271407 ) 107
( 0.439586 0.0251589 -0.0164828 ) 87
( 0.305803 0.0221494 -0.0230873 ) 83
( 0.423878 0.0142649 -0.0212932 ) 78
( 0.269732 0.0900762 -0.0208049 ) 99
( 0.333313 0.0124335 -0.0221216 ) 74
( 0.41499 0.0620402 -0.0262665 ) 95
( 0.330986 0.0782709 -0.020308 ) 101
( 0.270614 0.0348218 -0.0289142 ) 81
( 0.3807 0.0750929 -0.0213523 ) 103
( 0.471477 0.0895536 -0.027557 ) 106
( 0.490082 0.0899574 -0.0146756 ) 107
( 0.259604 0.0468912 -0.040048 ) 90
( 0.255995 -0.000336694 -0.0572447 ) 36
( 0.459527 -0.00334739 -0.0558737 ) 43
( 0.321447 -0.00175434 -0.0157208 ) 74
( 0.362331 0.0334485 -0.0751772 ) 13
( 0.419514 0.0900544 -0.0548318 ) 69
( 0.318758 0.00539611 -0.0337832 ) 74
( 0.489734 0.00725776 -0.0654224 ) 44
( 0.409378 0.00580111 -0.0368643 ) 77
( 0.280291 0.0330535 -0.0706232 ) 46
( 0.265888 0.0564128 -0.0145053 ) 90
( 0.44277 0.090355 -0.0234656 ) 105
( 0.474714 0.00637067 -0.0261931 ) 80
( 0.262408 0.0722977 -0.0327462 ) 99
( 0.38773 -0.00839531 -0.0631398 ) 40
( 0.423747 0.0332092 -0.062023 ) 51
( 0.269025 0.0104235 -0.0179971 ) 72
( 0.42804 -0.0127966 -0.0421487 ) 78
( 0.266177 -0.00364031 -0.0404567 ) 72
( 0.3966 -0.00297044 -0.0244292 ) 77
( 0.337326 0.000505958 -0.0461987 ) 39
( 0.254427 -0.00878492 -0.0752715 ) 0
( 0.331316 0.0476147 -0.0280912 ) 92
( 0.455485 0.0751433 -0.0359475 ) 106
( 0.376948 -0.00562724 -0.0796099 ) 4
( 0.313022 0.052401 -0.068185 ) 56
( 0.402908 0.0374085 -0.0478954 ) 50
( 0.253202 0.0510281 -0.0584061 ) 54
( 0.288914 -0.00309465 -0.0578136 ) 37
( 0.348978 0.0495993 -0.0405009 ) 93
( 0.313852 -0.0138324 -0.0291998 ) 74
( 0.415459 0.0333741 -0.0331457 ) 86
( 0.34737 -0.00227152 -0.0230172 ) 75
( 0.490143 -0.0098045 -0.0310398 ) 80
( 0.290467 0.0340744 -0.0274515 ) 82
( 0.277704 0.0714171 -0.019994 ) 90
( 0.368045 0.0606162 -0.026662 ) 94
( 0.365351 0.00205933 -0.0302631 ) 76
( 0.45226 0.023869 -0.0322142 ) 88
( 0.30581 0.0854429 -0.0281105 ) 101
( 0.477011 0.0378412 -0.0261713 ) 89
( 0.250437 0.0141115 -0.0235213 ) 72
( 0.420203 -0.00485968 -0.0242585 ) 78
( 0.350209 0.04181 -0.0224504 ) 84
( 0.468219 0.0552732 -0.0242785 ) 97
( 0.295224 -0.0110145 -0.0230413 ) 73
( 0.43191 0.0737032 -0.0229942 ) 105
( 0.286674 0.0067225 -0.0261927 ) 73
( 0.456909 -0.004957 -0.0311009 ) 79
( 0.399591 0.0436603 -0.0284305 ) 95
( 0.449927 0.0412109 -0.0212674 ) 88
( 0.346358 -0.0137501 -0.056901 ) 39
( 0.281755 -0.0119577 -0.0836542 ) 1
( 0.470926 0.0602025 -0.0862949 ) 25
( 0.380537 0.0250697 -0.0844894 ) 13
( 0.384008 0.044405 -0.0881078 ) 22
( 0.300381 0.0676383 -0.0839782 ) 19
( 0.34741 0.0394294 -0.0869861 ) 12
( 0.445143 0.034271 -0.0886278 ) 16
( 0.27572 0.0792466 -0.0843192 ) 27
( 0.282993 0.0196973 -0.085196 ) 10
( 0.32943 0.00857965 -0.0847301 ) 2
( 0.278833 0.0564613 -0.0853558 ) 19
( 0.364101 0.0721282 -0.0816503 ) 31
( 0.302167 0.0873557 -0.0811688 ) 28
( 0.311154 0.0459346 -0.0869367 ) 20
( 0.266409 0.030765 -0.0847435 ) 9
( 0.343151 0.0738413 -0.0837033 ) 30
( 0.357016 0.0900333 -0.0879679 ) 30
( 0.408056 0.0742886 -0.0860183 ) 32
( 0.253441 0.090065 -0.0839786 ) 27
( 0.417204 0.0257348 -0.0862026 ) 15
( 0.308717 0.00220791 -0.0808809 ) 2
( 0.438081 0.0547911 -0.0876414 ) 24
( 0.260947 0.0656266 -0.0872398 ) 18
( 0.290019 0.0392372 -0.0868878 ) 10
( 0.302276 0.0234325 -0.0887094 ) 10
( 0.320643 0.0883687 -0.0886103 ) 29
( 0.265871 0.00373467 -0.0861259 ) 0
( 0.328196 0.0560282 -0.0894017 ) 20
)
