/*--------------------------------*- C++ -*----------------------------------*\
| =========                 |                                                 |
| \\      /  F ield         | OpenFOAM: The Open Source CFD Toolbox           |
|  \\    /   O peration     | Version:  4.x                                   |
|   \\  /    A nd           | Web:      www.OpenFOAM.org                      |
|    \\/     M anipulation  |                                                 |
\*---------------------------------------------------------------------------*/
FoamFile
{
    version     2.0;
    format      ascii;
    class       volVectorField;
    location    "51";
    object      DDtUrel;
}
// * * * * * * * * * * * * * * * * * * * * * * * * * * * * * * * * * * * * * //

dimensions      [0 1 -2 0 0 0 0];

internalField   nonuniform List<vector> 
87
(
(3.74077e-05 -8.8118e-06 9.49807e-06)
(8.58851e-05 -2.3306e-05 1.26584e-05)
(5.5809e-05 -1.75548e-05 4.85677e-06)
(0.000129817 -2.82595e-05 9.25096e-06)
(0.000105881 -3.2551e-05 8.15791e-06)
(6.74504e-05 -3.05782e-05 4.35059e-07)
(0.00161337 3.51734e-05 -6.44774e-05)
(0.000909305 1.52615e-05 -3.3002e-05)
(0.000520672 2.76714e-06 -1.61681e-05)
(0.000300885 -5.84537e-06 -2.54577e-06)
(0.000181057 -7.31191e-06 3.19631e-06)
(0.000106957 -1.11011e-05 6.17959e-06)
(6.81958e-05 -1.01782e-05 5.67599e-06)
(4.11454e-05 -1.21119e-05 4.20319e-06)
(2.24476e-05 -1.00657e-05 2.43108e-06)
(0.0016569 8.38806e-05 -6.66922e-05)
(0.000958268 3.18467e-05 -3.68536e-05)
(0.000558957 6.14593e-06 -1.97012e-05)
(0.000333469 -1.16727e-05 -5.90489e-06)
(0.000200974 -1.39697e-05 1.07666e-06)
(0.000124927 -2.20883e-05 4.31589e-06)
(7.68315e-05 -2.00457e-05 4.38481e-06)
(5.00917e-05 -2.47388e-05 3.38391e-06)
(2.52635e-05 -2.02511e-05 1.12091e-06)
(0.0017121 7.92511e-05 -7.00393e-05)
(0.00101744 3.54648e-05 -4.02862e-05)
(0.000610167 6.33975e-06 -2.38569e-05)
(0.000375152 -1.10699e-05 -8.69492e-06)
(0.000229997 -1.65936e-05 -1.01437e-06)
(0.000146913 -2.24736e-05 3.55636e-06)
(8.63714e-05 -2.59924e-05 1.65938e-06)
(5.5316e-05 -3.38308e-05 1.95802e-06)
(1.91378e-05 -2.91828e-05 -1.27635e-06)
(0.00164733 4.09974e-05 6.27711e-06)
(0.000943997 1.59831e-05 -6.20923e-06)
(0.000543559 1.85972e-06 -7.45618e-06)
(0.000320817 -7.58447e-06 -6.57825e-06)
(0.000188769 -9.77415e-06 -3.23776e-06)
(0.000115294 -1.34503e-05 -5.48653e-06)
(6.76448e-05 -1.24619e-05 -1.98632e-06)
(4.31803e-05 -1.38998e-05 -4.6509e-06)
(1.93962e-05 -1.22187e-05 -5.43365e-06)
(0.00169116 8.24849e-05 1.47656e-07)
(0.000991948 3.13752e-05 -9.05888e-06)
(0.000585715 4.60241e-06 -1.08127e-05)
(0.000355531 -1.06028e-05 -7.52772e-06)
(0.000213509 -1.40385e-05 -4.54178e-06)
(0.000132831 -2.01811e-05 -4.32957e-06)
(7.75581e-05 -2.10612e-05 -4.15765e-06)
(5.36576e-05 -2.43941e-05 -7.42768e-06)
(2.34971e-05 -2.15356e-05 -6.83008e-06)
(0.00174066 7.55391e-05 -8.39271e-06)
(0.00104871 3.33046e-05 -1.26456e-05)
(0.000637009 5.73024e-06 -1.1796e-05)
(0.000399058 -1.03418e-05 -7.84062e-06)
(0.000248132 -1.5996e-05 -6.60404e-06)
(0.000160252 -2.15717e-05 -5.3054e-06)
(9.67499e-05 -2.56422e-05 -5.51722e-06)
(6.601e-05 -3.03878e-05 -5.74208e-06)
(3.13471e-05 -3.06288e-05 -6.41321e-06)
(0.00169581 3.79256e-05 2.5155e-05)
(0.000994409 1.20414e-05 4.48693e-06)
(0.000586546 -5.37781e-07 -4.41189e-06)
(0.0003577 -1.02858e-05 -5.4343e-06)
(0.000216091 -1.31067e-05 -4.17836e-06)
(0.00013789 -1.71441e-05 -4.40415e-06)
(8.04445e-05 -1.64778e-05 -4.37116e-06)
(5.7359e-05 -1.64352e-05 -8.29566e-06)
(2.43147e-05 -1.58502e-05 -1.109e-05)
(0.00173448 7.37651e-05 1.55675e-05)
(0.00103852 2.90244e-05 -7.69384e-07)
(0.000627895 4.44812e-06 -7.67036e-06)
(0.000393794 -1.17821e-05 -8.11462e-06)
(0.000243458 -1.62044e-05 -6.00093e-06)
(0.000155557 -2.20323e-05 -6.06743e-06)
(9.29767e-05 -2.55698e-05 -9.13878e-06)
(6.50945e-05 -2.82437e-05 -1.25266e-05)
(2.8718e-05 -2.30966e-05 -1.563e-05)
(0.00177302 6.85828e-05 6.80669e-06)
(0.00108553 3.13208e-05 -4.20957e-06)
(0.000673747 6.45975e-06 -8.14683e-06)
(0.000437385 -1.05376e-05 -9.21429e-06)
(0.000279785 -1.87326e-05 -9.37787e-06)
(0.000182741 -2.37128e-05 -8.61177e-06)
(0.000111806 -2.79151e-05 -1.2062e-05)
(7.45819e-05 -3.2588e-05 -1.53434e-05)
(3.5342e-05 -3.18061e-05 -1.73539e-05)
)
;

boundaryField
{
    inlet
    {
        type            calculated;
        value           nonuniform List<vector> 9((0.00366019 0.00010107 -0.000152237) (0.00375565 0.000423953 -0.000164351) (0.00402904 0.000227479 -0.000177513) (0.00378489 0.000198725 0.000241163) (0.00391122 0.000418868 0.000194764) (0.00412239 0.000201088 0.000121438) (0.00404566 0.000167099 0.000178567) (0.00412246 0.000317686 0.000113151) (0.00421817 0.000152097 6.21984e-05));
    }
    outlet
    {
        type            calculated;
        value           nonuniform 0();
    }
    wall
    {
        type            calculated;
        value           nonuniform List<vector> 
57
(
(0.00404566 0.000167099 0.000178567)
(0.00412246 0.000317686 0.000113151)
(0.00421817 0.000152097 6.21984e-05)
(0.000105448 -2.94403e-05 -4.95402e-07)
(0.000248028 1.39827e-06 -1.15348e-05)
(0.000449369 -7.93115e-06 -1.18675e-05)
(4.89697e-05 -1.49531e-05 -2.17737e-05)
(0.000171772 -1.40156e-05 -2.75359e-05)
(0.000358259 -1.06549e-05 -7.7753e-06)
(9.14632e-05 -5.81184e-05 -9.98797e-06)
(0.000216711 -6.20905e-05 -2.31229e-05)
(0.000433074 -3.58581e-05 -1.97543e-05)
(7.25101e-06 -3.9122e-05 -4.66465e-06)
(0.000105464 -2.00694e-05 1.25987e-06)
(0.000291717 -4.5313e-05 -3.12769e-05)
(5.19306e-05 -6.933e-05 -7.78445e-06)
(0.000113917 -4.50285e-05 9.45811e-07)
(0.000250219 -3.79828e-05 -1.29291e-05)
(-8.03975e-05 -3.19409e-05 1.36795e-05)
(8.40322e-06 -6.29598e-05 -2.90953e-05)
(0.000106295 -4.05916e-05 -4.16453e-05)
(4.63558e-05 -1.43094e-05 -1.34185e-05)
(0.000122299 -8.84397e-05 -3.3501e-05)
(0.000136395 -7.04169e-05 -5.75129e-05)
(-9.89832e-05 -1.31302e-05 -1.74278e-05)
(-3.31893e-05 -4.09545e-06 -4.09695e-05)
(1.4083e-05 -6.24032e-05 -5.00917e-05)
(0.00402904 0.000227479 -0.000177513)
(0.00412239 0.000201088 0.000121438)
(0.00421817 0.000152097 6.21984e-05)
(0.000121101 7.8194e-06 -9.79359e-06)
(0.000297902 -8.88802e-06 1.86281e-05)
(0.000449369 -7.93115e-06 -1.18675e-05)
(6.45421e-05 -3.13504e-05 -4.46132e-05)
(0.000201228 -3.22493e-05 8.41689e-07)
(0.000358259 -1.06549e-05 -7.7753e-06)
(4.88006e-05 -5.56742e-05 -6.92085e-06)
(0.000206325 -4.0512e-05 6.76531e-06)
(0.000433074 -3.58581e-05 -1.97543e-05)
(-4.24885e-05 -2.35607e-05 -1.03089e-05)
(0.000108506 -1.20876e-05 -2.18338e-05)
(0.000291717 -4.5313e-05 -3.12769e-05)
(-3.33915e-05 -2.97041e-05 7.00709e-06)
(0.000137177 -2.14538e-05 -2.04959e-05)
(0.000250219 -3.79828e-05 -1.29291e-05)
(0.000100221 -7.06008e-05 -3.91862e-05)
(-0.000144756 -2.44722e-05 -1.51577e-05)
(3.49863e-05 -2.96e-05 -1.16585e-05)
(0.000106295 -4.05916e-05 -4.16453e-05)
(0.000259828 -7.73052e-05 -9.89186e-06)
(-9.96479e-05 -0.000116821 1.354e-05)
(0.000122965 -4.62172e-05 6.58787e-06)
(0.000136395 -7.04169e-05 -5.75129e-05)
(4.02734e-05 -7.09858e-05 -6.32114e-05)
(-0.000240351 -2.45284e-05 -2.54573e-06)
(1.5356e-05 -5.52238e-05 1.48407e-05)
(1.4083e-05 -6.24032e-05 -5.00917e-05)
)
;
    }
    procBoundary6to0
    {
        type            processor;
        value           uniform (3.09942e-05 1.16485e-07 1.1759e-05);
    }
    procBoundary6to2
    {
        type            processor;
        value           nonuniform List<vector> 
32
(
(6.27038e-05 -7.85098e-06 1.76466e-05)
(0.000111192 -2.58495e-05 2.41948e-05)
(8.12681e-05 -1.94819e-05 1.60781e-05)
(0.000168595 -2.67562e-05 2.20607e-05)
(0.00014133 -3.26594e-05 2.27415e-05)
(9.98148e-05 -3.08828e-05 1.44454e-05)
(0.00161963 3.83499e-05 -0.00013593)
(0.000926072 1.74859e-05 -6.13821e-05)
(0.000535539 3.83908e-06 -2.3786e-05)
(0.000318239 -4.2671e-06 3.68666e-06)
(0.000195028 -6.5564e-06 1.11574e-05)
(0.000126519 -1.04381e-05 2.00369e-05)
(8.2978e-05 -9.07338e-06 1.49375e-05)
(5.84505e-05 -9.09916e-06 1.25181e-05)
(5.84505e-05 -9.09916e-06 1.25181e-05)
(5.84505e-05 -9.09916e-06 1.25181e-05)
(0.00166489 8.25939e-05 -0.000132094)
(0.000976178 3.40067e-05 -6.35374e-05)
(0.000577778 7.12704e-06 -2.71943e-05)
(0.000357461 -7.34618e-06 -1.08624e-06)
(0.000225029 -1.24248e-05 9.18222e-06)
(0.000157794 -1.88889e-05 1.77339e-05)
(0.000104926 -1.83993e-05 1.24185e-05)
(0.000104926 -1.83993e-05 1.24185e-05)
(0.000104926 -1.83993e-05 1.24185e-05)
(0.00171715 7.62661e-05 -0.000131445)
(0.00103406 3.47698e-05 -6.72088e-05)
(0.0006305 7.04477e-06 -3.19927e-05)
(0.000404532 -9.26074e-06 -5.04475e-06)
(0.000264199 -1.71969e-05 8.76361e-06)
(0.000190551 -2.39472e-05 1.73443e-05)
(0.000190551 -2.39472e-05 1.73443e-05)
)
;
    }
    procBoundary6to4
    {
        type            processor;
        value           nonuniform List<vector> 
27
(
(0.00160606 -2.29534e-05 -6.62463e-05)
(0.000902273 -8.09193e-06 -3.23855e-05)
(0.000511518 -3.93878e-06 -1.51094e-05)
(0.000294991 -1.67425e-07 -1.2705e-06)
(0.000173696 9.48736e-07 4.75355e-06)
(0.000105447 3.81695e-06 7.3639e-06)
(6.55208e-05 6.71753e-07 7.44248e-06)
(3.92377e-05 -1.29795e-06 8.21447e-06)
(2.17678e-05 -2.0127e-06 4.99377e-06)
(0.00163525 -1.66585e-05 7.70448e-07)
(0.000930856 -5.88934e-06 -3.01173e-06)
(0.000531842 -4.17586e-06 -6.14236e-06)
(0.000312641 -1.71255e-06 -3.10179e-06)
(0.000184531 -1.65435e-06 -2.21084e-07)
(0.000118002 -1.11086e-06 2.755e-08)
(7.20787e-05 -2.52061e-06 -1.05681e-07)
(5.16194e-05 -4.31584e-06 -4.17282e-06)
(2.624e-05 -5.67713e-06 -1.55507e-06)
(0.0016805 -1.57838e-05 2.5358e-05)
(0.000980546 -9.46723e-06 9.59736e-06)
(0.00057444 -6.20786e-06 -7.92778e-07)
(0.000353299 -3.22779e-06 -2.57112e-06)
(0.000217242 -3.57908e-06 -1.64842e-06)
(0.000148959 -3.93038e-06 -9.07116e-07)
(9.68253e-05 -5.75105e-06 -3.77259e-06)
(7.7839e-05 -8.49281e-06 -7.28263e-06)
(4.35477e-05 -1.30091e-05 -5.18344e-06)
)
;
    }
    procBoundary6to7
    {
        type            processor;
        value           nonuniform List<vector> 
12
(
(2.15081e-05 -1.05248e-05 6.00974e-06)
(5.12948e-05 -2.10669e-05 1.92623e-06)
(6.32636e-05 -2.95954e-05 -3.44554e-06)
(7.63195e-06 -8.909e-06 6.89855e-07)
(6.87433e-06 -2.05063e-05 -8.65833e-07)
(-2.11456e-08 -3.17411e-05 -3.16337e-06)
(5.61522e-06 -1.21704e-05 -7.08152e-06)
(1.74422e-05 -2.47891e-05 -1.16481e-05)
(1.67911e-05 -3.21416e-05 -7.76273e-06)
(1.15793e-05 -1.52562e-05 -1.84347e-05)
(1.42179e-05 -2.38851e-05 -2.18611e-05)
(1.25947e-05 -3.09144e-05 -2.12064e-05)
)
;
    }
}


// ************************************************************************* //
