/*--------------------------------*- C++ -*----------------------------------*\
| =========                 |                                                 |
| \\      /  F ield         | OpenFOAM: The Open Source CFD Toolbox           |
|  \\    /   O peration     | Version:  4.x                                   |
|   \\  /    A nd           | Web:      www.OpenFOAM.org                      |
|    \\/     M anipulation  |                                                 |
\*---------------------------------------------------------------------------*/
FoamFile
{
    version     2.0;
    format      ascii;
    class       volVectorField;
    location    "51";
    object      GField;
}
// * * * * * * * * * * * * * * * * * * * * * * * * * * * * * * * * * * * * * //

dimensions      [1 -2 -1 0 0 0 0];

internalField   nonuniform List<vector> 
87
(
(87.4933 1.84477 -0.573117)
(27.0751 2.00104 -1.68591)
(96.1504 2.95149 -0.998661)
(103.276 0.807114 -2.72011)
(50.1513 -0.580349 -3.03406)
(106.088 -0.33687 -2.87322)
(92.0874 0.886175 -1.79111)
(26.2314 0.560507 -0.564055)
(87.0067 0.906766 -1.21274)
(11.551 0.176217 -0.375046)
(83.2688 0.217023 -0.654108)
(1.6411 0.024267 -0.0629836)
(81.6612 -0.687449 -0.31427)
(3.37867e-05 5.89458e-07 -4.91094e-07)
(80.8652 -1.318 -0.404176)
(94.2773 5.28556 -1.74285)
(30.5372 1.91768 -0.98265)
(90.7983 4.93242 -1.71036)
(20.8385 1.38952 -1.02816)
(88.1957 2.85767 -1.55372)
(12.1617 0.849874 -0.788569)
(86.7552 0.428727 -1.59938)
(4.4141 0.381106 -0.415536)
(86.1477 -1.41893 -1.21328)
(96.1978 2.87538 -1.81971)
(39.7038 1.30802 -1.21937)
(96.6046 2.97753 -1.91165)
(40.5623 0.917943 -1.84509)
(95.906 2.01048 -1.91751)
(38.3623 0.540216 -1.89453)
(95.5423 1.51239 -1.74112)
(34.534 0.0972893 -2.13426)
(94.2089 -0.538555 -1.40122)
(92.947 2.24633 3.06362)
(31.0331 0.918221 1.00796)
(89.8667 2.50867 3.20121)
(22.0033 0.613907 0.987259)
(88.1239 1.74436 2.42235)
(14.3381 0.0931965 0.670949)
(86.9762 0.814424 0.514262)
(7.50076 -0.111399 0.630454)
(86.401 0.369584 0.0244351)
(94.4426 5.10078 2.48554)
(36.0308 2.23781 1.00045)
(93.0232 5.05896 3.01025)
(32.7369 1.60927 0.720481)
(92.2844 4.09294 2.81039)
(29.5434 1.47864 0.596792)
(91.5914 3.30558 2.47527)
(25.3414 1.14936 0.39833)
(92.1786 2.42091 1.48445)
(95.8721 2.48508 1.65093)
(42.6349 1.24509 0.617906)
(98.3238 2.29679 1.94827)
(46.6005 0.885035 0.736939)
(99.6036 1.62295 2.04935)
(48.9284 0.805008 0.478975)
(101.374 1.29897 1.76478)
(50.1653 0.425422 0.370069)
(103.115 0.603518 1.90402)
(94.5954 2.14215 2.25276)
(40.1198 0.685375 0.939236)
(94.9132 1.57794 2.21365)
(40.2462 0.359395 0.634185)
(95.0956 0.557404 2.02541)
(40.0659 -0.314632 0.596618)
(95.272 -0.615056 1.88097)
(38.0372 -0.854722 0.795059)
(96.7549 -0.853219 1.6589)
(95.2303 3.85429 1.45117)
(42.5838 1.87119 0.638755)
(97.1158 3.79949 1.23432)
(45.8748 1.70111 0.305145)
(98.4777 2.73495 0.845845)
(47.8059 1.42075 0.416502)
(100.107 2.03799 0.865579)
(48.4531 0.497219 0.0278874)
(101.508 0.689788 0.343142)
(96.3782 1.95956 0.936555)
(45.6009 0.872669 0.229728)
(100.337 1.77848 0.709786)
(52.9709 0.819391 0.17057)
(104.478 1.2187 0.397733)
(58.2117 0.223553 -0.230113)
(107.474 0.681849 0.210104)
(61.433 -0.297206 -0.765032)
(108.808 -0.284105 -0.578611)
)
;

boundaryField
{
    inlet
    {
        type            calculated;
        value           uniform (67 0 0);
    }
    outlet
    {
        type            calculated;
        value           nonuniform 0();
    }
    wall
    {
        type            calculated;
        value           uniform (0 0 0);
    }
    procBoundary6to0
    {
        type            processor;
        value           uniform (88.9136 -0.147817 -0.955996);
    }
    procBoundary6to2
    {
        type            processor;
        value           nonuniform List<vector> 
32
(
(85.9493 -1.59417 0.16313)
(10.0246 0.563878 -0.519016)
(90.9445 -0.229611 -0.40511)
(101.954 1.81773 -2.50625)
(46.3259 0.268149 -2.29101)
(103.463 0.663753 -1.52041)
(94.7474 1.85692 -5.60205)
(28.9745 0.991649 -2.26771)
(90.4167 2.57626 -4.46075)
(18.8895 0.678825 -1.5469)
(88.3953 2.08245 -2.3974)
(11.0965 0.472308 -0.798051)
(87.5085 1.59557 -0.0777813)
(4.3 0.243726 -0.432206)
(4.3 0.243726 -0.432206)
(4.3 0.243726 -0.432206)
(94.6957 5.01523 -4.76517)
(34.281 2.45392 -2.32055)
(93.0933 5.45775 -4.20926)
(30.2967 1.96208 -2.06041)
(92.8883 4.85544 -3.27847)
(27.8241 1.83077 -1.57613)
(93.8386 4.12822 -1.88701)
(93.8386 4.12822 -1.88701)
(93.8386 4.12822 -1.88701)
(96.3516 2.52496 -4.35013)
(40.9705 1.16559 -2.67353)
(98.3151 2.30393 -4.40573)
(44.334 0.803186 -3.12124)
(100.572 1.61311 -4.05311)
(47.4665 0.384774 -2.47201)
(47.4665 0.384774 -2.47201)
)
;
    }
    procBoundary6to4
    {
        type            processor;
        value           nonuniform List<vector> 
27
(
(94.4692 -1.95718 -2.19011)
(30.0454 -0.529021 -0.84076)
(89.3731 -1.81885 -1.58519)
(18.5351 -0.738543 -0.771543)
(86.7103 -1.5134 -1.14985)
(8.54218 -0.466059 -0.245433)
(85.1662 0.277513 -0.770203)
(1.33789 -0.116587 -0.0299723)
(84.7898 0.0150838 0.257399)
(93.6421 -0.951964 1.23423)
(31.4135 0.0821803 1.00317)
(90.1657 -0.123856 2.4002)
(21.9063 -0.0236723 0.622829)
(87.8924 -0.0783043 2.50812)
(14.4469 -0.241059 0.635662)
(87.4843 -0.135642 2.35446)
(9.05231 -0.198181 0.405424)
(88.5912 -0.162709 0.729798)
(93.4151 -0.525798 1.55025)
(38.1691 -0.235129 1.03695)
(93.9478 -0.818882 2.2635)
(37.7797 -0.563478 0.954971)
(94.8079 -0.886584 2.18713)
(39.217 -0.838506 0.995203)
(97.4162 -1.0754 2.37515)
(42.5253 -0.948144 0.54579)
(100.214 -1.29835 1.45326)
)
;
    }
    procBoundary6to7
    {
        type            processor;
        value           nonuniform List<vector> 
12
(
(0.198137 0.0262233 -0.0239092)
(28.2382 2.74108 -2.26343)
(50.8273 -1.58846 -3.89731)
(3.40398e-05 1.65823e-06 -8.82417e-08)
(3.57708e-05 4.55693e-06 -3.31528e-06)
(26.255 -0.323524 -2.15568)
(1.29026 -0.00143465 0.157065)
(21.9009 1.11093 0.502654)
(50.5966 -0.37106 0.61589)
(36.0394 -1.05998 0.467429)
(47.973 0.476201 -0.588019)
(61.4028 -1.13095 -1.41057)
)
;
    }
}


// ************************************************************************* //
