/*--------------------------------*- C++ -*----------------------------------*\
| =========                 |                                                 |
| \\      /  F ield         | OpenFOAM: The Open Source CFD Toolbox           |
|  \\    /   O peration     | Version:  4.x                                   |
|   \\  /    A nd           | Web:      www.OpenFOAM.org                      |
|    \\/     M anipulation  |                                                 |
\*---------------------------------------------------------------------------*/
FoamFile
{
    version     2.0;
    format      ascii;
    class       volScalarField;
    location    "51";
    object      p_rgh;
}
// * * * * * * * * * * * * * * * * * * * * * * * * * * * * * * * * * * * * * //

dimensions      [1 -1 -2 0 0 0 0];

internalField   nonuniform List<scalar> 
87
(
82.1305
38.1279
81.6045
88.6824
38.4401
81.6261
112.243
94.0227
104.923
76.4623
97.1662
58.426
89.2241
40.63
81.8841
111.604
93.7419
104.461
75.9484
96.9914
57.6911
89.5003
39.4034
82.092
111.009
93.4871
103.923
75.8568
96.6135
57.6563
89.2194
39.5075
82.233
112
93.951
104.669
76.0968
97.0978
57.9925
89.5563
39.6917
82.2332
111.343
93.6632
104.065
75.8554
96.5494
57.6852
89.1081
39.2899
81.8528
110.832
93.4046
103.679
75.7576
96.2714
57.56
88.8821
39.2766
81.7634
111.515
93.7766
104.248
76.0456
96.6843
57.9409
89.1652
39.5284
81.9308
111.049
93.5431
103.854
75.8662
96.3903
57.6187
88.9559
39.3747
81.7808
110.656
93.4125
103.548
75.7768
96.2035
57.6875
88.8225
39.556
81.8182
)
;

boundaryField
{
    inlet
    {
        type            fixedFluxPressure;
        gradient        nonuniform List<scalar> 9(-3.46106e-07 -2.31641e-07 -3.09557e-08 -1.55705e-07 -6.22582e-08 3.16351e-08 -1.7582e-07 2.00942e-07 6.82063e-07);
        value           nonuniform List<scalar> 9(112.243 111.604 111.009 112 111.343 110.832 111.515 111.049 110.656);
    }
    outlet
    {
        type            fixedValue;
        value           nonuniform 0();
    }
    wall
    {
        type            fixedFluxPressure;
        gradient        nonuniform List<scalar> 
57
(
2.39426e-08
-1.08251e-07
-3.63864e-08
1.03449e-07
9.82257e-08
6.71996e-08
-1.62301e-07
1.65539e-08
4.86687e-07
-2.11253e-07
7.56377e-08
-1.56675e-07
-1.80917e-07
-7.84939e-08
5.70608e-08
-3.49077e-07
-1.5192e-07
6.4677e-08
5.69578e-08
4.77224e-07
1.6696e-08
3.35339e-07
1.11946e-06
9.38937e-07
4.04253e-07
-4.12583e-07
-7.88099e-07
-9.06121e-08
-1.67581e-07
-8.66702e-07
-8.71273e-07
-4.63415e-07
-3.4447e-07
-3.28521e-07
-1.05556e-06
-5.60029e-07
-1.11915e-06
-6.36283e-07
-4.52097e-07
-4.81482e-07
-4.12774e-07
-1.89699e-07
-1.53899e-06
-9.61141e-07
-5.71652e-07
-2.56906e-07
-6.23077e-07
-4.37972e-07
-2.14861e-07
2.09242e-07
-2.65948e-06
-3.07086e-07
3.80975e-07
-4.97322e-07
-8.76403e-07
4.30961e-07
7.7436e-07
)
;
        value           nonuniform List<scalar> 
57
(
111.515
111.049
110.656
93.7766
93.5431
93.4125
104.248
103.854
103.548
76.0456
75.8662
75.7768
96.6843
96.3903
96.2035
57.9409
57.6187
57.6875
89.1652
88.9559
88.8225
39.5284
39.3747
39.556
81.9308
81.7808
81.8182
111.009
110.832
110.656
93.4871
93.4046
93.4125
103.923
103.679
103.548
75.8568
75.7576
75.7768
96.6135
96.2714
96.2035
57.6563
57.56
57.6875
88.6824
89.2194
88.8821
88.8225
38.4401
39.5075
39.2766
39.556
81.6261
82.233
81.7634
81.8182
)
;
    }
    procBoundary6to0
    {
        type            processor;
        value           uniform 81.9873;
    }
    procBoundary6to2
    {
        type            processor;
        value           nonuniform List<scalar> 
32
(
81.7667
38.5909
82.0028
88.8246
38.681
81.8699
111.6
93.7877
104.441
75.7258
96.9645
57.5104
89.4762
39.219
39.219
39.219
110.953
93.2982
103.751
75.2553
96.2668
56.8798
88.8026
88.8026
88.8026
110.435
93.071
103.359
75.1744
95.9981
56.9134
56.9134
)
;
    }
    procBoundary6to4
    {
        type            processor;
        value           nonuniform List<scalar> 
27
(
111.846
94.0372
104.641
76.103
97.0187
57.8618
89.3257
39.4925
81.7948
111.881
93.9268
104.585
76.0751
96.9062
57.6439
89.2866
39.027
81.9416
111.539
93.6239
104.154
75.8659
96.4824
57.4276
88.8357
39.0528
81.6616
)
;
    }
    procBoundary6to7
    {
        type            processor;
        value           nonuniform List<scalar> 
12
(
20.9888
19.1611
19.7176
22.9844
21.1374
21.279
21.4333
20.6607
20.868
21.3835
20.9257
21.2711
)
;
    }
}


// ************************************************************************* //
