/*--------------------------------*- C++ -*----------------------------------*\
| =========                 |                                                 |
| \\      /  F ield         | OpenFOAM: The Open Source CFD Toolbox           |
|  \\    /   O peration     | Version:  4.x                                   |
|   \\  /    A nd           | Web:      www.OpenFOAM.org                      |
|    \\/     M anipulation  |                                                 |
\*---------------------------------------------------------------------------*/
FoamFile
{
    version     2.0;
    format      ascii;
    class       surfaceScalarField;
    location    "51";
    object      phi;
}
// * * * * * * * * * * * * * * * * * * * * * * * * * * * * * * * * * * * * * //

dimensions      [0 3 -1 0 0 0 0];

internalField   nonuniform List<scalar> 
192
(
2.8436e-07
-5.76044e-08
7.45618e-06
8.37276e-08
-1.25209e-07
1.54721e-07
-1.31397e-07
9.39169e-06
-2.646e-07
9.46734e-06
-3.06734e-07
-2.53634e-07
7.22007e-06
3.65813e-07
7.55313e-08
6.88098e-06
1.46863e-07
2.63452e-08
6.02659e-06
3.4601e-07
1.17913e-07
5.74912e-06
9.30457e-08
3.65975e-08
5.20463e-06
1.82131e-07
1.04708e-07
5.03786e-06
5.22336e-08
3.64067e-08
4.99474e-06
-1.5557e-08
1.153e-08
4.90123e-06
2.28822e-08
3.7522e-08
-1.62148e-07
-2.2791e-08
7.61564e-06
4.83496e-07
4.42025e-08
7.37441e-06
1.91109e-07
1.16177e-09
6.82345e-06
4.6864e-07
7.72999e-08
6.61464e-06
1.36588e-07
-1.80108e-08
6.14684e-06
2.88466e-07
7.47757e-08
5.98759e-06
8.21699e-08
-1.11788e-08
5.59767e-06
1.15155e-07
5.21948e-08
5.468e-06
2.79932e-08
-6.46733e-10
-1.15958e-07
1.62708e-08
8.29091e-06
-9.81109e-09
8.28677e-06
-3.54821e-08
8.37856e-06
2.39264e-09
8.2861e-06
-6.54161e-08
8.21246e-06
8.10472e-09
8.11916e-06
-8.35825e-08
7.96818e-06
1.53031e-09
7.79349e-06
-1.04053e-07
3.01606e-08
7.56483e-06
4.35383e-07
3.15058e-07
7.3479e-06
1.87009e-07
1.15397e-07
6.83758e-06
4.48434e-07
3.20852e-07
6.68132e-06
1.31772e-07
9.5972e-08
6.27486e-06
3.45972e-07
2.6361e-07
6.13395e-06
9.3295e-08
7.49952e-08
5.79902e-06
2.44245e-07
1.42125e-07
5.67161e-06
6.18202e-08
8.42833e-08
1.65502e-07
9.99226e-08
7.96022e-06
4.49388e-07
2.33242e-07
7.84492e-06
2.06347e-07
9.71238e-08
7.68354e-06
4.35708e-07
2.51402e-07
7.58887e-06
1.47722e-07
6.07179e-08
7.45455e-06
3.38541e-07
2.1652e-07
7.34138e-06
1.35243e-07
6.00457e-08
7.16724e-06
2.72725e-07
1.9785e-07
7.11006e-06
9.31825e-08
2.51762e-08
1.79082e-07
1.0822e-07
8.44955e-06
1.53294e-07
8.57024e-06
5.01779e-08
8.8509e-06
1.57434e-07
8.87949e-06
5.37164e-08
9.08125e-06
1.44887e-07
9.11825e-06
1.46579e-08
9.27559e-06
1.1692e-07
9.2883e-06
-2.35809e-08
7.83618e-08
8.21871e-06
3.55285e-07
8.20907e-06
1.51541e-07
8.25613e-06
3.18633e-07
8.21774e-06
1.22148e-07
8.26653e-06
1.95143e-07
8.20705e-06
6.58049e-08
8.16438e-06
8.44243e-08
8.16252e-06
-2.09447e-08
-9.53496e-09
8.40737e-06
3.44424e-07
8.49351e-06
1.62522e-07
8.73312e-06
3.30425e-07
8.7667e-06
1.49284e-07
8.94418e-06
2.34185e-07
8.97275e-06
9.72799e-08
9.09392e-06
1.61106e-07
9.08643e-06
1.17238e-08
2.39743e-08
8.66098e-06
8.87368e-06
9.36154e-06
9.56454e-06
9.94361e-06
1.00556e-05
1.03336e-05
1.03217e-05
)
;

boundaryField
{
    inlet
    {
        type            calculated;
        value           uniform -8.16327e-06;
    }
    outlet
    {
        type            calculated;
        value           nonuniform 0();
    }
    wall
    {
        type            calculated;
        value           nonuniform List<scalar> 
57
(
0
0
0
0
0
0
0
0
-1.54074e-33
0
0
0
0
0
0
0
0
0
0
0
0
0
0
0
0
0
0
0
0
0
0
0
0
0
0
0
0
0
0
0
0
0
0
0
0
0
0
0
0
0
0
0
0
-1.54074e-33
0
0
0
)
;
    }
    procBoundary6to0
    {
        type            processor;
        value           uniform -1.00293e-07;
    }
    procBoundary6to2
    {
        type            processor;
        value           nonuniform List<scalar> 
32
(
2.46209e-08
1.29812e-07
8.27278e-08
3.09238e-07
3.14809e-07
2.59878e-07
4.38091e-07
1.67726e-07
3.36229e-07
1.14243e-07
1.80794e-07
5.15495e-08
2.29743e-08
-5.54242e-06
-1.33648e-07
2.59492e-08
3.85735e-07
1.9583e-07
3.51028e-07
1.8328e-07
2.86686e-07
1.40494e-07
-7.41086e-06
-2.92198e-07
2.0701e-07
3.65661e-07
2.30733e-07
3.74452e-07
2.94473e-07
3.54e-07
-9.14413e-06
2.59052e-07
)
;
    }
    procBoundary6to4
    {
        type            processor;
        value           nonuniform List<scalar> 
27
(
6.37609e-08
-1.84376e-09
5.42399e-08
3.35779e-08
7.68598e-08
2.65818e-08
2.41687e-08
7.15962e-09
7.71863e-08
-7.64725e-08
-5.91336e-08
-1.41052e-07
-3.48875e-08
-9.8413e-08
9.02263e-09
-3.99085e-08
1.88318e-08
-1.19607e-08
-9.56669e-08
-2.65124e-08
-4.48357e-08
1.22169e-08
1.96727e-08
6.86714e-08
1.00366e-07
1.0709e-07
1.27612e-07
)
;
    }
    procBoundary6to7
    {
        type            processor;
        value           nonuniform List<scalar> 
12
(
5.39133e-06
7.63448e-06
9.61582e-06
4.95138e-06
5.27414e-06
7.39374e-06
5.39535e-06
7.00453e-06
9.41918e-06
8.14437e-06
9.16114e-06
1.04241e-05
)
;
    }
}


// ************************************************************************* //
