/*--------------------------------*- C++ -*----------------------------------*\
| =========                 |                                                 |
| \\      /  F ield         | OpenFOAM: The Open Source CFD Toolbox           |
|  \\    /   O peration     | Version:  4.x                                   |
|   \\  /    A nd           | Web:      www.OpenFOAM.org                      |
|    \\/     M anipulation  |                                                 |
\*---------------------------------------------------------------------------*/
FoamFile
{
    version     2.0;
    format      ascii;
    class       surfaceScalarField;
    location    "43.5";
    object      phi;
}
// * * * * * * * * * * * * * * * * * * * * * * * * * * * * * * * * * * * * * //

dimensions      [0 3 -1 0 0 0 0];

internalField   nonuniform List<scalar> 
259
(
1.0152e-05
-1.9241e-08
1.07434e-05
-5.0665e-08
1.10017e-05
-6.40566e-08
-2.62396e-07
1.14358e-05
-9.17879e-08
-4.67189e-07
1.16624e-05
-7.92654e-08
-1.68866e-07
-7.71011e-08
-2.79751e-07
8.59812e-06
2.12881e-07
-7.27466e-07
8.83616e-06
1.04602e-07
-3.69454e-07
9.34974e-06
2.44163e-07
-7.93349e-07
9.50489e-06
1.37098e-07
-3.11487e-07
9.85888e-06
2.18671e-07
-6.23323e-07
9.95904e-06
7.98617e-08
-2.44078e-07
1.01657e-05
1.4829e-07
-4.46772e-07
1.02243e-05
1.09539e-08
-1.48786e-07
1.09288e-07
-2.23116e-07
8.81015e-06
2.9557e-07
-7.29569e-07
9.15507e-06
1.46088e-07
-3.86409e-07
9.87494e-06
3.00082e-07
-7.75793e-07
1.01766e-05
1.61628e-07
-3.26159e-07
1.07178e-05
2.81483e-07
-6.04075e-07
1.09389e-05
1.13506e-07
-2.5474e-07
1.13362e-05
2.09632e-07
-4.58612e-07
1.15172e-05
2.32718e-08
-1.93271e-07
1.27795e-07
-3.11812e-07
9.10339e-06
-6.44553e-07
9.62663e-06
-3.77157e-07
1.05946e-05
-6.67885e-07
1.11174e-05
-3.61159e-07
1.19432e-05
-5.44289e-07
1.2387e-05
-3.30312e-07
1.30183e-05
-4.21703e-07
1.32882e-05
-2.46568e-07
-3.17345e-07
7.45324e-06
1.74257e-08
7.31839e-06
3.59988e-08
7.35435e-06
7.65277e-09
-1.74341e-07
4.26055e-08
-2.41963e-07
8.01683e-06
3.10087e-07
-8.57827e-07
7.92048e-06
1.32716e-07
-4.07483e-07
7.64918e-06
3.5379e-07
-8.38985e-07
7.50695e-06
1.5195e-07
-2.84891e-07
7.18847e-06
3.67477e-07
-5.84598e-07
7.04267e-06
1.09048e-07
-1.89896e-07
6.67491e-06
2.88571e-07
-3.3159e-07
6.59081e-06
5.33659e-08
-1.10394e-07
2.19548e-07
-7.43804e-08
8.20186e-06
3.74489e-07
-8.32565e-07
8.18971e-06
1.82583e-07
-4.24125e-07
8.18816e-06
4.13369e-07
-8.33823e-07
8.18245e-06
1.65143e-07
-3.33643e-07
8.18834e-06
3.77235e-07
-6.19724e-07
8.1835e-06
1.13754e-07
-2.54603e-07
8.14405e-06
3.04481e-07
-4.3507e-07
8.17796e-06
3.08137e-08
-2.0463e-07
1.94536e-07
-2.61101e-07
8.66118e-06
-7.67975e-07
8.91288e-06
-4.46282e-07
9.43211e-06
-7.73743e-07
9.67403e-06
-4.37934e-07
1.01231e-05
-6.16154e-07
1.03158e-05
-4.09214e-07
1.06519e-05
-4.53376e-07
1.08006e-05
-3.64446e-07
-3.41293e-07
6.40883e-06
-6.79289e-08
-1.17092e-07
7.7419e-06
3.14448e-07
-7.30599e-07
7.53107e-06
1.11973e-07
-3.25305e-07
6.98907e-06
3.03577e-07
-6.30931e-07
6.78584e-06
8.93845e-08
-2.03022e-07
6.27155e-06
2.26907e-07
-3.80535e-07
6.07849e-06
3.72171e-08
-1.04066e-07
5.6213e-06
7.32992e-08
-1.23461e-07
5.46189e-06
2.56433e-08
-4.45586e-08
-4.31423e-08
7.92005e-06
3.77357e-07
-6.52254e-07
7.75355e-06
1.74035e-07
-3.19689e-07
7.37864e-06
4.34009e-07
-5.89347e-07
7.22302e-06
1.58878e-07
-2.47518e-07
6.88601e-06
3.71978e-07
-4.27782e-07
6.7492e-06
8.97442e-08
-1.7032e-07
6.36824e-06
2.62068e-07
-2.42882e-07
6.27074e-06
5.72095e-08
8.28274e-08
8.37597e-06
-6.03321e-07
8.46199e-06
-3.58267e-07
8.72111e-06
-5.98861e-07
8.81821e-06
-3.76156e-07
9.06884e-06
-4.94804e-07
9.05322e-06
-3.03849e-07
9.17628e-06
9.19058e-06
7.5484e-06
4.05845e-07
7.25629e-06
2.01118e-07
6.67642e-06
4.75389e-07
6.50389e-06
1.50652e-07
6.08343e-06
4.06425e-07
5.95822e-06
1.251e-07
5.62371e-06
3.23352e-07
7.84865e-06
4.5e-07
7.70857e-06
2.14778e-07
7.4709e-06
4.65415e-07
7.39271e-06
1.6258e-07
7.26141e-06
3.88487e-07
7.23097e-06
1.2639e-07
8.37178e-06
8.45646e-06
8.69001e-06
8.76796e-06
9.00494e-06
)
;

boundaryField
{
    inlet
    {
        type            calculated;
        value           nonuniform List<scalar> 
12
(
-8.16327e-06
-8.16327e-06
-8.16327e-06
-8.16327e-06
-8.16327e-06
-8.16327e-06
-8.16327e-06
-8.16327e-06
-8.16327e-06
-8.16327e-06
-8.16327e-06
-8.16327e-06
)
;
    }
    outlet
    {
        type            calculated;
        value           nonuniform 0();
    }
    wall
    {
        type            calculated;
        value           nonuniform List<scalar> 
66
(
0
0
0
0
0
0
0
0
0
0
0
0
0
0
0
0
0
0
0
0
0
0
0
0
0
0
0
0
0
0
0
2.46519e-32
0
0
0
0
0
0
0
0
0
0
0
0
0
0
0
0
0
0
0
0
0
0
0
1.2326e-32
0
0
0
0
0
0
0
0
0
0
)
;
    }
    procBoundary2to0
    {
        type            processor;
        value           nonuniform List<scalar> 
44
(
1.1044e-07
1.478e-07
6.81566e-08
1.24889e-07
2.15049e-08
7.74722e-08
7.97335e-08
2.68109e-08
-9.89713e-06
3.55989e-08
-3.46107e-07
-6.8849e-07
2.45746e-09
3.05404e-08
-3.81405e-08
-3.02528e-08
-3.32883e-08
1.66193e-09
-3.68608e-08
-3.63108e-08
-7.53292e-06
-8.77252e-08
-2.02599e-07
-3.98877e-07
7.25147e-08
1.02134e-07
-2.03126e-08
1.66841e-08
3.03711e-08
3.19706e-08
8.33217e-08
7.00142e-08
-6.44099e-06
1.75765e-07
-1.46771e-07
-1.50409e-07
-8.39398e-08
-6.66021e-08
-1.87539e-07
-6.52047e-08
-1.78307e-07
-5.05058e-08
-8.01974e-08
-3.40057e-08
)
;
    }
    procBoundary2to3
    {
        type            processor;
        value           nonuniform List<scalar> 
12
(
1.19418e-05
1.0261e-05
1.18105e-05
1.37333e-05
7.30421e-06
6.26513e-06
8.15226e-06
1.10191e-05
6.33223e-06
5.31931e-06
5.98779e-06
9.18524e-06
)
;
    }
    procBoundary2to6
    {
        type            processor;
        value           nonuniform List<scalar> 
32
(
-5.74889e-09
-1.38695e-07
-1.04124e-07
-3.1436e-07
-3.21545e-07
-2.53118e-07
-4.37634e-07
-1.67713e-07
-3.38918e-07
-1.15935e-07
-1.88193e-07
-5.34529e-08
-3.21057e-08
5.52429e-06
1.13064e-07
-2.41918e-08
-3.81798e-07
-1.93262e-07
-3.41701e-07
-1.81265e-07
-2.78543e-07
-1.41164e-07
7.22419e-06
2.93872e-07
-2.06623e-07
-3.61834e-07
-2.2817e-07
-3.67e-07
-2.9152e-07
-3.43302e-07
9.08373e-06
-2.56248e-07
)
;
    }
}


// ************************************************************************* //
