/*--------------------------------*- C++ -*----------------------------------*\
| =========                 |                                                 |
| \\      /  F ield         | OpenFOAM: The Open Source CFD Toolbox           |
|  \\    /   O peration     | Version:  4.x                                   |
|   \\  /    A nd           | Web:      www.OpenFOAM.org                      |
|    \\/     M anipulation  |                                                 |
\*---------------------------------------------------------------------------*/
FoamFile
{
    version     2.0;
    format      ascii;
    class       volVectorField;
    location    "26";
    object      impParticleForces;
}
// * * * * * * * * * * * * * * * * * * * * * * * * * * * * * * * * * * * * * //

dimensions      [1 1 -2 0 0 0 0];

internalField   nonuniform List<vector> 
114
(
(0.00240029 -1.61021e-06 -8.20382e-05)
(0.00243581 -2.94587e-07 -7.71232e-05)
(0.00243348 1.73466e-06 -7.01269e-05)
(0.00246636 4.56749e-06 -6.40625e-05)
(0.00244286 8.49733e-06 -5.70757e-05)
(0.00245338 1.31794e-05 -5.14037e-05)
(0.00231207 5.79627e-06 -8.55982e-05)
(0.00233891 6.58994e-06 -8.66661e-05)
(0.00238226 7.55333e-06 -8.56219e-05)
(0.00239898 8.19458e-06 -8.11868e-05)
(0.00244294 8.86581e-06 -7.66069e-05)
(0.00243638 9.32148e-06 -6.92363e-05)
(0.00247126 1.06174e-05 -6.30281e-05)
(0.00245365 1.28634e-05 -5.55888e-05)
(0.00245387 1.55037e-05 -4.92551e-05)
(0.00228653 1.33479e-05 -8.31985e-05)
(0.0023186 1.42963e-05 -8.45265e-05)
(0.0023616 1.52038e-05 -8.36759e-05)
(0.00238083 1.52852e-05 -7.92653e-05)
(0.00242566 1.56091e-05 -7.4658e-05)
(0.0024226 1.49813e-05 -6.75456e-05)
(0.0024589 1.5279e-05 -6.12385e-05)
(0.00244925 1.57987e-05 -5.37776e-05)
(0.00246605 1.71939e-05 -4.7695e-05)
(0.00224939 1.62094e-05 -8.03844e-05)
(0.00227049 1.6904e-05 -8.08923e-05)
(0.00232311 1.79825e-05 -8.04201e-05)
(0.0023347 1.77046e-05 -7.61417e-05)
(0.0023673 1.76373e-05 -7.14772e-05)
(0.00237329 1.69384e-05 -6.49335e-05)
(0.00238969 1.67015e-05 -5.86198e-05)
(0.00240648 1.69214e-05 -5.20415e-05)
(0.00242269 1.76942e-05 -4.58566e-05)
(0.00249618 1.08233e-06 -7.14624e-05)
(0.00252843 3.72224e-06 -6.49951e-05)
(0.00247464 7.56372e-06 -5.70022e-05)
(0.00249051 1.18755e-05 -5.18818e-05)
(0.00233983 6.5329e-06 -8.53352e-05)
(0.00238712 7.50787e-06 -8.77554e-05)
(0.00245124 8.7298e-06 -8.86128e-05)
(0.00246106 9.21831e-06 -8.30646e-05)
(0.00249587 9.64676e-06 -7.78218e-05)
(0.00247866 9.55618e-06 -6.94549e-05)
(0.00252208 1.04324e-05 -6.34535e-05)
(0.00248454 1.24766e-05 -5.55016e-05)
(0.00248142 1.51727e-05 -4.89207e-05)
(0.00232465 1.48183e-05 -8.38284e-05)
(0.00237756 1.63978e-05 -8.65142e-05)
(0.00244839 1.8122e-05 -8.77235e-05)
(0.00244976 1.73775e-05 -8.15725e-05)
(0.00247785 1.71439e-05 -7.60215e-05)
(0.00247282 1.60611e-05 -6.83698e-05)
(0.0025031 1.59119e-05 -6.20063e-05)
(0.00248201 1.5994e-05 -5.42619e-05)
(0.00249357 1.73429e-05 -4.76659e-05)
(0.00227606 1.74983e-05 -7.99968e-05)
(0.00231419 1.87198e-05 -8.14996e-05)
(0.00238578 2.04687e-05 -8.27431e-05)
(0.00238122 1.94546e-05 -7.70601e-05)
(0.0024044 1.89251e-05 -7.18767e-05)
(0.00241402 1.80119e-05 -6.54037e-05)
(0.0024342 1.76165e-05 -5.89741e-05)
(0.00242946 1.72244e-05 -5.21092e-05)
(0.00243261 1.77697e-05 -4.55612e-05)
(0.00244405 5.41011e-06 -4.93957e-05)
(0.00244331 8.32953e-06 -4.35709e-05)
(0.00236644 7.46419e-06 -7.92274e-05)
(0.00239705 8.23129e-06 -8.01512e-05)
(0.00245274 9.30608e-06 -8.01633e-05)
(0.00245641 9.40022e-06 -7.50361e-05)
(0.00247861 9.28157e-06 -6.971e-05)
(0.0024655 8.97229e-06 -6.25374e-05)
(0.00249258 9.18776e-06 -5.68463e-05)
(0.00245537 1.09236e-05 -4.94918e-05)
(0.00245325 1.32929e-05 -4.31829e-05)
(0.00233636 1.56956e-05 -7.68807e-05)
(0.002381 1.71669e-05 -7.8677e-05)
(0.00245429 1.91153e-05 -7.97853e-05)
(0.00245883 1.82327e-05 -7.49797e-05)
(0.00247746 1.73514e-05 -6.92064e-05)
(0.00245567 1.5535e-05 -6.17977e-05)
(0.00249316 1.50803e-05 -5.63047e-05)
(0.00246153 1.49368e-05 -4.93271e-05)
(0.00248034 1.60544e-05 -4.34466e-05)
(0.00229631 1.87118e-05 -7.42925e-05)
(0.00233515 2.01504e-05 -7.56951e-05)
(0.00239266 2.15357e-05 -7.58306e-05)
(0.00239938 2.06138e-05 -7.17006e-05)
(0.00240132 1.9153e-05 -6.57728e-05)
(0.00241395 1.81595e-05 -6.0087e-05)
(0.00244876 1.80037e-05 -5.47031e-05)
(0.00241817 1.67567e-05 -4.801e-05)
(0.00243563 1.71461e-05 -4.23455e-05)
(0.00237247 7.8107e-06 -6.72258e-05)
(0.00242173 8.81135e-06 -6.82665e-05)
(0.00247416 9.85888e-06 -6.79463e-05)
(0.00245552 9.08599e-06 -6.30096e-05)
(0.00247558 8.74299e-06 -5.8457e-05)
(0.00244784 7.85478e-06 -5.27134e-05)
(0.00246734 7.65717e-06 -4.81425e-05)
(0.00242802 8.56102e-06 -4.18811e-05)
(0.00234529 1.63299e-05 -6.57303e-05)
(0.00239174 1.78709e-05 -6.69963e-05)
(0.0024604 1.96016e-05 -6.73444e-05)
(0.00244301 1.75639e-05 -6.28039e-05)
(0.00247471 1.69605e-05 -5.88277e-05)
(0.00244642 1.48777e-05 -5.29463e-05)
(0.00247197 1.43569e-05 -4.83164e-05)
(0.00229259 1.89976e-05 -6.35568e-05)
(0.00233327 2.04015e-05 -6.46965e-05)
(0.00239812 2.19194e-05 -6.50979e-05)
(0.0023972 2.0395e-05 -6.15286e-05)
(0.0024237 1.94946e-05 -5.75668e-05)
(0.00240635 1.75234e-05 -5.20751e-05)
)
;

boundaryField
{
    inlet
    {
        type            zeroGradient;
    }
    outlet
    {
        type            zeroGradient;
    }
    wall
    {
        type            zeroGradient;
    }
    procBoundary2to0
    {
        type            processor;
        value           nonuniform List<vector> 
44
(
(0.0023915 -1.13236e-05 -8.13802e-05)
(0.00244024 -9.42239e-06 -7.71578e-05)
(0.00243443 -5.91049e-06 -7.00515e-05)
(0.00245138 -1.65398e-06 -6.38704e-05)
(0.00244766 4.13319e-06 -5.77399e-05)
(0.00248104 1.14975e-05 -5.32457e-05)
(0.00230412 -4.08789e-06 -8.60594e-05)
(0.00232503 -3.72278e-06 -8.6527e-05)
(0.00236157 -2.91999e-06 -8.52604e-05)
(0.00236157 -2.91999e-06 -8.52604e-05)
(0.00244634 -2.04412e-06 -8.2872e-05)
(0.0025086 -5.93057e-07 -7.95964e-05)
(0.0024817 -7.42066e-06 -7.05744e-05)
(0.00251786 -3.67789e-06 -6.45962e-05)
(0.00247116 1.57347e-06 -5.71713e-05)
(0.0024782 7.00963e-06 -5.15646e-05)
(0.00236125 -4.31467e-06 -8.79958e-05)
(0.00238565 -4.00501e-06 -8.85806e-05)
(0.00243925 -3.42873e-06 -8.89193e-05)
(0.00244634 -2.04412e-06 -8.2872e-05)
(0.0025086 -5.93057e-07 -7.95964e-05)
(0.0025086 -5.93057e-07 -7.95964e-05)
(0.0024769 3.58008e-07 -6.32791e-05)
(0.00249053 2.39877e-06 -5.66726e-05)
(0.00244047 -1.09859e-06 -4.88705e-05)
(0.00243775 1.75973e-06 -4.3166e-05)
(0.0023768 -4.21557e-06 -8.0518e-05)
(0.00241048 -4.03392e-06 -8.1844e-05)
(0.0024683 -3.4877e-06 -8.18505e-05)
(0.00246597 -2.26525e-06 -7.59608e-05)
(0.0024969 -1.1633e-06 -7.09484e-05)
(0.0024769 3.58008e-07 -6.32791e-05)
(0.00249053 2.39877e-06 -5.66726e-05)
(0.00249053 2.39877e-06 -5.66726e-05)
(0.00241754 2.78676e-06 -4.02883e-05)
(0.00240742 4.96202e-06 -3.41731e-05)
(0.00236563 -4.50708e-06 -6.71984e-05)
(0.00241116 -4.34741e-06 -6.82728e-05)
(0.00247801 -3.99802e-06 -6.81474e-05)
(0.00246875 -2.82605e-06 -6.33692e-05)
(0.0024724 -1.90278e-06 -5.82493e-05)
(0.00246294 -7.6716e-07 -5.25332e-05)
(0.00247462 4.55375e-07 -4.72473e-05)
(0.00241754 2.78676e-06 -4.02883e-05)
)
;
    }
    procBoundary2to3
    {
        type            processor;
        value           nonuniform List<vector> 
12
(
(0.00248005 1.80447e-05 -4.5859e-05)
(0.00248224 1.87278e-05 -4.36214e-05)
(0.00247809 1.91482e-05 -4.16051e-05)
(0.0024144 1.84764e-05 -3.93316e-05)
(0.00247688 1.49776e-05 -4.65424e-05)
(0.00249323 1.84424e-05 -4.38011e-05)
(0.00252243 2.00208e-05 -4.23775e-05)
(0.00245606 1.91661e-05 -4.00774e-05)
(0.00243146 1.0349e-05 -3.73824e-05)
(0.0024564 1.732e-05 -3.75109e-05)
(0.00246554 1.88422e-05 -3.72121e-05)
(0.0024351 1.87416e-05 -3.67312e-05)
)
;
    }
    procBoundary2to6
    {
        type            processor;
        value           nonuniform List<vector> 
32
(
(0.00244278 9.98897e-06 -3.63787e-05)
(0.00243319 1.3337e-05 -4.24979e-05)
(0.0024556 1.38076e-05 -3.7509e-05)
(0.0024146 1.65124e-05 -4.70562e-05)
(0.00239889 1.53332e-05 -4.20208e-05)
(0.00240956 1.53065e-05 -3.71919e-05)
(0.00239613 8.37723e-06 -5.34496e-05)
(0.00242249 8.61857e-06 -5.30528e-05)
(0.00244835 8.94187e-06 -5.17507e-05)
(0.00244707 8.21927e-06 -4.91523e-05)
(0.00247743 7.7748e-06 -4.64189e-05)
(0.00243952 6.71347e-06 -4.23039e-05)
(0.00245991 6.12991e-06 -3.85746e-05)
(0.00244278 9.98897e-06 -3.63787e-05)
(0.00243319 1.3337e-05 -4.24979e-05)
(0.00241428 6.6367e-06 -3.40957e-05)
(0.00236136 1.73071e-05 -5.26634e-05)
(0.00239787 1.81967e-05 -5.27063e-05)
(0.00243916 1.87122e-05 -5.17729e-05)
(0.00244325 1.70038e-05 -4.9462e-05)
(0.00246757 1.57337e-05 -4.67579e-05)
(0.00244251 1.40301e-05 -4.29904e-05)
(0.00243319 1.3337e-05 -4.24979e-05)
(0.0024146 1.65124e-05 -4.70562e-05)
(0.00245927 1.33757e-05 -3.92588e-05)
(0.00230509 1.96887e-05 -5.1819e-05)
(0.00233831 2.072e-05 -5.21208e-05)
(0.00236967 2.07721e-05 -5.12807e-05)
(0.00238244 1.94809e-05 -4.92946e-05)
(0.00242391 1.88668e-05 -4.66278e-05)
(0.0024146 1.65124e-05 -4.70562e-05)
(0.002416 1.71694e-05 -4.32767e-05)
)
;
    }
}


// ************************************************************************* //
