/*--------------------------------*- C++ -*----------------------------------*\
| =========                 |                                                 |
| \\      /  F ield         | OpenFOAM: The Open Source CFD Toolbox           |
|  \\    /   O peration     | Version:  4.x                                   |
|   \\  /    A nd           | Web:      www.OpenFOAM.org                      |
|    \\/     M anipulation  |                                                 |
\*---------------------------------------------------------------------------*/
FoamFile
{
    version     2.0;
    format      ascii;
    class       volScalarField;
    location    "26";
    object      Sm;
}
// * * * * * * * * * * * * * * * * * * * * * * * * * * * * * * * * * * * * * //

dimensions      [1 -3 -1 0 0 0 0];

internalField   nonuniform List<scalar> 
114
(
6.5099e-65
4.88242e-65
2.55744e-65
4.88232e-65
3.02227e-65
4.10717e-65
5.73503e-65
6.50998e-65
5.11496e-65
3.79744e-65
6.1999e-65
4.41741e-65
5.88981e-65
6.12219e-65
3.95225e-65
4.03003e-65
5.6575e-65
4.57247e-65
4.95993e-65
4.49494e-65
4.57244e-65
5.34739e-65
4.41735e-65
5.26979e-65
4.41754e-65
4.26251e-65
4.64999e-65
4.57247e-65
3.33248e-65
3.79748e-65
2.71249e-65
4.80494e-65
3.09996e-65
8.44727e-65
9.76461e-65
5.73457e-65
9.22179e-65
5.42503e-65
6.81998e-65
7.67242e-65
7.82738e-65
6.97488e-65
6.27736e-65
8.98971e-65
7.59462e-65
5.19218e-65
6.04504e-65
8.60249e-65
8.29244e-65
7.59491e-65
7.4399e-65
7.2849e-65
7.05236e-65
7.43977e-65
5.96727e-65
5.89005e-65
5.1925e-65
6.97497e-65
5.81245e-65
6.89745e-65
5.88995e-65
5.88994e-65
6.5099e-65
4.26243e-65
7.59459e-65
8.13696e-65
7.28504e-65
4.95999e-65
5.50246e-65
6.12244e-65
5.57993e-65
7.12989e-65
8.36982e-65
6.58724e-65
4.88223e-65
5.34754e-65
6.045e-65
7.12996e-65
9.06743e-65
7.28493e-65
6.43243e-65
7.51739e-65
7.43982e-65
8.36975e-65
5.34754e-65
7.51751e-65
6.04499e-65
6.97496e-65
4.64999e-65
6.50997e-65
8.29243e-65
4.95993e-65
6.66489e-65
4.80503e-65
8.1375e-65
8.36997e-65
6.50997e-65
6.81996e-65
5.88996e-65
6.27741e-65
7.74984e-65
6.89756e-65
6.89751e-65
8.36999e-65
5.81248e-65
7.20747e-65
6.89746e-65
8.36993e-65
5.27005e-65
6.51002e-65
6.2775e-65
7.12999e-65
5.5025e-65
6.35499e-65
)
;

boundaryField
{
    inlet
    {
        type            calculated;
        value           uniform 0;
    }
    outlet
    {
        type            calculated;
        value           nonuniform 0();
    }
    wall
    {
        type            calculated;
        value           uniform 0;
    }
    procBoundary2to0
    {
        type            processor;
        value           nonuniform List<scalar> 
44
(
4.72742e-65
4.26242e-65
4.3399e-65
3.25487e-65
4.4947e-65
6.89696e-65
2.86752e-65
4.41748e-65
3.25498e-65
3.25498e-65
4.72741e-65
8.98983e-65
5.88985e-65
8.29212e-65
6.0446e-65
4.95954e-65
8.06004e-65
6.12248e-65
6.12243e-65
4.72741e-65
8.98983e-65
8.98983e-65
7.12989e-65
7.12978e-65
6.19964e-65
4.57212e-65
7.28504e-65
7.59497e-65
7.67243e-65
8.1374e-65
8.21488e-65
7.12989e-65
7.12978e-65
7.12978e-65
5.42486e-65
2.32489e-65
5.27004e-65
5.88999e-65
7.98247e-65
9.06744e-65
4.49497e-65
9.14491e-65
7.12986e-65
5.42486e-65
)
;
    }
    procBoundary2to3
    {
        type            processor;
        value           nonuniform List<scalar> 
12
(
6.97446e-65
5.19219e-65
5.50231e-65
4.64992e-65
7.51693e-65
6.66459e-65
1.03846e-64
7.74982e-65
7.67205e-65
9.06706e-65
5.11487e-65
8.52485e-65
)
;
    }
    procBoundary2to6
    {
        type            processor;
        value           nonuniform List<scalar> 
32
(
6.74234e-65
6.04494e-65
7.12988e-65
5.11499e-65
5.81246e-65
4.95996e-65
1.03851e-64
7.59502e-65
4.96e-65
7.44e-65
9.37749e-65
6.12249e-65
7.36247e-65
6.74234e-65
6.04494e-65
6.50995e-65
5.81254e-65
7.90503e-65
6.43251e-65
8.83501e-65
7.0525e-65
7.8275e-65
6.04494e-65
5.11499e-65
7.05248e-65
4.96005e-65
7.20753e-65
5.42502e-65
6.12251e-65
7.59502e-65
5.11499e-65
8.75751e-65
)
;
    }
}


// ************************************************************************* //
