/*--------------------------------*- C++ -*----------------------------------*\
| =========                 |                                                 |
| \\      /  F ield         | OpenFOAM: The Open Source CFD Toolbox           |
|  \\    /   O peration     | Version:  4.x                                   |
|   \\  /    A nd           | Web:      www.OpenFOAM.org                      |
|    \\/     M anipulation  |                                                 |
\*---------------------------------------------------------------------------*/
FoamFile
{
    version     2.0;
    format      ascii;
    class       volVectorField;
    location    "26";
    object      UsNext;
}
// * * * * * * * * * * * * * * * * * * * * * * * * * * * * * * * * * * * * * //

dimensions      [0 1 -1 0 0 0 0];

internalField   nonuniform List<vector> 
114
(
(9.01079e-08 -4.66097e-08 -5.0358e-08)
(1.72837e-07 -8.44341e-08 -7.49121e-08)
(2.2712e-07 -1.23971e-07 -1.19112e-07)
(2.92224e-07 -1.29529e-07 -1.00649e-07)
(2.21e-07 -1.64017e-07 -5.46168e-08)
(1.92219e-07 -1.50352e-07 -3.69702e-08)
(8.45868e-09 -1.06299e-08 -1.01476e-08)
(3.4989e-08 -2.08813e-08 -2.47648e-08)
(6.36911e-08 -3.21438e-08 -3.81218e-08)
(8.95763e-08 -4.4758e-08 -5.73221e-08)
(1.19756e-07 -6.11789e-08 -8.33226e-08)
(1.86423e-07 -1.14546e-07 -1.03598e-07)
(2.18524e-07 -1.51791e-07 -9.28677e-08)
(1.40536e-07 -2.27773e-07 -1.04233e-07)
(9.49279e-08 -1.38373e-07 -5.61832e-08)
(1.19e-08 -6.38865e-09 -1.31275e-08)
(1.93099e-08 -7.75513e-09 -2.30278e-08)
(5.33292e-08 -1.88565e-08 -3.25683e-08)
(8.70048e-08 -2.8391e-08 -3.07417e-08)
(1.13034e-07 -4.54269e-08 -5.96325e-08)
(1.25581e-07 -8.41976e-08 -7.43582e-08)
(1.66224e-07 -5.07582e-08 -7.84815e-08)
(1.01509e-07 -1.06923e-07 -8.33452e-08)
(5.16858e-08 -1.09275e-07 -6.43041e-08)
(-1.57063e-09 -2.24254e-09 -6.92719e-09)
(4.04271e-09 -5.35865e-09 -1.15541e-08)
(2.02196e-08 -7.69754e-09 -3.13368e-09)
(1.74153e-08 1.94149e-09 -2.02631e-08)
(5.33052e-08 -3.05532e-10 -4.46652e-08)
(4.97673e-08 -2.41401e-08 -5.20813e-08)
(7.64812e-08 -3.19529e-08 -3.97765e-08)
(5.20241e-08 1.47559e-08 -8.01601e-08)
(2.27894e-08 -2.43844e-08 -4.98943e-08)
(2.08397e-07 -1.07813e-07 -1.21839e-07)
(2.20635e-07 -1.14956e-07 -1.10684e-07)
(1.94774e-07 -1.43158e-07 -6.37052e-08)
(1.79527e-07 -1.34789e-07 -3.47352e-08)
(1.09484e-08 -8.74673e-09 -1.0795e-08)
(3.63995e-08 -1.91883e-08 -2.42755e-08)
(5.99641e-08 -2.64448e-08 -4.02464e-08)
(9.68588e-08 -4.76943e-08 -5.92952e-08)
(1.26306e-07 -5.73744e-08 -8.47744e-08)
(1.65745e-07 -9.15932e-08 -1.08207e-07)
(1.79839e-07 -1.00887e-07 -9.05819e-08)
(1.35212e-07 -1.39778e-07 -9.94334e-08)
(1.06425e-07 -1.32387e-07 -4.79493e-08)
(1.63604e-08 -8.58726e-09 -1.35274e-08)
(2.77384e-08 -1.62735e-08 -2.16048e-08)
(5.38674e-08 -2.34251e-08 -4.04819e-08)
(7.22438e-08 -3.13758e-08 -4.58631e-08)
(9.13867e-08 -3.69741e-08 -7.37099e-08)
(1.14695e-07 -6.60844e-08 -7.51478e-08)
(1.32734e-07 -7.68136e-08 -8.37772e-08)
(9.0942e-08 -8.60595e-08 -8.01614e-08)
(5.33812e-08 -1.04977e-07 -4.90835e-08)
(5.04875e-09 -4.1284e-09 -7.51332e-09)
(1.25251e-08 -8.08731e-09 -1.42848e-08)
(2.71192e-08 -9.62189e-09 -2.0101e-08)
(4.19072e-08 -1.07361e-08 -2.36916e-08)
(5.47614e-08 -1.02002e-08 -4.994e-08)
(4.84834e-08 -1.99322e-08 -4.27176e-08)
(6.58678e-08 -2.98136e-08 -4.62972e-08)
(4.97999e-08 -2.56683e-08 -6.15962e-08)
(3.0952e-08 -2.37346e-08 -2.38827e-08)
(1.53924e-07 -1.27898e-07 -1.15279e-07)
(1.64711e-07 -1.12421e-07 -7.11934e-08)
(7.17118e-09 -4.53895e-09 -1.37242e-08)
(2.59007e-08 -1.6197e-08 -2.70305e-08)
(5.19348e-08 -2.76181e-08 -4.49735e-08)
(7.58781e-08 -4.06829e-08 -6.03624e-08)
(1.15235e-07 -6.1518e-08 -8.56421e-08)
(1.2634e-07 -7.07036e-08 -9.49181e-08)
(1.37977e-07 -7.22019e-08 -9.57708e-08)
(1.11775e-07 -1.06824e-07 -9.88905e-08)
(7.03969e-08 -1.25522e-07 -7.58108e-08)
(8.60683e-09 -4.02854e-09 -8.98987e-09)
(2.47982e-08 -1.51505e-08 -3.15018e-08)
(5.01435e-08 -2.48578e-08 -4.08057e-08)
(5.76406e-08 -2.82352e-08 -4.66904e-08)
(8.15855e-08 -3.79129e-08 -7.08799e-08)
(9.99199e-08 -5.74557e-08 -7.45117e-08)
(1.08131e-07 -5.11687e-08 -6.66675e-08)
(5.51098e-08 -6.81261e-08 -7.45194e-08)
(-1.67371e-09 -9.02147e-08 -6.69809e-08)
(4.0764e-09 -3.1725e-09 -8.33842e-09)
(1.48469e-08 -7.19495e-09 -1.9405e-08)
(2.33637e-08 -1.09054e-08 -2.14702e-08)
(4.48885e-08 -1.39902e-08 -3.26537e-08)
(4.75279e-08 -1.59151e-08 -4.0832e-08)
(4.32349e-08 -2.47131e-08 -4.4435e-08)
(4.67166e-08 -2.81468e-08 -5.95108e-08)
(2.83342e-08 -3.03211e-08 -5.50602e-08)
(6.20185e-09 -3.97077e-08 -4.57453e-08)
(6.59129e-09 -5.01542e-09 -1.36203e-08)
(2.17671e-08 -1.61225e-08 -3.29684e-08)
(4.23067e-08 -2.69669e-08 -4.66715e-08)
(5.18623e-08 -3.76963e-08 -5.58859e-08)
(7.58161e-08 -5.49531e-08 -7.53893e-08)
(7.99648e-08 -5.75619e-08 -9.20976e-08)
(9.13647e-08 -6.87262e-08 -8.54261e-08)
(2.6513e-08 -9.04504e-08 -9.75373e-08)
(5.72432e-09 -2.74183e-09 -9.14956e-09)
(2.38887e-08 -1.47049e-08 -3.05326e-08)
(2.98036e-08 -1.93979e-08 -3.37938e-08)
(4.09015e-08 -3.38453e-08 -4.71666e-08)
(5.87339e-08 -4.02621e-08 -6.32676e-08)
(6.36819e-08 -4.74115e-08 -7.02806e-08)
(5.35496e-08 -3.04829e-08 -6.07489e-08)
(3.37119e-09 -1.919e-09 -5.08808e-09)
(1.12038e-08 -1.00175e-08 -1.92586e-08)
(2.18709e-08 -1.52954e-08 -2.78274e-08)
(2.00174e-08 -1.43398e-08 -2.61986e-08)
(3.62591e-08 -1.99764e-08 -3.61477e-08)
(2.18613e-08 -2.11205e-08 -3.36848e-08)
)
;

boundaryField
{
    inlet
    {
        type            calculated;
        value           nonuniform List<vector> 
12
(
(8.45868e-09 -1.06299e-08 -1.01476e-08)
(1.19e-08 -6.38865e-09 -1.31275e-08)
(-1.57063e-09 -2.24254e-09 -6.92719e-09)
(1.09484e-08 -8.74673e-09 -1.0795e-08)
(1.63604e-08 -8.58726e-09 -1.35274e-08)
(5.04875e-09 -4.1284e-09 -7.51332e-09)
(7.17118e-09 -4.53895e-09 -1.37242e-08)
(8.60683e-09 -4.02854e-09 -8.98987e-09)
(4.0764e-09 -3.1725e-09 -8.33842e-09)
(6.59129e-09 -5.01542e-09 -1.36203e-08)
(5.72432e-09 -2.74183e-09 -9.14956e-09)
(3.37119e-09 -1.919e-09 -5.08808e-09)
)
;
    }
    outlet
    {
        type            calculated;
        value           nonuniform 0();
    }
    wall
    {
        type            calculated;
        value           nonuniform List<vector> 
66
(
(8.45868e-09 -1.06299e-08 -1.01476e-08)
(1.19e-08 -6.38865e-09 -1.31275e-08)
(-1.57063e-09 -2.24254e-09 -6.92719e-09)
(3.4989e-08 -2.08813e-08 -2.47648e-08)
(1.93099e-08 -7.75513e-09 -2.30278e-08)
(4.04271e-09 -5.35865e-09 -1.15541e-08)
(6.36911e-08 -3.21438e-08 -3.81218e-08)
(5.33292e-08 -1.88565e-08 -3.25683e-08)
(2.02196e-08 -7.69754e-09 -3.13368e-09)
(9.01079e-08 -4.66097e-08 -5.0358e-08)
(8.95763e-08 -4.4758e-08 -5.73221e-08)
(8.70048e-08 -2.8391e-08 -3.07417e-08)
(1.74153e-08 1.94149e-09 -2.02631e-08)
(1.72837e-07 -8.44341e-08 -7.49121e-08)
(1.19756e-07 -6.11789e-08 -8.33226e-08)
(1.13034e-07 -4.54269e-08 -5.96325e-08)
(5.33052e-08 -3.05532e-10 -4.46652e-08)
(2.2712e-07 -1.23971e-07 -1.19112e-07)
(1.86423e-07 -1.14546e-07 -1.03598e-07)
(1.25581e-07 -8.41976e-08 -7.43582e-08)
(4.97673e-08 -2.41401e-08 -5.20813e-08)
(2.92224e-07 -1.29529e-07 -1.00649e-07)
(2.18524e-07 -1.51791e-07 -9.28677e-08)
(1.66224e-07 -5.07582e-08 -7.84815e-08)
(7.64812e-08 -3.19529e-08 -3.97765e-08)
(2.21e-07 -1.64017e-07 -5.46168e-08)
(1.40536e-07 -2.27773e-07 -1.04233e-07)
(1.01509e-07 -1.06923e-07 -8.33452e-08)
(5.20241e-08 1.47559e-08 -8.01601e-08)
(1.92219e-07 -1.50352e-07 -3.69702e-08)
(9.49279e-08 -1.38373e-07 -5.61832e-08)
(5.16858e-08 -1.09275e-07 -6.43041e-08)
(2.27894e-08 -2.43844e-08 -4.98943e-08)
(-1.57063e-09 -2.24254e-09 -6.92719e-09)
(5.04875e-09 -4.1284e-09 -7.51332e-09)
(4.0764e-09 -3.1725e-09 -8.33842e-09)
(3.37119e-09 -1.919e-09 -5.08808e-09)
(4.04271e-09 -5.35865e-09 -1.15541e-08)
(1.25251e-08 -8.08731e-09 -1.42848e-08)
(1.48469e-08 -7.19495e-09 -1.9405e-08)
(1.12038e-08 -1.00175e-08 -1.92586e-08)
(2.02196e-08 -7.69754e-09 -3.13368e-09)
(2.71192e-08 -9.62189e-09 -2.0101e-08)
(2.33637e-08 -1.09054e-08 -2.14702e-08)
(2.18709e-08 -1.52954e-08 -2.78274e-08)
(1.74153e-08 1.94149e-09 -2.02631e-08)
(4.19072e-08 -1.07361e-08 -2.36916e-08)
(4.48885e-08 -1.39902e-08 -3.26537e-08)
(2.00174e-08 -1.43398e-08 -2.61986e-08)
(5.33052e-08 -3.05532e-10 -4.46652e-08)
(5.47614e-08 -1.02002e-08 -4.994e-08)
(4.75279e-08 -1.59151e-08 -4.0832e-08)
(3.62591e-08 -1.99764e-08 -3.61477e-08)
(4.97673e-08 -2.41401e-08 -5.20813e-08)
(4.84834e-08 -1.99322e-08 -4.27176e-08)
(4.32349e-08 -2.47131e-08 -4.4435e-08)
(2.18613e-08 -2.11205e-08 -3.36848e-08)
(7.64812e-08 -3.19529e-08 -3.97765e-08)
(6.58678e-08 -2.98136e-08 -4.62972e-08)
(4.67166e-08 -2.81468e-08 -5.95108e-08)
(5.20241e-08 1.47559e-08 -8.01601e-08)
(4.97999e-08 -2.56683e-08 -6.15962e-08)
(2.83342e-08 -3.03211e-08 -5.50602e-08)
(2.27894e-08 -2.43844e-08 -4.98943e-08)
(3.0952e-08 -2.37346e-08 -2.38827e-08)
(6.20185e-09 -3.97077e-08 -4.57453e-08)
)
;
    }
    procBoundary2to0
    {
        type            processor;
        value           nonuniform List<vector> 
44
(
(1.22275e-07 -4.96843e-08 -5.84279e-08)
(1.7242e-07 -8.23543e-08 -8.12792e-08)
(2.7808e-07 -1.42018e-07 -1.56633e-07)
(3.13612e-07 -1.1729e-07 -1.3601e-07)
(2.75852e-07 -1.58257e-07 -7.8672e-08)
(1.44609e-07 -7.30079e-08 -5.51887e-08)
(7.08242e-09 -5.70674e-09 -1.18944e-08)
(4.52632e-08 -2.16375e-08 -2.43438e-08)
(6.86769e-08 -3.23915e-08 -3.05331e-08)
(6.86769e-08 -3.23915e-08 -3.05331e-08)
(1.30182e-07 -5.69528e-08 -6.19604e-08)
(1.65906e-07 -6.9664e-08 -9.83664e-08)
(2.40846e-07 -1.07812e-07 -1.35659e-07)
(2.61053e-07 -1.31928e-07 -1.17065e-07)
(2.25584e-07 -1.26667e-07 -8.83289e-08)
(1.73531e-07 -8.80894e-08 -3.18624e-08)
(1.81584e-08 -8.36032e-09 -1.44272e-08)
(4.55784e-08 -1.88719e-08 -2.45403e-08)
(7.39242e-08 -2.35922e-08 -4.20342e-08)
(1.30182e-07 -5.69528e-08 -6.19604e-08)
(1.65906e-07 -6.9664e-08 -9.83664e-08)
(1.65906e-07 -6.9664e-08 -9.83664e-08)
(1.68509e-07 -8.76686e-08 -1.14334e-07)
(1.79588e-07 -9.2606e-08 -1.17552e-07)
(1.96223e-07 -9.06534e-08 -1.37982e-07)
(1.71982e-07 -8.45078e-09 -8.40933e-08)
(1.078e-08 -5.66426e-09 -1.4244e-08)
(4.08621e-08 -2.3673e-08 -2.82201e-08)
(7.29921e-08 -2.93306e-08 -4.70426e-08)
(1.11429e-07 -5.47666e-08 -6.17913e-08)
(1.62747e-07 -7.29228e-08 -1.02953e-07)
(1.68509e-07 -8.76686e-08 -1.14334e-07)
(1.79588e-07 -9.2606e-08 -1.17552e-07)
(1.79588e-07 -9.2606e-08 -1.17552e-07)
(1.14786e-07 -9.93165e-08 -1.17361e-07)
(1.02565e-07 -9.13307e-08 -9.34036e-08)
(7.48178e-09 -8.38997e-09 -1.59943e-08)
(2.75084e-08 -1.87216e-08 -2.99143e-08)
(5.09086e-08 -2.43668e-08 -4.79297e-08)
(6.05411e-08 -4.05443e-08 -6.16663e-08)
(1.01637e-07 -4.49192e-08 -8.86918e-08)
(1.1764e-07 -6.93977e-08 -1.08252e-07)
(1.2914e-07 -8.80296e-08 -1.15562e-07)
(1.14786e-07 -9.93165e-08 -1.17361e-07)
)
;
    }
    procBoundary2to3
    {
        type            processor;
        value           nonuniform List<vector> 
12
(
(1.59937e-07 -1.1428e-07 5.63044e-08)
(2.35152e-08 -1.40011e-07 -2.50519e-09)
(-3.35642e-08 -1.0515e-07 -5.32427e-08)
(-7.62838e-09 -3.06044e-08 -3.3119e-08)
(1.57979e-07 -9.3805e-08 4.55292e-08)
(6.89807e-08 -1.22453e-07 -2.91503e-08)
(-2.11622e-08 -9.74946e-08 -5.90052e-08)
(-5.39522e-08 -3.84514e-08 -3.85089e-08)
(2.27972e-07 -9.03617e-08 -4.67883e-08)
(6.83134e-08 -1.28884e-07 -5.50153e-08)
(-4.35598e-08 -8.98239e-08 -7.9296e-08)
(-5.29904e-08 -1.94249e-08 -4.08619e-08)
)
;
    }
    procBoundary2to6
    {
        type            processor;
        value           nonuniform List<vector> 
32
(
(7.34593e-09 -7.63272e-08 -9.38829e-08)
(1.67416e-08 -4.6937e-08 -6.40395e-08)
(-2.0738e-08 -6.55752e-08 -7.09268e-08)
(2.19804e-08 -1.73278e-08 -3.83034e-08)
(1.18486e-08 -2.54827e-08 -4.17414e-08)
(-1.15231e-09 -8.62935e-09 -3.38894e-08)
(9.20454e-09 -7.28588e-09 -1.32056e-08)
(1.81359e-08 -1.67129e-08 -2.52246e-08)
(2.38392e-08 -2.40143e-08 -3.70325e-08)
(2.86428e-08 -3.21197e-08 -5.01253e-08)
(5.17861e-08 -4.38398e-08 -6.67131e-08)
(3.17083e-08 -5.00571e-08 -7.01606e-08)
(1.66226e-08 -6.48763e-08 -6.91166e-08)
(7.34593e-09 -7.63272e-08 -9.38829e-08)
(1.67416e-08 -4.6937e-08 -6.40395e-08)
(-1.04906e-08 -6.95801e-08 -6.76712e-08)
(1.30778e-08 -6.71802e-09 -1.1064e-08)
(1.60846e-08 -1.38587e-08 -2.13508e-08)
(2.11526e-08 -2.28267e-08 -2.70607e-08)
(2.51459e-08 -2.48898e-08 -3.87145e-08)
(3.17835e-08 -3.11608e-08 -4.95674e-08)
(2.71545e-08 -3.71904e-08 -5.22407e-08)
(1.67416e-08 -4.6937e-08 -6.40395e-08)
(2.19804e-08 -1.73278e-08 -3.83034e-08)
(5.47365e-09 -4.31568e-08 -5.33715e-08)
(2.03671e-09 -2.03035e-09 -2.87051e-09)
(2.42489e-09 -1.29786e-08 -1.80154e-08)
(6.48809e-09 -8.06993e-09 -1.4859e-08)
(1.28302e-08 -1.80771e-08 -2.49688e-08)
(1.17497e-08 -1.64742e-08 -2.16314e-08)
(2.19804e-08 -1.73278e-08 -3.83034e-08)
(1.70444e-08 -1.76765e-08 -2.83056e-08)
)
;
    }
}


// ************************************************************************* //
