/*--------------------------------*- C++ -*----------------------------------*\
| =========                 |                                                 |
| \\      /  F ield         | OpenFOAM: The Open Source CFD Toolbox           |
|  \\    /   O peration     | Version:  4.x                                   |
|   \\  /    A nd           | Web:      www.OpenFOAM.org                      |
|    \\/     M anipulation  |                                                 |
\*---------------------------------------------------------------------------*/
FoamFile
{
    version     2.0;
    format      ascii;
    class       volScalarField;
    location    "45.5";
    object      QWallFluid;
}
// * * * * * * * * * * * * * * * * * * * * * * * * * * * * * * * * * * * * * //

dimensions      [1 -1 -3 0 0 0 0];

internalField   nonuniform List<scalar> 
108
(
8.26758e+08
4.17897e+08
8.36153e+08
4.39955e+08
8.48602e+08
4.54732e+08
8.59601e+08
4.58417e+08
8.72121e+08
0
0
0
0
0
0
0
0
0
0
0
0
0
0
0
0
0
0
0
0
0
0
0
0
0
0
0
8.25982e+08
4.20192e+08
8.36974e+08
4.37398e+08
8.44606e+08
4.50699e+08
8.54492e+08
4.4332e+08
8.53225e+08
0
0
0
0
0
0
0
0
0
0
0
0
0
0
0
0
0
0
0
0
0
0
0
0
0
0
0
1.65727e+09
9.12464e+08
1.72824e+09
1.03949e+09
1.77338e+09
1.10671e+09
1.80584e+09
1.16093e+09
1.85883e+09
8.23542e+08
4.23624e+08
8.3725e+08
4.583e+08
8.53138e+08
4.79852e+08
8.6698e+08
4.96211e+08
8.85375e+08
8.15731e+08
4.02151e+08
8.17436e+08
4.09773e+08
8.26383e+08
4.22114e+08
8.39342e+08
4.37286e+08
8.55205e+08
8.07553e+08
3.94366e+08
8.10989e+08
3.90584e+08
8.1645e+08
4.01766e+08
8.33804e+08
4.27492e+08
8.51988e+08
)
;

boundaryField
{
    inlet
    {
        type            calculated;
        value           uniform 0;
    }
    outlet
    {
        type            calculated;
        value           nonuniform 0();
    }
    wall
    {
        type            calculated;
        value           uniform 0;
    }
    procBoundary4to0
    {
        type            processor;
        value           nonuniform List<scalar> 
36
(
8.33933e+08
4.1293e+08
8.45776e+08
4.38285e+08
8.55277e+08
4.46671e+08
8.61718e+08
4.39031e+08
8.61199e+08
0
0
0
0
0
0
0
0
0
0
0
0
0
0
0
0
0
0
0
0
0
0
0
0
0
0
0
)
;
    }
    procBoundary4to5
    {
        type            processor;
        value           nonuniform List<scalar> 
12
(
4.53135e+08
0
0
0
4.24904e+08
0
0
0
1.22864e+09
5.08961e+08
4.45595e+08
4.29628e+08
)
;
    }
    procBoundary4to6
    {
        type            processor;
        value           nonuniform List<scalar> 
27
(
0
0
0
0
0
0
0
0
0
0
0
0
0
0
0
0
0
0
8.1611e+08
4.10965e+08
8.18457e+08
4.12045e+08
8.19957e+08
4.11138e+08
8.21813e+08
3.96852e+08
8.33428e+08
)
;
    }
}


// ************************************************************************* //
