/*--------------------------------*- C++ -*----------------------------------*\
| =========                 |                                                 |
| \\      /  F ield         | OpenFOAM: The Open Source CFD Toolbox           |
|  \\    /   O peration     | Version:  4.x                                   |
|   \\  /    A nd           | Web:      www.OpenFOAM.org                      |
|    \\/     M anipulation  |                                                 |
\*---------------------------------------------------------------------------*/
FoamFile
{
    version     2.0;
    format      ascii;
    class       volScalarField;
    location    "10.5";
    object      magGField;
}
// * * * * * * * * * * * * * * * * * * * * * * * * * * * * * * * * * * * * * //

dimensions      [1 -2 -1 0 0 0 0];

internalField   nonuniform List<scalar> 
114
(
120.8
63.7849
137.494
58.8496
172.952
80.7103
23.4185
96.4115
26.1849
98.9988
31.8434
95.1263
74.4774
89.2801
14.9966
90.9259
14.1762
90.7065
13.8772
82.1788
21.8725
46.3957
100.173
47.6604
105.631
45.5147
108.436
34.4386
97.3091
16.9713
2.94645
82.768
0.687352
82.2747
0.948077
77.3279
4.96457
63.2307
16.3639
1.03663
79.664
0.0737301
78.003
5.11609e-05
73.7538
3.24219
65.5517
24.8742
0.000164209
74.9918
54.0102
105.65
57.3546
115.453
59.6968
130.822
59.0685
158.144
70.6161
17.0351
86.754
14.0662
90.0415
14.0711
93.2787
22.3443
91.3922
63.342
17.8921
86.8658
14.5004
88.6696
12.112
90.239
15.8186
85.5236
26.5579
7.02108
76.5164
0.000107175
72.5838
64.546
111.48
69.2974
122.134
72.4053
143.631
72.5011
200.666
87.7532
58.0799
104.266
61.2795
109.004
60.3907
113.214
59.9755
116.368
94.7494
52.7514
101.392
54.7666
104.665
52.8633
105.491
45.0891
100.761
32.5211
49.4796
95.5796
49.2659
93.449
42.8405
87.2604
)
;

boundaryField
{
    inlet
    {
        type            calculated;
        value           nonuniform 0();
    }
    outlet
    {
        type            calculated;
        value           nonuniform List<scalar> 
12
(
176.976
163.631
48.2414
37.2516
36.1061
54.9582
155.238
139.536
59.1837
190.861
208.515
72.0168
)
;
    }
    wall
    {
        type            calculated;
        value           uniform 0;
    }
    procBoundary5to1
    {
        type            processor;
        value           nonuniform List<scalar> 
32
(
118.191
64.1428
132.195
59.6446
171.951
71.1367
17.0698
92.5796
19.7613
94.539
28.3338
93.6567
81.7619
85.0997
1.02906
84.8575
4.5142e-05
81.3256
3.8726e-05
72.1795
3.74844
57.4832
110.921
62.2346
62.2346
62.2346
21.9566
91.888
91.888
91.888
15.7267
15.7267
)
;
    }
    procBoundary5to4
    {
        type            processor;
        value           nonuniform List<scalar> 
12
(
95.7266
82.3114
80.1453
76.4606
100.055
85.8913
85.8202
79.4097
104.489
99.6859
97.2334
94.0615
)
;
    }
    procBoundary5to7
    {
        type            processor;
        value           nonuniform List<scalar> 
44
(
84.761
16.6289
82.2715
13.7999
74.6047
11.2121
57.2196
17.2822
16.1435
84.761
0.000127862
71.9507
3.13171e-05
66.3515
2.00034e-05
55.9846
19.9098
1.73908
0.000127862
79.265
0.000127862
71.9507
3.53142e-05
67.8576
1.07446e-05
57.2865
15.2344
11.7142
84.4847
8.3658
3.53142e-05
86.7081
3.53142e-05
67.8576
36.6787
77.7032
36.1499
36.2737
91.008
29.2339
87.5833
17.7984
36.6787
80.7382
)
;
    }
}


// ************************************************************************* //
