/*--------------------------------*- C++ -*----------------------------------*\
| =========                 |                                                 |
| \\      /  F ield         | OpenFOAM: The Open Source CFD Toolbox           |
|  \\    /   O peration     | Version:  4.x                                   |
|   \\  /    A nd           | Web:      www.OpenFOAM.org                      |
|    \\/     M anipulation  |                                                 |
\*---------------------------------------------------------------------------*/
FoamFile
{
    version     2.0;
    format      ascii;
    class       volScalarField;
    location    "10.5";
    object      rho;
}
// * * * * * * * * * * * * * * * * * * * * * * * * * * * * * * * * * * * * * //

dimensions      [1 -3 0 0 0 0 0];

internalField   nonuniform List<scalar> 
114
(
6695.61
6695.76
6695.92
6697.01
6697.44
6704.33
6699.8
6700.54
6701.47
6701.75
6702.5
6702.14
6704.61
6699.49
6700.4
6701.36
6702.23
6702.93
6703.36
6703.43
6704.52
6698.16
6697.75
6697.55
6697.37
6697.6
6697.8
6698.58
6699.08
6700.56
6699.5
6700.35
6701.34
6701.87
6702.62
6702.38
6702.78
6702.05
6703.38
6699.42
6700.19
6701.02
6701.76
6702.47
6702.85
6703.06
6702.73
6704.04
6699.29
6700.03
6698.71
6698.49
6698.4
6698.31
6698.45
6698.52
6698.94
6699.08
6707.73
6699.33
6699.9
6700.55
6700.92
6701.27
6701.06
6701.36
6700.88
6703.68
6699.19
6699.65
6700.21
6700.67
6701.21
6701.46
6702.03
6701.9
6704.14
6699.09
6699.65
6700.44
6701.06
6698.73
6698.54
6698.41
6698.32
6698.31
6698.31
6698.45
6698.49
6762.84
6698.74
6698.64
6698.58
6698.57
6698.62
6698.7
6698.87
6698.98
6703.28
6698.69
6698.56
6698.49
6698.47
6698.53
6698.65
6698.95
6699.19
6704.8
6698.65
6698.57
6698.55
6698.6
6698.76
6698.97
)
;

boundaryField
{
    inlet
    {
        type            calculated;
        value           nonuniform 0();
    }
    outlet
    {
        type            calculated;
        value           uniform 6700;
    }
    wall
    {
        type            calculated;
        value           nonuniform List<scalar> 
66
(
6698.73
6698.74
6698.69
6698.65
6698.54
6698.64
6698.56
6698.57
6698.41
6698.58
6698.49
6698.55
6698.32
6698.57
6698.47
6698.6
6698.31
6698.62
6698.53
6698.76
6698.31
6698.7
6698.65
6698.97
6698.45
6698.87
6698.95
6698.49
6698.98
6699.19
6762.84
6703.28
6704.8
6698.16
6698.71
6698.73
6697.75
6698.49
6698.54
6697.55
6698.4
6698.41
6695.61
6697.37
6698.31
6698.32
6695.76
6697.6
6698.45
6698.31
6695.92
6697.8
6698.52
6698.31
6697.01
6698.58
6698.94
6698.45
6697.44
6699.08
6699.08
6698.49
6704.33
6700.56
6707.73
6762.84
)
;
    }
    procBoundary5to1
    {
        type            processor;
        value           nonuniform List<scalar> 
32
(
6693.73
6694.1
6694.45
6695.93
6696.6
6713.69
6699.08
6700.33
6701.53
6702.06
6702.93
6702.65
6706.55
6699
6700.35
6701.63
6702.76
6703.55
6704.02
6704.01
6705.2
6697.15
6696.44
6695.97
6695.97
6695.97
6698.33
6698.93
6698.93
6698.93
6698.74
6698.74
)
;
    }
    procBoundary5to4
    {
        type            processor;
        value           nonuniform List<scalar> 
12
(
6698.53
6698.88
6698.86
6698.74
6698.94
6699
6698.91
6698.78
6698.95
6698.91
6698.86
6698.81
)
;
    }
    procBoundary5to7
    {
        type            processor;
        value           nonuniform List<scalar> 
44
(
6698.88
6699.66
6700.55
6701.39
6702.12
6702.41
6702.32
6701.9
6698.25
6698.88
6700.83
6701.67
6702.42
6702.51
6701.87
6701.3
6701.28
6699.68
6700.83
6700.39
6700.83
6701.67
6701.78
6702.2
6702.71
6702.58
6704.73
6699.25
6699.65
6700.17
6701.78
6700.63
6701.78
6702.2
6699.4
6699.73
6711.28
6698.57
6698.47
6698.55
6698.85
6699.4
6699.4
6700.01
)
;
    }
}


// ************************************************************************* //
