/*--------------------------------*- C++ -*----------------------------------*\
| =========                 |                                                 |
| \\      /  F ield         | OpenFOAM: The Open Source CFD Toolbox           |
|  \\    /   O peration     | Version:  4.x                                   |
|   \\  /    A nd           | Web:      www.OpenFOAM.org                      |
|    \\/     M anipulation  |                                                 |
\*---------------------------------------------------------------------------*/
FoamFile
{
    version     2.0;
    format      ascii;
    class       volScalarField;
    location    "10.5";
    object      Sm;
}
// * * * * * * * * * * * * * * * * * * * * * * * * * * * * * * * * * * * * * //

dimensions      [1 -3 -1 0 0 0 0];

internalField   nonuniform List<scalar> 
114
(
6.81957e-65
8.05944e-65
6.35454e-65
6.74194e-65
7.59436e-65
8.44668e-65
6.81942e-65
5.65702e-65
5.81196e-65
6.66433e-65
8.21407e-65
8.52399e-65
7.90397e-65
8.44669e-65
6.04441e-65
7.43922e-65
5.81186e-65
4.57196e-65
6.9741e-65
5.7342e-65
8.67864e-65
6.27713e-65
4.88225e-65
6.97455e-65
5.42467e-65
6.43206e-65
6.81953e-65
7.12944e-65
5.65705e-65
5.96691e-65
7.12948e-65
6.8195e-65
8.52432e-65
7.12941e-65
8.36925e-65
8.13671e-65
5.26947e-65
8.60152e-65
6.89665e-65
8.21429e-65
4.57209e-65
7.28432e-65
7.59425e-65
6.19935e-65
7.05171e-65
7.12912e-65
6.89658e-65
5.57922e-65
9.99659e-65
4.41706e-65
6.66467e-65
8.21461e-65
6.74215e-65
7.36212e-65
6.97461e-65
6.89713e-65
6.66458e-65
7.28456e-65
6.587e-65
5.34717e-65
8.36946e-65
6.19957e-65
7.12951e-65
7.12948e-65
7.05191e-65
9.14424e-65
6.43193e-65
5.50197e-65
8.05938e-65
6.3545e-65
7.05194e-65
5.96702e-65
1.01516e-64
7.36179e-65
8.2141e-65
8.91145e-65
8.6789e-65
3.5647e-65
9.37673e-65
8.98924e-65
7.98179e-65
2.63493e-65
6.89729e-65
4.57237e-65
7.12976e-65
6.04477e-65
4.9598e-65
6.9747e-65
6.27724e-65
6.0447e-65
6.04471e-65
6.89719e-65
4.1848e-65
5.65723e-65
7.43959e-65
6.5096e-65
4.57219e-65
7.05201e-65
6.04453e-65
6.27712e-65
6.27714e-65
8.52446e-65
6.89706e-65
5.88958e-65
8.05936e-65
6.50943e-65
6.74187e-65
6.81932e-65
7.20705e-65
5.50215e-65
7.28449e-65
5.65709e-65
9.68668e-65
7.74932e-65
)
;

boundaryField
{
    inlet
    {
        type            calculated;
        value           nonuniform 0();
    }
    outlet
    {
        type            calculated;
        value           uniform 0;
    }
    wall
    {
        type            calculated;
        value           uniform 0;
    }
    procBoundary5to1
    {
        type            processor;
        value           nonuniform List<scalar> 
32
(
7.90451e-65
5.81211e-65
8.44685e-65
7.05192e-65
5.73452e-65
4.18457e-65
5.65707e-65
6.122e-65
6.97436e-65
6.97433e-65
6.58676e-65
7.20663e-65
4.41687e-65
6.35442e-65
5.11452e-65
9.0666e-65
8.2916e-65
8.75646e-65
6.8191e-65
7.90388e-65
3.48696e-65
6.5871e-65
5.2697e-65
8.0595e-65
8.0595e-65
8.0595e-65
7.05196e-65
9.9967e-65
9.9967e-65
9.9967e-65
5.73448e-65
5.73448e-65
)
;
    }
    procBoundary5to4
    {
        type            processor;
        value           nonuniform List<scalar> 
12
(
8.91202e-65
9.06685e-65
5.65703e-65
5.96698e-65
8.21464e-65
8.13702e-65
6.81951e-65
6.8195e-65
7.20729e-65
7.59465e-65
6.27717e-65
6.35463e-65
)
;
    }
    procBoundary5to7
    {
        type            processor;
        value           nonuniform List<scalar> 
44
(
7.82671e-65
6.43182e-65
6.74176e-65
1.03063e-64
1.03837e-64
7.98138e-65
5.65663e-65
8.36864e-65
9.91904e-65
7.82671e-65
6.43183e-65
7.36171e-65
6.74173e-65
6.89665e-65
8.60134e-65
8.44627e-65
7.36136e-65
3.95214e-65
6.43183e-65
8.52421e-65
6.43183e-65
7.36171e-65
5.03695e-65
5.81184e-65
7.36161e-65
6.04422e-65
5.81166e-65
8.05941e-65
7.36191e-65
6.81943e-65
5.03695e-65
5.19202e-65
5.03695e-65
5.81184e-65
5.50194e-65
6.43182e-65
6.12183e-65
6.89708e-65
5.81215e-65
7.67196e-65
7.43947e-65
5.19208e-65
5.50194e-65
3.87468e-65
)
;
    }
}


// ************************************************************************* //
