/*--------------------------------*- C++ -*----------------------------------*\
| =========                 |                                                 |
| \\      /  F ield         | OpenFOAM: The Open Source CFD Toolbox           |
|  \\    /   O peration     | Version:  4.x                                   |
|   \\  /    A nd           | Web:      www.OpenFOAM.org                      |
|    \\/     M anipulation  |                                                 |
\*---------------------------------------------------------------------------*/
FoamFile
{
    version     2.0;
    format      ascii;
    class       volScalarField;
    location    "38.5";
    object      alpha.iron;
}
// * * * * * * * * * * * * * * * * * * * * * * * * * * * * * * * * * * * * * //

dimensions      [0 0 0 0 0 0 0];

internalField   nonuniform List<scalar> 
132
(
0.999999
0.999998
0.999996
0.999991
0.999983
0.999969
0.999952
0.999926
0.999798
0.999999
0.999999
0.999997
0.999994
0.999989
0.999981
0.99997
0.999959
0.99971
1
0.999999
0.999999
0.999998
0.999996
0.999994
0.999986
0.999982
0.999545
1
1
1
1
0.999999
0.999999
0.999998
0.999996
0.999512
0.999996
0.999992
0.999985
0.999975
0.999962
0.999946
0.999872
0.999998
0.999997
0.999993
0.999987
0.999979
0.999968
0.999955
0.999943
0.999779
0.999999
0.999999
0.999997
0.999995
0.99999
0.999983
0.999972
0.999965
0.999886
1
1
1
1
0.999999
0.999998
0.999997
0.999995
0.999765
0.999993
0.999988
0.999981
0.999975
0.999901
1
0.999999
0.999998
0.999996
0.999993
0.999988
0.999981
0.999978
0.999874
1
1
0.999999
0.999999
0.999998
0.999997
0.999994
0.999993
0.999633
1
1
1
1
1
1
0.999999
0.999999
0.996517
0.999996
0.999995
0.999461
1
1
1
1
0.999999
0.999998
0.999997
0.999995
0.999444
1
1
1
1
1
1
0.999999
0.999999
0.998967
1
1
1
1
1
1
1
1
0.999437
)
;

boundaryField
{
    inlet
    {
        type            fixedValue;
        value           nonuniform 0();
    }
    outlet
    {
        type            fixedValue;
        value           uniform 1;
    }
    wall
    {
        type            zeroGradient;
    }
    procBoundary7to0
    {
        type            processor;
        value           uniform 1;
    }
    procBoundary7to1
    {
        type            processor;
        value           uniform 0.999999;
    }
    procBoundary7to3
    {
        type            processor;
        value           nonuniform List<scalar> 
36
(
0.999999
0.999997
0.999992
0.999982
0.999966
0.999948
0.999923
0.999917
0.999745
0.999999
0.999999
0.999997
0.999994
0.999987
0.999977
0.999961
0.999949
0.999791
1
0.999999
0.999998
0.999996
0.999992
0.999988
0.999979
0.999976
0.999727
1
1
1
1
0.999999
0.999999
0.999996
0.999996
0.999373
)
;
    }
    procBoundary7to5
    {
        type            processor;
        value           nonuniform List<scalar> 
44
(
0.999998
0.999996
0.999992
0.999985
0.999974
0.999959
0.999939
0.999674
0.999999
0.999998
0.999997
0.999994
0.999989
0.999981
0.999972
0.999964
0.999891
0.999999
0.999998
0.999998
0.999998
0.999996
0.999995
0.999992
0.999986
0.999984
0.999914
1
0.999999
0.999998
0.999996
0.999996
0.999999
0.999999
0.999997
0.999996
0.999515
1
1
1
1
0.999999
0.999999
0.999999
)
;
    }
    procBoundary7to6
    {
        type            processor;
        value           nonuniform List<scalar> 
12
(
1
1
1
0.999999
1
1
1
1
1
1
1
1
)
;
    }
}


// ************************************************************************* //
