/*--------------------------------*- C++ -*----------------------------------*\
| =========                 |                                                 |
| \\      /  F ield         | OpenFOAM: The Open Source CFD Toolbox           |
|  \\    /   O peration     | Version:  4.x                                   |
|   \\  /    A nd           | Web:      www.OpenFOAM.org                      |
|    \\/     M anipulation  |                                                 |
\*---------------------------------------------------------------------------*/
FoamFile
{
    version     2.0;
    format      ascii;
    class       volScalarField;
    location    "38.5";
    object      KslNext;
}
// * * * * * * * * * * * * * * * * * * * * * * * * * * * * * * * * * * * * * //

dimensions      [1 -3 -1 0 0 0 0];

internalField   nonuniform List<scalar> 
132
(
1e+10
3797.75
1e+10
3775.72
1e+10
3802.15
1e+10
4206.76
23151.1
1e+10
3850.18
1e+10
3884.47
82615.9
3953.74
17387.7
4159.01
6754.77
15659.4
3449.65
16027.1
3290.13
14814.9
3111.14
12165
2781.77
9670.49
6801.42
3076.51
7056.27
2978.18
7728.49
2890.16
9150.27
2685.9
11244.4
1e+10
3760.98
1e+10
3759.25
1e+10
4057
14463
1e+10
3882.96
1e+10
3788.16
1e+10
3693.97
1e+10
3633.33
29350
1.18165e+06
3796.45
1e+10
3870.18
1e+10
4171.06
1e+10
5057.93
21389.7
9108.87
3336.31
11494.1
3359.59
16648.3
3427.99
24437.6
3578.04
29674.5
35788
3434.54
18188.1
3524.88
6572.85
2.34615e+06
3735.34
1e+10
3730.7
1e+10
3844.72
54828
4107.18
8278.54
15941.8
3459.26
17668.4
3271.35
17085.7
2977.14
14036.2
2519.79
9026.3
6465.97
3068.99
6718.32
3017.45
7383.88
2915.05
9047.99
2636.88
13649.1
8598.95
2422.45
8977.14
9106.81
3267.37
10233.5
3206.51
11125.1
3080.07
11749.4
2835.06
13698.3
6691.67
3079.31
7068.8
3054.57
8005.1
2924.35
9636.27
2750.2
14924.2
5105.21
2867.91
5266.22
2889.7
5711.75
2891.51
6182.69
3134.14
5993.11
)
;

boundaryField
{
    inlet
    {
        type            zeroGradient;
    }
    outlet
    {
        type            zeroGradient;
    }
    wall
    {
        type            zeroGradient;
    }
    procBoundary7to0
    {
        type            processor;
        value           uniform 0;
    }
    procBoundary7to1
    {
        type            processor;
        value           uniform 0;
    }
    procBoundary7to3
    {
        type            processor;
        value           uniform 0;
    }
    procBoundary7to5
    {
        type            processor;
        value           uniform 0;
    }
    procBoundary7to6
    {
        type            processor;
        value           uniform 0;
    }
}


// ************************************************************************* //
