/*--------------------------------*- C++ -*----------------------------------*\
| =========                 |                                                 |
| \\      /  F ield         | OpenFOAM: The Open Source CFD Toolbox           |
|  \\    /   O peration     | Version:  4.x                                   |
|   \\  /    A nd           | Web:      www.OpenFOAM.org                      |
|    \\/     M anipulation  |                                                 |
\*---------------------------------------------------------------------------*/
FoamFile
{
    version     2.0;
    format      ascii;
    class       volVectorField;
    location    "38.5";
    object      U;
}
// * * * * * * * * * * * * * * * * * * * * * * * * * * * * * * * * * * * * * //

dimensions      [0 1 -1 0 0 0 0];

internalField   nonuniform List<vector> 
132
(
(1.29876e-08 8.08993e-10 1.76512e-10)
(0.0282689 0.000317886 -2.05646e-05)
(1.2337e-08 1.18763e-09 5.61234e-10)
(0.0282794 0.000561778 5.24979e-05)
(1.19123e-08 6.48051e-10 -3.591e-09)
(0.0279668 0.00087308 0.000777271)
(1.04869e-08 1.85434e-09 -7.64262e-09)
(0.0238637 -0.00124404 0.00336322)
(0.00384975 0.00128793 -0.00125181)
(1.2592e-08 3.42623e-11 1.02894e-09)
(0.0280781 0.000162698 -0.000119467)
(1.19164e-08 -2.64281e-10 1.21628e-09)
(0.0274616 9.42481e-05 0.00023851)
(0.00119934 0.00041296 -0.000150458)
(0.0267951 -0.000104566 0.000929335)
(0.00522146 0.00282536 -0.000435284)
(0.02444 -0.00233687 0.00175183)
(0.0105079 0.0101036 0.00121104)
(0.00672789 0.00065476 -0.000654135)
(0.0313852 0.000295577 -0.000139065)
(0.00651385 0.00091683 -0.00100747)
(0.0326451 -0.000282553 -0.000539062)
(0.0067499 0.00168541 -0.00180417)
(0.0345674 -0.00187329 -0.000528975)
(0.00713938 0.00342699 -0.00338896)
(0.0368249 -0.00497695 0.00189054)
(0.0054424 0.00735659 -0.00457349)
(0.0155013 -0.000334061 -0.00119057)
(0.034577 -0.000239967 -0.000931638)
(0.0148956 -0.000551082 -0.00162784)
(0.0354801 -0.000602152 -0.000838664)
(0.0134298 -0.000722054 -0.0024989)
(0.0366799 -0.000724903 -0.000248897)
(0.0105065 -0.000700088 -0.00415881)
(0.0381122 -0.000151393 0.00228089)
(0.00538077 -0.000442032 -0.00684546)
(1.20958e-08 -2.80417e-09 1.96435e-09)
(0.0280906 -0.000207638 0.000438467)
(1.17739e-08 -2.87716e-09 1.36746e-09)
(0.0277943 -0.000219589 0.00101195)
(1.09865e-08 -2.80244e-09 -5.4937e-10)
(0.0249465 0.00128871 0.000871606)
(0.00630758 -0.00121455 0.00209472)
(1.19997e-08 -2.99132e-12 1.458e-09)
(0.0274305 -4.75408e-05 6.03732e-05)
(1.19084e-08 -9.81445e-10 1.71642e-09)
(0.0278725 -5.05155e-05 -0.000141763)
(1.13017e-08 -4.66183e-10 3.12252e-10)
(0.0282776 0.00019934 -0.000136346)
(1.07637e-08 -3.38766e-10 -2.35764e-09)
(0.0278427 0.000337176 0.000598693)
(0.00327288 -0.000505249 0.000223345)
(8.79691e-05 1.03698e-05 -9.29546e-06)
(0.0281527 -0.00041341 -0.00015941)
(1.05003e-08 9.63885e-11 3.37666e-10)
(0.0272738 -0.000521709 3.64734e-05)
(9.87195e-09 8.27719e-10 -9.80467e-10)
(0.025241 -0.000327411 0.000498781)
(9.47147e-09 1.23095e-09 -2.95752e-09)
(0.0198991 -0.000807669 0.00152006)
(0.00451656 0.000439873 0.000171515)
(0.0114432 0.00013152 -0.000733353)
(0.031523 -0.0004082 -0.000391634)
(0.00900466 0.000144905 -0.00093601)
(0.0310808 -0.000679584 -0.000367065)
(0.00612301 0.000409995 -0.000945881)
(0.0301086 -0.000510225 -1.08895e-05)
(0.00396197 0.000637764 -0.000982862)
(0.0278053 -0.00125145 0.00128821)
(0.00303238 0.00109411 0.000225151)
(0.00278049 -0.000190664 0.000783412)
(0.0303286 -9.88341e-05 0.000149385)
(0.00499003 -0.000473337 0.00255574)
(0.0287461 -4.54157e-05 -0.00211222)
(0.00956874 -0.00121806 0.0112615)
(4.45056e-05 1.86941e-07 4.26696e-06)
(0.0284048 1.72043e-05 -0.000187353)
(1.17094e-08 -6.3074e-11 3.1596e-09)
(0.0281271 -0.000283501 0.000146446)
(1.26475e-08 5.84338e-11 2.64871e-09)
(0.0270558 -0.000659388 0.000552159)
(0.00172966 0.000363738 0.000566658)
(0.0245782 -0.00217189 -0.000383027)
(0.00890744 0.00546692 0.00536403)
(0.00658869 0.000287493 6.31024e-05)
(0.0306847 2.6132e-05 -0.000167838)
(0.0059153 0.000317143 0.000123586)
(0.0322627 -0.000307919 -0.000324212)
(0.00602675 0.000682584 0.000646859)
(0.0350622 -0.00167576 -0.00029136)
(0.0068401 0.00157349 0.00184372)
(0.0397828 -0.0045658 -0.00193159)
(0.00632755 0.00501554 0.0070317)
(0.0160464 2.68849e-05 -0.000165074)
(0.0339842 -1.94103e-05 0.000130171)
(0.0153733 -0.000278746 -0.000175022)
(0.0345115 -0.000495369 0.000134055)
(0.0138976 -0.000776488 -8.53613e-05)
(0.0352933 -0.00087101 0.000170792)
(0.0109841 -0.00157285 -6.29123e-05)
(0.037484 -0.000572025 6.63041e-05)
(0.00569884 -0.00193333 0.00351318)
(0.0113257 -0.00264925 0.00185985)
(0.0417316 0.00124145 -0.00202061)
(0.00746988 -0.00492586 0.00600145)
(0.011366 -0.000242078 0.00024445)
(0.0318982 -0.000219071 -7.25761e-05)
(0.0100657 -0.000444415 0.000275502)
(0.0324509 -0.000381972 -0.000160328)
(0.00912059 -0.000777962 0.000841201)
(0.0331737 -0.00050704 -0.00102868)
(0.00827272 -0.00147364 0.00159213)
(0.0351017 0.000101482 -0.00325958)
(0.00547386 -0.00243317 0.0036243)
(0.015449 0.000118696 -4.27518e-05)
(0.0336587 7.10159e-05 -7.36788e-05)
(0.0145599 -4.38889e-05 -0.00043516)
(0.0341245 -0.000373374 -0.000659033)
(0.0127538 -0.000510578 -0.000911627)
(0.034771 -0.00078647 -0.00109517)
(0.0101546 -0.00115503 -0.00176465)
(0.0360519 -0.000697114 -0.000803273)
(0.00573917 -0.0022668 -0.00165095)
(0.0200834 -0.000143233 -0.000226067)
(0.0359584 -0.000129616 -0.000193343)
(0.01942 -0.000253252 -0.000452704)
(0.0358286 -0.000250431 -0.00044287)
(0.0178352 -0.000661276 -0.000901182)
(0.0348295 -0.00017387 -0.000456964)
(0.015731 -0.00161457 -0.00200533)
(0.0310605 0.000698654 0.000339355)
(0.0148182 -0.00474395 -0.00218091)
)
;

boundaryField
{
    inlet
    {
        type            fixedValue;
        value           nonuniform 0();
    }
    outlet
    {
        type            zeroGradient;
    }
    wall
    {
        type            fixedValue;
        value           uniform (0 0 0);
    }
    procBoundary7to0
    {
        type            processor;
        value           uniform (0.0277646 -0.000128121 -7.43269e-05);
    }
    procBoundary7to1
    {
        type            processor;
        value           uniform (1.10399e-08 -1.59837e-10 2.09829e-09);
    }
    procBoundary7to3
    {
        type            processor;
        value           nonuniform List<vector> 
36
(
(0.00205576 -0.000172614 -0.0004906)
(0.0297268 -2.81065e-05 -5.41958e-05)
(0.00126284 -0.000159678 -0.00042551)
(0.0297748 -0.000237872 0.000496063)
(0.00135584 -0.000342164 -0.000705438)
(0.029251 -0.000425287 0.00141453)
(0.00223752 -0.000851372 -0.00162506)
(0.0265743 0.000843368 0.00431079)
(0.0069151 -0.00309711 -0.00677751)
(1.09453e-08 -2.67626e-09 1.95988e-09)
(0.0280995 -0.000181889 0.000382433)
(1.01564e-08 -2.36444e-09 2.07488e-09)
(0.0277849 0.000105413 0.000849086)
(9.82056e-09 -2.59145e-09 -2.33701e-09)
(0.0275 0.000601626 0.00213989)
(1.026e-08 -2.36266e-11 -8.06838e-09)
(0.0241292 9.99632e-05 0.00325722)
(0.00342264 0.000572845 -0.000497982)
(0.0024388 0.000194761 -0.000193746)
(0.0301603 -8.11686e-05 -0.000142304)
(0.00108759 0.000142794 -0.000143646)
(0.0309232 -0.000235876 0.000383481)
(0.00217814 0.000615495 -0.000512912)
(0.0319543 -0.000335397 0.00126043)
(0.00582019 0.00330779 -0.00229119)
(0.0310606 -0.00233646 0.00320421)
(0.0101018 0.0142429 -0.0069202)
(0.0154924 3.32139e-05 -0.000964358)
(0.0345597 2.45699e-05 -0.000540666)
(0.0148702 -0.00017895 -0.00123395)
(0.0358273 -0.000900363 -0.00016246)
(0.013388 3.67374e-05 -0.00194678)
(0.0381757 -0.00145259 0.000509509)
(0.0114725 0.00111798 -0.00318012)
(0.0451427 -0.00195437 0.00241592)
(0.00728546 0.00642997 -0.00614349)
)
;
    }
    procBoundary7to5
    {
        type            processor;
        value           nonuniform List<vector> 
44
(
(0.026032 0.000561854 3.55612e-05)
(1.19078e-08 -1.91634e-10 2.9469e-09)
(0.0256028 0.000442365 0.000245221)
(1.21821e-08 -2.451e-09 -1.52824e-09)
(0.0245868 -4.64132e-05 0.00087414)
(1.27494e-08 -1.43001e-09 -4.4919e-09)
(0.0213536 -0.00101594 0.00175097)
(0.00713459 6.35342e-05 -0.000409177)
(1.19307e-08 -8.04384e-10 1.26812e-09)
(0.0276818 -0.000139495 -9.64317e-07)
(1.19659e-08 -2.60461e-09 5.60921e-09)
(0.0292575 0.000208281 0.000296825)
(0.000260258 -9.02363e-05 8.19612e-05)
(0.0298769 5.25486e-05 0.000801744)
(0.00205604 -0.000953504 0.000914022)
(0.0281523 0.00213496 -0.000771953)
(0.00617625 -0.00308773 0.00308241)
(1.19307e-08 -8.04384e-10 1.26812e-09)
(0.0276818 -0.000139495 -9.64317e-07)
(0.0276818 -0.000139495 -9.64317e-07)
(0.00180409 -7.64135e-05 0.000303482)
(0.0300634 8.59506e-05 -9.56362e-05)
(1.23509e-08 -1.49163e-09 1.9096e-09)
(0.0273515 0.000744451 -0.000132205)
(0.002801 -0.000514385 0.00107413)
(0.0247492 0.00085015 -0.00146094)
(0.00902911 -0.00375468 0.00994218)
(0.00237839 -9.13229e-05 0.000222582)
(0.0294768 0.000309367 -4.03189e-05)
(0.00180409 -7.64135e-05 0.000303482)
(0.0300634 8.59506e-05 -9.56362e-05)
(0.0300634 8.59506e-05 -9.56362e-05)
(0.0123498 -0.00130468 0.00062327)
(0.0368696 -0.000224392 -0.000820533)
(0.0126666 -0.00177956 0.00403079)
(0.044139 0.00151244 -0.00406614)
(0.0079195 -0.00257006 0.0101957)
(0.013862 -0.000562688 0.000277455)
(0.0335058 -0.000430005 0.000200293)
(0.0133572 -0.000825249 0.000284629)
(0.034744 -0.000477623 -0.000401171)
(0.0123498 -0.00130468 0.00062327)
(0.0368696 -0.000224392 -0.000820533)
(0.0368696 -0.000224392 -0.000820533)
)
;
    }
    procBoundary7to6
    {
        type            processor;
        value           nonuniform List<vector> 
12
(
(0.0279175 0.000280894 0.000151707)
(0.0302591 0.000762776 -0.000361674)
(0.0334192 6.52809e-05 -0.000744511)
(0.0268966 -0.000419508 -0.000156407)
(0.028167 -6.08033e-05 -0.000342814)
(0.0314553 0.000237497 -0.000409511)
(0.028263 1.91406e-05 -7.1752e-05)
(0.0298345 0.000712673 0.00033883)
(0.0331695 0.000309618 0.000171328)
(0.0313446 -0.000233674 0.000580998)
(0.0329881 0.000298264 0.000283675)
(0.0352941 8.13467e-05 4.39437e-05)
)
;
    }
}


// ************************************************************************* //
