/*--------------------------------*- C++ -*----------------------------------*\
| =========                 |                                                 |
| \\      /  F ield         | OpenFOAM: The Open Source CFD Toolbox           |
|  \\    /   O peration     | Version:  4.x                                   |
|   \\  /    A nd           | Web:      www.OpenFOAM.org                      |
|    \\/     M anipulation  |                                                 |
\*---------------------------------------------------------------------------*/
FoamFile
{
    version     2.0;
    format      ascii;
    class       volVectorField;
    location    "34";
    object      U;
}
// * * * * * * * * * * * * * * * * * * * * * * * * * * * * * * * * * * * * * //

dimensions      [0 1 -1 0 0 0 0];

internalField   nonuniform List<vector> 
108
(
(0.0299547 -0.000988202 -0.00059198)
(0.0128324 -0.000477641 -0.000384998)
(0.0309993 -0.00107846 -0.000604445)
(0.0137996 -0.00045327 -0.000440595)
(0.0316878 -0.000833556 -0.000346529)
(0.0144398 -0.000281817 -0.000337053)
(0.0324377 -0.000607199 -0.000323429)
(0.0146913 -0.000273609 -0.000356141)
(0.0334346 -0.000565446 2.53922e-05)
(0.0297568 -0.00158594 -0.000457125)
(0.0104714 -0.000722182 -0.000235065)
(0.0294689 -0.00164448 -0.000363693)
(0.00828638 -0.000529196 -0.000234949)
(0.0293168 -0.00121148 -0.000164588)
(0.00663419 -0.000358327 -0.000136332)
(0.0293917 -0.000896498 -4.15095e-05)
(0.00504681 -0.000332947 -0.000107565)
(0.0298555 -0.000519375 0.000283163)
(0.0297504 -0.00096321 -0.00049496)
(0.00944006 -0.000546801 -0.000233793)
(0.0288142 -0.00107844 -0.000311586)
(0.00609424 -0.000400673 -8.91643e-05)
(0.0284421 -0.000915507 -3.39282e-05)
(0.00361719 -0.000302519 2.28217e-05)
(0.0284276 -0.000494666 -0.000117415)
(0.00130365 -0.000127892 4.07457e-05)
(0.0286514 0.000162188 -0.000336559)
(0.0297081 -0.000462561 -0.000515145)
(0.00934849 -7.3512e-05 -0.000143599)
(0.028507 -0.000342032 -0.000216123)
(0.00554909 -0.000145219 -9.42984e-05)
(0.0278329 -0.000318704 -3.16989e-05)
(0.00225612 -7.83058e-05 4.03007e-05)
(0.0276192 -1.63725e-05 -3.0761e-05)
(4.93525e-05 -2.86152e-06 2.68777e-06)
(0.0275246 3.19575e-05 -0.000125932)
(0.0299034 -0.000777358 0.000174437)
(0.0129791 -0.000353178 5.16358e-05)
(0.0310274 -0.00069399 0.000208968)
(0.0139618 -0.000278639 -0.000201814)
(0.031709 -0.000562376 -2.27325e-05)
(0.0145631 -0.000243731 -0.000307328)
(0.0322179 -0.00041062 7.54759e-06)
(0.0145508 -7.45168e-05 -0.000338031)
(0.0327898 -0.00019376 0.000109109)
(0.029808 -0.00141816 0.000417683)
(0.0115708 -0.00075181 0.000152275)
(0.0300276 -0.00151874 0.000646833)
(0.0107767 -0.000541652 3.72158e-05)
(0.0301119 -0.0012106 0.000422764)
(0.00977736 -0.000382609 -9.66726e-05)
(0.0301462 -0.0007834 0.000386404)
(0.00836907 -0.000227168 -0.000118671)
(0.0304578 -0.000545006 0.000412344)
(0.029773 -0.00103922 0.00047413)
(0.0102978 -0.000469477 0.000166664)
(0.0292552 -0.00101416 0.000619958)
(0.00768583 -0.000329098 0.000101016)
(0.0288374 -0.000625661 0.000445125)
(0.00542989 -0.000137474 2.79289e-05)
(0.0287212 -0.000139561 0.000387053)
(0.00347133 -2.33925e-05 2.58267e-05)
(0.0288621 5.3109e-05 0.000143136)
(0.0297166 -0.000329298 0.000422338)
(0.0100135 1.59808e-05 0.000344447)
(0.0289545 -8.84749e-05 0.000819526)
(0.00715696 -9.75038e-06 0.000246428)
(0.0286989 -8.75923e-05 0.000857074)
(0.00492494 -7.93863e-05 0.000273927)
(0.0287396 -0.000121081 0.000771069)
(0.00336456 -6.96124e-05 0.000204472)
(0.0288511 -8.4528e-05 0.000178399)
(0.0300501 -0.000736763 0.000445917)
(0.0143603 -0.000397342 0.000331085)
(0.0320438 -0.000648696 0.000649469)
(0.0171118 -0.000244594 0.000248149)
(0.0336159 -0.00040207 0.000467492)
(0.0187453 -0.000125487 0.00016295)
(0.0347232 -0.000263296 0.000616353)
(0.0198678 -0.000136332 0.000481033)
(0.0360712 -0.000319987 0.000858315)
(0.0300093 -0.00131033 0.000485398)
(0.0132325 -0.000737421 0.000295291)
(0.0310718 -0.0013172 0.000700512)
(0.0146723 -0.0005174 0.000297882)
(0.0321535 -0.000890048 0.000634973)
(0.0157474 -0.000399064 0.000293873)
(0.0330408 -0.000700362 0.000774563)
(0.0164214 -0.000473254 0.000394005)
(0.0341365 -0.000736736 0.00072121)
(0.0298228 -0.000960064 0.000558858)
(0.0123644 -0.000445489 0.00038945)
(0.0304358 -0.00095426 0.000873409)
(0.0126842 -0.000416803 0.000370656)
(0.0309629 -0.000575875 0.000841215)
(0.0130704 -0.000199627 0.00028876)
(0.0316405 -0.000220281 0.000783655)
(0.0134803 -0.000224535 0.000332923)
(0.0323445 -0.000258887 0.000716557)
(0.0297246 -0.000134418 0.000551034)
(0.0121529 -4.85382e-05 0.000376711)
(0.0301325 -0.000221564 0.000792141)
(0.0121832 -0.000150339 0.000357419)
(0.0308492 -0.000268137 0.000751501)
(0.0126988 -0.000234961 0.000365968)
(0.0315346 -0.000363767 0.000765058)
(0.0134848 -0.000252043 0.000209046)
(0.0324109 -0.000439686 0.000422521)
)
;

boundaryField
{
    inlet
    {
        type            fixedValue;
        value           uniform (0.01 0 0);
    }
    outlet
    {
        type            zeroGradient;
    }
    wall
    {
        type            fixedValue;
        value           uniform (0 0 0);
    }
    procBoundary4to0
    {
        type            processor;
        value           nonuniform List<vector> 
36
(
(0.0298987 -0.000914467 -0.00132444)
(0.0125759 -0.000445268 -0.000864048)
(0.0310162 -0.000914298 -0.00140995)
(0.0137557 -0.000347209 -0.000853561)
(0.0317538 -0.000679506 -0.00112568)
(0.0143217 -0.000295012 -0.000813372)
(0.0321701 -0.000617075 -0.0009063)
(0.0142702 -0.000147314 -0.000860907)
(0.0324276 -0.000339123 -0.000656918)
(0.0298031 -0.00150982 -0.00149839)
(0.010375 -0.000740035 -0.000797363)
(0.0296776 -0.00172249 -0.00152305)
(0.00875178 -0.000601559 -0.000612073)
(0.0293808 -0.0013882 -0.00101112)
(0.00712989 -0.000491883 -0.000441979)
(0.0292068 -0.000874573 -0.000687009)
(0.00499198 -0.000415384 -0.000386612)
(0.0288684 -7.78975e-05 -0.00062619)
(0.0296009 -0.000977873 -0.00155098)
(0.00924134 -0.000496512 -0.000783127)
(0.0287716 -0.00112998 -0.00139576)
(0.00545755 -0.000306094 -0.000425662)
(0.0279346 -0.000698722 -0.000872073)
(0.0020031 -0.000129416 -0.000177478)
(0.0272962 -8.29542e-05 -0.000676398)
(8.07098e-09 -2.2198e-09 3.75476e-09)
(0.0266105 0.000516683 -0.000229036)
(0.0296099 -0.00020934 -0.00139379)
(0.00903638 -2.7476e-06 -0.000790755)
(0.0285397 7.7404e-05 -0.0013522)
(0.00488298 7.8461e-05 -0.000458808)
(0.0276561 0.000243595 -0.000976403)
(0.00175254 4.35962e-05 -0.000204233)
(0.0273656 7.9657e-05 -0.00062566)
(3.56555e-05 1.34143e-06 -5.11158e-06)
(0.026926 -0.000100617 -4.48273e-05)
)
;
    }
    procBoundary4to5
    {
        type            processor;
        value           nonuniform List<vector> 
12
(
(0.0144873 -0.000346186 0.000113124)
(0.0027963 -0.000305981 8.30276e-05)
(1.63224e-07 -3.05311e-08 2.15143e-08)
(5.97239e-09 -3.60973e-09 6.22461e-09)
(0.0139078 5.46956e-05 -0.000434136)
(0.00712786 -0.000334203 -0.000131508)
(0.00143827 -6.55682e-05 2.15982e-05)
(0.00230519 -8.32546e-05 0.00022623)
(0.0210176 -0.000172785 0.000687108)
(0.0169044 -0.000813931 0.000385845)
(0.0134658 -0.000541128 0.000386134)
(0.0135618 -0.000559485 0.000250118)
)
;
    }
    procBoundary4to6
    {
        type            processor;
        value           nonuniform List<vector> 
27
(
(0.0295423 0.000458838 -0.000606445)
(0.00870871 0.000296443 -0.000196844)
(0.0281456 0.000554646 -0.000475797)
(0.00455042 0.000166209 -0.000147092)
(0.0276713 0.00034116 -0.00035581)
(0.00144671 6.97478e-05 -5.09785e-05)
(0.0273175 -3.00327e-05 -0.000303962)
(5.92815e-09 -2.63925e-09 3.15016e-09)
(0.027182 -0.000386861 -0.000298493)
(0.0296476 0.000754301 0.000783947)
(0.00987524 0.000328987 0.000192426)
(0.0289392 0.000846297 0.000742097)
(0.00698167 0.000237451 0.000178192)
(0.028547 0.000573756 0.00053201)
(0.00436886 6.11622e-05 7.89669e-05)
(0.0283217 0.00022021 0.000118484)
(0.00193449 -1.4172e-05 8.185e-05)
(0.0282241 1.47187e-05 -0.000225992)
(0.0298818 0.000752271 0.000758259)
(0.0126157 0.000281175 0.000333715)
(0.0303851 0.000613627 0.000744656)
(0.0126958 0.000201015 0.000234183)
(0.0308024 0.000296416 0.000658857)
(0.0124466 7.88325e-06 0.000217517)
(0.0310134 -9.35092e-05 0.000572082)
(0.0115598 -0.000145355 0.000282823)
(0.0310302 -0.000189554 0.000421895)
)
;
    }
}


// ************************************************************************* //
