/*--------------------------------*- C++ -*----------------------------------*\
| =========                 |                                                 |
| \\      /  F ield         | OpenFOAM: The Open Source CFD Toolbox           |
|  \\    /   O peration     | Version:  4.x                                   |
|   \\  /    A nd           | Web:      www.OpenFOAM.org                      |
|    \\/     M anipulation  |                                                 |
\*---------------------------------------------------------------------------*/
FoamFile
{
    version     2.0;
    format      ascii;
    class       volVectorField;
    location    "2";
    object      DDtUrel;
}
// * * * * * * * * * * * * * * * * * * * * * * * * * * * * * * * * * * * * * //

dimensions      [0 1 -2 0 0 0 0];

internalField   nonuniform List<vector> 
108
(
(0.0151704 -0.000365036 0.00312017)
(0.0176207 -0.00029894 0.00303327)
(0.0217617 -0.000219653 0.00285917)
(0.0267434 -0.000113108 0.0026684)
(0.0318001 -2.58862e-06 0.00236347)
(0.0365886 0.000158335 0.00197554)
(0.0403997 0.000349482 0.00160656)
(0.0429359 0.000701972 0.00117561)
(0.0424818 0.00108333 0.000382185)
(0.0148637 -0.000290037 0.00308939)
(0.0170439 -0.000168806 0.00296813)
(0.0209894 -9.12212e-05 0.00278355)
(0.0256332 -1.58072e-05 0.00255318)
(0.0304307 3.47369e-05 0.00228033)
(0.0347134 0.00010097 0.00195987)
(0.0381033 0.000155128 0.00157929)
(0.0400063 0.000217599 0.00119025)
(0.0399843 0.000423099 0.000745232)
(0.014667 -8.75488e-05 0.00314602)
(0.0167262 -1.38417e-05 0.00298793)
(0.0204942 3.64331e-05 0.00276824)
(0.0248776 6.18033e-05 0.00247629)
(0.0293836 7.52545e-05 0.00218795)
(0.0333323 8.9051e-05 0.0019007)
(0.0364045 7.1915e-05 0.00155135)
(0.0380879 7.81571e-05 0.00120477)
(0.0381874 0.00018106 0.000850474)
(0.014636 8.78482e-05 0.00316608)
(0.0166598 0.000130461 0.00298284)
(0.0203558 0.000158563 0.00273324)
(0.0246596 0.000145819 0.00243092)
(0.0290624 0.000128982 0.00213877)
(0.0329222 0.000103805 0.00188862)
(0.0358679 8.78989e-05 0.00157195)
(0.0375048 6.52104e-05 0.00124274)
(0.0375466 2.53621e-05 0.000900168)
(0.0148111 -0.000336399 0.00234361)
(0.0171822 -0.000267725 0.00228338)
(0.0212113 -0.000167272 0.00219845)
(0.0261672 -4.97747e-05 0.00201797)
(0.0311409 0.000134955 0.00169601)
(0.0356327 0.000417474 0.00133546)
(0.0387033 0.000625942 0.000905362)
(0.0408215 0.000764608 0.000504289)
(0.0409523 0.000938627 -0.000133068)
(0.0145809 -0.000249157 0.00238147)
(0.0167377 -0.000159973 0.00226274)
(0.0206479 -7.95257e-05 0.00210842)
(0.0253206 -6.03437e-06 0.0019179)
(0.0301979 7.46704e-05 0.00168174)
(0.0345212 0.000148996 0.00141097)
(0.0374253 0.000261374 0.00104798)
(0.038976 0.000397717 0.000616805)
(0.0389361 0.000563484 0.000152389)
(0.0144607 -7.06788e-05 0.00247736)
(0.0165567 -2.01371e-05 0.00233124)
(0.0203931 9.96956e-06 0.00213953)
(0.0248941 3.46318e-05 0.00189153)
(0.029413 6.94704e-05 0.00163092)
(0.0335954 8.91111e-05 0.0013863)
(0.0365259 0.000130269 0.00105965)
(0.0382599 0.00017906 0.000690329)
(0.0383329 0.000299518 0.000304475)
(0.0144375 7.14642e-05 0.00249645)
(0.0164783 0.000103496 0.00235284)
(0.0202214 0.000114684 0.00213733)
(0.0246483 0.00010504 0.00187632)
(0.029209 7.71795e-05 0.00163632)
(0.0333905 2.54972e-05 0.00140019)
(0.0364548 -3.97761e-06 0.00109493)
(0.0382121 -4.54731e-05 0.000722999)
(0.0385029 4.03831e-05 0.000384638)
(0.0146596 -0.000242237 0.00195891)
(0.0169698 -0.000215389 0.00193154)
(0.0211035 -0.000152104 0.00188563)
(0.0265027 1.52375e-05 0.00166959)
(0.0315761 0.000288466 0.00135624)
(0.036208 0.000428724 0.00101417)
(0.0396642 0.000559655 0.000599605)
(0.0420433 0.000688719 0.000159615)
(0.0430525 0.00111668 -0.000840694)
(0.0146009 -0.000183778 0.00204749)
(0.0168498 -0.000127645 0.00197116)
(0.0208232 -0.000103835 0.00186371)
(0.0257317 -6.19352e-05 0.00165667)
(0.0305903 9.10278e-05 0.00140429)
(0.0352018 0.000200904 0.000991991)
(0.0379788 0.000372485 0.000524639)
(0.0398228 0.000506385 0.000105943)
(0.0395906 0.000668693 -0.000467416)
(0.0145712 -6.10881e-05 0.00212983)
(0.0168954 -3.05774e-05 0.00205928)
(0.0209877 -5.68599e-05 0.00191264)
(0.0256489 -1.99672e-05 0.00160618)
(0.0300036 5.53139e-05 0.00134808)
(0.0346641 0.00011883 0.00101248)
(0.0375144 0.000248514 0.000644168)
(0.0398035 0.00041454 0.000265178)
(0.0398596 0.00065687 -0.000348727)
(0.0145307 5.07672e-05 0.00214183)
(0.0167991 6.26906e-05 0.00207442)
(0.0207393 8.54624e-05 0.00191076)
(0.0254395 0.00012153 0.00166143)
(0.0301028 1.65971e-05 0.00145445)
(0.0349219 -9.50965e-05 0.00110683)
(0.0380245 -0.000163711 0.000678186)
(0.0403954 -0.000288719 0.00030541)
(0.0414282 0.000134555 -0.000151679)
)
;

boundaryField
{
    inlet
    {
        type            calculated;
        value           nonuniform List<vector> 
12
(
(0.00733817 -0.000800903 0.00248244)
(0.0063736 -0.00117108 0.00214512)
(0.00633848 -0.000347115 0.00275128)
(0.0065864 -0.000169209 0.00295578)
(0.00719582 -0.00103364 0.0012145)
(0.00632611 -0.000902956 0.00144233)
(0.00638283 -0.000115051 0.0021998)
(0.00662176 -9.87108e-05 0.00210213)
(0.00688879 -0.000225811 0.00059232)
(0.00729862 -0.000371671 0.00128634)
(0.00740215 -0.000103166 0.00149996)
(0.00713457 -0.00010444 0.00143629)
)
;
    }
    outlet
    {
        type            calculated;
        value           nonuniform 0();
    }
    wall
    {
        type            calculated;
        value           nonuniform List<vector> 
63
(
(0.00688879 -0.000225811 0.00059232)
(0.00729862 -0.000371671 0.00128634)
(0.00740215 -0.000103166 0.00149996)
(0.00713457 -0.00010444 0.00143629)
(0.0107733 -0.000445411 0.000783639)
(0.0111276 3.76255e-05 0.00101852)
(0.0126398 0.000127738 0.00167603)
(0.0119547 -0.000218208 0.00177482)
(0.0175361 -0.000598014 0.00153369)
(0.0170111 -0.000245985 0.00120589)
(0.0222514 -0.000776323 0.00187907)
(0.0192056 8.19433e-05 0.00164087)
(0.0309572 9.32909e-05 0.000950011)
(0.0250843 -0.000950831 0.00112767)
(0.0293665 -0.00061981 0.000228967)
(0.0274192 0.00107033 0.00112176)
(0.0373708 0.00179462 0.000266887)
(0.031429 -0.000223766 0.00138717)
(0.0287527 5.86128e-05 0.000216218)
(0.0329224 -6.52761e-05 0.00201952)
(0.0448261 0.00117988 0.00032221)
(0.0418406 -0.000302344 -0.0002574)
(0.0413865 0.000387855 -0.000275586)
(0.0481072 -0.00123425 0.00101435)
(0.0512766 0.00094082 -2.67928e-05)
(0.0389423 0.000652764 -0.00184284)
(0.0393805 0.00136119 -0.000331021)
(0.0495275 -0.0017303 -0.000430612)
(0.0570145 4.92818e-05 0.00107197)
(0.0423763 0.000462624 -0.00161577)
(0.0499072 0.00275339 9.01121e-05)
(0.0586209 -0.00435386 0.000161175)
(0.0729985 0.00235344 -0.00429613)
(0.0374033 -0.000713075 -0.00152573)
(0.0479711 0.00449813 -0.00297309)
(0.0748136 0.00133137 0.000184374)
(0.00733817 -0.000800903 0.00248244)
(0.00719582 -0.00103364 0.0012145)
(0.00688879 -0.000225811 0.00059232)
(0.0128199 -0.000793551 0.00243143)
(0.0124776 -0.000775187 0.00121054)
(0.0107733 -0.000445411 0.000783639)
(0.0198338 -0.00074393 0.00208454)
(0.0185892 -0.000380945 0.00171376)
(0.0175361 -0.000598014 0.00153369)
(0.0274129 -0.000449662 0.0024029)
(0.0259356 -0.000414245 0.00184935)
(0.0309572 9.32909e-05 0.000950011)
(0.0341993 -0.000474837 0.00211724)
(0.0322684 -6.26833e-05 0.000864834)
(0.0373708 0.00179462 0.000266887)
(0.043385 -0.000231372 0.00112856)
(0.0389614 0.00224459 0.0003529)
(0.0448261 0.00117988 0.00032221)
(0.0512548 -0.000158856 0.0011011)
(0.0375787 0.00301033 -0.000833975)
(0.0512766 0.00094082 -2.67928e-05)
(0.0624891 0.00237768 0.00211185)
(0.0426678 0.00220065 -7.51445e-05)
(0.0570145 4.92818e-05 0.00107197)
(0.0495671 0.00507031 -0.00162612)
(0.0424509 0.000552742 3.8491e-05)
(0.0729985 0.00235344 -0.00429613)
)
;
    }
    procBoundary4to0
    {
        type            processor;
        value           nonuniform List<vector> 
36
(
(0.0157984 -0.00039982 0.00422317)
(0.0184176 -0.00031849 0.00413866)
(0.0228245 -0.000261985 0.00385619)
(0.0281316 -0.00016899 0.0036376)
(0.033332 -8.01698e-05 0.00327887)
(0.0382398 5.19755e-05 0.00288176)
(0.0421897 0.000259126 0.00256203)
(0.0447556 0.000548173 0.00190451)
(0.0453378 0.000701605 0.00109221)
(0.0154905 -0.000303063 0.00413944)
(0.017867 -0.000173753 0.00400744)
(0.0220459 -0.000111055 0.00377025)
(0.0269048 -3.33372e-05 0.00346109)
(0.031763 -3.23186e-06 0.00310987)
(0.0361736 2.94248e-05 0.00273159)
(0.0397177 6.84962e-05 0.00236082)
(0.0417842 0.000186049 0.0018934)
(0.0421613 0.000389463 0.0013954)
(0.0152391 -7.48358e-05 0.00414493)
(0.0174941 -9.18591e-06 0.00395616)
(0.0215005 3.36138e-05 0.00368587)
(0.0260032 4.92291e-05 0.00332336)
(0.0305834 6.48894e-05 0.0029448)
(0.0346052 7.55108e-05 0.0025801)
(0.0377682 4.29628e-05 0.00220027)
(0.0395786 4.53213e-05 0.00177788)
(0.0399095 0.000135608 0.00139481)
(0.0152028 0.000114285 0.00415969)
(0.0174434 0.000146363 0.00395157)
(0.0213614 0.000162761 0.00364607)
(0.0257899 0.000147285 0.00325337)
(0.0302462 0.000151065 0.00286502)
(0.0340943 0.000174949 0.00249911)
(0.0370149 0.000114009 0.00213939)
(0.0386737 8.55396e-05 0.00174346)
(0.0389295 6.86451e-05 0.00134061)
)
;
    }
    procBoundary4to5
    {
        type            processor;
        value           nonuniform List<vector> 
12
(
(0.0409486 0.00136159 -0.000302545)
(0.0383066 0.000635355 0.000235483)
(0.0363965 0.000319198 0.000397597)
(0.0355771 9.0307e-06 0.000427642)
(0.0390724 0.00127829 -0.000907533)
(0.0369372 0.000729941 -0.000369245)
(0.0362076 0.000398879 -0.000137751)
(0.0362394 8.88525e-05 1.75761e-07)
(0.0400623 0.00175081 -0.0018155)
(0.0371261 0.000937977 -0.00107567)
(0.0376333 0.000536673 -0.000850163)
(0.0395583 0.00032593 -0.00095557)
)
;
    }
    procBoundary4to6
    {
        type            processor;
        value           nonuniform List<vector> 
27
(
(0.0147155 0.000284609 0.00313182)
(0.0167486 0.000248669 0.00292183)
(0.0205659 0.0002211 0.00270145)
(0.0249657 0.000172157 0.00242227)
(0.0294203 0.00012714 0.00212688)
(0.0333718 7.28562e-05 0.00183777)
(0.0363825 7.34099e-05 0.00154786)
(0.0379947 2.67365e-06 0.00123154)
(0.0379151 -9.99229e-05 0.000889508)
(0.0145032 0.000234828 0.00246596)
(0.0165532 0.000222709 0.00228427)
(0.0203607 0.000191888 0.00208758)
(0.0248293 0.000124241 0.00185876)
(0.0294276 6.42421e-05 0.00160985)
(0.0334979 -5.46808e-06 0.00133929)
(0.0365488 -5.49442e-05 0.00107705)
(0.0380467 -0.000165043 0.000730729)
(0.0377749 -0.000190856 0.000306049)
(0.0145909 0.000177168 0.00208401)
(0.0168329 0.000190972 0.00199492)
(0.0207133 0.000183021 0.00184551)
(0.0254256 0.000120783 0.00161799)
(0.0300368 -4.99088e-05 0.00133034)
(0.0342354 -0.000106507 0.00101679)
(0.0371356 -0.000162334 0.000578542)
(0.0386356 -0.000495094 6.9791e-05)
(0.0381291 -0.000454983 -0.000232849)
)
;
    }
}


// ************************************************************************* //
