/*--------------------------------*- C++ -*----------------------------------*\
| =========                 |                                                 |
| \\      /  F ield         | OpenFOAM: The Open Source CFD Toolbox           |
|  \\    /   O peration     | Version:  4.x                                   |
|   \\  /    A nd           | Web:      www.OpenFOAM.org                      |
|    \\/     M anipulation  |                                                 |
\*---------------------------------------------------------------------------*/
FoamFile
{
    version     2.0;
    format      ascii;
    class       volScalarField;
    location    "2";
    object      Deff;
}
// * * * * * * * * * * * * * * * * * * * * * * * * * * * * * * * * * * * * * //

dimensions      [0 2 -1 0 0 0 0];

internalField   nonuniform List<scalar> 
108
(
9.88452e-08
9.86167e-08
9.8453e-08
9.84373e-08
9.83754e-08
9.83417e-08
9.82311e-08
9.81719e-08
9.79933e-08
9.86294e-08
9.85262e-08
9.83655e-08
9.82203e-08
9.81852e-08
9.81863e-08
9.81712e-08
9.81335e-08
9.79459e-08
9.85916e-08
9.83925e-08
9.83044e-08
9.8135e-08
9.81227e-08
9.81343e-08
9.80763e-08
9.79472e-08
9.80223e-08
9.86152e-08
9.84463e-08
9.82602e-08
9.81935e-08
9.80682e-08
9.80563e-08
9.78946e-08
9.80225e-08
9.80273e-08
9.88148e-08
9.86588e-08
9.84399e-08
9.82881e-08
9.82642e-08
9.82885e-08
9.82597e-08
9.80415e-08
9.79069e-08
9.86918e-08
9.85063e-08
9.83872e-08
9.82569e-08
9.82155e-08
9.81699e-08
9.81017e-08
9.79699e-08
9.78784e-08
9.86511e-08
9.84135e-08
9.82207e-08
9.81074e-08
9.80559e-08
9.80257e-08
9.79974e-08
9.79454e-08
9.79268e-08
9.8455e-08
9.83275e-08
9.8233e-08
9.80154e-08
9.79437e-08
9.79445e-08
9.78405e-08
9.7893e-08
9.79417e-08
9.88137e-08
9.85927e-08
9.85755e-08
9.835e-08
9.82792e-08
9.80945e-08
9.81101e-08
9.80257e-08
9.79956e-08
9.86862e-08
9.83885e-08
9.84107e-08
9.83249e-08
9.82223e-08
9.80845e-08
9.80812e-08
9.80395e-08
9.79352e-08
9.86047e-08
9.83407e-08
9.8223e-08
9.81334e-08
9.81323e-08
9.80205e-08
9.80239e-08
9.79569e-08
9.79689e-08
9.84004e-08
9.8325e-08
9.82549e-08
9.80341e-08
9.79726e-08
9.78591e-08
9.80338e-08
9.80433e-08
9.80014e-08
)
;

boundaryField
{
    inlet
    {
        type            calculated;
        value           uniform 0;
    }
    outlet
    {
        type            calculated;
        value           nonuniform 0();
    }
    wall
    {
        type            calculated;
        value           uniform 0;
    }
    procBoundary4to0
    {
        type            processor;
        value           uniform 0;
    }
    procBoundary4to5
    {
        type            processor;
        value           uniform 0;
    }
    procBoundary4to6
    {
        type            processor;
        value           uniform 0;
    }
}


// ************************************************************************* //
