/*--------------------------------*- C++ -*----------------------------------*\
| =========                 |                                                 |
| \\      /  F ield         | OpenFOAM: The Open Source CFD Toolbox           |
|  \\    /   O peration     | Version:  4.x                                   |
|   \\  /    A nd           | Web:      www.OpenFOAM.org                      |
|    \\/     M anipulation  |                                                 |
\*---------------------------------------------------------------------------*/
FoamFile
{
    version     2.0;
    format      ascii;
    class       volVectorField;
    location    "2";
    object      UsPrev;
}
// * * * * * * * * * * * * * * * * * * * * * * * * * * * * * * * * * * * * * //

dimensions      [0 1 -1 0 0 0 0];

internalField   nonuniform List<vector> 
108
(
(4.14852e-06 1.64896e-06 -1.21779e-06)
(1.04512e-05 2.42652e-06 -1.30458e-06)
(2.35195e-05 5.34037e-07 -1.79348e-07)
(3.84684e-05 5.91482e-06 6.01165e-06)
(4.67065e-05 7.16e-06 -7.31966e-06)
(5.36013e-05 1.015e-05 -1.83604e-05)
(5.07521e-05 1.34346e-05 -2.29243e-05)
(6.43141e-05 2.86041e-06 -2.10912e-05)
(5.32349e-05 -1.20456e-05 -2.87751e-05)
(7.26887e-06 3.22e-06 1.47328e-06)
(2.53898e-05 2.0204e-06 -6.25158e-07)
(4.39385e-05 4.12683e-07 3.54163e-06)
(6.33642e-05 2.3476e-06 8.22911e-06)
(8.61251e-05 1.73997e-05 -4.18591e-06)
(9.877e-05 3.05591e-05 -9.54779e-06)
(9.42974e-05 3.025e-05 -3.38245e-05)
(9.94214e-05 1.54586e-05 -3.79694e-05)
(0.000143639 -1.19374e-05 -6.40396e-05)
(9.09348e-06 1.52054e-06 4.57433e-06)
(3.12656e-05 2.92341e-06 5.86984e-06)
(5.73133e-05 -2.05257e-06 6.45178e-06)
(8.04833e-05 -6.8184e-08 -3.42888e-06)
(0.000102993 1.93962e-05 -4.71556e-06)
(0.000140203 3.07983e-05 -1.38202e-05)
(0.00014943 2.86172e-05 -4.70737e-05)
(0.000143864 2.18827e-05 -4.67983e-05)
(0.000119034 2.08272e-05 -3.56697e-05)
(8.58082e-06 1.28028e-06 5.71581e-06)
(2.60204e-05 1.41084e-06 7.09448e-06)
(5.00649e-05 -5.40315e-06 6.33802e-06)
(7.2825e-05 4.62407e-07 -2.31162e-06)
(0.000120727 1.8942e-05 -2.42453e-06)
(0.000166678 2.18211e-05 -2.11115e-05)
(0.000158127 2.37294e-05 -4.45467e-05)
(0.000160111 2.35803e-05 -5.64127e-05)
(0.000145834 4.70134e-06 -6.14259e-05)
(5.05422e-06 2.30946e-06 -1.92992e-06)
(9.66604e-06 2.22656e-06 -1.73597e-06)
(1.93433e-05 2.30238e-06 -6.0969e-07)
(3.00386e-05 4.13439e-06 -1.80665e-06)
(4.05911e-05 5.02705e-06 -2.55931e-06)
(3.19396e-05 6.50608e-06 -1.13478e-05)
(3.1896e-05 3.25422e-06 -1.50596e-05)
(4.00298e-05 7.57356e-06 -1.35998e-05)
(2.60647e-05 5.1665e-06 -8.08603e-06)
(5.11033e-06 2.37126e-06 5.94326e-07)
(1.60143e-05 1.27298e-06 -1.78165e-06)
(2.86943e-05 4.25708e-07 4.20942e-08)
(5.20616e-05 4.40734e-06 -2.46874e-06)
(6.54913e-05 1.38671e-05 -3.76026e-06)
(6.64342e-05 1.53655e-05 -8.53584e-06)
(7.15049e-05 1.38602e-05 -1.769e-05)
(5.89265e-05 6.25849e-06 -2.13622e-05)
(5.66968e-05 1.37895e-05 -2.17531e-05)
(2.81007e-06 1.38012e-06 3.49265e-06)
(1.62414e-05 2.83407e-06 -1.05756e-06)
(3.1051e-05 3.49145e-06 -1.49464e-06)
(5.08813e-05 3.72984e-07 2.97095e-06)
(7.05615e-05 9.17777e-06 -5.4096e-06)
(0.000108718 1.9538e-05 -1.09229e-05)
(0.000113577 2.26715e-05 -2.66975e-05)
(7.96076e-05 1.90911e-05 -2.47366e-05)
(8.98904e-05 3.37215e-05 -2.08817e-05)
(4.90332e-06 1.44237e-06 1.81967e-06)
(1.52749e-05 2.53033e-06 1.77783e-06)
(4.00772e-05 -4.09236e-06 -3.40509e-06)
(5.36016e-05 -2.5682e-06 -3.95036e-06)
(6.76794e-05 8.57437e-06 -8.91118e-06)
(0.000121711 2.052e-05 -1.35822e-05)
(0.00010943 2.20629e-05 -3.3692e-05)
(0.000105674 1.94204e-05 -2.95593e-05)
(9.32863e-05 2.2092e-06 -1.50184e-05)
(1.86056e-06 7.08483e-07 -2.99516e-07)
(5.09639e-06 1.46172e-06 -1.78871e-06)
(9.4245e-06 1.93832e-06 -3.00692e-06)
(1.81007e-05 1.7854e-06 -3.24618e-06)
(1.65561e-05 1.00793e-06 -1.99145e-06)
(1.68953e-05 2.04054e-06 -4.80548e-06)
(2.56401e-05 5.04122e-08 -7.49067e-06)
(1.87272e-05 8.17465e-07 -6.96579e-06)
(1.14041e-05 2.9743e-06 -3.59466e-06)
(2.6831e-06 6.80753e-07 -7.5365e-07)
(7.80272e-06 1.23808e-06 -2.57634e-06)
(1.5768e-05 1.74817e-06 -3.11716e-06)
(2.67918e-05 7.13596e-06 -3.94365e-06)
(3.75895e-05 6.21047e-06 -2.73725e-06)
(3.14627e-05 -7.64351e-06 -2.87055e-06)
(2.9933e-05 -4.77284e-06 -3.50905e-06)
(3.20281e-05 1.4449e-06 -8.58725e-06)
(3.29933e-05 1.26135e-05 -1.21147e-05)
(4.74703e-07 -3.16223e-07 1.8709e-06)
(9.90605e-06 -8.9616e-08 -2.49285e-06)
(1.40054e-05 3.52247e-06 -1.36554e-06)
(2.65429e-05 6.53529e-06 -1.85705e-06)
(5.5876e-05 8.27591e-06 -1.54574e-06)
(6.66324e-05 2.7426e-06 -8.67858e-06)
(4.21322e-05 3.21255e-06 -1.34316e-05)
(4.11248e-05 7.68088e-06 -7.51382e-06)
(3.53654e-05 3.02049e-05 -8.522e-06)
(4.76743e-06 -1.00567e-06 -4.94527e-07)
(9.47827e-06 3.18081e-06 -2.32116e-06)
(2.26876e-05 7.64783e-06 -2.83748e-06)
(2.70405e-05 -1.12073e-06 -2.79002e-06)
(3.91067e-05 -6.86358e-06 -9.3548e-06)
(6.1193e-05 -1.93789e-07 -9.76756e-06)
(4.34686e-05 1.2226e-05 -7.7187e-06)
(-3.11616e-06 6.92942e-05 -4.64199e-06)
(6.16505e-05 1.83697e-05 -9.5233e-06)
)
;

boundaryField
{
    inlet
    {
        type            calculated;
        value           uniform (0 0 0);
    }
    outlet
    {
        type            calculated;
        value           nonuniform 0();
    }
    wall
    {
        type            calculated;
        value           uniform (0 0 0);
    }
    procBoundary4to0
    {
        type            processor;
        value           uniform (0 0 0);
    }
    procBoundary4to5
    {
        type            processor;
        value           uniform (0 0 0);
    }
    procBoundary4to6
    {
        type            processor;
        value           uniform (0 0 0);
    }
}


// ************************************************************************* //
