/*--------------------------------*- C++ -*----------------------------------*\
| =========                 |                                                 |
| \\      /  F ield         | OpenFOAM: The Open Source CFD Toolbox           |
|  \\    /   O peration     | Version:  4.x                                   |
|   \\  /    A nd           | Web:      www.OpenFOAM.org                      |
|    \\/     M anipulation  |                                                 |
\*---------------------------------------------------------------------------*/
FoamFile
{
    version     2.0;
    format      ascii;
    class       volVectorField;
    location    "33.5";
    object      GField;
}
// * * * * * * * * * * * * * * * * * * * * * * * * * * * * * * * * * * * * * //

dimensions      [1 -2 -1 0 0 0 0];

internalField   nonuniform List<vector> 
108
(
(96.2621 -3.17638 -1.91878)
(40.8059 -1.5175 -1.23485)
(97.563 -3.39811 -1.92948)
(43.4487 -1.42622 -1.40185)
(99.3432 -2.61864 -1.11721)
(45.2295 -0.880865 -1.08002)
(100.901 -1.8912 -1.04342)
(45.5589 -0.843686 -1.14606)
(102.641 -1.7357 0.0153277)
(94.5472 -5.04299 -1.47648)
(33.134 -2.28456 -0.756653)
(92.2754 -5.15643 -1.18352)
(25.7452 -1.64642 -0.742736)
(90.9205 -3.7619 -0.566076)
(20.5157 -1.11435 -0.438115)
(91.0965 -2.77313 -0.197482)
(15.4907 -1.03046 -0.350976)
(91.3807 -1.55927 0.797544)
(94.3378 -3.04477 -1.58499)
(29.6519 -1.71217 -0.740514)
(89.8672 -3.34402 -0.998999)
(18.8354 -1.23602 -0.280465)
(87.8995 -2.80587 -0.121064)
(11.1259 -0.931235 0.058923)
(87.5809 -1.50483 -0.321779)
(3.94336 -0.389657 0.109993)
(88.0368 0.514815 -1.07074)
(94.3335 -1.44604 -1.66585)
(29.5048 -0.215474 -0.461855)
(88.7457 -1.02507 -0.736611)
(17.3541 -0.435948 -0.289163)
(85.7088 -0.948613 -0.162317)
(7.115 -0.233627 0.14351)
(84.2635 -0.0636774 -0.118613)
(0.259827 -0.0139567 0.0160672)
(84.5925 0.110079 -0.340081)
(95.9759 -2.49938 0.57535)
(41.4193 -1.12896 0.176603)
(97.6463 -2.19258 0.683119)
(43.6889 -0.875473 -0.615034)
(98.8615 -1.76308 -0.0425104)
(45.6033 -0.767574 -0.942398)
(100.439 -1.28854 0.0503048)
(45.05 -0.236079 -1.02654)
(100.367 -0.602383 0.351706)
(95.0484 -4.52236 1.34558)
(36.6215 -2.37729 0.49111)
(94.2432 -4.76256 2.05415)
(33.6547 -1.69277 0.128202)
(93.5966 -3.76364 1.3426)
(30.3999 -1.195 -0.286952)
(93.1516 -2.43709 1.21996)
(25.7551 -0.709998 -0.354044)
(93.0243 -1.70482 1.27516)
(94.7074 -3.31212 1.5255)
(32.4629 -1.48163 0.535509)
(90.9212 -3.16605 1.9555)
(23.8692 -1.02454 0.324856)
(88.7472 -1.94736 1.39615)
(16.8666 -0.4286 0.0979595)
(88.1977 -0.452778 1.19549)
(10.8979 -0.0702399 0.0876205)
(88.361 0.14326 0.402388)
(93.6125 -1.03778 1.33355)
(31.3765 0.0511296 1.08293)
(90.0605 -0.277234 2.54887)
(21.9903 -0.0276766 0.763669)
(87.8139 -0.273849 2.6208)
(15.0013 -0.239829 0.843597)
(87.4341 -0.384585 2.346)
(10.1762 -0.207742 0.631611)
(88.3456 -0.294153 0.541992)
(96.4659 -2.36739 1.40999)
(45.6426 -1.26291 1.03405)
(101.596 -2.06148 2.02081)
(53.6638 -0.767317 0.753979)
(104.869 -1.25825 1.4084)
(57.927 -0.385774 0.470836)
(107.152 -0.813515 1.84228)
(61.334 -0.4146 1.4399)
(110.923 -0.983668 2.56778)
(95.6685 -4.1791 1.52857)
(41.5936 -2.3162 0.913728)
(97.6368 -4.14082 2.16884)
(45.9419 -1.6211 0.91586)
(99.9793 -2.77273 1.93301)
(48.6512 -1.23799 0.887112)
(101.953 -2.17539 2.34034)
(50.6426 -1.47308 1.18852)
(104.558 -2.2867 2.15123)
(94.5668 -3.04499 1.74993)
(38.7684 -1.39499 1.20557)
(94.6224 -2.9702 2.67469)
(39.265 -1.28819 1.1314)
(95.7209 -1.78523 2.55183)
(40.2116 -0.610064 0.870282)
(97.3048 -0.681794 2.36131)
(41.295 -0.676927 0.998806)
(99.1915 -0.795397 2.15403)
(93.4213 -0.415092 1.71929)
(38.0682 -0.145301 1.17094)
(93.8685 -0.680452 2.44722)
(37.5187 -0.453711 1.09349)
(94.6198 -0.814252 2.28221)
(38.666 -0.703785 1.10749)
(97.0463 -1.11512 2.32535)
(41.4628 -0.760686 0.629445)
(99.5479 -1.34644 1.25948)
)
;

boundaryField
{
    inlet
    {
        type            calculated;
        value           uniform (67 0 0);
    }
    outlet
    {
        type            calculated;
        value           nonuniform 0();
    }
    wall
    {
        type            calculated;
        value           uniform (0 0 0);
    }
    procBoundary4to0
    {
        type            processor;
        value           nonuniform List<vector> 
36
(
(96.9561 -2.96101 -4.29653)
(40.5218 -1.43081 -2.78153)
(98.7952 -2.89974 -4.49411)
(43.8078 -1.10047 -2.7159)
(100.403 -2.12633 -3.56483)
(45.2155 -0.920609 -2.56534)
(101.642 -1.9141 -2.87609)
(45.3788 -0.445131 -2.72924)
(102.148 -1.04357 -2.09154)
(95.8107 -4.85449 -4.81872)
(33.0823 -2.35858 -2.53829)
(93.7033 -5.43194 -4.81438)
(27.7298 -1.90921 -1.93347)
(92.3922 -4.37622 -3.18882)
(22.6293 -1.56149 -1.39215)
(91.1094 -2.81754 -2.15591)
(16.0794 -1.30613 -1.22593)
(90.29 -0.312108 -1.97807)
(95.0136 -3.13929 -4.97216)
(29.5565 -1.59196 -2.49849)
(90.4141 -3.54591 -4.37242)
(17.2951 -0.985861 -1.34738)
(86.9934 -2.18958 -2.70415)
(6.43643 -0.436317 -0.572172)
(84.7635 -0.324659 -2.10394)
(0.000233151 -2.44521e-05 -1.19878e-05)
(82.5957 1.47769 -0.717657)
(94.6435 -0.675834 -4.43594)
(28.7946 -0.00955491 -2.50397)
(89.1653 0.225769 -4.19211)
(15.4524 0.248333 -1.43819)
(86.1993 0.753367 -3.02145)
(5.81547 0.1412 -0.668922)
(84.4772 0.297494 -1.95899)
(0.423735 0.0152959 -0.059835)
(84.0908 -0.333206 -0.210667)
)
;
    }
    procBoundary4to5
    {
        type            processor;
        value           nonuniform List<vector> 
12
(
(44.6556 -1.06236 0.294255)
(8.4035 -0.923893 0.239354)
(0.000411397 -7.77163e-05 5.82547e-05)
(1.59526e-05 -1.06689e-05 2.14908e-05)
(43.0801 0.164328 -1.33196)
(21.9869 -1.04457 -0.400526)
(4.66775 -0.207951 0.0691453)
(6.99774 -0.249618 0.693437)
(65.6287 -0.529484 2.08361)
(52.0721 -2.53607 1.15391)
(41.1549 -1.62985 1.1532)
(41.2702 -1.69218 0.739565)
)
;
    }
    procBoundary4to6
    {
        type            processor;
        value           nonuniform List<vector> 
27
(
(92.2557 1.44086 -1.90197)
(27.3123 0.936792 -0.621044)
(87.9641 1.74302 -1.499)
(14.2133 0.528399 -0.462269)
(84.9449 1.06368 -1.10773)
(4.61231 0.229124 -0.164556)
(83.8648 -0.0620486 -0.959745)
(1.67232e-05 -7.58437e-06 1.02118e-05)
(83.1444 -1.15538 -0.960653)
(92.9367 2.3664 2.45935)
(30.9254 1.03125 0.600608)
(89.8169 2.63317 2.30107)
(21.647 0.740762 0.546064)
(88.0337 1.78334 1.63855)
(13.5681 0.19716 0.234247)
(86.8083 0.692555 0.378787)
(6.06354 -0.0393511 0.243242)
(86.1938 0.062669 -0.746962)
(94.6442 2.39144 2.38719)
(39.8092 0.894105 1.04257)
(94.8242 1.93045 2.29419)
(39.2802 0.634182 0.713549)
(94.7764 0.934215 1.99094)
(38.1742 0.0439274 0.655303)
(94.6145 -0.256049 1.7138)
(35.2904 -0.415332 0.84947)
(95.6822 -0.546519 1.28877)
)
;
    }
}


// ************************************************************************* //
