/*--------------------------------*- C++ -*----------------------------------*\
| =========                 |                                                 |
| \\      /  F ield         | OpenFOAM: The Open Source CFD Toolbox           |
|  \\    /   O peration     | Version:  4.x                                   |
|   \\  /    A nd           | Web:      www.OpenFOAM.org                      |
|    \\/     M anipulation  |                                                 |
\*---------------------------------------------------------------------------*/
FoamFile
{
    version     2.0;
    format      ascii;
    class       volScalarField;
    location    "33.5";
    object      QPartFluid;
}
// * * * * * * * * * * * * * * * * * * * * * * * * * * * * * * * * * * * * * //

dimensions      [1 -1 -3 0 0 0 0];

internalField   nonuniform List<scalar> 
108
(
4.92562e+09
7.10684e+09
8.42781e+09
5.9779e+09
7.15875e+09
5.98905e+09
8.94603e+09
6.87183e+09
9.65125e+09
7.01938e+09
7.29321e+09
9.39058e+09
1.00362e+10
1.01198e+10
8.58077e+09
8.14252e+09
5.74852e+09
1.1119e+10
6.68941e+09
1.02737e+10
8.31653e+09
9.3473e+09
8.1168e+09
6.28859e+09
7.29912e+09
1.02801e+10
6.74258e+09
3.45643e+09
6.72601e+09
9.38873e+09
5.69292e+09
8.77409e+09
6.64108e+09
1.0988e+10
5.97256e+09
7.04625e+09
5.06299e+09
5.49032e+09
8.05451e+09
8.33657e+09
8.52801e+09
5.46817e+09
5.5793e+09
7.5457e+09
9.58246e+09
6.2462e+09
7.60252e+09
7.55579e+09
7.59614e+09
7.74073e+09
6.81853e+09
8.50404e+09
9.27347e+09
1.04949e+10
4.19457e+09
7.32413e+09
1.00251e+10
8.28577e+09
9.67222e+09
8.24863e+09
8.17798e+09
7.16113e+09
8.62429e+09
6.20384e+09
8.58131e+09
7.53988e+09
9.64536e+09
1.05174e+10
7.61036e+09
1.18311e+10
8.48299e+09
8.12571e+09
4.55306e+09
6.29804e+09
4.44479e+09
6.05131e+09
6.34919e+09
8.00837e+09
8.0183e+09
6.51117e+09
8.20139e+09
4.87577e+09
9.00876e+09
7.12711e+09
5.84598e+09
7.47017e+09
7.70995e+09
7.38244e+09
6.22312e+09
8.57723e+09
5.23363e+09
7.45568e+09
8.45894e+09
7.15795e+09
6.7071e+09
6.91528e+09
7.35659e+09
7.88465e+09
7.03366e+09
7.25289e+09
7.00901e+09
6.69774e+09
7.96788e+09
8.43352e+09
9.51737e+09
4.96512e+09
5.1625e+09
7.06786e+09
)
;

boundaryField
{
    inlet
    {
        type            calculated;
        value           uniform 0;
    }
    outlet
    {
        type            calculated;
        value           nonuniform 0();
    }
    wall
    {
        type            calculated;
        value           uniform 0;
    }
    procBoundary4to0
    {
        type            processor;
        value           nonuniform List<scalar> 
36
(
4.35302e+09
4.99107e+09
6.76952e+09
5.19152e+09
7.08877e+09
7.78877e+09
5.91025e+09
4.34939e+09
6.05216e+09
5.13596e+09
9.60136e+09
9.09684e+09
8.09566e+09
7.20858e+09
6.66847e+09
1.04462e+10
7.24667e+09
6.93242e+09
5.18529e+09
5.59103e+09
9.03902e+09
6.11897e+09
8.68148e+09
8.41983e+09
8.21372e+09
4.89746e+09
9.32145e+09
4.8226e+09
6.71051e+09
9.79025e+09
1.01507e+10
5.45438e+09
9.64287e+09
8.44164e+09
5.3764e+09
2.58442e+09
)
;
    }
    procBoundary4to5
    {
        type            processor;
        value           nonuniform List<scalar> 
12
(
6.64522e+09
8.10419e+09
8.50681e+09
1.02629e+10
7.27507e+09
6.20122e+09
7.41559e+09
5.29456e+09
2.48533e+09
6.95826e+09
6.02712e+09
7.15729e+09
)
;
    }
    procBoundary4to6
    {
        type            processor;
        value           nonuniform List<scalar> 
27
(
9.95686e+09
8.96003e+09
6.09619e+09
8.03878e+09
1.10834e+10
6.15216e+09
8.71726e+09
6.66077e+09
9.9679e+09
7.34946e+09
9.00379e+09
9.6608e+09
8.63638e+09
6.67132e+09
7.88962e+09
7.92984e+09
6.08493e+09
9.55434e+09
4.91278e+09
5.40422e+09
7.4307e+09
7.01528e+09
7.16549e+09
6.4841e+09
1.02816e+10
8.63986e+09
4.52153e+09
)
;
    }
}


// ************************************************************************* //
