/*--------------------------------*- C++ -*----------------------------------*\
| =========                 |                                                 |
| \\      /  F ield         | OpenFOAM: The Open Source CFD Toolbox           |
|  \\    /   O peration     | Version:  4.x                                   |
|   \\  /    A nd           | Web:      www.OpenFOAM.org                      |
|    \\/     M anipulation  |                                                 |
\*---------------------------------------------------------------------------*/
FoamFile
{
    version     2.0;
    format      ascii;
    class       volVectorField;
    location    "33.5";
    object      U;
}
// * * * * * * * * * * * * * * * * * * * * * * * * * * * * * * * * * * * * * //

dimensions      [0 1 -1 0 0 0 0];

internalField   nonuniform List<vector> 
108
(
(0.029939 -0.000987886 -0.000596572)
(0.0128445 -0.000477651 -0.000388536)
(0.030979 -0.00107899 -0.000612576)
(0.0138057 -0.00045317 -0.000445427)
(0.0316614 -0.000834578 -0.00035612)
(0.0144373 -0.000281179 -0.000344821)
(0.0324031 -0.000607342 -0.000335147)
(0.0146743 -0.000271755 -0.00036918)
(0.0333895 -0.000564638 4.96686e-06)
(0.0297412 -0.0015863 -0.000464276)
(0.0104807 -0.000722594 -0.000239199)
(0.0294475 -0.00164553 -0.000377606)
(0.00828045 -0.000529529 -0.00023888)
(0.0292878 -0.00121181 -0.000182383)
(0.00660741 -0.000358905 -0.000141165)
(0.0293549 -0.000893637 -6.36781e-05)
(0.00500108 -0.000332695 -0.00011335)
(0.0298094 -0.000508684 0.000260157)
(0.0297336 -0.000959604 -0.000499431)
(0.0094478 -0.000545493 -0.000235842)
(0.0287868 -0.00107116 -0.000319939)
(0.00608565 -0.000399346 -9.06103e-05)
(0.0284008 -0.000906612 -3.91427e-05)
(0.00359465 -0.00030089 1.89913e-05)
(0.0283717 -0.000487522 -0.000104297)
(0.00128646 -0.000127143 3.58554e-05)
(0.0285934 0.000167174 -0.000347775)
(0.0296887 -0.000455053 -0.00052418)
(0.00937208 -6.84144e-05 -0.00014663)
(0.0284844 -0.000329001 -0.000236361)
(0.00558973 -0.000140418 -9.31267e-05)
(0.0278004 -0.000307715 -5.26388e-05)
(0.00231066 -7.58983e-05 4.65759e-05)
(0.027569 -2.08597e-05 -3.88244e-05)
(8.43952e-05 -4.55576e-06 5.19893e-06)
(0.0274808 3.57285e-05 -0.00011051)
(0.0298833 -0.000778205 0.000179229)
(0.0130018 -0.000354379 5.55043e-05)
(0.0310102 -0.000696306 0.000216973)
(0.0139897 -0.000280332 -0.000196938)
(0.0316967 -0.000565271 -1.36605e-05)
(0.0146006 -0.000245751 -0.000301765)
(0.0322117 -0.000413247 1.6087e-05)
(0.014605 -7.65385e-05 -0.00033284)
(0.0327898 -0.000196797 0.000114875)
(0.0297885 -0.0014173 0.000421788)
(0.0115899 -0.000752339 0.000155487)
(0.0300083 -0.00151645 0.000654097)
(0.0107946 -0.00054294 4.11225e-05)
(0.0300938 -0.00121012 0.000431654)
(0.00979582 -0.000385071 -9.25012e-05)
(0.0301286 -0.00078825 0.00039454)
(0.00838845 -0.000231254 -0.000115344)
(0.0304392 -0.000557846 0.000417233)
(0.0297483 -0.00104033 0.000479232)
(0.0103264 -0.000471274 0.000170394)
(0.0292313 -0.00101787 0.000628716)
(0.00772349 -0.000331506 0.000105118)
(0.0288142 -0.000632259 0.000453277)
(0.00548183 -0.00013931 3.181e-05)
(0.0286958 -0.000147323 0.000388937)
(0.00355395 -2.29242e-05 2.85516e-05)
(0.0288325 4.67363e-05 0.000131303)
(0.0296983 -0.000329199 0.000423114)
(0.0100261 1.63719e-05 0.000346079)
(0.0289323 -8.9044e-05 0.00081886)
(0.00715205 -8.99738e-06 0.000248376)
(0.0286742 -8.94241e-05 0.000855773)
(0.00489756 -7.83105e-05 0.000275393)
(0.028718 -0.00012633 0.000770536)
(0.0033274 -6.79451e-05 0.000206502)
(0.028835 -9.60164e-05 0.000176897)
(0.0300331 -0.000737043 0.000439011)
(0.0143756 -0.00039776 0.000325709)
(0.0320256 -0.000649823 0.000637033)
(0.017124 -0.000244847 0.000240604)
(0.0335952 -0.000403085 0.000451196)
(0.0187533 -0.000124893 0.000152429)
(0.0346978 -0.000263432 0.000596573)
(0.0198699 -0.00013432 0.000466481)
(0.0360378 -0.000319585 0.000834261)
(0.029993 -0.00131017 0.000479253)
(0.0132463 -0.000737626 0.000291019)
(0.0310536 -0.00131699 0.000689825)
(0.0146824 -0.000518075 0.000292703)
(0.0321327 -0.000891135 0.000621264)
(0.0157536 -0.00040087 0.000287251)
(0.033016 -0.000704468 0.000757884)
(0.0164212 -0.000477659 0.000385386)
(0.0341033 -0.000745845 0.000701672)
(0.029804 -0.000959648 0.000551542)
(0.012379 -0.000445411 0.000384967)
(0.0304134 -0.000954662 0.000859719)
(0.0126915 -0.000416372 0.000365706)
(0.0309355 -0.000576958 0.000824722)
(0.0130663 -0.00019824 0.000282785)
(0.0316044 -0.000221454 0.000766957)
(0.0134568 -0.000220606 0.000325481)
(0.0322932 -0.000258965 0.000701283)
(0.029709 -0.000131982 0.000546772)
(0.0121633 -4.64062e-05 0.000374146)
(0.0301133 -0.00021828 0.00078509)
(0.0121816 -0.000147309 0.00035504)
(0.0308252 -0.000265272 0.000743504)
(0.0126809 -0.000230824 0.000363209)
(0.0315038 -0.00036201 0.000754875)
(0.0134471 -0.000246722 0.00020414)
(0.0323708 -0.000437852 0.000409564)
)
;

boundaryField
{
    inlet
    {
        type            fixedValue;
        value           uniform (0.01 0 0);
    }
    outlet
    {
        type            zeroGradient;
    }
    wall
    {
        type            fixedValue;
        value           uniform (0 0 0);
    }
    procBoundary4to0
    {
        type            processor;
        value           nonuniform List<vector> 
36
(
(0.0298771 -0.000912401 -0.00132363)
(0.0126004 -0.000444884 -0.000864593)
(0.0309995 -0.000909856 -0.00140996)
(0.0137847 -0.000346275 -0.000854665)
(0.0317458 -0.000672327 -0.00112734)
(0.0143611 -0.000292424 -0.000814976)
(0.0321745 -0.00060593 -0.000910541)
(0.0143423 -0.00014071 -0.000862679)
(0.0324438 -0.000331471 -0.000664355)
(0.0297802 -0.00150879 -0.00149748)
(0.0104078 -0.000741933 -0.000798293)
(0.0296623 -0.00171947 -0.00152387)
(0.00880416 -0.000606154 -0.000613905)
(0.0293799 -0.00139163 -0.00101415)
(0.00721693 -0.000498027 -0.000444124)
(0.0292286 -0.000903905 -0.000691729)
(0.00514245 -0.000417765 -0.000392146)
(0.0289116 -9.99488e-05 -0.000633436)
(0.0295717 -0.000976951 -0.00154732)
(0.00927884 -0.000499679 -0.000784193)
(0.0287429 -0.00112721 -0.00138991)
(0.00551878 -0.000314577 -0.000429937)
(0.0279049 -0.000702391 -0.000867481)
(0.00207451 -0.000140676 -0.000184492)
(0.0272732 -0.000104494 -0.000677023)
(7.4058e-08 -8.27267e-09 -4.22666e-09)
(0.0266137 0.000476142 -0.000231256)
(0.0295812 -0.000211132 -0.00138635)
(0.00908286 -2.93526e-06 -0.00078974)
(0.0285125 7.22421e-05 -0.00134046)
(0.00497417 7.99331e-05 -0.000462938)
(0.02762 0.00024136 -0.000968164)
(0.00188416 4.56973e-05 -0.000216759)
(0.0273099 9.61098e-05 -0.00063333)
(0.00013596 4.86726e-06 -1.92182e-05)
(0.0269128 -0.000106668 -6.74081e-05)
)
;
    }
    procBoundary4to5
    {
        type            processor;
        value           nonuniform List<vector> 
12
(
(0.0144472 -0.000343697 9.51958e-05)
(0.00273526 -0.000300719 7.78915e-05)
(1.3496e-07 -2.57404e-08 1.87083e-08)
(5.36153e-09 -3.58277e-09 7.07226e-09)
(0.0139824 5.33381e-05 -0.000432328)
(0.00714867 -0.000339624 -0.000130241)
(0.00152479 -6.7947e-05 2.25771e-05)
(0.00228552 -8.15488e-05 0.000226472)
(0.0210117 -0.000169524 0.000667107)
(0.0168918 -0.000822675 0.000374327)
(0.0134065 -0.000530954 0.000375668)
(0.0134985 -0.000553494 0.000241899)
)
;
    }
    procBoundary4to6
    {
        type            processor;
        value           nonuniform List<vector> 
27
(
(0.0295274 0.000461204 -0.000608684)
(0.0087363 0.000299681 -0.000198594)
(0.0281347 0.000557511 -0.000479408)
(0.00459511 0.000170828 -0.000149434)
(0.027664 0.000346393 -0.000360751)
(0.001496 7.42932e-05 -5.33811e-05)
(0.0273123 -2.02393e-05 -0.000312564)
(5.57742e-09 -2.52217e-09 3.29498e-09)
(0.0271692 -0.000377574 -0.000313904)
(0.0296248 0.000754347 0.000783986)
(0.00990278 0.000330242 0.000192364)
(0.0289178 0.000847797 0.000740881)
(0.0070196 0.000240212 0.000177084)
(0.0285263 0.00057786 0.000530951)
(0.00441534 6.4147e-05 7.62247e-05)
(0.0282998 0.000225754 0.000123476)
(0.00197394 -1.28271e-05 7.91776e-05)
(0.0282004 2.04791e-05 -0.000244367)
(0.0298639 0.000754605 0.000753264)
(0.0126303 0.000283688 0.000330785)
(0.0303645 0.000618173 0.00073466)
(0.0127017 0.000205069 0.00023074)
(0.0307765 0.000303355 0.000646524)
(0.0124379 1.42989e-05 0.000213513)
(0.0309767 -8.38513e-05 0.000561106)
(0.0115361 -0.000135789 0.000277687)
(0.0309751 -0.000176952 0.000417214)
)
;
    }
}


// ************************************************************************* //
