/*--------------------------------*- C++ -*----------------------------------*\
| =========                 |                                                 |
| \\      /  F ield         | OpenFOAM: The Open Source CFD Toolbox           |
|  \\    /   O peration     | Version:  4.x                                   |
|   \\  /    A nd           | Web:      www.OpenFOAM.org                      |
|    \\/     M anipulation  |                                                 |
\*---------------------------------------------------------------------------*/
FoamFile
{
    version     2.0;
    format      ascii;
    class       volVectorField;
    location    "33.5";
    object      Urel;
}
// * * * * * * * * * * * * * * * * * * * * * * * * * * * * * * * * * * * * * //

dimensions      [0 1 -1 0 0 0 0];

internalField   nonuniform List<vector> 
108
(
(-0.0233489 0.000631118 0.000533706)
(-0.0214149 0.00056457 0.000498753)
(-0.0223566 0.000574822 0.000488847)
(-0.0208986 0.000481667 0.000442808)
(-0.0221024 0.000457075 0.000398374)
(-0.0207648 0.000362206 0.000354312)
(-0.0220605 0.000332682 0.000309581)
(-0.0207085 0.000256199 0.000264876)
(-0.0220726 0.000226616 0.000184722)
(-0.023157 0.000624967 0.000516114)
(-0.0210181 0.000543823 0.000474738)
(-0.0218683 0.000569221 0.00045387)
(-0.0200682 0.000455 0.00040098)
(-0.0213104 0.000445505 0.000354735)
(-0.0195827 0.00033822 0.000305791)
(-0.0210349 0.000316334 0.000260132)
(-0.0192613 0.000233632 0.000216623)
(-0.0208831 0.000195406 0.000151642)
(-0.0229628 0.000423205 0.000506766)
(-0.0206683 0.000369672 0.000457838)
(-0.0214155 0.000382931 0.000426462)
(-0.0193677 0.000305387 0.000362922)
(-0.0205875 0.000299021 0.000313099)
(-0.0185953 0.00022137 0.000261702)
(-0.020117 0.000193721 0.000226939)
(-0.0180896 0.000136074 0.000182733)
(-0.0198519 9.16082e-05 0.000159557)
(-0.0228711 0.000115909 0.000501421)
(-0.020528 8.42472e-05 0.000444992)
(-0.021218 8.68713e-05 0.000414056)
(-0.0190862 6.95443e-05 0.000353168)
(-0.0202695 6.95063e-05 0.000306245)
(-0.0181806 5.09798e-05 0.000251416)
(-0.0197127 4.3319e-05 0.000220041)
(-0.017622 3.49129e-05 0.000181059)
(-0.0194039 2.96865e-05 0.000157176)
(-0.0234193 0.000606307 0.000202401)
(-0.0215498 0.000543348 0.000199126)
(-0.022521 0.000537337 0.000175295)
(-0.0211453 0.00045327 0.000189391)
(-0.022359 0.000425294 0.000159924)
(-0.0210959 0.000344604 0.000155679)
(-0.022373 0.000311944 0.000103476)
(-0.0210997 0.000245093 9.03362e-05)
(-0.0224415 0.000220376 2.42153e-05)
(-0.0232514 0.000606138 0.000171146)
(-0.0212239 0.00053303 0.000171059)
(-0.0221073 0.000547078 0.000127027)
(-0.0204821 0.000440753 0.000143404)
(-0.0216924 0.000428013 0.000103165)
(-0.0201499 0.000329025 0.000109008)
(-0.0215136 0.000305651 5.51507e-05)
(-0.0199372 0.000237586 5.65689e-05)
(-0.021446 0.000224079 5.29627e-07)
(-0.0230649 0.000419225 0.000148415)
(-0.0208867 0.000360082 0.000147582)
(-0.0216755 0.000371759 9.83453e-05)
(-0.0198002 0.000295631 0.000107992)
(-0.0210016 0.000281447 6.42163e-05)
(-0.0191971 0.000211771 7.07401e-05)
(-0.0206474 0.000184913 2.9154e-05)
(-0.0188208 0.000147742 3.80014e-05)
(-0.020457 0.000130488 1.78457e-05)
(-0.0229777 0.000101989 0.00013633)
(-0.0207432 7.43398e-05 0.000127446)
(-0.0214846 7.4162e-05 7.8258e-05)
(-0.0195248 6.32715e-05 8.81071e-05)
(-0.0207144 6.44817e-05 3.6156e-05)
(-0.0188155 5.88077e-05 4.87292e-05)
(-0.020289 6.04313e-05 1.23167e-05)
(-0.0183824 5.76701e-05 3.78361e-05)
(-0.020052 6.48642e-05 3.79819e-05)
(-0.0235349 0.000590949 3.43592e-05)
(-0.0217874 0.000532952 3.52204e-05)
(-0.0228166 0.00051752 5.04345e-06)
(-0.0216402 0.000433519 2.85711e-05)
(-0.0228567 0.000396178 7.38174e-06)
(-0.0217875 0.000323276 9.82953e-06)
(-0.0230264 0.000294952 -4.90776e-05)
(-0.0219768 0.000251661 -7.05034e-05)
(-0.0232655 0.000242445 -0.00012798)
(-0.0233837 0.000588569 1.43459e-05)
(-0.0215027 0.000521138 1.79491e-05)
(-0.0224461 0.000525021 -2.26159e-05)
(-0.0210778 0.000425739 -2.4129e-06)
(-0.0222752 0.000399892 -3.36013e-05)
(-0.0210304 0.000320099 -2.54134e-05)
(-0.0223016 0.000301778 -7.83327e-05)
(-0.0210755 0.000262403 -7.50046e-05)
(-0.0224198 0.000265282 -0.000116676)
(-0.0232017 0.000405341 -1.00925e-05)
(-0.0212032 0.00035149 -8.12679e-06)
(-0.0220559 0.000362783 -5.48531e-05)
(-0.020489 0.000294872 -3.39112e-05)
(-0.0216504 0.000273853 -7.15106e-05)
(-0.0202212 0.000215101 -4.99296e-05)
(-0.0215197 0.000196118 -9.07396e-05)
(-0.0201233 0.000178714 -6.97665e-05)
(-0.0214999 0.000182839 -9.51213e-05)
(-0.0231207 8.44552e-05 -2.47449e-05)
(-0.0210812 7.39012e-05 -1.88949e-05)
(-0.0218855 8.14678e-05 -6.09799e-05)
(-0.020249 7.4411e-05 -4.01881e-05)
(-0.0213948 7.94934e-05 -7.65091e-05)
(-0.0198916 7.77174e-05 -5.59987e-05)
(-0.0211851 8.89758e-05 -8.41273e-05)
(-0.0197267 9.13662e-05 -4.34581e-05)
(-0.0210986 0.000115117 -4.60038e-05)
)
;

boundaryField
{
    inlet
    {
        type            calculated;
        value           nonuniform List<vector> 
12
(
(-0.01 -7.49382e-11 1.9501e-10)
(-0.01 -1.68204e-10 3.5558e-10)
(-0.01 -2.56276e-10 3.82191e-10)
(-0.01 -2.2915e-10 3.44799e-10)
(-0.01 -1.11411e-10 1.71127e-10)
(-0.01 -2.86216e-10 3.12964e-10)
(-0.01 -2.14906e-10 2.97195e-10)
(-0.01 -3.28253e-10 2.98901e-10)
(-0.01 -2.21378e-11 2.39032e-10)
(-0.01 -1.81517e-10 4.75183e-10)
(-0.01 -9.34682e-11 2.52063e-10)
(-0.01 -1.8587e-10 1.9809e-10)
)
;
    }
    outlet
    {
        type            calculated;
        value           nonuniform 0();
    }
    wall
    {
        type            calculated;
        value           nonuniform List<vector> 
63
(
(-3.9554e-11 -2.21378e-11 2.39032e-10)
(-2.5664e-11 -1.81517e-10 4.75183e-10)
(-2.14308e-11 -9.34682e-11 2.52063e-10)
(-4.96366e-11 -1.8587e-10 1.9809e-10)
(-1.01276e-10 -1.26174e-10 1.97798e-10)
(-7.85948e-11 -2.93267e-10 2.33616e-10)
(-1.28877e-10 -4.30313e-10 2.7131e-10)
(-1.46653e-10 -6.03805e-10 2.92174e-10)
(2.50038e-11 -1.27786e-10 2.70325e-10)
(-3.05416e-11 -2.73841e-10 3.83471e-10)
(1.11969e-11 -3.18539e-10 3.56511e-10)
(-2.85871e-10 -6.48874e-10 6.17505e-10)
(-1.03371e-10 -9.18743e-11 3.54769e-10)
(-2.19529e-10 -3.28014e-10 4.1057e-10)
(-1.18863e-10 -3.69109e-10 4.31564e-10)
(-3.20853e-10 -3.319e-10 5.91896e-10)
(-5.61058e-11 -1.33146e-10 3.99916e-10)
(-6.76463e-11 -2.85484e-10 7.13358e-10)
(-2.03259e-10 -3.0418e-10 9.11852e-10)
(-6.19647e-10 -1.36951e-10 8.41711e-10)
(-2.06949e-10 -2.49597e-10 4.37269e-10)
(-3.59292e-10 7.73047e-11 6.19475e-10)
(-9.85875e-10 -2.99739e-10 8.8492e-10)
(-9.10058e-10 -4.76046e-10 8.44381e-10)
(-3.1346e-10 -3.09689e-10 8.53879e-10)
(-3.40769e-11 2.66535e-10 8.03247e-10)
(2.61527e-10 -1.49805e-10 1.21714e-09)
(-1.863e-10 -1.17292e-09 8.80849e-10)
(-1.88456e-10 -1.63065e-10 7.98717e-10)
(-3.23787e-10 -2.06773e-10 1.28763e-09)
(-6.80982e-12 -5.40808e-10 1.14458e-09)
(7.68279e-09 -6.55783e-09 1.00665e-09)
(6.46123e-11 -3.58755e-10 6.86693e-10)
(-2.27228e-10 -6.40683e-10 1.57882e-09)
(2.02639e-11 -1.26091e-09 1.50103e-09)
(-1.10696e-10 -1.60148e-09 1.69167e-09)
(-6.68112e-11 -7.49382e-11 1.9501e-10)
(-1.52245e-10 -1.11411e-10 1.71127e-10)
(-3.9554e-11 -2.21378e-11 2.39032e-10)
(-2.12197e-10 -1.359e-10 3.50864e-10)
(-2.65856e-10 -2.54462e-10 2.77037e-10)
(-1.01276e-10 -1.26174e-10 1.97798e-10)
(1.33808e-10 -2.32546e-10 5.23453e-10)
(1.31697e-10 -1.84309e-10 3.58958e-10)
(2.50038e-11 -1.27786e-10 2.70325e-10)
(8.40042e-11 -2.05814e-10 8.09662e-10)
(-3.17431e-11 -9.8273e-11 5.55375e-10)
(-1.03371e-10 -9.18743e-11 3.54769e-10)
(2.57142e-10 -2.56986e-10 1.17909e-09)
(6.5619e-11 -5.81749e-11 6.9845e-10)
(-5.61058e-11 -1.33146e-10 3.99916e-10)
(-2.61406e-10 -3.98337e-10 1.33085e-09)
(-2.86702e-10 -2.70027e-10 8.89318e-10)
(-2.06949e-10 -2.49597e-10 4.37269e-10)
(-7.41357e-10 -5.465e-10 2.17973e-09)
(-3.81729e-10 -3.59233e-10 1.19165e-09)
(-3.1346e-10 -3.09689e-10 8.53879e-10)
(-1.39661e-09 -1.1181e-10 2.34912e-09)
(-1.02182e-09 -3.46639e-10 1.44938e-09)
(-1.88456e-10 -1.63065e-10 7.98717e-10)
(-1.67507e-09 -2.64671e-10 2.49163e-09)
(-8.05851e-10 -4.38826e-10 1.48099e-09)
(6.46123e-11 -3.58755e-10 6.86693e-10)
)
;
    }
    procBoundary4to0
    {
        type            processor;
        value           nonuniform List<vector> 
36
(
(-0.0233694 0.000616105 0.000895323)
(-0.021432 0.000553768 0.000828913)
(-0.0224127 0.000562153 0.000828864)
(-0.0209827 0.000473882 0.000731925)
(-0.0222217 0.000450508 0.000686838)
(-0.0209061 0.000362225 0.000600539)
(-0.0222172 0.000329621 0.000549043)
(-0.0208768 0.000237792 0.000483279)
(-0.0222184 0.000191137 0.000407047)
(-0.0231837 0.000611411 0.000907602)
(-0.0210439 0.000536829 0.000822877)
(-0.0219319 0.00056836 0.000820949)
(-0.0201638 0.000457306 0.000697379)
(-0.0214153 0.000452485 0.000650449)
(-0.0197208 0.000343447 0.000544808)
(-0.0211648 0.000313703 0.000496175)
(-0.0194091 0.000225405 0.000413574)
(-0.0209964 0.000160306 0.000358502)
(-0.0229795 0.000416796 0.00091132)
(-0.0206889 0.000363724 0.000816145)
(-0.0214604 0.000381203 0.000801016)
(-0.019406 0.00029684 0.000663458)
(-0.0206378 0.000284587 0.000612216)
(-0.0186181 0.000206966 0.000493995)
(-0.020164 0.000171049 0.000450093)
(-0.018137 0.000117696 0.000345206)
(-0.0198872 6.50413e-05 0.000290276)
(-0.0228949 0.000102343 0.000904248)
(-0.0205513 7.76533e-05 0.000810967)
(-0.0212745 6.59606e-05 0.000792691)
(-0.0191328 4.85927e-05 0.000656694)
(-0.0203489 3.40126e-05 0.000608084)
(-0.0182661 3.01302e-05 0.000484468)
(-0.0198244 2.2575e-05 0.000437155)
(-0.0177587 1.78233e-05 0.000333352)
(-0.0195256 1.43535e-05 0.000273019)
)
;
    }
    procBoundary4to5
    {
        type            processor;
        value           nonuniform List<vector> 
12
(
(-0.0206126 0.000165051 0.000125977)
(-0.0189791 0.000144656 0.000108405)
(-0.0178069 7.27895e-05 0.000107574)
(-0.0173924 2.56207e-05 0.000117796)
(-0.0210879 0.000167214 1.99183e-05)
(-0.0197918 0.00018701 2.96568e-06)
(-0.0185659 0.000120988 9.70781e-06)
(-0.0181363 6.47649e-05 3.00171e-05)
(-0.0221975 0.000207348 -0.000139955)
(-0.0211578 0.000256302 -0.00011129)
(-0.0200644 0.000196489 -8.26114e-05)
(-0.0196032 0.000135325 -2.6755e-05)
)
;
    }
    procBoundary4to6
    {
        type            processor;
        value           nonuniform List<vector> 
27
(
(-0.0229147 -0.000235802 0.000502111)
(-0.0205784 -0.000212403 0.000449911)
(-0.0213069 -0.000224665 0.000431009)
(-0.0192007 -0.000177375 0.000372088)
(-0.0204337 -0.000170174 0.000339122)
(-0.0183577 -0.000124101 0.000283355)
(-0.0199102 -9.89768e-05 0.000260998)
(-0.0178478 -6.59221e-05 0.000217625)
(-0.0196148 -2.85871e-05 0.000207058)
(-0.0230301 -0.000256482 0.000113089)
(-0.0208237 -0.000219794 0.000134209)
(-0.0215953 -0.000237496 9.10501e-05)
(-0.0196802 -0.000180395 0.00010749)
(-0.0208753 -0.000175089 7.05947e-05)
(-0.0189984 -0.000117386 8.69342e-05)
(-0.0204451 -9.8172e-05 7.16341e-05)
(-0.0185242 -5.48309e-05 8.35397e-05)
(-0.0201753 -3.10986e-05 0.000101637)
(-0.0231932 -0.00025665 -4.05427e-05)
(-0.0211961 -0.000212917 -1.19829e-05)
(-0.022019 -0.000219674 -4.31606e-05)
(-0.0204315 -0.000169241 -1.43666e-05)
(-0.0215566 -0.000151509 -4.39951e-05)
(-0.0200573 -0.000100848 -1.84778e-05)
(-0.0213031 -6.80174e-05 -3.62525e-05)
(-0.0197778 -2.98102e-05 -4.89577e-06)
(-0.0211196 -9.80428e-07 6.01144e-06)
)
;
    }
}


// ************************************************************************* //
