/*--------------------------------*- C++ -*----------------------------------*\
| =========                 |                                                 |
| \\      /  F ield         | OpenFOAM: The Open Source CFD Toolbox           |
|  \\    /   O peration     | Version:  4.x                                   |
|   \\  /    A nd           | Web:      www.OpenFOAM.org                      |
|    \\/     M anipulation  |                                                 |
\*---------------------------------------------------------------------------*/
FoamFile
{
    version     2.0;
    format      ascii;
    class       volScalarField;
    location    "26.5";
    object      Sm;
}
// * * * * * * * * * * * * * * * * * * * * * * * * * * * * * * * * * * * * * //

dimensions      [1 -3 -1 0 0 0 0];

internalField   nonuniform List<scalar> 
108
(
5.19255e-65
7.36255e-65
7.51754e-65
5.58002e-65
5.96751e-65
5.6575e-65
7.59497e-65
6.74243e-65
8.91238e-65
7.75008e-65
6.35504e-65
7.36252e-65
8.60251e-65
8.21499e-65
7.51747e-65
6.35496e-65
5.42493e-65
9.06732e-65
6.97506e-65
8.75755e-65
6.66501e-65
8.44749e-65
6.66498e-65
5.96747e-65
6.12244e-65
9.68735e-65
5.6574e-65
4.34004e-65
5.73503e-65
7.59502e-65
5.1925e-65
7.36248e-65
6.35497e-65
9.22242e-65
5.96744e-65
5.9674e-65
5.34756e-65
5.11504e-65
7.05255e-65
7.67254e-65
6.97503e-65
5.27002e-65
4.49501e-65
6.97498e-65
8.21496e-65
5.65756e-65
6.51005e-65
5.81253e-65
6.43252e-65
5.96751e-65
5.9675e-65
6.66499e-65
7.90497e-65
8.13744e-65
4.41755e-65
6.27754e-65
7.82753e-65
7.20752e-65
7.67251e-65
7.28499e-65
6.66498e-65
6.66496e-65
6.81994e-65
6.66507e-65
7.20755e-65
5.96752e-65
8.52502e-65
8.44751e-65
6.7425e-65
9.60997e-65
7.90496e-65
6.81996e-65
4.96006e-65
6.66506e-65
4.41754e-65
6.74255e-65
5.73504e-65
8.06005e-65
7.20754e-65
6.27752e-65
7.20752e-65
5.34756e-65
8.75758e-65
5.81254e-65
5.50253e-65
6.20003e-65
7.20753e-65
6.35502e-65
5.6575e-65
7.59499e-65
5.42506e-65
7.36256e-65
7.44004e-65
7.36253e-65
5.65752e-65
6.58751e-65
6.43251e-65
7.5175e-65
6.27749e-65
7.44008e-65
7.05256e-65
5.81254e-65
7.67253e-65
6.97503e-65
9.22252e-65
4.49501e-65
4.8825e-65
6.355e-65
)
;

boundaryField
{
    inlet
    {
        type            calculated;
        value           uniform 0;
    }
    outlet
    {
        type            calculated;
        value           nonuniform 0();
    }
    wall
    {
        type            calculated;
        value           uniform 0;
    }
    procBoundary4to0
    {
        type            processor;
        value           nonuniform List<scalar> 
36
(
4.57255e-65
4.88253e-65
5.73502e-65
5.3475e-65
6.12249e-65
7.43996e-65
4.80496e-65
4.10742e-65
4.95989e-65
5.50255e-65
8.13754e-65
7.28501e-65
6.74248e-65
5.81247e-65
5.96745e-65
8.36988e-65
6.58735e-65
5.50232e-65
4.57254e-65
4.96001e-65
7.285e-65
5.73497e-65
7.28494e-65
8.0599e-65
6.74237e-65
5.11484e-65
8.05972e-65
5.27005e-65
5.89002e-65
7.9825e-65
9.06746e-65
4.49497e-65
9.1449e-65
7.12987e-65
5.42488e-65
2.32492e-65
)
;
    }
    procBoundary4to5
    {
        type            processor;
        value           nonuniform List<scalar> 
12
(
6.3549e-65
7.05237e-65
8.21485e-65
9.99734e-65
6.66495e-65
5.42495e-65
6.89743e-65
4.80497e-65
2.63501e-65
6.35499e-65
6.12249e-65
7.3625e-65
)
;
    }
    procBoundary4to6
    {
        type            processor;
        value           nonuniform List<scalar> 
27
(
1.03851e-64
7.59505e-65
4.96002e-65
7.44e-65
9.37748e-65
6.12248e-65
7.36246e-65
6.50994e-65
8.52491e-65
7.67258e-65
7.67255e-65
7.75004e-65
7.67252e-65
5.34751e-65
7.05251e-65
6.2775e-65
5.88999e-65
7.90497e-65
5.03756e-65
5.27005e-65
6.12254e-65
6.89754e-65
6.51003e-65
6.43252e-65
8.68003e-65
8.75752e-65
3.79751e-65
)
;
    }
}


// ************************************************************************* //
