/*--------------------------------*- C++ -*----------------------------------*\
| =========                 |                                                 |
| \\      /  F ield         | OpenFOAM: The Open Source CFD Toolbox           |
|  \\    /   O peration     | Version:  4.x                                   |
|   \\  /    A nd           | Web:      www.OpenFOAM.org                      |
|    \\/     M anipulation  |                                                 |
\*---------------------------------------------------------------------------*/
FoamFile
{
    version     2.0;
    format      ascii;
    class       volScalarField;
    location    "3";
    object      SPartFluid;
}
// * * * * * * * * * * * * * * * * * * * * * * * * * * * * * * * * * * * * * //

dimensions      [1 -3 -1 0 0 0 0];

internalField   nonuniform List<scalar> 
108
(
5.18993e-65
7.35529e-65
7.50678e-65
5.57012e-65
5.95621e-65
5.64768e-65
7.58479e-65
6.73646e-65
8.90961e-65
7.7452e-65
6.34721e-65
7.27063e-65
8.50545e-65
8.1946e-65
7.50046e-65
6.34373e-65
5.41868e-65
9.06319e-65
6.96978e-65
8.74491e-65
6.41851e-65
8.5022e-65
6.95514e-65
5.95186e-65
6.11003e-65
9.67429e-65
5.65384e-65
4.33654e-65
5.72641e-65
7.5772e-65
5.17737e-65
7.34007e-65
6.02801e-65
9.43473e-65
6.03588e-65
5.96307e-65
5.34501e-65
5.1102e-65
7.04315e-65
7.65996e-65
6.96359e-65
5.26186e-65
4.41191e-65
7.04639e-65
8.21176e-65
5.65386e-65
6.50261e-65
5.95723e-65
6.57351e-65
5.8775e-65
6.03301e-65
6.65396e-65
7.81765e-65
8.21025e-65
4.41515e-65
6.26926e-65
7.81196e-65
7.19034e-65
7.34335e-65
7.26815e-65
6.65214e-65
6.65558e-65
6.81497e-65
6.66065e-65
7.19781e-65
5.95414e-65
8.50337e-65
8.73207e-65
6.41711e-65
9.58963e-65
7.89318e-65
6.81432e-65
4.95859e-65
6.65946e-65
4.41284e-65
6.73334e-65
5.72773e-65
8.04923e-65
6.58086e-65
6.892e-65
7.20468e-65
5.34541e-65
8.7495e-65
5.80387e-65
5.49307e-65
6.18903e-65
7.19559e-65
6.3464e-65
5.65185e-65
7.59049e-65
5.03552e-65
7.43173e-65
7.42749e-65
7.11534e-65
5.4916e-65
6.65156e-65
6.42191e-65
7.50788e-65
6.27319e-65
7.746e-65
7.04495e-65
5.80341e-65
7.81037e-65
7.11373e-65
9.20295e-65
4.48708e-65
4.87633e-65
6.34979e-65
)
;

boundaryField
{
    inlet
    {
        type            calculated;
        value           uniform 0;
    }
    outlet
    {
        type            calculated;
        value           nonuniform 0();
    }
    wall
    {
        type            calculated;
        value           uniform 0;
    }
    procBoundary4to0
    {
        type            processor;
        value           nonuniform List<scalar> 
36
(
4.57101e-65
4.87686e-65
5.72654e-65
5.3372e-65
6.11105e-65
7.73698e-65
4.79884e-65
4.10469e-65
4.95843e-65
5.4994e-65
8.12726e-65
7.2712e-65
6.72661e-65
5.79817e-65
5.64513e-65
8.35669e-65
6.58137e-65
5.34607e-65
4.56881e-65
4.95141e-65
7.26847e-65
5.71868e-65
7.2651e-65
7.73127e-65
6.88401e-65
5.2645e-65
8.2127e-65
5.26646e-65
5.88093e-65
7.80908e-65
9.19607e-65
4.40413e-65
9.1978e-65
7.11632e-65
5.41687e-65
2.32451e-65
)
;
    }
    procBoundary4to5
    {
        type            processor;
        value           nonuniform List<scalar> 
12
(
6.27783e-65
7.13075e-65
8.2151e-65
9.99753e-65
6.66466e-65
5.34733e-65
8.05891e-65
3.56465e-65
2.63494e-65
6.04417e-65
6.27582e-65
7.20515e-65
)
;
    }
    procBoundary4to6
    {
        type            processor;
        value           nonuniform List<scalar> 
27
(
1.03774e-64
7.58421e-65
4.94897e-65
7.41921e-65
9.35034e-65
5.56562e-65
7.88721e-65
6.50098e-65
8.51963e-65
7.9776e-65
7.66202e-65
7.88971e-65
7.26673e-65
5.41118e-65
7.03557e-65
6.26434e-65
5.88037e-65
7.89814e-65
4.72524e-65
5.26461e-65
5.95799e-65
6.88333e-65
6.49653e-65
6.41934e-65
8.66477e-65
8.74536e-65
3.79403e-65
)
;
    }
}


// ************************************************************************* //
