/*--------------------------------*- C++ -*----------------------------------*\
| =========                 |                                                 |
| \\      /  F ield         | OpenFOAM: The Open Source CFD Toolbox           |
|  \\    /   O peration     | Version:  4.x                                   |
|   \\  /    A nd           | Web:      www.OpenFOAM.org                      |
|    \\/     M anipulation  |                                                 |
\*---------------------------------------------------------------------------*/
FoamFile
{
    version     2.0;
    format      ascii;
    class       volVectorField;
    location    "3";
    object      U;
}
// * * * * * * * * * * * * * * * * * * * * * * * * * * * * * * * * * * * * * //

dimensions      [0 1 -1 0 0 0 0];

internalField   nonuniform List<vector> 
108
(
(0.0306955 -0.00177192 -0.000594637)
(0.0137884 -0.00105821 -7.37271e-05)
(0.0327121 -0.00248849 0.00090139)
(0.018488 -0.00184008 0.00121377)
(0.0354195 -0.00235749 0.00255679)
(0.0225236 -0.0026811 0.00239753)
(0.0382962 -0.00155675 0.00334856)
(0.0244797 -0.00463911 0.00274687)
(0.0416758 -0.00421292 0.00382323)
(0.0301145 -0.00289182 -0.000532043)
(0.00831146 -0.00113731 1.1018e-06)
(0.0287527 -0.00283545 0.000777613)
(0.00448721 -0.000489665 0.000247894)
(0.0265608 -0.00104683 0.00133318)
(0.00164824 -1.3182e-05 6.24356e-05)
(0.0231486 -0.000140957 0.000939461)
(0.000137869 -6.02229e-06 -7.27137e-06)
(0.0176725 -0.000613717 -0.000180324)
(0.0291238 -0.000979857 0.000241708)
(0.00763196 -0.000350092 0.000330701)
(0.0273751 -0.000786415 0.00146782)
(0.00275672 2.36989e-05 0.000263032)
(0.0267269 -0.000136844 0.000632122)
(0.000887487 6.49388e-05 2.28412e-05)
(0.0272755 -3.74573e-05 -4.72537e-05)
(5.45682e-05 2.0397e-05 -3.57832e-05)
(0.0278658 0.00259925 -0.000731079)
(0.0300986 -0.000541857 0.000308943)
(0.00784204 -0.000188104 0.000571549)
(0.0289007 -0.000127931 0.00181251)
(0.00439503 -0.000314549 0.00060767)
(0.0283744 9.733e-05 0.00123199)
(0.00252494 -0.000342835 0.00024795)
(0.0281591 -0.000240434 0.000502832)
(0.000809299 -6.28729e-05 -3.12666e-05)
(0.0279238 -0.00642391 0.000873091)
(0.0309483 -0.00171768 0.000197085)
(0.0136759 -0.000915806 0.000386856)
(0.0332551 -0.00249505 0.00131056)
(0.0185549 -0.00122568 0.00129732)
(0.0363982 -0.00248345 0.00222463)
(0.0238931 -0.00121081 0.00272937)
(0.040184 -0.00142544 0.00338713)
(0.0279291 -0.000296052 0.00428963)
(0.0441779 -0.000275141 0.00475603)
(0.0309572 -0.00208548 0.00103708)
(0.00864189 -0.000812345 0.000664535)
(0.0305932 -0.00232911 0.00248294)
(0.00519425 -0.000376583 0.000882985)
(0.0294271 -0.00181276 0.00203847)
(0.00211239 -0.00011181 0.000521808)
(0.0281573 -0.000603151 0.000730716)
(0.00111416 -7.01511e-05 0.000441589)
(0.0290392 0.000355659 0.00293575)
(0.0302687 -0.000902137 0.00174383)
(0.00962529 -0.000436199 0.00112823)
(0.0301386 -0.000640094 0.00307405)
(0.00685883 -0.000339068 0.00122194)
(0.0293751 -0.000695497 0.00192613)
(0.00248658 -0.000198578 0.000250942)
(0.0284699 -0.000975928 0.000528192)
(0.000138416 -3.26124e-05 4.04391e-06)
(0.0288676 -0.000574785 0.000951683)
(0.0307776 -0.000556931 0.00125232)
(0.0093913 -0.000114041 0.000945089)
(0.0304765 -0.000348475 0.00288918)
(0.0076895 -9.80436e-05 0.00116169)
(0.0299928 0.000225403 0.00251454)
(0.00450783 5.06086e-05 0.000686956)
(0.0284561 -3.9139e-05 0.00133015)
(0.000129472 -4.16547e-06 7.32096e-06)
(0.0266865 0.000342356 0.000918007)
(0.0308666 -0.000843185 0.000135306)
(0.0133105 -0.000389858 0.000103666)
(0.0329064 -0.000982396 0.000796955)
(0.0175469 -0.000188591 0.000211986)
(0.0356922 -0.00095648 0.00101378)
(0.0224128 1.78728e-05 0.000273655)
(0.0395194 -0.000642507 0.00113197)
(0.0278604 0.000242034 0.000442272)
(0.0451411 -0.000668331 0.00107537)
(0.0310905 -0.00139045 0.000990226)
(0.0128257 -0.000660309 0.000576755)
(0.0328267 -0.00127026 0.00231191)
(0.0169558 -0.000345485 0.00113514)
(0.0354963 -0.000843948 0.00235941)
(0.0204044 -0.000186755 0.000970842)
(0.0376969 -0.000761388 0.00105038)
(0.0209753 -0.000483533 -0.000232131)
(0.0392558 -0.00113949 -0.00110786)
(0.030561 -0.000777563 0.000886283)
(0.0130319 -0.000300537 0.000662056)
(0.0325888 -0.000606007 0.00223343)
(0.0173185 -0.00028441 0.00135055)
(0.0355621 -0.000192625 0.00272207)
(0.0214481 -6.28648e-05 0.00130628)
(0.0383009 0.000139271 0.00132537)
(0.0235771 -0.000296529 0.000112651)
(0.0407163 0.000275389 -0.00126017)
(0.0307791 -0.000217294 0.00108923)
(0.0126074 -0.000122179 0.000809636)
(0.032432 -0.000428277 0.00240233)
(0.0168163 -0.000388351 0.00153609)
(0.0355425 -0.000661115 0.0031382)
(0.0218491 -0.000838643 0.0021582)
(0.0387229 -0.00147768 0.00285743)
(0.0255732 -0.00219046 0.00191563)
(0.0412399 -0.00325416 0.000604849)
)
;

boundaryField
{
    inlet
    {
        type            fixedValue;
        value           uniform (0.01 0 0);
    }
    outlet
    {
        type            zeroGradient;
    }
    wall
    {
        type            fixedValue;
        value           uniform (0 0 0);
    }
    procBoundary4to0
    {
        type            processor;
        value           nonuniform List<vector> 
36
(
(0.0307975 -0.00178871 -0.00149185)
(0.0134552 -0.00103434 -0.000554328)
(0.0333783 -0.00255253 0.000894358)
(0.0190984 -0.00146253 0.00132292)
(0.0371361 -0.00270885 0.00316815)
(0.0244179 -0.0017692 0.00229173)
(0.0407905 -0.00230851 0.0038758)
(0.0279849 -0.00155834 0.00197751)
(0.0440573 -0.00114896 0.00331371)
(0.030588 -0.00293816 -0.00178522)
(0.00912922 -0.00134907 -0.000601704)
(0.0306613 -0.00308838 0.000377207)
(0.00760202 -0.00101361 -2.18658e-05)
(0.0306236 -0.001663 0.00166806)
(0.00519099 -0.00043729 -0.000554452)
(0.0301288 -0.000569437 0.00109542)
(0.00283821 -0.00016311 -0.00110009)
(0.0290677 0.000635214 -0.00385352)
(0.0294011 -0.00170786 -0.00137532)
(0.00756719 -0.000890146 -0.000326192)
(0.0283512 -0.00145486 0.000910007)
(0.00385236 -0.000497502 0.00017759)
(0.0280249 -0.000455089 0.00144539)
(0.00193623 -0.000245715 3.50823e-05)
(0.0282054 -0.000314186 -4.08892e-05)
(0.000166855 -3.51778e-05 -2.10555e-05)
(0.0287223 -0.000998878 -0.00344569)
(0.0297612 -0.000471541 -0.00110285)
(0.00717248 -0.000161133 -0.000275554)
(0.0286261 -0.000147274 0.000965697)
(0.00368511 -0.0001014 8.63126e-05)
(0.0286514 0.000219927 0.00125282)
(0.002683 -0.00010658 -0.0001983)
(0.0299189 0.000173958 0.000482068)
(0.00186536 -7.11158e-05 -0.00054109)
(0.0321496 -0.000654644 -0.000877899)
)
;
    }
    procBoundary4to5
    {
        type            processor;
        value           nonuniform List<vector> 
12
(
(0.0273714 -0.0090716 0.00352612)
(-0.0135969 0.000649724 -0.00171682)
(0.000787321 0.000166982 -8.32436e-05)
(5.20151e-05 -2.89639e-05 -3.93339e-06)
(0.029945 0.000386575 0.00521003)
(0.00170425 -2.93047e-05 0.00140981)
(0.00010612 -7.46677e-05 6.95846e-06)
(-0.000559666 6.3073e-05 0.00012432)
(0.0341881 5.01996e-05 0.000414097)
(0.0212263 -0.0013414 -0.00193686)
(0.0247391 -0.00170304 -0.00205823)
(0.0272241 -0.00811957 0.000876362)
)
;
    }
    procBoundary4to6
    {
        type            processor;
        value           nonuniform List<vector> 
27
(
(0.0282996 0.000912361 0.000108582)
(0.00663744 0.000418936 0.000314515)
(0.0252465 0.000721865 0.00104967)
(0.00149098 9.87105e-05 0.00015352)
(0.0235356 0.000255495 0.00056642)
(0.0007025 7.76752e-05 5.61536e-05)
(0.0224063 0.000433345 -0.000296901)
(3.19907e-05 -2.32309e-05 -1.92005e-06)
(0.0217311 0.00105344 -0.00147404)
(0.0299026 0.000607233 0.00199311)
(0.00889498 0.000184784 0.00113533)
(0.0291504 0.000441706 0.00266127)
(0.00497731 3.86841e-05 0.00106707)
(0.0283576 0.000355967 0.00102868)
(0.00229032 3.37179e-05 0.000414347)
(0.0289175 0.000747048 -0.000612)
(0.00130729 9.53832e-05 2.70051e-06)
(0.0317063 -6.10042e-05 0.00427579)
(0.0306193 0.000651734 0.00123909)
(0.013158 0.000175294 0.000711158)
(0.0323732 0.000398546 0.00216098)
(0.0161347 3.15564e-05 0.00109773)
(0.034253 0.000143413 0.00174527)
(0.0165985 -0.000246839 0.000177552)
(0.0338761 -0.000212197 -0.000357762)
(0.0119471 -0.000356421 -0.00217283)
(0.0280511 -0.000292037 -0.00556911)
)
;
    }
}


// ************************************************************************* //
