/*--------------------------------*- C++ -*----------------------------------*\
| =========                 |                                                 |
| \\      /  F ield         | OpenFOAM: The Open Source CFD Toolbox           |
|  \\    /   O peration     | Version:  4.x                                   |
|   \\  /    A nd           | Web:      www.OpenFOAM.org                      |
|    \\/     M anipulation  |                                                 |
\*---------------------------------------------------------------------------*/
FoamFile
{
    version     2.0;
    format      ascii;
    class       volScalarField;
    location    "26";
    object      p;
}
// * * * * * * * * * * * * * * * * * * * * * * * * * * * * * * * * * * * * * //

dimensions      [1 -1 -2 0 0 0 0];

internalField   nonuniform List<scalar> 
132
(
5741.16
5725
5735.72
5704.45
5725.7
5687.71
5719.43
5669.33
5712.91
5741.26
5724.62
5734.55
5705.94
5726.52
5687.83
5719.72
5669.24
5713.02
5741.33
5724.54
5734.4
5706.54
5726.99
5688.18
5719.82
5669.72
5712.74
5741.35
5724.41
5734.5
3863.64
3846.9
3856.85
3828.13
3848.82
3809.99
3842.15
3791.57
3835.73
3863.92
3846.84
3856.94
3828.51
3849.34
3810.05
3842.37
3791.35
3835.74
3864.1
3846.83
3857.08
3828.83
3849.8
3810.41
3842.84
3791.78
3836.56
3864.21
3846.74
3857.23
3828.95
3849.98
1986.45
1969.24
1979.31
1951.15
1971.68
1932.77
1964.26
1914.05
1956.81
1986.9
1969.41
1979.77
1951.36
1972.24
1932.92
1964.91
1914.21
1957.78
1987.29
1969.74
1980.17
1952.12
1972.44
1934.11
1964.3
1915.74
1954.67
1987.53
1969.86
1980.43
1952.23
1972.83
1934.29
1965.06
108.532
91.2587
101.435
73.2969
94.1272
54.974
86.9772
36.6069
80.3995
109.139
91.5401
101.965
73.4171
94.5321
55.0756
87.3117
36.4992
80.5268
109.423
91.7586
102.279
73.6513
94.8013
55.2809
87.3989
37.0018
80.6571
109.73
91.946
102.594
73.7163
94.9448
55.3111
87.2741
36.4082
80.1164
)
;

boundaryField
{
    inlet
    {
        type            calculated;
        value           nonuniform List<scalar> 
16
(
5741.16
5741.26
5741.33
5741.35
3863.64
3863.92
3864.1
3864.21
1986.45
1986.9
1987.29
1987.53
108.532
109.139
109.423
109.73
)
;
    }
    outlet
    {
        type            calculated;
        value           nonuniform 0();
    }
    wall
    {
        type            calculated;
        value           nonuniform List<scalar> 
66
(
6680.12
6680.22
6680.29
6680.31
6663.96
6663.58
6663.5
6663.37
6674.68
6673.51
6673.35
6673.46
6643.4
6644.9
6645.5
6664.66
6665.47
6665.95
6626.66
6626.78
6627.14
6658.38
6658.67
6658.78
6608.27
6608.19
6608.67
6651.84
6651.98
6651.69
5741.16
3863.64
1986.45
108.532
5725
3846.9
1969.24
91.2587
5735.72
3856.85
1979.31
101.435
5704.45
3828.13
1951.15
73.2969
5725.7
3848.82
1971.68
94.1272
5687.71
3809.99
1932.77
54.974
5719.43
3842.15
1964.26
86.9772
5669.33
3791.57
1914.05
36.6069
5712.91
3835.73
1956.81
80.3995
)
;
    }
    procBoundary0to1
    {
        type            processor;
        value           nonuniform List<scalar> 
12
(
5650.75
5650.15
5650.82
3772.87
3772.31
3773
1895.11
1894.79
1896.01
18.0816
18.133
19.2216
)
;
    }
    procBoundary0to2
    {
        type            processor;
        value           nonuniform List<scalar> 
44
(
5706.69
5727.26
5688.28
5720.15
5669.51
5713.26
5741.17
5724.22
5706.69
5734.36
5706.69
5727.26
3810.41
3842.64
3791.54
3835.86
3864.02
3846.72
3857.13
3828.84
3810.41
3849.95
3810.41
3842.64
1916.44
1957.67
1987.14
1969.46
1980.07
1951.7
1972.49
1933.54
1916.44
1964.64
1916.44
1957.67
109.565
91.7284
102.311
73.6004
94.8773
55.2169
87.587
36.6884
)
;
    }
    procBoundary0to4
    {
        type            processor;
        value           nonuniform List<scalar> 
36
(
-1768.81
-1786.23
-1775.95
-1804.16
-1783.44
-1822.45
-1790.92
-1841.04
-1798.16
-1768.14
-1785.94
-1775.28
-1803.98
-1782.88
-1822.44
-1790.42
-1840.98
-1798
-1767.72
-1785.6
-1775.04
-1803.53
-1782.84
-1821.81
-1790.67
-1839.82
-1798.39
-1767.51
-1785.38
-1774.75
-1803.43
-1782.52
-1821.97
-1790.37
-1840.64
-1797.63
)
;
    }
    procBoundary0to6
    {
        type            processor;
        value           uniform 80.4936;
    }
    procBoundary0to7
    {
        type            processor;
        value           uniform 18.2156;
    }
}


// ************************************************************************* //
