/*--------------------------------*- C++ -*----------------------------------*\
| =========                 |                                                 |
| \\      /  F ield         | OpenFOAM: The Open Source CFD Toolbox           |
|  \\    /   O peration     | Version:  4.x                                   |
|   \\  /    A nd           | Web:      www.OpenFOAM.org                      |
|    \\/     M anipulation  |                                                 |
\*---------------------------------------------------------------------------*/
FoamFile
{
    version     2.0;
    format      ascii;
    class       volVectorField;
    location    "24";
    object      impParticleForces;
}
// * * * * * * * * * * * * * * * * * * * * * * * * * * * * * * * * * * * * * //

dimensions      [1 1 -2 0 0 0 0];

internalField   nonuniform List<vector> 
114
(
(0.00239441 -3.10177e-06 -9.18537e-05)
(0.00243054 -1.69408e-06 -8.66226e-05)
(0.00243121 2.85047e-07 -7.85727e-05)
(0.00246475 2.84931e-06 -7.09071e-05)
(0.00243893 6.5234e-06 -6.01067e-05)
(0.00244953 1.0999e-05 -5.0098e-05)
(0.00229786 4.35487e-06 -9.46165e-05)
(0.00232764 5.1218e-06 -9.60554e-05)
(0.00237127 6.05118e-06 -9.52642e-05)
(0.00239137 6.65737e-06 -9.10387e-05)
(0.00243532 7.37134e-06 -8.62651e-05)
(0.00243156 7.689e-06 -7.81726e-05)
(0.0024665 8.63653e-06 -7.05739e-05)
(0.00245101 9.97907e-06 -6.04792e-05)
(0.00245085 1.22138e-05 -5.06358e-05)
(0.0022715 1.19778e-05 -9.21366e-05)
(0.00230668 1.29462e-05 -9.38499e-05)
(0.00234987 1.38384e-05 -9.3253e-05)
(0.00237209 1.3971e-05 -8.91043e-05)
(0.00241643 1.43448e-05 -8.4397e-05)
(0.00241621 1.36295e-05 -7.67353e-05)
(0.00245202 1.37633e-05 -6.93945e-05)
(0.00244599 1.35801e-05 -6.01226e-05)
(0.00246044 1.45276e-05 -5.13904e-05)
(0.00223397 1.49057e-05 -8.91798e-05)
(0.00225739 1.56433e-05 -8.99684e-05)
(0.00231019 1.67022e-05 -8.97892e-05)
(0.00232467 1.65063e-05 -8.56963e-05)
(0.00235758 1.64778e-05 -8.09163e-05)
(0.00236608 1.57453e-05 -7.39399e-05)
(0.00238246 1.53962e-05 -6.66517e-05)
(0.00240088 1.51868e-05 -5.86242e-05)
(0.00241508 1.56054e-05 -5.0259e-05)
(0.00249366 -3.0879e-07 -8.04399e-05)
(0.00252626 2.13274e-06 -7.2891e-05)
(0.00247237 5.58615e-06 -6.0472e-05)
(0.00249219 9.45679e-06 -5.07011e-05)
(0.00232505 5.13438e-06 -9.45198e-05)
(0.00237524 6.04868e-06 -9.74825e-05)
(0.00243911 7.26276e-06 -9.87178e-05)
(0.0024519 7.84386e-06 -9.34699e-05)
(0.00248603 8.52138e-06 -8.8154e-05)
(0.0024721 8.37324e-06 -7.90445e-05)
(0.00251456 9.20975e-06 -7.20927e-05)
(0.00247816 1.01919e-05 -6.10825e-05)
(0.00247454 1.20219e-05 -5.08596e-05)
(0.00230871 1.35029e-05 -9.28877e-05)
(0.00236481 1.51138e-05 -9.61599e-05)
(0.00243434 1.68417e-05 -9.7685e-05)
(0.00243909 1.62956e-05 -9.19024e-05)
(0.00246681 1.6283e-05 -8.62794e-05)
(0.00246425 1.53213e-05 -7.81484e-05)
(0.00249312 1.52095e-05 -7.08448e-05)
(0.00247436 1.46151e-05 -6.12231e-05)
(0.00248313 1.52032e-05 -5.20697e-05)
(0.00226008 1.62911e-05 -8.89419e-05)
(0.00230034 1.75721e-05 -9.08446e-05)
(0.00237099 1.93492e-05 -9.2409e-05)
(0.00236928 1.85456e-05 -8.69614e-05)
(0.00239231 1.81978e-05 -8.16535e-05)
(0.0024045 1.73827e-05 -7.4858e-05)
(0.00242375 1.70139e-05 -6.75669e-05)
(0.00242064 1.63309e-05 -5.92435e-05)
(0.00242102 1.64497e-05 -5.05475e-05)
(0.00243213 4.24281e-06 -5.46442e-05)
(0.00243491 7.32531e-06 -4.51098e-05)
(0.00234973 6.12051e-06 -8.88566e-05)
(0.00238285 6.92723e-06 -9.03354e-05)
(0.00243773 8.12137e-06 -9.08018e-05)
(0.00244324 8.43571e-06 -8.58734e-05)
(0.00246396 8.80707e-06 -8.0255e-05)
(0.00245211 8.73564e-06 -7.22551e-05)
(0.00247651 9.48242e-06 -6.51268e-05)
(0.00243829 1.01815e-05 -5.53317e-05)
(0.0024348 1.16675e-05 -4.5959e-05)
(0.00231872 1.45578e-05 -8.62971e-05)
(0.00236597 1.61436e-05 -8.87076e-05)
(0.00243732 1.82606e-05 -9.02777e-05)
(0.00244486 1.77699e-05 -8.58077e-05)
(0.00246085 1.7467e-05 -7.97592e-05)
(0.00244123 1.60062e-05 -7.16504e-05)
(0.00247531 1.62528e-05 -6.50753e-05)
(0.00244569 1.54074e-05 -5.62422e-05)
(0.00245989 1.59379e-05 -4.80106e-05)
(0.0022781 1.76659e-05 -8.34666e-05)
(0.00231926 1.92485e-05 -8.53822e-05)
(0.00237527 2.07767e-05 -8.58657e-05)
(0.00238458 2.02412e-05 -8.19992e-05)
(0.00238506 1.91973e-05 -7.57006e-05)
(0.00239894 1.85201e-05 -6.96524e-05)
(0.00243128 1.85685e-05 -6.34218e-05)
(0.00240274 1.72551e-05 -5.51678e-05)
(0.00241678 1.74406e-05 -4.75732e-05)
(0.00235268 6.77797e-06 -7.6956e-05)
(0.00240375 7.87314e-06 -7.86543e-05)
(0.00245349 9.15458e-06 -7.87255e-05)
(0.00243592 8.85986e-06 -7.36714e-05)
(0.0024515 9.14241e-06 -6.8784e-05)
(0.00242287 8.84725e-06 -6.162e-05)
(0.00243695 9.4927e-06 -5.51342e-05)
(0.00239738 9.97348e-06 -4.69139e-05)
(0.00232519 1.55152e-05 -7.51905e-05)
(0.00237363 1.72701e-05 -7.70523e-05)
(0.00243907 1.92882e-05 -7.77768e-05)
(0.00242279 1.78452e-05 -7.31847e-05)
(0.0024501 1.78829e-05 -6.89413e-05)
(0.00242298 1.63714e-05 -6.20953e-05)
(0.00244442 1.64483e-05 -5.61658e-05)
(0.00227241 1.83252e-05 -7.26772e-05)
(0.00231463 1.99452e-05 -7.42723e-05)
(0.00237693 2.17579e-05 -7.50139e-05)
(0.00237721 2.08013e-05 -7.14828e-05)
(0.00240052 2.04694e-05 -6.72149e-05)
(0.0023845 1.90101e-05 -6.10223e-05)
)
;

boundaryField
{
    inlet
    {
        type            zeroGradient;
    }
    outlet
    {
        type            zeroGradient;
    }
    wall
    {
        type            zeroGradient;
    }
    procBoundary2to0
    {
        type            processor;
        value           nonuniform List<vector> 
44
(
(0.00238609 -1.23761e-05 -9.10105e-05)
(0.00243552 -1.03281e-05 -8.63787e-05)
(0.00243497 -6.6677e-06 -7.82656e-05)
(0.00245247 -2.29873e-06 -7.00604e-05)
(0.0024508 3.93425e-06 -5.99166e-05)
(0.00248475 1.16621e-05 -5.0432e-05)
(0.00229076 -5.39166e-06 -9.50879e-05)
(0.00231461 -5.07259e-06 -9.58706e-05)
(0.00235235 -4.30803e-06 -9.48641e-05)
(0.00235235 -4.30803e-06 -9.48641e-05)
(0.00243905 -3.47848e-06 -9.30698e-05)
(0.00250188 -1.97486e-06 -8.96733e-05)
(0.00248416 -8.46381e-06 -7.93953e-05)
(0.00251876 -4.57438e-06 -7.18488e-05)
(0.00247387 1.50817e-06 -6.01712e-05)
(0.00248475 8.07059e-06 -4.99089e-05)
(0.00234721 -5.66147e-06 -9.71947e-05)
(0.00237499 -5.43124e-06 -9.82997e-05)
(0.00242882 -4.87266e-06 -9.89363e-05)
(0.00243905 -3.47848e-06 -9.30698e-05)
(0.00250188 -1.97486e-06 -8.96733e-05)
(0.00250188 -1.97486e-06 -8.96733e-05)
(0.00246681 -6.0953e-07 -7.30713e-05)
(0.00248092 1.44484e-06 -6.51308e-05)
(0.00243264 -1.29165e-06 -5.43638e-05)
(0.00243303 3.63592e-06 -4.4729e-05)
(0.00236135 -5.59711e-06 -9.03179e-05)
(0.00239812 -5.50964e-06 -9.2309e-05)
(0.00245563 -4.96572e-06 -9.27587e-05)
(0.00245583 -3.68166e-06 -8.70784e-05)
(0.00248663 -2.34951e-06 -8.17607e-05)
(0.00246681 -6.0953e-07 -7.30713e-05)
(0.00248092 1.44484e-06 -6.51308e-05)
(0.00248092 1.44484e-06 -6.51308e-05)
(0.00238466 2.86647e-06 -4.5875e-05)
(0.00237377 5.11737e-06 -3.71965e-05)
(0.0023471 -5.69288e-06 -7.70245e-05)
(0.00239412 -5.58884e-06 -7.87368e-05)
(0.00245774 -5.20961e-06 -7.90353e-05)
(0.00245052 -3.8831e-06 -7.44181e-05)
(0.00244922 -2.6653e-06 -6.85279e-05)
(0.00243751 -1.07289e-06 -6.19456e-05)
(0.00244206 7.41969e-07 -5.49002e-05)
(0.00238466 2.86647e-06 -4.5875e-05)
)
;
    }
    procBoundary2to3
    {
        type            processor;
        value           nonuniform List<vector> 
12
(
(0.00249222 1.60292e-05 -4.02359e-05)
(0.00248509 1.45696e-05 -4.09807e-05)
(0.00247477 1.56962e-05 -4.23213e-05)
(0.00240745 1.6221e-05 -4.14529e-05)
(0.00248669 1.37526e-05 -3.95629e-05)
(0.00248949 1.41479e-05 -4.10393e-05)
(0.00251366 1.62053e-05 -4.36804e-05)
(0.00244591 1.7105e-05 -4.29494e-05)
(0.00242983 1.05679e-05 -3.46135e-05)
(0.00243749 1.33465e-05 -3.66545e-05)
(0.00244435 1.63107e-05 -3.90175e-05)
(0.00241671 1.77771e-05 -4.0009e-05)
)
;
    }
    procBoundary2to6
    {
        type            processor;
        value           nonuniform List<vector> 
32
(
(0.00240588 1.12962e-05 -3.87533e-05)
(0.00240583 1.54367e-05 -4.84646e-05)
(0.00242218 1.58884e-05 -4.12512e-05)
(0.00238917 1.83523e-05 -5.48397e-05)
(0.00237392 1.74418e-05 -4.83409e-05)
(0.00238121 1.73797e-05 -4.16803e-05)
(0.0023729 7.51456e-06 -6.28428e-05)
(0.00240022 7.93934e-06 -6.27203e-05)
(0.00242235 8.58557e-06 -6.13766e-05)
(0.00241965 8.42636e-06 -5.8387e-05)
(0.00244266 8.72949e-06 -5.49958e-05)
(0.00240195 8.31166e-06 -4.94054e-05)
(0.00241552 8.74146e-06 -4.42069e-05)
(0.00240588 1.12962e-05 -3.87533e-05)
(0.00240583 1.54367e-05 -4.84646e-05)
(0.00237014 8.82963e-06 -3.77971e-05)
(0.00233782 1.67701e-05 -6.17351e-05)
(0.00237623 1.80031e-05 -6.21022e-05)
(0.0024133 1.90061e-05 -6.121e-05)
(0.00241736 1.80716e-05 -5.86559e-05)
(0.00243583 1.77545e-05 -5.53585e-05)
(0.00241056 1.63702e-05 -5.05468e-05)
(0.00240583 1.54367e-05 -4.84646e-05)
(0.00238917 1.83523e-05 -5.48397e-05)
(0.00242125 1.61418e-05 -4.5438e-05)
(0.00228176 1.92709e-05 -6.0576e-05)
(0.00231697 2.06374e-05 -6.1158e-05)
(0.00234528 2.10739e-05 -6.03424e-05)
(0.00235805 2.0486e-05 -5.82188e-05)
(0.00239504 2.05638e-05 -5.51619e-05)
(0.00238917 1.83523e-05 -5.48397e-05)
(0.00238835 1.94984e-05 -5.10571e-05)
)
;
    }
}


// ************************************************************************* //
