/*--------------------------------*- C++ -*----------------------------------*\
| =========                 |                                                 |
| \\      /  F ield         | OpenFOAM: The Open Source CFD Toolbox           |
|  \\    /   O peration     | Version:  4.x                                   |
|   \\  /    A nd           | Web:      www.OpenFOAM.org                      |
|    \\/     M anipulation  |                                                 |
\*---------------------------------------------------------------------------*/
FoamFile
{
    version     2.0;
    format      ascii;
    class       volVectorField;
    location    "24";
    object      UsPrev;
}
// * * * * * * * * * * * * * * * * * * * * * * * * * * * * * * * * * * * * * //

dimensions      [0 1 -1 0 0 0 0];

internalField   nonuniform List<vector> 
114
(
(-3.24494e-10 8.79722e-10 2.9797e-09)
(-7.99205e-10 1.09481e-09 4.2328e-09)
(-1.83845e-09 1.29433e-09 5.66294e-09)
(-2.04672e-09 1.29384e-09 6.30571e-09)
(-1.52053e-09 1.53141e-09 6.75516e-09)
(-4.04402e-10 -4.91409e-10 6.39241e-09)
(-1.19413e-09 1.20223e-09 6.69658e-10)
(-2.04765e-11 7.45344e-10 1.58134e-09)
(-6.35934e-10 8.08536e-10 2.35817e-09)
(-1.11888e-09 7.90753e-10 2.99187e-09)
(-1.83874e-09 7.32953e-10 3.68109e-09)
(-2.21725e-09 8.70807e-10 4.61935e-09)
(-2.79159e-09 9.59784e-10 5.14669e-09)
(-2.58181e-09 7.16836e-10 5.0762e-09)
(-2.41834e-09 9.87103e-11 4.28661e-09)
(-1.09751e-10 3.90035e-10 6.08892e-10)
(2.25877e-10 3.59148e-10 1.31846e-09)
(-6.31139e-10 5.56308e-10 1.90802e-09)
(-1.12961e-09 7.39122e-10 2.1911e-09)
(-1.55583e-09 6.88557e-10 2.75293e-09)
(-1.84886e-09 6.21895e-10 3.0457e-09)
(-2.78512e-09 -2.09382e-10 3.61858e-09)
(-3.0961e-09 9.00621e-10 3.57097e-09)
(-2.40042e-09 2.3794e-10 3.4534e-09)
(-8.37047e-11 1.12999e-10 4.34125e-10)
(5.20663e-10 1.82108e-10 8.246e-10)
(7.72922e-12 2.43722e-10 6.98962e-10)
(1.42142e-09 -2.2597e-09 9.9083e-10)
(-7.31976e-10 -4.89962e-10 1.81857e-09)
(-3.8088e-10 -1.79844e-11 1.70151e-09)
(-1.00217e-09 -4.62626e-10 1.99085e-09)
(-8.99731e-10 -3.3024e-09 2.9197e-09)
(-9.15191e-10 -8.43323e-10 2.35734e-09)
(-1.33114e-09 1.39293e-09 5.14928e-09)
(-1.33168e-09 1.82598e-09 5.98746e-09)
(-4.92796e-10 1.76859e-09 6.03545e-09)
(8.42473e-10 1.63861e-09 5.22656e-09)
(-9.23458e-11 4.42024e-10 5.50294e-10)
(-3.03912e-10 7.95054e-10 1.51794e-09)
(-6.38195e-10 8.44658e-10 2.39224e-09)
(-1.19681e-09 9.18269e-10 2.95569e-09)
(-1.77098e-09 8.94916e-10 3.547e-09)
(-1.99916e-09 8.02973e-10 4.35754e-09)
(-1.723e-09 9.56755e-10 4.80145e-09)
(-8.7226e-10 1.05391e-09 4.38159e-09)
(-1.34286e-10 9.86994e-10 3.68204e-09)
(-1.98106e-10 4.04539e-10 6.85887e-10)
(-2.63163e-10 6.55855e-10 1.23552e-09)
(-7.127e-10 7.57727e-10 2.11283e-09)
(-9.87075e-10 7.4858e-10 2.3855e-09)
(-1.25532e-09 6.02354e-10 2.83711e-09)
(-1.5119e-09 7.3086e-10 2.83849e-09)
(-1.78367e-09 7.04659e-10 3.39907e-09)
(-1.54485e-09 5.01134e-10 3.16457e-09)
(-5.2353e-10 1.91277e-10 2.89456e-09)
(-3.67157e-11 1.56429e-10 4.44808e-10)
(-5.95531e-11 2.65848e-10 8.91039e-10)
(-3.26629e-10 2.73344e-10 1.22439e-09)
(-4.0182e-10 3.08176e-10 1.18772e-09)
(-5.97402e-10 1.19336e-10 1.64528e-09)
(-4.29739e-10 -7.68497e-12 1.50985e-09)
(-6.82509e-10 6.49435e-11 1.88943e-09)
(-5.97369e-10 -1.23016e-10 1.81341e-09)
(-4.13273e-10 -5.5406e-11 1.07567e-09)
(3.96872e-10 1.93566e-09 4.31354e-09)
(1.96705e-09 2.68301e-09 3.38183e-09)
(-6.30135e-11 3.09277e-10 7.57903e-10)
(-3.61131e-10 7.1626e-10 1.4599e-09)
(-8.22236e-10 9.57227e-10 2.31547e-09)
(-1.17511e-09 1.01091e-09 2.7331e-09)
(-1.60488e-09 1.10494e-09 3.40713e-09)
(-1.52274e-09 1.01541e-09 3.69078e-09)
(-1.52211e-09 1.00205e-09 3.7039e-09)
(-1.64751e-10 1.26168e-09 3.18318e-09)
(1.2774e-09 1.35192e-09 2.69724e-09)
(-1.16225e-10 3.2223e-10 5.40525e-10)
(-2.2025e-10 7.97022e-10 1.47839e-09)
(-8.04687e-10 9.43812e-10 2.07712e-09)
(-7.964e-10 8.85408e-10 2.2302e-09)
(-1.1062e-09 7.90665e-10 2.74855e-09)
(-1.17501e-09 1.03807e-09 2.76978e-09)
(-1.27643e-09 6.2071e-10 2.97797e-09)
(6.87732e-11 1.09795e-09 2.25359e-09)
(1.22705e-09 9.27331e-10 1.61419e-09)
(-7.944e-11 1.48157e-10 4.65257e-10)
(-1.6195e-10 3.16919e-10 9.88908e-10)
(-3.19366e-10 4.1536e-10 1.05879e-09)
(-5.08878e-10 3.67458e-10 1.37737e-09)
(-5.44278e-10 2.73079e-10 1.52401e-09)
(-2.31164e-10 4.29105e-10 1.58586e-09)
(-1.62065e-10 4.50788e-10 1.98132e-09)
(2.26146e-10 2.96444e-10 1.60477e-09)
(6.41329e-10 4.32481e-10 1.38411e-09)
(-1.05226e-10 3.84881e-10 7.46082e-10)
(-3.57139e-10 8.03055e-10 1.61208e-09)
(-9.25621e-10 1.05623e-09 2.24528e-09)
(-8.76627e-10 1.24045e-09 2.42185e-09)
(-1.25201e-09 1.36447e-09 2.84342e-09)
(-1.11251e-09 1.33436e-09 3.05687e-09)
(-9.59975e-10 1.42779e-09 3.00675e-09)
(6.25855e-10 1.89477e-09 2.0812e-09)
(-1.07715e-10 2.84091e-10 5.03835e-10)
(-3.07068e-10 8.0309e-10 1.41732e-09)
(-3.75226e-10 1.00874e-09 1.69568e-09)
(-4.93438e-10 1.19226e-09 2.0765e-09)
(-7.41372e-10 1.10486e-09 2.42216e-09)
(-5.04872e-10 1.20723e-09 2.60495e-09)
(-3.18815e-11 7.59021e-10 2.4082e-09)
(5.72415e-12 7.96082e-11 3.59891e-10)
(-2.54661e-11 4.1623e-10 9.67043e-10)
(-1.86996e-10 7.36243e-10 1.34164e-09)
(-5.05569e-12 4.92114e-10 1.12676e-09)
(-2.78081e-10 5.41511e-10 1.50038e-09)
(2.92722e-10 4.75175e-10 1.24677e-09)
)
;

boundaryField
{
    inlet
    {
        type            calculated;
        value           uniform (0 0 0);
    }
    outlet
    {
        type            calculated;
        value           nonuniform 0();
    }
    wall
    {
        type            calculated;
        value           uniform (0 0 0);
    }
    procBoundary2to0
    {
        type            processor;
        value           uniform (0 0 0);
    }
    procBoundary2to3
    {
        type            processor;
        value           uniform (0 0 0);
    }
    procBoundary2to6
    {
        type            processor;
        value           uniform (0 0 0);
    }
}


// ************************************************************************* //
