/*--------------------------------*- C++ -*----------------------------------*\
| =========                 |                                                 |
| \\      /  F ield         | OpenFOAM: The Open Source CFD Toolbox           |
|  \\    /   O peration     | Version:  4.x                                   |
|   \\  /    A nd           | Web:      www.OpenFOAM.org                      |
|    \\/     M anipulation  |                                                 |
\*---------------------------------------------------------------------------*/
FoamFile
{
    version     2.0;
    format      ascii;
    class       volScalarField;
    location    "38.5";
    object      pSmooth;
}
// * * * * * * * * * * * * * * * * * * * * * * * * * * * * * * * * * * * * * //

dimensions      [1 -1 -2 0 0 0 0];

internalField   nonuniform List<scalar> 
108
(
110.116
92.7477
103.045
74.9525
95.717
56.7875
88.4303
38.2647
81.3375
110.751
93.0349
103.64
75.1644
96.1516
56.8518
88.7584
38.3928
81.6433
111.275
93.4063
104.056
75.5399
96.4591
57.3382
88.9826
39.0696
81.6226
111.442
93.6607
104.296
75.8405
96.7336
57.7484
89.0634
39.511
81.5284
110.313
92.994
103.33
75.3055
96.0122
57.1253
88.8261
38.8944
81.7128
110.802
93.1788
103.685
75.4139
96.3079
57.2221
89.0291
38.8331
81.8171
111.332
93.6322
104.226
75.6911
96.7429
57.4072
89.2686
39.0881
81.994
111.522
93.5801
104.267
75.7854
96.6412
57.4361
89.0697
38.9188
81.7699
110.007
92.7378
102.939
75.2579
95.7024
57.1266
88.357
38.6358
81.1702
110.472
92.9531
103.247
75.288
95.8982
57.1053
88.5005
38.6738
81.3585
110.936
93.2728
103.663
75.4607
96.1774
57.2926
88.7145
38.9149
81.5028
111.149
93.2491
103.802
75.5475
96.1853
57.1872
88.5947
38.8993
81.4732
)
;

boundaryField
{
    inlet
    {
        type            zeroGradient;
    }
    outlet
    {
        type            fixedValue;
        value           nonuniform 0();
    }
    wall
    {
        type            zeroGradient;
    }
    procBoundary4to0
    {
        type            processor;
        value           nonuniform List<scalar> 
36
(
109.915
92.6976
103.035
74.9581
95.9305
56.841
88.7385
38.5895
81.9128
110.488
92.9597
103.518
75.0651
96.296
56.9404
89.091
38.4935
82.0764
111.008
93.4107
104.108
75.5901
96.7843
57.572
89.1786
39.6659
81.8258
111.141
93.4398
104.157
75.4441
96.6394
57.3561
89.0181
39.0621
81.7112
)
;
    }
    procBoundary4to5
    {
        type            processor;
        value           nonuniform List<scalar> 
12
(
19.2837
19.5131
20.7973
21.701
20.1301
19.9772
20.6508
20.6432
19.7858
19.8302
20.3917
20.4641
)
;
    }
    procBoundary4to6
    {
        type            processor;
        value           nonuniform List<scalar> 
27
(
111.654
93.4495
104.355
75.9091
96.711
57.8571
88.9648
39.9747
81.6257
111.565
93.5147
104.286
75.6925
96.7898
57.6268
89.318
39.3647
82.0303
111.042
93.3101
103.822
75.6153
96.335
57.5435
88.8964
39.1375
81.7139
)
;
    }
}


// ************************************************************************* //
