/*--------------------------------*- C++ -*----------------------------------*\
| =========                 |                                                 |
| \\      /  F ield         | OpenFOAM: The Open Source CFD Toolbox           |
|  \\    /   O peration     | Version:  4.x                                   |
|   \\  /    A nd           | Web:      www.OpenFOAM.org                      |
|    \\/     M anipulation  |                                                 |
\*---------------------------------------------------------------------------*/
FoamFile
{
    version     2.0;
    format      ascii;
    class       volScalarField;
    location    "33.5";
    object      p;
}
// * * * * * * * * * * * * * * * * * * * * * * * * * * * * * * * * * * * * * //

dimensions      [1 -1 -2 0 0 0 0];

internalField   nonuniform List<scalar> 
108
(
5652.2
5708.53
5632.51
5702.68
5612.15
5698.28
5590.93
5695.81
5568.6
5652.68
5708.64
5632.96
5702.83
5613.09
5698.23
5593.08
5694.98
5575.03
5652.27
5708.5
5632.24
5702.66
5611.49
5698.28
5588.89
5696.66
5563.16
5652.56
5708.52
5632.92
5702.88
5611.66
5698.71
5588.28
5698.17
5559
3774.25
3830.92
3754.7
3824.6
3734.8
3819.08
3715.4
3814.89
3697.55
3774.79
3830.85
3755.28
3824.49
3735.64
3818.83
3716.31
3814.17
3698.83
3774.28
3830.72
3754.16
3824.55
3733.08
3819.37
3710.76
3816.87
3686.87
3774.7
3830.69
3754.92
3824.8
3733.76
3820.08
3710.37
3818.33
3681.22
1897.66
1952.79
1878.83
1946.39
1860.24
1941.06
1842.34
1935.8
1826.71
1897.73
1953.01
1878.68
1946.61
1860.17
1941.35
1841.3
1936.77
1823.08
1897.27
1952.94
1877.93
1946.34
1858.6
1940.59
1839.05
1936.03
1822.02
1897.23
1952.84
1877.87
1946.8
1857.54
1941.79
1835.18
1938.97
1808.24
)
;

boundaryField
{
    inlet
    {
        type            calculated;
        value           nonuniform 0();
    }
    outlet
    {
        type            calculated;
        value           nonuniform List<scalar> 
12
(
5633.74
5633.74
5633.74
5633.74
3755.83
3755.83
3755.83
3755.83
1877.91
1877.91
1877.91
1877.91
)
;
    }
    wall
    {
        type            calculated;
        value           nonuniform List<scalar> 
63
(
6591.16
6591.64
6591.22
6591.51
6647.48
6647.6
6647.45
6647.48
6571.46
6571.92
6571.2
6571.88
6641.63
6641.78
6641.62
6641.83
6551.1
6552.04
6550.44
6550.61
6637.23
6637.18
6637.22
6637.66
6529.87
6532.03
6527.83
6527.24
6634.75
6633.93
6635.6
6637.12
6507.85
6515.11
6503.42
6517.21
5652.56
3774.7
1897.23
5708.52
3830.69
1952.84
5632.92
3754.92
1877.87
5702.88
3824.8
1946.8
5611.66
3733.76
1857.54
5698.71
3820.08
1941.79
5588.28
3710.37
1835.18
5698.17
3818.33
1938.97
5559
3681.22
1808.24
)
;
    }
    procBoundary3to1
    {
        type            processor;
        value           nonuniform List<scalar> 
27
(
5652.62
5708.68
5633.06
5702.71
5612.41
5698.01
5590.26
5695.73
5564.27
3775.09
3831.15
3755.91
3824.63
3736.71
3818.49
3718.18
3812.55
3702.38
1897.21
1952.71
1878.18
1946.39
1858.73
1941
1839.43
1937.09
1821.81
)
;
    }
    procBoundary3to2
    {
        type            processor;
        value           nonuniform List<scalar> 
12
(
5715.14
5715.24
5715.13
5714.95
3837.64
3837.68
3837.57
3837.31
1959.66
1959.85
1959.88
1959.59
)
;
    }
    procBoundary3to7
    {
        type            processor;
        value           nonuniform List<scalar> 
36
(
22.4998
74.9924
4.32231
68.4102
-13.9293
62.5271
-32.2969
56.3452
-48.7077
21.3403
74.875
2.91556
68.0426
-15.2026
61.4949
-33.0516
55.2748
-49.0176
19.8633
74.9094
0.616939
68.3894
-18.9178
62.6504
-39.4251
58.8253
-60.5308
19.9918
74.9132
0.724482
68.6153
-18.9817
63.1667
-39.8003
59.2687
-60.9852
)
;
    }
}


// ************************************************************************* //
