/*--------------------------------*- C++ -*----------------------------------*\
| =========                 |                                                 |
| \\      /  F ield         | OpenFOAM: The Open Source CFD Toolbox           |
|  \\    /   O peration     | Version:  4.x                                   |
|   \\  /    A nd           | Web:      www.OpenFOAM.org                      |
|    \\/     M anipulation  |                                                 |
\*---------------------------------------------------------------------------*/
FoamFile
{
    version     2.0;
    format      ascii;
    class       volScalarField;
    location    "53";
    object      QWallFluid;
}
// * * * * * * * * * * * * * * * * * * * * * * * * * * * * * * * * * * * * * //

dimensions      [1 -1 -3 0 0 0 0];

internalField   nonuniform List<scalar> 
132
(
0
0
0
0
0
0
0
0
0
0
0
0
0
0
0
0
0
0
0
0
0
0
0
0
0
0
0
4.98234e+08
9.16336e+08
4.8747e+08
9.39623e+08
4.5954e+08
9.61614e+08
3.90691e+08
1.0059e+09
3.45343e+08
0
0
0
0
0
0
0
0
0
0
0
0
0
0
0
0
0
0
0
0
0
0
0
0
0
2.87095e+08
7.92403e+08
1.65174e+08
7.6032e+08
1.45336e+07
6.99683e+08
5154.91
5.73645e+08
1.19074e+08
0
0
0
0
0
0
0
0
0
0
0
0
0
0
0
0
0
0
0
0
0
0
0
4.95135e+08
8.87497e+08
4.83571e+08
9.07022e+08
4.62178e+08
9.5643e+08
4.1282e+08
1.06824e+09
3.47394e+08
3.86025e+08
1.03285e+09
3.84561e+08
3.73386e+08
8.29169e+08
3.38116e+08
8.22257e+08
2.97624e+08
8.11947e+08
2.31933e+08
7.76572e+08
1.62459e+08
4.74306e+08
8.7626e+08
4.55308e+08
8.8325e+08
4.1365e+08
8.94767e+08
3.47835e+08
9.21599e+08
2.38547e+08
1.15398e+09
1.83067e+09
1.12566e+09
1.82742e+09
1.07104e+09
1.79611e+09
1.01771e+09
1.69155e+09
1.07752e+09
)
;

boundaryField
{
    inlet
    {
        type            calculated;
        value           nonuniform 0();
    }
    outlet
    {
        type            calculated;
        value           uniform 0;
    }
    wall
    {
        type            calculated;
        value           uniform 0;
    }
    procBoundary7to0
    {
        type            processor;
        value           uniform 0;
    }
    procBoundary7to1
    {
        type            processor;
        value           uniform 0;
    }
    procBoundary7to3
    {
        type            processor;
        value           nonuniform List<scalar> 
36
(
0
0
0
0
0
0
0
0
0
0
0
0
0
0
0
0
0
0
0
0
0
0
0
0
0
0
0
4.37433e+08
8.86469e+08
4.07262e+08
8.92728e+08
3.57094e+08
9.14013e+08
3.02014e+08
1.01061e+09
2.9845e+08
)
;
    }
    procBoundary7to5
    {
        type            processor;
        value           nonuniform List<scalar> 
44
(
0
0
0
0
0
0
0
0
0
0
0
0
0
0
0
0
0
0
0
0
0
0
0
0
0
0
0
0
0
0
0
0
4.00147e+08
9.34932e+08
4.10814e+08
1.06331e+09
3.85593e+08
4.37337e+08
8.73369e+08
4.25043e+08
8.9496e+08
4.00147e+08
9.34932e+08
9.34932e+08
)
;
    }
    procBoundary7to6
    {
        type            processor;
        value           nonuniform List<scalar> 
12
(
0
0
8.94742e+08
0
0
8.12097e+08
0
0
8.74266e+08
8.29507e+08
8.63331e+08
1.8241e+09
)
;
    }
}


// ************************************************************************* //
