/*--------------------------------*- C++ -*----------------------------------*\
| =========                 |                                                 |
| \\      /  F ield         | OpenFOAM: The Open Source CFD Toolbox           |
|  \\    /   O peration     | Version:  4.x                                   |
|   \\  /    A nd           | Web:      www.OpenFOAM.org                      |
|    \\/     M anipulation  |                                                 |
\*---------------------------------------------------------------------------*/
FoamFile
{
    version     2.0;
    format      ascii;
    class       volVectorField;
    location    "53";
    object      U;
}
// * * * * * * * * * * * * * * * * * * * * * * * * * * * * * * * * * * * * * //

dimensions      [0 1 -1 0 0 0 0];

internalField   nonuniform List<vector> 
132
(
(0.00177831 0.000207516 -0.000305743)
(0.0290985 0.0004013 -0.000131802)
(0.0013313 0.000298153 -0.00038146)
(0.0290988 0.000556361 -5.24054e-05)
(0.000407696 0.00012878 -0.000168875)
(0.0287048 0.000766027 0.00075292)
(0.000150058 6.58867e-05 -8.39716e-05)
(0.0246265 -0.0012953 0.00317574)
(0.00336686 0.00140305 -0.00185251)
(6.93204e-05 9.11682e-06 -8.51947e-06)
(0.0286405 0.000188513 -0.000114016)
(1.18156e-08 2.42484e-09 -9.35083e-10)
(0.0279748 2.10216e-05 0.000263318)
(0.000672465 0.000213746 -7.2748e-05)
(0.0269481 -0.000703977 0.000974735)
(0.00411855 0.00222267 -0.000267443)
(0.0241459 -0.00301819 0.00150387)
(0.0095284 0.0103447 0.000864325)
(0.00918584 0.000898654 -0.000729594)
(0.03252 0.000495497 -0.000280886)
(0.00912841 0.0012595 -0.00119144)
(0.0341028 -6.66769e-05 -0.000574635)
(0.00893741 0.00218605 -0.0020098)
(0.0363227 -0.00191479 -0.000483809)
(0.00814282 0.00395529 -0.00333766)
(0.0388685 -0.00558185 0.00146439)
(0.00570598 0.00915849 -0.00513122)
(0.0164049 -0.000518542 -0.00125902)
(0.0354348 -0.000359492 -0.00116094)
(0.0161122 -0.000727412 -0.00176394)
(0.0366708 -0.000574188 -0.000953511)
(0.0148355 -0.000893574 -0.00275419)
(0.0381421 -0.00058142 0.000188881)
(0.0115034 -0.000916837 -0.00457949)
(0.0401689 3.04863e-05 0.00233199)
(0.00592156 -0.000458194 -0.00865169)
(1.12474e-08 -1.34324e-09 1.16562e-09)
(0.0277312 -0.000367651 0.000513565)
(1.02759e-08 -1.97538e-09 1.01468e-09)
(0.0273364 -9.95135e-05 0.000848616)
(9.40528e-09 -2.09534e-09 1.10355e-09)
(0.0244694 0.00201264 0.00084258)
(0.00552696 -0.00126283 0.00142254)
(1.08085e-08 5.82335e-10 -1.20879e-10)
(0.0268634 -0.000192329 -2.57723e-05)
(1.08759e-08 8.3107e-10 -2.56497e-10)
(0.0272993 -8.36624e-05 -1.02287e-05)
(1.07127e-08 6.61414e-10 -4.35474e-10)
(0.0277347 0.000544471 8.7527e-05)
(1.05248e-08 1.54931e-10 -4.50155e-10)
(0.0273487 0.00110964 0.000397056)
(0.00350322 -0.000614951 8.49242e-05)
(1.15064e-08 1.57615e-09 -1.14081e-09)
(0.0278654 -0.000753562 -6.41744e-05)
(1.09845e-08 2.03361e-09 -1.3028e-09)
(0.0268564 -0.000642078 0.000342223)
(1.06123e-08 2.21784e-09 -1.50596e-09)
(0.0246059 0.000299177 0.000881503)
(9.49348e-09 1.17403e-09 -1.01961e-09)
(0.019132 -5.45445e-06 0.00138883)
(0.00350916 -0.000578731 0.000334893)
(0.00830032 -0.000112294 -0.000688644)
(0.0298693 -0.000902898 -0.000330406)
(0.00416589 -9.19781e-05 -0.000569059)
(0.0284496 -0.000940355 1.06685e-05)
(0.000199805 3.11553e-07 -3.67601e-05)
(0.0257462 4.58549e-05 0.0007873)
(9.49546e-09 1.23466e-10 -1.9973e-09)
(0.0200894 0.000415989 0.00156024)
(0.0027404 6.64078e-05 0.000534722)
(0.00218931 -0.000110575 0.000636417)
(0.030858 0.000271787 -0.00010373)
(0.00414549 -0.000208317 0.0022873)
(0.0293256 -0.000113947 -0.00243789)
(0.00875903 -0.000552696 0.0115719)
(0.000408975 -1.15203e-06 5.00359e-05)
(0.0284991 0.000172916 -5.34121e-07)
(1.12304e-08 5.27783e-10 1.86349e-09)
(0.0283048 -0.00015277 0.000136031)
(0.000134359 1.05729e-05 3.08811e-05)
(0.0278054 -0.000711639 0.000106811)
(0.00269453 0.000761105 0.000662811)
(0.0256605 -0.00273945 -0.000911639)
(0.00915445 0.00764467 0.00295137)
(0.00728378 0.000377127 0.000169024)
(0.0312985 0.000232494 8.47519e-05)
(0.00724227 0.000489251 0.000306169)
(0.0334744 -0.000199028 -0.000128891)
(0.00809774 0.00113494 0.00106116)
(0.0373035 -0.00168537 -0.000453669)
(0.00920693 0.0028282 0.00266218)
(0.0438441 -0.00467314 -0.00221373)
(0.00724321 0.00908351 0.008455)
(0.0164314 -0.000141434 0.000205563)
(0.0343505 -0.000185399 0.000783393)
(0.016136 -0.000564316 0.000433307)
(0.0355117 -0.000618613 0.000734465)
(0.0152368 -0.00115915 0.000945308)
(0.0379769 -0.000823129 6.49232e-05)
(0.0131411 -0.00184302 0.00177212)
(0.0437814 -0.000417114 -0.000842691)
(0.00753462 -0.00171598 0.00739276)
(0.0116279 -0.00355872 0.00166053)
(0.0419573 0.0013097 -0.00177917)
(0.00755332 -0.00731965 0.00616754)
(0.0116258 -0.000357624 0.000137365)
(0.031615 -0.000265381 -0.000112165)
(0.0103766 -0.000580718 4.29014e-05)
(0.031576 -0.000382891 -0.000415813)
(0.0087928 -0.00089954 0.000265489)
(0.0308428 -0.000423953 -0.00146415)
(0.00635626 -0.00133296 0.000271177)
(0.0293134 0.000255757 -0.00269316)
(0.00369197 -0.00172053 0.000764208)
(0.0156259 0.000181161 -0.000201344)
(0.0337991 9.05636e-05 -0.00029416)
(0.0149413 0.000157921 -0.000751492)
(0.0343325 -0.000130178 -0.000852914)
(0.0132704 5.99329e-05 -0.00154117)
(0.03502 -0.000221137 -0.00113302)
(0.0103946 0.000188867 -0.00292586)
(0.0363859 -0.000649944 -0.000234426)
(0.00585093 5.11956e-05 -0.00329651)
(0.0198897 -0.000388064 -0.000466312)
(0.0357234 -0.000352577 -0.000471353)
(0.0193935 -0.000588753 -0.000841737)
(0.0356664 -0.000385182 -0.000668092)
(0.0182812 -0.00103726 -0.00163882)
(0.0351262 -4.94823e-06 -0.000463445)
(0.0167917 -0.00189249 -0.00372204)
(0.0324696 0.00126313 0.000906333)
(0.0161275 -0.00490054 -0.00711412)
)
;

boundaryField
{
    inlet
    {
        type            fixedValue;
        value           nonuniform 0();
    }
    outlet
    {
        type            zeroGradient;
    }
    wall
    {
        type            fixedValue;
        value           uniform (0 0 0);
    }
    procBoundary7to0
    {
        type            processor;
        value           uniform (0.0285022 -3.89977e-05 -0.000339482);
    }
    procBoundary7to1
    {
        type            processor;
        value           uniform (1.00534e-08 4.15686e-10 8.91474e-10);
    }
    procBoundary7to3
    {
        type            processor;
        value           nonuniform List<vector> 
36
(
(0.00386636 -0.000356967 -0.000727143)
(0.0303689 -0.000238456 -0.000168658)
(0.00318572 -0.000471463 -0.000828363)
(0.0308421 -0.000545928 0.000204147)
(0.00341678 -0.000921943 -0.00143924)
(0.0305914 -0.000684867 0.00118036)
(0.00419404 -0.00170978 -0.00269417)
(0.0280703 0.00109262 0.00375542)
(0.00786677 -0.00420968 -0.00913897)
(1.12617e-08 -8.08208e-10 -7.63053e-10)
(0.0272482 -0.000239182 0.000469024)
(1.11014e-08 -6.83476e-10 -9.82838e-10)
(0.0269983 4.7084e-05 0.000666195)
(1.03826e-08 -1.18977e-09 -2.03741e-09)
(0.0265291 0.000876873 0.00184416)
(9.87656e-09 -7.46173e-10 -2.58956e-09)
(0.0228738 0.00120195 0.00264558)
(0.00379046 -0.000160831 -0.000521363)
(0.000901154 8.59866e-05 -4.778e-05)
(0.02978 -0.00023382 -6.24838e-05)
(1.18647e-08 1.7012e-09 -9.56311e-10)
(0.0302135 -0.000315513 0.000340522)
(0.00118973 0.000353533 -0.000227721)
(0.0310952 -0.000258434 0.00118328)
(0.00485463 0.00258672 -0.00165997)
(0.0299189 -0.00215588 0.00323029)
(0.00998877 0.0111628 -0.00705214)
(0.0138983 -9.91788e-05 -0.000655068)
(0.0333889 -0.000308411 -0.000258881)
(0.0126753 -0.000379402 -0.00071677)
(0.033947 -0.0010284 0.000157904)
(0.0107782 -0.000237278 -0.00114503)
(0.0352862 -0.00128932 0.000789442)
(0.00862919 0.000386946 -0.00194451)
(0.04014 -0.00114363 0.00269294)
(0.0060369 0.0035869 -0.00523329)
)
;
    }
    procBoundary7to5
    {
        type            processor;
        value           nonuniform List<vector> 
44
(
(0.0258812 0.000549537 5.6953e-05)
(1.1218e-08 7.54377e-10 1.26506e-09)
(0.0255014 0.000193278 0.000232258)
(1.08376e-08 2.71325e-10 -9.46229e-10)
(0.0245986 -0.000364522 0.000724763)
(1.07361e-08 5.7492e-10 -1.83494e-09)
(0.021189 -0.0015408 0.00122104)
(0.00658984 0.000286347 -0.000769985)
(1.12303e-08 -8.94692e-10 8.86749e-10)
(0.0276048 -0.00029893 -4.57033e-05)
(1.17116e-08 -1.57507e-09 3.84182e-09)
(0.0288347 0.000260456 0.000306388)
(0.000521981 -0.000169914 0.000158695)
(0.0294438 0.000169022 0.000574595)
(0.00255618 -0.00115669 0.00104856)
(0.0279862 0.00197079 -0.000757238)
(0.00632862 -0.00326298 0.00274397)
(1.12303e-08 -8.94692e-10 8.86749e-10)
(0.0276048 -0.00029893 -4.57033e-05)
(0.0276048 -0.00029893 -4.57033e-05)
(0.001296 -4.7379e-05 0.000208471)
(0.030437 0.000136739 -0.000116254)
(1.12291e-08 -5.92966e-10 1.91891e-09)
(0.0272805 0.000636899 -0.000396874)
(0.00208826 -0.000294715 0.000760311)
(0.024742 0.000610045 -0.00180915)
(0.00854468 -0.00292949 0.00898034)
(0.00204231 -7.60785e-05 0.000168405)
(0.0297338 0.000222656 9.86969e-06)
(0.001296 -4.7379e-05 0.000208471)
(0.030437 0.000136739 -0.000116254)
(0.030437 0.000136739 -0.000116254)
(0.0128527 -0.00167713 0.000467552)
(0.0372922 -0.000429075 -0.000792733)
(0.0127151 -0.00139694 0.00363618)
(0.0434656 0.00154142 -0.00391263)
(0.00784346 -0.00191546 0.00924953)
(0.0141794 -0.000641776 0.000198848)
(0.033757 -0.000510715 0.000166299)
(0.0138097 -0.000982571 0.000171204)
(0.0350919 -0.000632598 -0.000424653)
(0.0128527 -0.00167713 0.000467552)
(0.0372922 -0.000429075 -0.000792733)
(0.0372922 -0.000429075 -0.000792733)
)
;
    }
    procBoundary7to6
    {
        type            processor;
        value           nonuniform List<vector> 
12
(
(0.0282654 0.000601055 -0.000206989)
(0.0310526 0.000958607 -0.000330868)
(0.0339454 -0.000115322 -0.000940759)
(0.0263822 -0.000411261 -0.000139122)
(0.0280825 -0.000485283 -0.000384689)
(0.030498 -0.000202724 -0.000452622)
(0.0282548 0.000125129 -5.19518e-06)
(0.0301159 0.000801586 0.000496086)
(0.033332 0.00017537 0.000638738)
(0.0312684 -0.000284774 0.000514026)
(0.033052 0.000243283 9.34217e-05)
(0.0351162 -0.000112707 -0.000205167)
)
;
    }
}


// ************************************************************************* //
