/*--------------------------------*- C++ -*----------------------------------*\
| =========                 |                                                 |
| \\      /  F ield         | OpenFOAM: The Open Source CFD Toolbox           |
|  \\    /   O peration     | Version:  4.x                                   |
|   \\  /    A nd           | Web:      www.OpenFOAM.org                      |
|    \\/     M anipulation  |                                                 |
\*---------------------------------------------------------------------------*/
FoamFile
{
    version     2.0;
    format      ascii;
    class       volScalarField;
    location    "21";
    object      Cs;
}
// * * * * * * * * * * * * * * * * * * * * * * * * * * * * * * * * * * * * * //

dimensions      [1 -3 0 0 0 0 0];

internalField   nonuniform List<scalar> 
114
(
334.981
334.973
334.96
334.945
334.923
334.414
334.97
334.954
334.947
334.933
334.941
334.931
335.02
334.965
334.956
334.947
334.946
334.952
334.969
334.984
335.123
334.994
334.991
334.986
334.98
334.973
334.96
334.947
334.924
334.839
334.981
334.975
334.971
334.97
334.977
334.982
335.001
334.99
335.026
334.977
334.969
334.964
334.964
334.974
334.99
335.016
335.03
335.378
334.974
334.964
334.997
334.995
334.992
334.988
334.983
334.978
334.971
334.965
334.845
334.989
334.983
334.978
334.974
334.973
334.975
334.981
334.983
335.04
334.986
334.98
334.974
334.969
334.969
334.972
334.983
334.989
335.069
334.981
334.973
334.966
334.964
334.997
334.996
334.994
334.991
334.988
334.984
334.978
334.974
337.532
334.996
334.994
334.991
334.987
334.982
334.977
334.971
334.966
334.928
334.995
334.992
334.988
334.983
334.977
334.971
334.965
334.959
334.933
334.993
334.988
334.983
334.977
334.971
334.965
)
;

boundaryField
{
    inlet
    {
        type            calculated;
        value           nonuniform 0();
    }
    outlet
    {
        type            calculated;
        value           uniform 335;
    }
    wall
    {
        type            calculated;
        value           nonuniform List<scalar> 
66
(
334.997
334.996
334.995
334.993
334.996
334.994
334.992
334.988
334.994
334.991
334.988
334.983
334.991
334.987
334.983
334.977
334.988
334.982
334.977
334.971
334.984
334.977
334.971
334.965
334.978
334.971
334.965
334.974
334.966
334.959
337.532
334.928
334.933
334.994
334.997
334.997
334.991
334.995
334.996
334.986
334.992
334.994
334.981
334.98
334.988
334.991
334.973
334.973
334.983
334.988
334.96
334.96
334.978
334.984
334.945
334.947
334.971
334.978
334.923
334.924
334.965
334.974
334.414
334.839
334.845
337.532
)
;
    }
    procBoundary5to1
    {
        type            processor;
        value           nonuniform List<scalar> 
32
(
334.962
334.946
334.928
334.905
334.886
334.318
334.858
334.827
334.813
334.82
334.848
334.859
334.94
334.94
334.93
334.919
334.922
334.931
334.965
334.978
335.085
334.994
334.99
334.986
334.986
334.986
334.983
334.976
334.976
334.976
334.976
334.976
)
;
    }
    procBoundary5to4
    {
        type            processor;
        value           nonuniform List<scalar> 
12
(
334.996
334.988
334.986
334.984
334.998
334.993
334.992
334.989
334.998
334.998
334.997
334.996
)
;
    }
    procBoundary5to7
    {
        type            processor;
        value           nonuniform List<scalar> 
44
(
334.955
334.942
334.93
334.931
334.938
334.96
334.985
335.249
334.97
334.955
334.959
334.959
334.971
334.987
335.012
335.032
335.529
334.966
334.959
334.959
334.959
334.959
334.969
334.984
335.006
335.024
335.134
334.984
334.977
334.971
334.969
334.967
334.969
334.984
334.96
334.955
334.92
334.994
334.989
334.984
334.977
334.97
334.96
334.961
)
;
    }
}


// ************************************************************************* //
