/*--------------------------------*- C++ -*----------------------------------*\
| =========                 |                                                 |
| \\      /  F ield         | OpenFOAM: The Open Source CFD Toolbox           |
|  \\    /   O peration     | Version:  4.x                                   |
|   \\  /    A nd           | Web:      www.OpenFOAM.org                      |
|    \\/     M anipulation  |                                                 |
\*---------------------------------------------------------------------------*/
FoamFile
{
    version     2.0;
    format      ascii;
    class       volScalarField;
    location    "21";
    object      p;
}
// * * * * * * * * * * * * * * * * * * * * * * * * * * * * * * * * * * * * * //

dimensions      [1 -1 -2 0 0 0 0];

internalField   nonuniform List<scalar> 
114
(
65.7431
-16.3294
60.1305
-37.1307
56.6855
-59.7026
3.35397
65.2898
-15.4857
58.971
-34.2968
53.843
-50.9459
72.6533
5.09667
65.7564
-12.8532
59.329
-30.2689
53.3119
-46.2122
-1855.21
-1805.27
-1873.26
-1812.15
-1891.86
-1818.62
-1910.51
-1824.83
-1926.76
-1854.86
-1805.23
-1872.58
-1812.57
-1890.13
-1819.39
-1906.94
-1826.18
-1922.13
-1853.8
-1805.53
-1870.98
-1812.37
-1888.37
-1819.02
-1905.49
-1826.63
-1921.89
-1853.31
-1805.43
-3733.22
-3683.49
-3751.95
-3690.32
-3771.94
-3696.23
-3794.67
-3699.05
-3824.03
-3732.74
-3683.44
-3751.06
-3690.72
-3769.8
-3697.61
-3788.99
-3703.42
-3806.69
-3732.61
-3683.3
-3750.76
-3690.32
-3769.26
-3696.85
-3787.94
-3702.24
-3804.86
-3731.5
-3683.25
-3749.05
-3690.75
-5610.83
-5561.4
-5629.27
-5568.18
-5649.16
-5574.12
-5672.37
-5576.42
-5709.16
-5610.46
-5561.36
-5628.55
-5568.43
-5647.11
-5575.17
-5666.37
-5580.98
-5685.4
-5610.2
-5561.17
-5628.15
-5568.12
-5646.58
-5574.54
-5665.49
-5580.11
-5683.68
-5609.54
-5561.21
-5627.03
-5568.51
-5644.51
-5575.74
)
;

boundaryField
{
    inlet
    {
        type            calculated;
        value           nonuniform 0();
    }
    outlet
    {
        type            calculated;
        value           nonuniform List<scalar> 
12
(
0
0
0
-1877.91
-1877.91
-1877.91
-3755.83
-3755.83
-3755.83
-5633.74
-5633.74
-5633.74
)
;
    }
    wall
    {
        type            calculated;
        value           nonuniform List<scalar> 
66
(
-6549.78
-6549.4
-6549.14
-6548.48
-6500.35
-6500.3
-6500.11
-6500.14
-6568.2
-6567.48
-6567.07
-6565.94
-6507.11
-6507.35
-6507.03
-6507.41
-6588.08
-6586.02
-6585.48
-6583.38
-6513.03
-6514.06
-6513.41
-6514.6
-6611.27
-6605.25
-6604.35
-6515.31
-6519.84
-6518.95
-6655.21
-6624.16
-6622.45
-1855.21
-3733.22
-5610.83
-1805.27
-3683.49
-5561.4
-1873.26
-3751.95
-5629.27
65.7431
-1812.15
-3690.32
-5568.18
-16.3294
-1891.86
-3771.94
-5649.16
60.1305
-1818.62
-3696.23
-5574.12
-37.1307
-1910.51
-3794.67
-5672.37
56.6855
-1824.83
-3699.05
-5576.42
-59.7026
-1926.76
-3824.03
-5709.16
)
;
    }
    procBoundary5to1
    {
        type            processor;
        value           nonuniform List<scalar> 
32
(
1943.5
1862.15
1937.54
1841.86
1933.12
1820.29
1881.41
1943.03
1862.64
1936.44
1843.93
1931.16
1827.66
1950.02
1883.29
1943.38
1865.69
1937.28
1848.54
1930.16
1833.12
22.0025
72.369
3.31879
3.31879
3.31879
22.1208
72.3021
72.3021
72.3021
23.0803
23.0803
)
;
    }
    procBoundary5to4
    {
        type            processor;
        value           nonuniform List<scalar> 
12
(
-1798.07
-1797.71
-1797.82
-1797.72
-3676.28
-3675.95
-3675.97
-3675.71
-5554.32
-5554.04
-5553.98
-5553.81
)
;
    }
    procBoundary5to7
    {
        type            processor;
        value           nonuniform List<scalar> 
44
(
72.3821
6.20922
65.1342
-11.2221
58.5421
-28.6906
52.0715
-45.031
23.9008
72.3821
-1870.62
-1812.67
-1888.33
-1819.84
-1906.19
-1827
-1924.27
-1853.23
-1870.62
-1805.54
-1870.62
-1812.67
-3766.31
-3697.82
-3782.88
-3705.74
-3797.71
-3731.9
-3683.2
-3749.84
-3766.31
-3690.34
-3766.31
-3697.82
-5661.63
-5583.03
-5677.44
-5609.57
-5561.09
-5627.19
-5568.17
-5644.93
-5661.63
-5575.21
)
;
    }
}


// ************************************************************************* //
