/*--------------------------------*- C++ -*----------------------------------*\
| =========                 |                                                 |
| \\      /  F ield         | OpenFOAM: The Open Source CFD Toolbox           |
|  \\    /   O peration     | Version:  4.x                                   |
|   \\  /    A nd           | Web:      www.OpenFOAM.org                      |
|    \\/     M anipulation  |                                                 |
\*---------------------------------------------------------------------------*/
FoamFile
{
    version     2.0;
    format      ascii;
    class       volScalarField;
    location    "21";
    object      QPartFluid;
}
// * * * * * * * * * * * * * * * * * * * * * * * * * * * * * * * * * * * * * //

dimensions      [1 -1 -3 0 0 0 0];

internalField   nonuniform List<scalar> 
114
(
8.21927e+09
7.95568e+09
7.75817e+09
6.50383e+09
9.0226e+09
6.42709e+09
7.57353e+09
7.18832e+09
6.30964e+09
8.50115e+09
9.04212e+09
1.04513e+10
6.8851e+09
9.99868e+09
6.18922e+09
8.7642e+09
5.90701e+09
5.32448e+09
7.43874e+09
6.20079e+09
6.57461e+09
6.60361e+09
5.61668e+09
7.48618e+09
6.23958e+09
6.5462e+09
8.01908e+09
7.12677e+09
6.30609e+09
4.88358e+09
8.04454e+09
8.17788e+09
9.16985e+09
8.83372e+09
8.84796e+09
9.92539e+09
5.11588e+09
1.01104e+10
5.8003e+09
8.47086e+09
5.43755e+09
7.29009e+09
8.99977e+09
6.14018e+09
8.21864e+09
7.12525e+09
7.8569e+09
4.06654e+09
1.02114e+10
5.01196e+09
7.40327e+09
9.57114e+09
7.58196e+09
8.69883e+09
7.89546e+09
8.45462e+09
7.29302e+09
9.6624e+09
6.45289e+09
6.14059e+09
1.07782e+10
7.01589e+09
9.07091e+09
8.41219e+09
9.16307e+09
1.1115e+10
8.7456e+09
5.51747e+09
7.51758e+09
7.71982e+09
7.8476e+09
7.3324e+09
1.14283e+10
9.23761e+09
9.03266e+09
1.06829e+10
7.76289e+09
5.20442e+09
1.14235e+10
9.27782e+09
9.61881e+09
2.4883e+09
6.82862e+09
4.53251e+09
7.7018e+09
6.10729e+09
5.88024e+09
7.39088e+09
8.39728e+09
5.8709e+09
6.9655e+09
8.11932e+09
5.05496e+09
6.87296e+09
8.27363e+09
7.62673e+09
5.66113e+09
8.87592e+09
6.35404e+09
6.06024e+09
7.22228e+09
8.65408e+09
7.76165e+09
6.19724e+09
9.25179e+09
6.85518e+09
7.66757e+09
6.36003e+09
7.01145e+09
6.29129e+09
7.11571e+09
6.46709e+09
1.00752e+10
8.09635e+09
)
;

boundaryField
{
    inlet
    {
        type            calculated;
        value           nonuniform 0();
    }
    outlet
    {
        type            calculated;
        value           uniform 0;
    }
    wall
    {
        type            calculated;
        value           uniform 0;
    }
    procBoundary5to1
    {
        type            processor;
        value           nonuniform List<scalar> 
32
(
9.51834e+09
6.13589e+09
9.76709e+09
7.7115e+09
7.65148e+09
3.4168e+09
6.30268e+09
7.88978e+09
8.04728e+09
8.95617e+09
7.65701e+09
9.1891e+09
4.01915e+09
7.67506e+09
5.33877e+09
1.08161e+10
8.54029e+09
1.02947e+10
7.14126e+09
9.22279e+09
3.19451e+09
6.67967e+09
5.6736e+09
8.14957e+09
8.14957e+09
8.14957e+09
8.03065e+09
1.22992e+10
1.22992e+10
1.22992e+10
5.95655e+09
5.95655e+09
)
;
    }
    procBoundary5to4
    {
        type            processor;
        value           nonuniform List<scalar> 
12
(
9.53072e+09
1.10407e+10
6.66742e+09
7.0145e+09
9.55198e+09
1.03817e+10
8.54358e+09
8.00118e+09
8.13667e+09
8.51248e+09
6.9816e+09
6.94702e+09
)
;
    }
    procBoundary5to7
    {
        type            processor;
        value           nonuniform List<scalar> 
44
(
9.01802e+09
6.35185e+09
7.82011e+09
1.09313e+10
1.22421e+10
7.94117e+09
6.5464e+09
6.02316e+09
1.00262e+10
9.01802e+09
6.48562e+09
8.5474e+09
6.89104e+09
8.11925e+09
8.82022e+09
1.00151e+10
5.92899e+09
3.83909e+09
6.48562e+09
9.95677e+09
6.48562e+09
8.5474e+09
4.75542e+09
6.91847e+09
7.76892e+09
7.07666e+09
4.2364e+09
8.62781e+09
9.049e+09
7.07683e+09
4.75542e+09
6.45335e+09
4.75542e+09
6.91847e+09
5.6735e+09
7.26318e+09
4.84319e+09
7.18181e+09
6.86645e+09
7.38108e+09
8.43166e+09
5.0821e+09
5.6735e+09
4.74042e+09
)
;
    }
}


// ************************************************************************* //
