/*--------------------------------*- C++ -*----------------------------------*\
| =========                 |                                                 |
| \\      /  F ield         | OpenFOAM: The Open Source CFD Toolbox           |
|  \\    /   O peration     | Version:  4.x                                   |
|   \\  /    A nd           | Web:      www.OpenFOAM.org                      |
|    \\/     M anipulation  |                                                 |
\*---------------------------------------------------------------------------*/
FoamFile
{
    version     2.0;
    format      ascii;
    class       volScalarField;
    location    "21";
    object      QWallFluidCoeff;
}
// * * * * * * * * * * * * * * * * * * * * * * * * * * * * * * * * * * * * * //

dimensions      [1 -1 -3 -1 0 0 0];

internalField   nonuniform List<scalar> 
114
(
-3.08309e+06
-1.53616e+06
-3.21449e+06
-1.30626e+06
-3.48791e+06
-964479
0
0
0
0
0
0
0
0
0
0
0
0
0
0
0
-1.42442e+06
-2.80033e+06
-1.27735e+06
-2.79898e+06
-1.07059e+06
-2.72569e+06
-858319
-2.38575e+06
-1.17e+06
0
0
0
0
0
0
0
0
0
0
0
0
0
0
0
0
0
0
0
0
-1.68505e+06
-2.9511e+06
-1.69491e+06
-3.11454e+06
-1.7081e+06
-3.42551e+06
-1.75626e+06
-4.11069e+06
-2.35758e+06
0
0
0
0
0
0
0
0
0
0
0
0
0
0
0
0
0
0
0
0
0
0
-4.13753e+06
-6.28206e+06
-4.25296e+06
-6.62865e+06
-4.30453e+06
-7.42536e+06
-4.29435e+06
-9.66e+06
-5.01113e+06
-1.72252e+06
-2.90046e+06
-1.75016e+06
-2.97075e+06
-1.74894e+06
-3.04168e+06
-1.80486e+06
-3.10503e+06
-2.67118e+06
-1.47393e+06
-2.78e+06
-1.41211e+06
-2.81189e+06
-1.37255e+06
-2.83611e+06
-1.30006e+06
-2.78295e+06
-1.10584e+06
-1.25914e+06
-2.63559e+06
-1.2153e+06
-2.60193e+06
-1.18212e+06
-2.53004e+06
)
;

boundaryField
{
    inlet
    {
        type            calculated;
        value           nonuniform 0();
    }
    outlet
    {
        type            calculated;
        value           uniform 0;
    }
    wall
    {
        type            calculated;
        value           uniform 0;
    }
    procBoundary5to1
    {
        type            processor;
        value           uniform 0;
    }
    procBoundary5to4
    {
        type            processor;
        value           uniform 0;
    }
    procBoundary5to7
    {
        type            processor;
        value           uniform 0;
    }
}


// ************************************************************************* //
