/*--------------------------------*- C++ -*----------------------------------*\
| =========                 |                                                 |
| \\      /  F ield         | OpenFOAM: The Open Source CFD Toolbox           |
|  \\    /   O peration     | Version:  4.x                                   |
|   \\  /    A nd           | Web:      www.OpenFOAM.org                      |
|    \\/     M anipulation  |                                                 |
\*---------------------------------------------------------------------------*/
FoamFile
{
    version     2.0;
    format      ascii;
    class       volScalarField;
    location    "17.5";
    object      nu;
}
// * * * * * * * * * * * * * * * * * * * * * * * * * * * * * * * * * * * * * //

dimensions      [0 2 -1 0 0 0 0];

internalField   nonuniform List<scalar> 
108
(
1.00011e-06
1.00018e-06
1.00026e-06
1.00037e-06
1.00048e-06
1.00057e-06
1.00059e-06
1.00054e-06
9.93357e-07
1.00009e-06
1.00017e-06
1.00027e-06
1.00038e-06
1.00051e-06
1.00062e-06
1.00069e-06
1.00066e-06
9.86546e-07
1.0002e-06
1.00021e-06
1.00026e-06
1.00034e-06
1.00045e-06
1.00059e-06
1.0007e-06
1.00067e-06
1.0003e-06
1.00004e-06
1.00008e-06
1.00012e-06
1.00017e-06
1.00025e-06
1.00033e-06
1.00045e-06
1.00054e-06
9.65764e-07
1.00032e-06
1.00043e-06
1.00052e-06
1.00056e-06
1.00053e-06
1.00046e-06
1.0003e-06
1.00016e-06
9.998e-07
1.00028e-06
1.0004e-06
1.0005e-06
1.00057e-06
1.00058e-06
1.00056e-06
1.00045e-06
1.00036e-06
9.99632e-07
1.00022e-06
1.00034e-06
1.00046e-06
1.00055e-06
1.00061e-06
1.00064e-06
1.00059e-06
1.00052e-06
9.9996e-07
1.00008e-06
1.00013e-06
1.0002e-06
1.00027e-06
1.00037e-06
1.00044e-06
1.00052e-06
1.00058e-06
1.00141e-06
1.0003e-06
1.00036e-06
1.00037e-06
1.00034e-06
1.00027e-06
1.00017e-06
1.00004e-06
9.99919e-07
9.99608e-07
1.00024e-06
1.00032e-06
1.00036e-06
1.00037e-06
1.00031e-06
1.00024e-06
1.00011e-06
1.00005e-06
9.99578e-07
1.00023e-06
1.00032e-06
1.00038e-06
1.00042e-06
1.00037e-06
1.00035e-06
1.00024e-06
1.00024e-06
9.98985e-07
1.0001e-06
1.00016e-06
1.00023e-06
1.00031e-06
1.00038e-06
1.00047e-06
1.00053e-06
1.0006e-06
1.00106e-06
)
;

boundaryField
{
    inlet
    {
        type            calculated;
        value           nonuniform 0();
    }
    outlet
    {
        type            calculated;
        value           uniform 1e-06;
    }
    wall
    {
        type            calculated;
        value           nonuniform List<scalar> 
63
(
1.00011e-06
1.00009e-06
1.0002e-06
1.00004e-06
1.00018e-06
1.00017e-06
1.00021e-06
1.00008e-06
1.00026e-06
1.00027e-06
1.00026e-06
1.00012e-06
1.00037e-06
1.00038e-06
1.00034e-06
1.00017e-06
1.00048e-06
1.00051e-06
1.00045e-06
1.00025e-06
1.00057e-06
1.00062e-06
1.00059e-06
1.00033e-06
1.00059e-06
1.00069e-06
1.0007e-06
1.00045e-06
1.00054e-06
1.00066e-06
1.00067e-06
1.00054e-06
9.93357e-07
9.86546e-07
1.0003e-06
9.65764e-07
1.00004e-06
1.00008e-06
1.0001e-06
1.00008e-06
1.00013e-06
1.00016e-06
1.00012e-06
1.0002e-06
1.00023e-06
1.00017e-06
1.00027e-06
1.00031e-06
1.00025e-06
1.00037e-06
1.00038e-06
1.00033e-06
1.00044e-06
1.00047e-06
1.00045e-06
1.00052e-06
1.00053e-06
1.00054e-06
1.00058e-06
1.0006e-06
9.65764e-07
1.00141e-06
1.00106e-06
)
;
    }
    procBoundary3to1
    {
        type            processor;
        value           nonuniform List<scalar> 
27
(
1.00011e-06
1.00017e-06
1.00026e-06
1.00038e-06
1.0005e-06
1.00059e-06
1.00056e-06
1.00038e-06
9.99991e-07
1.00028e-06
1.00038e-06
1.00047e-06
1.00049e-06
1.0004e-06
1.00025e-06
1.00001e-06
9.9988e-07
9.99887e-07
1.00019e-06
1.00023e-06
1.00025e-06
1.00025e-06
1.00015e-06
1.00003e-06
9.99882e-07
9.99809e-07
9.99487e-07
)
;
    }
    procBoundary3to2
    {
        type            processor;
        value           nonuniform List<scalar> 
12
(
1.00006e-06
1.00003e-06
1.00021e-06
1.00001e-06
1.0002e-06
1.00016e-06
1.00011e-06
1.00003e-06
1.00023e-06
1.00015e-06
1.00014e-06
1.00005e-06
)
;
    }
    procBoundary3to7
    {
        type            processor;
        value           nonuniform List<scalar> 
36
(
1.00017e-06
1.00021e-06
1.00023e-06
1.00022e-06
1.00016e-06
1.00008e-06
9.99977e-07
9.99869e-07
9.99154e-07
1.00015e-06
1.00019e-06
1.00021e-06
1.00021e-06
1.00016e-06
1.0001e-06
1.00001e-06
9.99937e-07
9.99471e-07
1.00013e-06
1.00018e-06
1.0002e-06
1.00022e-06
1.0002e-06
1.00017e-06
1.0001e-06
1.0001e-06
9.99694e-07
1.00005e-06
1.00008e-06
1.00012e-06
1.00017e-06
1.00022e-06
1.00029e-06
1.00032e-06
1.0004e-06
1.00098e-06
)
;
    }
}


// ************************************************************************* //
