/*--------------------------------*- C++ -*----------------------------------*\
| =========                 |                                                 |
| \\      /  F ield         | OpenFOAM: The Open Source CFD Toolbox           |
|  \\    /   O peration     | Version:  4.x                                   |
|   \\  /    A nd           | Web:      www.OpenFOAM.org                      |
|    \\/     M anipulation  |                                                 |
\*---------------------------------------------------------------------------*/
FoamFile
{
    version     2.0;
    format      ascii;
    class       volScalarField;
    location    "17.5";
    object      p_rgh;
}
// * * * * * * * * * * * * * * * * * * * * * * * * * * * * * * * * * * * * * //

dimensions      [1 -1 -2 0 0 0 0];

internalField   nonuniform List<scalar> 
108
(
21.3642
72.3515
3.45587
66.8377
-14.6283
62.5762
-33.6494
58.4837
-98.2672
21.4207
72.6942
3.3277
67.3956
-14.4653
63.27
-32.5974
59.4872
-131.777
22.0881
72.8824
3.62902
67.0024
-13.9566
62.9136
-30.6178
58.3213
-48.9768
21.2471
72.1255
2.68046
66.1191
-16.679
61.7944
-36.9134
60.6479
-263.202
22.327
74.0291
4.62873
67.2381
-13.788
60.5941
-33.3107
54.6852
-53.5199
21.9532
73.9543
3.60086
67.81
-15.9218
62.2425
-37.6397
57.7645
-65.8187
22.0986
73.5866
4.16756
67.3976
-14.3664
61.4851
-33.5744
55.8284
-52.5911
21.3232
72.5728
2.50701
66.5326
-17.6795
61.9093
-41.128
61.5328
-73.2963
23.0936
73.3497
4.99594
66.4538
-13.249
59.6854
-31.6635
53.0095
-49.0798
23.0022
73.447
4.96394
66.9148
-13.3778
59.8424
-32.0555
53.1758
-51.3814
22.6858
73.5672
4.48834
66.6827
-14.1772
59.9213
-33.2572
53.7471
-54.9659
22.2065
72.9474
3.89627
66.4887
-15.2529
60.7265
-35.979
57.0211
-59.6684
)
;

boundaryField
{
    inlet
    {
        type            fixedFluxPressure;
        gradient        nonuniform 0();
        value           nonuniform 0();
    }
    outlet
    {
        type            fixedValue;
        value           uniform 0;
    }
    wall
    {
        type            fixedFluxPressure;
        gradient        nonuniform List<scalar> 
63
(
0.000941942
0.000971488
0.000703501
0.00019681
0.000309568
0.000323401
0.000234446
4.21188e-05
6.56681e-05
0.000272244
0.000109964
-5.6194e-05
-0.00015848
-0.000303841
-0.000212694
-6.14188e-05
-0.00100717
-0.00103199
-0.00109114
-0.00052822
-0.000685208
-0.000469413
-0.000167983
-9.76054e-05
-0.00178482
-0.00142384
-0.00175033
-0.000100736
-0.000143433
-0.000496741
-0.000442623
2.46651e-05
0.000148103
0.000508239
0.00184774
0.00142401
3.1042e-06
-0.000114862
0.000478406
0.000223356
0.000185905
0.000245237
0.00163243
0.000385171
0.0005499
-7.96309e-05
-5.86899e-05
-0.000150691
-0.000275328
-0.000583883
-0.000854425
-0.000169288
-0.000136934
-6.17209e-05
-0.000309545
-0.000298179
-0.000147056
-0.000107302
-8.19606e-05
-9.45479e-05
0.0284073
2.1846e-06
-0.000370612
)
;
        value           nonuniform List<scalar> 
63
(
21.3642
21.4208
22.0881
21.2471
72.3515
72.6942
72.8824
72.1255
3.45587
3.32771
3.62903
2.68046
66.8377
67.3955
67.0024
66.1191
-14.6283
-14.4653
-13.9566
-16.679
62.5762
63.27
62.9136
61.7944
-33.6494
-32.5974
-30.6178
-36.9134
58.4837
59.4872
58.3213
60.6479
-98.2672
-131.777
-48.9768
-263.202
21.2471
21.3232
22.2065
72.1255
72.5728
72.9474
2.68048
2.50701
3.89628
66.1191
66.5326
66.4887
-16.679
-17.6795
-15.2529
61.7944
61.9093
60.7265
-36.9134
-41.128
-35.979
60.6479
61.5328
57.0211
-263.202
-73.2963
-59.6684
)
;
    }
    procBoundary3to1
    {
        type            processor;
        value           nonuniform List<scalar> 
27
(
21.5185
73.0336
3.64334
67.8437
-13.9391
63.8255
-31.3966
57.4227
-51.7067
22.138
74.3075
4.06834
67.8296
-15.1235
61.2785
-35.4743
57.3545
-45.0679
22.9511
73.128
5.2632
66.656
-12.8622
59.983
-30.8744
52.9075
-49.2245
)
;
    }
    procBoundary3to2
    {
        type            processor;
        value           nonuniform List<scalar> 
12
(
79.4026
79.2948
80.1973
78.9742
80.5391
80.4039
80.1861
79.4855
80.7527
80.6269
80.6266
80.0592
)
;
    }
    procBoundary3to7
    {
        type            processor;
        value           nonuniform List<scalar> 
36
(
23.5071
73.1114
5.50184
65.8264
-12.3148
58.9365
-30.0248
52.3654
-45.9931
22.0954
72.9928
3.23397
66.1935
-15.6041
60.0017
-34.5404
55.0624
-52.1973
22.2709
72.8307
3.56826
65.7149
-15.321
59.0098
-34.4942
53.3749
-51.5346
21.9408
72.6385
2.85829
65.9233
-17.2363
60.245
-39.95
57.6177
-67.8573
)
;
    }
}


// ************************************************************************* //
