/*--------------------------------*- C++ -*----------------------------------*\
| =========                 |                                                 |
| \\      /  F ield         | OpenFOAM: The Open Source CFD Toolbox           |
|  \\    /   O peration     | Version:  4.x                                   |
|   \\  /    A nd           | Web:      www.OpenFOAM.org                      |
|    \\/     M anipulation  |                                                 |
\*---------------------------------------------------------------------------*/
FoamFile
{
    version     2.0;
    format      ascii;
    class       volScalarField;
    location    "17.5";
    object      Sm;
}
// * * * * * * * * * * * * * * * * * * * * * * * * * * * * * * * * * * * * * //

dimensions      [1 -3 -1 0 0 0 0];

internalField   nonuniform List<scalar> 
108
(
6.97351e-65
3.25437e-65
5.734e-65
2.55715e-65
4.10698e-65
3.02222e-65
4.72708e-65
4.26224e-65
4.18474e-65
5.19146e-65
7.43868e-65
4.10685e-65
4.6494e-65
5.42439e-65
3.87469e-65
5.5021e-65
5.1147e-65
5.26971e-65
5.50158e-65
5.50174e-65
6.19919e-65
3.71966e-65
4.88211e-65
3.71977e-65
5.73466e-65
5.26977e-65
4.02981e-65
4.64946e-65
3.56465e-65
4.10718e-65
5.88962e-65
4.80474e-65
4.64984e-65
3.17743e-65
5.34738e-65
4.41742e-65
7.51566e-65
6.27597e-65
9.06557e-65
8.52345e-65
7.59376e-65
6.2767e-65
6.04432e-65
6.58693e-65
8.91177e-65
6.66345e-65
6.19868e-65
7.51609e-65
7.28382e-65
6.81906e-65
6.27676e-65
8.60169e-65
7.05195e-65
6.97448e-65
1.0383e-64
7.51619e-65
7.43884e-65
8.44639e-65
6.81932e-65
7.36184e-65
6.58701e-65
7.20707e-65
7.90454e-65
7.74873e-65
5.65678e-65
6.35428e-65
6.5094e-65
8.05933e-65
5.65715e-65
6.74214e-65
6.81974e-65
5.6573e-65
7.6705e-65
9.06519e-65
8.75545e-65
8.52325e-65
6.12142e-65
6.2766e-65
8.52396e-65
7.1293e-65
7.43931e-65
9.06526e-65
5.03633e-65
7.74834e-65
4.33919e-65
4.64927e-65
7.90399e-65
7.28421e-65
8.83421e-65
6.122e-65
5.11398e-65
8.13595e-65
8.21356e-65
5.81156e-65
6.81908e-65
7.98166e-65
6.66443e-65
7.20697e-65
5.42467e-65
8.52356e-65
4.02942e-65
5.42428e-65
6.12183e-65
5.57944e-65
7.12946e-65
6.19962e-65
7.9046e-65
8.52456e-65
)
;

boundaryField
{
    inlet
    {
        type            calculated;
        value           nonuniform 0();
    }
    outlet
    {
        type            calculated;
        value           uniform 0;
    }
    wall
    {
        type            calculated;
        value           uniform 0;
    }
    procBoundary3to1
    {
        type            processor;
        value           nonuniform List<scalar> 
27
(
3.4868e-65
5.50147e-65
5.81147e-65
7.12888e-65
5.50175e-65
4.33953e-65
4.95956e-65
4.5722e-65
4.49471e-65
8.13551e-65
6.586e-65
6.19869e-65
5.26898e-65
5.26916e-65
7.36154e-65
8.05912e-65
1.03065e-64
4.88209e-65
7.90294e-65
6.35338e-65
5.11376e-65
9.06555e-65
8.29096e-65
8.75618e-65
6.81919e-65
7.90417e-65
3.48718e-65
)
;
    }
    procBoundary3to2
    {
        type            processor;
        value           nonuniform List<scalar> 
12
(
2.63444e-65
3.95174e-65
5.26903e-65
3.09962e-65
9.22021e-65
5.19128e-65
5.96622e-65
4.26182e-65
8.13539e-65
4.88125e-65
8.36818e-65
6.66382e-65
)
;
    }
    procBoundary3to7
    {
        type            processor;
        value           nonuniform List<scalar> 
36
(
9.91756e-65
7.82561e-65
6.43106e-65
6.74115e-65
1.03057e-64
1.03835e-64
7.98153e-65
5.65692e-65
8.36922e-65
7.67077e-65
9.4529e-65
7.28351e-65
6.8962e-65
8.29119e-65
5.65675e-65
7.51666e-65
6.35444e-65
8.05933e-65
4.80411e-65
7.43866e-65
6.1215e-65
7.12891e-65
7.439e-65
8.05912e-65
7.51681e-65
7.20695e-65
8.60191e-65
6.50903e-65
6.5866e-65
8.67881e-65
5.50184e-65
7.28422e-65
6.74195e-65
7.90445e-65
5.8897e-65
4.3398e-65
)
;
    }
}


// ************************************************************************* //
