/*--------------------------------*- C++ -*----------------------------------*\
| =========                 |                                                 |
| \\      /  F ield         | OpenFOAM: The Open Source CFD Toolbox           |
|  \\    /   O peration     | Version:  4.x                                   |
|   \\  /    A nd           | Web:      www.OpenFOAM.org                      |
|    \\/     M anipulation  |                                                 |
\*---------------------------------------------------------------------------*/
FoamFile
{
    version     2.0;
    format      ascii;
    class       surfaceScalarField;
    location    "40.5";
    object      phi;
}
// * * * * * * * * * * * * * * * * * * * * * * * * * * * * * * * * * * * * * //

dimensions      [0 3 -1 0 0 0 0];

internalField   nonuniform List<scalar> 
308
(
5.26801e-06
-1.94634e-13
5.33132e-06
8.63938e-08
5.23051e-06
-3.91896e-13
-8.29096e-13
5.30567e-06
9.67446e-08
7.79977e-08
5.08822e-06
4.9287e-08
-9.77285e-13
5.1749e-06
9.91174e-08
3.07142e-07
4.35414e-06
4.58467e-07
-2.00093e-12
5.14808e-06
-6.56674e-07
8.02573e-07
2.02579e-06
8.07615e-08
5.19383e-06
1.26149e-07
-4.54563e-13
5.25689e-06
9.20293e-08
-9.22408e-10
5.07865e-06
1.7824e-07
-6.48017e-13
5.34855e-06
-1.81241e-08
3.91471e-08
5.0172e-06
3.81595e-07
-1.71067e-08
5.90571e-06
-3.86298e-07
1.49039e-07
5.25299e-06
1.11164e-06
-5.73698e-08
6.43396e-06
-1.35911e-06
3.791e-07
3.21718e-06
2.80135e-07
7.23003e-06
5.06771e-08
-1.21638e-07
7.32381e-06
4.63066e-09
-6.4922e-08
7.42139e-06
5.91316e-08
-1.94046e-07
7.6122e-06
-1.51644e-07
-9.33297e-08
7.73219e-06
1.73787e-07
-3.50046e-07
7.93059e-06
-4.66421e-07
5.7757e-09
8.14022e-06
4.97996e-07
-6.372e-07
7.99264e-06
-9.18637e-07
6.20541e-07
1.31277e-06
-8.62913e-07
9.41096e-06
-3.53057e-07
9.39724e-06
-2.43035e-07
9.41454e-06
-4.6239e-07
9.3051e-06
-2.13739e-07
9.3059e-06
-6.10901e-07
8.93252e-06
-2.78039e-08
9.03472e-06
-9.01457e-07
8.31587e-06
6.8819e-07
-1.33216e-06
5.12551e-06
-5.8735e-13
5.19846e-06
-6.14698e-08
5.04153e-06
-4.56275e-13
1.25337e-07
5.12641e-06
-6.52802e-09
1.9127e-07
4.50544e-06
-3.39599e-14
4.20444e-07
5.81103e-06
3.19975e-07
-2.04728e-07
-3.16203e-07
2.29357e-06
5.04033e-06
6.8915e-12
2.06002e-09
5.10155e-06
-1.00652e-07
-5.61481e-09
5.10155e-06
5.85269e-13
1.20588e-12
5.1743e-06
-1.16344e-07
2.12699e-08
5.15719e-06
5.5235e-13
9.64432e-13
5.24186e-06
-1.41531e-08
7.1995e-08
5.06785e-06
1.3861e-13
1.16643e-07
5.82556e-06
-2.65696e-08
-3.20706e-08
-8.66995e-08
1.02201e-06
5.16028e-06
1.01375e-08
1.09679e-08
5.22346e-06
-1.76801e-07
-5.19488e-08
4.98988e-06
1.26861e-08
2.68445e-08
5.06434e-06
-2.48641e-07
-3.54879e-08
4.53611e-06
5.07136e-08
1.27471e-07
4.62095e-06
-1.54849e-07
6.16242e-08
3.56016e-06
6.63386e-08
3.57256e-07
4.46969e-06
-2.59809e-07
-5.57506e-08
1.46521e-07
1.36853e-06
7.81582e-06
-1.52426e-07
7.41993e-06
-2.39425e-08
7.14241e-06
-1.72182e-07
6.68557e-06
-5.54084e-09
6.2471e-06
-1.21717e-07
5.994e-06
7.04407e-08
5.22313e-06
-6.42442e-08
5.41811e-06
2.33402e-07
8.03561e-07
5.93396e-06
-2.82999e-08
6.4996e-06
-1.26103e-07
6.01101e-06
1.07648e-08
7.41711e-07
7.09635e-06
-4.08842e-07
-7.51797e-07
8.68342e-07
2.99507e-06
5.23328e-06
5.15384e-08
4.61842e-08
5.30148e-06
1.21252e-08
-2.47272e-08
5.1869e-06
5.56743e-08
4.74541e-08
5.26111e-06
-9.9042e-08
1.15815e-08
4.96265e-06
1.21847e-07
1.48317e-07
5.46149e-06
-4.35768e-07
-1.17183e-07
4.82675e-06
3.75111e-07
3.87037e-07
6.31001e-06
-1.21803e-06
-7.06139e-07
2.05302e-06
1.59201e-06
6.84895e-06
5.38955e-08
4.06849e-10
6.84808e-06
-2.36014e-09
-3.65948e-08
6.98919e-06
7.52032e-11
-5.8663e-08
7.17283e-06
-1.48618e-07
-1.69555e-07
7.5003e-06
-2.69247e-08
-5.12257e-08
7.84779e-06
-4.76733e-07
-2.44896e-07
8.57011e-06
8.60865e-10
9.18551e-09
8.69556e-06
-9.09868e-07
-4.8937e-07
6.21509e-07
9.99628e-07
9.28976e-06
-6.46462e-08
9.25726e-06
6.19372e-09
9.18577e-06
-1.00611e-07
9.06589e-06
-3.42778e-08
9.07335e-06
-1.56109e-07
8.70395e-06
-3.68867e-08
8.98496e-06
-3.44392e-07
8.27015e-06
3.83442e-08
2.35313e-07
9.56057e-06
-7.41207e-07
9.07174e-06
2.18431e-07
-1.2977e-06
8.07763e-06
-2.61704e-08
7.97701e-06
-3.71339e-08
7.89095e-06
-9.32307e-08
7.89356e-06
-1.40715e-07
7.90496e-06
-2.36024e-07
7.88187e-06
-2.26888e-07
7.98978e-06
-4.62084e-07
7.60586e-06
-1.03785e-07
-7.81312e-07
9.11408e-06
-1.49062e-08
9.06838e-06
-2.80309e-08
8.98598e-06
-6.94924e-08
8.80646e-06
-1.30748e-07
8.74965e-06
-2.30438e-07
8.45462e-06
-1.76759e-07
8.5169e-06
-5.15175e-07
7.89365e-06
3.00922e-08
-1.29225e-06
1.04014e-05
1.03796e-05
1.02095e-05
1.00445e-05
9.65791e-06
9.44427e-06
8.5847e-06
8.65314e-06
)
;

boundaryField
{
    inlet
    {
        type            calculated;
        value           nonuniform 0();
    }
    outlet
    {
        type            calculated;
        value           nonuniform List<scalar> 
16
(
1.64386e-06
5.1126e-06
8.5856e-06
8.52921e-06
3.11282e-06
4.85418e-06
2.00502e-06
3.42891e-06
4.69405e-06
4.55534e-06
1.0496e-05
9.4599e-06
1.1979e-05
8.68148e-06
9.40421e-06
7.5962e-06
)
;
    }
    wall
    {
        type            calculated;
        value           nonuniform List<scalar> 
66
(
0
0
0
0
0
0
0
0
0
0
0
0
0
0
0
1.2326e-32
0
0
0
0
0
0
0
0
0
0
0
0
0
0
0
0
0
0
0
0
0
0
0
0
0
0
0
0
0
0
0
0
0
0
0
0
0
0
0
0
0
-6.16298e-33
0
0
0
0
0
0
0
0
)
;
    }
    procBoundary7to0
    {
        type            processor;
        value           uniform -5.37314e-06;
    }
    procBoundary7to1
    {
        type            processor;
        value           uniform -9.30389e-13;
    }
    procBoundary7to3
    {
        type            processor;
        value           nonuniform List<scalar> 
36
(
1.05135e-07
2.43839e-08
1.00814e-07
-8.50048e-08
1.6817e-07
-3.81009e-07
3.62294e-07
-1.37446e-06
1.63922e-06
-4.31942e-13
-6.77762e-08
-7.57074e-13
-1.9418e-07
1.61529e-08
-5.52134e-07
5.69146e-08
-8.57638e-07
-1.50168e-07
1.51345e-07
5.85461e-08
2.15575e-07
3.60374e-08
4.37863e-07
-1.24048e-07
1.04122e-06
-9.13434e-07
2.17436e-06
3.82623e-07
2.61389e-07
5.0422e-07
1.71541e-07
7.83878e-07
-6.52335e-08
1.29725e-06
-8.87974e-07
2.43159e-06
)
;
    }
    procBoundary7to5
    {
        type            processor;
        value           nonuniform List<scalar> 
44
(
-1.61541e-07
-2.39345e-12
-1.64897e-07
-1.71016e-12
-1.11931e-07
-2.81257e-12
4.34621e-07
-2.41545e-07
-1.89453e-13
-1.25545e-08
8.91034e-13
1.08795e-08
3.15926e-08
3.75236e-08
2.00522e-07
-6.18268e-07
8.01611e-07
3.71674e-13
-5.17339e-06
4.41225e-08
4.78812e-08
5.56337e-08
2.71396e-08
-1.18426e-07
1.56555e-07
-1.29428e-07
8.32465e-07
1.54645e-08
-6.12144e-08
1.14497e-08
-6.04191e-06
3.45249e-08
2.34449e-07
-1.29838e-07
8.0523e-07
-4.81405e-07
1.38548e-06
1.44265e-07
1.13022e-07
2.26751e-07
1.49685e-07
3.72939e-07
-8.88288e-06
1.32798e-07
)
;
    }
    procBoundary7to6
    {
        type            processor;
        value           nonuniform List<scalar> 
12
(
-5.31998e-06
-7.18427e-06
-9.38985e-06
-5.0424e-06
-5.30302e-06
-8.00632e-06
-5.34441e-06
-6.84075e-06
-9.32364e-06
-8.14954e-06
-9.12494e-06
-1.0481e-05
)
;
    }
}


// ************************************************************************* //
