/*--------------------------------*- C++ -*----------------------------------*\
| =========                 |                                                 |
| \\      /  F ield         | OpenFOAM: The Open Source CFD Toolbox           |
|  \\    /   O peration     | Version:  4.x                                   |
|   \\  /    A nd           | Web:      www.OpenFOAM.org                      |
|    \\/     M anipulation  |                                                 |
\*---------------------------------------------------------------------------*/
FoamFile
{
    version     2.0;
    format      ascii;
    class       volVectorField;
    location    "39.5";
    object      ddtUrel;
}
// * * * * * * * * * * * * * * * * * * * * * * * * * * * * * * * * * * * * * //

dimensions      [0 1 -2 0 0 0 0];

internalField   nonuniform List<vector> 
114
(
(-3.67133e-09 3.24836e-11 1.88165e-10)
(-1.69404e-09 9.5601e-11 3.30601e-10)
(-1.32141e-10 1.80711e-10 5.30714e-10)
(1.05413e-09 2.60866e-10 7.8517e-10)
(2.05676e-09 3.66235e-10 1.01422e-09)
(2.80997e-09 4.2101e-10 1.23473e-09)
(-4.41784e-09 -1.31318e-12 2.83398e-11)
(-2.80955e-09 4.01354e-11 1.55826e-10)
(-1.30366e-09 9.62171e-11 3.06688e-10)
(-8.22754e-11 1.70967e-10 4.95407e-10)
(8.93894e-10 2.38295e-10 7.11978e-10)
(1.6322e-09 3.34274e-10 8.7536e-10)
(2.23319e-09 4.06112e-10 1.06902e-09)
(-3.30022e-09 4.25043e-11 -1.01607e-10)
(-2.7051e-09 5.03792e-11 -3.05588e-11)
(-1.7236e-09 8.68396e-11 1.06412e-10)
(-7.39566e-10 1.34062e-10 2.60314e-10)
(9.27838e-11 1.87579e-10 4.23633e-10)
(7.74491e-10 2.61253e-10 5.76389e-10)
(1.2536e-09 3.43875e-10 6.61073e-10)
(1.61866e-09 4.22433e-10 7.73302e-10)
(-2.85812e-09 9.73047e-12 -7.77562e-11)
(-3.15887e-09 1.05061e-11 -4.34845e-11)
(-2.59117e-09 2.23307e-11 2.87189e-12)
(-1.64084e-09 4.62314e-11 8.38404e-11)
(-7.75042e-10 7.09383e-11 1.95295e-10)
(-2.85616e-11 1.12865e-10 3.15632e-10)
(5.36925e-10 1.60863e-10 4.43838e-10)
(9.69243e-10 2.28913e-10 5.26046e-10)
(1.2892e-09 2.7586e-10 6.25044e-10)
(-2.28999e-09 2.00511e-11 -9.90665e-11)
(-2.4612e-09 1.79402e-11 -7.03977e-11)
(-2.04033e-09 3.23466e-11 -2.01267e-11)
(-1.29292e-09 5.52896e-11 7.00227e-11)
(-5.82347e-10 7.76462e-11 1.83471e-10)
(2.78137e-11 1.16119e-10 3.0185e-10)
(5.2756e-10 1.56286e-10 4.23138e-10)
(8.87538e-10 2.35876e-10 4.70128e-10)
(1.12469e-09 2.88192e-10 5.75761e-10)
(-1.53441e-09 6.06139e-11 -1.25224e-10)
(-1.59375e-09 6.61662e-11 -1.037e-10)
(-1.29681e-09 7.40983e-11 -5.00629e-11)
(-8.03167e-10 8.92789e-11 5.05707e-11)
(-3.0003e-10 1.10237e-10 1.64283e-10)
(1.41218e-10 1.41327e-10 2.75837e-10)
(5.22621e-10 1.81359e-10 3.75848e-10)
(7.70616e-10 2.53037e-10 4.04016e-10)
(9.27802e-10 2.79259e-10 4.81161e-10)
(-8.47427e-10 1.0898e-10 -1.36889e-10)
(-8.3383e-10 1.18377e-10 -1.1952e-10)
(-1.32567e-09 2.33706e-11 -8.92743e-11)
(-1.36337e-09 3.04448e-11 -6.48277e-11)
(-1.09907e-09 4.62287e-11 -3.14636e-11)
(-5.93661e-10 7.7862e-11 1.12121e-11)
(-2.92112e-10 6.82963e-11 1.0767e-10)
(-7.67688e-13 8.41307e-11 1.87136e-10)
(2.03663e-10 1.16848e-10 2.542e-10)
(2.8936e-10 1.6578e-10 2.82707e-10)
(5.77019e-10 2.4603e-10 2.65685e-10)
(-1.11351e-09 3.73326e-11 -1.02226e-10)
(-1.12046e-09 4.39963e-11 -8.08946e-11)
(-9.19953e-10 6.08478e-11 -4.13494e-11)
(-4.85993e-10 9.01547e-11 1.96083e-11)
(-2.08503e-10 7.68009e-11 1.08481e-10)
(5.03652e-11 9.11059e-11 1.86545e-10)
(2.68352e-10 1.17872e-10 2.52041e-10)
(4.06479e-10 1.67756e-10 2.68188e-10)
(5.01928e-10 2.43857e-10 2.46024e-10)
(-7.89056e-10 7.48102e-11 -1.12095e-10)
(-7.65488e-10 8.14507e-11 -9.61624e-11)
(-6.20046e-10 9.24123e-11 -5.52434e-11)
(-3.28158e-10 9.9706e-11 1.80446e-11)
(-8.91111e-11 1.02884e-10 1.02926e-10)
(1.09711e-10 1.182e-10 1.77761e-10)
(3.046e-10 1.41229e-10 2.41269e-10)
(4.22706e-10 1.90842e-10 2.40088e-10)
(4.84352e-10 2.26596e-10 2.48475e-10)
(-4.42825e-10 1.142e-10 -1.10395e-10)
(-3.96645e-10 1.23735e-10 -9.94165e-11)
(-2.88455e-10 1.3554e-10 -5.72587e-11)
(-1.07406e-10 1.46432e-10 1.22199e-11)
(-7.07699e-10 3.12904e-11 -8.18524e-11)
(-6.50836e-10 3.66538e-11 -6.37765e-11)
(-4.84799e-10 4.94636e-11 -3.90051e-11)
(-1.18369e-10 8.04338e-11 -4.86205e-12)
(-9.72151e-11 7.01778e-11 7.15914e-11)
(-7.08482e-11 7.83844e-11 1.27051e-10)
(-1.10128e-10 1.06714e-10 1.51166e-10)
(-5.80902e-10 1.55326e-10 1.32042e-10)
(-1.29277e-10 3.86891e-10 -2.35112e-10)
(-5.88832e-10 4.15556e-11 -9.07776e-11)
(-5.18067e-10 4.92916e-11 -7.35301e-11)
(-3.62139e-10 5.99263e-11 -4.69201e-11)
(-7.24123e-11 1.08842e-10 2.73804e-13)
(-4.12143e-11 9.38301e-11 7.18068e-11)
(-2.23164e-11 8.92198e-11 1.30209e-10)
(1.22288e-11 1.09525e-10 1.64677e-10)
(-8.20565e-11 1.32524e-10 1.648e-10)
(1.95526e-10 2.18887e-10 3.06848e-11)
(-4.19933e-10 7.36309e-11 -9.38213e-11)
(-3.61023e-10 7.99499e-11 -7.95059e-11)
(-2.6983e-10 8.92845e-11 -4.68493e-11)
(-7.32244e-11 1.02543e-10 6.23433e-12)
(-1.72522e-11 1.09042e-10 7.39303e-11)
(1.64801e-11 1.12193e-10 1.27187e-10)
(6.97661e-11 1.28959e-10 1.61698e-10)
(2.18765e-11 1.61742e-10 1.61701e-10)
(2.03556e-10 2.15436e-10 6.99627e-11)
(-2.15252e-10 1.11441e-10 -9.33527e-11)
(-1.50078e-10 1.19394e-10 -8.22963e-11)
(-1.05832e-10 1.20697e-10 -4.69233e-11)
(8.16666e-12 1.36773e-10 4.53699e-12)
(4.45469e-11 1.48183e-10 6.87915e-11)
(7.58735e-11 1.51268e-10 1.17628e-10)
)
;

boundaryField
{
    inlet
    {
        type            calculated;
        value           nonuniform 0();
    }
    outlet
    {
        type            calculated;
        value           nonuniform List<vector> 
12
(
(-1.93801e-09 -1.36737e-10 5.37806e-10)
(4.83409e-10 -1.81238e-10 1.26706e-09)
(2.61044e-11 1.98537e-10 8.72598e-10)
(2.29042e-10 4.61239e-12 3.61304e-10)
(-2.12777e-10 -1.89806e-10 8.73126e-10)
(9.24818e-11 -1.87127e-10 6.46661e-10)
(4.37784e-10 -1.5579e-11 9.70847e-10)
(-4.3552e-10 4.48443e-10 -2.08586e-10)
(-5.67453e-11 1.0418e-10 3.46944e-10)
(-3.45774e-09 1.78976e-09 -3.24179e-09)
(-3.07892e-10 -4.30489e-10 -7.22498e-11)
(-4.98532e-10 2.41814e-10 -5.16173e-10)
)
;
    }
    wall
    {
        type            calculated;
        value           nonuniform List<vector> 
66
(
(5.00196e-10 9.30058e-12 -5.672e-11)
(6.21574e-10 -5.22945e-11 -1.00362e-10)
(3.11923e-10 3.25923e-11 -6.52577e-11)
(3.98653e-10 6.68248e-11 -4.87155e-11)
(1.43201e-09 -1.14503e-11 -2.98828e-11)
(1.93292e-09 -1.86529e-11 -7.22905e-11)
(1.23274e-09 2.64665e-11 -8.33507e-11)
(1.31249e-09 7.77341e-11 -1.04283e-10)
(5.32918e-10 -3.32147e-11 -5.76925e-11)
(1.86745e-09 -1.69784e-10 -1.31355e-10)
(7.22366e-10 3.23743e-11 -6.17875e-11)
(5.11484e-10 -8.05967e-11 -4.61436e-11)
(3.45615e-09 1.2997e-10 -1.78463e-10)
(2.51226e-09 4.76518e-10 -1.37072e-10)
(1.34715e-09 1.10438e-12 -5.03274e-11)
(8.96811e-10 2.45068e-11 -6.19971e-11)
(2.67815e-10 -5.45179e-11 2.31524e-11)
(5.8527e-10 1.40553e-10 -5.00219e-12)
(8.08875e-11 7.24285e-11 4.46098e-11)
(7.47325e-11 3.25281e-11 3.82164e-11)
(-7.39004e-10 -3.78635e-11 3.26544e-11)
(-7.92599e-10 -3.64563e-11 6.19442e-11)
(-1.03168e-09 2.5061e-13 7.23382e-11)
(-5.66413e-10 6.69117e-12 6.57752e-11)
(-4.42041e-10 4.48607e-11 -1.74746e-10)
(-9.6546e-10 1.63665e-10 -4.90495e-11)
(-8.39626e-10 8.54415e-11 -1.23578e-10)
(-1.41589e-08 -5.21904e-10 9.25505e-10)
(-4.32961e-09 -4.87697e-10 5.77839e-10)
(-4.33883e-09 -9.83465e-11 5.01471e-10)
(-5.13842e-09 4.64912e-09 -7.74048e-09)
(5.77735e-10 4.70531e-10 -6.51885e-10)
(-5.14638e-10 3.77189e-10 -1.15964e-09)
(-4.78461e-12 -1.09588e-11 -1.76996e-10)
(9.23762e-11 -3.29808e-11 -1.51715e-10)
(3.15793e-10 1.2119e-11 -6.65099e-11)
(-2.58254e-10 -3.77444e-12 -1.989e-10)
(3.07749e-10 3.11243e-12 -1.1287e-10)
(8.43477e-10 -6.79062e-12 -5.0569e-11)
(4.44566e-10 -4.47594e-11 -1.86943e-10)
(4.62917e-10 2.18835e-11 -1.18904e-10)
(4.69751e-10 -3.00027e-11 -6.23088e-11)
(1.27747e-09 -1.33617e-10 -1.02329e-10)
(8.15698e-10 -3.88296e-11 -6.00304e-11)
(2.63236e-09 2.73974e-10 -3.58054e-10)
(3.33415e-09 1.36245e-10 -1.82314e-10)
(7.10644e-10 -5.35231e-11 -5.32258e-13)
(3.87264e-10 -7.56285e-11 5.98594e-11)
(3.98823e-10 -5.22255e-11 1.96803e-12)
(3.12572e-10 -5.61858e-11 2.85786e-11)
(1.19232e-09 5.69546e-11 1.21813e-10)
(8.62527e-10 -3.33784e-11 7.38025e-11)
(5.2604e-10 -6.21252e-11 2.1522e-11)
(-1.94253e-10 -3.77519e-11 3.54961e-11)
(4.45099e-10 -1.43624e-10 4.28964e-10)
(3.85559e-10 -5.35828e-11 1.79159e-10)
(2.89646e-10 -4.81584e-11 1.17144e-10)
(-2.8214e-10 1.49277e-11 -1.3358e-10)
(2.45708e-10 -1.29411e-10 6.68747e-11)
(6.91916e-12 3.74389e-11 -1.00413e-10)
(-7.80537e-10 -8.43733e-11 2.20508e-10)
(-1.21065e-08 -4.08314e-10 8.23974e-10)
(1.39393e-09 -2.14489e-10 1.08275e-09)
(3.49975e-10 4.11474e-11 3.24364e-10)
(1.79834e-09 4.1891e-11 7.56707e-10)
(-4.1995e-09 3.48376e-09 -6.8122e-09)
)
;
    }
    procBoundary5to1
    {
        type            processor;
        value           nonuniform List<vector> 
32
(
(-7.73267e-09 3.92473e-11 3.77088e-10)
(-3.33673e-09 1.46003e-10 5.35375e-10)
(-2.33427e-10 3.04589e-10 8.59118e-10)
(2.12763e-09 4.88677e-10 1.3427e-09)
(4.43128e-09 7.49059e-10 1.95976e-09)
(6.14467e-09 8.55234e-10 2.31937e-09)
(-9.47737e-09 -3.22292e-11 1.69923e-10)
(-5.66921e-09 4.73097e-11 3.00613e-10)
(-2.56085e-09 1.39834e-10 4.89578e-10)
(-2.19621e-10 2.68493e-10 7.70646e-10)
(1.59737e-09 3.84381e-10 1.13304e-09)
(3.13055e-09 5.87024e-10 1.53467e-09)
(4.43073e-09 7.27556e-10 1.7633e-09)
(-6.67268e-09 3.40211e-12 -6.04844e-11)
(-5.38115e-09 1.88097e-11 3.06269e-11)
(-3.35651e-09 8.43234e-11 1.89157e-10)
(-1.51388e-09 1.66311e-10 3.93957e-10)
(-4.85593e-11 2.5814e-10 6.25099e-10)
(1.14622e-09 3.42045e-10 8.49787e-10)
(2.01828e-09 4.98642e-10 1.03044e-09)
(2.76894e-09 6.06681e-10 1.14556e-09)
(-6.3761e-09 -1.24475e-11 -2.30324e-11)
(-7.6144e-09 -2.26563e-11 4.07139e-11)
(-6.01195e-09 -3.15895e-12 8.67772e-11)
(-6.01195e-09 -3.15895e-12 8.67772e-11)
(-6.01195e-09 -3.15895e-12 8.67772e-11)
(-4.80279e-09 -2.34479e-13 -7.59723e-11)
(-5.46396e-09 -8.6393e-12 -3.33861e-11)
(-5.46396e-09 -8.6393e-12 -3.33861e-11)
(-5.46396e-09 -8.6393e-12 -3.33861e-11)
(-3.04381e-09 3.64293e-11 -1.3297e-10)
(-3.04381e-09 3.64293e-11 -1.3297e-10)
)
;
    }
    procBoundary5to4
    {
        type            processor;
        value           nonuniform List<vector> 
12
(
(-2.16389e-09 1.37384e-11 -1.03588e-10)
(-1.78253e-09 2.79418e-11 -1.23723e-10)
(-1.24315e-09 6.14986e-11 -1.39164e-10)
(-7.01036e-10 1.04314e-10 -1.45995e-10)
(-1.07117e-09 2.56633e-11 -9.99288e-11)
(-9.11793e-10 4.01952e-11 -1.13031e-10)
(-6.54048e-10 7.11798e-11 -1.21468e-10)
(-3.70861e-10 1.07918e-10 -1.17409e-10)
(-5.95865e-10 2.96674e-11 -8.85852e-11)
(-4.85534e-10 4.1643e-11 -9.68511e-11)
(-3.2864e-10 7.0604e-11 -1.01087e-10)
(-1.45996e-10 1.0676e-10 -1.0181e-10)
)
;
    }
    procBoundary5to7
    {
        type            processor;
        value           nonuniform List<vector> 
44
(
(-1.70174e-09 1.11133e-10 -1.5332e-10)
(-1.35587e-09 1.37015e-10 -8.00192e-11)
(-7.83656e-10 1.72144e-10 5.83833e-11)
(-1.96335e-10 2.13134e-10 1.99157e-10)
(3.35197e-10 2.69432e-10 3.31488e-10)
(7.93348e-10 3.76123e-10 4.1551e-10)
(1.08519e-09 4.75747e-10 4.19784e-10)
(1.31094e-09 5.63557e-10 4.61883e-10)
(-1.63718e-09 1.00658e-10 -1.72166e-10)
(-1.70174e-09 1.11133e-10 -1.5332e-10)
(-6.38192e-10 1.39138e-10 -6.20917e-11)
(-3.2342e-10 1.55292e-10 3.25027e-11)
(3.99394e-12 1.7318e-10 1.37698e-10)
(3.10806e-10 2.0452e-10 2.35899e-10)
(5.87678e-10 2.53672e-10 3.01927e-10)
(7.47999e-10 3.18453e-10 2.97555e-10)
(8.55193e-10 3.42545e-10 3.68779e-10)
(-3.3871e-10 1.497e-10 -1.46384e-10)
(-6.38192e-10 1.39138e-10 -6.20917e-11)
(-3.06161e-10 1.66973e-10 -1.28569e-10)
(-6.38192e-10 1.39138e-10 -6.20917e-11)
(-3.2342e-10 1.55292e-10 3.25027e-11)
(5.94531e-11 1.58235e-10 9.1686e-11)
(2.08173e-10 1.67107e-10 1.57151e-10)
(3.66168e-10 1.81668e-10 2.11587e-10)
(4.45562e-10 2.20505e-10 1.99586e-10)
(5.02421e-10 2.33193e-10 2.06461e-10)
(-1.34431e-10 1.53978e-10 -1.14344e-10)
(-8.8997e-11 1.69955e-10 -1.03286e-10)
(-2.05819e-11 1.91174e-10 -6.48557e-11)
(5.94531e-11 1.58235e-10 9.1686e-11)
(9.82164e-11 2.12145e-10 4.09467e-12)
(5.94531e-11 1.58235e-10 9.1686e-11)
(2.08173e-10 1.67107e-10 1.57151e-10)
(1.15405e-10 1.58866e-10 1.50867e-10)
(4.43753e-11 1.95338e-10 1.52732e-10)
(2.47087e-10 2.36924e-10 7.01954e-11)
(-1.41437e-11 1.53938e-10 -9.26396e-11)
(6.5922e-11 1.70316e-10 -8.48823e-11)
(5.86165e-11 1.81044e-10 -5.24584e-11)
(1.21404e-10 2.0004e-10 1.38186e-12)
(1.04243e-10 2.2218e-10 6.7413e-11)
(1.15405e-10 1.58866e-10 1.50867e-10)
(1.20004e-10 2.17391e-10 1.05142e-10)
)
;
    }
}


// ************************************************************************* //
