/*--------------------------------*- C++ -*----------------------------------*\
| =========                 |                                                 |
| \\      /  F ield         | OpenFOAM: The Open Source CFD Toolbox           |
|  \\    /   O peration     | Version:  4.x                                   |
|   \\  /    A nd           | Web:      www.OpenFOAM.org                      |
|    \\/     M anipulation  |                                                 |
\*---------------------------------------------------------------------------*/
FoamFile
{
    version     2.0;
    format      ascii;
    class       volScalarField;
    location    "39.5";
    object      Ksl;
}
// * * * * * * * * * * * * * * * * * * * * * * * * * * * * * * * * * * * * * //

dimensions      [1 -3 -1 0 0 0 0];

internalField   nonuniform List<scalar> 
114
(
3580.11
30171
4093.83
1e+10
5758.92
107497
1e+10
3758.46
1e+10
3882.67
125675
4309.13
14571.6
4142.15
1e+10
4183.45
1e+10
4276.41
1e+10
4756.88
14038.9
7189.18
3064.28
7421.53
2928.49
8061.08
2756.65
9441.11
2422.1
7835.99
31755.1
3541.65
67479.2
3480.06
87490.8
3434.2
25851
3466.84
6359.67
599461
3680.04
1e+10
3628.35
238961
3504.69
38053.7
3581.93
12684.9
1e+10
3819.1
7750.14
3207.5
8285.51
3128.67
9090.32
3068.78
11598.2
3057.92
16168.5
15093.6
3467.8
18127.6
3343.54
21996.8
3230.21
21602.9
3020.97
10816.9
82242.5
3648.1
1e+10
3681.28
1e+10
3847.97
33970
4128.71
7057.51
45150.5
3615.86
61516.7
3519.72
4858.55
2729.6
4622.56
2534.83
4552.44
2257.59
4769.57
1785.82
5257.29
6131.98
2976.6
6008.71
2792.81
6136.34
2576.39
7040.65
2294.77
9707.93
7311.22
3110.22
7435.46
2956.03
7418.95
2730.55
7584.77
2293.8
7372.93
7450.48
3116.8
7755.77
3005.44
8358.64
2804.17
)
;

boundaryField
{
    inlet
    {
        type            zeroGradient;
    }
    outlet
    {
        type            zeroGradient;
    }
    wall
    {
        type            zeroGradient;
    }
    procBoundary5to1
    {
        type            processor;
        value           nonuniform List<scalar> 
32
(
2893.15
7086.72
2678.83
7983.86
2467.45
8175.72
13113.1
3203.88
12968
2992.06
11212.8
2726.85
7653.75
3679.24
38178.1
3637.67
33817.8
3593.55
19131.5
3675.68
7998.87
8595.56
3334.51
12051
12051
12051
66399.6
3727.16
3727.16
3727.16
1e+10
1e+10
)
;
    }
    procBoundary5to4
    {
        type            processor;
        value           nonuniform List<scalar> 
12
(
3180.2
3606.46
3729.15
3860.35
3257.18
3534.78
3681.06
3665.94
2900.46
3078.78
3204.55
3204.61
)
;
    }
    procBoundary5to7
    {
        type            processor;
        value           nonuniform List<scalar> 
44
(
3782.56
1e+10
3769.77
1e+10
3802.46
1e+10
4218.18
24134.4
1e+10
3782.56
1e+10
3767.76
1e+10
3766.57
1e+10
4061.55
14521.8
1e+10
1e+10
3883.46
1e+10
3767.76
38177.7
3438.77
19010.8
3530.01
6672.04
1.43635e+06
3729.08
1e+10
38177.7
3722.74
38177.7
3438.77
8669.7
2438.68
9091.32
8983.39
3260.8
9967.94
3198.61
10722.8
8669.7
3071.24
)
;
    }
}


// ************************************************************************* //
