/*--------------------------------*- C++ -*----------------------------------*\
| =========                 |                                                 |
| \\      /  F ield         | OpenFOAM: The Open Source CFD Toolbox           |
|  \\    /   O peration     | Version:  4.x                                   |
|   \\  /    A nd           | Web:      www.OpenFOAM.org                      |
|    \\/     M anipulation  |                                                 |
\*---------------------------------------------------------------------------*/
FoamFile
{
    version     2.0;
    format      ascii;
    class       volScalarField;
    location    "39.5";
    object      p_rgh;
}
// * * * * * * * * * * * * * * * * * * * * * * * * * * * * * * * * * * * * * //

dimensions      [1 -1 -2 0 0 0 0];

internalField   nonuniform List<scalar> 
114
(
69.2648
-16.3426
62.7018
-33.2458
55.9271
-46.6203
1.3331
68.6309
-17.0654
62.3854
-34.8184
56.2766
-50.0501
75.0884
4.70607
68.475
-12.6751
61.7661
-29.4456
53.7909
-44.5397
19.2872
74.8204
0.0769867
68.7209
-20.1013
63.6469
-41.6695
60.6268
-65.8832
19.5218
74.9438
0.541945
68.4573
-18.7596
62.6287
-37.9878
58.1981
-55.8726
20.8165
74.7363
2.46903
68.3074
-16.335
62.4624
-35.317
57.7678
-53.3352
21.6633
74.7537
20.1177
75.1224
1.16543
68.7022
-18.1829
62.7236
-37.8465
57.6488
-58.0556
19.9651
75.093
0.769748
68.5323
-18.7846
62.407
-38.7131
57.3265
-58.9259
20.624
75.0647
2.04662
68.2877
-16.4494
61.3129
-34.3912
54.5778
-50.4623
20.6489
74.8934
1.77004
68.0574
19.7817
74.714
0.460602
68.6141
-20.2224
63.6998
-43.6485
62.2703
-65.0788
19.8315
74.7724
0.518232
68.5812
-19.7061
63.3006
-41.5414
60.4636
-67.9482
20.374
74.823
1.28773
68.3334
-18.6862
62.621
-40.1785
59.0252
-67.6789
20.4644
74.8352
1.46207
68.449
-18.2702
62.72
)
;

boundaryField
{
    inlet
    {
        type            fixedFluxPressure;
        gradient        nonuniform 0();
        value           nonuniform 0();
    }
    outlet
    {
        type            fixedValue;
        value           uniform 0;
    }
    wall
    {
        type            fixedFluxPressure;
        gradient        nonuniform List<scalar> 
66
(
1.85598e-06
3.9845e-06
3.17029e-06
5.39965e-06
2.38704e-06
4.02117e-06
2.73908e-06
2.74433e-06
9.3619e-07
1.17759e-05
9.19867e-06
5.89456e-06
2.7683e-06
5.81458e-07
1.829e-06
1.57087e-06
-1.68159e-07
-8.07614e-07
-1.3107e-06
1.12577e-06
-1.29392e-06
-1.6196e-06
-1.91154e-06
-8.61416e-07
-3.80489e-06
-1.696e-05
-1.38571e-05
-9.60641e-06
-7.40878e-06
-6.59444e-06
-7.28753e-05
-4.5723e-05
-2.30544e-05
-3.03441e-06
-3.45925e-07
2.76928e-07
-1.36714e-06
3.7256e-07
3.26047e-07
2.61292e-06
6.03333e-06
1.40718e-06
3.02457e-06
1.43688e-06
4.82336e-06
3.04958e-06
2.23998e-05
2.00774e-06
2.15069e-06
5.41948e-07
2.48079e-06
1.35444e-06
9.77856e-07
2.13605e-07
-3.1222
-5.74592e-07
-1.55092e-06
-2.52111e-06
2.30973e-06
-8.90911e-07
-3.69323e-06
-7.35178e-06
0.000287614
1.79269e-08
1.62294e-05
-5.7255e-05
)
;
        value           nonuniform List<scalar> 
66
(
19.7817
19.8315
20.374
20.4644
74.714
74.7724
74.823
74.8352
0.460602
0.518232
1.28773
1.46207
68.6141
68.5812
68.3334
68.449
-20.2224
-19.7061
-18.6862
-18.2702
63.6998
63.3006
62.621
62.72
-43.6485
-41.5414
-40.1785
62.2703
60.4636
59.0252
-65.0788
-67.9482
-67.6789
19.2872
20.1177
19.7817
74.8204
75.1224
74.714
0.0769867
1.16543
0.460602
69.2648
68.7209
68.7022
68.6141
-16.3426
-20.1013
-18.1829
-20.2224
62.7018
63.6469
62.7236
63.6998
-33.2904
-41.6695
-37.8465
-43.6485
55.9271
60.6268
57.6488
62.2703
-46.6203
-65.8832
-58.0556
-65.0788
)
;
    }
    procBoundary5to1
    {
        type            processor;
        value           nonuniform List<scalar> 
32
(
68.9622
-21.7084
64.3683
-44.0582
62.4259
-66.6766
-1.43619
68.6566
-22.1148
63.6922
-43.5756
61.2937
-64.7582
74.7822
0.635644
68.5132
-18.6602
63.0519
-37.6545
58.8148
-54.6159
20.2746
75.5455
1.90164
1.90164
1.90164
20.1241
75.2654
75.2654
75.2654
22.2723
22.2723
)
;
    }
    procBoundary5to4
    {
        type            processor;
        value           nonuniform List<scalar> 
12
(
81.4474
81.7576
81.7416
81.6631
81.8435
81.95
82.1172
81.9205
81.2933
81.4882
81.6156
81.6123
)
;
    }
    procBoundary5to7
    {
        type            processor;
        value           nonuniform List<scalar> 
44
(
74.8628
2.38035
68.3147
-16.106
62.5106
-34.5168
57.3213
-50.4192
20.9578
74.8628
3.72339
68.2941
-14.5679
62.5482
-32.674
56.5661
-49.4724
22.2652
3.72339
74.8462
3.72339
68.2941
-17.2939
61.8974
-36.2728
56.7224
-54.1525
21.1293
74.8432
2.66722
-17.2939
68.2236
-17.2939
61.8974
-39.0799
58.7798
-65.2616
20.9578
74.9437
2.23475
68.3999
-16.9969
-39.0799
62.3468
)
;
    }
}


// ************************************************************************* //
