/*--------------------------------*- C++ -*----------------------------------*\
| =========                 |                                                 |
| \\      /  F ield         | OpenFOAM: The Open Source CFD Toolbox           |
|  \\    /   O peration     | Version:  4.x                                   |
|   \\  /    A nd           | Web:      www.OpenFOAM.org                      |
|    \\/     M anipulation  |                                                 |
\*---------------------------------------------------------------------------*/
FoamFile
{
    version     2.0;
    format      ascii;
    class       volScalarField;
    location    "39.5";
    object      Qsource;
}
// * * * * * * * * * * * * * * * * * * * * * * * * * * * * * * * * * * * * * //

dimensions      [1 -1 -3 0 0 0 0];

internalField   nonuniform List<scalar> 
114
(
8.66067e+09
7.41156e+09
7.72781e+09
5.69854e+09
8.35918e+09
5.8559e+09
7.25852e+09
7.03991e+09
5.88101e+09
8.22509e+09
8.42001e+09
1.00699e+10
6.48182e+09
9.94933e+09
6.13992e+09
8.70999e+09
5.87808e+09
5.30784e+09
7.43705e+09
6.23719e+09
6.66387e+09
7.10065e+09
6.59774e+09
8.00663e+09
7.30438e+09
6.98515e+09
9.32886e+09
7.57225e+09
7.82757e+09
5.28774e+09
8.11536e+09
8.24573e+09
9.2432e+09
9.0053e+09
8.85285e+09
1.01549e+10
5.41722e+09
1.06615e+10
6.38647e+09
8.52193e+09
5.52301e+09
7.29222e+09
9.13546e+09
6.1852e+09
8.45058e+09
7.30875e+09
8.14213e+09
4.52306e+09
1.02688e+10
5.07523e+09
7.67558e+09
1.03995e+10
7.73284e+09
9.43506e+09
7.93425e+09
8.88968e+09
6.97594e+09
9.56823e+09
5.33889e+09
6.19941e+09
1.09059e+10
7.01263e+09
9.12387e+09
8.31812e+09
9.20318e+09
1.07921e+10
8.74626e+09
4.81476e+09
7.41753e+09
7.79361e+09
7.82969e+09
7.39962e+09
1.13734e+10
9.28533e+09
9.1049e+09
1.10289e+10
8.32755e+09
5.31039e+09
1.17387e+10
9.5916e+09
9.98617e+09
3.71176e+09
8.80658e+09
5.78772e+09
9.76341e+09
7.3255e+09
8.0976e+09
8.38998e+09
1.06208e+10
6.09964e+09
7.4744e+09
9.13522e+09
5.55064e+09
7.88604e+09
8.68518e+09
8.70382e+09
5.92723e+09
1.01434e+10
5.69037e+09
6.51127e+09
8.20215e+09
9.14839e+09
8.77393e+09
6.69622e+09
1.04461e+10
7.46605e+09
9.33135e+09
6.89916e+09
7.62301e+09
7.35243e+09
7.74752e+09
7.63444e+09
1.0806e+10
9.4892e+09
)
;

boundaryField
{
    inlet
    {
        type            calculated;
        value           nonuniform 0();
    }
    outlet
    {
        type            calculated;
        value           uniform 0;
    }
    wall
    {
        type            calculated;
        value           uniform 0;
    }
    procBoundary5to1
    {
        type            processor;
        value           nonuniform List<scalar> 
32
(
1.06112e+10
6.57454e+09
1.07044e+10
8.06523e+09
8.54856e+09
3.59848e+09
6.48243e+09
8.10588e+09
8.17814e+09
9.08676e+09
7.63049e+09
9.44417e+09
3.69667e+09
7.8939e+09
5.51424e+09
1.11521e+10
8.88769e+09
1.06859e+10
7.47206e+09
9.65832e+09
3.36329e+09
6.87659e+09
6.38695e+09
7.92636e+09
7.92636e+09
7.92636e+09
7.85459e+09
1.22033e+10
1.22033e+10
1.22033e+10
5.88673e+09
5.88673e+09
)
;
    }
    procBoundary5to4
    {
        type            processor;
        value           nonuniform List<scalar> 
12
(
1.05264e+10
1.11164e+10
6.74487e+09
7.05016e+09
1.04334e+10
1.05041e+10
8.63881e+09
8.14038e+09
1.00658e+10
9.46823e+09
7.90578e+09
7.94044e+09
)
;
    }
    procBoundary5to7
    {
        type            processor;
        value           nonuniform List<scalar> 
44
(
9.1069e+09
6.40733e+09
7.94874e+09
1.10788e+10
1.24927e+10
7.99253e+09
6.53219e+09
6.16209e+09
9.98866e+09
9.1069e+09
6.55054e+09
8.65789e+09
7.00273e+09
8.22714e+09
8.83165e+09
9.92647e+09
6.14485e+09
3.84296e+09
6.55054e+09
1.01142e+10
6.55054e+09
8.65789e+09
5.06306e+09
7.29283e+09
8.30401e+09
7.68659e+09
4.70867e+09
8.54406e+09
9.15461e+09
7.08053e+09
5.06306e+09
6.52138e+09
5.06306e+09
7.29283e+09
6.27082e+09
9.17369e+09
5.23193e+09
7.67019e+09
7.85404e+09
7.86465e+09
9.53513e+09
5.52444e+09
6.27082e+09
5.83784e+09
)
;
    }
}


// ************************************************************************* //
