/*--------------------------------*- C++ -*----------------------------------*\
| =========                 |                                                 |
| \\      /  F ield         | OpenFOAM: The Open Source CFD Toolbox           |
|  \\    /   O peration     | Version:  4.x                                   |
|   \\  /    A nd           | Web:      www.OpenFOAM.org                      |
|    \\/     M anipulation  |                                                 |
\*---------------------------------------------------------------------------*/
FoamFile
{
    version     2.0;
    format      ascii;
    class       volVectorField;
    location    "39.5";
    object      U;
}
// * * * * * * * * * * * * * * * * * * * * * * * * * * * * * * * * * * * * * //

dimensions      [0 1 -1 0 0 0 0];

internalField   nonuniform List<vector> 
114
(
(0.0297505 0.00101332 7.8742e-05)
(0.00343588 0.000235723 -0.000415793)
(0.0255426 0.000498097 0.000827152)
(1.06815e-08 1.39554e-09 -3.23225e-09)
(0.0174235 -0.000309928 0.00218814)
(0.000868824 0.00024768 -8.44265e-05)
(1.3936e-08 -1.81109e-09 3.8917e-09)
(0.0285435 0.00115974 0.000306182)
(1.31933e-08 -4.20491e-09 -2.49165e-09)
(0.0272353 0.00135687 0.00154235)
(0.000723333 -0.000219471 -0.000327317)
(0.0232759 0.00297073 0.00421435)
(0.00541401 -0.000720833 -0.00401056)
(0.0260011 0.000573346 5.67443e-05)
(1.31495e-08 -2.25076e-10 2.45728e-09)
(0.0255947 0.000444695 0.000289098)
(1.32829e-08 -2.17725e-09 -1.65376e-09)
(0.0245946 -0.000122959 0.00086902)
(1.31971e-08 -1.10738e-09 -4.45864e-09)
(0.0212957 -0.00112247 0.00163874)
(0.00700768 6.91763e-05 -0.000372941)
(0.0146363 -0.000335194 0.0001831)
(0.0344264 -0.000319154 0.000673014)
(0.0141395 -0.000449276 0.000752132)
(0.0359849 0.000169674 0.0011207)
(0.0127882 -0.000935792 0.00160026)
(0.0380175 0.000980942 0.000774842)
(0.0101374 -0.00215935 0.00309329)
(0.0417234 0.00239708 -0.000927194)
(0.00707909 -0.0066251 0.00773207)
(0.00332864 -0.000393457 6.01069e-05)
(0.0301898 -7.34578e-06 0.000287622)
(0.00154443 -0.000275874 7.29102e-05)
(0.0307043 0.000494379 0.000186782)
(0.00114534 -0.000326663 0.000156666)
(0.0307797 0.00161217 0.000119872)
(0.00340345 -0.00171707 0.00113314)
(0.0293803 0.0035495 -0.00104086)
(0.00952786 -0.00974408 0.00735793)
(0.000172407 -2.80427e-05 2.15179e-05)
(0.0287676 0.000279958 5.14048e-05)
(1.29956e-08 -2.64025e-09 5.18764e-09)
(0.0292707 0.000223074 0.000303651)
(0.000395588 -0.000136279 0.000126331)
(0.0299331 5.52404e-05 0.000785687)
(0.00226551 -0.00104464 0.00101107)
(0.0282839 0.00209118 -0.000771672)
(0.00630552 -0.00315196 0.00317047)
(1.25916e-08 -8.68553e-10 1.09468e-09)
(0.0276301 -0.000153007 -2.04793e-05)
(0.0135385 7.77062e-05 -0.000352405)
(0.0329977 7.38671e-05 -1.26345e-06)
(0.0126245 0.000307973 -0.000282473)
(0.0336148 0.000374206 2.71725e-05)
(0.0114582 0.000480198 9.64967e-05)
(0.0340127 0.000665738 -3.36552e-05)
(0.00873771 0.000554749 0.00114767)
(0.0333653 0.000710979 -0.00195378)
(0.0043837 0.000525503 0.00410162)
(0.00699926 -0.000291676 -9.61106e-05)
(0.0309803 -2.71206e-05 0.000213129)
(0.00581378 -0.000352828 3.22239e-05)
(0.0318255 0.000465708 -0.000172646)
(0.00474962 -0.00053388 0.000298765)
(0.0327411 0.00181662 -0.000848672)
(0.00457973 -0.00100507 0.00112)
(0.0338714 0.0040477 -0.00294295)
(0.00543271 -0.00364377 0.00631978)
(0.00127435 -6.36925e-05 4.73429e-05)
(0.0290858 0.000283583 -0.000110581)
(1.26363e-08 -9.82293e-10 3.01509e-09)
(0.0287075 0.00070087 3.65938e-08)
(1.28823e-08 -1.43251e-09 1.83259e-09)
(0.0273928 0.000729347 -0.000160419)
(0.00279623 -0.000514603 0.00107821)
(0.0248416 0.000825163 -0.00150932)
(0.00903927 -0.0036981 0.0100382)
(0.00230412 -8.82712e-05 0.000211442)
(0.0294699 0.000304249 -4.04921e-05)
(0.00168094 -6.93762e-05 0.000282537)
(0.0300514 7.30279e-05 -9.86681e-05)
(0.0211344 -0.000179098 0.000731047)
(0.0379816 -0.000170845 0.000933613)
(0.022216 -0.000128649 0.00109125)
(0.0409257 -2.2181e-05 0.000741671)
(0.0225341 -0.000504255 0.00228025)
(0.0459464 0.000222212 0.000133877)
(0.0207427 -0.00178177 0.00524127)
(0.0577009 0.0011089 -0.00234125)
(0.0110742 -0.00733173 0.0129289)
(0.0169865 -0.000732363 0.000382438)
(0.0354244 -0.000508611 0.000625362)
(0.0172869 -0.000911079 0.000436436)
(0.0375184 -9.59231e-05 0.000167017)
(0.016911 -0.0013559 0.000867421)
(0.0405006 0.000742192 -0.000739157)
(0.0142728 -0.00248755 0.00205633)
(0.0447175 0.00312104 -0.00324157)
(0.00669016 -0.00599358 0.00461365)
(0.014145 -0.000575669 0.000425234)
(0.0336944 -0.000344893 0.000523424)
(0.0139631 -0.00082616 0.000727222)
(0.0353705 -0.000205839 0.00028103)
(0.0138322 -0.00116264 0.00178863)
(0.0382489 0.000235521 -0.000894783)
(0.0127687 -0.00179627 0.004047)
(0.0443024 0.00149651 -0.00407615)
(0.00797594 -0.00263179 0.0103137)
(0.013849 -0.000560473 0.000282135)
(0.033503 -0.000420501 0.000209147)
(0.0133431 -0.000822746 0.000289844)
(0.0347253 -0.000475044 -0.000397078)
(0.0123172 -0.00130533 0.000622086)
(0.0367977 -0.000236516 -0.000825502)
)
;

boundaryField
{
    inlet
    {
        type            fixedValue;
        value           nonuniform 0();
    }
    outlet
    {
        type            zeroGradient;
    }
    wall
    {
        type            fixedValue;
        value           uniform (0 0 0);
    }
    procBoundary5to1
    {
        type            processor;
        value           nonuniform List<vector> 
32
(
(0.0378324 0.000661589 -0.00134126)
(0.0147271 0.000415033 -0.00347534)
(0.0401217 0.00111916 -0.000213888)
(0.0117892 -0.000127578 -0.00596592)
(0.0422223 0.001607 0.00328822)
(0.00650568 -0.00135922 -0.0101606)
(0.00817858 -0.000772568 -0.00114708)
(0.0344508 0.000291224 3.40671e-05)
(0.00796445 -0.00156317 -0.00208596)
(0.0364031 0.00125244 0.000962352)
(0.00788265 -0.00340207 -0.00405697)
(0.0383876 0.00395136 0.00399201)
(0.00616875 -0.00840043 -0.00788875)
(0.0297833 -1.8919e-05 0.000101139)
(0.00269398 -0.00022529 -0.000852803)
(0.0302628 0.000449847 3.97363e-05)
(0.00286475 -0.000545546 -0.00130309)
(0.0301788 0.000822311 0.000693181)
(0.00444279 -0.00193144 -0.00266357)
(0.0282512 0.00285033 0.00291755)
(0.00874555 -0.00751649 -0.00484741)
(0.0122751 5.47252e-05 -0.000518669)
(0.0317654 0.000408154 -0.000235672)
(0.00874957 0.00037701 -0.000540528)
(0.00874957 0.00037701 -0.000540528)
(0.00874957 0.00037701 -0.000540528)
(0.00158714 -0.00023544 -0.000161352)
(0.0291205 0.000602095 -0.000326088)
(0.0291205 0.000602095 -0.000326088)
(0.0291205 0.000602095 -0.000326088)
(1.16526e-08 -2.80121e-10 1.92879e-09)
(1.16526e-08 -2.80121e-10 1.92879e-09)
)
;
    }
    procBoundary5to4
    {
        type            processor;
        value           nonuniform List<vector> 
12
(
(0.0334829 -0.000536611 0.000152403)
(0.0299171 -0.000544516 0.000324942)
(0.0285397 0.000119897 -0.000205011)
(0.0273886 -2.45541e-07 -2.63025e-05)
(0.0327074 -0.000166935 0.000102679)
(0.0304727 -0.000458299 0.000362586)
(0.0289426 4.95469e-05 0.000217134)
(0.028806 -7.29327e-05 0.000144397)
(0.0361518 -0.000324832 0.000992742)
(0.0341879 -0.000641221 0.000816988)
(0.0326176 -0.000263306 0.000849504)
(0.0324743 -0.000395046 0.000526137)
)
;
    }
    procBoundary5to7
    {
        type            processor;
        value           nonuniform List<vector> 
44
(
(0.0284029 0.000311105 -2.48085e-05)
(1.36645e-08 1.25426e-09 -5.43408e-11)
(0.0283469 0.000508764 3.72158e-05)
(1.30584e-08 9.58883e-10 -3.96644e-09)
(0.0279903 0.000849667 0.000761886)
(1.09535e-08 2.27638e-09 -7.91034e-09)
(0.0238138 -0.00120608 0.00340565)
(0.00363852 0.00125924 -0.00134391)
(1.38514e-08 8.15256e-10 -3.17479e-11)
(0.0284029 0.000311105 -2.48085e-05)
(1.31061e-08 -2.69811e-09 1.44791e-09)
(0.0280589 -0.000251071 0.000418793)
(1.25193e-08 -2.74565e-09 1.02324e-09)
(0.0277636 -0.000243701 0.000986473)
(1.14072e-08 -2.49223e-09 -9.03192e-10)
(0.0249325 0.00135059 0.000963985)
(0.00631694 -0.00123646 0.00197967)
(1.27438e-08 3.91336e-11 1.24321e-09)
(1.31061e-08 -2.69811e-09 1.44791e-09)
(0.027443 -4.5573e-05 7.33476e-05)
(1.31061e-08 -2.69811e-09 1.44791e-09)
(0.0280589 -0.000251071 0.000418793)
(0.00260858 -0.000171066 0.000736293)
(0.0303177 -7.35998e-05 0.000121766)
(0.00478097 -0.000425173 0.0024472)
(0.0287273 -5.15597e-05 -0.00214709)
(0.00946769 -0.00113838 0.011082)
(7.27033e-05 4.04738e-07 7.20425e-06)
(0.0284711 3.06958e-05 -0.000146712)
(1.25453e-08 1.40083e-10 2.90528e-09)
(0.00260858 -0.000171066 0.000736293)
(0.0282116 -0.000267982 0.000167454)
(0.00260858 -0.000171066 0.000736293)
(0.0303177 -7.35998e-05 0.000121766)
(0.0112395 -0.00266193 0.00182569)
(0.0414873 0.0012206 -0.00202579)
(0.00738106 -0.00495907 0.00585714)
(0.0115295 -0.000243039 0.000247141)
(0.0319861 -0.000211998 -4.55289e-05)
(0.0103437 -0.000444809 0.000272472)
(0.0325642 -0.000368276 -0.000133016)
(0.00947961 -0.000778383 0.000840014)
(0.0112395 -0.00266193 0.00182569)
(0.0333093 -0.000496733 -0.0010866)
)
;
    }
}


// ************************************************************************* //
