/*--------------------------------*- C++ -*----------------------------------*\
| =========                 |                                                 |
| \\      /  F ield         | OpenFOAM: The Open Source CFD Toolbox           |
|  \\    /   O peration     | Version:  4.x                                   |
|   \\  /    A nd           | Web:      www.OpenFOAM.org                      |
|    \\/     M anipulation  |                                                 |
\*---------------------------------------------------------------------------*/
FoamFile
{
    version     2.0;
    format      ascii;
    class       volScalarField;
    location    "13.5";
    object      Cs;
}
// * * * * * * * * * * * * * * * * * * * * * * * * * * * * * * * * * * * * * //

dimensions      [1 -3 0 0 0 0 0];

internalField   nonuniform List<scalar> 
114
(
334.996
334.989
334.975
334.95
334.918
334.873
334.999
334.998
334.998
334.996
334.99
334.977
334.954
334.922
334.877
334.998
334.995
334.983
334.988
334.989
334.981
334.962
334.936
334.897
334.998
334.994
334.985
334.989
334.992
334.987
334.976
334.959
334.936
334.955
334.912
334.856
334.806
334.999
334.999
334.998
334.994
334.985
334.963
334.926
334.874
334.822
334.999
334.998
334.997
334.995
334.988
334.97
334.938
334.892
334.841
334.999
334.998
334.997
334.996
334.993
334.985
334.97
334.948
334.918
334.876
334.85
335
334.999
334.999
334.995
334.987
334.968
334.943
334.907
334.872
334.999
334.999
334.999
334.996
334.989
334.971
334.944
334.908
334.874
334.999
334.999
334.999
334.997
334.994
334.987
334.974
334.953
334.923
335
334.999
334.999
334.996
334.991
334.977
334.963
334.945
334.999
334.999
334.998
334.996
334.992
334.981
334.966
335
335
334.999
334.998
334.996
334.992
)
;

boundaryField
{
    inlet
    {
        type            calculated;
        value           uniform 335;
    }
    outlet
    {
        type            calculated;
        value           nonuniform 0();
    }
    wall
    {
        type            calculated;
        value           nonuniform List<scalar> 
66
(
334.999
334.998
334.998
334.998
334.995
334.994
334.998
334.983
334.985
334.996
334.996
334.988
334.989
334.989
334.99
334.989
334.992
334.975
334.977
334.981
334.987
334.95
334.954
334.962
334.976
334.918
334.922
334.936
334.959
334.873
334.877
334.897
334.936
334.998
334.999
334.999
335
334.994
334.998
334.999
335
334.985
334.997
334.999
334.999
334.989
334.996
334.997
334.998
334.992
334.993
334.994
334.996
334.987
334.985
334.987
334.992
334.976
334.97
334.974
334.959
334.948
334.953
334.936
334.918
334.923
)
;
    }
    procBoundary2to0
    {
        type            processor;
        value           nonuniform List<scalar> 
44
(
334.996
334.989
334.977
334.955
334.923
334.88
335
334.999
334.998
334.998
334.993
334.981
334.96
334.922
334.872
334.824
335
334.999
334.998
334.993
334.981
334.981
334.955
334.918
334.893
334.865
335
335
334.999
334.993
334.981
334.955
334.918
334.918
334.932
334.912
335
334.999
334.999
334.996
334.988
334.972
334.953
334.932
)
;
    }
    procBoundary2to3
    {
        type            processor;
        value           nonuniform List<scalar> 
12
(
334.817
334.819
334.847
334.907
334.777
334.782
334.792
334.882
334.851
334.858
334.853
334.891
)
;
    }
    procBoundary2to6
    {
        type            processor;
        value           nonuniform List<scalar> 
32
(
334.922
334.947
334.927
334.985
334.973
334.959
334.999
334.999
334.999
334.996
334.988
334.975
334.951
334.922
334.947
334.946
334.999
334.999
334.999
334.997
334.992
334.983
334.947
334.985
334.969
334.999
334.999
334.999
334.998
334.997
334.985
334.993
)
;
    }
}


// ************************************************************************* //
