/*--------------------------------*- C++ -*----------------------------------*\
| =========                 |                                                 |
| \\      /  F ield         | OpenFOAM: The Open Source CFD Toolbox           |
|  \\    /   O peration     | Version:  4.x                                   |
|   \\  /    A nd           | Web:      www.OpenFOAM.org                      |
|    \\/     M anipulation  |                                                 |
\*---------------------------------------------------------------------------*/
FoamFile
{
    version     2.0;
    format      ascii;
    class       volScalarField;
    location    "13.5";
    object      Deff;
}
// * * * * * * * * * * * * * * * * * * * * * * * * * * * * * * * * * * * * * //

dimensions      [0 2 -1 0 0 0 0];

internalField   nonuniform List<scalar> 
114
(
9.91661e-08
9.91502e-08
9.92399e-08
9.91192e-08
9.92381e-08
9.91321e-08
9.93613e-08
9.92275e-08
9.92341e-08
9.92181e-08
9.90921e-08
9.91368e-08
9.90085e-08
9.90052e-08
9.90492e-08
9.94493e-08
9.92748e-08
9.92534e-08
9.92263e-08
9.92594e-08
9.92127e-08
9.92731e-08
9.91255e-08
9.90342e-08
9.95029e-08
9.94249e-08
9.93334e-08
9.93283e-08
9.94076e-08
9.93972e-08
9.94321e-08
9.92697e-08
9.92472e-08
9.85738e-08
9.84806e-08
9.86683e-08
9.85171e-08
9.90743e-08
9.8927e-08
9.88023e-08
9.87327e-08
9.86824e-08
9.86588e-08
9.84931e-08
9.85722e-08
9.86441e-08
9.90971e-08
9.88743e-08
9.87664e-08
9.87386e-08
9.87413e-08
9.87228e-08
9.86867e-08
9.86449e-08
9.86404e-08
9.9176e-08
9.90789e-08
9.89133e-08
9.89095e-08
9.88869e-08
9.88989e-08
9.88668e-08
9.88124e-08
9.88262e-08
9.83062e-08
9.82654e-08
9.87622e-08
9.87402e-08
9.85998e-08
9.84857e-08
9.84479e-08
9.83395e-08
9.82253e-08
9.83042e-08
9.83415e-08
9.88803e-08
9.8721e-08
9.85433e-08
9.83981e-08
9.84406e-08
9.84203e-08
9.83158e-08
9.83213e-08
9.82532e-08
9.8952e-08
9.87359e-08
9.86613e-08
9.85637e-08
9.86451e-08
9.85253e-08
9.84095e-08
9.85089e-08
9.83313e-08
9.86364e-08
9.84168e-08
9.82765e-08
9.82482e-08
9.82056e-08
9.8176e-08
9.81173e-08
9.80919e-08
9.86295e-08
9.84767e-08
9.831e-08
9.82996e-08
9.8225e-08
9.81835e-08
9.81031e-08
9.87826e-08
9.8579e-08
9.84716e-08
9.83549e-08
9.83687e-08
9.82855e-08
)
;

boundaryField
{
    inlet
    {
        type            calculated;
        value           uniform 0;
    }
    outlet
    {
        type            calculated;
        value           nonuniform 0();
    }
    wall
    {
        type            calculated;
        value           uniform 0;
    }
    procBoundary2to0
    {
        type            processor;
        value           uniform 0;
    }
    procBoundary2to3
    {
        type            processor;
        value           uniform 0;
    }
    procBoundary2to6
    {
        type            processor;
        value           uniform 0;
    }
}


// ************************************************************************* //
