/*--------------------------------*- C++ -*----------------------------------*\
| =========                 |                                                 |
| \\      /  F ield         | OpenFOAM: The Open Source CFD Toolbox           |
|  \\    /   O peration     | Version:  4.x                                   |
|   \\  /    A nd           | Web:      www.OpenFOAM.org                      |
|    \\/     M anipulation  |                                                 |
\*---------------------------------------------------------------------------*/
FoamFile
{
    version     2.0;
    format      ascii;
    class       volScalarField;
    location    "13.5";
    object      KslNext;
}
// * * * * * * * * * * * * * * * * * * * * * * * * * * * * * * * * * * * * * //

dimensions      [1 -3 -1 0 0 0 0];

internalField   nonuniform List<scalar> 
114
(
5596.59
3369.16
5075.9
3149.74
4484.52
2973.54
3601.45
6897.2
3476.7
5843.54
3343.73
5173.16
3163.55
4714.72
3037.26
3536.71
6527.04
3353.69
5343.3
3182.75
4604.43
2972.69
4169.49
2876.09
3487.55
6014.36
3236.26
4837.15
3046.65
4132.29
2751.17
3566
2570.87
10266.8
4009.35
13425.6
4014.21
3647.86
8000.34
3772.56
8775.1
3832.51
10127.5
3933.81
12793.2
3918.71
3602.09
7709.6
3700.65
7871.68
3690.56
8055.33
3746.75
9282.18
3785.59
3524.12
6630.73
3455.59
5849.29
3300.98
5310.59
3181.63
4948.01
3045.17
272834
4224.58
3709.84
8856.29
3967.75
12359.3
4050.48
18134
3748.81
12595
3973.34
3616.4
8362.89
3818.38
10252.6
3900.89
13742
4021.62
21298.4
4106.29
3542.4
7140.6
3551
6771.83
3437.2
6290.69
3418.67
5878.9
3382.91
3714.85
8774.84
3965.65
10553.1
4029.16
10777.9
3923.84
14481
3643.96
8382.51
3860.61
10103.9
3919.44
12682.7
3921.49
3532.83
6938.38
3551.87
6641.94
3474.07
6349.07
)
;

boundaryField
{
    inlet
    {
        type            zeroGradient;
    }
    outlet
    {
        type            zeroGradient;
    }
    wall
    {
        type            zeroGradient;
    }
    procBoundary2to0
    {
        type            processor;
        value           uniform 0;
    }
    procBoundary2to3
    {
        type            processor;
        value           uniform 0;
    }
    procBoundary2to6
    {
        type            processor;
        value           uniform 0;
    }
}


// ************************************************************************* //
