/*--------------------------------*- C++ -*----------------------------------*\
| =========                 |                                                 |
| \\      /  F ield         | OpenFOAM: The Open Source CFD Toolbox           |
|  \\    /   O peration     | Version:  4.x                                   |
|   \\  /    A nd           | Web:      www.OpenFOAM.org                      |
|    \\/     M anipulation  |                                                 |
\*---------------------------------------------------------------------------*/
FoamFile
{
    version     2.0;
    format      ascii;
    class       volScalarField;
    location    "13.5";
    object      particleRelTemp;
}
// * * * * * * * * * * * * * * * * * * * * * * * * * * * * * * * * * * * * * //

dimensions      [0 0 0 0 0 0 0];

internalField   nonuniform List<scalar> 
114
(
4.65775e-08
5.70297e-09
-1.08933e-08
-3.11912e-08
-4.282e-08
-4.83108e-08
2.62836e-08
8.04494e-08
1.13654e-07
9.22916e-08
3.30747e-08
1.30399e-09
-1.2545e-08
-2.38818e-08
-3.76001e-08
3.13146e-08
1.28569e-07
1.61044e-07
1.33459e-07
5.60895e-08
9.92829e-09
-9.43836e-10
-6.82016e-09
-2.5658e-08
5.05199e-08
1.24215e-07
1.66357e-07
1.33068e-07
5.30567e-08
7.22997e-09
-1.48976e-09
-8.92155e-09
-2.50004e-08
-1.01876e-08
-2.26277e-08
-3.48799e-08
-2.49662e-08
2.81981e-09
6.37518e-08
8.49458e-08
6.76698e-08
3.5473e-08
1.70407e-09
-5.56195e-09
-1.26496e-08
-2.00454e-08
2.21868e-08
9.53063e-08
1.2322e-07
9.3454e-08
3.96423e-08
8.09355e-09
5.48632e-09
7.09788e-09
-7.32605e-09
3.43435e-08
1.23398e-07
1.32219e-07
9.99695e-08
3.90812e-08
7.56832e-09
2.39961e-09
9.86224e-09
1.00029e-09
-9.39476e-09
4.94352e-09
-1.4402e-08
3.39102e-08
4.30517e-08
3.46791e-08
1.72434e-08
2.21525e-09
2.00036e-09
2.8615e-09
5.3491e-09
-7.59879e-09
3.96963e-08
6.07414e-08
4.24535e-08
1.16296e-08
-3.63041e-09
4.64797e-09
1.55113e-08
8.20936e-09
9.94584e-09
4.61685e-08
5.67546e-08
3.17633e-08
-7.60014e-10
-8.51569e-09
2.96352e-09
2.08084e-08
5.903e-09
-2.87696e-08
-1.17784e-08
3.58448e-09
-2.1541e-09
4.09109e-10
-4.2733e-09
7.49443e-10
1.4414e-08
-3.36237e-08
4.30077e-09
3.66663e-09
-6.66614e-09
-1.42607e-08
-1.43042e-08
-8.86558e-09
-2.91341e-08
9.4212e-09
1.00194e-08
-1.53274e-08
-2.71135e-08
-3.19704e-08
)
;

boundaryField
{
    inlet
    {
        type            calculated;
        value           nonuniform List<scalar> 
12
(
2.62836e-08
3.13146e-08
5.05199e-08
2.81981e-09
2.21868e-08
3.43435e-08
-1.4402e-08
-7.59879e-09
9.94584e-09
-2.87696e-08
-3.36237e-08
-2.91341e-08
)
;
    }
    outlet
    {
        type            calculated;
        value           nonuniform 0();
    }
    wall
    {
        type            calculated;
        value           nonuniform List<scalar> 
66
(
2.62836e-08
3.13146e-08
5.05199e-08
8.04494e-08
1.28569e-07
1.24215e-07
1.13654e-07
1.61044e-07
1.66357e-07
4.65775e-08
9.22916e-08
1.33459e-07
1.33068e-07
5.70297e-09
3.30747e-08
5.60895e-08
5.30567e-08
-1.08933e-08
1.30399e-09
9.92829e-09
7.22997e-09
-3.11912e-08
-1.2545e-08
-9.43836e-10
-1.48976e-09
-4.282e-08
-2.38818e-08
-6.82016e-09
-8.92155e-09
-4.83108e-08
-3.76001e-08
-2.5658e-08
-2.50004e-08
5.05199e-08
3.43435e-08
9.94584e-09
-2.91341e-08
1.24215e-07
1.23398e-07
4.61685e-08
9.4212e-09
1.66357e-07
1.32219e-07
5.67546e-08
1.00194e-08
1.33068e-07
9.99695e-08
3.17633e-08
-1.53274e-08
5.30567e-08
3.90812e-08
-7.60014e-10
-2.71135e-08
7.22997e-09
7.56832e-09
-8.51569e-09
-3.19704e-08
-1.48976e-09
2.39961e-09
2.96352e-09
-8.92155e-09
9.86224e-09
2.08084e-08
-2.50004e-08
1.00029e-09
5.903e-09
)
;
    }
    procBoundary2to0
    {
        type            processor;
        value           nonuniform List<scalar> 
44
(
3.32692e-09
-9.85991e-09
-2.65693e-08
-4.57068e-08
-5.36715e-08
-5.74602e-08
6.08998e-09
3.88668e-08
6.44823e-08
6.44823e-08
2.94359e-08
1.48306e-08
-2.09578e-08
-4.15932e-08
-4.55408e-08
-3.03337e-08
-4.1306e-09
4.106e-08
4.21494e-08
2.94359e-08
1.48306e-08
1.48306e-08
8.15751e-10
-1.2102e-08
-2.77598e-08
-1.02415e-08
-2.21403e-08
1.73394e-08
2.21722e-08
2.33793e-08
1.07365e-08
8.15751e-10
-1.2102e-08
-1.2102e-08
-6.82107e-09
2.02771e-08
-3.75928e-08
-9.67283e-09
-4.96792e-09
-1.80934e-09
9.41232e-11
-1.22607e-09
-1.03927e-08
-6.82107e-09
)
;
    }
    procBoundary2to3
    {
        type            processor;
        value           nonuniform List<scalar> 
12
(
-3.45476e-08
-3.03421e-08
-3.57844e-08
-4.36798e-08
-2.08087e-09
-1.10658e-08
-2.15458e-08
-3.0605e-08
3.84179e-08
2.053e-08
-6.56454e-10
-2.43147e-08
)
;
    }
    procBoundary2to6
    {
        type            processor;
        value           nonuniform List<scalar> 
32
(
2.84604e-08
4.32388e-09
1.6453e-08
-1.44377e-08
9.722e-09
5.62381e-09
-4.6088e-08
-3.4138e-08
-3.08306e-08
-3.24072e-08
-2.15565e-08
-2.52671e-08
-2.13696e-08
2.84604e-08
4.32388e-09
-1.00131e-08
-4.38175e-08
-3.03642e-08
-3.12588e-08
-4.21912e-08
-4.25187e-08
-3.89827e-08
4.32388e-09
-1.44377e-08
-3.24346e-08
-4.15565e-08
-2.56281e-08
-2.94548e-08
-4.31486e-08
-5.32517e-08
-1.44377e-08
-4.86453e-08
)
;
    }
}


// ************************************************************************* //
