/*--------------------------------*- C++ -*----------------------------------*\
| =========                 |                                                 |
| \\      /  F ield         | OpenFOAM: The Open Source CFD Toolbox           |
|  \\    /   O peration     | Version:  4.x                                   |
|   \\  /    A nd           | Web:      www.OpenFOAM.org                      |
|    \\/     M anipulation  |                                                 |
\*---------------------------------------------------------------------------*/
FoamFile
{
    version     2.0;
    format      ascii;
    class       volScalarField;
    location    "13.5";
    object      pSmooth;
}
// * * * * * * * * * * * * * * * * * * * * * * * * * * * * * * * * * * * * * //

dimensions      [1 -1 -2 0 0 0 0];

internalField   nonuniform List<scalar> 
114
(
149.482
154.173
131.837
140.47
111.448
122.872
170.686
162.124
164.359
150.018
154.41
132.107
140.396
111.019
122.429
169.859
161.482
162.175
149.771
153.672
131.777
139.846
110.462
121.249
170.266
162.27
163.467
150.471
153.898
131.757
139.623
110.088
120.563
132.606
140.82
111.875
122.959
171.758
162.851
165.479
150.331
155.171
132.661
140.864
111.356
122.719
171.387
162.617
164.877
150.221
154.847
132.366
140.273
110.702
121.388
171.476
163.082
165.343
150.716
154.8
132.204
139.791
110.114
120.549
110.513
120.782
173.098
163.709
166.399
151.185
156.207
133.412
140.711
109.962
120.987
172.767
163.455
165.786
150.625
155.763
132.756
140.392
110.235
120.728
172.698
163.634
165.945
150.883
155.641
132.63
139.92
109.81
120.153
173.758
164.16
166.759
151.178
155.924
133.295
139.664
110.226
173.73
164.17
166.836
151.171
156.14
132.995
140.01
173.479
164.101
166.67
151.184
155.711
132.655
)
;

boundaryField
{
    inlet
    {
        type            zeroGradient;
    }
    outlet
    {
        type            fixedValue;
        value           nonuniform 0();
    }
    wall
    {
        type            zeroGradient;
    }
    procBoundary2to0
    {
        type            processor;
        value           nonuniform List<scalar> 
44
(
149.402
154.457
132.306
141.044
112.358
124.219
170.229
161.475
163.772
163.772
149.837
155.074
132.818
141.435
112.382
123.991
171.305
162.176
164.844
149.837
155.074
155.074
132.923
140.428
111.5
122.448
172.576
163.038
165.901
150.442
155.849
132.923
140.428
140.428
110.459
121.196
173.428
163.77
166.611
151.028
156.382
133.506
140.197
110.459
)
;
    }
    procBoundary2to3
    {
        type            processor;
        value           nonuniform List<scalar> 
12
(
87.173
86.1218
84.9555
83.9441
86.648
85.8602
84.728
83.6767
85.4396
84.134
83.9764
83.336
)
;
    }
    procBoundary2to6
    {
        type            processor;
        value           nonuniform List<scalar> 
32
(
121.094
109.909
120.226
139.44
109.655
119.749
175.222
165.447
167.979
153.235
157.431
136.898
140.974
121.094
109.909
103.574
174.833
165.079
167.711
151.852
156.464
133.39
109.909
139.44
139.707
174.666
165.167
167.715
152.007
156.582
139.44
133.139
)
;
    }
}


// ************************************************************************* //
