/*--------------------------------*- C++ -*----------------------------------*\
| =========                 |                                                 |
| \\      /  F ield         | OpenFOAM: The Open Source CFD Toolbox           |
|  \\    /   O peration     | Version:  4.x                                   |
|   \\  /    A nd           | Web:      www.OpenFOAM.org                      |
|    \\/     M anipulation  |                                                 |
\*---------------------------------------------------------------------------*/
FoamFile
{
    version     2.0;
    format      ascii;
    class       volScalarField;
    location    "13.5";
    object      Sm;
}
// * * * * * * * * * * * * * * * * * * * * * * * * * * * * * * * * * * * * * //

dimensions      [1 -3 -1 0 0 0 0];

internalField   nonuniform List<scalar> 
114
(
6.5095e-65
4.88228e-65
2.55742e-65
4.88244e-65
2.2475e-65
2.63502e-65
5.73462e-65
6.50924e-65
5.11431e-65
3.79708e-65
6.19961e-65
4.41734e-65
6.19984e-65
6.12238e-65
3.95253e-65
4.02968e-65
5.65659e-65
4.57163e-65
4.95922e-65
3.87471e-65
5.19228e-65
2.7899e-65
4.72734e-65
5.26994e-65
4.41718e-65
4.26189e-65
4.64917e-65
4.5718e-65
3.3322e-65
3.79736e-65
2.71242e-65
4.49487e-65
3.09995e-65
8.44726e-65
9.7648e-65
5.73497e-65
9.37737e-65
5.42467e-65
6.81929e-65
7.67158e-65
7.74922e-65
7.05204e-65
6.27726e-65
8.98968e-65
7.59476e-65
5.19243e-65
6.04456e-65
8.6014e-65
8.29121e-65
7.59407e-65
7.36193e-65
7.36215e-65
7.05217e-65
7.43961e-65
5.96732e-65
5.8896e-65
5.19176e-65
6.97394e-65
5.81181e-65
6.89704e-65
5.88976e-65
5.88976e-65
6.50965e-65
4.26231e-65
7.59476e-65
7.98219e-65
7.28478e-65
4.95965e-65
5.50207e-65
6.04458e-65
5.57972e-65
7.12971e-65
8.36965e-65
6.58722e-65
4.8823e-65
5.34724e-65
6.04454e-65
7.12936e-65
9.06683e-65
7.28466e-65
6.43228e-65
7.51718e-65
7.43956e-65
8.36959e-65
5.34722e-65
7.51692e-65
6.04446e-65
6.97459e-65
4.64987e-65
6.50983e-65
8.29218e-65
4.95969e-65
8.91208e-65
4.8049e-65
8.13726e-65
8.36963e-65
6.58722e-65
6.74219e-65
5.96722e-65
6.27724e-65
7.74957e-65
6.89737e-65
6.89718e-65
8.36962e-65
5.81229e-65
7.20731e-65
6.89731e-65
8.36972e-65
5.26989e-65
6.50967e-65
6.27719e-65
7.12983e-65
5.50245e-65
6.35494e-65
)
;

boundaryField
{
    inlet
    {
        type            calculated;
        value           uniform 0;
    }
    outlet
    {
        type            calculated;
        value           nonuniform 0();
    }
    wall
    {
        type            calculated;
        value           uniform 0;
    }
    procBoundary2to0
    {
        type            processor;
        value           nonuniform List<scalar> 
44
(
4.72731e-65
4.26238e-65
4.33992e-65
3.255e-65
4.49504e-65
6.89763e-65
2.86733e-65
4.41716e-65
3.25473e-65
3.25473e-65
4.72718e-65
8.98955e-65
6.58736e-65
8.29246e-65
6.04502e-65
4.95999e-65
8.0597e-65
6.12207e-65
6.12205e-65
4.72718e-65
8.98955e-65
8.98955e-65
7.12969e-65
7.12979e-65
6.19988e-65
4.57235e-65
7.28484e-65
7.59462e-65
7.67206e-65
8.13703e-65
8.21461e-65
7.12969e-65
7.12979e-65
7.12979e-65
5.42481e-65
2.32484e-65
5.26996e-65
5.8898e-65
7.82722e-65
9.22214e-65
4.49482e-65
9.14456e-65
7.12977e-65
5.42481e-65
)
;
    }
    procBoundary2to3
    {
        type            processor;
        value           nonuniform List<scalar> 
12
(
6.97496e-65
5.19243e-65
5.50246e-65
4.65002e-65
7.51722e-65
6.66481e-65
1.03848e-64
7.74992e-65
7.67191e-65
8.98947e-65
5.65732e-65
5.73494e-65
)
;
    }
    procBoundary2to6
    {
        type            processor;
        value           nonuniform List<scalar> 
32
(
6.74204e-65
6.04471e-65
7.1296e-65
5.11489e-65
5.81222e-65
4.95976e-65
1.0385e-64
7.59495e-65
4.95995e-65
7.43991e-65
9.3773e-65
6.12239e-65
7.36237e-65
6.74204e-65
6.04471e-65
6.50978e-65
5.81249e-65
7.90489e-65
6.43242e-65
8.52498e-65
7.36248e-65
7.82746e-65
6.04471e-65
5.11489e-65
7.05244e-65
4.95998e-65
7.20737e-65
5.42493e-65
6.12252e-65
7.59507e-65
5.11489e-65
8.75752e-65
)
;
    }
}


// ************************************************************************* //
