/*--------------------------------*- C++ -*----------------------------------*\
| =========                 |                                                 |
| \\      /  F ield         | OpenFOAM: The Open Source CFD Toolbox           |
|  \\    /   O peration     | Version:  4.x                                   |
|   \\  /    A nd           | Web:      www.OpenFOAM.org                      |
|    \\/     M anipulation  |                                                 |
\*---------------------------------------------------------------------------*/
FoamFile
{
    version     2.0;
    format      ascii;
    class       volScalarField;
    location    "30";
    object      particleRelTemp;
}
// * * * * * * * * * * * * * * * * * * * * * * * * * * * * * * * * * * * * * //

dimensions      [0 0 0 0 0 0 0];

internalField   nonuniform List<scalar> 
108
(
2.02141e-09
2.26936e-09
2.36608e-09
2.35817e-09
1.92422e-09
1.67379e-09
1.34429e-09
8.09648e-10
1.24189e-09
1.22528e-09
1.54733e-09
1.8575e-09
1.59022e-09
1.2837e-09
7.37611e-10
7.92579e-10
5.65199e-10
7.3619e-10
-2.20341e-10
9.3419e-12
3.53128e-10
1.67682e-10
1.50885e-10
-4.26611e-10
-3.44022e-10
-7.90045e-10
-5.18748e-10
-1.65725e-09
-1.4028e-09
-1.9516e-09
-1.23715e-09
-1.06021e-09
-1.59383e-09
-2.10971e-09
-2.05184e-09
-2.20553e-09
3.26188e-09
4.09042e-09
3.74186e-09
3.68931e-09
3.34384e-09
2.82882e-09
2.62288e-09
2.213e-09
2.10193e-09
2.50473e-09
2.96386e-09
3.26751e-09
3.05108e-09
2.52746e-09
2.61431e-09
1.98071e-09
1.64133e-09
1.63855e-09
8.66788e-10
1.52723e-09
1.67877e-09
1.49095e-09
1.28783e-09
8.94988e-10
7.18259e-10
4.24245e-10
4.5571e-10
-2.66249e-10
-1.8062e-10
-1.70359e-10
1.86186e-11
6.53882e-11
-6.03956e-10
-5.30225e-10
-8.25819e-10
-8.47799e-10
4.78919e-09
5.13888e-09
5.34829e-09
4.99466e-09
4.56495e-09
4.26297e-09
3.70683e-09
3.43839e-09
3.29629e-09
3.91225e-09
4.43423e-09
4.69558e-09
4.46971e-09
4.34149e-09
3.73094e-09
3.22291e-09
2.73727e-09
2.53262e-09
2.47714e-09
2.59191e-09
3.20595e-09
3.2552e-09
3.06279e-09
2.55845e-09
1.89062e-09
1.63017e-09
1.35959e-09
1.04887e-09
9.30883e-10
1.34332e-09
1.49848e-09
1.52269e-09
8.28142e-10
5.02424e-10
4.18883e-10
6.40424e-10
)
;

boundaryField
{
    inlet
    {
        type            calculated;
        value           nonuniform 0();
    }
    outlet
    {
        type            calculated;
        value           nonuniform List<scalar> 
12
(
1.24189e-09
7.3619e-10
-5.18748e-10
-2.20553e-09
2.10193e-09
1.63855e-09
4.5571e-10
-8.47799e-10
3.29629e-09
2.53262e-09
1.35959e-09
6.40424e-10
)
;
    }
    wall
    {
        type            calculated;
        value           nonuniform List<scalar> 
63
(
2.02141e-09
1.22528e-09
-2.20341e-10
-1.65725e-09
2.26936e-09
1.54733e-09
9.3419e-12
-1.4028e-09
2.36608e-09
1.8575e-09
3.53128e-10
-1.9516e-09
2.35817e-09
1.59022e-09
1.67682e-10
-1.23715e-09
1.92422e-09
1.2837e-09
1.50885e-10
-1.06021e-09
1.67379e-09
7.37611e-10
-4.26611e-10
-1.59383e-09
1.34429e-09
7.92579e-10
-3.44022e-10
-2.10971e-09
8.09648e-10
5.65199e-10
-7.90045e-10
-2.05184e-09
1.24189e-09
7.3619e-10
-5.18748e-10
-2.20553e-09
-1.65725e-09
-2.66249e-10
1.04887e-09
-1.4028e-09
-1.8062e-10
9.30883e-10
-1.9516e-09
-1.70359e-10
1.34332e-09
-1.23715e-09
1.86186e-11
1.49848e-09
-1.06021e-09
6.53882e-11
1.52269e-09
-1.59383e-09
-6.03956e-10
8.28142e-10
-2.10971e-09
-5.30225e-10
5.02424e-10
-2.05184e-09
-8.25819e-10
4.18883e-10
-2.20553e-09
-8.47799e-10
6.40424e-10
)
;
    }
    procBoundary3to1
    {
        type            processor;
        value           nonuniform List<scalar> 
27
(
1.96731e-09
1.91708e-09
1.94911e-09
2.0106e-09
1.6156e-09
1.15332e-09
8.46836e-10
2.70152e-10
5.51487e-10
3.41225e-09
3.15379e-09
3.30211e-09
3.03987e-09
2.94809e-09
2.63263e-09
2.18705e-09
2.13369e-09
2.16438e-09
4.27464e-09
4.8796e-09
4.77215e-09
4.99966e-09
4.60637e-09
4.08274e-09
3.44755e-09
3.416e-09
3.11814e-09
)
;
    }
    procBoundary3to2
    {
        type            processor;
        value           nonuniform List<scalar> 
12
(
1.14941e-09
6.10056e-10
-4.82348e-10
-1.86032e-09
2.66314e-09
2.00756e-09
5.98508e-10
-9.5638e-10
4.02871e-09
2.9843e-09
1.81063e-09
3.64635e-10
)
;
    }
    procBoundary3to7
    {
        type            processor;
        value           nonuniform List<scalar> 
36
(
5.17432e-09
5.59333e-09
5.75959e-09
5.56035e-09
5.10302e-09
4.63154e-09
4.12454e-09
3.82015e-09
3.65901e-09
4.47603e-09
5.02948e-09
5.29958e-09
5.15712e-09
4.84346e-09
4.23547e-09
3.66226e-09
3.16872e-09
3.12689e-09
3.13023e-09
3.41067e-09
3.70741e-09
3.66539e-09
3.52804e-09
2.68273e-09
2.32958e-09
2.16425e-09
2.01527e-09
1.65994e-09
1.84453e-09
2.10759e-09
2.17067e-09
2.07107e-09
1.4293e-09
1.09604e-09
7.31769e-10
8.84126e-10
)
;
    }
}


// ************************************************************************* //
