/*--------------------------------*- C++ -*----------------------------------*\
| =========                 |                                                 |
| \\      /  F ield         | OpenFOAM: The Open Source CFD Toolbox           |
|  \\    /   O peration     | Version:  4.x                                   |
|   \\  /    A nd           | Web:      www.OpenFOAM.org                      |
|    \\/     M anipulation  |                                                 |
\*---------------------------------------------------------------------------*/
FoamFile
{
    version     2.0;
    format      ascii;
    class       volVectorField;
    location    "30";
    object      U;
}
// * * * * * * * * * * * * * * * * * * * * * * * * * * * * * * * * * * * * * //

dimensions      [0 1 -1 0 0 0 0];

internalField   nonuniform List<vector> 
108
(
(0.0217771 -6.40681e-06 -0.000141047)
(0.0386514 0.000145528 -0.000615948)
(0.0220605 0.000300508 -0.00022687)
(0.0401078 0.000204933 -6.4737e-05)
(0.0207915 -2.73746e-05 -0.000187288)
(0.0405733 -0.0001751 0.00147594)
(0.015842 -0.00101473 -0.000536462)
(0.0389795 -0.000545924 0.00384658)
(0.0052111 -0.00239624 -0.001235)
(0.0187924 1.00196e-05 -0.000220347)
(0.0368088 -3.53463e-05 -0.000355799)
(0.0185779 0.000319212 -0.000253907)
(0.0380331 0.000106868 0.000256664)
(0.0170734 0.000913543 -0.0002105)
(0.0385559 0.000519572 0.00168965)
(0.0125058 0.00221851 -0.000407355)
(0.036817 1.65552e-05 0.0040797)
(0.0047662 0.00322254 -0.00179258)
(0.0221411 0.000378276 -0.000178916)
(0.0391268 0.000402344 -0.000363541)
(0.0224424 0.000386805 0.000137416)
(0.0410078 0.000128922 0.000195888)
(0.0213305 0.00132668 0.000702611)
(0.0432268 -6.45248e-05 0.00159792)
(0.0173579 0.00359902 0.00114761)
(0.0467018 -0.00221813 0.00333815)
(0.00791562 0.00917784 -0.000693769)
(0.0286 -0.000117932 -0.000368607)
(0.0435348 -2.65297e-05 -0.000406506)
(0.0294934 -0.000396675 -0.000223249)
(0.0459796 -0.000433067 -6.08648e-05)
(0.0287896 -8.00577e-05 -2.97183e-05)
(0.0493728 -0.00058969 0.000766645)
(0.0253583 0.00111576 0.000496501)
(0.056622 -0.00138538 0.00260099)
(0.0146231 0.00573912 -0.0151994)
(0.00634942 0.000105724 -0.000695447)
(0.0313609 0.000490858 -0.000222478)
(0.0043304 0.000213955 -0.00068855)
(0.0319418 0.000298923 0.000688949)
(0.00266663 0.000263338 -0.000710721)
(0.0319698 -0.000296389 0.00265484)
(0.00212292 0.000432773 -0.000979793)
(0.0314543 -0.00237994 0.00756446)
(0.00387983 0.00183297 -0.00340633)
(0.00592082 -2.37039e-06 -0.000460224)
(0.0314129 0.000293645 -0.000381886)
(0.00511086 0.000259569 -0.000603039)
(0.0321583 0.000156772 0.000491507)
(0.00430278 0.000599326 -0.000801111)
(0.0324347 -5.83161e-05 0.00195962)
(0.00364096 0.00136267 -0.000961241)
(0.0316082 -0.0020486 0.0044223)
(0.0034723 0.00441687 -0.00244065)
(0.00859415 0.000134556 -0.000584457)
(0.032935 0.000324842 -0.000586926)
(0.00785211 0.000220282 -0.000717795)
(0.0348143 -0.000317829 0.000534218)
(0.00727224 0.000748 -0.00108426)
(0.0378013 -0.00148533 0.00267197)
(0.007477 0.00256504 -0.00212292)
(0.0427886 -0.00477149 0.00659383)
(0.00636062 0.0132689 -0.00905865)
(0.0203355 -0.000213251 -0.00091516)
(0.038005 3.40132e-05 -0.000753159)
(0.0203329 -0.00057996 -0.00105918)
(0.0401335 -0.000501599 -0.000230834)
(0.0192661 -0.000570507 -0.00145081)
(0.0439662 -0.00115008 0.000928479)
(0.0164624 0.000427633 -0.00172808)
(0.0535056 -0.00204256 0.00365473)
(0.00926778 0.00718013 -0.0166345)
(0.000119969 -1.67582e-06 -3.68726e-05)
(0.0282492 -0.000258268 0.000318064)
(4.8038e-09 2.33757e-09 -9.01545e-10)
(0.0278761 -0.000223195 0.000869651)
(7.74269e-09 -1.16429e-09 -9.89697e-09)
(0.0271928 -0.000406666 0.00178131)
(0.000305087 -1.19261e-06 -0.000171871)
(0.024879 -0.000680574 0.00502232)
(0.00770218 0.000664527 -0.00340053)
(0.00198749 9.40713e-05 -0.000367331)
(0.0295622 -0.000306678 -4.71208e-05)
(0.000530728 5.7165e-05 -0.000144503)
(0.0297327 0.000142515 0.000838643)
(0.000142831 2.97187e-05 -5.94466e-05)
(0.030363 0.000706691 0.00268756)
(0.000705086 0.000278951 -0.000399741)
(0.0301806 -0.00100212 0.00570073)
(0.00329166 0.00168177 -0.00208094)
(0.00187883 9.86541e-05 -0.000209044)
(0.0301563 0.000210186 -8.40757e-05)
(0.000204466 1.72009e-05 -3.61253e-05)
(0.0306984 -0.000291085 0.000567849)
(0.000702201 0.000146446 -0.000197587)
(0.0311046 -0.000852703 0.00151208)
(0.00410627 0.00193423 -0.00167883)
(0.0292448 -0.00292591 0.00332672)
(0.00840574 0.0114035 -0.00511671)
(0.0158238 0.000219788 -0.00122601)
(0.0350717 0.000266642 -0.000757957)
(0.0157725 0.000225845 -0.00170655)
(0.0369225 -0.00037614 -0.000518753)
(0.0150372 0.000923129 -0.00282888)
(0.0401903 -0.000952395 -7.18079e-05)
(0.0135227 0.00299417 -0.00491858)
(0.048195 -0.0026868 0.00193733)
(0.0076522 0.0108003 -0.00915392)
)
;

boundaryField
{
    inlet
    {
        type            fixedValue;
        value           nonuniform 0();
    }
    outlet
    {
        type            zeroGradient;
    }
    wall
    {
        type            fixedValue;
        value           uniform (0 0 0);
    }
    procBoundary3to1
    {
        type            processor;
        value           nonuniform List<vector> 
27
(
(0.0206547 -1.85665e-05 -0.000536615)
(0.037631 9.89439e-05 -0.000777823)
(0.0203303 0.000163661 -0.000725482)
(0.0390681 0.000402773 -0.000135114)
(0.0185358 -0.000439312 -0.00154358)
(0.0407639 0.000453528 0.00118872)
(0.0151435 -0.00243618 -0.00347105)
(0.0445266 0.00156119 0.0047306)
(0.00832419 -0.00766086 -0.00886492)
(0.00403844 9.09276e-05 -0.000265615)
(0.0304255 -0.000148382 0.000204272)
(0.00128407 4.04193e-05 -0.000130646)
(0.0304819 0.000254417 0.00108039)
(6.46521e-09 -3.91555e-09 -1.0595e-08)
(0.0293204 0.000631836 0.00255532)
(0.000741213 -0.00013439 -0.000274225)
(0.0264158 0.00194512 0.00494462)
(0.00739052 -0.00478204 -0.00715971)
(0.000532217 -4.6994e-05 -0.000134944)
(0.0289333 0.000171019 0.00041677)
(0.000488932 -7.37244e-05 -0.000172948)
(0.0294103 0.000225998 0.000676182)
(0.00128705 -0.000384539 -0.000614055)
(0.0294595 0.000334601 0.00171349)
(0.00376417 -0.00215354 -0.00221244)
(0.0280206 0.00313872 0.00402475)
(0.00938961 -0.00821944 -0.00399033)
)
;
    }
    procBoundary3to2
    {
        type            processor;
        value           nonuniform List<vector> 
12
(
(0.037033 2.29959e-05 -0.000753487)
(0.0353056 -2.39403e-05 -0.000660819)
(0.0371834 0.000503216 -0.000659199)
(0.0409389 0.000269487 -0.000568354)
(0.0306421 0.000338468 -0.000718512)
(0.030332 9.38638e-05 -0.000820704)
(0.0316467 0.000570108 -0.00110665)
(0.0362128 0.000413057 -0.00118085)
(0.0281202 -0.000191789 -0.000461663)
(0.0289966 -0.000351776 -0.000494603)
(0.0294477 0.000378324 -0.000285184)
(0.0337739 0.000523676 -0.000833098)
)
;
    }
    procBoundary3to7
    {
        type            processor;
        value           nonuniform List<vector> 
36
(
(3.34302e-08 3.88355e-09 -6.08422e-09)
(0.0278166 0.000234436 -0.000110506)
(6.4361e-09 3.56185e-09 -1.4621e-09)
(0.0281182 0.000545688 0.000372492)
(6.48372e-09 2.82157e-09 -5.14312e-09)
(0.0283796 0.000512125 0.00132602)
(5.52458e-09 2.3635e-09 -8.27604e-09)
(0.0257274 -0.00142454 0.0031931)
(0.00724177 0.00128986 -0.00071034)
(0.00120916 0.000220369 -0.00018958)
(0.0277613 0.000231966 -5.88185e-05)
(0.000448031 0.000121955 -0.000100234)
(0.0274236 0.000155136 0.000146178)
(0.00142351 0.000529979 -0.000366987)
(0.0270148 4.89466e-05 0.000906673)
(0.0049944 0.00252464 -0.00149836)
(0.0251834 -0.00246919 0.0029219)
(0.0116325 0.00783443 -0.00326786)
(0.00586605 0.00060645 -0.000567058)
(0.0305576 0.000306024 -0.000137838)
(0.00529292 0.000837378 -0.000773844)
(0.0314557 -0.00034643 -0.00028434)
(0.00507435 0.00134887 -0.00117376)
(0.0329563 -0.00185217 -9.78817e-05)
(0.00533068 0.00247331 -0.00195617)
(0.0346181 -0.0050806 0.00285716)
(0.00482036 0.00455183 -0.00230307)
(0.0155656 5.29271e-05 -0.00125025)
(0.0344476 7.22893e-05 -0.000997733)
(0.0149812 2.24375e-05 -0.0016764)
(0.0352337 -0.000194271 -0.000930006)
(0.0133046 8.56875e-05 -0.00245679)
(0.0358812 -0.000407915 -0.000246068)
(0.00986132 0.00016833 -0.00371514)
(0.035398 -0.000602901 0.00291098)
(0.00421112 -0.000111755 -0.00392531)
)
;
    }
}


// ************************************************************************* //
