/*--------------------------------*- C++ -*----------------------------------*\
| =========                 |                                                 |
| \\      /  F ield         | OpenFOAM: The Open Source CFD Toolbox           |
|  \\    /   O peration     | Version:  4.x                                   |
|   \\  /    A nd           | Web:      www.OpenFOAM.org                      |
|    \\/     M anipulation  |                                                 |
\*---------------------------------------------------------------------------*/
FoamFile
{
    version     2.0;
    format      ascii;
    class       volVectorField;
    location    "30";
    object      Us;
}
// * * * * * * * * * * * * * * * * * * * * * * * * * * * * * * * * * * * * * //

dimensions      [0 1 -1 0 0 0 0];

internalField   nonuniform List<vector> 
108
(
(-7.05756e-09 -4.52117e-09 5.06228e-09)
(-8.36822e-09 -4.00864e-09 5.9699e-09)
(1.15531e-09 -3.85417e-08 1.02154e-09)
(-8.28503e-09 -8.23917e-09 1.39925e-09)
(-1.1127e-08 -2.40764e-09 -6.90888e-09)
(3.25841e-09 -2.80623e-09 -9.9303e-09)
(1.30952e-08 -3.94353e-09 -2.56843e-08)
(1.27786e-07 6.32385e-08 -4.96655e-08)
(-1.09976e-06 3.67008e-08 -6.63724e-08)
(-8.19354e-09 -1.17537e-09 4.03712e-09)
(-1.13337e-08 1.80699e-10 5.09755e-09)
(-9.28902e-09 -3.06173e-09 3.41167e-09)
(-8.10798e-09 5.34777e-10 1.9256e-09)
(-4.56688e-09 -7.1771e-10 -3.41568e-09)
(2.63871e-09 5.6178e-10 -8.87695e-09)
(2.96076e-08 3.01428e-09 -3.74184e-08)
(5.33494e-08 2.88608e-08 -5.26693e-08)
(-1.62504e-06 7.21414e-08 -1.47734e-07)
(-7.58726e-09 -1.19693e-08 4.05177e-09)
(-8.75347e-09 -1.09207e-09 4.39008e-09)
(-7.50888e-09 -1.39059e-09 4.56744e-09)
(-5.41329e-09 -2.15626e-10 2.89668e-09)
(-1.74391e-09 4.5884e-11 -1.96552e-09)
(6.64979e-09 -4.22635e-10 -4.3717e-09)
(1.08651e-08 1.96429e-09 -1.21899e-08)
(2.32166e-08 1.13319e-08 -2.1958e-08)
(9.3401e-09 -2.16112e-08 -2.22454e-08)
(-2.9366e-09 -1.93125e-09 8.88663e-10)
(-5.36079e-09 -1.04034e-09 2.532e-09)
(-5.74221e-09 1.84487e-08 1.03056e-09)
(-2.8732e-09 -5.68792e-10 9.97681e-10)
(-3.11855e-09 6.00594e-10 -5.51215e-10)
(3.10986e-09 -1.05974e-10 -1.82059e-09)
(9.9938e-09 8.95375e-09 -4.108e-09)
(1.25312e-08 3.75694e-09 -4.88922e-09)
(1.54441e-09 4.44628e-07 -2.86905e-08)
(-6.39859e-09 -2.1091e-09 5.75292e-09)
(-7.05915e-09 5.53818e-10 5.56633e-09)
(-7.11855e-09 -2.51396e-09 3.03758e-09)
(-6.23668e-09 -1.32867e-09 3.67142e-10)
(-3.88711e-09 -1.82343e-09 -7.01158e-09)
(1.91984e-09 -2.71984e-09 -1.23065e-08)
(3.96286e-09 9.54505e-10 -2.11036e-08)
(1.02791e-08 8.14786e-09 -3.95397e-08)
(-2.27072e-07 1.41362e-08 -4.79742e-08)
(-6.25954e-09 -1.51227e-09 3.15507e-09)
(-8.39954e-09 -6.02532e-10 4.44986e-09)
(-7.14837e-09 -5.23346e-10 4.16741e-09)
(-5.32308e-09 -3.25715e-10 1.396e-09)
(-8.74025e-10 -1.55751e-09 -3.73617e-09)
(6.07458e-09 -1.88559e-09 -9.46475e-09)
(1.14684e-09 -1.23247e-08 -2.26077e-08)
(8.07796e-09 -3.31831e-09 -3.90096e-08)
(-1.22635e-08 4.46594e-09 -5.68726e-08)
(-5.50965e-09 -1.90214e-09 2.77864e-09)
(-5.46823e-09 -5.28203e-10 3.31017e-09)
(-4.94474e-09 -6.61688e-10 4.37641e-09)
(-3.54873e-09 -4.77115e-10 1.83938e-09)
(1.23902e-09 -1.44685e-09 -2.97698e-09)
(7.04264e-09 -2.46211e-09 -7.60711e-09)
(1.4051e-08 -6.75868e-09 -1.44367e-08)
(1.09746e-08 -2.27706e-10 -1.90974e-08)
(3.33145e-09 1.83112e-09 -2.31771e-08)
(-2.71294e-09 -5.89102e-10 8.38324e-10)
(-4.60942e-09 -9.27374e-10 1.73121e-09)
(-2.94097e-09 -4.19265e-10 1.92431e-09)
(-2.10559e-09 -7.66103e-10 1.1606e-09)
(1.00885e-10 -1.02993e-09 -1.17624e-09)
(2.46047e-09 -9.36269e-10 -3.33867e-09)
(5.12872e-09 4.89746e-10 -5.1e-09)
(5.17941e-09 -1.1323e-09 -6.26285e-09)
(1.58051e-09 1.32728e-09 -1.81085e-08)
(-4.16474e-09 8.76189e-11 2.94513e-09)
(-4.32317e-09 1.8218e-09 3.17407e-09)
(-4.97297e-09 2.30818e-09 2.9774e-09)
(-3.37328e-09 -7.34643e-10 -5.24398e-10)
(-1.19165e-09 -9.85789e-10 -5.04728e-09)
(-1.66996e-09 -3.16783e-10 -7.31744e-09)
(-2.85381e-10 -5.9034e-10 -1.24161e-08)
(-9.35415e-10 2.11482e-10 -1.53916e-08)
(-1.44976e-09 2.15719e-09 -1.09567e-08)
(-4.65042e-09 -1.81231e-09 1.5494e-09)
(-5.09778e-09 5.74992e-10 2.99641e-09)
(-5.7406e-09 6.19526e-10 2.22088e-09)
(-2.999e-09 -4.31716e-11 2.45812e-10)
(-5.34627e-10 -4.86174e-11 -3.20626e-09)
(1.63853e-09 9.28982e-10 -5.72709e-09)
(7.916e-10 1.00595e-09 -1.10908e-08)
(2.20151e-11 -1.82076e-10 -1.67027e-08)
(-2.91427e-09 3.52119e-09 -2.28861e-08)
(-3.4808e-09 -1.10003e-09 1.33091e-09)
(-3.39659e-09 -3.67932e-10 2.24064e-09)
(-3.27351e-09 -1.82764e-09 2.28033e-09)
(-3.17947e-09 -2.9302e-09 -2.35137e-10)
(1.22591e-09 -1.07746e-09 -3.30927e-09)
(4.67463e-09 -4.42329e-12 -5.44248e-09)
(6.86512e-09 1.41156e-09 -9.18498e-09)
(4.43973e-09 2.44353e-09 -1.06308e-08)
(2.8968e-09 -8.8416e-10 -1.09166e-08)
(-1.3963e-09 -1.61273e-10 1.65922e-10)
(-1.74023e-09 -5.83724e-11 6.36748e-10)
(-1.85293e-09 -1.94771e-09 8.77763e-10)
(-7.76422e-10 -1.3274e-09 -2.42371e-10)
(9.327e-10 -8.84857e-10 -1.75851e-09)
(2.83015e-09 -1.70462e-09 -3.15043e-09)
(3.39421e-09 7.42214e-11 -3.2224e-09)
(4.11178e-09 -6.20585e-11 -4.30612e-09)
(2.56768e-09 -1.44396e-09 -6.4407e-09)
)
;

boundaryField
{
    inlet
    {
        type            zeroGradient;
    }
    outlet
    {
        type            zeroGradient;
    }
    wall
    {
        type            zeroGradient;
    }
    procBoundary3to1
    {
        type            processor;
        value           nonuniform List<vector> 
27
(
(-3.8928e-09 -4.89415e-09 5.63066e-09)
(-4.12161e-09 -1.03483e-08 6.68321e-09)
(1.89778e-09 -1.45518e-08 3.75029e-09)
(-1.41237e-08 -3.79788e-09 -5.9031e-10)
(-1.14618e-08 -3.5576e-09 -8.86457e-09)
(2.37487e-09 -2.00008e-09 -9.78742e-09)
(1.25634e-08 -3.01824e-09 -2.16088e-08)
(2.81795e-08 1.01673e-08 -2.88932e-08)
(2.04035e-08 1.74275e-08 -2.80942e-08)
(-2.2825e-09 -3.85039e-10 5.37048e-09)
(-2.27251e-09 -1.03338e-09 6.90616e-09)
(-5.39212e-09 -2.56874e-09 4.09492e-09)
(-8.37105e-09 -3.47788e-09 -3.46218e-10)
(-4.20905e-09 -3.85249e-09 -8.60577e-09)
(1.2284e-09 -4.50248e-09 -1.40395e-08)
(7.68035e-09 -2.77582e-09 -2.14087e-08)
(1.24512e-08 1.13944e-09 -2.44158e-08)
(3.68875e-09 2.31315e-09 -2.51633e-08)
(-6.92835e-10 1.90972e-09 2.81409e-09)
(1.61345e-09 2.60008e-09 3.65097e-09)
(-1.62469e-10 2.8137e-09 3.88948e-09)
(-2.6303e-09 5.06959e-10 -3.73115e-10)
(-1.12634e-09 -1.05181e-09 -5.05456e-09)
(-6.55192e-11 -2.44069e-09 -9.25607e-09)
(1.55375e-09 8.15344e-10 -1.49724e-08)
(-3.83488e-11 -3.82883e-10 -1.21311e-08)
(-2.43859e-09 3.99939e-09 -1.18876e-08)
)
;
    }
    procBoundary3to2
    {
        type            processor;
        value           nonuniform List<vector> 
12
(
(-4.79836e-09 -3.20756e-09 1.93208e-09)
(-5.17688e-09 -2.42921e-09 1.67911e-09)
(-4.32194e-09 -1.82168e-09 1.09799e-09)
(-2.75297e-09 -2.79289e-10 3.12245e-10)
(-3.49717e-09 -2.09814e-09 2.3825e-09)
(-5.00475e-09 -2.01143e-09 2.05911e-09)
(-4.21721e-09 -1.4431e-09 1.48923e-09)
(-1.07904e-09 -9.68012e-11 5.28191e-11)
(-3.32176e-09 -1.24419e-09 2.56295e-09)
(-3.34402e-09 -1.63481e-09 1.39699e-09)
(-2.82466e-09 -7.01387e-10 9.6857e-10)
(-1.28933e-09 -2.18507e-10 2.05526e-10)
)
;
    }
    procBoundary3to7
    {
        type            processor;
        value           nonuniform List<vector> 
36
(
(-3.36216e-09 6.41797e-10 7.71856e-10)
(-4.13796e-09 1.38211e-09 1.2418e-09)
(-3.25069e-09 2.15278e-09 8.38518e-10)
(-2.95505e-09 9.10203e-10 -1.87658e-09)
(-2.66937e-09 1.06652e-09 -2.94543e-09)
(-5.77062e-09 4.67382e-10 -4.57273e-09)
(-3.89098e-09 1.26915e-10 -6.52229e-09)
(-5.18408e-09 2.8803e-10 -6.81361e-09)
(-3.43308e-09 -6.01719e-10 -6.42199e-09)
(-4.05767e-09 -1.03525e-09 3.35179e-11)
(-3.94168e-09 1.05407e-10 1.10583e-09)
(-3.5661e-09 -4.62797e-10 -7.38285e-10)
(-3.09795e-09 -6.01773e-10 -1.26618e-09)
(-9.47638e-10 5.20137e-10 -2.93455e-09)
(-1.22388e-10 2.29041e-10 -4.11757e-09)
(-2.27379e-10 4.38523e-11 -5.78244e-09)
(-1.09623e-09 6.60779e-11 -9.30438e-09)
(-1.33546e-09 -1.54895e-09 -9.88696e-09)
(-3.23277e-09 -1.26152e-09 -4.1198e-10)
(-3.33155e-09 -4.4816e-10 7.70211e-10)
(-2.50399e-09 -1.31017e-09 -6.65021e-10)
(-2.16172e-09 -1.88271e-09 -1.66874e-09)
(-5.02864e-10 -4.08399e-10 -2.67422e-09)
(1.98774e-10 -8.40939e-10 -4.28179e-09)
(1.51536e-09 1.1878e-10 -3.80467e-09)
(-2.23635e-13 5.381e-10 -6.65609e-09)
(4.14946e-09 1.00055e-09 -6.2487e-09)
(-1.21951e-09 -1.02254e-09 -5.33328e-10)
(-1.1327e-09 -4.94863e-10 -3.07667e-10)
(-1.08908e-09 -8.76336e-10 -6.39826e-10)
(-1.38716e-09 -1.08933e-09 -1.27758e-09)
(-4.75991e-10 -5.56487e-10 -1.22687e-09)
(-5.69e-10 -1.11315e-09 -2.42171e-09)
(1.5677e-10 -4.44903e-10 -2.73367e-09)
(8.16961e-10 2.01232e-10 -2.26238e-09)
(2.81269e-09 1.19744e-09 -2.57807e-09)
)
;
    }
}


// ************************************************************************* //
