/*--------------------------------*- C++ -*----------------------------------*\
| =========                 |                                                 |
| \\      /  F ield         | OpenFOAM: The Open Source CFD Toolbox           |
|  \\    /   O peration     | Version:  4.x                                   |
|   \\  /    A nd           | Web:      www.OpenFOAM.org                      |
|    \\/     M anipulation  |                                                 |
\*---------------------------------------------------------------------------*/
FoamFile
{
    version     2.0;
    format      ascii;
    class       volVectorField;
    location    "23";
    object      ddtUrel;
}
// * * * * * * * * * * * * * * * * * * * * * * * * * * * * * * * * * * * * * //

dimensions      [0 1 -2 0 0 0 0];

internalField   nonuniform List<vector> 
114
(
(8.43906e-09 8.44642e-09 -3.1911e-09)
(7.5574e-09 1.25626e-08 -3.33462e-09)
(6.57647e-09 1.76347e-08 -3.15901e-09)
(4.9092e-09 2.31878e-08 -2.47094e-09)
(3.97708e-09 2.74116e-08 -2.10738e-09)
(2.0957e-09 2.91085e-08 -2.22839e-09)
(1.19212e-08 6.08751e-09 -3.61989e-09)
(1.11073e-08 1.01681e-08 -3.96631e-09)
(1.00673e-08 1.55508e-08 -4.0298e-09)
(9.03909e-09 2.26717e-08 -4.02626e-09)
(5.81482e-09 3.07138e-08 -3.78094e-09)
(4.62664e-09 3.73866e-08 -3.62928e-09)
(5.76903e-09 4.11578e-08 -3.57612e-09)
(1.61358e-08 3.76791e-09 -4.64081e-09)
(1.59933e-08 7.57969e-09 -5.28231e-09)
(1.42061e-08 1.37279e-08 -5.30106e-09)
(1.25066e-08 2.22197e-08 -5.1129e-09)
(1.18521e-08 3.38303e-08 -5.47852e-09)
(7.74918e-09 4.7324e-08 -5.83849e-09)
(6.1681e-09 5.99209e-08 -6.16168e-09)
(8.71849e-09 6.80292e-08 -6.3271e-09)
(1.04035e-08 2.47197e-09 -2.38517e-09)
(1.03131e-08 4.14492e-09 -2.54341e-09)
(1.01889e-08 6.76074e-09 -2.63242e-09)
(9.23478e-09 1.07576e-08 -2.89486e-09)
(7.95238e-09 1.61197e-08 -2.86101e-09)
(6.27391e-09 2.27138e-08 -3.03512e-09)
(3.57196e-09 2.99663e-08 -3.00716e-09)
(2.60322e-09 3.62129e-08 -2.97065e-09)
(3.15311e-09 3.98089e-08 -3.02342e-09)
(1.22801e-08 2.49604e-09 -2.99138e-09)
(1.25194e-08 4.47508e-09 -3.11312e-09)
(1.24245e-08 7.83199e-09 -3.30763e-09)
(1.13918e-08 1.32468e-08 -3.52849e-09)
(9.7261e-09 2.0633e-08 -3.60025e-09)
(8.3873e-09 3.01701e-08 -3.84288e-09)
(4.80482e-09 4.11551e-08 -4.11836e-09)
(3.49006e-09 5.13959e-08 -4.28248e-09)
(5.36369e-09 5.77464e-08 -4.34597e-09)
(1.56466e-08 2.46534e-09 -4.17838e-09)
(1.61574e-08 5.07605e-09 -4.51997e-09)
(1.58768e-08 1.00312e-08 -4.73234e-09)
(1.44896e-08 1.81903e-08 -4.83153e-09)
(1.23669e-08 3.01469e-08 -4.91071e-09)
(1.12305e-08 4.65878e-08 -5.39108e-09)
(7.57711e-09 6.67258e-08 -6.41554e-09)
(6.90688e-09 8.7368e-08 -7.17444e-09)
(9.45671e-09 1.01337e-07 -7.71282e-09)
(2.04667e-08 2.46982e-09 -6.94564e-09)
(2.15538e-08 5.92705e-09 -7.40646e-09)
(1.00512e-08 2.86557e-09 -2.22417e-09)
(1.01122e-08 4.75326e-09 -2.35207e-09)
(9.91976e-09 7.84023e-09 -2.56267e-09)
(9.42864e-09 1.28308e-08 -2.84933e-09)
(8.02689e-09 1.9315e-08 -2.83338e-09)
(6.08761e-09 2.73969e-08 -3.15281e-09)
(3.28673e-09 3.65034e-08 -3.35824e-09)
(1.86431e-09 4.48288e-08 -3.49122e-09)
(3.41923e-09 5.04302e-08 -4.29889e-09)
(1.18349e-08 3.00952e-09 -2.67306e-09)
(1.2063e-08 5.37557e-09 -2.82937e-09)
(1.21416e-08 9.49304e-09 -3.09573e-09)
(1.18183e-08 1.61808e-08 -3.3658e-09)
(9.80652e-09 2.52188e-08 -3.55135e-09)
(8.13352e-09 3.72944e-08 -3.96224e-09)
(4.88053e-09 5.16979e-08 -4.4844e-09)
(4.16478e-09 6.57641e-08 -4.84643e-09)
(6.31929e-09 7.51435e-08 -5.23237e-09)
(1.49035e-08 3.37723e-09 -3.78327e-09)
(1.50725e-08 6.50113e-09 -4.10155e-09)
(1.48967e-08 1.25254e-08 -4.32479e-09)
(1.39379e-08 2.25664e-08 -4.56492e-09)
(1.23585e-08 3.78343e-08 -4.87173e-09)
(1.13721e-08 5.96368e-08 -5.70059e-09)
(8.95329e-09 8.78606e-08 -7.11307e-09)
(9.51683e-09 1.1831e-07 -8.46089e-09)
(1.25284e-08 1.40263e-07 -9.56226e-09)
(1.83834e-08 3.9813e-09 -6.35799e-09)
(1.93952e-08 7.90179e-09 -6.63653e-09)
(1.92365e-08 1.66704e-08 -6.54012e-09)
(1.7448e-08 3.28882e-08 -6.55966e-09)
(9.36216e-09 3.13386e-09 -2.01297e-09)
(9.36342e-09 4.98388e-09 -2.19969e-09)
(9.22764e-09 7.8339e-09 -2.52074e-09)
(9.22293e-09 1.39109e-08 -2.72148e-09)
(7.87029e-09 2.1148e-08 -2.85207e-09)
(6.14543e-09 3.02477e-08 -3.30778e-09)
(3.22484e-09 4.07765e-08 -3.5435e-09)
(3.91313e-10 5.07046e-08 -3.98975e-09)
(1.87401e-09 5.88388e-08 -4.95793e-09)
(1.10071e-08 3.36969e-09 -2.40556e-09)
(1.14534e-08 5.77822e-09 -2.59073e-09)
(1.2063e-08 1.00795e-08 -2.99815e-09)
(1.22954e-08 1.7876e-08 -3.24982e-09)
(9.82283e-09 2.79932e-08 -3.57455e-09)
(8.11434e-09 4.17834e-08 -4.17577e-09)
(5.13475e-09 5.87436e-08 -4.75437e-09)
(4.9484e-09 7.57891e-08 -5.46517e-09)
(6.70897e-09 8.76442e-08 -6.13449e-09)
(1.33882e-08 4.04734e-09 -3.48587e-09)
(1.3764e-08 7.32222e-09 -3.83037e-09)
(1.42405e-08 1.39038e-08 -4.10344e-09)
(1.35057e-08 2.53066e-08 -4.37365e-09)
(1.22472e-08 4.28234e-08 -4.93152e-09)
(1.11227e-08 6.84002e-08 -5.97434e-09)
(9.77252e-09 1.02776e-07 -7.61023e-09)
(1.16477e-08 1.41505e-07 -9.60489e-09)
(1.52802e-08 1.70872e-07 -1.12512e-08)
(1.65713e-08 5.21808e-09 -5.79614e-09)
(1.70996e-08 9.61342e-09 -6.3633e-09)
(1.7229e-08 1.90543e-08 -6.3092e-09)
(1.60952e-08 3.73593e-08 -6.39591e-09)
(1.56152e-08 6.77242e-08 -7.19463e-09)
(1.63701e-08 1.1663e-07 -9.39914e-09)
)
;

boundaryField
{
    inlet
    {
        type            calculated;
        value           nonuniform 0();
    }
    outlet
    {
        type            calculated;
        value           nonuniform List<vector> 
12
(
(1.51487e-08 -5.85825e-10 3.06943e-09)
(3.92612e-09 -4.26976e-09 1.91178e-10)
(4.20554e-09 -2.8508e-09 -1.16627e-09)
(3.06017e-09 -3.10258e-09 1.87301e-09)
(5.48494e-09 -2.53936e-09 2.00303e-09)
(2.86614e-09 -6.58898e-11 1.78474e-10)
(2.68768e-09 -2.39232e-09 -3.75358e-09)
(4.32664e-09 -3.5655e-09 4.00425e-09)
(3.16449e-09 -1.37536e-09 1.26138e-09)
(-1.27567e-08 2.17044e-08 -6.08825e-09)
(3.1507e-09 -3.05006e-09 1.12287e-09)
(1.99205e-09 -5.68169e-10 6.28804e-10)
)
;
    }
    wall
    {
        type            calculated;
        value           nonuniform List<vector> 
66
(
(8.72427e-09 -5.87926e-10 -1.01048e-10)
(1.58326e-08 -1.32644e-09 -5.57165e-11)
(1.24412e-08 -1.72984e-09 7.79617e-10)
(1.24468e-08 -2.06584e-10 -9.53927e-11)
(2.49935e-09 -3.56965e-10 1.567e-10)
(5.43588e-09 -1.1786e-09 1.02499e-09)
(6.17829e-09 -2.86815e-09 1.33031e-09)
(6.04651e-09 -5.50652e-09 1.80294e-09)
(-2.85388e-09 -9.63523e-09 -4.1489e-10)
(1.19184e-08 -4.45105e-09 -1.20447e-09)
(1.17138e-08 -8.002e-10 1.7954e-11)
(9.09317e-09 -8.59293e-09 3.53603e-09)
(8.79281e-09 7.48298e-10 -1.16255e-09)
(2.68154e-08 4.97111e-09 -9.86247e-10)
(8.63981e-09 -1.95858e-10 -2.1502e-10)
(5.59008e-09 -1.38621e-09 9.94484e-10)
(3.02678e-09 -2.03798e-10 4.72271e-11)
(8.18028e-09 1.90923e-10 -6.25002e-10)
(8.33822e-09 1.1501e-09 -4.11329e-10)
(3.47342e-09 1.06014e-09 -2.56926e-10)
(1.13961e-08 -6.0388e-10 -1.91246e-09)
(1.04734e-08 -5.64158e-10 -2.22886e-09)
(3.05057e-09 5.69035e-10 2.27832e-10)
(7.29723e-10 4.11868e-10 8.30585e-11)
(-5.04802e-09 6.58533e-10 2.12722e-10)
(-1.1475e-08 1.73305e-10 -1.81144e-10)
(-1.1072e-08 1.82905e-10 3.33054e-10)
(-4.27355e-08 -2.63721e-09 8.25316e-10)
(-1.03281e-08 -1.23222e-09 7.56428e-10)
(-1.22067e-08 -3.83889e-11 3.32594e-10)
(-1.94633e-08 3.49749e-08 -3.78313e-09)
(1.5166e-09 -7.94779e-10 1.17713e-09)
(-3.60951e-10 -7.2598e-10 5.89389e-10)
(2.82366e-09 -8.49169e-10 -1.78459e-09)
(2.41473e-09 -3.67572e-10 -1.18617e-09)
(7.36595e-09 -5.31267e-10 -4.78028e-11)
(1.0529e-08 -5.02693e-11 -5.34645e-10)
(8.04594e-09 1.55448e-10 -5.44429e-11)
(2.17532e-09 -3.19436e-10 1.81724e-10)
(6.61236e-09 -3.09975e-10 4.031e-10)
(5.49569e-09 -2.92963e-10 1.80595e-10)
(-1.10827e-08 -9.49478e-09 -1.8212e-10)
(-4.39749e-09 -1.96892e-09 -1.04857e-09)
(4.53829e-09 -7.18597e-10 -2.97952e-10)
(8.98768e-09 1.27786e-09 -1.91419e-09)
(7.65775e-09 7.41252e-10 -1.16979e-09)
(6.60955e-10 -9.97658e-10 -1.3412e-09)
(4.45173e-09 -2.1202e-10 1.38814e-09)
(6.17297e-09 1.50975e-10 1.11022e-10)
(3.17645e-09 -1.98325e-10 4.52218e-11)
(-6.12629e-09 -2.9301e-09 -2.72853e-09)
(2.05062e-09 -1.09657e-09 -5.05215e-10)
(9.90239e-10 -9.16673e-10 -6.75883e-10)
(6.28711e-09 -7.48089e-10 -1.85772e-09)
(-7.11271e-09 -2.30782e-11 1.35609e-10)
(-1.05289e-08 -3.97169e-10 -2.50028e-10)
(-7.80097e-09 -3.89593e-10 -1.12299e-10)
(-6.42637e-09 7.59132e-10 2.43687e-10)
(-2.0023e-08 -2.42289e-09 -1.42915e-09)
(-1.03437e-08 -1.384e-09 1.9239e-10)
(-1.45088e-08 -2.31572e-09 2.56625e-09)
(-4.24431e-08 -2.65076e-09 8.6679e-10)
(-5.70949e-08 -1.37598e-08 -6.74638e-09)
(-1.48263e-09 -2.62111e-09 3.37125e-10)
(4.40496e-09 1.46906e-09 -8.9934e-09)
(-1.83644e-08 3.31886e-08 -7.79656e-09)
)
;
    }
    procBoundary5to1
    {
        type            processor;
        value           nonuniform List<vector> 
32
(
(4.78875e-09 6.54341e-09 -3.58846e-09)
(6.32548e-09 9.6045e-09 -3.86527e-09)
(7.54948e-09 1.34934e-08 -3.14396e-09)
(8.28805e-09 1.75597e-08 -1.47312e-09)
(1.11503e-08 2.06768e-08 3.52819e-10)
(1.48892e-08 2.23004e-08 1.08758e-09)
(7.47696e-09 4.66332e-09 -3.99466e-09)
(8.3721e-09 7.59133e-09 -4.36845e-09)
(8.87138e-09 1.1389e-08 -4.39396e-09)
(9.57654e-09 1.67703e-08 -4.27481e-09)
(7.94635e-09 2.24685e-08 -3.28126e-09)
(8.68841e-09 2.69892e-08 -2.13386e-09)
(1.22749e-08 2.95151e-08 -1.75455e-09)
(1.37244e-08 2.30514e-09 -4.56815e-09)
(1.40555e-08 5.31656e-09 -5.40645e-09)
(1.24109e-08 9.95422e-09 -5.59739e-09)
(1.17063e-08 1.57022e-08 -5.50398e-09)
(1.18523e-08 2.40847e-08 -5.89556e-09)
(8.56578e-09 3.30675e-08 -5.74291e-09)
(7.52912e-09 4.07984e-08 -5.2251e-09)
(1.11571e-08 4.56309e-08 -5.31027e-09)
(8.75726e-09 1.80908e-09 -2.48571e-09)
(7.44698e-09 3.23902e-09 -2.80964e-09)
(7.90579e-09 5.38787e-09 -3.19325e-09)
(7.90579e-09 5.38787e-09 -3.19325e-09)
(7.90579e-09 5.38787e-09 -3.19325e-09)
(1.14728e-08 1.49681e-09 -3.25936e-09)
(1.06351e-08 3.31377e-09 -3.22521e-09)
(1.06351e-08 3.31377e-09 -3.22521e-09)
(1.06351e-08 3.31377e-09 -3.22521e-09)
(1.59169e-08 1.31587e-09 -4.48123e-09)
(1.59169e-08 1.31587e-09 -4.48123e-09)
)
;
    }
    procBoundary5to4
    {
        type            processor;
        value           nonuniform List<vector> 
12
(
(1.11508e-08 1.53501e-09 -1.9402e-09)
(1.26186e-08 1.54365e-09 -2.55177e-09)
(1.49847e-08 1.53209e-09 -3.3394e-09)
(1.85414e-08 1.45852e-09 -5.49976e-09)
(9.98848e-09 1.95181e-09 -1.81194e-09)
(1.13993e-08 2.08999e-09 -2.26396e-09)
(1.32844e-08 2.31854e-09 -3.07422e-09)
(1.58362e-08 2.6713e-09 -5.0648e-09)
(8.64643e-09 2.11099e-09 -1.68352e-09)
(1.01523e-08 2.32637e-09 -2.07749e-09)
(1.18332e-08 2.72402e-09 -2.82971e-09)
(1.43948e-08 3.47462e-09 -4.68887e-09)
)
;
    }
    procBoundary5to7
    {
        type            processor;
        value           nonuniform List<vector> 
44
(
(2.17324e-08 4.05723e-09 -7.66299e-09)
(2.05026e-08 9.41837e-09 -7.65029e-09)
(1.78111e-08 1.87377e-08 -7.20873e-09)
(1.58431e-08 3.24384e-08 -6.64292e-09)
(1.52119e-08 5.14235e-08 -7.71546e-09)
(1.13497e-08 7.48703e-08 -8.85163e-09)
(1.04216e-08 9.90292e-08 -9.89258e-09)
(1.40661e-08 1.15771e-07 -1.06672e-08)
(2.13902e-08 1.12632e-09 -7.37004e-09)
(2.17324e-08 4.05723e-09 -7.66299e-09)
(2.00289e-08 1.30267e-08 -7.21022e-09)
(1.76166e-08 2.57769e-08 -6.8324e-09)
(1.58851e-08 4.51821e-08 -6.78789e-09)
(1.55061e-08 7.40712e-08 -8.10673e-09)
(1.3175e-08 1.12279e-07 -1.00167e-08)
(1.40962e-08 1.54948e-07 -1.21279e-08)
(1.85785e-08 1.86844e-07 -1.37345e-08)
(2.69439e-08 1.29764e-09 -1.35219e-08)
(2.00289e-08 1.30267e-08 -7.21022e-09)
(2.78376e-08 5.85091e-09 -1.34521e-08)
(2.00289e-08 1.30267e-08 -7.21022e-09)
(1.76166e-08 2.57769e-08 -6.8324e-09)
(1.56379e-08 5.85704e-08 -6.88495e-09)
(1.62083e-08 9.8866e-08 -8.73877e-09)
(1.64652e-08 1.56426e-07 -1.17562e-08)
(2.07622e-08 2.26341e-07 -1.54904e-08)
(2.74761e-08 2.83296e-07 -1.86486e-08)
(2.26138e-08 3.96378e-09 -1.20326e-08)
(2.47045e-08 9.05152e-09 -1.2539e-08)
(2.32926e-08 2.14915e-08 -1.10981e-08)
(1.56379e-08 5.85704e-08 -6.88495e-09)
(2.0924e-08 4.61251e-08 -9.90345e-09)
(1.56379e-08 5.85704e-08 -6.88495e-09)
(1.62083e-08 9.8866e-08 -8.73877e-09)
(1.90378e-08 1.90647e-07 -1.32166e-08)
(2.66807e-08 2.86552e-07 -1.86127e-08)
(3.61687e-08 3.71842e-07 -2.34643e-08)
(1.97755e-08 6.37097e-09 -1.07755e-08)
(2.21341e-08 1.22268e-08 -1.18923e-08)
(2.17717e-08 2.60504e-08 -1.09229e-08)
(2.00699e-08 5.35867e-08 -1.0031e-08)
(2.07988e-08 1.03635e-07 -1.07349e-08)
(1.90378e-08 1.90647e-07 -1.32166e-08)
(2.62853e-08 1.94083e-07 -1.48378e-08)
)
;
    }
}


// ************************************************************************* //
