/*--------------------------------*- C++ -*----------------------------------*\
| =========                 |                                                 |
| \\      /  F ield         | OpenFOAM: The Open Source CFD Toolbox           |
|  \\    /   O peration     | Version:  4.x                                   |
|   \\  /    A nd           | Web:      www.OpenFOAM.org                      |
|    \\/     M anipulation  |                                                 |
\*---------------------------------------------------------------------------*/
FoamFile
{
    version     2.0;
    format      ascii;
    class       volVectorField;
    location    "23";
    object      UsPrev;
}
// * * * * * * * * * * * * * * * * * * * * * * * * * * * * * * * * * * * * * //

dimensions      [0 1 -1 0 0 0 0];

internalField   nonuniform List<vector> 
114
(
(-1.91302e-09 1.61155e-09 7.99927e-10)
(-3.71564e-09 1.0589e-09 6.12049e-10)
(-6.45443e-09 2.39779e-09 -3.89832e-10)
(-5.63304e-09 1.52407e-09 -2.33197e-09)
(-6.0821e-09 1.33426e-09 -1.80872e-09)
(-8.7924e-08 1.9492e-08 -2.21479e-10)
(-1.63765e-09 3.57413e-09 1.90395e-09)
(-1.73992e-09 3.46252e-09 5.2836e-10)
(-2.41403e-09 1.96779e-09 5.79841e-10)
(-5.32276e-09 2.02453e-09 -2.48911e-09)
(-5.29174e-09 1.81935e-09 -4.67483e-09)
(-6.00791e-09 9.3413e-10 -2.6003e-09)
(-8.71098e-09 1.23729e-08 -4.95636e-09)
(-3.36504e-09 4.14186e-09 7.20785e-10)
(-6.62277e-10 3.91999e-09 5.59932e-10)
(7.39295e-10 3.35595e-09 -5.71417e-10)
(3.21269e-10 2.15141e-09 -1.01749e-09)
(-6.73979e-10 4.76744e-10 -1.26682e-09)
(-8.90362e-10 -9.52585e-10 -7.06701e-10)
(-1.40218e-09 -1.26329e-09 -2.98653e-09)
(-7.38927e-10 3.58654e-09 -4.62187e-09)
(2.89619e-11 9.76974e-10 1.283e-09)
(-3.2156e-10 9.5558e-10 1.33041e-09)
(-9.6537e-11 1.18433e-09 1.33928e-09)
(4.95141e-10 2.35271e-10 8.51434e-10)
(4.02584e-10 -1.79426e-10 2.0718e-10)
(-4.98978e-10 -3.6061e-10 -3.67043e-10)
(-1.8856e-09 -3.69057e-10 -1.70547e-09)
(-1.90592e-09 1.02279e-09 -2.03533e-09)
(-2.79671e-09 3.97211e-09 -6.41188e-09)
(-4.9076e-10 1.45704e-09 9.48138e-10)
(-6.61669e-10 7.34121e-10 1.43493e-09)
(2.88044e-10 2.26387e-09 1.43186e-09)
(1.94712e-11 7.39578e-10 5.05803e-10)
(-5.15339e-10 1.99687e-10 -1.98803e-10)
(-2.261e-09 3.63037e-10 -5.53178e-10)
(-1.62044e-09 -5.108e-10 -2.28184e-09)
(-1.50419e-09 1.17453e-10 -2.22289e-09)
(-3.41972e-09 2.07149e-09 -6.22333e-09)
(-1.52646e-09 2.81921e-09 1.41491e-09)
(-1.09698e-09 2.62984e-09 4.46387e-10)
(-1.61646e-10 2.63773e-09 1.26479e-09)
(2.65597e-10 1.75171e-09 -6.5145e-10)
(-3.60565e-10 5.05121e-10 -3.72337e-10)
(-1.28492e-09 3.50753e-11 -4.65656e-10)
(-1.61628e-09 -7.14893e-10 -1.00467e-09)
(-2.32394e-09 -1.6276e-09 -1.3068e-09)
(-2.88e-09 5.75065e-10 -2.16383e-09)
(-9.56215e-10 3.0404e-09 5.18468e-10)
(-3.21792e-10 2.36604e-09 -4.52468e-10)
(4.58196e-10 4.18196e-10 6.09899e-10)
(4.75834e-10 3.286e-10 4.79065e-10)
(1.04491e-09 4.18589e-10 5.08079e-10)
(2.01124e-09 6.97262e-10 -1.05416e-09)
(9.44505e-10 -1.41928e-10 -2.3043e-11)
(-1.37511e-09 -3.95627e-10 -8.27447e-10)
(-3.47027e-09 -4.57631e-10 -1.36346e-09)
(-7.08348e-09 4.96881e-10 -2.71511e-09)
(6.58896e-09 3.75771e-09 -1.38669e-08)
(1.00691e-09 1.02177e-09 5.96266e-10)
(9.41187e-10 8.67062e-10 9.46246e-10)
(2.1202e-09 7.81277e-10 9.60975e-10)
(7.74466e-09 2.21509e-09 -1.98684e-10)
(3.41611e-10 3.08147e-11 -8.90422e-11)
(-1.14064e-09 -1.60801e-10 -6.61941e-10)
(-2.93816e-09 4.2424e-10 -1.76591e-09)
(-4.33816e-09 2.00359e-09 -4.00733e-09)
(-2.07185e-10 7.64931e-09 -6.04362e-09)
(7.82559e-10 2.5184e-09 9.27734e-10)
(4.86339e-10 2.16223e-09 6.43059e-10)
(1.55353e-09 1.7051e-09 8.34435e-10)
(1.02705e-09 1.0234e-09 -5.00785e-10)
(-7.03921e-10 9.62412e-11 2.90348e-10)
(-1.61864e-09 -6.10358e-11 -7.56505e-12)
(-2.5686e-09 -2.89196e-10 2.56523e-11)
(-3.11465e-09 -1.83454e-10 -1.26835e-09)
(-2.42096e-09 1.71167e-09 -1.92891e-09)
(1.84291e-09 2.36564e-09 3.71793e-10)
(1.0343e-09 2.31607e-09 -4.24871e-10)
(1.19818e-09 1.93029e-09 -8.31812e-10)
(7.93364e-10 1.43761e-09 -8.36074e-10)
(3.0934e-10 7.78085e-11 2.84955e-10)
(4.54443e-10 5.52046e-11 2.74252e-10)
(1.43502e-09 3.22823e-11 2.18426e-10)
(2.06694e-09 1.7075e-10 -5.61814e-10)
(1.23145e-09 -2.85071e-10 2.10239e-10)
(-2.2016e-09 -2.15925e-10 2.9693e-10)
(-5.78996e-09 1.07553e-09 2.9662e-10)
(-6.561e-09 4.6492e-09 -5.355e-09)
(2.39003e-09 1.48751e-08 -1.37769e-08)
(7.90193e-10 3.81006e-10 2.55687e-10)
(7.1213e-10 3.32782e-10 4.40929e-10)
(4.53894e-09 -7.8934e-10 -2.2911e-10)
(1.37325e-08 3.56918e-09 -2.84764e-10)
(2.2473e-09 9.48265e-10 2.27629e-10)
(-1.04391e-09 2.52902e-12 1.68858e-10)
(-3.2528e-09 5.66469e-10 -8.01763e-10)
(-3.67249e-09 7.60769e-09 -1.5455e-09)
(1.60806e-09 1.95251e-08 -1.16925e-09)
(1.08939e-09 1.06541e-09 8.46277e-12)
(8.36205e-10 7.24303e-10 -7.15918e-11)
(7.04461e-10 7.04496e-10 -7.81997e-11)
(3.49043e-09 2.41479e-10 -6.39787e-11)
(4.83688e-10 4.90792e-10 3.52897e-10)
(-1.51375e-09 -2.66402e-10 2.26295e-10)
(-2.15179e-09 1.4427e-10 1.89249e-10)
(-2.56101e-09 8.04047e-10 -2.62937e-10)
(-1.49369e-09 2.00557e-09 -3.19648e-10)
(1.86968e-09 1.41884e-09 -7.35293e-11)
(1.2852e-09 1.36385e-09 -2.5149e-10)
(6.9035e-09 2.69075e-08 -3.4789e-10)
(5.27677e-10 6.52424e-10 -2.00309e-10)
(-4.39505e-10 5.98099e-10 3.73095e-10)
(-1.53887e-09 -3.63752e-10 4.42276e-10)
)
;

boundaryField
{
    inlet
    {
        type            calculated;
        value           nonuniform 0();
    }
    outlet
    {
        type            calculated;
        value           uniform (0 0 0);
    }
    wall
    {
        type            calculated;
        value           uniform (0 0 0);
    }
    procBoundary5to1
    {
        type            processor;
        value           uniform (0 0 0);
    }
    procBoundary5to4
    {
        type            processor;
        value           uniform (0 0 0);
    }
    procBoundary5to7
    {
        type            processor;
        value           uniform (0 0 0);
    }
}


// ************************************************************************* //
