/*--------------------------------*- C++ -*----------------------------------*\
| =========                 |                                                 |
| \\      /  F ield         | OpenFOAM: The Open Source CFD Toolbox           |
|  \\    /   O peration     | Version:  4.x                                   |
|   \\  /    A nd           | Web:      www.OpenFOAM.org                      |
|    \\/     M anipulation  |                                                 |
\*---------------------------------------------------------------------------*/
FoamFile
{
    version     2.0;
    format      ascii;
    class       volScalarField;
    location    "56";
    object      QPartFluidCoeff;
}
// * * * * * * * * * * * * * * * * * * * * * * * * * * * * * * * * * * * * * //

dimensions      [1 -1 -3 -1 0 0 0];

internalField   nonuniform List<scalar> 
114
(
-2.37891e+07
-1.86483e+07
-1.01798e+07
-1.99134e+07
-1.21232e+07
-1.53177e+07
-1.93865e+07
-2.31084e+07
-2.0444e+07
-1.45941e+07
-2.44641e+07
-1.66444e+07
-2.33232e+07
-2.23779e+07
-1.49001e+07
-1.2928e+07
-2.05606e+07
-1.6989e+07
-1.79831e+07
-1.93766e+07
-1.74951e+07
-2.26772e+07
-1.80145e+07
-2.17102e+07
-1.32876e+07
-1.33547e+07
-1.72023e+07
-1.51448e+07
-1.31979e+07
-1.36585e+07
-1.0206e+07
-1.78128e+07
-1.32732e+07
-3.28315e+07
-4.10147e+07
-2.20527e+07
-3.74451e+07
-1.57738e+07
-2.6457e+07
-3.19708e+07
-3.05746e+07
-2.95941e+07
-2.32691e+07
-3.71395e+07
-2.89596e+07
-2.13463e+07
-1.9532e+07
-3.33931e+07
-3.55399e+07
-3.06277e+07
-3.14055e+07
-2.95855e+07
-3.05745e+07
-2.96925e+07
-2.56377e+07
-1.68809e+07
-1.7944e+07
-2.78635e+07
-2.00982e+07
-2.53343e+07
-2.17857e+07
-2.24007e+07
-2.36804e+07
-1.60677e+07
-2.69318e+07
-3.10318e+07
-2.28679e+07
-1.91097e+07
-2.24758e+07
-2.28211e+07
-2.2491e+07
-2.54813e+07
-3.26909e+07
-2.39486e+07
-1.91039e+07
-1.66378e+07
-2.31685e+07
-3.02831e+07
-3.48519e+07
-3.05701e+07
-2.32636e+07
-3.15276e+07
-2.81672e+07
-3.40721e+07
-1.66977e+07
-2.53344e+07
-2.32716e+07
-2.4944e+07
-1.59306e+07
-2.27751e+07
-3.23022e+07
-1.77722e+07
-2.5773e+07
-1.6326e+07
-3.16295e+07
-3.43396e+07
-2.38637e+07
-2.7467e+07
-2.09421e+07
-2.5299e+07
-2.51307e+07
-1.95697e+07
-2.63963e+07
-3.50963e+07
-2.20946e+07
-3.04222e+07
-2.57992e+07
-3.43814e+07
-1.41949e+07
-2.10244e+07
-2.50464e+07
-2.41951e+07
-2.25254e+07
-2.17061e+07
)
;

boundaryField
{
    inlet
    {
        type            calculated;
        value           uniform 0;
    }
    outlet
    {
        type            calculated;
        value           nonuniform 0();
    }
    wall
    {
        type            calculated;
        value           uniform 0;
    }
    procBoundary2to0
    {
        type            processor;
        value           nonuniform List<scalar> 
44
(
382.784
420.61
369.668
300.91
390.938
643.188
225.096
342.672
265.208
265.208
416.57
855.304
509.596
795.062
521.42
480.017
601.862
532.013
589.182
416.57
855.304
855.304
608.073
663.629
485.448
407.812
521.897
655.408
723.616
680.296
753.99
608.073
663.629
663.629
424.842
198.51
364.967
509.435
743.97
775.198
417.674
747.015
649.471
424.842
)
;
    }
    procBoundary2to3
    {
        type            processor;
        value           nonuniform List<scalar> 
12
(
641.681
467.192
501.996
327.888
648.573
574.685
963.515
637.138
626.14
722.629
455.557
660.49
)
;
    }
    procBoundary2to6
    {
        type            processor;
        value           nonuniform List<scalar> 
32
(
613.928
516.643
678.522
431.255
471.639
425.483
752.407
677
459.863
603.783
837.677
460.022
658.67
613.928
516.643
504.696
476.443
696.546
617.963
771.738
668.884
659.155
516.643
431.255
661.226
353.686
573.033
450.494
463.918
657.701
431.255
713.091
)
;
    }
}


// ************************************************************************* //
