/*--------------------------------*- C++ -*----------------------------------*\
| =========                 |                                                 |
| \\      /  F ield         | OpenFOAM: The Open Source CFD Toolbox           |
|  \\    /   O peration     | Version:  4.x                                   |
|   \\  /    A nd           | Web:      www.OpenFOAM.org                      |
|    \\/     M anipulation  |                                                 |
\*---------------------------------------------------------------------------*/
FoamFile
{
    version     2.0;
    format      ascii;
    class       volVectorField;
    location    "56";
    object      Us;
}
// * * * * * * * * * * * * * * * * * * * * * * * * * * * * * * * * * * * * * //

dimensions      [0 1 -1 0 0 0 0];

internalField   nonuniform List<vector> 
114
(
(2.36123e-09 -5.9463e-10 -7.10175e-10)
(4.91331e-09 -1.08081e-09 -7.09924e-10)
(7.30964e-09 -6.60907e-10 -2.31314e-09)
(9.85314e-09 -9.38581e-10 -2.77559e-09)
(1.24864e-08 -2.2014e-09 -5.00502e-09)
(1.36384e-08 -3.13851e-09 -5.73833e-09)
(4.66792e-09 -1.71973e-09 -3.60073e-10)
(8.99452e-10 -2.60404e-10 -4.60598e-10)
(2.01315e-09 -5.23957e-10 -6.55534e-10)
(2.66103e-09 -6.10775e-10 -1.01817e-09)
(4.16778e-09 -5.32022e-10 -1.36252e-09)
(6.39276e-09 -6.68203e-10 -2.26919e-09)
(8.15755e-09 -7.24171e-10 -2.92058e-09)
(9.50501e-09 -1.51976e-10 -3.55914e-09)
(1.22371e-08 -7.67112e-10 -6.7814e-09)
(4.66083e-10 -2.69268e-10 -2.55275e-10)
(1.74203e-10 -6.72207e-11 -6.02282e-10)
(1.69425e-09 -3.43584e-10 -4.63867e-10)
(2.59103e-09 -6.81396e-10 -3.69226e-10)
(3.98736e-09 -5.77325e-10 -8.2328e-10)
(5.0591e-09 -5.41323e-10 -1.65209e-09)
(6.89067e-09 1.09148e-09 -1.92027e-09)
(9.7866e-09 -8.7379e-10 -3.06513e-09)
(1.0063e-08 4.98748e-10 -4.88341e-09)
(8.25176e-10 -1.24629e-10 -9.64829e-11)
(-4.44479e-10 -1.88703e-10 -3.41626e-10)
(6.8352e-10 -1.34323e-10 4.19327e-10)
(-1.27325e-09 2.62937e-09 -1.94967e-10)
(2.32693e-09 -2.74773e-10 -1.14099e-09)
(2.18147e-09 -2.35718e-10 -1.29197e-09)
(4.4452e-09 7.76931e-10 -2.75438e-10)
(6.50308e-09 -3.8773e-10 -1.38144e-09)
(7.97589e-09 -2.67986e-10 -1.9967e-09)
(6.69805e-09 -5.57256e-10 -2.42375e-09)
(9.21081e-09 -5.67646e-10 -3.07465e-09)
(1.18604e-08 -1.26724e-09 -4.92638e-09)
(1.39939e-08 -2.07604e-09 -6.6318e-09)
(3.62164e-10 -1.20722e-10 -1.72212e-10)
(9.76037e-10 -1.98614e-10 -4.44718e-10)
(1.78339e-09 -2.72168e-10 -7.68673e-10)
(2.75713e-09 -6.47964e-10 -1.07783e-09)
(3.76434e-09 -5.77334e-10 -1.60603e-09)
(6.13319e-09 -1.08548e-10 -2.73005e-09)
(8.25942e-09 -3.04369e-10 -2.94962e-09)
(9.62058e-09 -6.65349e-10 -4.12777e-09)
(1.36816e-08 -6.68508e-10 -7.55893e-09)
(4.69654e-10 -1.4567e-10 -2.65611e-10)
(7.1985e-10 -2.27659e-10 -4.65842e-10)
(1.6298e-09 -3.64982e-10 -8.59124e-10)
(2.17116e-09 -3.90486e-10 -7.98589e-10)
(3.19237e-09 -6.18778e-10 -1.73767e-09)
(4.51864e-09 -6.97563e-10 -1.65783e-09)
(6.8467e-09 -4.95237e-10 -2.30449e-09)
(8.90277e-09 -5.42193e-10 -3.1801e-09)
(1.21683e-08 -2.90435e-10 -5.75172e-09)
(1.74819e-10 -5.64604e-11 -1.60296e-10)
(2.86531e-10 -1.52609e-10 -4.36508e-10)
(9.09821e-10 -1.64421e-10 -4.73139e-10)
(1.28689e-09 -1.06481e-10 -5.02591e-10)
(1.85978e-09 -1.90555e-10 -1.46615e-09)
(1.87021e-09 -1.88596e-10 -8.26625e-10)
(3.35584e-09 -2.89371e-10 -5.07199e-10)
(5.06023e-09 -6.24731e-10 -1.59305e-09)
(5.98385e-09 -3.63373e-10 -1.03926e-09)
(1.06948e-08 -1.06922e-09 -4.94637e-09)
(1.39759e-08 -1.20534e-09 -6.87926e-09)
(2.42722e-10 -1.03935e-11 -2.75467e-10)
(6.28059e-10 -1.9207e-10 -4.66612e-10)
(1.56596e-09 -3.44886e-10 -8.50595e-10)
(2.26158e-09 -5.24431e-10 -1.0352e-09)
(3.74501e-09 -6.22873e-10 -1.60137e-09)
(5.2349e-09 -1.26987e-10 -2.19028e-09)
(6.46772e-09 -1.89936e-10 -2.63177e-09)
(8.78317e-09 -4.00208e-10 -4.22551e-09)
(1.25442e-08 -2.61857e-10 -6.39139e-09)
(2.08449e-10 -3.4919e-11 -2.06402e-10)
(3.67776e-10 -3.47467e-10 -7.0764e-10)
(1.47593e-09 -3.16831e-10 -7.95407e-10)
(1.72711e-09 -3.04829e-10 -8.19864e-10)
(3.00804e-09 -4.29873e-10 -1.63682e-09)
(4.1992e-09 -5.90269e-10 -1.64331e-09)
(5.82594e-09 -6.08647e-10 -1.77364e-09)
(8.16152e-09 -1.26162e-10 -3.29018e-09)
(1.32856e-08 -4.08049e-10 -5.84697e-09)
(1.52113e-10 -4.04162e-11 -1.97366e-10)
(1.93916e-10 -1.31887e-10 -4.83206e-10)
(5.85303e-10 -2.07063e-10 -5.11144e-10)
(1.12159e-09 -2.913e-10 -7.39982e-10)
(1.76086e-09 -4.05997e-10 -9.11265e-10)
(1.78663e-09 -5.14249e-10 -7.72307e-10)
(3.10448e-09 -9.2391e-10 -1.27777e-09)
(4.82829e-09 -1.32551e-09 -1.19416e-09)
(7.66716e-09 -3.56548e-10 -2.64451e-09)
(1.99523e-10 -4.3974e-11 -2.79086e-10)
(5.25517e-10 -2.36376e-10 -6.35726e-10)
(1.27741e-09 -3.66221e-10 -9.38505e-10)
(1.69202e-09 -4.29774e-10 -1.1383e-09)
(2.99533e-09 -5.50858e-10 -1.55727e-09)
(4.46811e-09 -4.68296e-10 -2.26837e-09)
(6.48228e-09 -2.2178e-10 -2.47993e-09)
(8.3593e-09 3.84915e-10 -4.48575e-09)
(1.40947e-10 -1.41742e-11 -2.04225e-10)
(3.90045e-10 -2.65655e-10 -6.22841e-10)
(1.00246e-09 -3.86625e-10 -6.92113e-10)
(1.43184e-09 -5.43814e-10 -9.27557e-10)
(2.61101e-09 -5.09132e-10 -1.40519e-09)
(3.25709e-09 -5.40365e-10 -1.53777e-09)
(4.53078e-09 -5.44507e-10 -1.38485e-09)
(3.90691e-11 -1.81372e-11 -1.59308e-10)
(7.83351e-11 -2.23821e-10 -4.85102e-10)
(5.53597e-10 -2.78656e-10 -6.39742e-10)
(5.05342e-10 -3.34318e-10 -6.16742e-10)
(1.48016e-09 -3.81991e-10 -7.85341e-10)
(1.2563e-09 -4.15839e-10 -6.96309e-10)
)
;

boundaryField
{
    inlet
    {
        type            zeroGradient;
    }
    outlet
    {
        type            zeroGradient;
    }
    wall
    {
        type            zeroGradient;
    }
    procBoundary2to0
    {
        type            processor;
        value           nonuniform List<vector> 
44
(
(3.31606e-09 -6.61168e-10 -7.25039e-10)
(4.79211e-09 -9.08677e-10 -5.44489e-10)
(6.1247e-09 -8.62157e-10 -1.90397e-09)
(8.90483e-09 -1.8522e-09 -3.01453e-09)
(1.04402e-08 -2.84136e-09 -4.22646e-09)
(1.24719e-08 -3.7803e-09 -4.95266e-09)
(4.33225e-10 1.81569e-10 -1.13796e-10)
(1.22968e-09 -9.04873e-11 -3.32974e-10)
(2.14668e-09 -4.85551e-10 -4.59427e-10)
(2.14668e-09 -4.85551e-10 -4.59427e-10)
(3.52833e-09 -6.26301e-10 -1.00458e-09)
(4.63417e-09 -5.0653e-10 -1.83075e-09)
(7.05745e-09 -7.57021e-10 -1.7958e-09)
(9.23232e-09 -1.57569e-09 -3.05495e-09)
(1.08835e-08 -2.70115e-09 -4.34052e-09)
(1.29625e-08 -3.55723e-09 -5.46352e-09)
(5.68998e-10 3.92557e-11 -1.31354e-10)
(1.29595e-09 -6.0319e-11 -3.47524e-10)
(2.16397e-09 -9.66637e-11 -7.18163e-10)
(3.52833e-09 -6.26301e-10 -1.00458e-09)
(4.63417e-09 -5.0653e-10 -1.83075e-09)
(4.63417e-09 -5.0653e-10 -1.83075e-09)
(5.87153e-09 -4.18064e-10 -2.29403e-09)
(7.7304e-09 -8.63213e-10 -3.14091e-09)
(9.96469e-09 -1.52476e-09 -3.68131e-09)
(1.16663e-08 -3.19293e-09 -4.90083e-09)
(3.25703e-10 2.32904e-11 -2.05546e-10)
(1.07193e-09 -2.95443e-10 -4.20294e-10)
(2.01043e-09 -2.47677e-10 -7.71924e-10)
(2.86869e-09 -6.41036e-10 -1.06735e-09)
(4.81419e-09 -5.29567e-10 -1.96902e-09)
(5.87153e-09 -4.18064e-10 -2.29403e-09)
(7.7304e-09 -8.63213e-10 -3.14091e-09)
(7.7304e-09 -8.63213e-10 -3.14091e-09)
(8.37521e-09 -5.23875e-10 -3.83916e-09)
(1.20354e-08 -1.20135e-09 -6.6012e-09)
(2.05858e-10 -7.92341e-11 -2.90306e-10)
(6.14169e-10 -2.60467e-10 -5.4166e-10)
(1.54123e-09 -2.39595e-10 -8.41044e-10)
(1.91181e-09 -3.72946e-10 -1.04665e-09)
(3.53996e-09 1.50261e-11 -1.45052e-09)
(5.4327e-09 -3.72554e-10 -2.08834e-09)
(7.49106e-09 -5.82736e-10 -3.03346e-09)
(8.37521e-09 -5.23875e-10 -3.83916e-09)
)
;
    }
    procBoundary2to3
    {
        type            processor;
        value           nonuniform List<vector> 
12
(
(1.75233e-08 -2.92569e-11 -1.70849e-08)
(2.15661e-08 4.18387e-10 -1.76455e-08)
(1.74892e-08 1.7104e-09 -1.38808e-08)
(1.25218e-08 4.57891e-09 -5.64169e-09)
(1.97985e-08 -1.92297e-09 -1.7928e-08)
(1.75639e-08 -1.13107e-10 -1.42498e-08)
(1.71308e-08 1.60672e-09 -1.22929e-08)
(1.22701e-08 2.35536e-09 -5.32672e-09)
(1.52595e-08 -1.36203e-09 -1.22159e-08)
(1.48299e-08 -1.73349e-10 -1.10155e-08)
(1.85662e-08 -1.94687e-09 -1.04717e-08)
(1.30107e-08 -3.21577e-09 -5.13696e-09)
)
;
    }
    procBoundary2to6
    {
        type            processor;
        value           nonuniform List<vector> 
32
(
(9.9212e-09 -5.31435e-10 -5.60869e-09)
(7.44818e-09 4.89221e-10 -2.75991e-09)
(1.13675e-08 2.21685e-10 -4.10987e-09)
(1.8104e-09 -5.57597e-10 -8.46789e-10)
(4.15484e-09 -1.97648e-10 -1.33686e-09)
(3.74106e-09 -1.56926e-10 -1.47528e-09)
(2.56029e-10 -1.5805e-10 -2.84502e-10)
(4.20279e-10 -3.22081e-10 -5.06293e-10)
(8.3595e-10 -3.71342e-10 -7.9995e-10)
(1.0592e-09 -3.9135e-10 -1.11943e-09)
(2.72771e-09 -5.1841e-10 -1.37551e-09)
(3.72172e-09 -3.78096e-11 -1.96826e-09)
(5.05984e-09 3.5871e-10 -2.56969e-09)
(9.9212e-09 -5.31435e-10 -5.60869e-09)
(7.44818e-09 4.89221e-10 -2.75991e-09)
(6.79165e-09 7.81687e-10 -3.70532e-09)
(2.75039e-10 -1.35254e-10 -2.55534e-10)
(2.01054e-10 -2.50713e-10 -4.79085e-10)
(7.92881e-10 -3.63524e-10 -6.2766e-10)
(1.02345e-09 -3.37288e-10 -9.01642e-10)
(1.8698e-09 -4.22179e-10 -8.69656e-10)
(2.52783e-09 -4.48966e-10 -1.25723e-09)
(7.44818e-09 4.89221e-10 -2.75991e-09)
(1.8104e-09 -5.57597e-10 -8.46789e-10)
(4.40857e-09 -1.21038e-10 -1.42722e-09)
(6.51367e-11 -1.60219e-11 -1.2907e-10)
(-5.81318e-10 -4.5837e-10 -4.41808e-10)
(2.24597e-10 -1.78435e-10 -3.27556e-10)
(4.12401e-10 -4.2049e-10 -5.98607e-10)
(6.51836e-10 -3.95399e-10 -4.63507e-10)
(1.8104e-09 -5.57597e-10 -8.46789e-10)
(1.2881e-09 -4.48917e-10 -6.67254e-10)
)
;
    }
}


// ************************************************************************* //
