/*--------------------------------*- C++ -*----------------------------------*\
| =========                 |                                                 |
| \\      /  F ield         | OpenFOAM: The Open Source CFD Toolbox           |
|  \\    /   O peration     | Version:  4.x                                   |
|   \\  /    A nd           | Web:      www.OpenFOAM.org                      |
|    \\/     M anipulation  |                                                 |
\*---------------------------------------------------------------------------*/
FoamFile
{
    version     2.0;
    format      ascii;
    class       volScalarField;
    location    "42.5";
    object      p;
}
// * * * * * * * * * * * * * * * * * * * * * * * * * * * * * * * * * * * * * //

dimensions      [1 -1 -2 0 0 0 0];

internalField   nonuniform List<scalar> 
132
(
5742.65
5726.51
5737.26
5706
5727.36
5689.33
5721.2
5671.1
5714.72
5742.67
5726.07
5736.02
5707.42
5728.06
5689.38
5721.34
5670.95
5714.73
5742.85
5726.08
5736.04
5708.08
5728.77
5689.78
5721.83
5671.52
5715.16
5742.69
5725.79
5735.9
3865.36
3848.61
3858.64
3829.85
3850.65
3811.78
3843.93
3793.5
3837.3
3865.57
3848.49
3858.67
3830.18
3851.13
3811.81
3844.17
3793.3
3837.41
3865.92
3848.63
3859.03
3830.6
3851.8
3812.22
3844.73
3793.7
3837.88
3865.78
3848.33
3858.86
3830.47
3851.66
1987.74
1970.55
1980.63
1952.44
1973.1
1934.09
1965.96
1915.5
1959.12
1988.12
1970.66
1981
1952.58
1973.51
1934.09
1966.27
1915.33
1959.22
1988.59
1970.94
1981.53
1952.98
1974.03
1934.49
1966.6
1915.96
1959.54
1988.67
1970.93
1981.59
1952.91
1974.07
1934.35
1966.57
110.372
93.1061
103.366
75.1754
96.0878
56.9204
88.841
38.6555
82.0294
110.885
93.3189
103.809
75.2602
96.4372
57.0108
89.1759
38.5207
82.1454
111.42
93.7846
104.448
75.8249
96.9854
57.7025
89.2724
39.782
81.9462
111.376
93.6528
104.302
75.5222
96.6958
57.2672
89.0911
38.7957
81.9181
)
;

boundaryField
{
    inlet
    {
        type            calculated;
        value           nonuniform List<scalar> 
16
(
5742.65
5742.67
5742.85
5742.69
3865.36
3865.57
3865.92
3865.78
1987.74
1988.12
1988.59
1988.67
110.372
110.885
111.42
111.376
)
;
    }
    outlet
    {
        type            calculated;
        value           nonuniform 0();
    }
    wall
    {
        type            calculated;
        value           nonuniform List<scalar> 
66
(
6681.61
6681.63
6681.81
6681.65
6665.46
6665.02
6665.04
6664.75
6676.22
6674.97
6675
6674.86
6644.95
6646.38
6647.03
6666.31
6667.01
6667.72
6628.29
6628.34
6628.74
6660.16
6660.29
6660.79
6610.05
6609.9
6610.48
6653.68
6653.69
6654.11
5742.65
3865.36
1987.74
110.372
5726.51
3848.61
1970.55
93.1061
5737.26
3858.64
1980.63
103.366
5706
3829.85
1952.44
75.1754
5727.36
3850.65
1973.1
96.0878
5689.33
3811.78
1934.09
56.9204
5721.2
3843.93
1965.96
88.841
5671.1
3793.5
1915.5
38.6555
5714.72
3837.3
1959.12
82.0294
)
;
    }
    procBoundary0to1
    {
        type            processor;
        value           nonuniform List<scalar> 
12
(
5652.65
5652.13
5652.85
3774.96
3774.6
3775.31
1896.81
1896.32
1897.71
20.3722
20.1851
22.3525
)
;
    }
    procBoundary0to2
    {
        type            processor;
        value           nonuniform List<scalar> 
44
(
5708.03
5728.69
5689.61
5721.63
5670.89
5714.89
5742.82
5725.84
5708.03
5736.07
5708.03
5728.69
3811.91
3844.35
3792.99
3837.41
3865.81
3848.46
3859.03
3830.59
3811.91
3851.93
3811.91
3844.35
1915.6
1959.45
1988.66
1970.98
1981.72
1953.26
1974.38
1935.2
1915.6
1966.97
1915.6
1959.45
111.448
93.63
104.308
75.5522
96.8479
57.3176
89.3752
39.0086
)
;
    }
    procBoundary0to4
    {
        type            processor;
        value           nonuniform List<scalar> 
36
(
-1767.43
-1784.82
-1774.58
-1802.71
-1782.02
-1820.96
-1789.37
-1839.51
-1796.48
-1766.83
-1784.56
-1774.01
-1802.52
-1781.6
-1820.9
-1789.05
-1839.39
-1796.17
-1766.28
-1784.16
-1773.56
-1802.1
-1781.25
-1820.36
-1788.79
-1838.65
-1796.18
-1766.19
-1784
-1773.38
-1801.9
-1781
-1820.09
-1788.71
-1838.39
-1796.28
)
;
    }
    procBoundary0to6
    {
        type            processor;
        value           uniform 82.0522;
    }
    procBoundary0to7
    {
        type            processor;
        value           uniform 20.9132;
    }
}


// ************************************************************************* //
