/*--------------------------------*- C++ -*----------------------------------*\
| =========                 |                                                 |
| \\      /  F ield         | OpenFOAM: The Open Source CFD Toolbox           |
|  \\    /   O peration     | Version:  4.x                                   |
|   \\  /    A nd           | Web:      www.OpenFOAM.org                      |
|    \\/     M anipulation  |                                                 |
\*---------------------------------------------------------------------------*/
FoamFile
{
    version     2.0;
    format      ascii;
    class       volScalarField;
    location    "42.5";
    object      p_rgh;
}
// * * * * * * * * * * * * * * * * * * * * * * * * * * * * * * * * * * * * * //

dimensions      [1 -1 -2 0 0 0 0];

internalField   nonuniform List<scalar> 
132
(
108.906
92.7628
103.516
72.2549
93.6126
55.5895
87.458
37.3534
80.9808
108.929
92.324
102.274
73.6814
94.313
55.6378
87.593
37.2046
80.9921
109.108
92.3354
102.295
74.3322
95.0233
56.0414
88.0885
37.7813
81.4125
108.947
92.0453
102.159
109.528
92.7815
102.811
74.0225
94.8251
55.9538
88.1027
37.6715
81.4666
109.741
92.6617
102.843
74.3557
95.3019
55.9785
88.3431
37.4678
81.5807
110.094
92.8062
103.206
74.7687
95.9747
56.3872
88.9024
37.8723
82.0537
109.948
92.5021
103.027
74.6372
95.8304
109.828
92.633
102.713
74.5272
95.1822
56.1756
88.0505
37.5846
81.2028
110.209
92.7412
103.082
74.6628
95.5947
56.1776
88.356
37.4187
81.31
110.674
93.0272
103.619
75.0658
96.1114
56.5756
88.6864
38.0426
81.6296
110.752
93.0132
103.672
74.9952
96.155
56.4397
88.6599
110.372
93.1061
103.366
75.1754
96.0878
56.9204
88.841
38.6555
82.0294
110.885
93.3189
103.809
75.2602
96.4372
57.0108
89.1759
38.5207
82.1454
111.42
93.7846
104.448
75.8249
96.9854
57.7025
89.2724
39.782
81.9462
111.376
93.6528
104.302
75.5222
96.6958
57.2672
89.0911
38.7957
81.9181
)
;

boundaryField
{
    inlet
    {
        type            fixedFluxPressure;
        gradient        nonuniform List<scalar> 
16
(
3.62318e-06
1.94207e-06
-1.20562e-07
-5.15115e-07
1.54275e-06
4.39001e-07
-3.1421e-08
-3.29319e-07
-3.02719e-08
-1.95344e-07
-2.52695e-07
-1.05219e-07
-1.93474e-07
-2.24802e-07
-7.61819e-07
-2.70661e-07
)
;
        value           nonuniform List<scalar> 
16
(
108.906
108.929
109.108
108.947
109.528
109.741
110.094
109.948
109.828
110.209
110.674
110.752
110.372
110.885
111.42
111.376
)
;
    }
    outlet
    {
        type            fixedValue;
        value           nonuniform 0();
    }
    wall
    {
        type            fixedFluxPressure;
        gradient        nonuniform List<scalar> 
66
(
-2.16576e-06
-2.11948e-06
-2.24418e-06
-1.86768e-06
-1.01207e-05
-9.82576e-06
-9.38515e-06
-8.16985e-06
-1.00408e-05
-4.28429e-06
-4.57494e-06
-4.26637e-06
6.64711e-06
-2.80412e-06
-9.95715e-06
1.09698e-06
-1.67369e-06
-4.98425e-06
-3.00048e-06
-7.15618e-06
-1.1421e-05
-5.60652e-06
-7.75708e-06
-8.63326e-06
-1.06545e-06
-1.87982e-05
-2.43745e-05
-2.07389e-06
-2.33122e-05
-1.86777e-05
-1.90792e-06
-1.47117e-06
-6.90622e-07
-4.2317e-07
-7.88322e-06
-6.60865e-06
-2.11158e-06
-1.39643e-06
-3.15835e-05
-2.44554e-06
-4.75809e-07
-9.76597e-08
5.90881e-06
3.79377e-06
-3.8385e-07
-1.71503e-06
-3.63663e-07
5.7688e-07
-2.97548e-07
-2.11896e-07
-6.30775e-07
1.56051e-07
-2.42652e-06
-1.68395e-06
-2.43696e-06
2.29574e-07
-6.73361e-07
-1.51981e-06
-4.37807e-06
-2.55357e-06
-1.16471e-06
-1.84365e-06
-1.87838e-06
8.35722e-06
4.38517e-06
8.45327e-07
)
;
        value           nonuniform List<scalar> 
66
(
108.906
108.929
109.108
108.947
92.7628
92.324
92.3354
92.0453
103.516
102.274
102.295
102.159
72.2549
73.6814
74.3322
93.6126
94.313
95.0233
55.5895
55.6378
56.0414
87.458
87.593
88.0885
37.3534
37.2046
37.7813
80.9808
80.9921
81.4125
108.906
109.528
109.828
110.372
92.7628
92.7815
92.633
93.1061
103.516
102.811
102.713
103.366
72.2549
74.0225
74.5272
75.1754
93.6126
94.8251
95.1822
96.0878
55.5895
55.9538
56.1756
56.9204
87.458
88.1027
88.0505
88.841
37.3534
37.6715
37.5846
38.6555
80.9808
81.4666
81.2028
82.0294
)
;
    }
    procBoundary0to1
    {
        type            processor;
        value           nonuniform List<scalar> 
12
(
18.9036
18.3846
19.1122
19.1338
18.7713
19.4809
18.892
18.4101
19.8004
20.3722
20.1851
22.3525
)
;
    }
    procBoundary0to2
    {
        type            processor;
        value           nonuniform List<scalar> 
44
(
74.2868
94.9502
55.8717
87.8885
37.1425
81.1504
109.078
92.0922
74.2868
102.329
74.2868
94.9502
56.0826
88.5195
37.1611
81.5773
109.979
92.6346
103.198
74.7618
56.0826
96.1042
56.0826
88.5195
37.6853
81.54
110.748
93.0686
103.804
75.3492
96.4635
57.2858
37.6853
89.0606
37.6853
81.54
111.448
93.63
104.308
75.5522
96.8479
57.3176
89.3752
39.0086
)
;
    }
    procBoundary0to4
    {
        type            processor;
        value           nonuniform List<scalar> 
36
(
110.483
93.0903
103.33
75.2005
95.8953
56.9527
88.5447
38.4037
81.4311
111.085
93.3505
103.9
75.3961
96.3138
57.0105
88.8663
38.529
81.7426
111.633
93.7494
104.349
75.8142
96.6597
57.5511
89.1222
39.2605
81.7325
111.721
93.9193
104.531
76.0147
96.9114
57.8247
89.2076
39.5221
81.6309
)
;
    }
    procBoundary0to6
    {
        type            processor;
        value           uniform 82.0522;
    }
    procBoundary0to7
    {
        type            processor;
        value           uniform 20.9132;
    }
}


// ************************************************************************* //
