/*--------------------------------*- C++ -*----------------------------------*\
| =========                 |                                                 |
| \\      /  F ield         | OpenFOAM: The Open Source CFD Toolbox           |
|  \\    /   O peration     | Version:  4.x                                   |
|   \\  /    A nd           | Web:      www.OpenFOAM.org                      |
|    \\/     M anipulation  |                                                 |
\*---------------------------------------------------------------------------*/
FoamFile
{
    version     2.0;
    format      ascii;
    class       surfaceScalarField;
    location    "42.5";
    object      phi;
}
// * * * * * * * * * * * * * * * * * * * * * * * * * * * * * * * * * * * * * //

dimensions      [0 3 -1 0 0 0 0];

internalField   nonuniform List<scalar> 
308
(
9.09827e-06
-2.69729e-07
-6.65274e-07
9.69645e-06
-1.86993e-07
-4.11192e-07
1.07306e-05
-3.3242e-07
-7.01761e-07
1.12582e-05
-1.59607e-07
-3.6795e-07
1.20616e-05
-2.61459e-07
-5.41966e-07
1.2455e-05
-1.04861e-07
-2.88535e-07
1.31021e-05
-2.15629e-07
-4.31447e-07
1.35121e-05
-1.34162e-07
-2.75871e-07
-1.7798e-07
-3.33679e-07
8.95758e-06
-3.0916e-07
-7.54885e-07
9.37431e-06
-2.083e-07
-3.95421e-07
1.01763e-05
-3.75179e-07
-7.59221e-07
1.05833e-05
-2.03065e-07
-3.63567e-07
1.12359e-05
-2.92837e-07
-6.21202e-07
1.1536e-05
-1.29937e-07
-2.75074e-07
1.20677e-05
-2.49847e-07
-4.97468e-07
1.23242e-05
-1.60446e-07
-2.30187e-07
-2.26933e-07
-3.46274e-07
8.88755e-06
-2.10906e-07
-8.22541e-07
9.1588e-06
-1.01619e-07
-3.77929e-07
9.80382e-06
-2.02044e-07
-8.18152e-07
1.00532e-05
-3.41722e-07
1.05597e-05
-6.51159e-07
1.07566e-05
-2.58194e-07
1.1099e-05
-4.66887e-07
1.11164e-05
-1.55814e-07
-2.86885e-07
8.88822e-06
-8.57314e-07
9.21694e-06
-4.04364e-07
-8.48087e-07
8.60923e-06
-3.58184e-07
-7.53059e-07
8.79661e-06
-1.60179e-07
-4.38391e-07
9.23213e-06
-3.80504e-07
-7.56775e-07
9.40752e-06
-1.49376e-07
-3.93961e-07
9.77422e-06
-3.38929e-07
-5.69733e-07
9.91011e-06
-9.69111e-08
-3.27514e-07
1.01914e-05
-2.80796e-07
-4.31914e-07
1.02774e-05
-4.27691e-08
-3.19114e-07
-1.85527e-07
-3.38709e-07
8.28966e-06
-3.88645e-07
-8.50822e-07
8.32152e-06
-1.60139e-07
-4.27322e-07
8.41089e-06
-4.01441e-07
-8.27652e-07
8.38316e-06
-1.4347e-07
-3.41743e-07
8.36592e-06
-3.36831e-07
-6.06059e-07
8.33666e-06
-8.60378e-08
-2.56687e-07
8.26431e-06
-2.4177e-07
-4.64144e-07
8.23506e-06
-3.90293e-08
-2.04677e-07
-1.56496e-07
-3.00595e-07
8.02485e-06
-1.80602e-07
-8.92172e-07
7.96401e-06
-6.23271e-08
-4.14901e-07
7.80518e-06
-1.69923e-07
-8.90838e-07
7.66492e-06
-3.91962e-08
-3.0573e-07
7.38214e-06
-9.99022e-08
-6.05312e-07
7.23548e-06
-1.93573e-07
6.84804e-06
-2.88957e-07
6.75851e-06
-1.42348e-07
-6.33336e-08
8.02296e-06
-9.30296e-07
8.01507e-06
-4.56584e-07
7.89559e-06
-9.35106e-07
7.77548e-06
-3.00979e-07
-6.32357e-07
8.42442e-06
-4.09166e-07
-6.05049e-07
8.54753e-06
-1.86586e-07
-3.74918e-07
8.8728e-06
-4.50218e-07
-6.31819e-07
9.01949e-06
-1.73201e-07
-3.67452e-07
9.33954e-06
-3.78095e-07
-5.11688e-07
9.46923e-06
-1.08225e-07
-3.48978e-07
9.71687e-06
-2.66845e-07
-4.12713e-07
9.84976e-06
-6.94979e-08
-3.82505e-07
-1.55059e-07
-3.56663e-07
8.05299e-06
-4.64047e-07
-6.85669e-07
8.01409e-06
-2.13001e-07
-3.61999e-07
7.94419e-06
-5.18224e-07
-6.8975e-07
7.88335e-06
-1.72591e-07
-2.81516e-07
7.78573e-06
-3.94462e-07
-4.92064e-07
7.7538e-06
-1.03141e-07
-2.29847e-07
7.65344e-06
-2.48859e-07
-3.81773e-07
7.67761e-06
-8.95031e-08
-2.08841e-07
-1.91608e-07
-3.25196e-07
7.75095e-06
-2.48876e-07
-6.95024e-07
7.59095e-06
-1.15135e-07
-3.5277e-07
7.14045e-06
-2.79852e-07
-6.78712e-07
6.96408e-06
-8.50362e-08
-2.16917e-07
6.62234e-06
-2.21236e-07
-4.36801e-07
6.52791e-06
-7.10975e-08
-1.31187e-07
6.38498e-06
-1.69549e-07
-2.25334e-07
6.3348e-06
-1.12505e-07
-2.38892e-08
7.64195e-06
-6.81874e-07
7.45585e-06
-3.71132e-07
6.96578e-06
-7.01436e-07
6.8311e-06
-2.21537e-07
6.53374e-06
-4.81003e-07
6.48738e-06
-1.58969e-07
-3.22981e-07
8.38281e-06
-4.63105e-07
8.45908e-06
-2.19504e-07
8.69091e-06
-4.97323e-07
8.72842e-06
-1.69269e-07
8.85651e-06
-3.81282e-07
8.84391e-06
-1.31529e-07
8.87692e-06
-2.39088e-07
8.78073e-06
-7.39909e-08
-2.88526e-08
7.85102e-06
-4.59133e-07
7.68487e-06
-2.18235e-07
7.35752e-06
-5.05455e-07
7.21369e-06
-1.47496e-07
6.89655e-06
-3.39317e-07
6.74054e-06
-9.66963e-08
6.3596e-06
-1.08006e-07
6.23808e-06
-6.92023e-08
6.99449e-08
7.56893e-06
-1.89359e-07
7.24251e-06
-6.73493e-08
6.48564e-06
-1.40579e-07
6.20966e-06
-9.63563e-09
5.59394e-06
-2.60975e-08
5.36372e-06
1.32735e-08
5.14409e-06
1.52127e-08
4.9326e-06
1.70149e-08
4.7993e-08
7.60154e-06
7.29495e-06
6.61127e-06
6.45145e-06
6.02556e-06
5.90531e-06
5.69957e-06
5.58635e-06
)
;

boundaryField
{
    inlet
    {
        type            calculated;
        value           nonuniform List<scalar> 
16
(
-8.16327e-06
-8.16327e-06
-8.16327e-06
-8.16327e-06
-8.16327e-06
-8.16327e-06
-8.16327e-06
-8.16327e-06
-8.16327e-06
-8.16327e-06
-8.16327e-06
-8.16327e-06
-8.16327e-06
-8.16327e-06
-8.16327e-06
-8.16327e-06
)
;
    }
    outlet
    {
        type            calculated;
        value           nonuniform 0();
    }
    wall
    {
        type            calculated;
        value           uniform 0;
    }
    procBoundary0to1
    {
        type            processor;
        value           nonuniform List<scalar> 
12
(
1.40238e-05
1.27194e-05
1.12537e-05
1.04679e-05
8.16035e-06
6.34858e-06
1.00228e-05
7.73876e-06
6.21136e-06
8.53465e-06
5.88591e-06
4.98427e-06
)
;
    }
    procBoundary0to2
    {
        type            processor;
        value           nonuniform List<scalar> 
44
(
-1.10714e-07
-1.48238e-07
-6.86201e-08
-1.2529e-07
-2.2039e-08
-7.73589e-08
-7.85452e-08
-2.59805e-08
9.89635e-06
-3.33649e-08
3.46324e-07
6.90986e-07
-3.99709e-09
-3.22599e-08
3.70357e-08
2.98845e-08
3.26809e-08
-2.21289e-09
3.65818e-08
3.5565e-08
7.52914e-06
8.78085e-08
2.02458e-07
4.00164e-07
-6.9161e-08
-1.07613e-07
2.40183e-08
-1.44888e-08
-2.34504e-08
-2.9796e-08
-7.52293e-08
-6.82344e-08
6.41055e-06
-1.69903e-07
1.41536e-07
1.48266e-07
8.34652e-08
6.6197e-08
1.87351e-07
6.45742e-08
1.77323e-07
4.92258e-08
7.80943e-08
3.09389e-08
)
;
    }
    procBoundary0to4
    {
        type            processor;
        value           nonuniform List<scalar> 
36
(
-3.61491e-07
-2.31682e-07
-3.66321e-07
-2.357e-07
-2.58496e-07
-2.0484e-07
-2.06641e-07
-2.12323e-07
-8.17329e-08
-3.77396e-07
-1.97122e-07
-3.54267e-07
-1.59462e-07
-2.16889e-07
-1.08664e-07
-1.3192e-07
-9.21006e-08
-7.1827e-08
-3.70461e-07
-1.77237e-07
-2.86722e-07
-7.87952e-08
-1.34295e-07
-1.09392e-08
-1.28921e-07
1.27664e-08
-5.36096e-08
-3.92969e-07
-1.98092e-07
-3.4569e-07
-1.35928e-07
-2.58532e-07
-7.46684e-08
-1.80119e-07
-4.22415e-08
-1.92511e-08
)
;
    }
    procBoundary0to6
    {
        type            processor;
        value           uniform 7.54377e-08;
    }
    procBoundary0to7
    {
        type            processor;
        value           uniform 5.42989e-06;
    }
}


// ************************************************************************* //
