/*--------------------------------*- C++ -*----------------------------------*\
| =========                 |                                                 |
| \\      /  F ield         | OpenFOAM: The Open Source CFD Toolbox           |
|  \\    /   O peration     | Version:  4.x                                   |
|   \\  /    A nd           | Web:      www.OpenFOAM.org                      |
|    \\/     M anipulation  |                                                 |
\*---------------------------------------------------------------------------*/
FoamFile
{
    version     2.0;
    format      ascii;
    class       volScalarField;
    location    "42.5";
    object      Qsource;
}
// * * * * * * * * * * * * * * * * * * * * * * * * * * * * * * * * * * * * * //

dimensions      [1 -1 -3 0 0 0 0];

internalField   nonuniform List<scalar> 
132
(
6.89527e+09
5.22071e+09
5.55065e+09
4.17847e+09
6.294e+09
5.87827e+09
7.95497e+09
5.45949e+09
4.20046e+09
5.50837e+09
5.56252e+09
6.43387e+09
6.15347e+09
4.7987e+09
7.34545e+09
6.31209e+09
6.47259e+09
6.28007e+09
3.11686e+09
6.31983e+09
6.64343e+09
5.58728e+09
6.49441e+09
5.46771e+09
4.93959e+09
5.78022e+09
9.47757e+09
3.83947e+09
4.98204e+09
4.40869e+09
5.11675e+09
7.40132e+09
9.51036e+09
8.04845e+09
8.64358e+09
8.1161e+09
8.04065e+09
7.3117e+09
8.19995e+09
4.98308e+09
9.45789e+09
8.01839e+09
8.50005e+09
9.60655e+09
8.61584e+09
9.20466e+09
9.19753e+09
8.97494e+09
5.30199e+09
9.44875e+09
8.40998e+09
7.53371e+09
9.07663e+09
6.74248e+09
1.05186e+10
6.89809e+09
6.34775e+09
7.96585e+09
7.03585e+09
7.799e+09
5.51156e+09
1.13228e+10
6.42143e+09
7.38878e+09
8.99208e+09
7.42561e+09
8.36719e+09
6.16297e+09
8.95673e+09
7.57858e+09
6.34063e+09
6.24841e+09
8.28149e+09
7.99141e+09
6.92297e+09
9.28417e+09
6.72414e+09
9.45727e+09
1.01849e+10
1.01509e+10
6.70897e+09
7.20848e+09
8.09518e+09
9.31085e+09
9.84219e+09
8.08952e+09
9.21769e+09
6.46381e+09
5.39802e+09
6.90725e+09
8.6688e+09
9.57745e+09
8.99445e+09
9.97528e+09
8.03018e+09
8.77495e+09
5.18916e+09
5.40011e+09
7.61608e+09
5.62327e+09
7.94171e+09
8.2193e+09
6.76625e+09
4.77096e+09
6.90306e+09
5.13756e+09
9.59578e+09
9.09497e+09
8.08916e+09
7.20306e+09
6.63267e+09
1.04366e+10
7.18891e+09
6.9338e+09
5.18859e+09
5.58422e+09
9.05021e+09
6.10525e+09
8.69369e+09
8.40151e+09
8.23719e+09
4.93979e+09
9.33264e+09
4.82757e+09
6.72405e+09
9.82338e+09
1.0201e+10
5.49925e+09
9.75705e+09
8.53867e+09
5.4917e+09
2.61061e+09
)
;

boundaryField
{
    inlet
    {
        type            calculated;
        value           uniform 0;
    }
    outlet
    {
        type            calculated;
        value           nonuniform 0();
    }
    wall
    {
        type            calculated;
        value           uniform 0;
    }
    procBoundary0to1
    {
        type            processor;
        value           nonuniform List<scalar> 
12
(
5.90929e+09
5.24807e+09
4.55908e+09
7.97847e+09
9.02202e+09
7.92367e+09
7.64403e+09
6.48507e+09
9.509e+09
6.86616e+09
7.85819e+09
5.89117e+09
)
;
    }
    procBoundary0to2
    {
        type            processor;
        value           nonuniform List<scalar> 
44
(
7.66618e+09
6.52673e+09
3.64935e+09
6.94001e+09
4.27497e+09
5.60329e+09
6.66377e+09
7.35547e+09
7.66618e+09
7.01066e+09
7.66618e+09
6.52673e+09
9.84855e+09
1.23072e+10
6.6106e+09
1.12303e+10
4.73252e+09
7.93628e+09
9.594e+09
9.17595e+09
9.84855e+09
8.88534e+09
9.84855e+09
1.23072e+10
8.04546e+09
9.28616e+09
6.8616e+09
5.73945e+09
6.7497e+09
6.87078e+09
6.76433e+09
7.69985e+09
8.04546e+09
9.82784e+09
8.04546e+09
9.28616e+09
4.89893e+09
9.48277e+09
1.02997e+10
7.15305e+09
8.23819e+09
6.26762e+09
7.5824e+09
7.47111e+09
)
;
    }
    procBoundary0to4
    {
        type            processor;
        value           nonuniform List<scalar> 
36
(
5.75165e+09
7.52594e+09
9.26341e+09
6.41973e+09
8.00707e+09
6.44748e+09
9.80436e+09
7.33197e+09
1.05225e+10
7.01842e+09
7.29719e+09
9.39002e+09
1.0043e+10
1.01189e+10
8.59492e+09
8.14479e+09
5.77775e+09
1.11115e+10
6.6885e+09
1.0278e+10
8.31739e+09
9.36886e+09
8.12477e+09
6.30922e+09
7.30871e+09
1.03006e+10
6.74136e+09
3.45724e+09
6.72932e+09
9.39402e+09
5.69797e+09
8.79115e+09
6.65045e+09
1.10138e+10
5.97597e+09
7.04824e+09
)
;
    }
    procBoundary0to6
    {
        type            processor;
        value           uniform 8.10118e+09;
    }
    procBoundary0to7
    {
        type            processor;
        value           uniform 1.00163e+10;
    }
}


// ************************************************************************* //
