/*--------------------------------*- C++ -*----------------------------------*\
| =========                 |                                                 |
| \\      /  F ield         | OpenFOAM: The Open Source CFD Toolbox           |
|  \\    /   O peration     | Version:  4.x                                   |
|   \\  /    A nd           | Web:      www.OpenFOAM.org                      |
|    \\/     M anipulation  |                                                 |
\*---------------------------------------------------------------------------*/
FoamFile
{
    version     2.0;
    format      ascii;
    class       volScalarField;
    location    "12";
    object      alpha.iron;
}
// * * * * * * * * * * * * * * * * * * * * * * * * * * * * * * * * * * * * * //

dimensions      [0 0 0 0 0 0 0];

internalField   nonuniform List<scalar> 
114
(
0.999968
0.999922
0.999843
0.999721
0.999549
0.999347
1
0.999997
0.999989
0.999969
0.999926
0.999851
0.999732
0.999566
0.999363
1
0.999997
0.99999
0.999972
0.999934
0.999871
0.99977
0.999628
0.999411
0.999999
0.999997
0.999991
0.999978
0.999951
0.999909
0.999843
0.999753
0.999628
0.999756
0.999578
0.999402
0.999286
1
0.999998
0.999991
0.999966
0.999907
0.999796
0.999635
0.999456
0.999314
1
0.999998
0.999992
0.99997
0.999921
0.999826
0.999681
0.999501
0.999338
1
0.999998
0.999994
0.999981
0.999954
0.999906
0.999826
0.999719
0.999584
0.999564
0.999516
1
0.999999
0.999993
0.999972
0.999925
0.999838
0.999724
0.99962
0.999548
1
0.999999
0.999994
0.999976
0.999934
0.999853
0.99974
0.999621
0.999529
1
0.999999
0.999995
0.999986
0.999963
0.999924
0.999857
0.999766
0.999646
1
0.999999
0.999995
0.999981
0.999952
0.999902
0.99984
0.999788
1
0.999999
0.999995
0.999984
0.999957
0.999909
0.999844
1
0.999999
0.999997
0.999991
0.999977
0.999953
)
;

boundaryField
{
    inlet
    {
        type            fixedValue;
        value           uniform 1;
    }
    outlet
    {
        type            fixedValue;
        value           nonuniform 0();
    }
    wall
    {
        type            zeroGradient;
    }
    procBoundary2to0
    {
        type            processor;
        value           nonuniform List<scalar> 
44
(
0.99997
0.999928
0.999857
0.999745
0.999586
0.999388
1
0.999997
0.999989
0.999989
0.999958
0.999888
0.99979
0.999632
0.999465
0.999342
1
0.999998
0.999989
0.999958
0.999888
0.999888
0.999789
0.99966
0.999594
0.999549
1
0.999998
0.999991
0.999963
0.999899
0.999789
0.99966
0.99966
0.999732
0.999694
1
0.999999
0.999994
0.999976
0.999937
0.999875
0.999796
0.999732
)
;
    }
    procBoundary2to3
    {
        type            processor;
        value           nonuniform List<scalar> 
12
(
0.999163
0.99916
0.999228
0.999488
0.999275
0.99926
0.999236
0.999445
0.999565
0.99957
0.999521
0.999532
)
;
    }
    procBoundary2to6
    {
        type            processor;
        value           nonuniform List<scalar> 
32
(
0.999753
0.999779
0.999728
0.999915
0.999865
0.999802
1
0.999999
0.999995
0.99998
0.999949
0.9999
0.999851
0.999753
0.999779
0.999825
1
0.999999
0.999996
0.999985
0.999961
0.999922
0.999779
0.999915
0.999874
1
0.999999
0.999997
0.999992
0.999981
0.999915
0.999962
)
;
    }
}


// ************************************************************************* //
