/*--------------------------------*- C++ -*----------------------------------*\
| =========                 |                                                 |
| \\      /  F ield         | OpenFOAM: The Open Source CFD Toolbox           |
|  \\    /   O peration     | Version:  4.x                                   |
|   \\  /    A nd           | Web:      www.OpenFOAM.org                      |
|    \\/     M anipulation  |                                                 |
\*---------------------------------------------------------------------------*/
FoamFile
{
    version     2.0;
    format      ascii;
    class       volVectorField;
    location    "12";
    object      impParticleForces;
}
// * * * * * * * * * * * * * * * * * * * * * * * * * * * * * * * * * * * * * //

dimensions      [1 1 -2 0 0 0 0];

internalField   nonuniform List<vector> 
114
(
(0.00238244 -3.77946e-06 -9.577e-05)
(0.00241821 -3.26488e-06 -8.30141e-05)
(0.00241456 -2.50711e-06 -6.42236e-05)
(0.00244148 -1.54154e-06 -4.42447e-05)
(0.00240798 1.71901e-07 -2.27337e-05)
(0.00240901 2.33652e-06 -4.37433e-06)
(0.00228285 4.94598e-06 -0.000106572)
(0.00231301 5.75111e-06 -0.000107555)
(0.00235813 6.68581e-06 -0.000104655)
(0.00238092 7.12768e-06 -9.57221e-05)
(0.00242516 7.61751e-06 -8.38883e-05)
(0.00241782 7.47648e-06 -6.51523e-05)
(0.00244668 8.1435e-06 -4.54757e-05)
(0.00242776 9.25074e-06 -2.39133e-05)
(0.00241987 1.12292e-05 -5.34992e-06)
(0.00225698 1.26444e-05 -0.000104016)
(0.00229177 1.36761e-05 -0.000105341)
(0.0023335 1.45489e-05 -0.00010256)
(0.0023624 1.48386e-05 -9.42551e-05)
(0.00240458 1.52503e-05 -8.28844e-05)
(0.00240519 1.48267e-05 -6.57012e-05)
(0.00240992 1.49551e-05 -4.59519e-05)
(0.00243158 1.62282e-05 -2.54738e-05)
(0.00244542 1.85298e-05 -6.75343e-06)
(0.00221934 1.56292e-05 -0.000100662)
(0.0022424 1.64103e-05 -0.000100812)
(0.00229514 1.75367e-05 -9.86849e-05)
(0.002314 1.74906e-05 -9.0393e-05)
(0.00234819 1.76828e-05 -7.9419e-05)
(0.00235641 1.72671e-05 -6.35599e-05)
(0.00236433 1.75308e-05 -4.54156e-05)
(0.00238839 1.8608e-05 -2.66069e-05)
(0.0024072 2.06203e-05 -8.95266e-06)
(0.00246984 -3.10719e-06 -6.47583e-05)
(0.00249568 -2.33242e-06 -4.33815e-05)
(0.00243847 -5.12095e-07 -2.10853e-05)
(0.00245444 1.35394e-06 -2.19715e-06)
(0.00230786 5.63376e-06 -0.00010684)
(0.00235757 6.65214e-06 -0.000109615)
(0.00242225 7.90605e-06 -0.000109183)
(0.00243446 8.28919e-06 -9.85676e-05)
(0.00246952 8.6908e-06 -8.56865e-05)
(0.00245092 7.97871e-06 -6.4985e-05)
(0.00248764 8.38898e-06 -4.48104e-05)
(0.00244831 8.94935e-06 -2.2656e-05)
(0.00244468 1.04568e-05 -4.14235e-06)
(0.00229238 1.41659e-05 -0.000105393)
(0.00234771 1.58992e-05 -0.000108693)
(0.00241849 1.7763e-05 -0.000108859)
(0.00242435 1.72706e-05 -9.79733e-05)
(0.00245138 1.73095e-05 -8.51859e-05)
(0.00244728 1.6423e-05 -6.66159e-05)
(0.00246878 1.65839e-05 -4.68488e-05)
(0.00245105 1.6564e-05 -2.51715e-05)
(0.00246753 1.82212e-05 -5.93048e-06)
(0.00224384 1.70279e-05 -0.000100833)
(0.00228372 1.83881e-05 -0.000102414)
(0.00235554 2.03465e-05 -0.000102618)
(0.00235466 1.95821e-05 -9.22866e-05)
(0.00237835 1.94032e-05 -8.04092e-05)
(0.00239015 1.88217e-05 -6.44774e-05)
(0.00240658 1.89636e-05 -4.61359e-05)
(0.00240557 1.90746e-05 -2.65393e-05)
(0.00240994 2.01582e-05 -8.53559e-06)
(0.00240508 -1.69123e-06 -1.81706e-05)
(0.00241392 -3.21329e-07 -2.80565e-06)
(0.00232916 6.48906e-06 -0.000100862)
(0.00236042 7.2857e-06 -0.000101717)
(0.00241409 8.38046e-06 -0.000100038)
(0.00241739 8.37643e-06 -8.94505e-05)
(0.00243707 8.22459e-06 -7.59029e-05)
(0.00242255 7.43152e-06 -5.7061e-05)
(0.00244589 7.33032e-06 -3.8104e-05)
(0.00241089 7.47294e-06 -1.95562e-05)
(0.00241547 8.40475e-06 -4.21833e-06)
(0.00229895 1.50977e-05 -9.82903e-05)
(0.00234421 1.67449e-05 -0.000100428)
(0.00241489 1.89283e-05 -0.00010048)
(0.00242016 1.83153e-05 -9.07166e-05)
(0.00243537 1.77732e-05 -7.71561e-05)
(0.00241352 1.59874e-05 -5.87592e-05)
(0.00244697 1.6079e-05 -4.08554e-05)
(0.00242059 1.51418e-05 -2.20512e-05)
(0.00244455 1.59091e-05 -5.43123e-06)
(0.00225895 1.83742e-05 -9.50587e-05)
(0.00229864 2.00098e-05 -9.6618e-05)
(0.00235428 2.16883e-05 -9.53343e-05)
(0.00236222 2.10437e-05 -8.6686e-05)
(0.00236248 1.98707e-05 -7.32902e-05)
(0.00237515 1.91253e-05 -5.83538e-05)
(0.00240806 1.93191e-05 -4.20104e-05)
(0.00238349 1.79556e-05 -2.38403e-05)
(0.00240688 1.84813e-05 -7.83226e-06)
(0.00232896 6.83809e-06 -8.7695e-05)
(0.00237689 7.86671e-06 -8.88367e-05)
(0.00242438 8.89588e-06 -8.65165e-05)
(0.00240388 8.13569e-06 -7.57085e-05)
(0.0024189 7.6036e-06 -6.33949e-05)
(0.00239316 6.52165e-06 -4.71221e-05)
(0.00241081 5.99712e-06 -3.10126e-05)
(0.00237872 5.852e-06 -1.65461e-05)
(0.0023019 1.58198e-05 -8.597e-05)
(0.00234723 1.7553e-05 -8.7402e-05)
(0.00241081 1.95443e-05 -8.62233e-05)
(0.00239158 1.77187e-05 -7.61767e-05)
(0.00241869 1.73203e-05 -6.51466e-05)
(0.00239047 1.51408e-05 -4.9257e-05)
(0.00241526 1.45662e-05 -3.40371e-05)
(0.00225005 1.88197e-05 -8.29994e-05)
(0.00229012 2.04566e-05 -8.41116e-05)
(0.00235098 2.23525e-05 -8.30398e-05)
(0.00234893 2.11108e-05 -7.47065e-05)
(0.00237187 2.05505e-05 -6.41307e-05)
(0.00235533 1.85165e-05 -4.965e-05)
)
;

boundaryField
{
    inlet
    {
        type            zeroGradient;
    }
    outlet
    {
        type            zeroGradient;
    }
    wall
    {
        type            zeroGradient;
    }
    procBoundary2to0
    {
        type            processor;
        value           nonuniform List<vector> 
44
(
(0.00237454 -1.43577e-05 -9.4586e-05)
(0.00242474 -1.37721e-05 -8.29237e-05)
(0.00242095 -1.22005e-05 -6.44071e-05)
(0.00243008 -1.0839e-05 -4.40877e-05)
(0.00241848 -8.79378e-06 -2.26449e-05)
(0.00244728 -6.82246e-06 -3.4443e-06)
(0.002275 -5.38775e-06 -0.000106575)
(0.00229906 -5.11089e-06 -0.0001067)
(0.00233833 -4.55823e-06 -0.000103372)
(0.00233833 -4.55823e-06 -0.000103372)
(0.00241939 -4.2434e-06 -9.68444e-05)
(0.00248306 -3.51064e-06 -8.59364e-05)
(0.00246251 -1.36368e-05 -6.43743e-05)
(0.00249018 -1.25026e-05 -4.34457e-05)
(0.00244086 -9.98034e-06 -2.1432e-05)
(0.0024482 -7.89909e-06 -2.31023e-06)
(0.00232949 -5.68119e-06 -0.000109456)
(0.00235633 -5.45983e-06 -0.000109937)
(0.00241055 -5.13781e-06 -0.000108531)
(0.00241939 -4.2434e-06 -9.68444e-05)
(0.00248306 -3.51064e-06 -8.59364e-05)
(0.00248306 -3.51064e-06 -8.59364e-05)
(0.00243767 -3.56096e-06 -5.65515e-05)
(0.00245137 -3.11462e-06 -3.63337e-05)
(0.0024067 -1.05072e-05 -1.83668e-05)
(0.00241168 -9.0231e-06 -2.57375e-06)
(0.00234025 -5.69118e-06 -0.000102079)
(0.00237475 -5.66308e-06 -0.000103403)
(0.00243087 -5.38347e-06 -0.000101464)
(0.00242753 -4.61099e-06 -8.96314e-05)
(0.00245956 -4.13973e-06 -7.61898e-05)
(0.00243767 -3.56096e-06 -5.65515e-05)
(0.00245137 -3.11462e-06 -3.63337e-05)
(0.00245137 -3.11462e-06 -3.63337e-05)
(0.00237104 -2.81588e-06 -1.53098e-05)
(0.00237157 -1.98946e-06 -3.86053e-06)
(0.00232293 -5.93465e-06 -8.73852e-05)
(0.0023674 -5.9231e-06 -8.84063e-05)
(0.00242894 -5.85641e-06 -8.63383e-05)
(0.00241927 -5.04303e-06 -7.58563e-05)
(0.00241938 -4.65729e-06 -6.23018e-05)
(0.00240954 -4.1538e-06 -4.61539e-05)
(0.00242054 -3.74716e-06 -2.93245e-05)
(0.00237104 -2.81588e-06 -1.53098e-05)
)
;
    }
    procBoundary2to3
    {
        type            processor;
        value           nonuniform List<vector> 
12
(
(0.00243046 5.37075e-06 8.93445e-06)
(0.00243947 1.43136e-05 8.4872e-06)
(0.00245192 2.16383e-05 8.044e-06)
(0.00239611 2.29569e-05 5.20454e-06)
(0.00244293 3.75663e-06 8.8338e-06)
(0.00245409 1.29232e-05 8.40415e-06)
(0.0024957 2.13308e-05 8.90545e-06)
(0.00243615 2.27871e-05 6.07093e-06)
(0.00241903 1.30226e-06 5.74224e-06)
(0.00242745 9.85192e-06 5.14349e-06)
(0.002442 1.66492e-05 4.98182e-06)
(0.00240476 1.90011e-05 3.2652e-06)
)
;
    }
    procBoundary2to6
    {
        type            processor;
        value           nonuniform List<vector> 
32
(
(0.00240074 6.31416e-06 -4.5051e-06)
(0.00238345 1.29321e-05 -1.90508e-05)
(0.0024136 1.28577e-05 -6.06029e-06)
(0.00236399 1.73889e-05 -3.49752e-05)
(0.00235421 1.58364e-05 -2.0659e-05)
(0.00237103 1.51678e-05 -8.46013e-06)
(0.00234656 7.42956e-06 -7.2176e-05)
(0.00237091 7.70553e-06 -7.11205e-05)
(0.00239106 8.08999e-06 -6.70846e-05)
(0.00238569 7.34606e-06 -5.91845e-05)
(0.00240991 6.80575e-06 -4.953e-05)
(0.00237286 5.40538e-06 -3.65599e-05)
(0.00239392 4.37224e-06 -2.39453e-05)
(0.00240074 6.31416e-06 -4.5051e-06)
(0.00238345 1.29321e-05 -1.90508e-05)
(0.00235823 3.94792e-06 -1.32422e-05)
(0.00231203 1.68463e-05 -7.10868e-05)
(0.00234692 1.79838e-05 -7.07323e-05)
(0.0023822 1.87777e-05 -6.7476e-05)
(0.00238196 1.73667e-05 -6.02495e-05)
(0.00240392 1.65109e-05 -5.10788e-05)
(0.0023781 1.42125e-05 -3.8857e-05)
(0.00238345 1.29321e-05 -1.90508e-05)
(0.00236399 1.73889e-05 -3.49752e-05)
(0.00239512 1.28914e-05 -2.63655e-05)
(0.00225703 1.95992e-05 -6.95517e-05)
(0.00228922 2.08986e-05 -6.94599e-05)
(0.0023163 2.12455e-05 -6.63296e-05)
(0.00232668 2.02911e-05 -6.00285e-05)
(0.00236433 2.00613e-05 -5.15469e-05)
(0.00236399 1.73889e-05 -3.49752e-05)
(0.00235757 1.81469e-05 -4.04825e-05)
)
;
    }
}


// ************************************************************************* //
