/*--------------------------------*- C++ -*----------------------------------*\
| =========                 |                                                 |
| \\      /  F ield         | OpenFOAM: The Open Source CFD Toolbox           |
|  \\    /   O peration     | Version:  4.x                                   |
|   \\  /    A nd           | Web:      www.OpenFOAM.org                      |
|    \\/     M anipulation  |                                                 |
\*---------------------------------------------------------------------------*/
FoamFile
{
    version     2.0;
    format      ascii;
    class       volScalarField;
    location    "12";
    object      KslNext;
}
// * * * * * * * * * * * * * * * * * * * * * * * * * * * * * * * * * * * * * //

dimensions      [1 -3 -1 0 0 0 0];

internalField   nonuniform List<scalar> 
114
(
5670.3
3114.91
4911.64
2996.1
4820.06
2968.13
3445.85
7300.5
3315.85
5919.5
3176.18
5123.52
3037.48
4948.52
2981.9
3377.05
6922.23
3200.41
5390.01
3024.92
4550.13
2832.5
4199.83
2787.45
3328.15
6295.74
3078.55
4769.23
2830.99
3922.98
2584.84
3423.25
2440.09
12968.8
3906.38
18506.1
3816.82
3486.08
8859.98
3612.63
9838.01
3719.42
11691.7
3815.54
16157.8
3759.79
3440.77
8465.15
3544.28
8755.67
3574.82
9359.48
3640.74
11416.9
3643.42
3368.97
7085.04
3306.85
6083.24
3158.62
5433.87
3059
5086.74
2941.75
440020
3959.92
3527.3
9835.17
3748.2
13855.4
3887.99
23431.5
3953.37
60730.7
3882.66
3458.86
9449.98
3672.23
12402.5
3790.64
18104.2
3884.8
37560.1
3853.99
3388.83
7707.39
3405.7
7236.11
3333.17
6835.78
3345.85
6770.86
3274.26
3541.84
10218.1
3780.4
14218.6
3833.37
19431.1
3792.8
24180.7
3484.59
9490.18
3703.14
12195.2
3773.36
16245.1
3763.01
3380.26
7546.59
3410.28
7187.55
3355.04
6849.72
)
;

boundaryField
{
    inlet
    {
        type            zeroGradient;
    }
    outlet
    {
        type            zeroGradient;
    }
    wall
    {
        type            zeroGradient;
    }
    procBoundary2to0
    {
        type            processor;
        value           uniform 0;
    }
    procBoundary2to3
    {
        type            processor;
        value           uniform 0;
    }
    procBoundary2to6
    {
        type            processor;
        value           uniform 0;
    }
}


// ************************************************************************* //
