/*--------------------------------*- C++ -*----------------------------------*\
| =========                 |                                                 |
| \\      /  F ield         | OpenFOAM: The Open Source CFD Toolbox           |
|  \\    /   O peration     | Version:  4.x                                   |
|   \\  /    A nd           | Web:      www.OpenFOAM.org                      |
|    \\/     M anipulation  |                                                 |
\*---------------------------------------------------------------------------*/
FoamFile
{
    version     2.0;
    format      ascii;
    class       volScalarField;
    location    "12";
    object      KslPrev;
}
// * * * * * * * * * * * * * * * * * * * * * * * * * * * * * * * * * * * * * //

dimensions      [1 -3 -1 0 0 0 0];

internalField   nonuniform List<scalar> 
114
(
5669.73
3115.01
4911.93
2996.28
4820.51
2968.26
3446.17
7300.93
3316.13
5919.54
3176.3
5123.69
3037.6
4948.81
2981.99
3377.36
6922.69
3200.65
5390.25
3025.07
4550.3
2832.6
4200.01
2787.52
3328.46
6296.22
3078.77
4769.48
2831.14
3923.14
2584.93
3423.35
2440.13
12969
3906.58
18508.4
3816.93
3486.46
8860.48
3612.87
9837.59
3719.57
11691.6
3815.69
16158.4
3759.87
3441.1
8465.69
3544.52
8755.84
3574.99
9359.7
3640.88
11417.5
3643.51
3369.28
7085.57
3307.08
6083.53
3158.78
5434.08
3059.11
5086.92
2941.82
439502
3960.1
3527.66
9835.61
3748.42
13854.3
3888.14
23429
3953.52
60724
3882.76
3459.18
9450.57
3672.47
12402.4
3790.82
18103.8
3884.93
37560.4
3854.09
3389.13
7707.95
3405.93
7236.42
3333.34
6836.03
3345.97
6771.09
3274.34
3542.18
10218.5
3780.63
14217.9
3833.54
19430
3792.96
24180.6
3484.9
9490.78
3703.37
12195.3
3773.54
16245
3763.15
3380.55
7547.14
3410.5
7187.87
3355.21
6849.96
)
;

boundaryField
{
    inlet
    {
        type            zeroGradient;
    }
    outlet
    {
        type            zeroGradient;
    }
    wall
    {
        type            zeroGradient;
    }
    procBoundary2to0
    {
        type            processor;
        value           uniform 0;
    }
    procBoundary2to3
    {
        type            processor;
        value           uniform 0;
    }
    procBoundary2to6
    {
        type            processor;
        value           uniform 0;
    }
}


// ************************************************************************* //
