/*--------------------------------*- C++ -*----------------------------------*\
| =========                 |                                                 |
| \\      /  F ield         | OpenFOAM: The Open Source CFD Toolbox           |
|  \\    /   O peration     | Version:  4.x                                   |
|   \\  /    A nd           | Web:      www.OpenFOAM.org                      |
|    \\/     M anipulation  |                                                 |
\*---------------------------------------------------------------------------*/
FoamFile
{
    version     2.0;
    format      ascii;
    class       surfaceScalarField;
    location    "12";
    object      phi;
}
// * * * * * * * * * * * * * * * * * * * * * * * * * * * * * * * * * * * * * //

dimensions      [0 3 -1 0 0 0 0];

internalField   nonuniform List<scalar> 
259
(
1.05219e-05
5.49691e-08
1.12231e-05
6.21532e-08
1.14818e-05
4.08003e-08
-3.66242e-07
1.16343e-05
4.1423e-08
-3.26926e-07
1.1512e-05
8.16098e-08
-7.05391e-09
1.54125e-07
4.79056e-07
8.73158e-06
2.24344e-07
-8.12425e-07
9.10067e-06
1.31505e-07
-4.74303e-07
9.89251e-06
2.53828e-07
-9.84872e-07
1.02461e-05
1.62811e-07
-4.61408e-07
1.08996e-05
2.31776e-07
-8.23092e-07
1.11655e-05
1.35673e-07
-3.60847e-07
1.13819e-05
1.98975e-07
-3.73976e-07
1.13547e-05
1.31711e-07
-2.28052e-08
2.90425e-07
4.00853e-07
8.94693e-06
2.93088e-07
-8.52409e-07
9.43704e-06
1.56451e-07
-5.15052e-07
1.04156e-05
2.96064e-07
-1.02085e-06
1.09058e-05
1.62818e-07
-4.90178e-07
1.17538e-05
2.71931e-07
-8.88186e-07
1.21785e-05
1.27539e-07
-4.16489e-07
1.26822e-05
2.37945e-07
-5.42702e-07
1.27281e-05
1.46505e-07
-6.06952e-08
3.28051e-07
2.42591e-07
9.20346e-06
-7.47108e-07
9.85461e-06
-4.94699e-07
1.10267e-05
-8.76062e-07
1.17155e-05
-5.25934e-07
1.28088e-05
-8.21422e-07
1.34996e-05
-5.63248e-07
1.44041e-05
-6.66479e-07
1.48705e-05
-3.19891e-07
-1.4437e-07
7.01868e-06
5.21985e-08
6.60945e-06
3.70036e-08
6.55774e-06
4.53254e-08
-1.06856e-08
3.50302e-08
4.69926e-07
8.11404e-06
2.7337e-07
-1.00141e-06
8.07054e-06
1.2533e-07
-5.46559e-07
7.92419e-06
3.03629e-07
-1.09185e-06
7.78616e-06
1.5578e-07
-4.23855e-07
7.51598e-06
3.24498e-07
-7.70688e-07
7.30354e-06
1.38228e-07
-2.34435e-07
6.88701e-06
2.44467e-07
-1.64908e-07
6.82146e-06
1.02579e-07
-1.45054e-08
1.78852e-07
4.9005e-07
8.24576e-06
3.58076e-07
-1.01961e-06
8.25346e-06
1.88277e-07
-5.85703e-07
8.27256e-06
4.03791e-07
-1.14011e-06
8.24127e-06
1.82402e-07
-4.85514e-07
8.16852e-06
3.97041e-07
-8.87979e-07
8.02944e-06
1.73036e-07
-3.12214e-07
7.70992e-06
3.74961e-07
-3.53677e-07
7.59714e-06
1.74748e-07
-2.0079e-08
3.54487e-07
4.18442e-07
8.70152e-06
-9.27291e-07
8.99879e-06
-6.03683e-07
9.57623e-06
-1.04971e-06
9.86372e-06
-6.31031e-07
1.03736e-05
-9.34227e-07
1.05927e-05
-6.09351e-07
1.09516e-05
-6.50394e-07
1.1137e-05
-3.30568e-07
-4.16173e-08
5.12278e-06
8.65639e-09
-1.97477e-08
7.76586e-06
3.51119e-07
-8.39674e-07
7.54975e-06
1.53955e-07
-4.27452e-07
7.00752e-06
3.74661e-07
-7.95392e-07
6.77565e-06
1.43426e-07
-2.82554e-07
6.22593e-06
3.1902e-07
-4.52397e-07
6.02826e-06
8.72362e-08
-1.01648e-07
5.5673e-06
1.53114e-07
5.73256e-08
5.53563e-06
3.98033e-08
-1.39843e-08
1.24766e-07
7.90407e-06
3.99513e-07
-8.088e-07
7.7122e-06
2.03326e-07
-4.43205e-07
7.26805e-06
4.85566e-07
-8.06865e-07
7.0646e-06
1.98148e-07
-3.36782e-07
6.60611e-06
4.52032e-07
-5.62508e-07
6.40112e-06
1.3959e-07
-1.5958e-07
5.89524e-06
3.77701e-07
-7.23747e-08
5.8182e-06
1.09895e-07
2.92394e-07
8.38401e-06
-7.48519e-07
8.47691e-06
-4.9326e-07
8.73197e-06
-8.19207e-07
8.82828e-06
-5.29198e-07
9.06222e-06
-7.16129e-07
9.01544e-06
-4.22979e-07
9.13506e-06
9.15238e-06
7.61159e-06
3.25718e-07
7.34011e-06
1.67356e-07
6.82713e-06
3.45355e-07
6.68111e-06
1.18674e-07
6.3511e-06
2.44539e-07
6.29247e-06
8.85532e-08
6.1597e-06
1.70903e-07
7.76521e-06
4.32551e-07
7.56022e-06
2.19183e-07
7.14758e-06
4.55634e-07
6.99391e-06
1.73986e-07
6.6348e-06
3.91977e-07
6.54051e-06
1.44541e-07
8.35065e-06
8.42755e-06
8.62791e-06
8.69566e-06
8.88956e-06
)
;

boundaryField
{
    inlet
    {
        type            calculated;
        value           nonuniform List<scalar> 
12
(
-8.16327e-06
-8.16327e-06
-8.16327e-06
-8.16327e-06
-8.16327e-06
-8.16327e-06
-8.16327e-06
-8.16327e-06
-8.16327e-06
-8.16327e-06
-8.16327e-06
-8.16327e-06
)
;
    }
    outlet
    {
        type            calculated;
        value           nonuniform 0();
    }
    wall
    {
        type            calculated;
        value           uniform 0;
    }
    procBoundary2to0
    {
        type            processor;
        value           nonuniform List<scalar> 
44
(
1.04669e-07
1.39085e-07
6.67095e-08
1.32955e-07
4.78041e-08
1.11011e-07
1.97683e-08
-2.62978e-08
-1.01795e-05
-6.07966e-08
-5.02037e-07
-9.02424e-07
4.43518e-08
1.18832e-07
1.00187e-08
3.14776e-08
-3.51608e-08
-9.56929e-09
-5.02981e-08
-5.531e-08
-7.28581e-06
-1.06721e-07
-1.95662e-07
-7.35332e-08
1.62823e-08
6.463e-08
-1.15449e-07
-5.69588e-08
-1.28887e-07
-5.28581e-08
-8.75894e-08
-2.23507e-08
-5.14169e-06
8.56104e-08
-1.67181e-08
3.89387e-07
-3.60155e-08
-4.96689e-08
-9.79569e-08
-5.75845e-08
-6.52158e-08
-4.91632e-08
-1.65525e-08
-5.10772e-08
)
;
    }
    procBoundary2to3
    {
        type            processor;
        value           nonuniform List<scalar> 
12
(
1.07678e-05
1.08175e-05
1.24479e-05
1.53429e-05
6.50036e-06
6.58844e-06
7.24565e-06
1.13887e-05
5.15844e-06
5.46981e-06
5.61315e-06
9.33745e-06
)
;
    }
    procBoundary2to6
    {
        type            processor;
        value           nonuniform List<scalar> 
32
(
4.11357e-07
-1.3136e-08
4.55866e-07
-3.92317e-07
-2.37995e-07
6.57078e-08
-5.77704e-07
-2.73653e-07
-5.29811e-07
-1.97624e-07
-3.0171e-07
-8.24092e-08
3.57431e-08
6.16098e-06
6.69694e-08
-3.11568e-08
-5.17576e-07
-2.90042e-07
-5.04506e-07
-2.38427e-07
-3.50837e-07
-1.21274e-07
6.36289e-06
3.25727e-07
-4.95799e-08
-5.03348e-07
-3.50983e-07
-5.63928e-07
-4.22971e-07
-5.18046e-07
8.95698e-06
-3.45864e-07
)
;
    }
}


// ************************************************************************* //
