/*--------------------------------*- C++ -*----------------------------------*\
| =========                 |                                                 |
| \\      /  F ield         | OpenFOAM: The Open Source CFD Toolbox           |
|  \\    /   O peration     | Version:  4.x                                   |
|   \\  /    A nd           | Web:      www.OpenFOAM.org                      |
|    \\/     M anipulation  |                                                 |
\*---------------------------------------------------------------------------*/
FoamFile
{
    version     2.0;
    format      ascii;
    class       volScalarField;
    location    "12";
    object      QWallFluidCoeff;
}
// * * * * * * * * * * * * * * * * * * * * * * * * * * * * * * * * * * * * * //

dimensions      [1 -1 -3 -1 0 0 0];

internalField   nonuniform List<scalar> 
114
(
-1.91266e+06
-3.12184e+06
-2.17267e+06
-3.23818e+06
-2.19891e+06
-3.2266e+06
-2.7776e+06
-1.53187e+06
-2.92729e+06
-1.85198e+06
-3.07427e+06
-2.09436e+06
-3.19412e+06
-2.14708e+06
-3.21618e+06
-2.8085e+06
-1.59179e+06
-3.00162e+06
-1.98543e+06
-3.19734e+06
-2.30076e+06
-3.37348e+06
-2.46374e+06
-3.42096e+06
-5.61971e+06
-3.39548e+06
-6.12338e+06
-4.32765e+06
-6.65656e+06
-5.13542e+06
-7.19512e+06
-5.75428e+06
-7.58211e+06
0
0
0
0
0
0
0
0
0
0
0
0
0
0
0
0
0
0
0
0
0
0
-2.76946e+06
-1.54415e+06
-2.8935e+06
-1.77408e+06
-3.01534e+06
-1.96106e+06
-3.11685e+06
-2.06894e+06
-3.21146e+06
0
0
0
0
0
0
0
0
0
0
0
0
0
0
0
0
0
0
0
0
-2.74409e+06
-1.42925e+06
-2.79122e+06
-1.52442e+06
-2.84261e+06
-1.59813e+06
-2.84653e+06
-1.61273e+06
-2.88336e+06
0
0
0
0
0
0
0
0
0
0
0
0
0
0
0
-2.71988e+06
-1.43858e+06
-2.76021e+06
-1.51109e+06
-2.8022e+06
-1.56805e+06
)
;

boundaryField
{
    inlet
    {
        type            calculated;
        value           uniform 0;
    }
    outlet
    {
        type            calculated;
        value           nonuniform 0();
    }
    wall
    {
        type            calculated;
        value           uniform 0;
    }
    procBoundary2to0
    {
        type            processor;
        value           uniform 0;
    }
    procBoundary2to3
    {
        type            processor;
        value           uniform 0;
    }
    procBoundary2to6
    {
        type            processor;
        value           uniform 0;
    }
}


// ************************************************************************* //
