/*--------------------------------*- C++ -*----------------------------------*\
| =========                 |                                                 |
| \\      /  F ield         | OpenFOAM: The Open Source CFD Toolbox           |
|  \\    /   O peration     | Version:  4.x                                   |
|   \\  /    A nd           | Web:      www.OpenFOAM.org                      |
|    \\/     M anipulation  |                                                 |
\*---------------------------------------------------------------------------*/
FoamFile
{
    version     2.0;
    format      ascii;
    class       volScalarField;
    location    "2.5";
    object      particleRelTemp;
}
// * * * * * * * * * * * * * * * * * * * * * * * * * * * * * * * * * * * * * //

dimensions      [0 0 0 0 0 0 0];

internalField   nonuniform List<scalar> 
87
(
-3.87233e-06
-3.46816e-06
-3.19753e-06
-2.61374e-06
-1.92628e-06
-1.47686e-07
1.38295e-06
3.18382e-06
4.06285e-06
-4.52892e-06
-4.12093e-06
-3.5904e-06
-2.30318e-06
-7.93012e-07
1.16028e-06
3.56287e-06
5.41599e-06
5.69617e-06
-4.71934e-06
-4.67181e-06
-3.80595e-06
-2.22455e-06
1.82133e-07
2.38041e-06
5.44448e-06
7.26186e-06
7.83568e-06
-3.79609e-06
-3.60708e-06
-3.42417e-06
-2.85167e-06
-1.60883e-06
1.93431e-07
1.90187e-06
3.85607e-06
4.61581e-06
-4.27332e-06
-4.00433e-06
-3.72031e-06
-2.60837e-06
-6.03726e-07
1.67668e-06
3.78401e-06
6.35584e-06
8.00246e-06
-4.58477e-06
-4.67289e-06
-4.11223e-06
-2.57825e-06
4.43401e-07
2.68877e-06
5.32805e-06
8.27084e-06
9.75462e-06
-3.38843e-06
-3.6303e-06
-3.49826e-06
-2.89233e-06
-1.65742e-06
2.75546e-07
1.93985e-06
3.97482e-06
5.67061e-06
-3.79627e-06
-3.96821e-06
-3.88301e-06
-2.89177e-06
-1.05582e-06
1.06701e-06
4.29539e-06
6.73286e-06
8.48962e-06
-4.07658e-06
-4.53198e-06
-4.26185e-06
-3.28716e-06
-8.92267e-07
2.43136e-06
6.22707e-06
8.49515e-06
1.04798e-05
-3.04126e-06
-3.28465e-06
-3.41293e-06
-3.27795e-06
-3.7903e-06
-3.35009e-06
)
;

boundaryField
{
    inlet
    {
        type            calculated;
        value           nonuniform 0();
    }
    outlet
    {
        type            calculated;
        value           nonuniform List<scalar> 9(4.06285e-06 5.69617e-06 7.83568e-06 4.61581e-06 8.00246e-06 9.75462e-06 5.67061e-06 8.48962e-06 1.04798e-05);
    }
    wall
    {
        type            calculated;
        value           nonuniform List<scalar> 
57
(
-3.87233e-06
-4.52892e-06
-4.71934e-06
-3.46816e-06
-4.12093e-06
-4.67181e-06
-3.19753e-06
-3.5904e-06
-3.80595e-06
-2.61374e-06
-2.30318e-06
-2.22455e-06
-1.92628e-06
-7.93012e-07
1.82133e-07
-1.47686e-07
1.16028e-06
2.38041e-06
1.38295e-06
3.56287e-06
5.44448e-06
3.18382e-06
5.41599e-06
7.26186e-06
4.06285e-06
5.69617e-06
7.83568e-06
-3.87233e-06
-3.79609e-06
-3.38843e-06
-3.04126e-06
-3.46816e-06
-3.60708e-06
-3.6303e-06
-3.28465e-06
-3.19753e-06
-3.42417e-06
-3.49826e-06
-3.41293e-06
-2.61374e-06
-2.85167e-06
-2.89233e-06
-1.92628e-06
-1.60883e-06
-1.65742e-06
-1.47686e-07
1.93431e-07
2.75546e-07
1.38295e-06
1.90187e-06
1.93985e-06
3.18382e-06
3.85607e-06
3.97482e-06
4.06285e-06
4.61581e-06
5.67061e-06
)
;
    }
    procBoundary1to0
    {
        type            processor;
        value           nonuniform List<scalar> 
12
(
-3.14963e-06
-3.80362e-06
-3.67905e-06
-3.3018e-06
-3.66428e-06
-3.84518e-06
-2.76668e-06
-2.87628e-06
-2.964e-06
-2.14848e-06
-2.42331e-06
-2.34624e-06
)
;
    }
    procBoundary1to3
    {
        type            processor;
        value           nonuniform List<scalar> 
27
(
-3.81155e-06
-4.75839e-06
-4.23384e-06
-2.8949e-06
-3.80963e-07
2.5253e-06
5.45632e-06
8.04647e-06
8.98728e-06
-4.49473e-06
-4.99076e-06
-4.42976e-06
-2.58512e-06
1.30158e-08
2.50826e-06
5.88784e-06
8.9595e-06
1.00597e-05
-4.05816e-06
-4.7554e-06
-4.5067e-06
-3.17089e-06
-3.70056e-07
2.74215e-06
5.74699e-06
9.45442e-06
1.09346e-05
)
;
    }
    procBoundary1to5
    {
        type            processor;
        value           nonuniform List<scalar> 
32
(
-2.98075e-06
-1.86196e-06
-6.28276e-07
1.18326e-06
3.05626e-06
4.53119e-06
-3.69104e-06
-3.01314e-06
-1.71206e-06
3.7381e-07
2.72692e-06
5.54451e-06
7.58031e-06
-4.14735e-06
-4.06218e-06
-2.96529e-06
-1.44534e-06
1.04147e-06
4.33528e-06
7.58888e-06
9.99789e-06
-2.60108e-06
-2.86308e-06
-2.98075e-06
-3.69104e-06
-3.2042e-06
-2.62962e-06
-3.69104e-06
-4.14735e-06
-3.19851e-06
-4.14735e-06
-2.79104e-06
)
;
    }
    procBoundary1to7
    {
        type            processor;
        value           uniform -3.45414e-06;
    }
}


// ************************************************************************* //
