/*--------------------------------*- C++ -*----------------------------------*\
| =========                 |                                                 |
| \\      /  F ield         | OpenFOAM: The Open Source CFD Toolbox           |
|  \\    /   O peration     | Version:  4.x                                   |
|   \\  /    A nd           | Web:      www.OpenFOAM.org                      |
|    \\/     M anipulation  |                                                 |
\*---------------------------------------------------------------------------*/
FoamFile
{
    version     2.0;
    format      ascii;
    class       volScalarField;
    location    "2.5";
    object      rho;
}
// * * * * * * * * * * * * * * * * * * * * * * * * * * * * * * * * * * * * * //

dimensions      [1 -3 0 0 0 0 0];

internalField   nonuniform List<scalar> 
87
(
6694.14
6696.51
6698.15
6699.09
6699.22
6698.85
6698.95
6700.38
6700.45
6701.2
6703.46
6704.57
6704.38
6703.04
6701.74
6700.97
6700.54
6700.06
6703.38
6705.01
6705.23
6704.51
6703.3
6702.16
6701.1
6700.43
6700.05
6697.22
6699.23
6700.71
6701.53
6701.55
6700.97
6700.59
6701.21
6702.03
6703.53
6705
6705.52
6705.3
6704.39
6703.56
6702.73
6703.06
6701.42
6704.51
6705.41
6705.5
6705.1
6704.45
6703.75
6702.65
6701.92
6700.23
6698.03
6699.44
6700.68
6701.56
6702.01
6701.97
6701.7
6701.77
6714.88
6703.27
6704.51
6705.26
6705.38
6705.09
6704.74
6703.93
6703.38
6703.08
6704.3
6705.08
6705.19
6704.7
6704.23
6703.59
6703.13
6702.8
6701.15
6698.44
6699.29
6700.16
6702.86
6703.8
6703.44
)
;

boundaryField
{
    inlet
    {
        type            calculated;
        value           nonuniform 0();
    }
    outlet
    {
        type            calculated;
        value           uniform 6700;
    }
    wall
    {
        type            calculated;
        value           nonuniform List<scalar> 
57
(
6694.14
6701.2
6703.38
6696.51
6703.46
6705.01
6698.15
6704.57
6705.23
6699.09
6704.38
6704.51
6699.22
6703.04
6703.3
6698.85
6701.74
6702.16
6698.95
6700.97
6701.1
6700.38
6700.54
6700.43
6700.45
6700.06
6700.05
6694.14
6697.22
6698.03
6698.44
6696.51
6699.23
6699.44
6699.29
6698.15
6700.71
6700.68
6700.16
6699.09
6701.53
6701.56
6699.22
6701.55
6702.01
6698.85
6700.97
6701.97
6698.95
6700.59
6701.7
6700.38
6701.21
6701.77
6700.45
6702.03
6714.88
)
;
    }
    procBoundary1to0
    {
        type            processor;
        value           nonuniform List<scalar> 
12
(
6691.83
6698.12
6700.73
6695.38
6701.53
6702.85
6696.81
6701.72
6702.88
6697.72
6701.76
6702.42
)
;
    }
    procBoundary1to3
    {
        type            processor;
        value           nonuniform List<scalar> 
27
(
6702.44
6704.82
6705.07
6704.45
6703.58
6702.68
6701.81
6701.37
6700.11
6703.21
6704.8
6705.47
6705.12
6704.52
6703.74
6702.68
6701.84
6700.35
6701.71
6702.76
6704.21
6705.23
6705.81
6705.33
6704.42
6703.46
6708.92
)
;
    }
    procBoundary1to5
    {
        type            processor;
        value           nonuniform List<scalar> 
32
(
6700.9
6701.51
6701.74
6701.93
6701.93
6803.62
6704.39
6704.86
6704.89
6704.42
6703.99
6703.22
6703.37
6704.24
6704.95
6705.02
6704.54
6703.58
6702.96
6702.59
6702.76
6698.84
6699.53
6700.9
6704.39
6700.02
6702.89
6704.39
6704.24
6703.91
6704.24
6703.17
)
;
    }
    procBoundary1to7
    {
        type            processor;
        value           uniform 6701.98;
    }
}


// ************************************************************************* //
