/*--------------------------------*- C++ -*----------------------------------*\
| =========                 |                                                 |
| \\      /  F ield         | OpenFOAM: The Open Source CFD Toolbox           |
|  \\    /   O peration     | Version:  4.x                                   |
|   \\  /    A nd           | Web:      www.OpenFOAM.org                      |
|    \\/     M anipulation  |                                                 |
\*---------------------------------------------------------------------------*/
FoamFile
{
    version     2.0;
    format      ascii;
    class       volScalarField;
    location    "28.5";
    object      Cs;
}
// * * * * * * * * * * * * * * * * * * * * * * * * * * * * * * * * * * * * * //

dimensions      [1 -3 0 0 0 0 0];

internalField   nonuniform List<scalar> 
114
(
334.998
334.997
334.994
334.991
334.983
334.881
334.994
334.989
334.983
334.974
334.966
334.952
334.894
334.992
334.986
334.977
334.969
334.96
334.955
334.946
334.915
335
334.999
334.998
334.997
334.996
334.994
334.99
334.987
334.801
334.997
334.995
334.99
334.986
334.981
334.977
334.975
334.974
335.005
334.996
334.992
334.987
334.981
334.975
334.972
334.973
334.976
335.09
334.995
334.991
335
335
334.999
334.999
334.998
334.997
334.995
334.993
334.607
334.999
334.998
334.996
334.994
334.991
334.988
334.984
334.983
335.005
334.998
334.997
334.994
334.991
334.987
334.983
334.979
334.978
335.036
334.997
334.994
334.99
334.985
334.999
334.999
334.999
334.999
334.999
334.998
334.997
334.997
336.503
335
335
334.999
334.999
334.998
334.997
334.995
334.993
334.91
334.999
334.999
334.999
334.998
334.996
334.994
334.991
334.989
334.91
334.999
334.999
334.998
334.996
334.994
334.992
)
;

boundaryField
{
    inlet
    {
        type            calculated;
        value           nonuniform 0();
    }
    outlet
    {
        type            calculated;
        value           uniform 335;
    }
    wall
    {
        type            calculated;
        value           nonuniform List<scalar> 
66
(
334.999
335
334.999
334.999
334.999
335
334.999
334.999
334.999
334.999
334.999
334.998
334.999
334.999
334.998
334.996
334.999
334.998
334.996
334.994
334.998
334.997
334.994
334.992
334.997
334.995
334.991
334.997
334.993
334.989
336.503
334.91
334.91
335
335
334.999
334.999
335
334.999
334.998
334.999
334.999
334.998
334.997
334.999
334.999
334.997
334.996
334.998
334.999
334.994
334.994
334.997
334.998
334.991
334.99
334.995
334.997
334.983
334.987
334.993
334.997
334.881
334.801
334.607
336.503
)
;
    }
    procBoundary5to1
    {
        type            processor;
        value           nonuniform List<scalar> 
32
(
334.997
334.995
334.991
334.982
334.976
334.693
334.984
334.976
334.96
334.947
334.93
334.927
334.719
334.976
334.967
334.958
334.947
334.938
334.93
334.924
334.86
335
334.999
334.999
334.999
334.999
334.998
334.997
334.997
334.997
334.996
334.996
)
;
    }
    procBoundary5to4
    {
        type            processor;
        value           nonuniform List<scalar> 
12
(
335
334.999
334.998
334.998
335
335
334.999
334.999
335
335
335
335
)
;
    }
    procBoundary5to7
    {
        type            processor;
        value           nonuniform List<scalar> 
44
(
334.99
334.983
334.973
334.963
334.949
334.942
334.932
334.986
334.995
334.99
334.985
334.978
334.972
334.966
334.966
334.968
335.213
334.992
334.985
334.986
334.985
334.978
334.979
334.975
334.974
334.977
335.053
334.998
334.996
334.992
334.979
334.988
334.979
334.975
334.988
334.984
334.888
334.999
334.999
334.998
334.997
334.995
334.988
334.991
)
;
    }
}


// ************************************************************************* //
