/*--------------------------------*- C++ -*----------------------------------*\
| =========                 |                                                 |
| \\      /  F ield         | OpenFOAM: The Open Source CFD Toolbox           |
|  \\    /   O peration     | Version:  4.x                                   |
|   \\  /    A nd           | Web:      www.OpenFOAM.org                      |
|    \\/     M anipulation  |                                                 |
\*---------------------------------------------------------------------------*/
FoamFile
{
    version     2.0;
    format      ascii;
    class       volVectorField;
    location    "44.5";
    object      ddtUrel;
}
// * * * * * * * * * * * * * * * * * * * * * * * * * * * * * * * * * * * * * //

dimensions      [0 1 -2 0 0 0 0];

internalField   nonuniform List<vector> 
108
(
(-2.15926e-13 1.71289e-11 7.59851e-11)
(2.19883e-12 6.71767e-12 6.1946e-11)
(-2.12093e-11 -1.17528e-11 2.95301e-11)
(-1.11601e-10 -3.38637e-11 -1.28796e-11)
(-2.92077e-10 -5.27998e-11 -4.84355e-11)
(-5.62122e-10 -6.14759e-11 -6.23227e-11)
(-9.75369e-10 -6.38521e-11 -6.44228e-11)
(-1.55902e-09 -5.70504e-11 -5.56102e-11)
(-2.29962e-09 -4.73568e-11 -4.54557e-11)
(3.83946e-12 1.88578e-11 6.61611e-11)
(8.71933e-12 6.24235e-12 5.37244e-11)
(-1.29992e-11 -1.54724e-11 2.3989e-11)
(-9.57356e-11 -4.09951e-11 -1.37945e-11)
(-2.47852e-10 -6.00409e-11 -4.67725e-11)
(-4.93539e-10 -7.05123e-11 -6.13183e-11)
(-8.49724e-10 -7.33346e-11 -6.77456e-11)
(-1.34231e-09 -6.84866e-11 -6.42105e-11)
(-1.93108e-09 -5.57852e-11 -6.69666e-11)
(-7.82426e-12 1.86507e-11 4.56849e-11)
(-5.08238e-12 5.7202e-12 3.51753e-11)
(-2.27416e-11 -1.78306e-11 1.06412e-11)
(-9.33912e-11 -4.59913e-11 -1.75056e-11)
(-2.15768e-10 -6.5197e-11 -4.63349e-11)
(-4.17226e-10 -7.71742e-11 -6.16473e-11)
(-6.91154e-10 -7.73845e-11 -7.30669e-11)
(-1.05717e-09 -6.95296e-11 -7.56766e-11)
(-1.46764e-09 -5.3264e-11 -8.37928e-11)
(-2.51505e-11 1.59419e-11 2.40217e-11)
(-2.5476e-11 5.57297e-12 1.73001e-11)
(-4.1472e-11 -1.62709e-11 5.19903e-13)
(-9.64028e-11 -4.2974e-11 -2.03991e-11)
(-1.91436e-10 -6.13502e-11 -4.59e-11)
(-3.46321e-10 -6.98485e-11 -6.11631e-11)
(-5.40912e-10 -6.65433e-11 -7.58904e-11)
(-7.91565e-10 -5.20602e-11 -7.95977e-11)
(-1.05748e-09 -3.71612e-11 -9.92662e-11)
(1.36778e-12 4.39065e-12 4.68222e-11)
(4.79781e-12 -3.13599e-12 3.77743e-11)
(-1.03668e-11 -1.50627e-11 1.77959e-11)
(-6.52522e-11 -2.85896e-11 -6.81521e-12)
(-1.71453e-10 -4.04774e-11 -2.88971e-11)
(-3.35456e-10 -4.79384e-11 -4.33054e-11)
(-5.64515e-10 -5.14281e-11 -5.01006e-11)
(-8.7595e-10 -4.73053e-11 -5.11159e-11)
(-1.22349e-09 -3.88144e-11 -5.1367e-11)
(5.84129e-12 4.40577e-12 4.25371e-11)
(1.07101e-11 -4.71021e-12 3.31636e-11)
(-1.67762e-12 -1.84539e-11 1.45649e-11)
(-5.12317e-11 -3.46601e-11 -7.59787e-12)
(-1.42898e-10 -4.68085e-11 -2.93023e-11)
(-2.94684e-10 -5.621e-11 -4.51188e-11)
(-4.9922e-10 -6.11433e-11 -5.45788e-11)
(-7.70518e-10 -5.83975e-11 -5.72545e-11)
(-1.06255e-09 -4.83634e-11 -6.26951e-11)
(6.55524e-13 4.4413e-12 2.98205e-11)
(3.38401e-12 -5.01976e-12 2.25264e-11)
(-5.98408e-12 -1.99301e-11 6.62145e-12)
(-4.79824e-11 -3.7222e-11 -1.19318e-11)
(-1.2075e-10 -5.11296e-11 -3.14925e-11)
(-2.48492e-10 -6.17587e-11 -4.66582e-11)
(-4.12087e-10 -6.53505e-11 -5.90093e-11)
(-6.24963e-10 -6.28743e-11 -6.25081e-11)
(-8.443e-10 -5.50669e-11 -7.18392e-11)
(-9.28113e-12 4.36748e-12 1.75719e-11)
(-8.667e-12 -3.89636e-12 1.23124e-11)
(-1.64216e-11 -1.81182e-11 1.4229e-13)
(-4.89829e-11 -3.48903e-11 -1.59132e-11)
(-1.05785e-10 -4.91409e-11 -3.31741e-11)
(-2.05236e-10 -5.91622e-11 -4.59172e-11)
(-3.28075e-10 -6.07145e-11 -5.85439e-11)
(-4.87091e-10 -5.66119e-11 -6.29419e-11)
(-6.38126e-10 -4.81509e-11 -7.45174e-11)
(8.35286e-13 -4.78064e-13 3.10131e-11)
(6.38417e-12 -6.54284e-12 2.44126e-11)
(-5.74473e-12 -1.54688e-11 1.12214e-11)
(-4.37735e-11 -2.54372e-11 -5.13321e-12)
(-1.14026e-10 -3.4181e-11 -2.09957e-11)
(-2.26828e-10 -4.11474e-11 -3.34177e-11)
(-3.67586e-10 -4.45082e-11 -4.12706e-11)
(-5.71345e-10 -4.17471e-11 -4.48883e-11)
(-7.83089e-10 -3.3967e-11 -4.93836e-11)
(4.22236e-12 -9.94585e-13 2.73693e-11)
(1.07245e-11 -8.15552e-12 2.11823e-11)
(3.95511e-12 -1.84869e-11 9.15507e-12)
(-3.15798e-11 -2.96223e-11 -6.26048e-12)
(-9.05112e-11 -4.00074e-11 -2.16456e-11)
(-1.98292e-10 -4.99053e-11 -3.47948e-11)
(-3.34318e-10 -5.39117e-11 -4.40383e-11)
(-5.0971e-10 -5.05055e-11 -4.88251e-11)
(-6.84991e-10 -4.19373e-11 -5.55862e-11)
(3.74341e-12 -8.57739e-13 1.99534e-11)
(6.68586e-12 -8.83344e-12 1.44858e-11)
(2.81076e-12 -1.9458e-11 3.87884e-12)
(-2.65546e-11 -3.1785e-11 -9.52466e-12)
(-7.24621e-11 -4.34815e-11 -2.36042e-11)
(-1.66213e-10 -5.54135e-11 -3.73337e-11)
(-2.80422e-10 -5.93103e-11 -4.81809e-11)
(-4.26432e-10 -5.70455e-11 -5.37823e-11)
(-5.59368e-10 -4.75619e-11 -6.15015e-11)
(-3.56007e-12 -4.4074e-13 1.20527e-11)
(-1.79528e-12 -8.04411e-12 7.66716e-12)
(-5.05508e-12 -1.8224e-11 -6.42039e-13)
(-2.66316e-11 -3.04786e-11 -1.21634e-11)
(-6.78114e-11 -4.21344e-11 -2.59079e-11)
(-1.42591e-10 -5.32469e-11 -3.78036e-11)
(-2.30882e-10 -5.90664e-11 -4.96825e-11)
(-3.44942e-10 -6.22242e-11 -5.56858e-11)
(-4.49016e-10 -4.8116e-11 -6.67617e-11)
)
;

boundaryField
{
    inlet
    {
        type            calculated;
        value           nonuniform List<vector> 
12
(
(1.81805e-11 4.49427e-12 1.04032e-10)
(1.58103e-11 2.50857e-11 1.04279e-10)
(-5.80876e-11 2.99894e-11 7.15025e-11)
(-1.05482e-10 2.29347e-11 3.68159e-11)
(-2.83234e-11 5.03841e-12 4.84742e-11)
(9.16166e-12 7.29998e-12 7.25901e-11)
(-1.16127e-11 9.01393e-12 3.34835e-11)
(-3.52934e-11 1.06015e-11 2.98744e-11)
(-3.36087e-11 5.96799e-12 1.52298e-11)
(-3.72739e-11 4.27613e-12 1.2428e-11)
(5.29708e-12 7.93507e-12 9.07036e-12)
(-4.41252e-11 6.12531e-12 7.98085e-12)
)
;
    }
    outlet
    {
        type            calculated;
        value           nonuniform 0();
    }
    wall
    {
        type            calculated;
        value           nonuniform List<vector> 
63
(
(-3.83216e-11 5.98539e-12 1.51175e-11)
(-6.64746e-11 5.3185e-12 1.19333e-11)
(1.59526e-11 7.51451e-12 9.31706e-12)
(-4.40905e-11 6.01189e-12 8.02171e-12)
(4.20211e-11 -3.07568e-12 1.52148e-11)
(6.05749e-11 -1.18573e-11 1.47786e-11)
(4.70561e-11 -1.70896e-11 7.64105e-12)
(4.60175e-12 -1.70698e-11 5.18732e-12)
(5.50592e-11 -4.33957e-12 8.3507e-12)
(1.6975e-10 -2.40723e-11 1.49179e-11)
(1.82207e-10 -2.13915e-11 4.7409e-12)
(7.71074e-11 -1.79019e-11 8.0783e-12)
(9.14115e-11 -7.33496e-12 2.58905e-12)
(1.35492e-10 -2.39057e-11 5.02652e-12)
(1.3012e-10 -2.90126e-11 -6.60835e-13)
(1.24096e-10 -3.38929e-11 5.84315e-12)
(1.6147e-10 -3.6336e-12 -4.66948e-12)
(3.40573e-10 -3.06481e-11 1.31641e-12)
(3.89768e-10 -3.65457e-11 5.2879e-12)
(1.65745e-10 -4.53319e-11 -1.69744e-11)
(1.24057e-10 -5.69691e-12 -1.32792e-11)
(2.42186e-10 -6.15092e-11 -1.05469e-11)
(2.69991e-10 -8.68687e-11 -2.20959e-11)
(9.92201e-11 -8.30627e-11 -2.01029e-11)
(5.13518e-10 -1.56114e-11 -1.40705e-11)
(3.55056e-10 -7.03423e-11 -1.81052e-11)
(3.78774e-10 -7.9421e-11 -3.51033e-11)
(3.03903e-10 -1.2173e-10 -4.90008e-11)
(3.5426e-10 -1.53811e-11 -4.86271e-12)
(3.90544e-10 -5.43363e-11 -8.25724e-12)
(2.89679e-10 -6.92079e-11 -2.5895e-11)
(2.52452e-10 -2.29382e-10 -2.05421e-11)
(3.15578e-10 -1.55422e-11 -1.24237e-11)
(6.51e-10 -4.87801e-11 -1.35158e-11)
(7.37892e-10 -6.25585e-11 -1.79331e-12)
(5.59937e-10 -1.08209e-10 -7.29436e-12)
(-1.01632e-11 5.12385e-12 1.04623e-10)
(-3.59254e-11 4.7617e-12 4.85664e-11)
(-4.23933e-11 5.88283e-12 1.51377e-11)
(2.54224e-11 1.2845e-12 9.18904e-11)
(4.26843e-11 -4.14787e-12 5.47976e-11)
(2.71196e-11 -2.80093e-12 1.47955e-11)
(5.31702e-11 -6.43972e-12 4.07578e-11)
(6.05707e-11 -8.0543e-12 2.74172e-11)
(1.51595e-11 -3.93602e-12 7.41717e-12)
(1.34693e-10 -1.38037e-11 4.51079e-12)
(1.16731e-10 -8.71896e-12 1.64171e-12)
(7.9573e-11 -7.20837e-12 2.28509e-12)
(-1.42187e-10 -4.92876e-11 -7.47393e-11)
(3.63206e-11 -1.68128e-11 -1.6001e-11)
(1.07039e-10 -3.2098e-12 -5.90973e-12)
(6.62708e-11 -3.77547e-11 -7.69732e-11)
(5.90196e-11 -1.49593e-11 -3.36883e-11)
(9.84613e-11 -5.63226e-12 -1.3782e-11)
(2.2028e-11 -5.17638e-11 -9.71973e-11)
(1.36882e-10 -2.97384e-11 -3.83445e-11)
(3.89729e-10 -1.47208e-11 -1.8538e-11)
(1.80694e-11 -1.35984e-11 -8.16793e-11)
(9.22514e-12 -1.46137e-11 -3.87031e-11)
(1.94227e-10 -1.4252e-11 -1.11014e-11)
(9.13944e-11 -8.08243e-11 -7.5496e-11)
(1.85848e-10 -2.43056e-11 -2.96636e-11)
(2.06666e-10 -1.42564e-11 -1.66733e-11)
)
;
    }
    procBoundary4to0
    {
        type            processor;
        value           nonuniform List<vector> 
36
(
(-8.84474e-12 4.29283e-11 1.20761e-10)
(4.06411e-12 2.73882e-11 1.04776e-10)
(-2.16993e-11 -2.137e-12 5.37197e-11)
(-1.74303e-10 -4.15826e-11 -3.01607e-11)
(-4.63815e-10 -6.88915e-11 -8.278e-11)
(-9.3444e-10 -8.02846e-11 -8.92671e-11)
(-1.69239e-09 -8.03013e-11 -7.56499e-11)
(-2.84781e-09 -7.23785e-11 -4.36119e-11)
(-4.51018e-09 -5.51396e-11 -9.05284e-12)
(-3.08153e-12 4.69225e-11 1.01049e-10)
(5.26651e-12 3.07766e-11 8.60956e-11)
(-2.4347e-11 -3.99788e-12 3.90205e-11)
(-1.52264e-10 -5.09201e-11 -3.02323e-11)
(-4.06256e-10 -8.07777e-11 -7.84905e-11)
(-8.16614e-10 -9.37997e-11 -8.89963e-11)
(-1.45521e-09 -9.15171e-11 -8.29757e-11)
(-2.3974e-09 -7.99995e-11 -6.38575e-11)
(-3.67133e-09 -6.21398e-11 -4.64832e-11)
(-1.77787e-11 4.59121e-11 6.56696e-11)
(-1.64771e-11 2.84314e-11 4.95649e-11)
(-5.04894e-11 -8.07503e-12 1.34452e-11)
(-1.58533e-10 -5.58946e-11 -3.30721e-11)
(-3.5982e-10 -8.68681e-11 -7.23535e-11)
(-6.81766e-10 -9.94342e-11 -8.91756e-11)
(-1.15748e-09 -9.32959e-11 -9.4393e-11)
(-1.81391e-09 -7.64683e-11 -9.74094e-11)
(-2.62783e-09 -5.52118e-11 -9.97174e-11)
(-3.8132e-11 3.73793e-11 2.99947e-11)
(-4.50566e-11 2.43221e-11 1.83152e-11)
(-7.85447e-11 -8.28684e-12 -4.74258e-12)
(-1.70155e-10 -4.87405e-11 -3.42057e-11)
(-3.22033e-10 -7.53568e-11 -6.35181e-11)
(-5.62189e-10 -8.10968e-11 -9.04238e-11)
(-8.88581e-10 -7.3971e-11 -1.07392e-10)
(-1.30154e-09 -5.32553e-11 -1.2676e-10)
(-1.77472e-09 -2.67971e-11 -1.56741e-10)
)
;
    }
    procBoundary4to5
    {
        type            processor;
        value           nonuniform List<vector> 
12
(
(-3.05793e-09 -1.96536e-11 -3.4411e-11)
(-2.49915e-09 -1.83284e-11 -6.44731e-11)
(-1.83997e-09 -2.98129e-11 -9.58078e-11)
(-1.28296e-09 -2.06863e-11 -1.18234e-10)
(-1.54512e-09 -2.2075e-11 -5.50497e-11)
(-1.33031e-09 -3.0347e-11 -7.16325e-11)
(-1.04192e-09 -3.64146e-11 -8.60606e-11)
(-7.77903e-10 -3.41961e-11 -9.68221e-11)
(-9.7166e-10 -2.01126e-11 -5.59472e-11)
(-8.55377e-10 -2.91134e-11 -6.6309e-11)
(-7.0453e-10 -3.23725e-11 -7.48857e-11)
(-5.59478e-10 -3.2305e-11 -8.54329e-11)
)
;
    }
    procBoundary4to6
    {
        type            processor;
        value           nonuniform List<vector> 
27
(
(-3.78787e-11 1.25425e-11 7.12114e-12)
(-3.93846e-11 4.23867e-12 1.8637e-12)
(-5.58374e-11 -1.25463e-11 -1.10492e-11)
(-1.01918e-10 -3.20996e-11 -2.60349e-11)
(-1.7521e-10 -4.51815e-11 -4.23856e-11)
(-2.90529e-10 -4.66913e-11 -5.41329e-11)
(-4.30889e-10 -4.18786e-11 -7.12559e-11)
(-5.96628e-10 -2.48008e-11 -8.33671e-11)
(-7.58167e-10 -9.74251e-12 -1.13208e-10)
(-1.67549e-11 4.2906e-12 6.10658e-12)
(-1.81633e-11 -2.9876e-12 1.58714e-12)
(-2.68849e-11 -1.47039e-11 -6.71374e-12)
(-5.55396e-11 -2.78641e-11 -1.85256e-11)
(-1.0204e-10 -3.86879e-11 -3.18239e-11)
(-1.78938e-10 -4.42015e-11 -4.32515e-11)
(-2.71017e-10 -4.24369e-11 -5.66448e-11)
(-3.92625e-10 -3.46219e-11 -6.57756e-11)
(-4.99324e-10 -2.56885e-11 -8.3611e-11)
(-5.80962e-12 8.49935e-13 4.74361e-12)
(-6.98241e-12 -5.97083e-12 1.28965e-12)
(-1.26533e-11 -1.52257e-11 -5.19781e-12)
(-3.38081e-11 -2.44217e-11 -1.42147e-11)
(-6.97177e-11 -3.33104e-11 -2.55614e-11)
(-1.2654e-10 -4.10147e-11 -3.58598e-11)
(-1.90431e-10 -4.02998e-11 -4.761e-11)
(-2.98118e-10 -3.73541e-11 -5.58178e-11)
(-3.80283e-10 -3.22915e-11 -7.30088e-11)
)
;
    }
}


// ************************************************************************* //
