/*--------------------------------*- C++ -*----------------------------------*\
| =========                 |                                                 |
| \\      /  F ield         | OpenFOAM: The Open Source CFD Toolbox           |
|  \\    /   O peration     | Version:  4.x                                   |
|   \\  /    A nd           | Web:      www.OpenFOAM.org                      |
|    \\/     M anipulation  |                                                 |
\*---------------------------------------------------------------------------*/
FoamFile
{
    version     2.0;
    format      ascii;
    class       volScalarField;
    location    "13.5";
    object      Cs;
}
// * * * * * * * * * * * * * * * * * * * * * * * * * * * * * * * * * * * * * //

dimensions      [1 -3 0 0 0 0 0];

internalField   nonuniform List<scalar> 
132
(
335
334.999
334.999
334.997
334.993
334.986
334.975
334.959
334.937
335
335
334.999
334.996
334.991
334.982
334.966
334.943
334.911
335
335
334.998
334.996
334.989
334.977
334.955
334.923
334.88
335
334.999
334.998
335
335
334.999
334.997
334.993
334.984
334.967
334.944
334.91
335
335
334.999
334.996
334.988
334.972
334.943
334.903
334.855
335
335
334.998
334.994
334.983
334.96
334.922
334.872
334.824
335
334.999
334.998
334.993
334.981
335
335
334.999
334.997
334.993
334.985
334.971
334.95
334.92
335
335
334.999
334.996
334.988
334.972
334.945
334.911
334.874
335
335
334.999
334.995
334.984
334.961
334.928
334.893
334.865
335
335
334.999
334.993
334.981
334.955
334.918
335
335
334.999
334.998
334.996
334.991
334.983
334.971
334.954
335
335
334.999
334.997
334.992
334.982
334.968
334.948
334.93
335
335
334.999
334.996
334.989
334.977
334.96
334.939
334.92
335
334.999
334.999
334.996
334.988
334.972
334.953
334.932
334.912
)
;

boundaryField
{
    inlet
    {
        type            calculated;
        value           uniform 335;
    }
    outlet
    {
        type            calculated;
        value           nonuniform 0();
    }
    wall
    {
        type            calculated;
        value           nonuniform List<scalar> 
66
(
335
335
335
335
334.999
335
335
334.999
334.999
334.999
334.998
334.998
334.997
334.996
334.996
334.993
334.991
334.989
334.986
334.982
334.977
334.975
334.966
334.955
334.959
334.943
334.923
334.937
334.911
334.88
335
335
335
335
334.999
335
335
335
334.999
334.999
334.999
334.999
334.997
334.997
334.997
334.998
334.993
334.993
334.993
334.996
334.986
334.984
334.985
334.991
334.975
334.967
334.971
334.983
334.959
334.944
334.95
334.971
334.937
334.91
334.92
334.954
)
;
    }
    procBoundary0to1
    {
        type            processor;
        value           nonuniform List<scalar> 
12
(
334.909
334.87
334.824
334.87
334.81
334.792
334.885
334.853
334.864
334.931
334.92
334.918
)
;
    }
    procBoundary0to2
    {
        type            processor;
        value           nonuniform List<scalar> 
44
(
334.996
334.989
334.975
334.95
334.918
334.873
334.999
334.998
334.996
334.998
334.996
334.989
334.955
334.912
334.856
334.806
334.999
334.999
334.998
334.994
334.955
334.985
334.955
334.912
334.876
334.85
335
334.999
334.999
334.995
334.987
334.968
334.876
334.943
334.876
334.85
335
334.999
334.999
334.996
334.991
334.977
334.963
334.945
)
;
    }
    procBoundary0to4
    {
        type            processor;
        value           nonuniform List<scalar> 
36
(
335
335
335
334.999
334.996
334.992
334.985
334.976
334.964
335
335
334.999
334.997
334.992
334.982
334.969
334.954
334.945
335
335
334.999
334.997
334.99
334.979
334.965
334.952
334.942
335
335
334.999
334.996
334.99
334.977
334.961
334.947
334.938
)
;
    }
    procBoundary0to6
    {
        type            processor;
        value           uniform 334.922;
    }
    procBoundary0to7
    {
        type            processor;
        value           uniform 334.905;
    }
}


// ************************************************************************* //
