/*--------------------------------*- C++ -*----------------------------------*\
| =========                 |                                                 |
| \\      /  F ield         | OpenFOAM: The Open Source CFD Toolbox           |
|  \\    /   O peration     | Version:  4.x                                   |
|   \\  /    A nd           | Web:      www.OpenFOAM.org                      |
|    \\/     M anipulation  |                                                 |
\*---------------------------------------------------------------------------*/
FoamFile
{
    version     2.0;
    format      ascii;
    class       volScalarField;
    location    "13.5";
    object      Deff;
}
// * * * * * * * * * * * * * * * * * * * * * * * * * * * * * * * * * * * * * //

dimensions      [0 2 -1 0 0 0 0];

internalField   nonuniform List<scalar> 
132
(
9.98184e-08
9.97367e-08
9.96758e-08
9.96191e-08
9.95089e-08
9.94037e-08
9.93602e-08
9.94702e-08
9.95768e-08
9.96793e-08
9.95675e-08
9.94946e-08
9.94101e-08
9.94238e-08
9.92605e-08
9.92994e-08
9.92934e-08
9.93062e-08
9.97041e-08
9.94581e-08
9.93933e-08
9.93049e-08
9.92851e-08
9.9254e-08
9.92631e-08
9.92137e-08
9.90641e-08
9.95937e-08
9.94258e-08
9.93835e-08
9.94921e-08
9.92241e-08
9.90399e-08
9.90068e-08
9.89597e-08
9.89103e-08
9.89183e-08
9.89334e-08
9.89689e-08
9.93134e-08
9.90756e-08
9.90311e-08
9.89301e-08
9.88627e-08
9.88173e-08
9.88054e-08
9.87694e-08
9.88128e-08
9.91784e-08
9.89838e-08
9.8946e-08
9.88775e-08
9.87755e-08
9.87261e-08
9.86443e-08
9.87564e-08
9.87521e-08
9.90161e-08
9.89936e-08
9.8922e-08
9.88507e-08
9.86101e-08
9.91062e-08
9.89139e-08
9.87567e-08
9.8712e-08
9.86674e-08
9.86864e-08
9.85876e-08
9.85901e-08
9.86694e-08
9.89616e-08
9.88046e-08
9.87197e-08
9.86485e-08
9.85442e-08
9.85599e-08
9.84459e-08
9.83986e-08
9.84943e-08
9.88132e-08
9.87546e-08
9.86242e-08
9.84646e-08
9.83897e-08
9.83681e-08
9.83449e-08
9.84294e-08
9.84637e-08
9.87409e-08
9.866e-08
9.85252e-08
9.83934e-08
9.83199e-08
9.82894e-08
9.82615e-08
9.90037e-08
9.88251e-08
9.86476e-08
9.85892e-08
9.84951e-08
9.84086e-08
9.84691e-08
9.84975e-08
9.84042e-08
9.88317e-08
9.86002e-08
9.84807e-08
9.84217e-08
9.83899e-08
9.83343e-08
9.82276e-08
9.82856e-08
9.82673e-08
9.88e-08
9.86353e-08
9.84001e-08
9.83275e-08
9.8231e-08
9.81425e-08
9.81739e-08
9.82525e-08
9.81496e-08
9.87143e-08
9.85423e-08
9.82951e-08
9.81615e-08
9.82489e-08
9.80486e-08
9.8089e-08
9.82131e-08
9.82693e-08
)
;

boundaryField
{
    inlet
    {
        type            calculated;
        value           uniform 0;
    }
    outlet
    {
        type            calculated;
        value           nonuniform 0();
    }
    wall
    {
        type            calculated;
        value           uniform 0;
    }
    procBoundary0to1
    {
        type            processor;
        value           uniform 0;
    }
    procBoundary0to2
    {
        type            processor;
        value           uniform 0;
    }
    procBoundary0to4
    {
        type            processor;
        value           uniform 0;
    }
    procBoundary0to6
    {
        type            processor;
        value           uniform 0;
    }
    procBoundary0to7
    {
        type            processor;
        value           uniform 0;
    }
}


// ************************************************************************* //
