/*--------------------------------*- C++ -*----------------------------------*\
| =========                 |                                                 |
| \\      /  F ield         | OpenFOAM: The Open Source CFD Toolbox           |
|  \\    /   O peration     | Version:  4.x                                   |
|   \\  /    A nd           | Web:      www.OpenFOAM.org                      |
|    \\/     M anipulation  |                                                 |
\*---------------------------------------------------------------------------*/
FoamFile
{
    version     2.0;
    format      ascii;
    class       volVectorField;
    location    "12";
    object      DDtUrel;
}
// * * * * * * * * * * * * * * * * * * * * * * * * * * * * * * * * * * * * * //

dimensions      [0 1 -2 0 0 0 0];

internalField   nonuniform List<vector> 
87
(
(0.000185196 -4.92079e-05 0.000204252)
(5.83446e-05 -6.62306e-05 0.000135092)
(1.75547e-05 -7.60467e-05 5.17391e-05)
(-7.51064e-05 -0.00012531 -5.76453e-05)
(-7.12052e-06 -0.000189182 -0.000234053)
(-8.92902e-05 -0.00039523 -0.000484844)
(-3.4982e-05 -0.000640283 -0.001034)
(-0.000665528 -0.00128135 -0.00202261)
(-0.00170518 -0.0015553 -0.00259334)
(7.4751e-05 -4.64847e-05 0.000136276)
(-9.16888e-06 -4.87509e-05 5.59142e-05)
(-2.29441e-05 -5.17856e-05 -3.09842e-05)
(-6.25771e-05 -9.60002e-05 -0.000128659)
(-2.6701e-05 -0.000158203 -0.000274315)
(-4.06364e-05 -0.000332305 -0.000482413)
(-4.35233e-05 -0.000542176 -0.000844313)
(-0.000195192 -0.000993522 -0.00135685)
(-0.000571651 -0.00130321 -0.00176832)
(1.15349e-05 -9.62397e-06 7.0798e-05)
(-2.67866e-05 -8.22371e-06 -8.8092e-06)
(-2.62227e-05 -1.29776e-05 -9.15746e-05)
(-4.49101e-05 -4.14282e-05 -0.000169043)
(-3.28887e-05 -8.16018e-05 -0.000309867)
(4.05703e-06 -0.00015659 -0.000496022)
(6.73352e-05 -0.000268656 -0.000809586)
(0.000261009 -0.00038661 -0.00119471)
(0.000335813 -0.000550124 -0.00142195)
(0.000226897 -2.3245e-05 0.000192621)
(0.000145498 -3.37743e-05 0.000133624)
(0.000144043 -4.1265e-05 7.59094e-05)
(4.83683e-05 -0.000101976 -3.79383e-05)
(0.00014468 -0.000170961 -0.00018316)
(2.81244e-05 -0.000424124 -0.00044096)
(0.000257905 -0.000702547 -0.000926769)
(-0.000628293 -0.00162648 -0.00201724)
(-0.00182529 -0.00194697 -0.00288982)
(0.000149265 -2.39198e-05 0.000109376)
(9.33047e-05 -2.8733e-05 4.68854e-05)
(8.81144e-05 -3.55498e-05 -2.18536e-05)
(2.77323e-05 -9.57706e-05 -0.000113094)
(4.65568e-05 -0.000172603 -0.00023366)
(1.09914e-05 -0.000391127 -0.000427314)
(6.22753e-05 -0.00065343 -0.000736385)
(1.97361e-05 -0.00128493 -0.00126844)
(7.88958e-05 -0.00179017 -0.00185292)
(0.000105208 -5.04191e-06 4.21476e-05)
(6.66986e-05 -7.1436e-06 -1.05332e-05)
(4.75933e-05 -1.348e-05 -6.7852e-05)
(-3.71187e-06 -4.44838e-05 -0.000146637)
(-3.97235e-05 -8.95391e-05 -0.000261411)
(1.84545e-05 -0.000177553 -0.000417352)
(0.000144206 -0.000328058 -0.000663656)
(0.00103991 -0.000554283 -0.000924589)
(0.00181538 -0.000983301 -0.00120396)
(0.00024942 -2.73394e-06 0.000151781)
(0.000214184 -8.67271e-06 0.000108667)
(0.000218213 -2.02435e-05 5.63629e-05)
(0.000130414 -8.86307e-05 -4.53445e-05)
(0.000208917 -0.000165718 -0.000170286)
(3.52814e-05 -0.000418755 -0.000408439)
(0.000150263 -0.000707647 -0.000772904)
(-0.00102043 -0.00155079 -0.00152683)
(-0.00241596 -0.00207238 -0.00204062)
(0.00018593 -1.52556e-05 7.16129e-05)
(0.000153328 -1.47333e-05 3.00415e-05)
(0.000136325 -1.2382e-05 -2.82383e-05)
(7.2888e-05 -8.27591e-05 -0.000102864)
(7.58375e-05 -0.000162594 -0.00020147)
(-3.26451e-05 -0.000367148 -0.000374587)
(-7.84223e-05 -0.000598896 -0.00061301)
(-0.000584741 -0.00133022 -0.00106544)
(-0.00111648 -0.00189431 -0.00149934)
(0.000145002 -2.74944e-06 2.422e-05)
(0.000123443 -6.17635e-06 -1.6263e-05)
(7.9544e-05 -1.47736e-05 -7.11654e-05)
(1.3927e-05 -4.99991e-05 -0.000125181)
(-2.8945e-05 -9.89828e-05 -0.000210933)
(-7.61467e-05 -0.00019844 -0.000341286)
(-0.000162713 -0.00035302 -0.000536381)
(-0.000166224 -0.000659592 -0.000813495)
(-0.000237873 -0.00102937 -0.00115099)
(0.000259158 6.18585e-06 0.000110481)
(0.000225793 -1.28646e-06 6.79681e-05)
(0.000238768 -9.59209e-06 2.44121e-05)
(0.000198341 -2.86436e-06 3.62136e-05)
(0.000168001 -1.01381e-05 4.75166e-06)
(0.000155838 -3.60058e-06 9.30079e-06)
)
;

boundaryField
{
    inlet
    {
        type            calculated;
        value           nonuniform 0();
    }
    outlet
    {
        type            calculated;
        value           nonuniform List<vector> 9((-0.0081769 -0.00201537 -0.00606136) (-0.00308947 -0.00234951 -0.00137563) (0.00248468 0.000787675 -0.00112351) (-0.0100945 -0.0042814 -0.0124022) (0.00643391 -0.00658957 -0.00390036) (0.0262633 -0.00427015 0.00155513) (-0.0118326 -0.0039987 -0.00360426) (-0.00374908 -0.005853 -0.0016701) (0.000324078 -0.00277117 -0.00105857));
    }
    wall
    {
        type            calculated;
        value           nonuniform List<vector> 
57
(
(0.000547239 -0.000106857 0.000602334)
(-0.000214288 -0.000223466 0.000338729)
(-0.000469533 6.49595e-05 8.60507e-05)
(-0.00028031 -0.000242516 0.000427669)
(-0.00070163 -0.000178146 6.07826e-05)
(-0.000540864 6.90065e-05 -0.000133886)
(-7.74694e-05 -0.00012904 0.000315485)
(-0.00039182 -1.29159e-05 -9.18673e-05)
(-0.00028744 0.000129528 -0.000313566)
(-0.00101161 -0.00023907 0.000316333)
(-0.000598325 -0.000115973 -0.000114497)
(-0.000304392 3.64038e-05 -9.51882e-05)
(7.51611e-05 0.000120723 -2.55849e-05)
(-0.000129865 0.000109243 -0.000211096)
(-0.000299039 4.93601e-05 -0.000404371)
(-0.0010396 -0.000372942 0.000340376)
(-0.000222308 -0.000381734 -0.000103262)
(2.59721e-05 3.09209e-05 -0.000316509)
(0.0013144 0.000533238 -0.000519391)
(-0.000250105 4.37922e-05 -0.000212181)
(-0.000291905 -0.000108239 -0.000905498)
(-0.00089411 -0.00229592 -0.00543247)
(-8.11328e-05 -0.00153735 -0.000412983)
(0.00119446 0.000648952 -0.00153656)
(-0.0081769 -0.00201537 -0.00606136)
(-0.00308947 -0.00234951 -0.00137563)
(0.00248468 0.000787675 -0.00112351)
(0.000547239 -0.000106857 0.000602334)
(0.000716599 3.10055e-05 0.000689578)
(0.000636107 0.000100687 0.000510061)
(0.000736341 0.000123702 0.000436992)
(-0.00028031 -0.000242516 0.000427669)
(0.000104394 -3.65393e-05 0.000467326)
(0.000448885 8.23881e-05 0.000427409)
(0.000297836 6.52987e-05 0.000233644)
(-7.74694e-05 -0.00012904 0.000315485)
(0.000782274 0.000156164 0.000690734)
(0.000932023 0.000171648 0.000513367)
(0.00102253 0.000285781 0.000350388)
(-0.00101161 -0.00023907 0.000316333)
(-0.000382394 -6.36296e-05 0.00037733)
(5.4067e-06 -3.08105e-05 0.000274192)
(7.51611e-05 0.000120723 -2.55849e-05)
(0.0014044 0.000470143 0.000453174)
(0.00170497 0.000419914 0.000329326)
(-0.0010396 -0.000372942 0.000340376)
(-0.000702009 -0.000547273 0.000290377)
(-0.000313728 -0.00038269 -2.23375e-05)
(0.0013144 0.000533238 -0.000519391)
(0.00570016 0.00106346 0.000305949)
(0.00530885 0.000770322 7.29999e-05)
(-0.00089411 -0.00229592 -0.00543247)
(-0.000288816 -0.00591659 -0.00650224)
(-0.00195127 -0.00282759 -0.00284747)
(-0.0081769 -0.00201537 -0.00606136)
(-0.0100945 -0.0042814 -0.0124022)
(-0.0118326 -0.0039987 -0.00360426)
)
;
    }
    procBoundary1to0
    {
        type            processor;
        value           nonuniform List<vector> 
12
(
(0.000265551 -4.13804e-05 0.000225706)
(0.000133336 -4.32665e-05 0.000177236)
(3.66071e-05 -2.0483e-05 0.000128742)
(0.000248734 -2.35161e-05 0.000204637)
(0.000163077 -2.44819e-05 0.000143882)
(0.000111405 -1.12598e-05 9.72276e-05)
(0.000237512 -5.69098e-06 0.000160469)
(0.000179649 -1.11335e-05 0.000101931)
(0.00014584 -5.88502e-06 6.59438e-05)
(0.000231387 1.23964e-06 0.000122735)
(0.000182395 -3.20611e-06 7.05853e-05)
(0.000151679 -5.39079e-06 4.25781e-05)
)
;
    }
    procBoundary1to3
    {
        type            processor;
        value           nonuniform List<vector> 
27
(
(2.73041e-05 8.38815e-06 5.20142e-05)
(-1.02717e-05 1.23877e-05 -2.78902e-05)
(2.40586e-06 5.05443e-06 -0.000109252)
(-1.64604e-05 3.03274e-06 -0.000188974)
(2.80731e-05 -2.78541e-06 -0.000315078)
(-4.50219e-07 1.82669e-05 -0.000512026)
(8.12061e-05 1.79615e-05 -0.000813665)
(-0.000241406 9.80592e-05 -0.00135836)
(-0.000858336 2.65194e-05 -0.00163169)
(0.000119615 5.2643e-06 3.05467e-05)
(7.38703e-05 7.82424e-06 -3.20911e-05)
(6.25865e-05 3.06391e-06 -9.84257e-05)
(1.10849e-05 6.85432e-06 -0.000173541)
(-1.04027e-05 8.79927e-06 -0.000279551)
(-4.42595e-05 2.91093e-05 -0.000453402)
(-6.34979e-05 4.81004e-05 -0.000703392)
(-4.49503e-06 7.5276e-05 -0.00119917)
(-7.74046e-05 5.59904e-05 -0.00158697)
(0.000143764 8.18103e-06 1.02095e-05)
(0.000110254 -1.07168e-07 -3.30379e-05)
(9.44505e-05 -1.53952e-05 -9.02666e-05)
(1.81948e-05 -1.0736e-05 -0.000149512)
(-3.54079e-05 -1.37728e-05 -0.000233858)
(-0.000129723 -2.53057e-05 -0.000375471)
(-0.000285116 -5.38116e-05 -0.000567087)
(-0.000481928 -3.23408e-05 -0.000911527)
(-0.00084359 3.16265e-05 -0.00125275)
)
;
    }
    procBoundary1to5
    {
        type            processor;
        value           nonuniform List<vector> 
32
(
(0.000135927 -9.09356e-05 -7.48421e-05)
(0.00018444 -0.000168307 -0.000169785)
(-8.17126e-05 -0.000438838 -0.000402359)
(-5.30383e-05 -0.000717557 -0.000643093)
(-0.00130658 -0.00161869 -0.00132099)
(-0.00270766 -0.00229828 -0.00176539)
(0.00015473 -2.06789e-05 -3.41622e-05)
(7.37847e-05 -8.74811e-05 -0.000105385)
(3.45794e-05 -0.000163777 -0.000180242)
(-0.000147954 -0.000380714 -0.000344976)
(-0.000337103 -0.000635595 -0.000526417)
(-0.000946002 -0.00135272 -0.000962712)
(-0.00159306 -0.00198949 -0.00135602)
(0.000125116 -1.04268e-05 -2.90162e-05)
(8.74075e-05 -2.00759e-05 -7.91185e-05)
(1.74296e-05 -5.59619e-05 -0.000116593)
(-6.31209e-05 -0.000104294 -0.00016809)
(-0.00020059 -0.000213638 -0.000298147)
(-0.000397564 -0.000368632 -0.000472964)
(-0.000672169 -0.00070798 -0.000737663)
(-0.0010663 -0.00109361 -0.00103443)
(0.000238666 -1.0116e-06 6.89415e-05)
(0.000223457 -6.016e-06 3.76593e-05)
(0.000135927 -9.09356e-05 -7.48421e-05)
(0.00015473 -2.06789e-05 -3.41622e-05)
(0.000211411 -7e-06 3.84657e-06)
(0.000186768 -5.18745e-06 1.89774e-05)
(0.00015473 -2.06789e-05 -3.41622e-05)
(0.000125116 -1.04268e-05 -2.90162e-05)
(0.000172622 -1.18407e-05 -6.99303e-06)
(0.000125116 -1.04268e-05 -2.90162e-05)
(0.000147363 -5.14399e-06 -5.293e-06)
)
;
    }
    procBoundary1to7
    {
        type            processor;
        value           uniform (0.0001413 4.95378e-07 -8.74559e-06);
    }
}


// ************************************************************************* //
