/*--------------------------------*- C++ -*----------------------------------*\
| =========                 |                                                 |
| \\      /  F ield         | OpenFOAM: The Open Source CFD Toolbox           |
|  \\    /   O peration     | Version:  4.x                                   |
|   \\  /    A nd           | Web:      www.OpenFOAM.org                      |
|    \\/     M anipulation  |                                                 |
\*---------------------------------------------------------------------------*/
FoamFile
{
    version     2.0;
    format      ascii;
    class       volVectorField;
    location    "12";
    object      GField;
}
// * * * * * * * * * * * * * * * * * * * * * * * * * * * * * * * * * * * * * //

dimensions      [1 -2 -1 0 0 0 0];

internalField   nonuniform List<vector> 
87
(
(108.164 -1.28324 1.98976)
(147.603 -2.67807 4.47343)
(104.632 -3.81839 5.70489)
(147.624 -4.32983 8.7606)
(91.3054 -7.16399 7.66314)
(146.526 -3.96214 9.13173)
(68.0116 -12.5587 7.07806)
(156.301 0.655507 -0.411605)
(55.3675 -50.8289 -67.6795)
(84.467 -5.23793 2.63005)
(127.714 -8.52267 5.74794)
(69.1742 -8.17501 4.09598)
(120.163 -9.43447 6.4322)
(49.2526 -10.2879 1.19995)
(113.155 -5.77968 2.07855)
(34.6076 -16.4175 -4.76418)
(106.06 -9.5243 -12.646)
(40.277 -58.3609 -24.4952)
(56.886 -1.95042 1.87668)
(109.22 -2.54131 5.4325)
(33.5293 -0.860507 -0.538391)
(101.468 0.138082 2.20858)
(13.9257 -0.304993 -3.61993)
(94.0824 1.89549 -3.84119)
(8.96542 0.35818 -9.45857)
(79.8708 1.45019 -37.2525)
(19.0774 17.2766 -37.0098)
(68.1186 -1.59231 2.52311)
(120.219 -1.83172 8.17486)
(70.1702 -2.64472 8.57921)
(126.931 -0.978614 16.0812)
(65.9769 -4.60244 13.7616)
(137.1 2.37722 21.4322)
(48.0983 -13.755 15.3539)
(172.572 1.22963 20.0198)
(42.7247 -92.3005 -50.9524)
(32.055 -3.34548 2.09293)
(100.241 -5.62623 7.68194)
(29.982 -5.52061 3.05095)
(102.383 -4.20417 7.02578)
(28.3977 -11.4781 2.00676)
(100.799 -0.211462 4.09317)
(24.4966 -33.4403 2.5144)
(84.1052 -27.0059 2.50647)
(-4.0978 -123.776 1.77903)
(13.3459 -0.424193 0.784699)
(89.6395 -0.212975 5.62933)
(6.90713 -0.146694 -0.161536)
(83.7092 1.72847 2.79495)
(3.1358 -0.0581674 -0.602011)
(64.1287 3.51839 -2.25909)
(-0.202824 -0.0605543 -0.63373)
(0.341998 2.21542 -0.982521)
(-129.816 10.4047 -18.6685)
(50.8938 -1.11695 2.8333)
(108.126 -1.06864 7.69749)
(55.3705 -1.28068 9.24743)
(116.856 0.382234 15.7116)
(57.9409 -1.70924 16.0522)
(132.298 4.33982 22.2941)
(55.1967 -5.29577 21.2768)
(168.996 9.38199 26.9476)
(33.8501 -27.8801 5.6815)
(11.2293 -1.11746 0.806477)
(92.3243 -4.09748 4.19486)
(14.7158 -2.4214 1.72461)
(97.3527 -1.15381 2.89918)
(17.1648 -4.20613 1.0807)
(105.214 2.51725 2.00071)
(22.3943 -12.4537 1.93876)
(121.8 12.9283 12.2366)
(22.7125 -59.5637 7.126)
(4.30515 -0.241711 0.604229)
(87.4912 -0.767523 3.03232)
(0.14618 -0.013901 0.0261743)
(88.1378 2.86492 -2.09026)
(2.03426 -0.337934 0.453584)
(88.2153 2.68146 -5.79146)
(3.0045 -2.6517 3.71644)
(78.3352 6.77009 27.8687)
(11.3699 -22.5237 26.99)
(52.8727 -1.11421 1.98009)
(109.154 -0.00852671 6.67285)
(54.909 -0.108038 5.50792)
(18.853 -0.681913 0.338329)
(92.9394 -1.48064 1.77061)
(12.4083 -1.01121 -0.119044)
)
;

boundaryField
{
    inlet
    {
        type            calculated;
        value           nonuniform 0();
    }
    outlet
    {
        type            calculated;
        value           nonuniform List<vector> 9((111.654 -102.501 -136.482) (83.2505 -120.629 -50.6303) (39.5953 35.8577 -76.8141) (89.9606 -194.347 -107.285) (-8.63506 -260.826 3.74885) (-274.889 22.0321 -39.5309) (72.0485 -59.3416 12.0928) (48.4924 -127.172 15.2144) (24.3793 -48.2954 57.872));
    }
    wall
    {
        type            calculated;
        value           uniform (0 0 0);
    }
    procBoundary1to0
    {
        type            processor;
        value           nonuniform List<vector> 
12
(
(143.81 -1.85896 -0.976443)
(129.807 -5.71233 0.424935)
(116.163 -2.94842 2.49446)
(114.415 -2.25781 -0.532952)
(97.7566 -4.54768 2.10276)
(90.5502 -1.18415 5.30983)
(103.652 -2.20991 0.771739)
(89.6615 -2.7066 2.54737)
(85.9655 -0.894235 4.2599)
(104 -2.0061 0.776336)
(90.4021 -2.21642 2.54688)
(88.3739 -0.84488 2.96001)
)
;
    }
    procBoundary1to3
    {
        type            processor;
        value           nonuniform List<vector> 
27
(
(58.6223 1.1124 3.14814)
(111.452 2.29301 6.27154)
(41.0983 2.83483 1.64016)
(109.408 3.19132 3.11908)
(33.6999 4.36403 -1.62618)
(115.55 2.4345 -0.393221)
(36.0063 11.6141 -8.49612)
(138.34 14.9087 -7.87643)
(38.7659 51.3076 -56.8517)
(15.9879 0.713004 0.972132)
(93.6598 1.36137 5.47797)
(17.5396 2.2121 0.153017)
(96.1204 1.61923 2.41054)
(21.5193 7.01044 -2.98959)
(95.7533 2.54738 -1.42003)
(23.7714 21.6958 -9.03312)
(86.9053 37.7618 0.901783)
(4.9126 56.0299 -56.3255)
(0.0238661 0.00064304 0.00132947)
(86.4012 1.32687 2.5246)
(0.28899 0.0158303 -0.00812964)
(90.6039 -0.42189 -0.74953)
(6.18968 0.292673 -1.03572)
(93.1689 0.578694 -1.45591)
(9.53419 1.32525 -3.40892)
(89.9296 -0.705156 5.29006)
(11.8474 2.65455 -9.01502)
)
;
    }
    procBoundary1to5
    {
        type            processor;
        value           nonuniform List<vector> 
32
(
(117.514 3.189 11.7436)
(54.964 -1.74137 6.4721)
(135.044 8.03113 14.4167)
(50.4648 -9.96141 -1.31615)
(178.368 14.3188 15.8904)
(39.3407 -57.6507 -46.3974)
(20.451 -0.926537 -1.11714)
(98.0958 0.587457 -0.405965)
(25.0614 -3.30128 -4.72267)
(101.704 3.35142 -2.51812)
(28.9919 -13.8641 -13.8772)
(98.7916 7.69105 1.33139)
(38.9768 -71.2228 -46.266)
(89.8829 -0.236003 2.61985)
(10.0298 -1.35863 -1.38987)
(90.7865 0.16711 -2.10032)
(7.21819 -1.53491 -2.72425)
(90.5363 2.74333 -4.0243)
(2.01272 -0.960984 -1.42952)
(84.3467 8.91418 0.931726)
(25.2177 -13.7323 -16.3038)
(42.6398 -1.19438 1.17356)
(100.652 -0.0814728 5.03905)
(117.514 3.189 11.7436)
(20.451 -0.926537 -1.11714)
(44.6289 -1.82715 3.92801)
(3.57755 -0.477003 -0.0608346)
(20.451 -0.926537 -1.11714)
(89.8829 -0.236003 2.61985)
(86.4808 -1.18255 0.774931)
(89.8829 -0.236003 2.61985)
(4.87339 -0.65069 -0.058367)
)
;
    }
    procBoundary1to7
    {
        type            processor;
        value           uniform (11.0581 0.316375 -0.572606);
    }
}


// ************************************************************************* //
