/*--------------------------------*- C++ -*----------------------------------*\
| =========                 |                                                 |
| \\      /  F ield         | OpenFOAM: The Open Source CFD Toolbox           |
|  \\    /   O peration     | Version:  4.x                                   |
|   \\  /    A nd           | Web:      www.OpenFOAM.org                      |
|    \\/     M anipulation  |                                                 |
\*---------------------------------------------------------------------------*/
FoamFile
{
    version     2.0;
    format      ascii;
    class       volScalarField;
    location    "12";
    object      nu;
}
// * * * * * * * * * * * * * * * * * * * * * * * * * * * * * * * * * * * * * //

dimensions      [0 2 -1 0 0 0 0];

internalField   nonuniform List<scalar> 
87
(
1.00049e-06
1.00066e-06
1.00084e-06
1.001e-06
1.0011e-06
1.00113e-06
1.00101e-06
1.00092e-06
9.73127e-07
1.00067e-06
1.00086e-06
1.00099e-06
1.001e-06
1.00086e-06
1.00061e-06
1.00028e-06
1e-06
9.99236e-07
1.00082e-06
1.00094e-06
1.00089e-06
1.00067e-06
1.00032e-06
9.99966e-07
9.99711e-07
9.99565e-07
9.99107e-07
1.00059e-06
1.00074e-06
1.00088e-06
1.00098e-06
1.00101e-06
1.00105e-06
1.00081e-06
1.00072e-06
9.98109e-07
1.00072e-06
1.00076e-06
1.00069e-06
1.00053e-06
1.00027e-06
1.00003e-06
9.99761e-07
9.99658e-07
9.99529e-07
1.00068e-06
1.0006e-06
1.00039e-06
1.00015e-06
9.99885e-07
9.99648e-07
9.99484e-07
9.99668e-07
9.99952e-07
1.00051e-06
1.00063e-06
1.00075e-06
1.00085e-06
1.00088e-06
1.00091e-06
1.00076e-06
1.0007e-06
9.98821e-07
1.00048e-06
1.00043e-06
1.0003e-06
1.00015e-06
9.99954e-07
9.99851e-07
9.99698e-07
9.99749e-07
9.98965e-07
1.00039e-06
1.00027e-06
1.00007e-06
9.99876e-07
9.99699e-07
9.9956e-07
9.99454e-07
9.99466e-07
9.99425e-07
1.00031e-06
1.00041e-06
1.00051e-06
1.00027e-06
1.00022e-06
1.00024e-06
)
;

boundaryField
{
    inlet
    {
        type            calculated;
        value           nonuniform 0();
    }
    outlet
    {
        type            calculated;
        value           uniform 1e-06;
    }
    wall
    {
        type            calculated;
        value           nonuniform List<scalar> 
57
(
1.00049e-06
1.00067e-06
1.00082e-06
1.00066e-06
1.00086e-06
1.00094e-06
1.00084e-06
1.00099e-06
1.00089e-06
1.001e-06
1.001e-06
1.00067e-06
1.0011e-06
1.00086e-06
1.00032e-06
1.00113e-06
1.00061e-06
9.99966e-07
1.00101e-06
1.00028e-06
9.99711e-07
1.00092e-06
1e-06
9.99565e-07
9.73127e-07
9.99236e-07
9.99107e-07
1.00049e-06
1.00059e-06
1.00051e-06
1.00031e-06
1.00066e-06
1.00074e-06
1.00063e-06
1.00041e-06
1.00084e-06
1.00088e-06
1.00075e-06
1.00051e-06
1.001e-06
1.00098e-06
1.00085e-06
1.0011e-06
1.00101e-06
1.00088e-06
1.00113e-06
1.00105e-06
1.00091e-06
1.00101e-06
1.00081e-06
1.00076e-06
1.00092e-06
1.00072e-06
1.0007e-06
9.73127e-07
9.98109e-07
9.98821e-07
)
;
    }
    procBoundary1to0
    {
        type            processor;
        value           nonuniform List<scalar> 
12
(
1.00035e-06
1.00048e-06
1.00061e-06
1.00044e-06
1.00061e-06
1.00066e-06
1.00037e-06
1.00046e-06
1.00045e-06
1.00022e-06
1.00026e-06
1.00026e-06
)
;
    }
    procBoundary1to3
    {
        type            processor;
        value           nonuniform List<scalar> 
27
(
1.00084e-06
1.00092e-06
1.00084e-06
1.00062e-06
1.00033e-06
1.00006e-06
9.99823e-07
9.99668e-07
9.93689e-07
1.00073e-06
1.00064e-06
1.00045e-06
1.00023e-06
1.00001e-06
9.99797e-07
9.99629e-07
9.9952e-07
9.99342e-07
1.00044e-06
1.00034e-06
1.0002e-06
1.00005e-06
9.99909e-07
9.99765e-07
9.99655e-07
9.9956e-07
9.99391e-07
)
;
    }
    procBoundary1to5
    {
        type            processor;
        value           nonuniform List<scalar> 
32
(
1.0006e-06
1.00063e-06
1.00067e-06
1.00054e-06
1.00052e-06
9.99726e-07
1.00014e-06
1.00004e-06
9.99915e-07
9.99866e-07
9.99738e-07
9.99777e-07
9.99279e-07
1.00016e-06
1.00005e-06
9.99921e-07
9.99787e-07
9.99664e-07
9.99568e-07
9.99529e-07
9.99167e-07
1.00021e-06
1.00026e-06
1.0006e-06
1.00014e-06
1.00032e-06
1.00013e-06
1.00014e-06
1.00016e-06
1.00003e-06
1.00016e-06
1.00013e-06
)
;
    }
    procBoundary1to7
    {
        type            processor;
        value           uniform 1.00029e-06;
    }
}


// ************************************************************************* //
