/*--------------------------------*- C++ -*----------------------------------*\
| =========                 |                                                 |
| \\      /  F ield         | OpenFOAM: The Open Source CFD Toolbox           |
|  \\    /   O peration     | Version:  4.x                                   |
|   \\  /    A nd           | Web:      www.OpenFOAM.org                      |
|    \\/     M anipulation  |                                                 |
\*---------------------------------------------------------------------------*/
FoamFile
{
    version     2.0;
    format      ascii;
    class       volScalarField;
    location    "12";
    object      particleRelTemp;
}
// * * * * * * * * * * * * * * * * * * * * * * * * * * * * * * * * * * * * * //

dimensions      [0 0 0 0 0 0 0];

internalField   nonuniform List<scalar> 
87
(
-2.01934e-08
-1.6101e-08
-1.37897e-08
-2.20376e-08
-3.65186e-08
-1.67996e-08
1.64179e-08
4.97627e-08
6.74531e-08
-2.7482e-09
1.16493e-09
-6.25443e-10
-8.93655e-09
-1.82381e-08
-6.66083e-09
3.12426e-08
7.09182e-08
8.27036e-08
2.18973e-08
1.9569e-08
1.76248e-08
5.45055e-09
1.76805e-09
9.23713e-09
3.65007e-08
6.75517e-08
8.4495e-08
-1.38926e-08
-6.18471e-09
-6.13754e-09
-1.29348e-08
-1.74705e-08
-4.03634e-09
2.81721e-08
7.70189e-08
8.9764e-08
-4.50157e-09
5.30488e-09
7.22452e-09
-3.73463e-09
-2.05103e-09
1.37921e-08
4.43611e-08
1.00348e-07
1.3147e-07
2.61116e-08
2.35159e-08
2.05015e-08
9.44799e-09
1.37888e-08
2.62931e-08
5.01677e-08
8.95708e-08
1.15347e-07
-1.09024e-08
-4.53571e-09
-1.46692e-09
-4.93589e-09
-4.50492e-09
8.64817e-09
2.92676e-08
6.31066e-08
9.24362e-08
6.19638e-10
7.97199e-09
1.05127e-08
5.45803e-09
8.50853e-09
2.07553e-08
5.37107e-08
8.90198e-08
1.04557e-07
1.84412e-08
2.44993e-08
2.20708e-08
2.05668e-08
2.40145e-08
3.88696e-08
6.91359e-08
9.15467e-08
1.07359e-07
-1.18507e-08
-7.61509e-09
-3.2251e-09
-1.14547e-09
7.47376e-09
1.46022e-08
)
;

boundaryField
{
    inlet
    {
        type            calculated;
        value           nonuniform 0();
    }
    outlet
    {
        type            calculated;
        value           nonuniform List<scalar> 9(6.74531e-08 8.27036e-08 8.4495e-08 8.9764e-08 1.3147e-07 1.15347e-07 9.24362e-08 1.04557e-07 1.07359e-07);
    }
    wall
    {
        type            calculated;
        value           nonuniform List<scalar> 
57
(
-2.01934e-08
-2.7482e-09
2.18973e-08
-1.6101e-08
1.16493e-09
1.9569e-08
-1.37897e-08
-6.25443e-10
1.76248e-08
-2.20376e-08
-8.93655e-09
5.45055e-09
-3.65186e-08
-1.82381e-08
1.76805e-09
-1.67996e-08
-6.66083e-09
9.23713e-09
1.64179e-08
3.12426e-08
3.65007e-08
4.97627e-08
7.09182e-08
6.75517e-08
6.74531e-08
8.27036e-08
8.4495e-08
-2.01934e-08
-1.38926e-08
-1.09024e-08
-1.18507e-08
-1.6101e-08
-6.18471e-09
-4.53571e-09
-7.61509e-09
-1.37897e-08
-6.13754e-09
-1.46692e-09
-3.2251e-09
-2.20376e-08
-1.29348e-08
-4.93589e-09
-3.65186e-08
-1.74705e-08
-4.50492e-09
-1.67996e-08
-4.03634e-09
8.64817e-09
1.64179e-08
2.81721e-08
2.92676e-08
4.97627e-08
7.70189e-08
6.31066e-08
6.74531e-08
8.9764e-08
9.24362e-08
)
;
    }
    procBoundary1to0
    {
        type            processor;
        value           nonuniform List<scalar> 
12
(
-2.98016e-08
-1.22794e-08
7.34567e-09
-2.16509e-08
-6.89323e-09
1.41595e-08
-1.83428e-08
-7.9135e-09
5.74107e-09
-2.02484e-08
-8.25597e-09
1.14939e-09
)
;
    }
    procBoundary1to3
    {
        type            processor;
        value           nonuniform List<scalar> 
27
(
6.39522e-08
4.79871e-08
3.02959e-08
1.50788e-08
9.54345e-09
1.65553e-08
3.11947e-08
4.64962e-08
6.61126e-08
6.42246e-08
5.93536e-08
3.86927e-08
2.14567e-08
2.00995e-08
2.68648e-08
5.0473e-08
7.268e-08
7.96923e-08
5.14138e-08
4.63703e-08
3.7278e-08
2.81277e-08
2.89841e-08
4.18599e-08
6.27734e-08
8.97899e-08
9.24825e-08
)
;
    }
    procBoundary1to5
    {
        type            processor;
        value           nonuniform List<scalar> 
32
(
-2.44705e-09
-4.82272e-10
5.14134e-09
1.8996e-08
3.51848e-08
4.7537e-08
1.03122e-08
7.90769e-09
1.44498e-08
2.33339e-08
3.74713e-08
5.70076e-08
6.99631e-08
2.23656e-08
2.30636e-08
2.32996e-08
2.5728e-08
3.49785e-08
5.28877e-08
7.31953e-08
8.05875e-08
-1.52442e-08
-1.15986e-08
-2.44705e-09
1.03122e-08
-4.07034e-09
-7.44721e-09
1.03122e-08
2.23656e-08
1.5607e-10
2.23656e-08
7.50847e-09
)
;
    }
    procBoundary1to7
    {
        type            processor;
        value           uniform 3.16255e-08;
    }
}


// ************************************************************************* //
