/*--------------------------------*- C++ -*----------------------------------*\
| =========                 |                                                 |
| \\      /  F ield         | OpenFOAM: The Open Source CFD Toolbox           |
|  \\    /   O peration     | Version:  4.x                                   |
|   \\  /    A nd           | Web:      www.OpenFOAM.org                      |
|    \\/     M anipulation  |                                                 |
\*---------------------------------------------------------------------------*/
FoamFile
{
    version     2.0;
    format      ascii;
    class       volScalarField;
    location    "12";
    object      pSmooth;
}
// * * * * * * * * * * * * * * * * * * * * * * * * * * * * * * * * * * * * * //

dimensions      [1 -1 -2 0 0 0 0];

internalField   nonuniform List<scalar> 
87
(
66.3569
87.9101
41.6896
72.7422
16.9752
67.9072
0.1
64.0589
0.1
67.0557
88.6541
42.2134
71.7171
16.8935
63.4356
0.1
56.3815
0.1
68.297
89.5395
42.2258
70.1752
14.6619
61.0524
0.1
56.862
0.1
66.1917
87.5114
41.8373
71.1616
15.4669
66.6505
0.1
64.8767
0.1
66.3755
87.3936
41.2928
68.2013
14.4826
60.7799
0.1
57.0931
0.1
67.5356
87.9893
41.9047
67.6569
16.2957
60.9447
0.1
63.4221
0.1
65.3655
86.4514
40.4368
68.9821
14.4926
63.4615
0.1
60.0916
0.1
65.1982
86.1167
40.2178
67.5158
13.9633
59.863
0.1
54.6697
0.1
65.8109
85.7165
40.4873
67.0667
15.4465
60.1245
0.1
53.0158
0.1
65.1943
86.3509
39.6581
64.9421
85.9339
64.894
)
;

boundaryField
{
    inlet
    {
        type            zeroGradient;
    }
    outlet
    {
        type            fixedValue;
        value           uniform 0;
    }
    wall
    {
        type            zeroGradient;
    }
    procBoundary1to0
    {
        type            processor;
        value           nonuniform List<scalar> 
12
(
105.611
106.249
107.235
105.553
106.067
106.488
104.922
105.058
104.372
104.788
104.914
104.107
)
;
    }
    procBoundary1to3
    {
        type            processor;
        value           nonuniform List<scalar> 
27
(
67.8859
88.8417
41.5888
68.7263
14.0106
60.1914
0.1
54.7131
0.1
66.7062
87.2606
40.6081
67.0646
14.1236
59.3439
0.1
54.4469
0.1
65.6033
86.1144
40.3609
66.5529
14.8639
59.2578
0.1
53.1957
0.1
)
;
    }
    procBoundary1to5
    {
        type            processor;
        value           nonuniform List<scalar> 
32
(
67.7661
13.2319
62.7521
0.1
61.2794
0.1
39.4321
67.1554
13.8607
60.3465
0.1
55.5533
0.1
86.1123
39.7755
67.5474
14.7533
61.735
0.1
58.1215
0.1
64.7015
85.4936
67.7661
39.4321
39.2894
64.9011
39.4321
86.1123
85.22
86.1123
64.9611
)
;
    }
    procBoundary1to7
    {
        type            processor;
        value           uniform 64.8745;
    }
}


// ************************************************************************* //
