/*--------------------------------*- C++ -*----------------------------------*\
| =========                 |                                                 |
| \\      /  F ield         | OpenFOAM: The Open Source CFD Toolbox           |
|  \\    /   O peration     | Version:  4.x                                   |
|   \\  /    A nd           | Web:      www.OpenFOAM.org                      |
|    \\/     M anipulation  |                                                 |
\*---------------------------------------------------------------------------*/
FoamFile
{
    version     2.0;
    format      ascii;
    class       volScalarField;
    location    "12";
    object      Qsource;
}
// * * * * * * * * * * * * * * * * * * * * * * * * * * * * * * * * * * * * * //

dimensions      [1 -1 -3 0 0 0 0];

internalField   nonuniform List<scalar> 
87
(
6.20245e+09
9.44215e+09
6.0129e+09
8.84525e+09
5.2175e+09
7.71149e+09
6.21012e+09
8.59946e+09
6.29611e+09
5.30254e+09
5.38541e+09
6.23846e+09
6.46701e+09
4.84976e+09
6.925e+09
6.93118e+09
6.48888e+09
4.93144e+09
4.3632e+09
7.61814e+09
5.79547e+09
9.38962e+09
5.58581e+09
5.87851e+09
4.63524e+09
5.73211e+09
4.16624e+09
7.86278e+09
7.59677e+09
6.97039e+09
8.7388e+09
7.17023e+09
9.10237e+09
9.68373e+09
1.08402e+10
7.76791e+09
9.40728e+09
6.55928e+09
7.58259e+09
9.20976e+09
8.5127e+09
7.36715e+09
8.91079e+09
9.48299e+09
5.68854e+09
8.90132e+09
8.2294e+09
6.8678e+09
6.43456e+09
5.43027e+09
8.43231e+09
8.28403e+09
9.5869e+09
4.45005e+09
7.59786e+09
7.94116e+09
8.94723e+09
1.0739e+10
7.18564e+09
1.13886e+10
9.05536e+09
9.76447e+09
4.20488e+09
8.82387e+09
8.77048e+09
6.33556e+09
8.0238e+09
8.29346e+09
9.23074e+09
7.87089e+09
9.48284e+09
4.11732e+09
8.10374e+09
7.76363e+09
5.36136e+09
1.10941e+10
8.76271e+09
1.06103e+10
7.1967e+09
9.24765e+09
3.06569e+09
7.19177e+09
6.6464e+09
8.85359e+09
8.03602e+09
1.2439e+10
6.06299e+09
)
;

boundaryField
{
    inlet
    {
        type            calculated;
        value           nonuniform 0();
    }
    outlet
    {
        type            calculated;
        value           uniform 0;
    }
    wall
    {
        type            calculated;
        value           uniform 0;
    }
    procBoundary1to0
    {
        type            processor;
        value           nonuniform List<scalar> 
12
(
4.34231e+09
6.68341e+09
9.80129e+09
8.21067e+09
8.62867e+09
6.2145e+09
6.20898e+09
7.5505e+09
5.29683e+09
6.90696e+09
6.9174e+09
9.432e+09
)
;
    }
    procBoundary1to3
    {
        type            processor;
        value           nonuniform List<scalar> 
27
(
8.687e+09
4.60541e+09
6.62151e+09
3.94849e+09
4.71814e+09
4.51262e+09
5.52333e+09
5.61652e+09
4.7739e+09
8.27733e+09
7.84889e+09
9.82475e+09
1.02339e+10
8.33184e+09
7.64835e+09
6.73916e+09
8.06387e+09
8.26127e+09
8.09264e+09
1.07148e+10
9.20819e+09
1.02815e+10
6.61303e+09
7.82177e+09
9.28078e+09
8.43705e+09
6.31215e+09
)
;
    }
    procBoundary1to5
    {
        type            processor;
        value           nonuniform List<scalar> 
32
(
9.43952e+09
8.85583e+09
9.32224e+09
7.51222e+09
1.1432e+10
8.43128e+09
7.74104e+09
7.39015e+09
6.57429e+09
8.86624e+09
9.57141e+09
1.12923e+10
7.78541e+09
1.02035e+10
6.38629e+09
8.91163e+09
6.23412e+09
5.49633e+09
7.29501e+09
6.83564e+09
7.11424e+09
6.946e+09
6.61501e+09
9.43952e+09
7.74104e+09
8.18377e+09
8.13873e+09
7.74104e+09
1.02035e+10
8.24303e+09
1.02035e+10
8.64502e+09
)
;
    }
    procBoundary1to7
    {
        type            processor;
        value           uniform 1.03706e+10;
    }
}


// ************************************************************************* //
