/*--------------------------------*- C++ -*----------------------------------*\
| =========                 |                                                 |
| \\      /  F ield         | OpenFOAM: The Open Source CFD Toolbox           |
|  \\    /   O peration     | Version:  4.x                                   |
|   \\  /    A nd           | Web:      www.OpenFOAM.org                      |
|    \\/     M anipulation  |                                                 |
\*---------------------------------------------------------------------------*/
FoamFile
{
    version     2.0;
    format      ascii;
    class       volScalarField;
    location    "12";
    object      rho;
}
// * * * * * * * * * * * * * * * * * * * * * * * * * * * * * * * * * * * * * //

dimensions      [1 -3 0 0 0 0 0];

internalField   nonuniform List<scalar> 
87
(
6696.7
6695.57
6694.38
6693.33
6692.66
6692.44
6693.22
6693.82
6885.02
6695.53
6694.27
6693.4
6693.32
6694.26
6695.91
6698.13
6699.97
6705.12
6694.53
6693.73
6694.05
6695.53
6697.88
6700.23
6701.94
6702.92
6705.99
6696.03
6695.02
6694.13
6693.41
6693.21
6692.99
6694.58
6695.16
6712.69
6695.15
6694.91
6695.41
6696.46
6698.21
6699.82
6701.6
6702.29
6703.16
6695.43
6695.99
6697.38
6699.02
6700.77
6702.36
6703.46
6702.22
6700.32
6696.61
6695.76
6694.99
6694.28
6694.1
6693.92
6694.91
6695.32
6707.91
6696.79
6697.14
6697.98
6699.03
6700.31
6701
6702.03
6701.68
6706.94
6697.38
6698.21
6699.55
6700.83
6702.02
6702.95
6703.66
6703.58
6703.86
6697.96
6697.25
6696.61
6698.21
6698.5
6698.42
)
;

boundaryField
{
    inlet
    {
        type            calculated;
        value           nonuniform 0();
    }
    outlet
    {
        type            calculated;
        value           uniform 6700;
    }
    wall
    {
        type            calculated;
        value           nonuniform List<scalar> 
57
(
6696.7
6695.53
6694.53
6695.57
6694.27
6693.73
6694.38
6693.4
6694.05
6693.33
6693.32
6695.53
6692.66
6694.26
6697.88
6692.44
6695.91
6700.23
6693.22
6698.13
6701.94
6693.82
6699.97
6702.92
6885.02
6705.12
6705.99
6696.7
6696.03
6696.61
6697.96
6695.57
6695.02
6695.76
6697.25
6694.38
6694.13
6694.99
6696.61
6693.33
6693.41
6694.28
6692.66
6693.21
6694.1
6692.44
6692.99
6693.92
6693.22
6694.58
6694.91
6693.82
6695.16
6695.32
6885.02
6712.69
6707.91
)
;
    }
    procBoundary1to0
    {
        type            processor;
        value           nonuniform List<scalar> 
12
(
6697.65
6696.8
6695.9
6697.05
6695.9
6695.59
6697.5
6696.93
6696.98
6698.55
6698.24
6698.23
)
;
    }
    procBoundary1to3
    {
        type            processor;
        value           nonuniform List<scalar> 
27
(
6694.39
6693.85
6694.38
6695.82
6697.77
6699.6
6701.19
6702.22
6742.55
6695.14
6695.7
6696.96
6698.45
6699.96
6701.36
6702.49
6703.22
6704.41
6697.08
6697.75
6698.67
6699.68
6700.61
6701.58
6702.31
6702.95
6704.08
)
;
    }
    procBoundary1to5
    {
        type            processor;
        value           nonuniform List<scalar> 
32
(
6695.96
6695.76
6695.51
6696.35
6696.5
6701.83
6699.09
6699.7
6700.57
6700.9
6701.76
6701.49
6704.84
6698.9
6699.65
6700.53
6701.42
6702.25
6702.9
6703.16
6705.58
6698.6
6698.23
6695.96
6699.09
6697.86
6699.13
6699.09
6698.9
6699.77
6698.9
6699.11
)
;
    }
    procBoundary1to7
    {
        type            processor;
        value           uniform 6698.06;
    }
}


// ************************************************************************* //
