/*--------------------------------*- C++ -*----------------------------------*\
| =========                 |                                                 |
| \\      /  F ield         | OpenFOAM: The Open Source CFD Toolbox           |
|  \\    /   O peration     | Version:  4.x                                   |
|   \\  /    A nd           | Web:      www.OpenFOAM.org                      |
|    \\/     M anipulation  |                                                 |
\*---------------------------------------------------------------------------*/
FoamFile
{
    version     2.0;
    format      ascii;
    class       volVectorField;
    location    "12";
    object      Us;
}
// * * * * * * * * * * * * * * * * * * * * * * * * * * * * * * * * * * * * * //

dimensions      [0 1 -1 0 0 0 0];

internalField   nonuniform List<vector> 
87
(
(-1.40343e-06 1.7642e-07 2.02615e-07)
(-4.67856e-06 1.47443e-06 3.4044e-07)
(-1.79739e-06 -2.93532e-08 -7.69704e-08)
(-1.60184e-06 8.71389e-08 -1.04883e-07)
(-1.1856e-06 1.94458e-07 3.28602e-07)
(-1.40515e-06 1.95204e-07 1.69402e-07)
(-7.78959e-07 1.43722e-07 -1.53415e-08)
(-1.11453e-06 2.0684e-07 3.84624e-08)
(-5.27424e-07 1.34449e-07 5.01829e-08)
(-2.55704e-06 8.54582e-08 6.70871e-08)
(-2.68932e-06 2.48219e-07 7.50083e-08)
(-2.60863e-06 1.17414e-08 1.67012e-07)
(-2.44146e-06 9.37705e-08 3.06845e-08)
(-2.22984e-06 3.97415e-07 -1.04443e-07)
(-2.32826e-06 -2.19218e-08 4.82551e-07)
(-1.26034e-06 2.74856e-07 -9.6734e-09)
(-5.15694e-07 2.22168e-07 -2.73211e-08)
(-2.84529e-07 1.80071e-07 3.5516e-09)
(-3.39342e-06 -1.41706e-08 3.08951e-07)
(-3.46656e-06 1.38651e-07 2.64085e-07)
(-4.50704e-06 9.77932e-07 1.56179e-07)
(-3.19766e-06 1.86506e-07 1.40767e-07)
(-2.7479e-06 6.08517e-08 6.50231e-08)
(-2.47691e-06 3.56725e-08 1.64841e-07)
(-1.7905e-06 -4.74526e-09 3.08062e-07)
(-6.80817e-07 2.62989e-07 1.01622e-07)
(-2.65721e-07 5.07846e-08 5.54893e-08)
(-1.60031e-06 2.49391e-07 1.36684e-07)
(-1.47605e-06 6.68788e-08 1.69444e-07)
(-1.39495e-06 -1.16544e-08 1.10378e-08)
(-1.11003e-06 9.90423e-08 -8.3479e-08)
(-9.26766e-07 6.09956e-08 8.11046e-08)
(-8.01873e-07 -8.79091e-08 3.68641e-08)
(-6.31921e-07 1.18464e-07 5.2296e-11)
(-3.14875e-07 9.1504e-08 -5.15289e-08)
(-1.97135e-07 1.2924e-07 -1.27202e-08)
(-2.37863e-06 9.18037e-08 1.36851e-07)
(-2.38037e-06 1.21633e-07 1.32833e-07)
(-2.2971e-06 8.59775e-08 1.88128e-07)
(-2.23994e-06 1.60458e-07 -3.12256e-08)
(-2.07915e-06 1.84631e-07 -1.00763e-08)
(-2.03771e-06 8.69379e-08 2.06159e-07)
(-1.39309e-06 1.97722e-07 6.59257e-08)
(-5.96991e-07 1.07299e-07 -1.13196e-07)
(-2.34296e-07 8.76102e-08 -1.88039e-09)
(-3.03519e-06 2.4254e-08 2.52796e-07)
(-3.09963e-06 6.94773e-08 2.48417e-07)
(-3.13769e-06 -2.93785e-08 1.51331e-07)
(-2.75688e-06 5.83146e-08 4.50415e-08)
(-2.64778e-06 9.92817e-08 1.06325e-08)
(-2.25743e-06 1.26451e-07 -1.24421e-08)
(-1.53451e-06 1.83619e-08 1.05453e-07)
(-9.08485e-07 2.8931e-08 -1.32805e-07)
(-2.02717e-07 -1.11225e-08 1.03412e-07)
(-1.36705e-06 1.81735e-08 1.17782e-07)
(-1.41465e-06 -1.38938e-08 1.20624e-07)
(-1.24731e-06 -9.57356e-08 1.20196e-07)
(-1.10198e-06 1.21079e-07 -5.10503e-09)
(-1.06296e-06 1.6275e-07 1.26931e-07)
(-1.19661e-06 1.71472e-07 1.08092e-07)
(-6.96207e-07 8.58682e-08 1.54601e-08)
(-3.90385e-07 1.20155e-07 -7.14092e-08)
(-2.1942e-07 1.5674e-07 -3.58877e-08)
(-2.38789e-06 -5.25184e-08 1.10633e-07)
(-2.23889e-06 -2.31689e-08 1.13247e-07)
(-2.18399e-06 1.29645e-08 8.83871e-08)
(-1.96375e-06 1.12099e-07 8.97986e-09)
(-1.78667e-06 2.87833e-07 7.4365e-08)
(-1.90587e-06 6.63587e-08 2.24385e-07)
(-1.07502e-06 1.27718e-07 -2.41884e-08)
(-6.09741e-07 1.18254e-07 -1.2549e-07)
(-2.69909e-07 1.27462e-07 -4.78719e-08)
(-2.8155e-06 2.04013e-08 1.12004e-07)
(-2.78418e-06 -4.22207e-09 1.16802e-07)
(-2.63756e-06 1.42366e-07 7.866e-08)
(-2.47472e-06 6.99151e-08 2.45561e-08)
(-2.35694e-06 8.36375e-08 2.8645e-08)
(-2.09398e-06 1.24446e-07 2.40919e-08)
(-1.1428e-06 1.6083e-08 -1.46012e-07)
(-7.44938e-07 6.70165e-08 -1.74007e-07)
(-3.70002e-07 4.14612e-08 -6.37501e-08)
(-1.25174e-06 -4.96179e-08 6.23318e-08)
(-9.41731e-07 -2.45391e-07 2.06764e-07)
(-9.57631e-07 -5.09443e-08 8.98592e-08)
(-2.12616e-06 -3.36482e-08 4.42353e-08)
(-2.09554e-06 -9.06529e-08 1.16566e-07)
(-2.55834e-06 -1.43785e-07 9.98381e-09)
)
;

boundaryField
{
    inlet
    {
        type            zeroGradient;
    }
    outlet
    {
        type            zeroGradient;
    }
    wall
    {
        type            zeroGradient;
    }
    procBoundary1to0
    {
        type            processor;
        value           nonuniform List<vector> 
12
(
(-1.43615e-06 1.01706e-07 -5.33526e-08)
(-2.38042e-06 1.32114e-08 5.49558e-08)
(-2.75814e-06 -7.03949e-08 -1.15953e-07)
(-1.2459e-06 -2.52731e-07 5.85137e-08)
(-2.35095e-06 2.07112e-08 7.64036e-08)
(-2.63246e-06 6.27545e-08 -1.85725e-08)
(-1.31644e-06 -1.48951e-07 1.88858e-08)
(-2.23966e-06 -7.76207e-08 3.79216e-08)
(-2.56074e-06 -4.45046e-08 8.48926e-09)
(-1.47088e-06 -5.62626e-08 4.37169e-08)
(-2.13659e-06 -9.91512e-08 -7.91023e-09)
(-2.42022e-06 -1.41601e-07 -2.30576e-08)
)
;
    }
    procBoundary1to3
    {
        type            processor;
        value           nonuniform List<vector> 
27
(
(-3.26514e-06 -2.08862e-07 1.04007e-07)
(-3.38659e-06 -6.61408e-08 2.73661e-07)
(-3.65463e-06 4.95696e-07 2.70813e-07)
(-3.28622e-06 -7.09144e-08 2.21689e-07)
(-3.0353e-06 -1.22118e-07 2.10429e-07)
(-2.98618e-06 -2.4096e-07 4.26278e-08)
(-2.21451e-06 -1.79811e-07 3.361e-07)
(-1.54325e-06 -4.51696e-07 1.79703e-07)
(-4.65799e-07 -1.8368e-07 1.90949e-07)
(-3.24017e-06 -1.32599e-07 1.84428e-07)
(-3.21578e-06 -4.4311e-08 2.22191e-07)
(-3.22672e-06 -7.37131e-08 2.11497e-07)
(-3.04855e-06 -1.34264e-07 1.94914e-07)
(-2.78393e-06 -1.08109e-07 1.72205e-07)
(-2.58591e-06 -1.71678e-07 2.86221e-08)
(-1.82252e-06 -1.1171e-07 4.48119e-08)
(-9.37731e-07 -1.73787e-07 -3.52246e-08)
(-2.85782e-07 -1.33936e-07 1.24941e-07)
(-2.97455e-06 -4.82171e-08 1.22998e-07)
(-3.01685e-06 6.11844e-09 1.82609e-07)
(-3.01601e-06 5.64898e-08 1.43239e-07)
(-2.75891e-06 -8.30649e-08 1.02118e-07)
(-2.48644e-06 -1.21842e-07 4.25917e-08)
(-2.17325e-06 -1.46792e-07 3.27219e-09)
(-1.59434e-06 -4.99513e-08 -5.65237e-08)
(-8.06947e-07 3.13142e-08 -1.4977e-07)
(-3.80151e-07 -4.44617e-10 -6.88331e-08)
)
;
    }
    procBoundary1to5
    {
        type            processor;
        value           nonuniform List<vector> 
32
(
(-1.11619e-06 1.27428e-07 1.01767e-08)
(-9.92219e-07 1.01249e-07 7.33927e-08)
(-1.10081e-06 1.07478e-07 8.85653e-08)
(-5.22623e-07 8.5479e-08 -5.67951e-09)
(-3.79468e-07 9.46669e-08 -7.21147e-08)
(-8.58776e-07 2.68124e-07 -6.45751e-08)
(-2.03987e-06 8.98745e-08 -1.57408e-08)
(-1.76293e-06 1.54623e-07 -1.47858e-08)
(-1.68455e-06 1.89659e-07 -3.50295e-08)
(-1.45777e-06 1.55503e-07 2.16928e-08)
(-1.0948e-06 1.14267e-07 -4.37062e-08)
(-6.14869e-07 1.56327e-07 -1.23302e-07)
(-3.88544e-07 2.49979e-07 -8.94462e-08)
(-2.53917e-06 -9.15155e-08 6.02416e-08)
(-2.38431e-06 2.3231e-08 3.48242e-09)
(-2.16698e-06 -1.94407e-08 1.35607e-08)
(-2.05533e-06 6.20906e-08 -7.30876e-10)
(-1.83188e-06 1.00487e-07 -7.18582e-08)
(-1.3504e-06 7.29458e-08 -1.76325e-07)
(-7.68687e-07 1.24879e-07 -1.65466e-07)
(-3.32337e-07 6.83837e-08 -1.11712e-07)
(-8.34987e-07 -9.60596e-09 1.53555e-07)
(-8.40787e-07 -1.21931e-07 1.33025e-07)
(-1.11619e-06 1.27428e-07 1.01767e-08)
(-2.03987e-06 8.98745e-08 -1.57408e-08)
(-9.18142e-07 -1.7594e-08 3.17012e-08)
(-1.78524e-06 -2.38629e-07 4.51357e-08)
(-2.03987e-06 8.98745e-08 -1.57408e-08)
(-2.53917e-06 -9.15155e-08 6.02416e-08)
(-1.90611e-06 -4.54958e-07 2.02718e-07)
(-2.53917e-06 -9.15155e-08 6.02416e-08)
(-2.25361e-06 -1.94496e-07 -8.38302e-08)
)
;
    }
    procBoundary1to7
    {
        type            processor;
        value           uniform (-2.66797e-06 -1.07082e-07 5.83049e-08);
    }
}


// ************************************************************************* //
