/*--------------------------------*- C++ -*----------------------------------*\
| =========                 |                                                 |
| \\      /  F ield         | OpenFOAM: The Open Source CFD Toolbox           |
|  \\    /   O peration     | Version:  4.x                                   |
|   \\  /    A nd           | Web:      www.OpenFOAM.org                      |
|    \\/     M anipulation  |                                                 |
\*---------------------------------------------------------------------------*/
FoamFile
{
    version     2.0;
    format      ascii;
    class       volVectorField;
    location    "48.5";
    object      Us;
}
// * * * * * * * * * * * * * * * * * * * * * * * * * * * * * * * * * * * * * //

dimensions      [0 1 -1 0 0 0 0];

internalField   nonuniform List<vector> 
108
(
(5.3076e-11 2.3998e-11 1.1307e-10)
(9.40179e-11 4.48865e-11 9.90138e-11)
(1.97596e-10 4.12434e-11 7.49475e-11)
(1.87234e-10 5.56502e-11 6.754e-11)
(1.90424e-10 1.25938e-10 4.03668e-11)
(6.10371e-11 9.19029e-11 1.41067e-10)
(4.32436e-11 3.56785e-11 2.99088e-10)
(-1.30048e-10 1.56161e-10 5.69473e-10)
(-2.37241e-10 -1.0584e-12 9.23063e-10)
(7.20142e-11 2.89812e-11 1.15668e-10)
(1.89075e-10 3.70195e-11 1.10191e-10)
(3.03983e-10 4.69112e-11 1.22396e-10)
(2.69469e-10 4.11553e-11 9.72146e-11)
(3.1879e-10 6.4504e-11 1.24466e-10)
(2.91196e-10 5.48022e-11 2.22369e-10)
(1.41423e-10 7.28279e-11 4.9525e-10)
(-7.52999e-11 3.01334e-10 8.26356e-10)
(2.03426e-11 2.05308e-10 1.3082e-09)
(1.00131e-10 6.16714e-11 1.01001e-10)
(2.65204e-10 1.28915e-10 1.49676e-10)
(4.4535e-10 1.20273e-10 1.44855e-10)
(5.61776e-10 9.9114e-11 1.31733e-10)
(6.43281e-10 1.04716e-10 1.76833e-10)
(7.67174e-10 1.7283e-10 2.99404e-10)
(7.1069e-10 1.95707e-10 4.93297e-10)
(5.25591e-10 4.9282e-10 8.5949e-10)
(1.34108e-09 5.08684e-11 9.57666e-10)
(9.44002e-11 3.37378e-11 7.57672e-11)
(3.0083e-10 1.31045e-11 9.45494e-11)
(6.04421e-10 -3.42331e-11 1.66336e-11)
(7.92337e-10 1.18466e-12 7.90895e-11)
(1.14679e-09 9.57081e-11 2.1942e-10)
(1.34649e-09 1.83529e-10 3.57402e-10)
(1.75077e-09 1.24135e-10 4.84173e-10)
(1.79741e-09 3.54186e-10 5.49851e-10)
(1.8835e-09 3.30552e-10 7.87615e-10)
(4.1405e-11 3.1863e-11 4.95727e-11)
(8.66033e-11 3.95093e-11 5.88566e-11)
(1.45647e-10 2.58605e-11 5.19556e-11)
(1.57972e-10 4.09668e-11 4.22978e-11)
(2.09671e-10 5.49362e-11 6.85615e-11)
(1.10743e-10 2.87065e-11 6.37374e-11)
(1.2869e-10 -1.48219e-11 1.50199e-10)
(5.03211e-11 6.20666e-11 3.3773e-10)
(2.19163e-10 -4.56724e-11 3.22549e-10)
(7.34384e-11 2.44941e-11 7.66417e-11)
(1.23923e-10 4.65557e-11 6.78343e-11)
(2.01793e-10 1.76444e-11 5.67319e-11)
(2.30465e-10 1.293e-11 6.91569e-11)
(2.81162e-10 2.59292e-11 9.97027e-11)
(2.0324e-10 2.39966e-11 1.52076e-10)
(2.21324e-10 3.21246e-11 3.08028e-10)
(2.00082e-10 -2.09744e-11 4.22228e-10)
(3.99814e-10 -1.23702e-10 6.36981e-10)
(5.91196e-11 3.97511e-11 5.01784e-11)
(1.55359e-10 8.02699e-11 7.94809e-11)
(2.6878e-10 9.74364e-11 8.37072e-11)
(2.97063e-10 3.87988e-11 1.01483e-10)
(4.10455e-10 2.25832e-11 7.53226e-11)
(4.05309e-10 1.31934e-10 2.32783e-10)
(4.04407e-10 1.62218e-10 3.52294e-10)
(7.40961e-10 3.11399e-10 3.92206e-10)
(5.1313e-10 2.22091e-10 6.52185e-10)
(7.42476e-11 1.84573e-11 2.99137e-11)
(2.06663e-10 4.63853e-12 2.86703e-11)
(4.2629e-10 -1.94328e-11 -1.13739e-11)
(4.97403e-10 -1.78536e-11 1.81956e-11)
(7.1419e-10 -2.76266e-11 7.43756e-11)
(1.0955e-09 1.12836e-10 1.22931e-10)
(1.27559e-09 2.74198e-10 2.57875e-10)
(1.3752e-09 1.54449e-10 3.49426e-10)
(1.57946e-09 3.5768e-11 6.55999e-10)
(3.02883e-11 2.57092e-11 7.42703e-12)
(4.34027e-11 3.48199e-11 7.51878e-12)
(8.51667e-11 3.02786e-11 9.22355e-12)
(9.29796e-11 1.82029e-11 1.35394e-11)
(9.93665e-11 2.0922e-11 2.04817e-11)
(7.19533e-11 8.00475e-12 1.59311e-11)
(4.55193e-11 -3.26614e-11 9.91222e-11)
(3.74833e-11 6.72917e-12 1.71812e-10)
(1.04625e-10 -2.27423e-11 8.88496e-11)
(5.49392e-11 7.81777e-13 -6.53068e-12)
(7.03196e-11 2.30016e-11 1.50177e-11)
(1.35138e-10 1.0871e-11 2.06715e-11)
(1.48435e-10 1.5641e-11 1.7783e-11)
(1.90336e-10 1.2927e-11 3.76943e-11)
(6.18052e-11 -6.02113e-11 5.49075e-11)
(8.38535e-11 -7.97602e-11 4.73457e-11)
(1.13269e-10 -3.68301e-11 1.93056e-10)
(1.13714e-10 -1.02918e-10 2.22491e-10)
(4.70914e-11 3.08148e-11 4.40972e-12)
(8.83781e-11 6.84972e-11 1.42074e-11)
(1.34772e-10 4.23011e-11 2.35785e-11)
(1.5326e-10 3.75798e-11 1.19642e-11)
(2.23563e-10 1.53293e-11 3.72318e-11)
(2.12903e-10 2.05831e-11 7.97957e-11)
(3.30926e-10 1.33503e-10 1.21268e-10)
(3.22962e-10 1.82244e-10 1.70639e-10)
(2.14175e-10 -1.43741e-11 2.13627e-10)
(6.31562e-11 -8.72676e-12 -6.571e-12)
(1.11729e-10 -1.07213e-11 -1.6628e-11)
(2.80341e-10 4.465e-11 -1.0699e-11)
(2.53029e-10 -1.01667e-11 3.43925e-12)
(3.91121e-10 -5.44746e-11 -1.24158e-11)
(4.17409e-10 -4.63346e-11 -2.15944e-11)
(4.6046e-10 8.64885e-11 6.94955e-11)
(1.65943e-09 -4.65417e-10 7.27562e-11)
(9.01809e-10 1.24123e-10 1.67914e-10)
)
;

boundaryField
{
    inlet
    {
        type            zeroGradient;
    }
    outlet
    {
        type            zeroGradient;
    }
    wall
    {
        type            zeroGradient;
    }
    procBoundary4to0
    {
        type            processor;
        value           nonuniform List<vector> 
36
(
(7.11936e-11 5.97311e-11 2.34932e-10)
(1.92473e-10 6.5693e-11 2.66999e-10)
(3.64573e-10 3.34422e-11 2.23347e-10)
(2.08348e-10 3.90837e-11 6.23335e-11)
(1.91619e-10 1.13168e-11 -2.14043e-12)
(-5.99747e-11 4.20295e-11 2.02613e-10)
(-2.1613e-10 1.14429e-10 3.99467e-10)
(-2.90032e-10 -2.19614e-12 1.14225e-09)
(-5.4252e-10 -2.15425e-10 2.82502e-09)
(9.29481e-11 6.2023e-11 2.27397e-10)
(2.4028e-10 1.09254e-10 3.07766e-10)
(4.02359e-10 5.85509e-11 2.45111e-10)
(4.21332e-10 8.67794e-11 1.54845e-10)
(3.26814e-10 1.24188e-10 8.17013e-11)
(1.37474e-10 1.16444e-10 2.9179e-10)
(-2.77419e-11 2.17665e-10 5.60365e-10)
(-3.56008e-10 1.89443e-10 1.11084e-09)
(-8.77494e-10 5.67489e-10 1.96496e-09)
(1.62887e-10 1.80296e-10 2.05454e-10)
(3.10138e-10 1.47723e-10 2.17262e-10)
(5.00603e-10 1.39264e-10 2.03423e-10)
(5.45791e-10 1.63362e-10 1.72054e-10)
(6.43738e-10 2.25726e-10 2.32426e-10)
(6.68e-10 1.95491e-10 4.45476e-10)
(6.21145e-10 3.69397e-10 6.60068e-10)
(2.6133e-10 5.96847e-10 1.33272e-09)
(-8.88163e-11 1.00305e-09 2.15992e-09)
(9.56739e-11 8.02134e-11 1.49893e-10)
(3.15837e-10 3.26099e-11 2.22469e-10)
(5.71105e-10 5.02473e-11 1.77117e-10)
(9.81731e-10 8.10186e-11 2.9299e-10)
(1.22469e-09 2.11868e-10 4.72954e-10)
(1.17749e-09 1.3398e-10 5.22782e-10)
(1.26673e-09 4.37705e-10 6.88576e-10)
(1.08757e-09 5.11771e-10 1.00574e-09)
(1.46877e-09 2.45066e-10 1.22747e-09)
)
;
    }
    procBoundary4to5
    {
        type            processor;
        value           nonuniform List<vector> 
12
(
(-6.14479e-12 2.98035e-10 5.57701e-10)
(1.00737e-09 5.09074e-10 1.04515e-09)
(1.12077e-09 4.98012e-10 1.57148e-09)
(1.81033e-09 4.57375e-10 1.03548e-09)
(3.34239e-10 1.31314e-11 3.0912e-10)
(6.73226e-10 -6.47532e-11 6.14535e-10)
(1.00714e-09 7.1382e-10 1.03215e-09)
(1.76388e-09 5.07249e-10 3.69155e-10)
(1.29371e-10 1.27282e-11 4.74181e-11)
(3.16675e-10 -2.04772e-11 8.63008e-11)
(4.41652e-10 3.15427e-10 6.84514e-11)
(1.18054e-09 2.70664e-10 8.84409e-11)
)
;
    }
    procBoundary4to6
    {
        type            processor;
        value           nonuniform List<vector> 
27
(
(1.21391e-10 -4.18122e-11 6.53463e-11)
(2.45505e-10 -1.04424e-10 1.22471e-10)
(3.47904e-10 -1.24601e-10 9.6476e-11)
(5.09286e-10 -9.29706e-11 1.55469e-10)
(8.2188e-10 -6.66507e-11 3.09539e-10)
(1.02268e-09 1.20804e-11 1.73759e-10)
(1.16162e-09 1.5663e-10 2.31395e-10)
(1.37202e-09 1.17835e-10 3.31707e-10)
(1.79612e-09 2.54422e-10 4.38622e-10)
(5.85562e-11 -3.66349e-11 3.37001e-11)
(2.03387e-10 -8.36995e-11 5.99271e-11)
(3.46706e-10 -1.1014e-10 1.94731e-11)
(4.03381e-10 -8.91331e-11 6.35466e-11)
(5.8152e-10 -5.73647e-11 1.18734e-10)
(8.81186e-10 -8.45441e-11 9.0178e-11)
(1.09789e-09 1.09057e-10 1.31152e-10)
(1.19412e-09 7.09301e-11 1.96069e-10)
(1.42014e-09 3.01235e-10 3.50937e-10)
(6.15619e-11 -3.3073e-11 8.3826e-12)
(8.96117e-11 -5.51749e-11 1.87853e-11)
(2.23794e-10 -6.33671e-11 -1.61866e-11)
(2.56242e-10 -5.89873e-11 1.59805e-13)
(3.87734e-10 -6.06855e-11 -1.69587e-11)
(4.9826e-10 -9.9274e-11 -5.91674e-12)
(7.85254e-10 1.09311e-10 3.69635e-11)
(6.76703e-10 4.61195e-11 4.74994e-11)
(7.80336e-10 1.96215e-10 1.31054e-10)
)
;
    }
}


// ************************************************************************* //
