/*--------------------------------*- C++ -*----------------------------------*\
| =========                 |                                                 |
| \\      /  F ield         | OpenFOAM: The Open Source CFD Toolbox           |
|  \\    /   O peration     | Version:  4.x                                   |
|   \\  /    A nd           | Web:      www.OpenFOAM.org                      |
|    \\/     M anipulation  |                                                 |
\*---------------------------------------------------------------------------*/
FoamFile
{
    version     2.0;
    format      ascii;
    class       volVectorField;
    location    "21";
    object      ddtUrel;
}
// * * * * * * * * * * * * * * * * * * * * * * * * * * * * * * * * * * * * * //

dimensions      [0 1 -2 0 0 0 0];

internalField   nonuniform List<vector> 
114
(
(8.46423e-08 5.81678e-09 -9.92293e-11)
(9.87158e-08 9.23833e-09 -4.18791e-09)
(1.03114e-07 7.13634e-09 -1.2718e-08)
(1.22407e-07 -2.31237e-09 -2.01408e-08)
(1.44044e-07 -1.61755e-08 -2.56885e-08)
(1.6087e-07 -2.74686e-08 -3.50282e-08)
(2.76587e-08 2.27144e-09 7.0547e-10)
(4.34123e-08 3.37672e-10 4.04925e-10)
(6.22621e-08 -9.53769e-11 -7.47382e-10)
(8.38655e-08 3.1093e-10 -3.86391e-09)
(9.52031e-08 4.4255e-09 -1.24981e-08)
(9.27247e-08 1.64845e-09 -2.7686e-08)
(1.06605e-07 -1.00885e-08 -4.56597e-08)
(1.47471e-07 -2.08919e-08 -4.72769e-08)
(1.69846e-07 -3.03844e-08 -5.59201e-08)
(3.14244e-08 1.8909e-10 -4.6653e-10)
(4.31936e-08 -1.1034e-09 -1.72829e-09)
(5.99434e-08 -3.82117e-09 -5.1836e-09)
(8.38577e-08 -6.69867e-09 -7.88544e-09)
(8.99817e-08 -5.59748e-09 -2.10172e-08)
(7.66623e-08 -1.15524e-08 -4.33072e-08)
(4.40399e-08 -1.84597e-08 -9.74753e-08)
(1.39908e-07 -2.95992e-08 -7.02023e-08)
(1.76276e-07 -3.38652e-08 -7.97098e-08)
(3.01843e-08 -6.68958e-10 -1.53478e-09)
(4.1176e-08 -1.68687e-09 -2.45717e-09)
(5.58589e-08 -3.07626e-09 -5.52661e-09)
(7.23438e-08 -4.95332e-09 -1.10831e-08)
(8.7357e-08 -1.10437e-08 -2.39467e-08)
(9.03582e-08 -1.85374e-08 -4.1789e-08)
(1.05688e-07 -3.32615e-08 -6.70121e-08)
(1.60193e-07 -4.52156e-08 -7.91352e-08)
(1.83399e-07 -3.90214e-08 -9.92553e-08)
(9.92226e-08 6.42229e-09 -1.3016e-08)
(1.17328e-07 -1.93236e-09 -1.84252e-08)
(1.33409e-07 -1.15478e-08 -2.76301e-08)
(1.44899e-07 -2.25089e-08 -3.60321e-08)
(2.95972e-08 1.83608e-09 3.74482e-10)
(4.07299e-08 1.34309e-09 3.35704e-10)
(5.65433e-08 1.20031e-09 -7.64798e-10)
(7.46939e-08 2.41614e-09 -4.08636e-09)
(8.65814e-08 4.12553e-09 -1.33054e-08)
(9.41025e-08 3.58405e-09 -2.52825e-08)
(1.13354e-07 -6.05869e-09 -3.72798e-08)
(1.40276e-07 -1.52017e-08 -4.69756e-08)
(1.61809e-07 -2.54655e-08 -6.08374e-08)
(3.0637e-08 5.43113e-10 -7.81193e-10)
(4.01737e-08 9.27637e-11 -1.18623e-09)
(5.48815e-08 -5.05723e-10 -2.93154e-09)
(7.09254e-08 -7.04275e-10 -8.12997e-09)
(8.31555e-08 -2.93371e-09 -2.09449e-08)
(8.89241e-08 -6.50716e-09 -3.70047e-08)
(1.02376e-07 -1.29124e-08 -5.49936e-08)
(1.45745e-07 -2.07144e-08 -6.88617e-08)
(1.78994e-07 -2.85031e-08 -9.40765e-08)
(2.973e-08 -2.38615e-10 -1.49566e-09)
(3.81931e-08 -3.90996e-10 -2.10993e-09)
(5.2021e-08 -9.69084e-10 -4.97022e-09)
(6.62416e-08 -2.01248e-09 -1.18307e-08)
(8.25285e-08 -5.53854e-09 -2.46515e-08)
(9.3377e-08 -1.19808e-08 -3.85065e-08)
(1.16053e-07 -2.05667e-08 -5.78263e-08)
(1.49785e-07 -2.71549e-08 -8.49205e-08)
(1.79377e-07 -3.08875e-08 -1.32963e-07)
(1.27536e-07 -7.43875e-09 -3.00463e-08)
(1.37459e-07 -1.90471e-08 -4.15062e-08)
(2.69382e-08 2.63274e-09 -2.15897e-10)
(3.5427e-08 2.26707e-09 -4.39903e-10)
(4.94653e-08 2.65368e-09 -1.44271e-09)
(6.61952e-08 3.82352e-09 -5.23227e-09)
(7.99737e-08 4.90904e-09 -1.36942e-08)
(9.26242e-08 3.54035e-09 -2.25446e-08)
(1.13277e-07 -3.21629e-09 -3.32184e-08)
(1.38999e-07 -1.0579e-08 -5.08408e-08)
(1.62759e-07 -2.28916e-08 -7.27628e-08)
(2.61438e-08 1.21383e-09 -9.03749e-10)
(3.38304e-08 1.0684e-09 -1.22579e-09)
(4.73265e-08 1.40451e-09 -3.04779e-09)
(6.22413e-08 1.43188e-09 -8.64056e-09)
(7.64483e-08 -5.44013e-10 -1.90881e-08)
(9.15934e-08 -2.96533e-09 -3.18482e-08)
(1.14953e-07 -7.23291e-09 -4.78602e-08)
(1.54523e-07 -1.48885e-08 -7.71287e-08)
(1.96943e-07 -2.77936e-08 -1.20947e-07)
(2.41822e-08 4.22254e-10 -1.13036e-09)
(3.17368e-08 4.0856e-10 -1.62877e-09)
(4.58442e-08 4.17195e-10 -4.99624e-09)
(6.02517e-08 -3.63503e-10 -1.09352e-08)
(7.72071e-08 -3.04727e-09 -2.18175e-08)
(9.41216e-08 -6.31682e-09 -3.58696e-08)
(1.22144e-07 -1.21575e-08 -5.68424e-08)
(1.65322e-07 -1.98258e-08 -9.95965e-08)
(2.17654e-07 -2.54985e-08 -1.82771e-07)
(2.30298e-08 2.77015e-09 -9.01206e-10)
(3.07291e-08 3.15109e-09 -1.40961e-09)
(4.27751e-08 4.25226e-09 -3.31107e-09)
(5.88126e-08 5.15724e-09 -7.91424e-09)
(7.48546e-08 5.43524e-09 -1.47284e-08)
(9.07749e-08 3.28133e-09 -2.15688e-08)
(1.10526e-07 -9.36274e-10 -3.21367e-08)
(1.35722e-07 -7.23669e-09 -5.19824e-08)
(2.15727e-08 1.70022e-09 -1.23208e-09)
(2.95132e-08 1.88911e-09 -2.07916e-09)
(4.16994e-08 2.23856e-09 -4.27612e-09)
(5.64385e-08 2.54466e-09 -9.41745e-09)
(7.25175e-08 1.14858e-09 -1.85622e-08)
(9.12761e-08 -1.15358e-09 -2.93332e-08)
(1.18109e-07 -4.78192e-09 -4.73952e-08)
(2.10316e-08 1.0039e-09 -1.38278e-09)
(2.83199e-08 1.21927e-09 -2.26913e-09)
(3.97724e-08 1.62481e-09 -5.28697e-09)
(5.30199e-08 1.32356e-09 -1.10209e-08)
(7.04445e-08 -6.82778e-10 -2.03081e-08)
(9.22334e-08 -3.94856e-09 -3.3186e-08)
)
;

boundaryField
{
    inlet
    {
        type            calculated;
        value           nonuniform List<vector> 
12
(
(-9.7796e-08 2.00497e-08 1.21877e-08)
(1.03854e-08 -1.2971e-10 4.88071e-09)
(-4.0418e-08 -2.68931e-09 3.66788e-10)
(-3.29969e-09 2.64484e-09 5.54599e-09)
(4.63321e-09 8.61874e-10 3.87684e-09)
(-3.69853e-09 -2.68248e-10 8.91187e-10)
(-3.19587e-09 3.20801e-09 6.2134e-09)
(-4.35029e-09 3.17912e-12 2.63789e-09)
(-8.39899e-09 8.31731e-10 1.35347e-09)
(-7.28948e-10 3.27542e-09 3.7714e-09)
(-2.96184e-09 2.04548e-09 2.30972e-09)
(-2.38522e-09 3.85023e-10 2.26937e-10)
)
;
    }
    outlet
    {
        type            calculated;
        value           nonuniform 0();
    }
    wall
    {
        type            calculated;
        value           nonuniform List<vector> 
66
(
(-4.11635e-08 1.8411e-08 8.47442e-09)
(1.49879e-08 -1.47603e-09 3.85571e-09)
(-2.48255e-08 -2.68434e-09 -8.09148e-10)
(5.64148e-08 -4.34644e-09 9.16283e-09)
(3.55637e-08 -2.86428e-09 2.86166e-09)
(2.5273e-08 -4.48125e-09 1.0109e-09)
(1.12332e-07 -7.24085e-09 1.1178e-08)
(3.60536e-08 -2.19391e-08 -3.63215e-08)
(6.14685e-08 -4.12174e-09 -8.2583e-09)
(1.85081e-07 1.40132e-08 1.57668e-08)
(1.83123e-07 -1.54547e-08 1.1931e-08)
(2.56337e-07 -6.74245e-08 1.99416e-08)
(7.46276e-08 -3.71319e-09 3.41523e-09)
(2.40821e-07 4.01484e-08 1.88209e-08)
(2.14198e-07 3.92486e-08 9.68647e-09)
(2.0423e-07 -1.24922e-08 -9.44477e-09)
(1.29541e-07 -4.20225e-08 -1.97616e-08)
(1.38273e-07 4.54923e-08 9.14214e-10)
(4.96101e-08 2.52019e-08 -2.28914e-08)
(-3.88356e-08 -5.50807e-08 -1.44505e-08)
(4.76324e-09 -3.01159e-08 -2.22302e-08)
(2.7936e-07 2.93561e-08 6.52082e-09)
(1.20263e-07 -3.27333e-08 -5.53664e-08)
(-1.57441e-06 6.58966e-08 -9.00813e-07)
(1.43654e-07 -1.56901e-07 -5.78284e-08)
(3.12453e-07 -4.64321e-08 1.44173e-08)
(2.49422e-07 -3.83581e-08 -1.49069e-08)
(2.40001e-07 -8.46854e-08 -1.65469e-08)
(3.06543e-07 -2.21902e-07 -5.66771e-08)
(3.61595e-07 -8.71342e-08 -1.46187e-08)
(3.17859e-07 -5.68321e-08 -2.19595e-08)
(2.61581e-07 -4.79071e-08 -3.24169e-08)
(2.36449e-07 -6.677e-08 -5.66859e-08)
(-1.97112e-08 -2.31244e-09 -4.65157e-10)
(9.78889e-10 -1.76768e-10 3.347e-10)
(-4.40221e-09 9.91608e-10 8.60522e-10)
(-2.02299e-10 5.36848e-10 -7.47217e-10)
(2.67275e-08 -4.03095e-09 1.52619e-09)
(1.77061e-08 -1.28983e-09 2.76158e-09)
(7.85923e-09 8.93122e-11 3.69196e-09)
(1.33776e-08 3.89447e-10 1.84895e-09)
(5.19927e-08 -1.90921e-09 -5.20969e-09)
(4.1511e-08 -9.30932e-11 7.65883e-09)
(2.92657e-08 2.84408e-13 2.14508e-09)
(2.09992e-08 3.21769e-09 -1.51136e-10)
(5.29746e-08 -3.13473e-09 3.45118e-09)
(6.48926e-08 1.65536e-09 4.07015e-09)
(6.35927e-08 8.88752e-10 2.1403e-09)
(3.85326e-08 -2.1161e-10 -6.97764e-10)
(1.9435e-07 -2.78396e-08 -1.5399e-08)
(1.07671e-07 -3.41115e-09 -3.40925e-08)
(1.04698e-07 -1.7873e-09 -1.53923e-08)
(5.9461e-08 5.65821e-10 -1.02862e-08)
(9.46968e-08 -2.5261e-08 -1.95954e-08)
(9.77764e-08 -1.62338e-08 -2.47602e-08)
(8.98323e-08 -1.52034e-09 -1.68769e-08)
(6.4981e-08 -3.26827e-10 -1.02477e-08)
(2.73926e-07 -1.05456e-07 -4.82727e-08)
(1.58396e-07 -2.71829e-08 -1.33728e-08)
(1.02662e-07 -6.71561e-09 -6.18405e-09)
(5.82789e-07 -2.38754e-07 -2.54031e-08)
(1.33613e-07 -2.70148e-08 -2.55169e-08)
(1.63246e-07 -2.37922e-08 -2.90267e-08)
(3.9054e-07 -5.88705e-08 -5.5729e-08)
(-7.60084e-10 -1.70337e-08 -2.6202e-07)
(-2.21665e-07 1.42914e-07 -2.799e-07)
)
;
    }
    procBoundary2to0
    {
        type            processor;
        value           nonuniform List<vector> 
44
(
(8.10609e-08 6.77282e-09 4.6516e-10)
(9.70972e-08 1.17258e-08 7.79663e-10)
(1.06118e-07 1.03122e-08 -2.84866e-09)
(1.22629e-07 2.70083e-09 -7.59062e-09)
(1.36173e-07 -8.70343e-09 -1.46726e-08)
(1.3554e-07 -2.05332e-08 -2.14987e-08)
(3.28166e-08 1.30488e-09 2.7814e-10)
(4.5981e-08 1.07307e-09 7.36615e-10)
(6.57529e-08 1.84884e-09 4.46052e-10)
(6.57529e-08 1.84884e-09 4.46052e-10)
(7.6583e-08 6.41684e-09 -1.22904e-09)
(8.67012e-08 8.49653e-09 -7.1053e-09)
(9.43819e-08 8.60558e-09 -5.2429e-09)
(1.09059e-07 2.97632e-09 -7.98031e-09)
(1.21474e-07 -5.74304e-09 -1.62167e-08)
(1.20407e-07 -1.87243e-08 -2.10986e-08)
(2.97277e-08 2.10392e-09 2.19037e-10)
(4.01082e-08 2.51409e-09 4.58363e-10)
(5.58498e-08 3.09083e-09 3.93594e-11)
(7.6583e-08 6.41684e-09 -1.22904e-09)
(8.67012e-08 8.49653e-09 -7.1053e-09)
(8.67012e-08 8.49653e-09 -7.1053e-09)
(9.47632e-08 7.47019e-09 -1.32182e-08)
(1.09121e-07 1.59221e-09 -1.84348e-08)
(1.14037e-07 -2.53313e-09 -1.74889e-08)
(1.12611e-07 -1.7242e-08 -2.43177e-08)
(2.59447e-08 2.79007e-09 -1.50342e-10)
(3.48556e-08 2.61873e-09 -3.09316e-10)
(4.81876e-08 3.97949e-09 -3.76579e-10)
(6.51909e-08 6.72269e-09 -2.9208e-09)
(7.92264e-08 8.28321e-09 -9.08509e-09)
(9.47632e-08 7.47019e-09 -1.32182e-08)
(1.09121e-07 1.59221e-09 -1.84348e-08)
(1.09121e-07 1.59221e-09 -1.84348e-08)
(1.10407e-07 -2.76053e-09 -3.07103e-08)
(1.24681e-07 -1.48293e-08 -4.43845e-08)
(2.13868e-08 3.18901e-09 -1.12191e-09)
(2.87766e-08 3.62105e-09 -1.34554e-09)
(4.1749e-08 5.11886e-09 -2.19636e-09)
(5.65822e-08 6.43696e-09 -4.73215e-09)
(7.30307e-08 8.0959e-09 -9.19124e-09)
(8.81775e-08 7.8103e-09 -1.30156e-08)
(9.83735e-08 3.26163e-09 -1.88554e-08)
(1.10407e-07 -2.76053e-09 -3.07103e-08)
)
;
    }
    procBoundary2to3
    {
        type            processor;
        value           nonuniform List<vector> 
12
(
(1.51561e-07 -3.01153e-08 -4.06268e-08)
(1.71405e-07 -4.01484e-08 -6.51847e-08)
(1.81674e-07 -4.28555e-08 -9.32256e-08)
(1.84292e-07 -4.19701e-08 -1.17911e-07)
(1.41825e-07 -2.83089e-08 -4.32144e-08)
(1.70824e-07 -3.66486e-08 -7.25336e-08)
(1.97544e-07 -4.24031e-08 -1.12313e-07)
(2.2104e-07 -3.94556e-08 -1.63901e-07)
(1.34147e-07 -2.53877e-08 -5.00653e-08)
(1.77144e-07 -3.50185e-08 -9.09161e-08)
(2.3149e-07 -5.22917e-08 -1.64046e-07)
(3.03167e-07 -5.68228e-08 -2.84303e-07)
)
;
    }
    procBoundary2to6
    {
        type            processor;
        value           nonuniform List<vector> 
32
(
(1.60723e-07 -2.10687e-08 -8.09501e-08)
(1.555e-07 -1.16978e-08 -8.34992e-08)
(2.16494e-07 -3.27201e-08 -1.47681e-07)
(1.18315e-07 -7.28129e-09 -5.88747e-08)
(1.81349e-07 -1.9426e-08 -1.13311e-07)
(2.97199e-07 -4.83596e-08 -2.40538e-07)
(1.81582e-08 2.88213e-09 -1.997e-09)
(2.455e-08 3.8798e-09 -2.92737e-09)
(3.66657e-08 5.52936e-09 -4.74593e-09)
(5.01767e-08 5.77494e-09 -8.36946e-09)
(6.5799e-08 6.09373e-09 -1.41196e-08)
(8.16771e-08 5.42634e-09 -2.09338e-08)
(9.44448e-08 2.3266e-09 -2.99708e-08)
(1.60723e-07 -2.10687e-08 -8.09501e-08)
(1.555e-07 -1.16978e-08 -8.34992e-08)
(1.15567e-07 -3.09242e-09 -4.87806e-08)
(1.76461e-08 2.02812e-09 -2.1036e-09)
(2.40443e-08 2.46478e-09 -3.07039e-09)
(3.57399e-08 3.04851e-09 -5.38695e-09)
(5.05012e-08 3.53619e-09 -1.01478e-08)
(6.43508e-08 2.7049e-09 -1.72224e-08)
(8.26631e-08 1.11221e-09 -2.74104e-08)
(1.555e-07 -1.16978e-08 -8.34992e-08)
(1.18315e-07 -7.28129e-09 -5.88747e-08)
(1.02676e-07 -2.00528e-09 -4.39121e-08)
(1.59024e-08 1.27389e-09 -1.48455e-09)
(2.28951e-08 1.6953e-09 -2.8525e-09)
(3.44619e-08 1.91368e-09 -5.87505e-09)
(4.73188e-08 1.8136e-09 -1.12208e-08)
(6.0652e-08 7.18735e-10 -1.92671e-08)
(1.18315e-07 -7.28129e-09 -5.88747e-08)
(8.01138e-08 -1.0881e-09 -3.18702e-08)
)
;
    }
}


// ************************************************************************* //
