/*--------------------------------*- C++ -*----------------------------------*\
| =========                 |                                                 |
| \\      /  F ield         | OpenFOAM: The Open Source CFD Toolbox           |
|  \\    /   O peration     | Version:  4.x                                   |
|   \\  /    A nd           | Web:      www.OpenFOAM.org                      |
|    \\/     M anipulation  |                                                 |
\*---------------------------------------------------------------------------*/
FoamFile
{
    version     2.0;
    format      ascii;
    class       volScalarField;
    location    "21";
    object      KslPrev;
}
// * * * * * * * * * * * * * * * * * * * * * * * * * * * * * * * * * * * * * //

dimensions      [1 -3 -1 0 0 0 0];

internalField   nonuniform List<scalar> 
114
(
6044.26
3223.21
5332.88
3104.55
4842.77
2940.74
3490.74
7503.27
3403.11
6477.02
3327.48
5854.44
3220.44
5392.83
3069.51
3431.63
7121.44
3301.32
5916.81
3203.77
5286.51
3094.06
4901.78
2976.33
3372.71
6426.81
3155.57
5112.72
2963.91
4411.37
2789.68
3994.81
2675.07
11506.1
3824.58
13443.7
3765.59
3539.41
8833.04
3675.34
9833.21
3753.76
10939.8
3763.02
12374.5
3663.41
3501.01
8468.42
3619.98
8866.82
3645.22
9239.85
3647.97
9986.74
3607.69
3419.95
7107.31
3368.08
6234.69
3232.26
5662.73
3131.03
5282.99
2998.56
68589.5
3974.57
3586.26
9609.96
3804.21
12730.3
3912.83
17799.9
3957.02
29154.5
3925.54
3524.1
9204.71
3738.56
11544.2
3840.18
14827
3898.96
22541.9
3898.77
3445.7
7650.75
3466.29
7217.31
3390.5
6777.25
3374.67
6604.4
3284.8
3604.96
9827.26
3833.17
12591.4
3865.77
15402.3
3827.73
19039.6
3554.87
9111.32
3764.55
10851.6
3813.56
12619.8
3787.62
3440.9
7445.26
3467.84
7096.72
3406.15
6736.07
)
;

boundaryField
{
    inlet
    {
        type            zeroGradient;
    }
    outlet
    {
        type            zeroGradient;
    }
    wall
    {
        type            zeroGradient;
    }
    procBoundary2to0
    {
        type            processor;
        value           uniform 0;
    }
    procBoundary2to3
    {
        type            processor;
        value           uniform 0;
    }
    procBoundary2to6
    {
        type            processor;
        value           uniform 0;
    }
}


// ************************************************************************* //
