/*--------------------------------*- C++ -*----------------------------------*\
| =========                 |                                                 |
| \\      /  F ield         | OpenFOAM: The Open Source CFD Toolbox           |
|  \\    /   O peration     | Version:  4.x                                   |
|   \\  /    A nd           | Web:      www.OpenFOAM.org                      |
|    \\/     M anipulation  |                                                 |
\*---------------------------------------------------------------------------*/
FoamFile
{
    version     2.0;
    format      ascii;
    class       volVectorField;
    location    "52.5";
    object      GField;
}
// * * * * * * * * * * * * * * * * * * * * * * * * * * * * * * * * * * * * * //

dimensions      [1 -2 -1 0 0 0 0];

internalField   nonuniform List<vector> 
132
(
(100.241 -1.23658 -4.36261)
(48.9236 -0.761179 -3.0643)
(110.555 -1.40098 -5.18366)
(65.3816 -0.409187 -3.00974)
(119.947 -0.766887 -4.52565)
(77.5254 0.0753309 -2.65512)
(127.641 -0.263334 -4.038)
(86.6762 0.497446 -2.98681)
(135.986 0.397696 -3.83922)
(100.552 -3.32506 -4.96136)
(46.3001 -2.41302 -2.95859)
(107.897 -4.2485 -5.45031)
(58.7931 -2.26494 -3.14004)
(115.489 -3.64542 -5.11763)
(68.4792 -1.83458 -2.77737)
(121.711 -3.35664 -4.56576)
(75.7954 -2.71074 -2.77977)
(127.659 -3.31278 -3.96787)
(101.329 -1.96341 -5.52753)
(44.3775 -1.16454 -2.86291)
(106.254 -2.18887 -5.82058)
(54.3368 -1.22081 -3.01492)
(111.199 -1.39825 -5.46984)
(61.6553 -0.416907 -2.80996)
(115.666 -0.954235 -4.82047)
(65.8595 -0.0372796 -1.92063)
(117.553 -0.580732 -3.57377)
(100.761 -1.60744 -5.41302)
(44.9217 -0.566024 -2.6259)
(106.669 -1.21925 -5.36402)
(99.0725 -1.78801 -6.86667)
(42.0637 -0.700523 -3.88763)
(102.632 -1.70575 -6.69094)
(48.551 -0.659372 -3.17816)
(106.385 -1.42572 -4.6183)
(53.5471 -0.237283 -2.21357)
(109.849 -0.934722 -3.24844)
(56.7146 0.345266 -1.66461)
(112.868 -0.11029 -1.78242)
(98.5834 -4.22243 -7.72341)
(37.275 -1.9863 -3.69407)
(99.5874 -4.68777 -7.29277)
(38.0215 -1.83343 -2.96235)
(99.9944 -4.25939 -5.28339)
(36.6382 -1.35801 -1.83568)
(100.759 -3.74288 -3.75009)
(33.9481 -0.980639 -1.07787)
(101.945 -2.86539 -1.79272)
(97.9116 -2.2749 -8.43362)
(33.6377 -0.6862 -3.55835)
(97.3968 -1.99615 -8.14072)
(30.3105 -0.546357 -2.79699)
(95.9401 -1.3193 -5.6999)
(24.522 -0.0380749 -1.57358)
(94.7698 -0.222511 -3.20339)
(16.5988 0.40475 -0.660564)
(94.9365 0.359492 -1.27869)
(96.6213 -0.610626 -8.92244)
(34.9345 -0.272307 -4.15139)
(97.033 -0.630839 -8.72851)
(32.3402 -0.0271888 -3.09555)
(95.9802 -0.144498 -6.34386)
(97.2025 -2.15822 -5.89785)
(40.8579 -0.911264 -3.56032)
(99.6684 -2.14747 -6.15224)
(45.5092 -0.822196 -3.5069)
(102.872 -1.82772 -5.0556)
(49.6968 -0.384802 -3.35832)
(106.141 -1.26018 -4.10443)
(52.2441 0.171728 -3.78559)
(109.783 -0.179753 -4.01202)
(96.4654 -4.81905 -6.59125)
(35.594 -2.2937 -3.51411)
(96.3404 -5.57571 -6.61777)
(33.8835 -2.17258 -2.79493)
(96.2172 -4.69469 -4.87763)
(31.3943 -1.53148 -2.48961)
(96.947 -3.3496 -3.98855)
(28.5442 -1.45121 -2.37787)
(98.9998 -2.4546 -3.12638)
(95.4424 -3.22836 -6.83566)
(31.3243 -1.45365 -3.5624)
(93.1053 -3.46695 -7.16342)
(22.7988 -0.918702 -2.45045)
(90.7979 -2.29291 -4.7307)
(15.508 -0.427744 -1.72636)
(90.1718 -1.19147 -1.72359)
(10.8876 -0.311722 -1.62007)
(90.7007 -1.07844 0.111186)
(94.812 -1.14196 -6.56666)
(30.3789 -0.596894 -3.48495)
(92.1941 -1.47588 -6.6325)
(21.8879 -0.627466 -1.94071)
(90.8341 -1.59553 -3.91753)
(16.4478 -0.911655 -1.47181)
(91.3405 -1.59328 -2.60513)
(97.0959 -2.57643 -4.26067)
(40.3015 -1.13486 -2.7227)
(98.8219 -2.44653 -4.41528)
(43.4435 -0.803401 -2.61405)
(100.266 -1.73223 -3.44471)
(44.4708 -0.614607 -2.40665)
(101.218 -1.50564 -2.69096)
(43.3637 0.0177638 -2.46771)
(101.103 -0.21541 -1.79872)
(95.9239 -5.18753 -4.8526)
(32.7132 -2.5406 -2.51819)
(93.6542 -5.87566 -4.88358)
(26.483 -2.01435 -1.86212)
(92.101 -4.57236 -3.30038)
(20.0368 -1.5437 -1.27696)
(90.758 -2.21422 -2.31631)
(12.4881 -1.16787 -1.03316)
(90.4215 0.0564363 -2.16222)
(95.221 -2.34108 -4.87612)
(28.6185 -1.0259 -2.34964)
(90.2363 -2.20723 -4.15745)
(15.2636 -0.364532 -1.10416)
(86.4654 -0.630845 -2.34828)
(4.0922 -0.0389944 -0.309134)
(83.8154 0.800905 -1.63637)
(3.22398e-05 2.26421e-06 6.66528e-07)
(81.1115 0.974558 -0.280443)
(95.0001 -0.44804 -4.49345)
(30.4975 0.117997 -2.567)
(90.9679 0.555554 -4.57295)
(20.3391 0.43094 -1.71415)
(89.6778 0.914554 -3.68288)
(14.0635 0.469393 -1.37389)
(89.1989 -0.183358 -2.71952)
(10.1679 0.577636 -1.24766)
(89.0249 -0.127653 -1.03634)
)
;

boundaryField
{
    inlet
    {
        type            calculated;
        value           uniform (67 0 0);
    }
    outlet
    {
        type            calculated;
        value           nonuniform 0();
    }
    wall
    {
        type            calculated;
        value           uniform (0 0 0);
    }
    procBoundary0to1
    {
        type            processor;
        value           nonuniform List<vector> 
12
(
(93.0894 2.23305 -2.81518)
(80.4791 -2.13346 -2.95906)
(66.2427 0.615145 -2.22123)
(57.9198 1.35398 -0.629313)
(30.8281 -0.919053 -0.356023)
(8.19666 0.414678 -0.532554)
(53.0294 1.46244 -4.46193)
(27.9949 -2.16273 -2.99304)
(5.88628 -0.328215 -1.2946)
(37.1866 0.458635 -1.32214)
(5.68419 -0.850226 -0.532983)
(3.12448e-05 1.14221e-06 3.12918e-06)
)
;
    }
    procBoundary0to2
    {
        type            processor;
        value           nonuniform List<vector> 
44
(
(55.3966 -0.661175 -2.70731)
(111.739 -1.09311 -5.08666)
(64.0696 -0.763817 -2.44274)
(117.277 -1.15508 -3.76197)
(69.793 -0.39322 -1.42933)
(122.738 -0.764856 -2.40805)
(99.1992 0.166081 -4.34118)
(41.756 0.0424842 -2.4548)
(55.3966 -0.661175 -2.70731)
(103.579 0.455049 -5.12746)
(55.3966 -0.661175 -2.70731)
(111.739 -1.09311 -5.08666)
(27.3279 0.0200623 -1.967)
(95.9683 -0.190603 -3.97017)
(23.8519 0.206231 -1.43492)
(98.2745 0.183708 -2.2305)
(97.5385 1.19316 -8.0452)
(33.9685 0.258087 -3.84484)
(96.4727 1.25702 -8.48842)
(28.8341 0.655038 -3.12324)
(27.3279 0.0200623 -1.967)
(94.9595 1.60466 -6.4213)
(27.3279 0.0200623 -1.967)
(95.9683 -0.190603 -3.97017)
(14.3765 -1.03608 -1.5999)
(92.5252 -0.123282 -2.02668)
(95.4415 1.20352 -6.69784)
(30.9023 0.158839 -3.16839)
(92.1342 0.435421 -6.00085)
(20.4402 -0.0279919 -1.77411)
(89.3177 -0.394573 -3.67007)
(10.1404 -0.286941 -0.815985)
(14.3765 -1.03608 -1.5999)
(87.0922 -1.72939 -1.56094)
(14.3765 -1.03608 -1.5999)
(92.5252 -0.123282 -2.02668)
(94.7436 1.84587 -5.60843)
(28.9676 0.985401 -2.27176)
(90.4058 2.55502 -4.46344)
(18.8704 0.672727 -1.54935)
(88.379 2.06194 -2.39052)
(11.07 0.467362 -0.800083)
(87.4918 1.58745 -0.0624778)
(4.27662 0.240445 -0.432842)
)
;
    }
    procBoundary0to4
    {
        type            processor;
        value           nonuniform List<vector> 
36
(
(96.1489 -2.85633 -1.83007)
(40.9639 -1.28779 -1.17629)
(97.5136 -2.97766 -1.74389)
(43.7077 -1.18701 -1.32368)
(99.3627 -2.20568 -0.868099)
(45.6013 -0.640958 -0.953792)
(100.982 -1.53775 -0.689222)
(46.0983 -0.607132 -0.912762)
(102.811 -1.49448 0.660092)
(94.3839 -5.40684 -1.51261)
(33.5199 -2.56982 -0.795733)
(92.2535 -5.59113 -1.12791)
(26.5408 -1.93732 -0.769938)
(91.0255 -4.15216 -0.40304)
(21.8054 -1.40354 -0.448885)
(91.3137 -3.13332 0.0302675)
(17.2993 -1.33843 -0.397287)
(91.7875 -1.87908 0.855763)
(94.179 -2.90413 -1.33773)
(29.8234 -1.57828 -0.614032)
(89.7076 -3.22433 -0.557496)
(19.327 -1.05591 -0.178238)
(87.8053 -2.79351 0.214516)
(11.8835 -0.748172 0.161016)
(87.5105 -1.67628 -0.551246)
(4.13227 -0.281459 0.177689)
(87.6329 0.151614 -0.582519)
(94.4756 -1.96596 -2.19867)
(30.1179 -0.534913 -0.845503)
(89.4252 -1.83261 -1.60921)
(18.7367 -0.74905 -0.77999)
(86.8003 -1.52137 -1.1756)
(8.85155 -0.48476 -0.252562)
(85.2725 0.28692 -0.778035)
(1.62145 -0.14229 -0.0354182)
(84.8918 -0.0176901 0.280722)
)
;
    }
    procBoundary0to6
    {
        type            processor;
        value           uniform (87.4916 1.85734 -0.625486);
    }
    procBoundary0to7
    {
        type            processor;
        value           uniform (5.32985 0.620968 -0.920878);
    }
}


// ************************************************************************* //
