/*--------------------------------*- C++ -*----------------------------------*\
  =========                 |
  \\      /  F ield         | OpenFOAM: The Open Source CFD Toolbox
   \\    /   O peration     | Website:  https://openfoam.org
    \\  /    A nd           | Version:  4.x
     \\/     M anipulation  |
\*---------------------------------------------------------------------------*/
FoamFile
{
    version     2.0;
    format      ascii;
    class       Cloud<passiveParticle>;
    location    0;
    object      positions;
}
// * * * * * * * * * * * * * * * * * * * * * * * * * * * * * * * * * * * * * //

258
(
( 0.0238733 0.0373681 0.0153897 ) 6
( 0.248435 0.0516105 -0.00686321 ) 2
( 0.0274372 0.0279958 0.032488 ) 6
( 0.0326294 0.0721855 0.0175562 ) 25
( 0.242188 0.0712141 0.000324769 ) 2
( 0.196896 0.0712889 0.00281389 ) 1
( 0.225555 0.0399174 -0.0104038 ) 0
( 0.105977 0.0456253 0.0369988 ) 18
( 0.167606 0.019567 0.018748 ) 12
( 0.131362 0.0344983 0.0151928 ) 10
( 0.0683114 0.0675101 0.0308743 ) 17
( 0.219112 0.0674933 0.00876262 ) 1
( 0.0543292 0.0347366 0.0266347 ) 7
( 0.139715 0.0400246 0.0351756 ) 11
( 0.0876079 0.0459117 0.0297737 ) 18
( 0.111073 0.0900118 0.0147603 ) 27
( 0.0346935 0.015268 0.0196111 ) 7
( 0.0645742 0.0900784 0.0200269 ) 26
( 0.17905 0.0835146 0.0156116 ) 30
( 0.163845 0.0745236 0.0244692 ) 29
( 0.0484638 0.0728083 0.0304835 ) 25
( 0.24037 0.0901606 0.0189171 ) 32
( 0.229783 0.0220741 -0.00343494 ) 0
( 0.108685 0.0619873 0.0224939 ) 18
( 0.096346 0.0291526 0.0242413 ) 9
( 0.189721 0.0509958 0.0147576 ) 21
( 0.132545 0.0148878 0.0178129 ) 10
( 0.214633 0.071727 -0.00991458 ) 4
( 0.139649 0.0520652 0.0197299 ) 20
( 0.0153814 0.0178827 0.0171821 ) 6
( 0.117379 0.0783753 0.0295098 ) 28
( 0.131636 0.0203061 0.036558 ) 10
( 0.203389 0.0368801 0.017159 ) 13
( 0.213694 0.0534051 0.0213275 ) 22
( 0.00975995 0.0744959 0.0216381 ) 24
( 0.206051 0.0518391 0.00319511 ) 1
( 0.0985622 0.0899614 0.0300019 ) 27
( 0.110426 0.0153314 0.0251176 ) 9
( 0.200844 0.0269675 0.0339849 ) 13
( 0.239233 0.0358949 0.016418 ) 14
( 0.145888 0.0730751 0.0167066 ) 29
( 0.0914279 0.0633188 0.0383112 ) 18
( 0.191028 0.0902236 0.00133907 ) 3
( 0.159495 0.0557219 0.0208959 ) 20
( 0.0195903 0.0901917 0.0281093 ) 24
( 0.216016 0.0868396 0.0210735 ) 31
( 0.23151 0.0529341 0.00298364 ) 2
( 0.224136 0.0278353 0.0261705 ) 14
( 0.130332 0.090093 0.019734 ) 28
( 0.173205 0.0901638 -0.00755228 ) 3
( 0.00980747 0.0193783 0.0360182 ) 6
( 0.231254 0.0491443 0.0302035 ) 23
( 0.196603 0.0901817 0.0218425 ) 31
( 0.037264 0.0513465 0.0195745 ) 16
( 0.0682512 0.0502387 0.0209962 ) 17
( 0.0796935 0.0838143 0.0312238 ) 26
( 0.240231 0.0165977 0.0122593 ) 0
( 0.195104 0.0703307 0.0223647 ) 22
( 0.149194 0.0902458 0.0258445 ) 29
( 0.150659 0.025803 0.0271261 ) 11
( 0.208168 0.0902226 -0.00851451 ) 4
( 0.24303 0.0903831 -0.00376656 ) 5
( 0.091965 0.0724187 0.0206817 ) 27
( 0.0387386 0.0896964 0.0242732 ) 25
( 0.0186172 0.0568468 0.0224602 ) 15
( 0.227597 0.0748682 0.0316383 ) 32
( 0.00988716 0.0380705 0.0291716 ) 6
( 0.224553 0.0900789 0.00346585 ) 5
( 0.23615 0.0641089 0.0181736 ) 23
( 0.127163 0.0670148 0.017487 ) 19
( 0.197706 0.0504854 0.0326681 ) 22
( 0.185066 0.0289333 0.0172536 ) 12
( 0.0762111 0.031988 0.0213826 ) 8
( 0.247928 0.0753755 0.0296548 ) 32
( 0.0515451 0.0534934 0.0329337 ) 16
( 0.166692 0.0381117 0.0255321 ) 12
( 0.0536208 0.015192 0.0535762 ) 34
( 0.088282 0.0319263 0.0573441 ) 36
( 0.167151 0.0675935 0.0422912 ) 21
( 0.113118 0.0418159 0.0190528 ) 10
( 0.0489545 0.0320111 0.0627293 ) 34
( 0.208136 0.0547649 0.0520747 ) 49
( 0.0289468 0.0595431 0.0546027 ) 43
( 0.124573 0.0558411 0.0552408 ) 46
( 0.181427 0.027462 0.0571431 ) 39
( 0.175558 0.0900129 0.0532031 ) 57
( 0.0314119 0.0403525 0.0591722 ) 34
( 0.0713239 0.05964 0.0589318 ) 44
( 0.104736 0.0219682 0.0623821 ) 36
( 0.107978 0.0804535 0.0593217 ) 54
( 0.105741 0.0594805 0.0601497 ) 45
( 0.0552741 0.0890397 0.0560929 ) 52
( 0.1503 0.0695902 0.0569346 ) 47
( 0.132019 0.0399017 0.0639637 ) 37
( 0.0208317 0.0793694 0.0569412 ) 51
( 0.179668 0.0552368 0.0554108 ) 48
( 0.139589 0.0214791 0.0647906 ) 38
( 0.0701505 0.0399385 0.0586895 ) 35
( 0.134405 0.0900891 0.0589159 ) 55
( 0.238166 0.0470321 0.0496562 ) 50
( 0.00987817 0.017082 0.0644141 ) 33
( 0.228703 0.0874571 0.0564846 ) 59
( 0.207408 0.0760485 0.0524481 ) 58
( 0.0839836 0.0891588 0.0658708 ) 54
( 0.148906 0.0490406 0.0575024 ) 47
( 0.15889 0.0901143 0.0674359 ) 56
( 0.00971838 0.0635616 0.0595192 ) 42
( 0.0954788 0.0379381 0.0743994 ) 63
( 0.24928 0.0176004 0.0549475 ) 41
( 0.192309 0.0653344 0.0445618 ) 48
( 0.0446716 0.0527048 0.0697064 ) 43
( 0.0843237 0.073656 0.0535426 ) 54
( 0.225248 0.0610093 0.0449014 ) 50
( 0.112975 0.0906118 0.0436119 ) 55
( 0.196961 0.0514016 0.0679579 ) 49
( 0.129683 0.0724648 0.0458707 ) 55
( 0.166267 0.090384 0.0356909 ) 29
( 0.0615198 0.0168683 0.073274 ) 62
( 0.038091 0.0831296 0.0468829 ) 52
( 0.229306 0.0181175 0.0603832 ) 41
( 0.199285 0.020308 0.0523263 ) 40
( 0.211871 0.0352468 0.0549215 ) 40
( 0.164712 0.0372316 0.0612642 ) 38
( 0.105969 0.0260146 0.0412646 ) 9
( 0.021559 0.0251676 0.0509413 ) 33
( 0.0136022 0.0395718 0.0678727 ) 33
( 0.166508 0.024655 0.0444892 ) 38
( 0.0439275 0.0708368 0.0614377 ) 43
( 0.249576 0.0572975 0.0374443 ) 23
( 0.0569689 0.066504 0.0471886 ) 44
( 0.110959 0.064209 0.0419022 ) 18
( 0.00975758 0.0903045 0.0449861 ) 51
( 0.216767 0.0897942 0.0407115 ) 31
( 0.0941198 0.0902467 0.0491085 ) 54
( 0.249077 0.0459706 0.0689967 ) 50
( 0.171044 0.071933 0.0607724 ) 57
( 0.0311383 0.0651304 0.0358706 ) 16
( 0.178826 0.0560323 0.0313992 ) 21
( 0.152056 0.0549134 0.0390713 ) 20
( 0.0737442 0.0901364 0.0489805 ) 53
( 0.0637897 0.0297419 0.0431014 ) 35
( 0.0260402 0.0464151 0.0391506 ) 15
( 0.0431387 0.0320773 0.0438663 ) 34
( 0.122903 0.0336797 0.0479239 ) 37
( 0.148394 0.0306052 0.049961 ) 38
( 0.151615 0.0902399 0.0490016 ) 56
( 0.182576 0.0333059 0.0363185 ) 12
( 0.125875 0.0729121 0.065292 ) 55
( 0.209404 0.0666757 0.0352383 ) 22
( 0.0886813 0.0515556 0.0540837 ) 45
( 0.196999 0.0900755 0.0417097 ) 31
( 0.106194 0.04041 0.0559112 ) 36
( 0.116808 0.0472426 0.0742489 ) 73
( 0.24706 0.0787383 0.056252 ) 59
( 0.0859801 0.0707765 0.0730811 ) 72
( 0.246315 0.0372619 0.0346595 ) 14
( 0.012346 0.0605926 0.0405301 ) 15
( 0.215285 0.0639987 0.0725687 ) 76
( 0.228613 0.0304958 0.0452822 ) 41
( 0.121529 0.0252349 0.0721606 ) 64
( 0.083204 0.0277758 0.0390332 ) 8
( 0.193499 0.0707928 0.0657091 ) 48
( 0.134429 0.0903045 0.0390169 ) 28
( 0.182085 0.0788778 0.0346709 ) 30
( 0.236462 0.0905768 0.0384406 ) 32
( 0.0274975 0.0631814 0.0738285 ) 69
( 0.180227 0.0153701 0.0733874 ) 66
( 0.053416 0.047441 0.0514559 ) 43
( 0.0537322 0.0904716 0.0367129 ) 25
( 0.0638153 0.0502658 0.0743157 ) 71
( 0.0726114 0.0512225 0.0412859 ) 17
( 0.049087 0.0166267 0.0330462 ) 7
( 0.241265 0.0175154 0.0370553 ) 14
( 0.0348127 0.0902436 0.0651859 ) 52
( 0.21443 0.0412134 0.0367072 ) 13
( 0.158184 0.0589782 0.0717473 ) 74
( 0.127559 0.0556506 0.0353441 ) 19
( 0.148961 0.0743145 0.0376645 ) 29
( 0.210115 0.0837968 0.0703396 ) 58
( 0.134881 0.0572248 0.0734073 ) 73
( 0.0105275 0.0900347 0.0702576 ) 51
( 0.00967571 0.0408445 0.0486783 ) 33
( 0.027458 0.0230538 0.0733974 ) 60
( 0.193762 0.0900745 0.0611618 ) 57
( 0.23833 0.0744456 0.0760603 ) 86
( 0.143237 0.0790937 0.0728444 ) 83
( 0.100924 0.0206444 0.0816403 ) 63
( 0.168356 0.0444744 0.0436699 ) 48
( 0.14902 0.0366631 0.0726706 ) 65
( 0.0659976 0.0745112 0.0704549 ) 53
( 0.101907 0.0900241 0.0759532 ) 81
( 0.211747 0.0361102 0.0741622 ) 67
( 0.0865153 0.0310919 0.0905469 ) 63
( 0.193427 0.0417342 0.0506117 ) 39
( 0.175162 0.0488694 0.0730403 ) 75
( 0.0727813 0.0192707 0.0572042 ) 35
( 0.00952382 0.056309 0.0774632 ) 69
( 0.165858 0.0755658 0.0789736 ) 83
( 0.188728 0.034515 0.0740479 ) 66
( 0.0930887 0.0552364 0.0830027 ) 72
( 0.244435 0.0429368 0.0903184 ) 77
( 0.121651 0.0901592 0.0740342 ) 82
( 0.0772218 0.0292001 0.0735647 ) 62
( 0.0426877 0.0732237 0.0810183 ) 79
( 0.0510486 0.0371057 0.081438 ) 61
( 0.109186 0.0703283 0.0756892 ) 72
( 0.229178 0.0403016 0.0658491 ) 41
( 0.0226675 0.0734562 0.0901396 ) 78
( 0.169704 0.0309957 0.0795191 ) 66
( 0.0296841 0.0433787 0.0787461 ) 70
( 0.110462 0.037025 0.090125 ) 63
( 0.201959 0.0578338 0.0860741 ) 76
( 0.235911 0.0628343 0.0608771 ) 50
( 0.0765291 0.0738937 0.090191 ) 80
( 0.165057 0.0149948 0.0903489 ) 65
( 0.198352 0.0771733 0.0846143 ) 85
( 0.00974414 0.0261303 0.0817871 ) 60
( 0.22761 0.0905342 0.0760065 ) 86
( 0.183242 0.0647999 0.0815446 ) 75
( 0.147902 0.0528608 0.0877182 ) 74
( 0.234012 0.0547161 0.0785473 ) 77
( 0.0516962 0.0903164 0.0751563 ) 79
( 0.130637 0.0671979 0.0901214 ) 73
( 0.0602768 0.0611871 0.0902416 ) 71
( 0.233326 0.0280372 0.0808471 ) 68
( 0.0711504 0.0904671 0.0804947 ) 80
( 0.140607 0.0900608 0.0901051 ) 83
( 0.0100341 0.0900253 0.0901333 ) 78
( 0.13545 0.0289937 0.0858341 ) 64
( 0.201361 0.0204408 0.0799095 ) 67
( 0.18067 0.0438672 0.0906864 ) 75
( 0.177944 0.0902333 0.0728852 ) 84
( 0.201342 0.0386433 0.0904641 ) 67
( 0.0746143 0.047027 0.0903474 ) 71
( 0.149862 0.0724766 0.0902598 ) 83
( 0.0399086 0.0558765 0.0902316 ) 70
( 0.115076 0.0814023 0.0905316 ) 82
( 0.223896 0.0667703 0.0903164 ) 77
( 0.111446 0.0573785 0.090329 ) 73
( 0.0373979 0.0900353 0.0901469 ) 79
( 0.035958 0.0285221 0.090411 ) 61
( 0.185378 0.0242246 0.0904832 ) 66
( 0.21197 0.0901961 0.0902908 ) 85
( 0.153938 0.0342865 0.0908815 ) 65
( 0.118194 0.018714 0.0906005 ) 64
( 0.249921 0.0705732 0.0908194 ) 77
( 0.160637 0.0901311 0.0905201 ) 83
( 0.128919 0.047293 0.0901288 ) 73
( 0.0662643 0.0283684 0.0903315 ) 62
( 0.243165 0.090037 0.0901491 ) 86
( 0.221435 0.0406437 0.0904515 ) 67
( 0.217858 0.0208716 0.0907996 ) 67
( 0.166739 0.058587 0.0902478 ) 75
( 0.0138184 0.0429818 0.0907361 ) 69
( 0.0578116 0.0808325 0.0908183 ) 80
( 0.0882161 0.0902262 0.0902813 ) 81
( 0.18023 0.0821876 0.090562 ) 84
( 0.0971882 0.0727081 0.0906686 ) 81
)
