/*--------------------------------*- C++ -*----------------------------------*\
| =========                 |                                                 |
| \\      /  F ield         | OpenFOAM: The Open Source CFD Toolbox           |
|  \\    /   O peration     | Version:  4.x                                   |
|   \\  /    A nd           | Web:      www.OpenFOAM.org                      |
|    \\/     M anipulation  |                                                 |
\*---------------------------------------------------------------------------*/
FoamFile
{
    version     2.0;
    format      ascii;
    class       volScalarField;
    location    "17.5";
    object      Cs;
}
// * * * * * * * * * * * * * * * * * * * * * * * * * * * * * * * * * * * * * //

dimensions      [1 -3 0 0 0 0 0];

internalField   nonuniform List<scalar> 
132
(
334.944
334.929
334.924
334.928
334.945
334.973
335.008
335.044
335.284
334.951
334.936
334.931
334.931
334.946
334.966
334.997
335.021
335.177
334.957
334.94
334.932
334.925
334.934
334.942
334.967
334.966
335.103
334.982
334.973
334.961
334.944
334.927
334.902
334.894
334.866
334.673
334.96
334.977
335.006
335.037
335.065
335.082
335.393
334.953
334.955
334.968
334.985
335.012
335.036
335.06
335.076
335.278
334.964
334.957
334.958
334.966
334.984
335.001
335.028
335.026
335.097
334.983
334.975
334.965
334.951
334.938
334.919
334.909
334.89
334.795
334.99
335.018
335.049
335.059
335.179
334.97
334.964
334.963
334.967
334.977
334.991
335.009
335.024
335.086
334.975
334.967
334.965
334.967
334.973
334.981
334.99
334.991
335.074
334.989
334.983
334.977
334.97
334.963
334.953
334.951
334.942
335.033
334.946
334.944
335.035
334.983
334.975
334.967
334.958
334.949
334.944
334.946
334.957
335.014
334.987
334.981
334.975
334.967
334.959
334.951
334.944
334.939
334.882
334.992
334.988
334.982
334.975
334.967
334.959
334.95
334.943
334.681
)
;

boundaryField
{
    inlet
    {
        type            calculated;
        value           nonuniform 0();
    }
    outlet
    {
        type            calculated;
        value           uniform 335;
    }
    wall
    {
        type            calculated;
        value           nonuniform List<scalar> 
66
(
334.983
334.987
334.992
334.975
334.981
334.988
334.967
334.975
334.982
334.958
334.967
334.975
334.949
334.959
334.967
334.944
334.951
334.959
334.946
334.946
334.944
334.95
334.944
334.957
334.939
334.943
335.035
335.014
334.882
334.681
334.982
334.983
334.989
334.992
334.973
334.975
334.983
334.988
334.961
334.965
334.977
334.982
334.944
334.951
334.97
334.975
334.927
334.938
334.963
334.967
334.902
334.919
334.953
334.959
334.894
334.909
334.951
334.95
334.866
334.89
334.942
334.943
334.673
334.795
335.033
334.681
)
;
    }
    procBoundary7to0
    {
        type            processor;
        value           uniform 334.959;
    }
    procBoundary7to1
    {
        type            processor;
        value           uniform 334.955;
    }
    procBoundary7to3
    {
        type            processor;
        value           nonuniform List<scalar> 
36
(
334.898
334.881
334.878
334.885
334.911
334.943
334.986
335.027
335.131
334.92
334.893
334.879
334.875
334.897
334.918
334.963
334.985
335.142
334.923
334.893
334.873
334.861
334.875
334.882
334.921
334.919
335.34
334.968
334.946
334.923
334.898
334.871
334.842
334.824
334.799
334.645
)
;
    }
    procBoundary7to5
    {
        type            processor;
        value           nonuniform List<scalar> 
44
(
334.947
334.941
334.942
334.957
334.983
335.017
335.044
335.244
334.956
334.952
334.963
334.978
335.004
335.033
335.065
335.074
335.377
334.956
334.952
334.952
334.959
334.969
334.975
334.987
335.007
335.014
335.108
334.965
334.958
334.959
334.969
334.969
334.954
334.948
334.946
334.942
334.974
334.981
334.974
334.968
334.961
334.954
334.948
334.948
)
;
    }
    procBoundary7to6
    {
        type            processor;
        value           nonuniform List<scalar> 
12
(
334.966
334.971
334.99
334.957
334.973
334.989
334.978
334.983
334.993
334.989
334.992
334.995
)
;
    }
}


// ************************************************************************* //
