/*--------------------------------*- C++ -*----------------------------------*\
| =========                 |                                                 |
| \\      /  F ield         | OpenFOAM: The Open Source CFD Toolbox           |
|  \\    /   O peration     | Version:  4.x                                   |
|   \\  /    A nd           | Web:      www.OpenFOAM.org                      |
|    \\/     M anipulation  |                                                 |
\*---------------------------------------------------------------------------*/
FoamFile
{
    version     2.0;
    format      ascii;
    class       volVectorField;
    location    "17.5";
    object      impParticleForces;
}
// * * * * * * * * * * * * * * * * * * * * * * * * * * * * * * * * * * * * * //

dimensions      [1 1 -2 0 0 0 0];

internalField   nonuniform List<vector> 
132
(
(0.00240711 -6.18543e-07 -1.69274e-05)
(0.00243091 6.70365e-07 -5.81117e-06)
(0.0023942 1.18842e-06 1.48238e-06)
(0.00241365 1.58834e-06 7.3952e-06)
(0.00239735 1.8109e-06 8.17785e-06)
(0.00240904 2.34857e-06 5.52221e-06)
(0.00233933 1.75315e-06 -4.60674e-06)
(0.0023084 2.03313e-06 -1.82065e-05)
(0.00223431 2.08847e-06 -3.40176e-05)
(0.0024054 6.13583e-06 -1.85448e-05)
(0.00244841 7.8945e-06 -7.15074e-06)
(0.00240056 9.21645e-06 -6.63621e-07)
(0.00241279 1.15127e-05 4.70192e-06)
(0.00239007 1.45624e-05 4.57662e-06)
(0.00240731 1.85346e-05 1.67886e-06)
(0.00235468 2.4648e-05 -1.05632e-05)
(0.00233973 3.20632e-05 -2.59375e-05)
(0.00225584 4.36009e-05 -4.81391e-05)
(0.00240233 1.1188e-05 -2.15793e-05)
(0.00244216 1.33879e-05 -1.09869e-05)
(0.00240714 1.54175e-05 -3.82385e-06)
(0.00242479 1.92936e-05 1.94816e-06)
(0.00240978 2.44879e-05 1.97787e-06)
(0.00244298 3.16737e-05 -2.16517e-07)
(0.00239001 4.31061e-05 -1.29111e-05)
(0.00236718 5.66982e-05 -2.89705e-05)
(0.0022733 8.29191e-05 -5.68084e-05)
(0.0023847 1.38593e-05 -2.39049e-05)
(0.00239804 1.57289e-05 -1.40392e-05)
(0.00238689 1.86358e-05 -6.80493e-06)
(0.00238896 2.27721e-05 -1.0413e-06)
(0.00239945 2.97611e-05 -3.40328e-07)
(0.0024179 3.7399e-05 -1.34049e-06)
(0.00237684 5.1942e-05 -1.34824e-05)
(0.00237639 6.54142e-05 -2.41637e-05)
(0.00226317 9.09488e-05 -5.07036e-05)
(0.00235852 -2.09868e-06 2.12299e-06)
(0.00238141 -2.29909e-06 6.64618e-06)
(0.00235108 -2.77639e-06 6.54161e-06)
(0.00236076 -3.05716e-06 4.15254e-06)
(0.00231281 -5.35404e-06 -2.79526e-06)
(0.00229818 -6.06063e-06 -1.13945e-05)
(0.00221383 -1.05523e-05 -2.09405e-05)
(0.00236031 4.22241e-06 -1.40566e-05)
(0.00239859 5.2796e-06 -5.32652e-06)
(0.00236063 6.58284e-06 -3.60321e-07)
(0.00237933 8.39148e-06 3.44705e-06)
(0.00235826 1.06339e-05 2.85477e-06)
(0.0023633 1.37362e-05 -6.70233e-07)
(0.00231152 1.75622e-05 -9.46208e-06)
(0.00229954 2.35967e-05 -2.04829e-05)
(0.00222109 2.95694e-05 -3.21194e-05)
(0.00236893 1.0001e-05 -1.69878e-05)
(0.00240451 1.16401e-05 -8.64428e-06)
(0.00236886 1.3521e-05 -3.52141e-06)
(0.00238334 1.6757e-05 5.23325e-07)
(0.00237478 2.13163e-05 1.47038e-07)
(0.00239561 2.74444e-05 -2.32529e-06)
(0.00234422 3.71517e-05 -1.15666e-05)
(0.0023164 5.00547e-05 -2.29388e-05)
(0.00223597 6.67995e-05 -3.5948e-05)
(0.00234785 1.27919e-05 -1.94775e-05)
(0.00236583 1.44584e-05 -1.16434e-05)
(0.00234805 1.69234e-05 -6.48993e-06)
(0.00236398 2.06811e-05 -2.17509e-06)
(0.0023546 2.66575e-05 -2.34887e-06)
(0.00236275 3.3808e-05 -3.8735e-06)
(0.00232777 4.65379e-05 -1.26708e-05)
(0.00231083 6.14099e-05 -2.11183e-05)
(0.00222673 7.92707e-05 -3.47824e-05)
(0.00232748 -8.07458e-06 5.44021e-06)
(0.00233514 -1.0181e-05 3.27894e-06)
(0.0022937 -1.40848e-05 -1.18476e-06)
(0.0022714 -1.74545e-05 -7.38955e-06)
(0.00219553 -2.37616e-05 -1.07666e-05)
(0.00235211 2.63785e-06 -1.03648e-05)
(0.00237896 3.75283e-06 -3.79729e-06)
(0.00234132 4.36499e-06 -3.34304e-07)
(0.00235798 5.79811e-06 1.9202e-06)
(0.00233587 7.35443e-06 8.66227e-07)
(0.00234499 9.59975e-06 -3.16739e-06)
(0.00229459 1.25142e-05 -9.27691e-06)
(0.00228602 1.64815e-05 -1.8514e-05)
(0.00220401 2.42636e-05 -2.32116e-05)
(0.00235457 8.89756e-06 -1.33128e-05)
(0.00237789 1.04356e-05 -6.8806e-06)
(0.00235197 1.2139e-05 -3.45373e-06)
(0.00237678 1.53358e-05 -1.05784e-06)
(0.00236073 1.98276e-05 -2.13997e-06)
(0.00237517 2.57492e-05 -5.34694e-06)
(0.00233009 3.60181e-05 -1.21392e-05)
(0.00231216 4.85178e-05 -2.10742e-05)
(0.00223209 7.11876e-05 -2.89302e-05)
(0.00232368 1.1646e-05 -1.58598e-05)
(0.00233931 1.30825e-05 -9.73155e-06)
(0.00232584 1.53914e-05 -5.89973e-06)
(0.0023558 1.90365e-05 -3.30999e-06)
(0.0023431 2.51669e-05 -4.09549e-06)
(0.00236589 3.1556e-05 -5.99815e-06)
(0.00232731 4.64023e-05 -1.31406e-05)
(0.0023116 6.01701e-05 -2.15558e-05)
(0.00222841 8.81986e-05 -3.14426e-05)
(0.0022645 -2.09399e-05 -1.51293e-07)
(0.00224739 -2.49006e-05 -4.65031e-06)
(0.00217874 -3.44509e-05 -5.49671e-06)
(0.00231393 1.22532e-06 -9.47878e-06)
(0.00232885 1.91212e-06 -4.30563e-06)
(0.00230911 2.44295e-06 -1.32246e-06)
(0.00233 3.37878e-06 1.07977e-07)
(0.00229715 4.54596e-06 -1.13889e-06)
(0.00229401 6.20427e-06 -4.18536e-06)
(0.00225599 8.58712e-06 -9.63826e-06)
(0.00223582 1.23408e-05 -1.52426e-05)
(0.00217206 1.63228e-05 -2.06182e-05)
(0.00230976 7.26144e-06 -1.23806e-05)
(0.00231798 8.50753e-06 -7.52559e-06)
(0.00230988 1.03559e-05 -4.91267e-06)
(0.00234294 1.34467e-05 -4.10713e-06)
(0.00231764 1.7804e-05 -5.96845e-06)
(0.00230928 2.33423e-05 -9.2101e-06)
(0.00227983 3.24416e-05 -1.66278e-05)
(0.00226273 4.26306e-05 -2.42205e-05)
(0.00220133 5.91939e-05 -3.52497e-05)
(0.00229213 1.00646e-05 -1.49236e-05)
(0.00230835 1.15539e-05 -1.00567e-05)
(0.00229858 1.39136e-05 -7.37527e-06)
(0.00233606 1.75236e-05 -6.45816e-06)
(0.00232169 2.3739e-05 -8.76682e-06)
(0.00230724 3.05094e-05 -1.12138e-05)
(0.00227756 4.2903e-05 -2.03608e-05)
(0.00226933 5.57223e-05 -2.85086e-05)
(0.00220845 7.79727e-05 -5.16769e-05)
)
;

boundaryField
{
    inlet
    {
        type            zeroGradient;
    }
    outlet
    {
        type            zeroGradient;
    }
    wall
    {
        type            zeroGradient;
    }
    procBoundary7to0
    {
        type            processor;
        value           uniform (0.00239748 -2.32143e-06 -2.87627e-05);
    }
    procBoundary7to1
    {
        type            processor;
        value           uniform (0.00240975 -7.08007e-06 -1.69665e-05);
    }
    procBoundary7to3
    {
        type            processor;
        value           nonuniform List<vector> 
36
(
(0.00244909 1.34983e-06 -2.15267e-05)
(0.0024797 3.00548e-06 -7.99636e-06)
(0.00244539 4.2186e-06 1.53863e-06)
(0.00246111 4.91456e-06 9.30341e-06)
(0.00241769 5.48191e-06 1.04461e-05)
(0.00243044 7.1934e-06 7.65192e-06)
(0.00237879 8.37195e-06 -4.69579e-06)
(0.00235508 1.15762e-05 -2.42181e-05)
(0.00227167 1.41213e-05 -4.78918e-05)
(0.00245542 6.88128e-06 -2.32801e-05)
(0.00247108 8.49365e-06 -9.95033e-06)
(0.00244087 1.07501e-05 -4.69261e-07)
(0.00243389 1.33647e-05 6.63469e-06)
(0.00240842 1.69021e-05 8.28727e-06)
(0.00244351 2.26275e-05 6.37019e-06)
(0.00239765 2.97007e-05 -7.92849e-06)
(0.00239749 4.08623e-05 -3.03596e-05)
(0.00228947 5.2962e-05 -6.01238e-05)
(0.00245768 1.19202e-05 -2.5967e-05)
(0.00248805 1.42827e-05 -1.30299e-05)
(0.0024533 1.66571e-05 -3.01908e-06)
(0.00245784 2.0902e-05 5.07571e-06)
(0.00243609 2.67272e-05 7.1905e-06)
(0.00247046 3.56178e-05 5.77867e-06)
(0.00242518 4.75742e-05 -7.84238e-06)
(0.00240953 6.5003e-05 -3.10088e-05)
(0.00229736 8.83804e-05 -6.06577e-05)
(0.00242555 1.4343e-05 -2.77248e-05)
(0.00243006 1.64068e-05 -1.57463e-05)
(0.00241719 1.95744e-05 -5.91364e-06)
(0.00243544 2.46512e-05 1.97943e-06)
(0.00243596 3.2492e-05 4.95749e-06)
(0.002459 4.24581e-05 4.108e-06)
(0.00240483 5.84205e-05 -1.04756e-05)
(0.00240685 7.9483e-05 -3.16038e-05)
(0.00230113 0.000110608 -6.79662e-05)
)
;
    }
    procBoundary7to5
    {
        type            processor;
        value           nonuniform List<vector> 
44
(
(0.00244374 -6.1395e-06 -5.44757e-06)
(0.00240603 -6.53075e-06 2.60402e-06)
(0.00243059 -8.70792e-06 9.49199e-06)
(0.00239289 -1.18867e-05 1.06894e-05)
(0.00239305 -1.61168e-05 8.99152e-06)
(0.00234702 -2.34689e-05 1.44276e-06)
(0.00231609 -3.19877e-05 -9.49445e-06)
(0.00223953 -4.45025e-05 -2.17812e-05)
(0.00237206 -2.83839e-06 -1.20803e-05)
(0.00237762 -2.29568e-06 -3.64092e-06)
(0.0023748 -1.03122e-05 3.66439e-06)
(0.00240108 -1.26647e-05 9.42229e-06)
(0.00236533 -1.64995e-05 1.05768e-05)
(0.00237628 -2.16782e-05 1.02815e-05)
(0.00232389 -3.07443e-05 5.81958e-06)
(0.00230315 -4.04038e-05 -4.22366e-07)
(0.00222309 -5.38507e-05 -5.18305e-06)
(0.00237206 -2.83839e-06 -1.20803e-05)
(0.00237762 -2.29568e-06 -3.64092e-06)
(0.00237762 -2.29568e-06 -3.64092e-06)
(0.00235281 -5.82563e-06 2.77983e-06)
(0.00236836 -6.65486e-06 5.96512e-06)
(0.00237663 -2.41227e-05 1.0861e-05)
(0.00238329 -3.13967e-05 1.10576e-05)
(0.00233529 -4.399e-05 1.02069e-05)
(0.00231931 -5.75355e-05 7.0309e-06)
(0.00223653 -7.83661e-05 8.72752e-06)
(0.00234504 -5.3035e-06 -8.51115e-06)
(0.00238514 -5.39148e-06 -1.13334e-06)
(0.00235281 -5.82563e-06 2.77983e-06)
(0.00236836 -6.65486e-06 5.96512e-06)
(0.00236836 -6.65486e-06 5.96512e-06)
(0.00232013 -1.27459e-05 4.69915e-06)
(0.00230493 -1.53144e-05 2.78877e-06)
(0.00230977 -5.09404e-05 1.00229e-05)
(0.00229306 -6.67431e-05 9.7875e-06)
(0.00222644 -9.32566e-05 1.2494e-05)
(0.00230797 -6.51642e-06 -7.57288e-06)
(0.00233146 -6.78233e-06 -1.70719e-06)
(0.00231904 -7.93471e-06 1.99477e-06)
(0.0023327 -9.49699e-06 4.37301e-06)
(0.00232013 -1.27459e-05 4.69915e-06)
(0.00230493 -1.53144e-05 2.78877e-06)
(0.00230493 -1.53144e-05 2.78877e-06)
)
;
    }
    procBoundary7to6
    {
        type            processor;
        value           nonuniform List<vector> 
12
(
(0.00242649 5.01734e-06 -2.98598e-05)
(0.00243541 1.06778e-05 -3.28257e-05)
(0.00238886 1.28786e-05 -3.40681e-05)
(0.00240031 3.85753e-06 -2.30087e-05)
(0.00240802 9.77456e-06 -2.60503e-05)
(0.00237529 1.25161e-05 -2.80638e-05)
(0.00237782 2.04823e-06 -1.72969e-05)
(0.0023887 8.69356e-06 -1.97225e-05)
(0.00234922 1.14646e-05 -2.25245e-05)
(0.00232702 8.34343e-07 -1.563e-05)
(0.00233625 6.86311e-06 -1.78684e-05)
(0.00232275 9.73039e-06 -2.05279e-05)
)
;
    }
}


// ************************************************************************* //
