/*--------------------------------*- C++ -*----------------------------------*\
| =========                 |                                                 |
| \\      /  F ield         | OpenFOAM: The Open Source CFD Toolbox           |
|  \\    /   O peration     | Version:  4.x                                   |
|   \\  /    A nd           | Web:      www.OpenFOAM.org                      |
|    \\/     M anipulation  |                                                 |
\*---------------------------------------------------------------------------*/
FoamFile
{
    version     2.0;
    format      ascii;
    class       volScalarField;
    location    "17.5";
    object      Ksl;
}
// * * * * * * * * * * * * * * * * * * * * * * * * * * * * * * * * * * * * * //

dimensions      [1 -3 -1 0 0 0 0];

internalField   nonuniform List<scalar> 
132
(
37048.6
3889.51
86164.5
3926.3
1e+10
4038.89
1e+10
4169.11
29750.1
24094.7
3638.78
26501.2
3523.18
27141.7
3484.01
22252.3
3588.33
11353.5
15926.6
3607.8
16434.2
3500.04
15442.3
3477.61
11839.5
3526.71
4829.62
6662.71
3076.48
6498.41
2863.31
6482.15
2581.81
6609.35
2088.63
5134.67
1e+10
3893.54
1e+10
3783.69
71268.4
3521.39
18541.5
1e+10
4110.14
1e+10
4121.76
1e+10
4166.46
32297.6
4226.41
8269.04
42629.9
3941.29
167243
3995.84
1e+10
4292.29
1e+10
5031.91
44741.8
8908.87
3425.97
9608.09
3417.2
10390.3
3473.54
11447.3
3765.23
11583.7
5.35526e+06
4207.24
2.30569e+09
4771.6
13696.3
30691.9
3702.62
46768.9
3621.95
72508.2
3568.91
79089.5
3778.2
22814.1
19441.7
3647.23
18995.2
3559.28
14684.2
3448.01
10108.6
3365.98
4588.2
6517
3077.05
6115
2903.68
5923.94
2591.93
5807.81
1948.63
5127.38
7981.48
3619.16
7387
10083.4
3431.14
10310.4
3445.34
11516.5
3603.38
14714.2
4201.43
13183.7
6853.13
3228
6620.84
3245.42
6733.38
3264.71
7002.41
3504.25
6919.51
5176.52
2959.07
5347.08
2965.69
5362.03
2821.17
4835.69
2604.35
3611.62
)
;

boundaryField
{
    inlet
    {
        type            zeroGradient;
    }
    outlet
    {
        type            zeroGradient;
    }
    wall
    {
        type            zeroGradient;
    }
    procBoundary7to0
    {
        type            processor;
        value           uniform 3879.35;
    }
    procBoundary7to1
    {
        type            processor;
        value           uniform 22487.5;
    }
    procBoundary7to3
    {
        type            processor;
        value           nonuniform List<scalar> 
36
(
1e+10
3973.38
1e+10
3887.33
1e+10
3831.27
187572
3888.22
19856.5
55787.7
3862.82
1e+10
3755.58
1.19898e+07
3612.63
31863.3
3382.54
6491.56
40695.8
3874.02
244033
3734.48
7.91783e+06
3602.24
43635
3211.69
10968.5
6998.01
3224.71
7188.87
3086.2
7573.95
2844.08
8295.52
2259.7
12348.4
)
;
    }
    procBoundary7to5
    {
        type            processor;
        value           nonuniform List<scalar> 
44
(
3676.94
30638.3
3630
42714.9
3640.12
56535.7
3908.08
18205.7
1e+10
3949.82
1e+10
3903.26
1e+10
3932.08
1e+10
3942.86
28562.2
1e+10
3949.82
3949.82
86644
4012.57
19407.7
3486.39
16885.1
3694.48
12561.5
35779.3
3928.3
86644
4012.57
4012.57
8209.06
3454.62
7698.46
3066.63
9209.84
8963.99
3433.88
8440.35
3414.71
8209.06
3454.62
3454.62
)
;
    }
    procBoundary7to6
    {
        type            processor;
        value           nonuniform List<scalar> 
12
(
3738.25
3714.29
3233.45
4099.65
3926.14
3485.13
3753.7
3685.31
3255.82
3488.32
3324.47
2998.36
)
;
    }
}


// ************************************************************************* //
