/*--------------------------------*- C++ -*----------------------------------*\
| =========                 |                                                 |
| \\      /  F ield         | OpenFOAM: The Open Source CFD Toolbox           |
|  \\    /   O peration     | Version:  4.x                                   |
|   \\  /    A nd           | Web:      www.OpenFOAM.org                      |
|    \\/     M anipulation  |                                                 |
\*---------------------------------------------------------------------------*/
FoamFile
{
    version     2.0;
    format      ascii;
    class       volScalarField;
    location    "17.5";
    object      KslPrev;
}
// * * * * * * * * * * * * * * * * * * * * * * * * * * * * * * * * * * * * * //

dimensions      [1 -3 -1 0 0 0 0];

internalField   nonuniform List<scalar> 
132
(
37043
3889.49
86138.6
3926.29
1e+10
4038.87
1e+10
4169.12
29746.5
24094.7
3638.76
26500.8
3523.16
27141.7
3483.99
22252.6
3588.31
11353
15927
3607.79
16434.3
3500.03
15442.4
3477.61
11839.6
3526.7
4829.59
6662.78
3076.48
6498.47
2863.31
6482.23
2581.8
6609.44
2088.62
5134.62
1e+10
3893.53
1e+10
3783.67
71266.9
3521.45
18541.3
1e+10
4110.14
1e+10
4121.75
1e+10
4166.43
32299.2
4226.39
8269.16
42625.7
3941.28
167154
3995.83
1e+10
4292.27
1e+10
5031.89
44739.7
8908.92
3425.96
9608.09
3417.18
10390.2
3473.51
11447.1
3765.17
11583.4
5.25347e+06
4207.17
2.23346e+09
4771.6
13696.8
30691.7
3702.61
46767
3621.94
72502.4
3568.89
79101.2
3778.2
22814.4
19443.8
3647.22
18996.3
3559.28
14684.6
3448
10108.8
3365.98
4588.19
6517.06
3077.05
6115.04
2903.68
5923.98
2591.93
5807.84
1948.63
5127.39
7981.39
3619.16
7387.03
10083.5
3431.12
10310.3
3445.33
11516.5
3603.37
14714.7
4201.46
13184.2
6853.14
3227.99
6620.84
3245.42
6733.36
3264.7
7002.46
3504.25
6919.55
5176.65
2959.08
5347.19
2965.7
5362.09
2821.17
4835.71
2604.33
3611.61
)
;

boundaryField
{
    inlet
    {
        type            zeroGradient;
    }
    outlet
    {
        type            zeroGradient;
    }
    wall
    {
        type            zeroGradient;
    }
    procBoundary7to0
    {
        type            processor;
        value           uniform 0;
    }
    procBoundary7to1
    {
        type            processor;
        value           uniform 0;
    }
    procBoundary7to3
    {
        type            processor;
        value           uniform 0;
    }
    procBoundary7to5
    {
        type            processor;
        value           uniform 0;
    }
    procBoundary7to6
    {
        type            processor;
        value           uniform 0;
    }
}


// ************************************************************************* //
