/*--------------------------------*- C++ -*----------------------------------*\
| =========                 |                                                 |
| \\      /  F ield         | OpenFOAM: The Open Source CFD Toolbox           |
|  \\    /   O peration     | Version:  4.x                                   |
|   \\  /    A nd           | Web:      www.OpenFOAM.org                      |
|    \\/     M anipulation  |                                                 |
\*---------------------------------------------------------------------------*/
FoamFile
{
    version     2.0;
    format      ascii;
    class       volScalarField;
    location    "17.5";
    object      magGField;
}
// * * * * * * * * * * * * * * * * * * * * * * * * * * * * * * * * * * * * * //

dimensions      [1 -2 -1 0 0 0 0];

internalField   nonuniform List<scalar> 
132
(
8.7541
84.1076
3.74448
82.5261
0.00110947
79.0884
0.000459249
74.2012
10.0193
13.5166
90.2705
12.1839
92.1306
11.7636
92.497
14.1154
87.2106
26.5241
20.6468
91.576
19.8046
93.475
20.9257
93.7623
26.9387
89.8086
62.9805
49.0119
106.127
49.6417
113.236
49.8662
125.809
48.152
153.318
59.8531
0.00121208
81.5401
0.000871747
82.8088
4.2876
86.386
15.8874
0.000993742
78.0669
0.00116255
76.9941
0.000936559
75.3205
9.5131
72.1459
35.8383
7.5465
81.8452
1.89946
79.9887
0.00088892
73.8854
0.000443264
61.1591
6.65164
35.7993
93.0075
32.938
92.8726
30.2908
90.9449
27.0988
81.8277
25.9154
0.0570808
73.8238
0.000255197
63.244
21.38
10.3007
85.9499
6.68198
87.059
4.27041
87.3064
3.84514
79.9629
12.8352
16.3569
87.5116
16.5677
89.2738
21.36
91.4424
30.527
91.2287
64.7475
48.5176
102.606
51.1172
108.813
52.99
122.329
53.3134
158.372
58.5818
37.8552
82.8188
39.4603
30.9988
91.4395
29.9063
90.2456
26.687
85.5114
20.4305
70.9219
22.0806
45.6995
96.9589
46.9471
96.881
46.0009
94.5495
43.3413
86.2366
42.5665
60.2433
105.236
58.0866
106.172
58.0752
109.546
62.9714
117.043
83.0113
)
;

boundaryField
{
    inlet
    {
        type            calculated;
        value           nonuniform 0();
    }
    outlet
    {
        type            calculated;
        value           nonuniform List<scalar> 
16
(
22.1929
58.7313
139.213
130.37
35.2804
79.3793
14.7741
56.8404
47.3674
28.5476
143.827
128.527
87.1578
48.6832
94.0447
180.73
)
;
    }
    wall
    {
        type            calculated;
        value           uniform 0;
    }
    procBoundary7to0
    {
        type            processor;
        value           uniform 85.2293;
    }
    procBoundary7to1
    {
        type            processor;
        value           uniform 14.6085;
    }
    procBoundary7to3
    {
        type            processor;
        value           nonuniform List<scalar> 
36
(
0.00134849
84.808
0.0015626
85.7979
0.00126522
86.0042
1.70902
81.9331
15.517
6.01042
87.5639
0.00144647
88.838
0.0262881
91.598
10.1571
95.4889
47.8887
8.32208
87.8358
1.36936
90.1379
0.040905
92.8757
7.53276
101.576
28.5547
47.7298
104.535
46.3694
108.495
44.063
117.717
39.4463
144.332
25.2758
)
;
    }
    procBoundary7to5
    {
        type            processor;
        value           nonuniform List<scalar> 
44
(
89.8773
10.6458
90.2172
7.55085
88.5977
5.55939
79.6988
16.4885
0.00102947
81.2415
0.00106917
82.2053
0.000845307
80.4586
0.000434404
77.721
10.4168
0.00102947
81.2415
81.2415
3.60429
78.441
16.1699
90.5166
18.272
82.9438
23.6108
8.8524
81.0068
3.60429
78.441
78.441
37.3254
88.495
39.9425
99.5377
32.2509
34.7271
91.4035
36.6596
91.1871
37.3254
88.495
88.495
)
;
    }
    procBoundary7to6
    {
        type            processor;
        value           nonuniform List<scalar> 
12
(
88.674
89.6938
101.961
79.0552
83.0464
92.7551
85.4198
87.64
98.5108
90.91
95.2565
105.856
)
;
    }
}


// ************************************************************************* //
