/*--------------------------------*- C++ -*----------------------------------*\
| =========                 |                                                 |
| \\      /  F ield         | OpenFOAM: The Open Source CFD Toolbox           |
|  \\    /   O peration     | Version:  4.x                                   |
|   \\  /    A nd           | Web:      www.OpenFOAM.org                      |
|    \\/     M anipulation  |                                                 |
\*---------------------------------------------------------------------------*/
FoamFile
{
    version     2.0;
    format      ascii;
    class       surfaceScalarField;
    location    "46";
    object      phi;
}
// * * * * * * * * * * * * * * * * * * * * * * * * * * * * * * * * * * * * * //

dimensions      [0 3 -1 0 0 0 0];

internalField   nonuniform List<scalar> 
308
(
5.4895e-06
2.01545e-08
5.58795e-06
8.71441e-08
5.44607e-06
3.28433e-08
-4.72141e-08
5.45529e-06
9.96993e-08
7.55771e-08
5.17419e-06
4.82079e-08
-8.12572e-09
5.27768e-06
2.7291e-08
2.9655e-07
4.41414e-06
4.11821e-07
-2.27294e-11
5.17131e-06
-7.40541e-07
8.03613e-07
2.0853e-06
-3.15719e-08
5.24917e-06
1.49384e-07
-4.59862e-10
5.32183e-06
1.02918e-07
-1.40838e-08
5.14676e-06
2.0791e-07
-1.30775e-12
5.39882e-06
-1.41919e-08
5.52651e-08
5.02754e-06
4.21472e-07
-1.4621e-08
5.83344e-06
-4.35448e-07
1.84442e-07
5.12186e-06
1.12512e-06
-4.51398e-08
6.28691e-06
-1.47968e-06
3.46987e-07
3.47674e-06
2.3059e-07
7.60041e-06
5.69356e-08
-1.31463e-07
7.69903e-06
1.43813e-08
-6.72234e-08
7.82683e-06
7.78348e-08
-2.10165e-07
7.97068e-06
-1.32011e-07
-7.39393e-08
8.1217e-06
2.19722e-07
-3.65657e-07
8.20336e-06
-4.41895e-07
4.37201e-08
8.44048e-06
5.62397e-07
-6.20488e-07
8.22592e-06
-9.7094e-07
6.07525e-07
1.57371e-06
-8.73842e-07
9.62668e-06
-3.64949e-07
9.65485e-06
-2.66407e-07
9.72618e-06
-4.59436e-07
9.64761e-06
-2.13055e-07
9.6998e-06
-5.67453e-07
9.31064e-06
5.75943e-08
9.48879e-06
-8.60381e-07
8.68281e-06
7.90566e-07
-1.51203e-06
5.07769e-06
-7.02075e-13
5.15049e-06
-8.54907e-08
4.98986e-06
-5.6739e-13
1.0499e-07
5.07442e-06
3.46065e-08
1.56042e-07
4.4552e-06
-3.91944e-13
3.84343e-07
5.6968e-06
5.08897e-07
-2.40718e-07
-3.50674e-07
2.23551e-06
4.96844e-06
8.52047e-13
8.8593e-09
5.02912e-06
-1.46613e-07
1.01118e-09
5.02911e-06
1.0591e-12
1.27969e-12
5.10109e-06
-1.42372e-07
4.01691e-08
5.07927e-06
1.14917e-12
7.19092e-09
5.16278e-06
6.65004e-08
6.90438e-08
4.97711e-06
4.75986e-13
1.4053e-07
5.74503e-06
2.16082e-07
-1.28122e-07
-2.22362e-07
8.26407e-07
5.12154e-06
-1.13214e-08
2.70291e-08
5.18413e-06
-2.58806e-07
-1.76223e-08
4.93925e-06
-1.45499e-08
4.92703e-08
5.01321e-06
-3.09501e-07
1.92251e-08
4.47572e-06
3.03691e-09
1.68801e-07
4.55984e-06
-6.85341e-08
9.46368e-08
3.50915e-06
2.84293e-13
4.30203e-07
4.35939e-06
9.87115e-08
-1.25352e-07
-9.2758e-08
1.51186e-06
7.34965e-06
-1.08725e-07
6.77924e-06
4.52016e-08
6.37569e-06
-7.04422e-08
5.75065e-06
1.02489e-07
5.08428e-06
1.01957e-07
4.89933e-06
1.74001e-07
3.75355e-06
2.85407e-07
4.51233e-06
1.30491e-07
1.3442e-06
5.88574e-06
-1.9344e-08
6.43055e-06
-9.3066e-08
5.93905e-06
8.36428e-08
6.81954e-07
7.02991e-06
-4.7743e-07
-7.64147e-07
1.162e-06
3.01016e-06
5.28949e-06
5.93713e-08
4.35284e-08
5.30501e-06
5.28424e-08
2.54679e-09
5.19807e-06
7.12361e-08
2.73941e-08
5.33703e-06
-8.70916e-08
-1.73636e-08
5.06102e-06
1.64986e-07
9.88723e-08
5.68552e-06
-4.45936e-07
-2.0259e-07
5.09369e-06
5.4237e-07
2.73638e-07
6.49186e-06
-1.2648e-06
-7.38916e-07
2.72505e-06
1.10234e-06
6.94923e-06
4.90691e-08
-1.88583e-09
7.00357e-06
1.08314e-08
-2.99531e-08
7.20128e-06
-6.07968e-09
-7.11234e-08
7.45499e-06
-1.57265e-07
-1.64312e-07
7.88114e-06
-1.43812e-08
-7.79802e-08
8.26271e-06
-4.77712e-07
-2.55159e-07
9.1673e-06
1.16276e-07
-4.82859e-08
9.17307e-06
-8.94365e-07
-5.0156e-07
1.13469e-06
9.43142e-07
9.37491e-06
-4.9082e-08
9.38666e-06
4.42805e-08
9.38395e-06
-7.38095e-08
9.31577e-06
1.3407e-08
9.51817e-06
-1.14824e-07
9.23015e-06
-1.56954e-08
9.95862e-06
-3.26792e-07
9.24871e-06
-5.39592e-08
1.31186e-07
9.54803e-06
-8.33033e-07
9.04934e-06
2.31163e-07
-1.49557e-06
8.12996e-06
-3.73307e-08
8.05591e-06
-4.26068e-08
7.9237e-06
-9.75158e-08
7.87104e-06
-1.22929e-07
7.75522e-06
-2.10196e-07
7.57636e-06
-1.64425e-07
7.36713e-06
-3.50163e-07
6.92102e-06
-6.1645e-08
-5.13001e-07
9.14045e-06
-3.70702e-08
9.12128e-06
-5.33835e-08
9.04443e-06
-9.17955e-08
8.88765e-06
-1.30453e-07
8.82451e-06
-2.25035e-07
8.51226e-06
-1.07333e-07
8.5361e-06
-4.22292e-07
7.85077e-06
1.22126e-07
-1.05754e-06
1.03601e-05
1.0351e-05
1.01854e-05
1.00684e-05
9.72853e-06
9.60551e-06
8.85642e-06
8.92459e-06
)
;

boundaryField
{
    inlet
    {
        type            calculated;
        value           nonuniform 0();
    }
    outlet
    {
        type            calculated;
        value           nonuniform List<scalar> 
16
(
1.53323e-06
4.77673e-06
8.83671e-06
9.26449e-06
2.93413e-06
5.0209e-06
1.84409e-06
1.56334e-06
4.41303e-06
4.65287e-06
1.13322e-05
1.15964e-05
1.19744e-05
7.04078e-06
9.33844e-06
7.99824e-06
)
;
    }
    wall
    {
        type            calculated;
        value           nonuniform List<scalar> 
66
(
0
0
0
0
0
0
0
0
0
-7.70372e-34
0
0
0
0
0
0
0
0
0
0
0
0
0
0
0
0
0
0
0
0
0
0
0
0
0
0
0
0
0
0
0
0
0
0
0
0
1.54074e-33
0
0
-3.9443e-31
0
0
0
0
0
0
0
0
0
0
0
0
0
0
0
0
)
;
    }
    procBoundary7to0
    {
        type            processor;
        value           uniform -5.62106e-06;
    }
    procBoundary7to1
    {
        type            processor;
        value           uniform -2.08409e-08;
    }
    procBoundary7to3
    {
        type            processor;
        value           nonuniform List<scalar> 
36
(
1.66426e-07
3.46099e-08
1.90425e-07
-4.60424e-08
2.4776e-07
-3.66412e-07
4.51792e-07
-1.32042e-06
1.86795e-06
3.52726e-11
-7.43522e-08
-7.40866e-13
-1.93427e-07
1.26279e-08
-5.27594e-07
4.34171e-08
-7.72906e-07
-1.11853e-07
1.45176e-07
5.71417e-08
2.12444e-07
4.79011e-08
4.16395e-07
-1.18933e-07
9.46087e-07
-9.01696e-07
2.16608e-06
3.56846e-07
2.52618e-07
4.65936e-07
1.59612e-07
7.34986e-07
-1.10327e-07
1.24462e-06
-9.55518e-07
2.50406e-06
)
;
    }
    procBoundary7to5
    {
        type            processor;
        value           nonuniform List<scalar> 
44
(
-1.79873e-07
-3.41762e-08
-1.3845e-07
-6.74244e-09
-6.09199e-08
-4.70345e-11
5.00178e-07
-2.83607e-07
-3.41815e-08
-4.033e-08
5.47418e-13
2.61901e-08
4.75109e-08
2.1347e-08
2.34848e-07
-7.06163e-07
8.46259e-07
7.39023e-13
-5.15954e-06
7.08459e-08
3.46396e-08
6.20791e-08
1.92401e-08
-1.49674e-07
1.10246e-07
-9.00021e-08
6.80234e-07
1.38743e-08
-6.98907e-08
8.30638e-09
-5.97956e-06
5.66513e-09
1.98905e-07
-1.46024e-07
8.65278e-07
-4.96621e-07
1.58071e-06
1.64395e-07
1.19207e-07
2.57117e-07
1.5822e-07
4.24893e-07
-8.89832e-06
1.40698e-07
)
;
    }
    procBoundary7to6
    {
        type            processor;
        value           nonuniform List<scalar> 
12
(
-5.37797e-06
-7.52168e-06
-9.56164e-06
-4.97776e-06
-5.26871e-06
-7.6172e-06
-5.39741e-06
-6.91001e-06
-9.38548e-06
-8.2135e-06
-9.1426e-06
-1.04463e-05
)
;
    }
}


// ************************************************************************* //
