/*--------------------------------*- C++ -*----------------------------------*\
| =========                 |                                                 |
| \\      /  F ield         | OpenFOAM: The Open Source CFD Toolbox           |
|  \\    /   O peration     | Version:  4.x                                   |
|   \\  /    A nd           | Web:      www.OpenFOAM.org                      |
|    \\/     M anipulation  |                                                 |
\*---------------------------------------------------------------------------*/
FoamFile
{
    version     2.0;
    format      ascii;
    class       volVectorField;
    location    "46";
    object      UsPrev;
}
// * * * * * * * * * * * * * * * * * * * * * * * * * * * * * * * * * * * * * //

dimensions      [0 1 -1 0 0 0 0];

internalField   nonuniform List<vector> 
132
(
(3.19055e-09 -2.93124e-10 1.26208e-09)
(3.63506e-09 -5.03805e-11 1.07965e-09)
(3.75273e-09 3.40696e-10 1.40065e-09)
(3.87258e-09 1.62841e-10 2.6583e-10)
(3.25076e-09 -2.99079e-11 -2.34351e-10)
(2.77044e-09 -1.99679e-10 -1.21372e-09)
(1.88933e-09 -4.2484e-11 -1.61725e-09)
(1.62899e-09 2.53745e-10 -1.81381e-09)
(7.53285e-10 -6.96372e-11 -7.69186e-10)
(2.85473e-09 -6.80467e-10 5.04779e-10)
(3.70306e-09 -3.20987e-10 4.42919e-10)
(3.6473e-09 -9.58704e-11 6.09305e-10)
(4.16002e-09 9.46997e-11 3.20432e-10)
(3.06483e-09 -4.89509e-11 -1.58225e-11)
(2.48485e-09 2.42247e-11 -4.36699e-10)
(2.1122e-09 -5.08075e-11 -9.9007e-10)
(1.66556e-09 -4.23947e-11 -1.78365e-09)
(7.12517e-10 9.34554e-11 -9.64288e-10)
(2.20026e-09 -1.54402e-10 2.10543e-10)
(2.78026e-09 -5.97041e-10 5.96054e-12)
(2.50415e-09 -6.13658e-11 5.38548e-10)
(2.31733e-09 2.33978e-10 4.85537e-10)
(2.00457e-09 1.95627e-11 1.52882e-10)
(1.36821e-09 1.53034e-10 9.69797e-11)
(9.43101e-10 -2.95949e-11 -9.22813e-10)
(1.19939e-09 -1.36354e-11 -1.98614e-09)
(-5.99081e-10 -6.97044e-11 -1.08401e-09)
(7.11549e-10 -2.32174e-10 2.34104e-10)
(1.14082e-09 -4.3844e-10 1.48211e-10)
(9.90873e-10 -1.60191e-10 3.49959e-10)
(1.04451e-09 9.73511e-11 4.33003e-10)
(7.15721e-10 1.14907e-11 2.77965e-10)
(4.38515e-10 1.54885e-10 4.33236e-10)
(1.81281e-10 -1.16986e-10 -6.38516e-10)
(3.95285e-10 -3.05183e-11 -1.58667e-09)
(-4.03615e-10 -1.21802e-10 -2.33094e-10)
(3.2581e-09 -1.97868e-10 7.02688e-10)
(3.13574e-09 3.46248e-10 3.59071e-10)
(2.3642e-09 2.50675e-10 -9.33304e-11)
(2.10205e-09 6.12668e-10 -5.58537e-10)
(1.35984e-09 5.28624e-10 -1.06927e-09)
(1.0871e-09 6.27604e-10 -1.32573e-09)
(3.46505e-10 3.20247e-10 -5.65703e-10)
(2.73395e-09 -2.90546e-10 3.41507e-10)
(3.00332e-09 -1.46086e-10 3.9339e-10)
(3.41901e-09 -3.11201e-10 5.71452e-10)
(3.73198e-09 3.80729e-10 3.02914e-10)
(3.21714e-09 4.62267e-10 3.08361e-10)
(2.22124e-09 8.92109e-10 -9.61836e-11)
(1.91601e-09 3.68932e-10 -7.92605e-10)
(1.69293e-09 3.4645e-10 -1.03894e-09)
(2.87497e-10 3.0361e-10 -3.28994e-10)
(2.17716e-09 -2.2374e-10 1.90057e-10)
(2.01237e-09 -3.39761e-10 3.12774e-10)
(2.32086e-09 1.33695e-10 6.37432e-10)
(3.03867e-09 1.97358e-10 5.76405e-10)
(2.95954e-09 9.84227e-10 3.56591e-10)
(2.81013e-09 2.00357e-09 2.52539e-10)
(2.48112e-09 2.07594e-10 -3.98968e-10)
(1.60074e-09 3.76823e-11 -8.25022e-10)
(-1.33526e-09 -5.61018e-10 -2.35198e-10)
(4.44694e-10 -4.53732e-10 2.35893e-10)
(6.70639e-10 -4.40633e-10 3.71589e-10)
(4.60055e-10 1.98232e-10 6.91798e-10)
(1.6078e-09 1.8194e-11 4.30488e-10)
(1.60658e-09 2.6564e-10 2.39153e-10)
(1.52856e-09 9.87266e-10 5.11377e-10)
(9.73191e-10 3.70047e-10 -2.3382e-10)
(6.81503e-10 -2.17899e-10 -6.93642e-10)
(-7.08227e-10 -1.16524e-10 -7.40633e-11)
(1.84378e-09 6.4138e-10 -7.64592e-12)
(1.29854e-09 6.33896e-10 -3.21134e-10)
(5.42478e-10 4.94753e-10 -8.18059e-10)
(4.50669e-10 5.31549e-10 -5.80225e-10)
(2.88506e-10 4.62421e-10 -3.51935e-10)
(2.34108e-09 -1.60491e-11 2.77686e-10)
(2.71214e-09 2.41544e-10 1.99556e-10)
(2.70942e-09 8.90563e-11 2.65409e-10)
(2.79568e-09 6.26423e-10 1.03347e-10)
(2.32471e-09 7.47919e-10 2.93487e-11)
(1.80415e-09 8.97451e-10 -3.37755e-10)
(1.63531e-09 4.64564e-10 -6.2204e-10)
(1.22149e-09 6.24123e-11 -2.43767e-10)
(3.73709e-10 4.0837e-10 -1.61738e-10)
(1.93507e-09 -1.74249e-10 1.19398e-10)
(2.31864e-09 4.15222e-11 5.77988e-10)
(2.72822e-09 3.76797e-10 3.73805e-10)
(3.0589e-09 5.21363e-10 2.06743e-10)
(2.88029e-09 6.52328e-10 4.16559e-10)
(3.00589e-09 9.99067e-10 1.44596e-10)
(2.79793e-09 4.80773e-10 -1.0502e-10)
(2.83079e-09 2.32574e-10 3.05595e-10)
(1.53611e-09 4.50971e-10 -5.03003e-10)
(9.75483e-10 -2.70495e-10 9.56771e-11)
(9.73853e-10 -1.15021e-10 2.31228e-10)
(1.27771e-09 1.99271e-11 2.35307e-10)
(2.16999e-09 6.34255e-11 4.31537e-10)
(2.08293e-09 1.29543e-10 3.11516e-10)
(3.82899e-09 5.06102e-10 6.37066e-10)
(2.47399e-09 4.6944e-10 2.47691e-10)
(1.71189e-09 2.03753e-10 9.4107e-11)
(9.98207e-10 6.81828e-10 -2.90067e-10)
(2.8881e-10 2.23183e-10 -2.77197e-10)
(-3.96498e-11 8.54382e-10 -3.01811e-10)
(2.59664e-10 1.58663e-09 -1.69105e-10)
(1.18971e-09 2.61359e-11 9.58104e-11)
(1.48563e-09 3.16973e-10 3.35152e-11)
(1.47933e-09 1.0696e-10 -1.73325e-11)
(1.58441e-09 3.62405e-10 -4.90893e-11)
(1.38494e-09 5.13139e-10 -4.04215e-11)
(1.28921e-09 6.39916e-10 -2.4379e-10)
(7.19804e-10 2.93313e-10 -1.10393e-10)
(-8.40611e-10 2.24338e-10 2.77839e-12)
(-3.29895e-10 3.89878e-10 -1.03429e-10)
(9.1473e-10 1.3504e-10 -1.00767e-11)
(1.16946e-09 1.76653e-10 7.07955e-11)
(1.53704e-09 2.61604e-10 -1.03539e-10)
(1.87996e-09 2.97737e-10 1.9026e-11)
(1.90457e-09 3.96942e-10 6.73923e-11)
(1.45939e-09 4.29397e-10 -2.16901e-11)
(9.37187e-10 4.64778e-10 -9.47511e-11)
(8.5683e-10 2.37006e-10 3.5398e-10)
(1.01192e-09 1.06819e-09 -7.58131e-10)
(6.31134e-10 -2.58382e-10 3.64848e-12)
(8.39592e-10 -9.39567e-11 1.80086e-11)
(1.01762e-09 5.9186e-12 -1.56201e-11)
(1.57072e-09 4.46562e-11 2.12584e-10)
(2.24607e-09 -1.02157e-08 1.03149e-10)
(1.46988e-09 2.34284e-10 4.09503e-10)
(1.46549e-09 2.22047e-10 7.94426e-12)
(2.40121e-09 3.63976e-10 2.40818e-10)
(8.18842e-10 4.78069e-09 -1.82341e-10)
)
;

boundaryField
{
    inlet
    {
        type            calculated;
        value           nonuniform 0();
    }
    outlet
    {
        type            calculated;
        value           uniform (0 0 0);
    }
    wall
    {
        type            calculated;
        value           uniform (0 0 0);
    }
    procBoundary7to0
    {
        type            processor;
        value           uniform (0 0 0);
    }
    procBoundary7to1
    {
        type            processor;
        value           uniform (0 0 0);
    }
    procBoundary7to3
    {
        type            processor;
        value           uniform (0 0 0);
    }
    procBoundary7to5
    {
        type            processor;
        value           uniform (0 0 0);
    }
    procBoundary7to6
    {
        type            processor;
        value           uniform (0 0 0);
    }
}


// ************************************************************************* //
