/*--------------------------------*- C++ -*----------------------------------*\
| =========                 |                                                 |
| \\      /  F ield         | OpenFOAM: The Open Source CFD Toolbox           |
|  \\    /   O peration     | Version:  4.x                                   |
|   \\  /    A nd           | Web:      www.OpenFOAM.org                      |
|    \\/     M anipulation  |                                                 |
\*---------------------------------------------------------------------------*/
FoamFile
{
    version     2.0;
    format      ascii;
    class       volScalarField;
    location    "39.5";
    object      KslNext;
}
// * * * * * * * * * * * * * * * * * * * * * * * * * * * * * * * * * * * * * //

dimensions      [1 -3 -1 0 0 0 0];

internalField   nonuniform List<scalar> 
87
(
3820.97
14838.2
3548.79
3242.73
6813.77
3164.01
3570.4
12401.5
3838.93
25634.8
3956.38
105510
3981.25
1e+10
3954.2
3482.31
10728.5
3675.46
15328.5
3769.83
24446.4
3802.99
56397.7
3799.81
3368.21
8119.1
3385.11
7890.97
3410.02
8107.58
3387.33
8320.82
3368.94
3510.73
10701
3699.21
15281.8
3748.37
24150.3
3779.88
50292.9
3748.75
3435.06
9138.85
3558.71
10095.5
3588.93
11246.1
3615.41
13308.8
3575.73
3355.05
7563.95
3296.74
6963.37
3263.69
6672.7
3223.85
6541.59
3165.47
3422.62
8114.45
3452.64
8131.02
3411.33
8180.9
3402.16
8530.12
3318.89
3365.8
7566.49
3337.99
7047.43
3284.25
6755.35
3251.02
6681.76
3173.92
3312.28
6975.32
3193.22
6011.28
3059.9
5468.54
3005.78
5207.65
2949.14
)
;

boundaryField
{
    inlet
    {
        type            zeroGradient;
    }
    outlet
    {
        type            zeroGradient;
    }
    wall
    {
        type            zeroGradient;
    }
    procBoundary6to0
    {
        type            processor;
        value           uniform 0;
    }
    procBoundary6to2
    {
        type            processor;
        value           uniform 0;
    }
    procBoundary6to4
    {
        type            processor;
        value           uniform 0;
    }
    procBoundary6to7
    {
        type            processor;
        value           uniform 0;
    }
}


// ************************************************************************* //
