/*--------------------------------*- C++ -*----------------------------------*\
| =========                 |                                                 |
| \\      /  F ield         | OpenFOAM: The Open Source CFD Toolbox           |
|  \\    /   O peration     | Version:  4.x                                   |
|   \\  /    A nd           | Web:      www.OpenFOAM.org                      |
|    \\/     M anipulation  |                                                 |
\*---------------------------------------------------------------------------*/
FoamFile
{
    version     2.0;
    format      ascii;
    class       volScalarField;
    location    "39.5";
    object      QPartFluidCoeff;
}
// * * * * * * * * * * * * * * * * * * * * * * * * * * * * * * * * * * * * * //

dimensions      [1 -1 -3 -1 0 0 0];

internalField   nonuniform List<scalar> 
87
(
-2.69503e+07
-2.24909e+07
-2.97965e+07
-1.89828e+07
-2.07235e+07
-1.87164e+07
-3.31801e+07
-2.98497e+07
-2.02942e+07
-2.66941e+07
-3.68903e+07
-2.03562e+07
-2.90057e+07
-2.2192e+07
-3.31969e+07
-2.10156e+07
-3.07328e+07
-2.72761e+07
-3.41015e+07
-2.9535e+07
-2.91706e+07
-2.91981e+07
-3.07846e+07
-3.13216e+07
-1.55992e+07
-2.52845e+07
-1.98791e+07
-2.05029e+07
-2.90572e+07
-3.16274e+07
-2.45462e+07
-2.11528e+07
-2.93126e+07
-2.45035e+07
-3.00023e+07
-3.2204e+07
-2.87722e+07
-2.22407e+07
-2.62876e+07
-2.64481e+07
-2.03188e+07
-3.18944e+07
-1.7917e+07
-2.9578e+07
-2.94969e+07
-2.67962e+07
-2.64967e+07
-2.18741e+07
-3.34222e+07
-2.19598e+07
-3.3248e+07
-1.60387e+07
-2.22591e+07
-2.06041e+07
-2.61422e+07
-2.74073e+07
-2.05939e+07
-2.54472e+07
-2.14905e+07
-2.29445e+07
-1.63791e+07
-1.80229e+07
-2.47862e+07
-2.34245e+07
-2.39152e+07
-2.16995e+07
-3.43592e+07
-2.90137e+07
-1.51392e+07
-1.73286e+07
-1.94392e+07
-2.5433e+07
-2.06229e+07
-3.22485e+07
-2.23824e+07
-2.40268e+07
-2.03234e+07
-2.82536e+07
-1.41633e+07
-2.04489e+07
-2.25578e+07
-2.1121e+07
-1.74782e+07
-2.82916e+07
-1.87213e+07
-1.88201e+07
-2.39764e+07
)
;

boundaryField
{
    inlet
    {
        type            calculated;
        value           uniform 0;
    }
    outlet
    {
        type            calculated;
        value           nonuniform 0();
    }
    wall
    {
        type            calculated;
        value           uniform 0;
    }
    procBoundary6to0
    {
        type            processor;
        value           uniform 196.622;
    }
    procBoundary6to2
    {
        type            processor;
        value           nonuniform List<scalar> 
32
(
434.526
643.327
774.834
734.121
406.323
586.323
370.283
716.682
778.398
540.806
622.451
473.51
572.454
564.261
564.261
564.261
443.947
597.372
795.622
499.05
689.241
580.079
779.111
779.111
779.111
321.972
476.245
567.838
547.485
510.23
490.104
490.104
)
;
    }
    procBoundary6to4
    {
        type            processor;
        value           nonuniform List<scalar> 
27
(
261.286
508.512
709.916
430.393
663.996
502.042
832.11
451.666
532.892
469.03
648.772
570.232
729.721
795.528
575.896
894.999
642.287
615.297
548.303
529.9
506.502
602.862
638.081
720.757
375.812
391.327
535.787
)
;
    }
    procBoundary6to7
    {
        type            processor;
        value           nonuniform List<scalar> 
12
(
562.773
397.938
533.793
290.473
453.618
510.12
645.81
618.758
455.678
551.724
478.534
460.564
)
;
    }
}


// ************************************************************************* //
