/*--------------------------------*- C++ -*----------------------------------*\
  =========                 |
  \\      /  F ield         | OpenFOAM: The Open Source CFD Toolbox
   \\    /   O peration     | Website:  https://openfoam.org
    \\  /    A nd           | Version:  4.x
     \\/     M anipulation  |
\*---------------------------------------------------------------------------*/
FoamFile
{
    version     2.0;
    format      ascii;
    class       vectorField;
    location    0;
    object      v;
}
// * * * * * * * * * * * * * * * * * * * * * * * * * * * * * * * * * * * * * //

313
(
( 5.15129e-09 -2.88733e-09 4.01756e-09 )  
( 2.74987e-09 -2.26482e-10 3.25292e-09 )  
( 4.06416e-09 -3.04098e-09 5.10628e-09 )  
( 3.33014e-09 -1.59571e-10 3.49644e-09 )  
( 6.34447e-09 -5.267e-09 5.44869e-09 )  
( 5.26192e-09 -1.23048e-09 3.76989e-09 )  
( 2.64253e-09 -1.06627e-09 2.58131e-09 )  
( 5.77446e-09 -2.62092e-09 4.74703e-09 )  
( 3.9184e-09 -9.21077e-10 3.18004e-09 )  
( 2.33084e-09 -1.09641e-09 2.4687e-09 )  
( 3.43787e-09 1.05089e-09 4.84545e-09 )  
( 4.19624e-09 -7.80145e-10 1.38425e-09 )  
( 5.07045e-10 -7.32733e-11 9.66365e-10 )  
( 2.78666e-09 -1.74009e-09 1.71874e-09 )  
( 3.80705e-09 -2.00459e-09 2.07556e-09 )  
( 6.81041e-10 -5.82753e-10 1.33229e-09 )  
( 1.07231e-10 -5.95812e-11 5.63787e-10 )  
( 1.98852e-09 -1.34263e-09 1.55085e-09 )  
( 4.78278e-09 -1.44114e-09 2.14206e-09 )  
( 2.19157e-10 -2.85272e-10 1.4275e-09 )  
( 6.22107e-10 5.8397e-11 1.26575e-09 )  
( 3.99112e-10 4.33244e-11 3.91599e-10 )  
( 2.76994e-09 -1.31906e-09 1.76441e-09 )  
( 1.07852e-09 -5.5638e-10 1.73128e-10 )  
( 2.01761e-10 7.34796e-11 3.3003e-10 )  
( 4.11526e-11 -1.30267e-10 2.39058e-10 )  
( 1.12501e-10 -1.81598e-10 2.61114e-10 )  
( 5.9276e-10 -1.34563e-10 8.83849e-10 )  
( 7.2376e-10 -6.99542e-10 5.43251e-10 )  
( 1.19077e-09 -1.10471e-09 8.57898e-10 )  
( 1.67514e-09 -1.57615e-09 1.31315e-09 )  
( 6.83101e-10 4.74719e-11 9.80858e-10 )  
( 5.87578e-09 -3.63596e-10 2.96463e-09 )  
( 1.6431e-10 1.20167e-10 1.62013e-09 )  
( 4.25024e-10 -1.44286e-10 1.61625e-09 )  
( 4.20426e-09 -2.93974e-09 1.9118e-09 )  
( 1.87665e-09 -1.30959e-09 7.70136e-10 )  
( 1.28975e-09 -1.35609e-09 8.64849e-10 )  
( 1.54185e-09 -1.39292e-09 5.70037e-10 )  
( 9.77229e-10 -1.13062e-09 8.0849e-10 )  
( 7.08596e-10 -2.12361e-10 1.05869e-09 )  
( 8.81493e-10 -8.41525e-10 5.93787e-10 )  
( 1.00738e-09 -2.3238e-10 1.63238e-10 )  
( 8.33266e-10 -7.96643e-10 8.71148e-10 )  
( 5.32757e-10 -1.26021e-09 1.46501e-09 )  
( 2.47415e-09 -1.32846e-09 7.04378e-10 )  
( 6.5787e-11 -1.81399e-10 1.7472e-10 )  
( 2.5209e-09 -1.74662e-09 1.44996e-09 )  
( 1.48326e-09 -1.24387e-09 7.53196e-10 )  
( 8.66563e-11 -3.55381e-10 4.58159e-10 )  
( 3.32007e-09 -3.01483e-09 2.09105e-09 )  
( 9.74504e-10 -8.10838e-10 1.71458e-09 )  
( 7.90869e-10 -2.29568e-10 -1.52478e-10 )  
( 1.01641e-10 -1.26405e-10 1.21282e-09 )  
( -2.68146e-10 -5.93101e-10 7.13093e-10 )  
( 9.36207e-10 -1.1231e-09 2.12468e-09 )  
( 3.18246e-09 -2.21642e-09 1.41305e-09 )  
( 1.99032e-09 -5.82224e-10 1.82873e-09 )  
( 3.99773e-09 -2.47944e-09 1.5209e-09 )  
( 3.10697e-10 -7.14337e-13 8.295e-10 )  
( 1.09287e-09 -3.50833e-10 1.37903e-09 )  
( 1.18755e-09 -7.67508e-10 1.78204e-09 )  
( 1.07473e-09 -1.36843e-09 1.08159e-09 )  
( 5.65615e-10 -5.33008e-10 1.20831e-09 )  
( 2.29869e-10 -4.36372e-11 3.66781e-10 )  
( 1.06869e-09 -6.81342e-10 1.1959e-09 )  
( 2.5221e-10 -1.01194e-10 3.42843e-10 )  
( 6.14512e-10 -3.1805e-10 1.51221e-09 )  
( 1.70412e-09 -1.25663e-09 1.12753e-09 )  
( 2.42047e-09 -2.10796e-09 1.13741e-09 )  
( 2.32623e-09 -9.26483e-10 1.95901e-09 )  
( 1.43926e-09 -1.8097e-09 1.82635e-09 )  
( 4.30097e-09 -3.06839e-09 2.89464e-09 )  
( 1.65433e-10 -1.10183e-10 1.23173e-09 )  
( 7.41575e-10 -1.69214e-10 4.83119e-10 )  
( 6.35957e-10 -5.92305e-10 1.16588e-09 )  
( 2.0617e-10 -5.46562e-11 1.4677e-09 )  
( 2.04715e-09 -1.70599e-09 1.21504e-09 )  
( 2.19137e-09 -1.53488e-09 9.0612e-10 )  
( 2.64527e-10 -2.77087e-11 5.2411e-10 )  
( 1.13728e-09 -1.20918e-09 1.97074e-10 )  
( -1.50259e-10 3.07294e-11 1.07305e-09 )  
( -3.88208e-10 -5.78213e-10 1.30435e-10 )  
( 1.33474e-09 -1.14269e-09 8.3398e-10 )  
( -3.92453e-11 -2.45708e-11 -4.22675e-11 )  
( 3.24295e-09 -7.06724e-10 1.87646e-09 )  
( 6.87232e-10 3.96253e-10 8.05597e-10 )  
( 6.64731e-10 -9.91617e-10 1.65946e-09 )  
( -9.2378e-13 -1.82721e-10 1.64567e-10 )  
( 8.14634e-11 6.10152e-11 9.3736e-11 )  
( 7.37629e-10 -1.41979e-09 1.64322e-09 )  
( 5.62919e-10 -2.25319e-10 4.6437e-10 )  
( 6.40205e-10 -5.16776e-10 -1.06526e-10 )  
( 3.85756e-10 2.62027e-10 3.91802e-10 )  
( 5.85017e-10 -9.59926e-10 1.89415e-09 )  
( 5.56857e-09 -1.06841e-09 2.6309e-09 )  
( 3.78772e-09 -2.25697e-09 6.39259e-10 )  
( 4.67797e-10 1.88743e-10 6.41371e-10 )  
( 3.35815e-09 -2.07515e-09 1.4473e-09 )  
( 5.43139e-10 -1.8928e-10 3.74415e-10 )  
( 1.26753e-09 -1.09198e-09 5.74163e-10 )  
( 4.24986e-10 -5.96616e-10 5.19674e-10 )  
( 4.64837e-09 -4.09271e-09 2.79986e-09 )  
( 6.19988e-09 -3.78717e-09 2.89354e-09 )  
( 1.97616e-09 -1.84542e-09 1.51525e-09 )  
( 2.70973e-09 -1.69144e-09 1.12222e-09 )  
( 3.39627e-10 -5.0146e-11 8.1001e-10 )  
( 6.98311e-09 -2.75067e-09 2.78628e-09 )  
( 1.28323e-09 -1.59098e-09 1.05723e-09 )  
( 8.53469e-10 -3.3584e-10 1.2405e-09 )  
( 1.00922e-09 -6.13571e-10 5.92229e-10 )  
( 1.81925e-09 -1.44946e-09 1.0381e-09 )  
( 2.12909e-09 -1.54334e-09 1.22783e-09 )  
( 4.26789e-10 -4.05378e-10 4.35947e-10 )  
( 1.02437e-09 -5.01966e-10 7.91148e-10 )  
( 2.31821e-09 -7.94087e-10 1.76451e-09 )  
( 1.52679e-09 -7.44666e-10 1.7922e-11 )  
( 3.22713e-09 -1.36152e-09 2.57927e-09 )  
( 6.29524e-10 -8.32103e-10 5.60982e-10 )  
( 4.00023e-10 -1.59069e-10 1.27836e-09 )  
( 5.30275e-11 -8.2728e-11 1.20269e-09 )  
( 7.54833e-10 -2.42241e-10 1.60376e-09 )  
( 1.45408e-10 1.75128e-10 1.13184e-10 )  
( 5.36874e-09 -4.04869e-09 3.2216e-09 )  
( 9.33782e-10 -1.06486e-09 -4.04593e-10 )  
( 3.40236e-10 -2.63282e-11 4.7993e-10 )  
( 1.64362e-09 -8.13688e-10 4.84559e-10 )  
( 9.85871e-10 -1.85481e-09 1.07211e-09 )  
( 1.39965e-10 1.25675e-10 8.15903e-11 )  
( 6.04892e-10 -8.84535e-10 8.29438e-10 )  
( 2.67068e-09 -2.05769e-09 1.86625e-09 )  
( 1.73976e-10 -2.37806e-10 5.85564e-11 )  
( 4.89934e-09 -2.34422e-09 1.88145e-09 )  
( 3.40137e-09 -2.84957e-09 1.40087e-09 )  
( 6.37049e-10 -3.03987e-10 -3.4346e-10 )  
( 2.9447e-10 -2.06787e-10 7.67865e-10 )  
( 6.49488e-10 -8.77531e-11 4.24351e-10 )  
( 4.39673e-09 -2.58063e-09 1.45275e-09 )  
( 1.20986e-10 -1.8063e-10 3.87211e-10 )  
( 1.25123e-09 -5.90662e-10 7.10381e-10 )  
( 1.94518e-10 -3.43615e-10 3.24369e-10 )  
( 1.4644e-10 -1.05513e-10 3.42923e-10 )  
( 8.94349e-10 -9.03962e-10 1.32298e-09 )  
( 1.13706e-09 -1.00025e-09 1.1066e-09 )  
( 3.78733e-10 -1.23021e-10 3.46922e-10 )  
( 2.88705e-09 -1.4341e-09 2.32297e-09 )  
( 6.6061e-10 -3.43753e-10 3.3331e-10 )  
( 2.95023e-09 -1.62541e-09 2.06797e-09 )  
( 4.78642e-10 -4.70266e-10 5.2352e-10 )  
( 9.9044e-10 -3.25715e-10 9.31114e-10 )  
( 1.55829e-09 -2.99463e-10 7.75182e-10 )  
( 1.32384e-09 1.36372e-10 1.2228e-09 )  
( 1.54426e-09 -4.89021e-10 9.23961e-10 )  
( 7.15202e-09 -2.37244e-10 7.41763e-10 )  
( 2.50938e-09 4.6442e-10 1.4715e-09 )  
( 5.53594e-10 -2.0715e-10 6.27162e-10 )  
( 1.60375e-09 -1.71755e-10 1.21269e-09 )  
( 3.66684e-09 -7.54658e-10 1.72934e-09 )  
( 3.71753e-09 -4.59359e-10 1.6664e-09 )  
( 1.43682e-09 -2.7801e-10 8.53435e-10 )  
( 2.12245e-09 -3.83912e-10 1.01132e-09 )  
( 3.48051e-09 -4.1008e-10 7.27943e-10 )  
( 1.48015e-10 -8.17378e-11 3.13937e-10 )  
( 2.68181e-09 -2.17049e-10 2.05685e-09 )  
( 4.9067e-11 1.48004e-10 2.76142e-11 )  
( -1.10807e-11 -6.98245e-11 2.06672e-10 )  
( 1.42982e-10 -2.78776e-10 1.33472e-10 )  
( 1.81118e-09 -5.48786e-10 7.4096e-10 )  
( 2.70555e-09 -7.84357e-10 1.35045e-09 )  
( 1.90311e-10 -1.66112e-10 1.90345e-10 )  
( 3.11387e-10 -1.48e-11 3.97583e-10 )  
( 2.6275e-10 -1.69036e-10 2.23844e-10 )  
( 2.30056e-09 -5.46881e-10 1.22868e-09 )  
( 3.02487e-10 -8.79828e-11 6.29927e-10 )  
( 5.25834e-09 -9.43946e-10 1.73687e-09 )  
( 2.13246e-09 -8.03326e-10 1.57067e-09 )  
( 4.6431e-10 -1.95106e-10 4.75842e-10 )  
( -1.20997e-11 1.92801e-10 8.2231e-11 )  
( 8.98334e-10 -4.66333e-10 8.2505e-10 )  
( 3.02974e-09 -7.53571e-10 1.03831e-09 )  
( 1.24623e-09 -3.61085e-10 3.86852e-10 )  
( 4.58102e-09 -1.0613e-10 9.10108e-10 )  
( 7.59127e-10 -3.52493e-10 2.06657e-10 )  
( 2.38839e-09 -2.71679e-10 1.09431e-09 )  
( 1.09346e-09 -1.21501e-10 1.04387e-09 )  
( 1.47203e-10 -1.03452e-10 4.91625e-10 )  
( 1.5767e-10 -1.3293e-10 4.14138e-10 )  
( 9.09932e-10 -4.50498e-10 1.03286e-09 )  
( 7.07138e-10 -5.69994e-10 7.48867e-10 )  
( 7.57719e-10 -3.4075e-10 7.48954e-10 )  
( 7.43749e-10 -3.56681e-10 1.35709e-09 )  
( 5.57872e-10 -3.90846e-10 4.07392e-10 )  
( 7.00434e-10 -1.19246e-10 4.2687e-10 )  
( 3.4587e-09 -3.778e-10 1.24257e-09 )  
( 6.27894e-09 -8.86437e-10 7.33538e-10 )  
( 2.02201e-09 -1.02625e-10 1.09596e-09 )  
( 1.28908e-09 -5.61998e-10 1.15493e-09 )  
( 5.3676e-10 -3.52962e-10 5.29933e-10 )  
( 2.81696e-11 -4.14652e-10 2.65292e-10 )  
( 6.30904e-11 3.52992e-11 5.45483e-10 )  
( 4.9077e-09 -6.41641e-10 1.70527e-09 )  
( 6.89109e-10 -2.11226e-10 3.38325e-10 )  
( 3.50225e-09 -7.03518e-10 2.00057e-09 )  
( 1.66492e-09 -5.31947e-10 1.94224e-09 )  
( 1.42459e-09 -5.09932e-10 1.3172e-09 )  
( 1.57821e-09 -1.85897e-10 7.47895e-10 )  
( 5.14062e-09 2.55212e-10 1.33719e-09 )  
( 9.25502e-10 -1.58869e-10 4.70264e-10 )  
( 2.21445e-09 -5.51978e-10 6.29733e-10 )  
( 1.29076e-10 2.90584e-11 1.37934e-10 )  
( 6.70097e-10 -3.30939e-10 1.00813e-09 )  
( -1.82711e-12 -1.66431e-11 7.87287e-11 )  
( 2.0976e-09 -1.51369e-09 1.96681e-09 )  
( 1.10279e-09 -6.44705e-10 1.07795e-09 )  
( 1.34584e-09 -2.10008e-10 7.34167e-10 )  
( 1.37412e-10 1.421e-10 2.89977e-10 )  
( 4.22666e-11 -8.10849e-11 1.73573e-10 )  
( 1.28124e-09 -1.78592e-10 1.02201e-09 )  
( 3.7924e-09 -3.87172e-09 3.08707e-09 )  
( -5.3663e-12 -7.82872e-11 2.78644e-10 )  
( 2.30251e-09 -8.67775e-10 2.01313e-09 )  
( 7.17805e-12 1.87553e-11 1.76977e-10 )  
( 1.86055e-09 -1.24066e-09 9.10607e-10 )  
( 5.40338e-10 -3.0667e-10 1.1922e-09 )  
( 5.2045e-09 -2.45992e-09 3.29676e-09 )  
( 6.65156e-09 -3.14507e-10 2.61588e-09 )  
( 4.27823e-09 -1.37044e-09 1.14594e-09 )  
( -1.47729e-11 -2.10379e-10 -9.96372e-11 )  
( 3.92871e-09 -2.48775e-09 1.73086e-09 )  
( 3.21332e-10 -1.23663e-10 1.24286e-09 )  
( 2.10733e-09 -4.55514e-10 1.91708e-09 )  
( 8.83806e-10 -6.27237e-10 2.6568e-10 )  
( 2.19386e-09 -7.66182e-10 1.89211e-09 )  
( 8.07287e-09 -1.94232e-09 3.28336e-09 )  
( -5.42478e-10 -7.77883e-11 3.44905e-10 )  
( 2.13887e-10 -2.83049e-10 1.28912e-09 )  
( 2.33757e-09 -2.52698e-10 8.74445e-10 )  
( 9.24816e-10 -6.61959e-10 6.37909e-10 )  
( 2.49933e-09 -1.41093e-10 1.60032e-09 )  
( 2.32096e-09 -1.34282e-09 1.44909e-09 )  
( 1.25178e-09 -6.59979e-10 6.32717e-10 )  
( 4.32047e-10 -2.53562e-10 9.72051e-10 )  
( 4.32081e-10 -1.05165e-10 5.6703e-10 )  
( 3.29532e-09 -5.71399e-10 2.04407e-09 )  
( 2.58046e-09 -3.60008e-10 1.01971e-09 )  
( 1.92649e-09 -1.26133e-09 1.61122e-09 )  
( 7.85625e-10 1.41089e-10 1.53985e-09 )  
( 2.21659e-10 5.13706e-11 8.07615e-10 )  
( 2.85592e-09 -3.51642e-10 2.00035e-09 )  
( 1.97978e-09 -5.59354e-10 1.73053e-09 )  
( 7.17095e-10 -4.17976e-10 1.23188e-09 )  
( 7.02811e-10 -4.15594e-10 8.82419e-10 )  
( -2.30109e-11 -1.5448e-10 3.46282e-10 )  
( -2.26429e-11 1.85069e-11 2.30396e-11 )  
( 6.4358e-10 -4.699e-10 7.55482e-10 )  
( 2.39453e-09 -1.78437e-09 1.41037e-09 )  
( 6.27008e-10 1.55575e-10 6.29651e-10 )  
( 3.51757e-09 -2.52579e-09 1.89449e-09 )  
( 2.65531e-09 -2.20577e-09 2.11112e-09 )  
( 2.72452e-09 -8.67007e-10 2.42682e-09 )  
( 8.0184e-10 8.59445e-11 1.08574e-09 )  
( 8.8252e-10 -1.0507e-09 1.51783e-09 )  
( 9.7939e-10 3.95419e-11 1.19448e-09 )  
( 6.35731e-10 -1.46197e-10 1.3017e-09 )  
( 1.51354e-09 -1.74507e-09 1.26418e-09 )  
( 3.13469e-09 -3.90718e-09 2.78674e-09 )  
( 2.97997e-10 -2.28105e-11 3.36907e-10 )  
( 1.8322e-09 -1.94368e-09 1.25466e-09 )  
( 6.84669e-10 -2.15069e-10 1.10186e-09 )  
( 7.3531e-10 -2.29709e-10 8.15414e-10 )  
( 3.25281e-09 -1.96915e-09 1.64054e-09 )  
( 6.30031e-10 1.15049e-10 8.28637e-10 )  
( 1.20755e-10 -1.00988e-10 7.33871e-10 )  
( 1.34121e-09 -2.45372e-10 1.24787e-09 )  
( 3.18478e-10 -1.72953e-10 1.55456e-09 )  
( 9.37199e-10 -1.30045e-09 1.57523e-09 )  
( 1.62387e-09 -4.7121e-10 1.85648e-09 )  
( 2.46029e-09 -1.64387e-09 8.73107e-10 )  
( 3.59251e-09 -1.79679e-09 2.61175e-09 )  
( 1.40415e-10 -1.68207e-10 4.31897e-10 )  
( 6.34333e-09 -6.79466e-09 3.73402e-09 )  
( 1.49217e-09 -3.38985e-11 1.19525e-09 )  
( 4.64654e-09 -4.65592e-09 2.4556e-09 )  
( 5.88702e-10 2.81405e-10 4.48243e-10 )  
( 4.32755e-09 -4.2425e-09 2.17039e-09 )  
( -4.28558e-10 -1.60775e-10 3.69765e-10 )  
( 7.70803e-10 -1.84798e-09 4.40947e-10 )  
( 9.81446e-10 -4.3355e-10 1.45942e-09 )  
( 8.17579e-10 -2.78176e-10 1.13342e-09 )  
( 1.30314e-09 -8.00384e-10 1.93327e-09 )  
( 7.26061e-10 -6.24198e-11 7.50444e-10 )  
( 2.05636e-09 -1.42094e-09 1.41677e-09 )  
( 1.31818e-09 -6.8339e-10 1.64553e-09 )  
( 2.26795e-09 -2.67655e-09 1.82383e-09 )  
( 1.88862e-09 -8.12332e-11 1.51035e-09 )  
( 1.32577e-09 -5.99216e-10 -1.41819e-10 )  
( 2.49159e-10 -1.54343e-10 1.24801e-09 )  
( 2.97618e-09 -3.80776e-09 2.83293e-09 )  
( 3.82871e-09 -4.06124e-09 1.83375e-09 )  
( 1.07043e-09 -3.49344e-09 5.98552e-10 )  
( 6.75609e-11 1.20379e-10 4.40854e-10 )  
( 7.10872e-11 3.25127e-10 3.19527e-10 )  
( 8.2323e-10 -8.35567e-11 9.90353e-10 )  
( 4.55691e-09 -4.47254e-09 2.584e-09 )  
( 5.41857e-10 -2.22816e-10 6.26711e-10 )  
( 1.06973e-09 -3.63937e-10 1.31314e-09 )  
( 8.66684e-10 -3.01531e-10 1.48571e-09 )  
( 1.53879e-09 -1.73901e-09 1.38287e-09 )  
( 1.46656e-09 -1.22939e-10 1.77528e-09 )  
( 3.48626e-09 -3.59072e-09 2.95832e-09 )  
( 6.87607e-10 8.36526e-11 1.53202e-09 )  
( 2.56267e-09 -1.71498e-09 2.29554e-09 )  
( 6.49201e-09 -4.69277e-09 5.02779e-09 )  
)
