/*--------------------------------*- C++ -*----------------------------------*\
  =========                 |
  \\      /  F ield         | OpenFOAM: The Open Source CFD Toolbox
   \\    /   O peration     | Website:  https://openfoam.org
    \\  /    A nd           | Version:  4.x
     \\/     M anipulation  |
\*---------------------------------------------------------------------------*/
FoamFile
{
    version     2.0;
    format      ascii;
    class       vectorField;
    location    0;
    object      v;
}
// * * * * * * * * * * * * * * * * * * * * * * * * * * * * * * * * * * * * * //

356
(
( 3.49844e-09 9.70648e-10 1.12728e-09 )  
( 9.15402e-10 -3.95258e-11 2.0208e-10 )  
( -9.72597e-09 5.4172e-09 1.62985e-08 )  
( 1.4681e-09 1.08863e-09 6.84885e-10 )  
( -1.09008e-09 -8.0761e-10 8.59619e-10 )  
( 1.00491e-09 7.0219e-10 2.36445e-09 )  
( 1.00445e-09 -8.87793e-11 1.60106e-09 )  
( 2.33109e-10 2.25595e-10 5.94513e-11 )  
( 1.12817e-09 4.20795e-10 1.32736e-09 )  
( 7.94931e-10 4.31339e-10 5.3383e-10 )  
( 1.44548e-10 2.21502e-10 2.5153e-10 )  
( -1.14395e-09 3.58296e-10 -3.12626e-09 )  
( -2.61796e-10 6.8564e-10 2.02413e-09 )  
( 4.66846e-10 1.42285e-10 3.25295e-09 )  
( 1.80732e-09 4.5812e-10 3.50858e-10 )  
( -9.64606e-10 -5.45955e-11 1.37258e-09 )  
( -1.94735e-10 2.8932e-11 1.62011e-09 )  
( 2.38653e-09 -9.51462e-10 1.52029e-09 )  
( 1.81496e-09 -6.64564e-10 1.20052e-10 )  
( 3.14615e-09 -1.57802e-09 5.35214e-09 )  
( 2.75372e-09 -1.95185e-09 4.02345e-09 )  
( -6.50442e-09 2.13965e-09 1.03801e-08 )  
( 1.2868e-09 1.83351e-10 4.34392e-10 )  
( 8.46597e-10 -4.50936e-10 -8.84283e-11 )  
( 7.41962e-10 -4.73912e-11 2.4559e-09 )  
( 1.39468e-09 -9.73247e-11 1.15008e-10 )  
( 1.44465e-09 5.6316e-10 5.38995e-10 )  
( -1.71568e-11 -4.82928e-10 3.16761e-09 )  
( 4.37797e-10 6.33203e-10 4.2199e-10 )  
( 3.8579e-09 5.2841e-10 2.62412e-09 )  
( -1.00555e-09 -8.78709e-10 2.23535e-09 )  
( 1.31425e-09 -6.46122e-10 -2.12146e-11 )  
( -4.13405e-09 4.61798e-09 9.85277e-09 )  
( 3.57848e-10 4.6455e-10 5.57638e-10 )  
( 4.67437e-10 -2.39121e-10 -7.28509e-11 )  
( 4.96109e-10 2.60762e-10 1.10128e-09 )  
( 1.58127e-09 -6.22842e-10 4.0701e-10 )  
( 2.53017e-10 9.08031e-10 2.12825e-09 )  
( 1.45522e-09 -1.66258e-10 -9.3261e-10 )  
( 2.00048e-09 2.13916e-10 1.24676e-09 )  
( 9.81303e-10 -3.78624e-12 -3.00825e-10 )  
( 1.28446e-09 -9.70168e-10 -2.86921e-10 )  
( 5.86711e-10 -4.28069e-10 2.77238e-10 )  
( 4.05591e-09 -2.92706e-09 4.86626e-09 )  
( 1.81207e-09 -4.53175e-10 7.4084e-10 )  
( 5.12968e-10 -1.01189e-10 -6.89363e-10 )  
( -4.2324e-09 -2.44238e-09 5.7302e-09 )  
( 7.39096e-10 8.96912e-10 1.24188e-09 )  
( -7.34232e-11 -1.77437e-10 6.23654e-10 )  
( 3.79491e-09 -1.27416e-09 -3.52234e-09 )  
( 1.93334e-09 -2.25895e-10 2.0704e-10 )  
( 1.12963e-10 -3.86779e-11 -7.19416e-10 )  
( -6.49668e-11 1.68777e-10 1.13118e-09 )  
( 1.27867e-09 -3.7698e-10 3.37099e-10 )  
( 2.59417e-09 -1.68254e-10 1.4263e-10 )  
( 1.16437e-09 -3.56185e-10 1.73087e-10 )  
( 3.66227e-09 -1.04217e-09 -5.56593e-10 )  
( 1.10292e-09 -1.07734e-10 7.32388e-10 )  
( 6.27251e-10 4.49136e-10 5.44202e-10 )  
( 1.09446e-09 2.57781e-10 3.93975e-10 )  
( 4.70311e-10 3.63938e-10 5.20013e-10 )  
( -7.47742e-10 -1.1358e-10 -8.50615e-11 )  
( 2.06041e-10 6.17048e-10 3.44559e-10 )  
( 2.49372e-09 -7.26629e-10 -7.08695e-10 )  
( 8.72668e-10 -2.04675e-10 -8.20073e-10 )  
( 1.27635e-10 2.28202e-10 2.58777e-10 )  
( -1.67068e-09 7.51111e-09 8.16511e-09 )  
( 3.79643e-10 -3.55236e-10 9.21752e-11 )  
( -9.4627e-11 -2.23554e-10 8.59102e-10 )  
( 1.17474e-09 2.60323e-10 -5.29351e-10 )  
( 9.51641e-10 -8.43707e-12 7.74675e-10 )  
( 1.93871e-09 -4.63527e-10 1.58535e-09 )  
( 1.32285e-09 -3.9697e-10 4.62103e-10 )  
( -9.15336e-10 -1.5605e-10 1.41328e-09 )  
( 3.81692e-10 5.09966e-10 9.08786e-10 )  
( 1.66422e-09 1.41569e-09 1.44929e-09 )  
( 2.22836e-10 3.52612e-10 1.31524e-09 )  
( 2.25086e-09 4.53402e-10 6.65076e-10 )  
( 1.32806e-09 -3.75783e-10 6.12151e-10 )  
( 1.31764e-09 -5.94546e-10 1.97094e-10 )  
( 8.57611e-10 4.88194e-11 -3.40377e-10 )  
( 7.37588e-10 8.49915e-10 4.47839e-10 )  
( 5.79294e-10 1.11495e-10 4.61813e-10 )  
( 9.61551e-10 2.95323e-11 2.84222e-10 )  
( 3.19112e-10 5.79281e-10 2.51705e-10 )  
( 1.7403e-09 2.31278e-10 1.01814e-09 )  
( 1.17313e-09 8.03137e-10 4.91142e-10 )  
( 7.13149e-10 -3.6535e-11 9.43516e-10 )  
( 1.11993e-10 2.17641e-10 6.01529e-10 )  
( 8.48085e-11 1.54631e-10 7.90474e-10 )  
( 2.21711e-10 3.79724e-10 1.89229e-09 )  
( 1.36332e-09 -1.20815e-09 -8.76501e-10 )  
( -9.72714e-10 2.25513e-10 9.45269e-10 )  
( 1.65715e-09 -1.52961e-09 5.03875e-09 )  
( 1.40154e-09 -4.02594e-10 -7.98556e-10 )  
( 1.52966e-09 5.57273e-10 3.07758e-10 )  
( 4.07231e-11 6.13945e-10 6.35683e-10 )  
( 1.23848e-09 -1.28612e-10 2.18548e-10 )  
( -2.60592e-09 -7.68707e-10 5.01945e-09 )  
( -1.11694e-10 -8.02511e-11 9.84439e-10 )  
( -1.83981e-09 2.98042e-09 5.03434e-09 )  
( 2.42796e-09 -1.2004e-09 3.12532e-09 )  
( 6.49212e-10 1.8279e-10 1.15003e-09 )  
( 1.70385e-09 2.90213e-10 -8.46546e-10 )  
( -1.15096e-08 -4.33057e-09 9.49586e-09 )  
( 3.23848e-10 3.93129e-10 9.76973e-10 )  
( 1.25074e-09 -5.37831e-11 3.12185e-10 )  
( -1.42649e-10 9.93209e-10 1.10848e-09 )  
( 1.19294e-09 -1.2533e-09 -1.03556e-09 )  
( -2.79236e-10 3.64386e-11 1.52967e-09 )  
( -4.38311e-10 -1.96663e-10 7.3104e-10 )  
( -2.55028e-10 1.24423e-10 1.04729e-10 )  
( 7.16956e-10 1.5096e-10 9.04953e-10 )  
( -4.18083e-10 7.52157e-10 9.32432e-10 )  
( 1.48111e-09 6.34342e-11 6.35828e-10 )  
( 1.53166e-09 -3.22895e-09 6.49062e-09 )  
( 1.18411e-09 -7.93758e-10 -1.96058e-09 )  
( 7.10664e-11 5.73781e-11 1.38335e-09 )  
( -7.4651e-10 4.2743e-09 7.65512e-09 )  
( 1.31562e-10 -1.92854e-10 5.06976e-10 )  
( 1.91507e-09 3.30871e-10 3.03913e-09 )  
( -5.7705e-10 9.51486e-10 -6.64651e-11 )  
( -1.15792e-10 -3.67916e-10 -1.58054e-09 )  
( 8.89064e-10 3.55482e-12 6.18977e-10 )  
( 9.45752e-10 9.63852e-10 1.00834e-09 )  
( 1.0566e-10 3.60199e-10 1.99197e-10 )  
( 1.59827e-10 -4.28654e-10 3.63392e-10 )  
( 1.87195e-09 -4.80723e-10 2.9289e-10 )  
( 1.20595e-09 -1.59466e-10 1.85578e-10 )  
( 2.26991e-09 -7.41768e-10 -3.96648e-10 )  
( -4.19313e-10 6.4079e-10 2.45502e-09 )  
( 4.61166e-10 1.41472e-10 9.25509e-10 )  
( 1.96334e-09 -1.47985e-09 -3.9986e-10 )  
( 9.22607e-11 3.85581e-10 4.37638e-10 )  
( 9.09963e-10 4.12395e-11 -5.34582e-10 )  
( 3.96635e-10 1.1044e-09 1.02687e-09 )  
( 2.59211e-09 6.43783e-10 2.97109e-09 )  
( 9.49252e-10 3.08878e-10 3.27121e-10 )  
( 1.73104e-09 3.82297e-10 2.13457e-09 )  
( 8.73267e-10 -1.77886e-10 -2.12494e-10 )  
( 1.24099e-10 2.95435e-10 3.50864e-10 )  
( 1.07503e-09 -4.39379e-10 5.76356e-10 )  
( -3.89569e-10 3.26754e-10 1.12907e-09 )  
( -1.69327e-10 1.82304e-09 2.6074e-09 )  
( 1.68236e-10 3.89785e-10 2.20378e-10 )  
( 6.99988e-10 2.05756e-10 2.95297e-10 )  
( 1.16282e-09 1.73779e-10 2.18506e-10 )  
( 1.96341e-09 3.26428e-10 5.26455e-10 )  
( -5.22197e-12 1.96089e-10 6.9834e-10 )  
( 6.89432e-10 6.19087e-11 5.50209e-10 )  
( 5.08888e-10 1.40931e-10 4.44626e-10 )  
( -1.00458e-09 2.40531e-09 3.97324e-09 )  
( 7.6863e-10 2.16257e-10 6.36396e-11 )  
( 2.31595e-10 1.584e-10 3.33907e-10 )  
( 7.71098e-10 1.11623e-09 2.5686e-09 )  
( 2.30375e-09 2.56335e-10 1.0319e-09 )  
( 1.03161e-10 2.61126e-10 1.10764e-09 )  
( 6.88928e-10 5.18175e-11 3.9215e-10 )  
( 2.6387e-10 3.67053e-10 4.28069e-10 )  
( 1.97804e-09 2.89296e-10 1.08273e-09 )  
( 1.27524e-09 1.85683e-10 4.10748e-10 )  
( 1.49272e-09 -3.0884e-11 5.77431e-10 )  
( 5.68077e-10 1.26093e-10 5.21009e-10 )  
( 1.19128e-09 2.7847e-10 3.516e-10 )  
( 1.15231e-09 7.76407e-11 7.77983e-10 )  
( -1.76784e-09 1.01356e-09 2.78225e-09 )  
( 8.07997e-10 1.21508e-10 2.29169e-10 )  
( -1.56033e-10 7.71222e-10 1.79473e-09 )  
( -1.21197e-10 6.6199e-10 1.97427e-09 )  
( 2.09074e-09 1.85996e-10 7.70279e-10 )  
( 2.30093e-10 6.84395e-11 3.69792e-10 )  
( 3.40821e-11 1.73156e-10 3.07171e-10 )  
( 3.60048e-10 3.74667e-10 9.85299e-10 )  
( -1.37275e-09 8.38895e-10 4.37719e-09 )  
( 4.44124e-10 1.17607e-10 5.94446e-10 )  
( 9.7636e-10 1.40071e-09 3.10583e-09 )  
( 1.72705e-09 6.63373e-10 1.12923e-09 )  
( 4.23612e-10 2.62579e-10 4.06155e-10 )  
( -6.24339e-10 -2.29084e-10 2.37328e-09 )  
( 8.39766e-10 1.42975e-10 3.29349e-10 )  
( 9.3227e-10 7.38865e-10 9.27093e-10 )  
( 3.0759e-10 1.68213e-10 7.20162e-10 )  
( -2.20507e-10 1.44205e-09 2.83884e-09 )  
( 1.25989e-09 2.61667e-10 2.55616e-10 )  
( 2.32721e-09 6.64237e-10 1.19784e-09 )  
( 9.46226e-10 -6.05042e-13 2.75705e-10 )  
( 6.87528e-10 2.4365e-10 4.85625e-10 )  
( 7.18333e-10 2.15973e-10 3.9902e-10 )  
( -9.0747e-10 -1.94192e-09 7.92032e-09 )  
( 7.76738e-10 1.94957e-10 7.55865e-10 )  
( 7.94632e-10 3.79188e-11 6.91005e-10 )  
( 1.01029e-09 1.36074e-09 3.01204e-09 )  
( 5.76709e-10 8.21951e-11 3.06569e-10 )  
( 1.66977e-09 1.16422e-09 1.19803e-09 )  
( 1.2373e-09 4.94812e-10 3.66809e-10 )  
( -8.3982e-10 -5.37806e-10 2.938e-09 )  
( -4.35786e-10 3.83457e-10 9.0423e-10 )  
( 4.17456e-10 6.0751e-11 1.04557e-10 )  
( 1.05717e-09 -4.88548e-11 4.70471e-10 )  
( 1.18391e-10 1.08864e-11 2.26698e-10 )  
( 4.56132e-10 2.7157e-12 -1.16538e-10 )  
( 4.77661e-10 1.7402e-10 7.4067e-10 )  
( 1.2107e-10 1.307e-10 5.10481e-10 )  
( 9.85191e-11 1.18865e-10 3.76102e-10 )  
( -2.20391e-10 5.20737e-10 1.19872e-09 )  
( 5.01224e-10 8.10545e-10 1.18674e-09 )  
( -8.5333e-10 2.07404e-09 3.84257e-09 )  
( 1.2687e-09 2.92625e-10 4.65834e-10 )  
( 1.07006e-10 7.95203e-11 3.84859e-10 )  
( 2.24682e-09 5.19324e-10 8.22373e-10 )  
( 3.72116e-10 -1.77869e-11 -5.03627e-11 )  
( 1.0288e-09 1.55733e-13 2.38655e-10 )  
( 2.82593e-10 4.59922e-11 3.8281e-10 )  
( 7.37011e-10 1.51897e-10 5.05077e-10 )  
( 5.12416e-10 1.52391e-10 5.23868e-10 )  
( 1.10262e-10 1.29701e-10 3.13111e-10 )  
( -1.31227e-09 3.34048e-09 3.61993e-09 )  
( 9.09588e-10 2.87528e-10 3.90607e-10 )  
( 1.53347e-10 5.62258e-10 1.0729e-09 )  
( 7.07212e-10 1.12637e-09 2.20111e-09 )  
( -1.35613e-10 1.55102e-10 4.22454e-10 )  
( 7.62343e-10 2.74289e-10 2.09868e-10 )  
( 5.64058e-10 9.99633e-11 4.37747e-10 )  
( -2.14088e-10 1.33639e-10 4.88057e-10 )  
( 1.29266e-09 -1.83524e-11 8.70822e-10 )  
( 5.93363e-10 -6.44809e-11 4.87948e-10 )  
( 1.08167e-09 -4.74212e-10 5.86036e-10 )  
( 5.89416e-10 -5.19672e-12 4.09579e-10 )  
( 1.63922e-11 1.06859e-10 2.40484e-10 )  
( 9.36411e-10 1.91225e-10 4.50202e-10 )  
( 1.53352e-09 -5.71434e-10 5.75187e-10 )  
( 1.04806e-09 -2.74588e-10 6.00334e-10 )  
( 4.30437e-10 7.4046e-11 3.91442e-10 )  
( 8.26609e-10 -4.09478e-10 5.76393e-10 )  
( 7.1881e-10 2.95048e-10 1.80247e-10 )  
( 1.33386e-09 -3.16345e-10 3.15973e-10 )  
( 2.30527e-09 6.46894e-10 1.21258e-09 )  
( 5.09038e-11 1.09984e-10 2.47011e-10 )  
( 9.74e-10 -2.79432e-10 4.21106e-10 )  
( 6.32586e-10 -4.57146e-11 5.09924e-10 )  
( 2.31014e-09 9.0299e-10 1.47053e-09 )  
( 7.75646e-10 -8.73871e-11 3.44318e-10 )  
( 2.45433e-09 6.5762e-11 2.61345e-10 )  
( 2.16244e-09 1.14397e-10 7.63503e-10 )  
( 1.8121e-09 2.44191e-11 9.12817e-10 )  
( 1.56496e-09 6.36665e-11 6.84212e-10 )  
( 2.70477e-09 2.72455e-10 1.24829e-09 )  
( 5.38817e-10 1.53444e-11 3.56836e-10 )  
( -1.90285e-10 -5.64083e-10 -2.42454e-10 )  
( 7.02949e-10 3.8888e-11 4.22472e-10 )  
( 2.31957e-11 1.74616e-10 6.21209e-10 )  
( 7.18031e-10 2.8946e-10 8.5259e-10 )  
( 8.0843e-10 1.29389e-10 4.28521e-10 )  
( 9.4004e-10 -6.67261e-11 3.07355e-10 )  
( 1.31033e-10 3.28761e-10 1.58096e-10 )  
( 2.88783e-09 6.3628e-10 1.88975e-09 )  
( 1.57542e-09 -6.37878e-10 4.90662e-10 )  
( -5.47466e-10 -1.44469e-10 8.56907e-12 )  
( 6.78732e-10 3.94246e-10 2.61881e-10 )  
( 3.52683e-10 -1.66385e-11 -4.81469e-10 )  
( 2.51984e-10 3.00506e-10 3.66907e-10 )  
( 2.09904e-09 -9.27528e-12 1.97484e-10 )  
( 7.60401e-10 6.65193e-11 3.63227e-10 )  
( 9.61515e-10 -3.49139e-10 6.7441e-10 )  
( 4.36358e-10 5.12221e-10 2.99784e-10 )  
( 6.19548e-10 1.01397e-10 6.96286e-10 )  
( -3.12856e-09 1.73149e-09 1.21172e-08 )  
( 6.7379e-10 -1.47508e-10 4.2851e-10 )  
( 3.15957e-09 -3.79114e-10 -3.61899e-09 )  
( 1.75073e-09 4.07144e-10 7.34036e-10 )  
( 1.50679e-09 3.39978e-10 1.0504e-09 )  
( -3.55962e-10 4.26202e-10 3.7636e-09 )  
( 2.5279e-09 1.20943e-09 9.71187e-10 )  
( 5.85916e-10 2.43459e-09 4.68699e-09 )  
( 1.03896e-09 -3.60029e-10 6.57881e-10 )  
( 1.17951e-09 3.89359e-11 3.6707e-10 )  
( 8.45531e-10 1.01043e-10 8.80047e-10 )  
( -1.92708e-09 -1.35311e-09 3.12222e-09 )  
( 1.56241e-09 1.059e-09 1.59333e-09 )  
( 3.15322e-10 1.10084e-10 4.27827e-10 )  
( 6.93441e-10 -6.66708e-11 6.50202e-10 )  
( 1.09315e-10 8.56193e-11 5.48213e-10 )  
( -3.273e-10 -6.94442e-11 1.15128e-09 )  
( 9.25304e-10 -4.19286e-10 7.58545e-10 )  
( 1.04174e-09 1.14459e-10 3.44964e-10 )  
( 1.00823e-09 6.43255e-11 3.34916e-10 )  
( 1.36728e-09 2.3005e-10 8.52455e-10 )  
( -5.78367e-10 -3.85521e-10 -5.75765e-11 )  
( 7.87175e-11 6.54919e-11 3.37923e-10 )  
( 9.17775e-10 1.16684e-10 6.39105e-10 )  
( 3.26621e-10 2.90247e-10 5.06213e-10 )  
( 2.74126e-10 -1.03683e-10 7.15336e-10 )  
( 1.32804e-09 -9.18621e-11 8.41572e-10 )  
( 3.45965e-10 -1.65731e-09 9.03098e-09 )  
( 8.27893e-10 3.37857e-11 4.12752e-11 )  
( 9.405e-10 -7.75528e-11 3.31763e-10 )  
( -7.89658e-10 3.49702e-09 5.19181e-09 )  
( 4.43886e-10 2.16546e-10 6.37406e-10 )  
( 1.19215e-10 1.82284e-10 2.43125e-10 )  
( 5.43864e-10 5.83202e-11 8.1422e-11 )  
( 2.14947e-09 9.21166e-10 1.10052e-09 )  
( 5.06632e-10 4.58781e-11 7.25505e-11 )  
( 4.54859e-10 1.96168e-10 5.34159e-10 )  
( -3.84394e-10 -6.85933e-10 1.27252e-10 )  
( 1.43115e-09 -5.34436e-10 9.72731e-10 )  
( 6.36482e-09 -1.92712e-10 -2.40933e-09 )  
( -1.6745e-13 6.16523e-10 2.7491e-10 )  
( 5.01616e-10 2.00862e-09 8.64926e-10 )  
( 5.95301e-09 3.23657e-09 3.11127e-09 )  
( 3.36847e-09 2.78099e-09 8.30272e-10 )  
( -1.73901e-09 8.30485e-10 1.03913e-09 )  
( -1.39205e-09 9.68688e-10 -2.34997e-10 )  
( 7.29407e-09 -5.93323e-09 8.90851e-09 )  
( 3.42298e-09 -3.14213e-09 4.00202e-09 )  
( 2.47528e-09 1.04685e-09 3.176e-10 )  
( -9.77889e-10 6.66467e-10 -2.11914e-11 )  
( -1.02698e-09 6.85919e-10 7.70834e-10 )  
( 3.26587e-09 -2.40664e-09 -9.97653e-11 )  
( 1.80424e-09 -7.30746e-10 4.95842e-10 )  
( 3.63615e-09 -6.36857e-10 3.09911e-09 )  
( 1.36254e-09 1.70234e-12 1.28136e-09 )  
( -1.16935e-09 6.21031e-10 8.5754e-10 )  
( 1.6894e-09 -1.22037e-09 4.9482e-10 )  
( 1.19159e-09 1.01628e-09 3.4661e-10 )  
( -2.79107e-09 -5.27267e-10 -6.87352e-10 )  
( 9.80091e-10 1.17453e-09 5.11189e-10 )  
( 1.19904e-09 -1.6795e-09 -6.47889e-11 )  
( 8.68667e-09 5.78047e-09 2.84773e-09 )  
( 6.70695e-10 9.05434e-10 3.91249e-10 )  
( 5.51173e-09 -2.1945e-09 -2.06435e-09 )  
( -1.62925e-09 4.74453e-10 1.86324e-09 )  
( 3.34464e-10 -5.36439e-10 9.09149e-10 )  
( 3.94341e-09 -2.1545e-09 2.61989e-09 )  
( 2.40415e-09 -8.09323e-10 6.3436e-10 )  
( 5.31334e-09 3.56259e-09 6.01723e-10 )  
( -2.19205e-11 1.09848e-09 5.09221e-10 )  
( 1.59114e-09 6.60948e-10 3.74807e-10 )  
( 8.39511e-10 5.36035e-10 2.1687e-10 )  
( 8.93337e-10 2.0819e-10 2.20775e-10 )  
( 4.86746e-09 -9.83946e-11 4.04386e-09 )  
( -1.25198e-09 -7.49812e-10 -7.44157e-10 )  
( 1.21663e-09 -2.26201e-10 5.16652e-10 )  
( 2.92327e-09 -4.48149e-09 3.49941e-09 )  
( -9.81809e-10 4.53985e-10 4.33598e-10 )  
( 3.13471e-09 -2.91693e-09 -3.08012e-10 )  
( 4.49896e-09 -3.55222e-09 4.76335e-09 )  
( 9.52433e-10 -4.00092e-11 2.0728e-10 )  
( -1.42194e-09 1.06909e-09 1.0976e-09 )  
( -2.18001e-09 -3.19442e-11 1.11111e-10 )  
( 9.69421e-10 1.32985e-09 6.07403e-10 )  
( 2.52131e-10 6.68696e-10 1.7811e-10 )  
( 4.05647e-09 1.18071e-10 1.51124e-09 )  
( 7.37722e-10 2.37234e-10 2.15289e-10 )  
( -1.80865e-10 6.55853e-10 3.14052e-10 )  
( 1.74657e-09 -7.09453e-10 3.144e-10 )  
( -6.7337e-10 3.67892e-10 4.38465e-10 )  
)
