/*--------------------------------*- C++ -*----------------------------------*\
| =========                 |                                                 |
| \\      /  F ield         | OpenFOAM: The Open Source CFD Toolbox           |
|  \\    /   O peration     | Version:  4.x                                   |
|   \\  /    A nd           | Web:      www.OpenFOAM.org                      |
|    \\/     M anipulation  |                                                 |
\*---------------------------------------------------------------------------*/
FoamFile
{
    version     2.0;
    format      ascii;
    class       volScalarField;
    location    "22";
    object      QWallFluidCoeff;
}
// * * * * * * * * * * * * * * * * * * * * * * * * * * * * * * * * * * * * * //

dimensions      [1 -1 -3 -1 0 0 0];

internalField   nonuniform List<scalar> 
132
(
-5.567e+06
-3.34962e+06
-6.05416e+06
-4.18126e+06
-6.4873e+06
-4.77895e+06
-6.84332e+06
-5.23894e+06
-7.22259e+06
-2.79244e+06
-1.60538e+06
-2.96523e+06
-1.92676e+06
-3.14096e+06
-2.17772e+06
-3.28697e+06
-2.38396e+06
-3.42961e+06
0
-1.55798e+06
-2.92513e+06
-1.8139e+06
-3.04577e+06
-2.00699e+06
-3.1575e+06
-2.13514e+06
-3.20797e+06
-2.79741e+06
-1.56156e+06
-2.93165e+06
-2.7592e+06
-1.5198e+06
-2.85553e+06
-1.70243e+06
-2.95439e+06
-1.85049e+06
-3.05403e+06
-1.95995e+06
-3.14932e+06
0
0
0
0
0
0
0
0
0
0
0
0
0
0
0
0
0
0
0
0
0
0
0
-2.721e+06
-1.44327e+06
-2.76508e+06
-1.53219e+06
-2.81751e+06
-1.60381e+06
-2.86478e+06
-1.63123e+06
-2.91162e+06
0
0
0
0
0
0
0
0
0
0
0
0
0
0
0
0
0
0
0
0
0
0
0
0
0
-2.70842e+06
-1.47546e+06
-2.7656e+06
-1.58112e+06
-2.82123e+06
-1.64632e+06
-2.87817e+06
-1.70359e+06
-2.93831e+06
0
0
0
0
0
0
0
0
0
0
0
0
0
0
0
0
0
0
0
0
0
0
0
0
0
0
0
)
;

boundaryField
{
    inlet
    {
        type            calculated;
        value           uniform 0;
    }
    outlet
    {
        type            calculated;
        value           nonuniform 0();
    }
    wall
    {
        type            calculated;
        value           uniform 0;
    }
    procBoundary0to1
    {
        type            processor;
        value           uniform 0;
    }
    procBoundary0to2
    {
        type            processor;
        value           uniform 0;
    }
    procBoundary0to4
    {
        type            processor;
        value           uniform 0;
    }
    procBoundary0to6
    {
        type            processor;
        value           uniform 0;
    }
    procBoundary0to7
    {
        type            processor;
        value           uniform 0;
    }
}


// ************************************************************************* //
