/*--------------------------------*- C++ -*----------------------------------*\
| =========                 |                                                 |
| \\      /  F ield         | OpenFOAM: The Open Source CFD Toolbox           |
|  \\    /   O peration     | Version:  4.x                                   |
|   \\  /    A nd           | Web:      www.OpenFOAM.org                      |
|    \\/     M anipulation  |                                                 |
\*---------------------------------------------------------------------------*/
FoamFile
{
    version     2.0;
    format      ascii;
    class       volScalarField;
    location    "28.5";
    object      Ksl;
}
// * * * * * * * * * * * * * * * * * * * * * * * * * * * * * * * * * * * * * //

dimensions      [1 -3 -1 0 0 0 0];

internalField   nonuniform List<scalar> 
87
(
3835.44
2566.75
3802.41
2450.85
3876.97
2216.51
4407.43
1869.3
6974.77
4402.14
2709.48
4336.75
2590.96
4468.17
2367.44
5211.18
2039.4
8702.96
5341.9
2962.81
5503.56
2891.71
6137.22
2771.23
7478.07
2542
7906.43
5798.25
2989.79
5858.18
2897.37
6172.36
2669.54
7023.88
2299.83
8740.7
9275.48
3305.27
9316.6
3154.25
9882.44
2868.04
10069.2
2517.52
8127.81
30805.9
3673.88
112980
3658.84
1e+10
3783.22
492396
4148.92
10879.4
6786.71
3116.23
7393.68
3069.78
8617.47
2927.08
10625.6
2754.74
12276.4
18759.3
3499.64
19145.9
3357.29
18473.2
3176.34
14105.3
2923.96
9918.65
5.75144e+08
3844.68
3.18206e+08
3845.43
299121
3789.53
29042.8
3806.5
7889.21
7255.68
3198.57
8393.14
23454.1
3650.76
1.32376e+06
)
;

boundaryField
{
    inlet
    {
        type            zeroGradient;
    }
    outlet
    {
        type            zeroGradient;
    }
    wall
    {
        type            zeroGradient;
    }
    procBoundary1to0
    {
        type            processor;
        value           nonuniform List<scalar> 
12
(
2626.69
2831.62
3039.79
3087.37
3416.71
3646.73
3184.46
3586.19
3818.76
3244.88
3671
4010.1
)
;
    }
    procBoundary1to3
    {
        type            processor;
        value           nonuniform List<scalar> 
27
(
5075.45
2834.38
4892.59
2699.3
4959.03
2609.62
6224.43
2603.23
17940.9
16850.3
3508.01
27681
3434.3
39988.1
3325.21
39509.2
3080.08
16122.5
9.82371e+09
3944.93
1e+10
3930.47
1e+10
3926.22
96104.9
3989.87
10194.8
)
;
    }
    procBoundary1to5
    {
        type            processor;
        value           nonuniform List<scalar> 
32
(
3307.03
11535.3
3536.56
19588.6
4200.83
14498.6
38399.5
3612.67
71089.7
3590.86
91195.5
3736.75
31768.3
4036.45
1e+10
4060.68
1e+10
4075.27
100521
4303.95
9997.84
7849.05
3146.85
3307.03
38399.5
8331.58
48205.4
38399.5
4036.45
3614.19
4036.45
1e+10
)
;
    }
    procBoundary1to7
    {
        type            processor;
        value           uniform 64863.1;
    }
}


// ************************************************************************* //
