/*--------------------------------*- C++ -*----------------------------------*\
| =========                 |                                                 |
| \\      /  F ield         | OpenFOAM: The Open Source CFD Toolbox           |
|  \\    /   O peration     | Version:  4.x                                   |
|   \\  /    A nd           | Web:      www.OpenFOAM.org                      |
|    \\/     M anipulation  |                                                 |
\*---------------------------------------------------------------------------*/
FoamFile
{
    version     2.0;
    format      ascii;
    class       volScalarField;
    location    "28.5";
    object      KslNext;
}
// * * * * * * * * * * * * * * * * * * * * * * * * * * * * * * * * * * * * * //

dimensions      [1 -3 -1 0 0 0 0];

internalField   nonuniform List<scalar> 
87
(
3835.44
2566.75
3802.41
2450.85
3876.97
2216.51
4407.43
1869.3
6974.77
4402.14
2709.48
4336.75
2590.96
4468.17
2367.44
5211.18
2039.4
8702.96
5341.9
2962.81
5503.56
2891.71
6137.22
2771.23
7478.07
2542
7906.43
5798.25
2989.79
5858.18
2897.37
6172.36
2669.54
7023.88
2299.83
8740.7
9275.48
3305.27
9316.6
3154.25
9882.44
2868.04
10069.2
2517.52
8127.81
30805.9
3673.88
112980
3658.84
1e+10
3783.22
492396
4148.92
10879.4
6786.71
3116.23
7393.68
3069.78
8617.47
2927.08
10625.6
2754.74
12276.4
18759.3
3499.64
19145.9
3357.29
18473.2
3176.34
14105.3
2923.96
9918.65
5.75144e+08
3844.68
3.18206e+08
3845.43
299121
3789.53
29042.8
3806.5
7889.21
7255.68
3198.57
8393.14
23454.1
3650.76
1.32376e+06
)
;

boundaryField
{
    inlet
    {
        type            zeroGradient;
    }
    outlet
    {
        type            zeroGradient;
    }
    wall
    {
        type            zeroGradient;
    }
    procBoundary1to0
    {
        type            processor;
        value           uniform 0;
    }
    procBoundary1to3
    {
        type            processor;
        value           uniform 0;
    }
    procBoundary1to5
    {
        type            processor;
        value           uniform 0;
    }
    procBoundary1to7
    {
        type            processor;
        value           uniform 0;
    }
}


// ************************************************************************* //
