/*--------------------------------*- C++ -*----------------------------------*\
| =========                 |                                                 |
| \\      /  F ield         | OpenFOAM: The Open Source CFD Toolbox           |
|  \\    /   O peration     | Version:  4.x                                   |
|   \\  /    A nd           | Web:      www.OpenFOAM.org                      |
|    \\/     M anipulation  |                                                 |
\*---------------------------------------------------------------------------*/
FoamFile
{
    version     2.0;
    format      ascii;
    class       volVectorField;
    location    "28.5";
    object      Us;
}
// * * * * * * * * * * * * * * * * * * * * * * * * * * * * * * * * * * * * * //

dimensions      [0 1 -1 0 0 0 0];

internalField   nonuniform List<vector> 
87
(
(1.73878e-08 3.0413e-09 1.26873e-08)
(2.4461e-07 1.14636e-06 9.07688e-08)
(2.46603e-09 -8.22434e-09 1.70198e-08)
(1.13595e-09 -4.42523e-09 -1.68183e-09)
(5.70157e-09 4.49098e-10 -4.36557e-09)
(8.70277e-09 -1.44833e-09 -3.89559e-09)
(2.1751e-08 -8.14565e-09 -1.14274e-08)
(8.06766e-07 7.70213e-09 -5.36926e-08)
(4.13605e-07 -2.72835e-08 -7.82907e-08)
(2.17264e-08 -7.16643e-09 -1.63278e-09)
(3.08092e-08 -1.82622e-08 1.24891e-08)
(5.10072e-09 -1.5664e-08 -1.25564e-09)
(1.00742e-08 -5.61382e-09 -7.9892e-09)
(1.40266e-08 -8.37227e-09 -8.85302e-09)
(2.19975e-08 1.85842e-09 -1.50547e-08)
(2.62001e-08 -1.1156e-08 -2.27337e-08)
(1.50866e-08 -1.95572e-08 -1.90589e-08)
(-6.44072e-09 -4.49236e-08 -3.60656e-08)
(3.46375e-08 -4.61832e-09 -1.46505e-08)
(4.30305e-08 -1.4335e-08 -1.36688e-08)
(7.06616e-08 -3.83052e-08 -9.73916e-09)
(2.40323e-08 -7.28186e-09 -8.9608e-09)
(2.57086e-08 -2.38283e-09 -1.45837e-08)
(4.15013e-08 2.36866e-09 -1.21485e-08)
(4.86424e-08 -4.17779e-09 -2.59682e-08)
(4.84123e-08 -7.5793e-09 -2.61431e-08)
(3.00715e-08 -2.28093e-09 -2.40435e-08)
(6.0568e-09 2.23644e-09 7.2361e-09)
(1.24826e-08 1.77158e-09 3.57819e-08)
(1.25492e-08 -2.2858e-09 1.06918e-08)
(6.97186e-09 -3.85329e-09 -1.53032e-09)
(1.17096e-08 -1.52695e-09 -3.14975e-09)
(8.49417e-09 8.39523e-10 -4.92386e-09)
(1.34604e-08 -2.57333e-09 -8.95672e-09)
(1.26659e-08 -5.20577e-09 -1.51924e-08)
(2.07264e-09 -9.68454e-09 -2.55061e-08)
(1.41136e-08 1.54459e-09 -1.46994e-09)
(2.01051e-08 -3.84111e-09 8.55069e-09)
(2.09123e-08 -7.74215e-10 1.14826e-09)
(1.45511e-08 -4.20564e-09 -6.29325e-09)
(2.04435e-08 -3.63999e-09 -1.22743e-08)
(2.03435e-08 -6.00912e-10 -1.83076e-08)
(2.26996e-08 -4.67795e-09 -1.9316e-08)
(1.80138e-08 -6.44606e-09 -1.76732e-08)
(1.28782e-08 -8.05213e-09 -2.51935e-08)
(2.84761e-08 1.33858e-09 -1.633e-08)
(3.47643e-08 -5.69896e-10 -1.24023e-08)
(3.21178e-08 -3.32852e-09 -9.0718e-09)
(2.44486e-08 -5.23621e-09 -7.5105e-09)
(2.87773e-08 -4.74582e-09 -1.43153e-08)
(3.24909e-08 -4.97563e-09 -1.74917e-08)
(3.55166e-08 -5.67857e-09 -2.42539e-08)
(2.9253e-08 -6.17304e-09 -1.81792e-08)
(7.53605e-09 -3.80245e-09 -1.9331e-08)
(6.45634e-09 2.00082e-09 -6.98503e-09)
(1.24706e-08 1.60932e-09 -4.86767e-10)
(1.09874e-08 5.27958e-11 -2.22131e-09)
(8.95581e-09 -9.31047e-10 -4.11063e-09)
(8.75358e-09 -2.06375e-09 -5.68879e-09)
(8.91576e-09 -1.42017e-09 -6.49464e-09)
(8.01872e-09 3.49469e-10 -6.38108e-09)
(6.52218e-09 -1.15062e-09 -4.0495e-09)
(1.85043e-09 -1.30269e-10 -9.17589e-09)
(1.06512e-08 5.61781e-09 -1.07636e-08)
(1.85137e-08 2.41573e-09 -5.76279e-09)
(2.06066e-08 -2.41825e-10 -4.38341e-09)
(1.66301e-08 -1.4495e-09 -6.16962e-09)
(1.662e-08 -3.7456e-09 -8.93689e-09)
(1.55293e-08 -6.11795e-11 -1.09122e-08)
(1.40778e-08 -9.77233e-10 -1.19564e-08)
(1.18469e-08 -4.70821e-09 -1.00246e-08)
(1.02728e-09 -3.74191e-10 -5.55744e-09)
(1.56978e-08 7.5278e-09 -1.728e-08)
(2.47185e-08 6.92553e-09 -9.72387e-09)
(2.49014e-08 2.06611e-09 -8.44075e-09)
(2.37191e-08 1.6233e-10 -8.59608e-09)
(2.61776e-08 -9.26727e-10 -1.06967e-08)
(2.32761e-08 -3.04031e-09 -1.31268e-08)
(1.70837e-08 -2.28418e-09 -1.43226e-08)
(1.19217e-08 -3.98546e-09 -9.39099e-09)
(2.84682e-09 -1.08293e-09 -6.49486e-09)
(4.63377e-09 2.85282e-09 -6.56603e-09)
(4.70261e-09 1.89839e-09 -3.75487e-09)
(5.53766e-09 1.74553e-09 -4.9868e-09)
(7.32048e-09 2.91792e-09 -1.03287e-08)
(1.04824e-08 5.93449e-09 -6.81795e-09)
(4.56331e-09 2.14952e-09 -1.19703e-08)
)
;

boundaryField
{
    inlet
    {
        type            zeroGradient;
    }
    outlet
    {
        type            zeroGradient;
    }
    wall
    {
        type            zeroGradient;
    }
    procBoundary1to0
    {
        type            processor;
        value           nonuniform List<vector> 
12
(
(1.43868e-09 -1.3747e-09 -1.11367e-08)
(1.6356e-08 -6.03291e-09 -9.44076e-09)
(1.7301e-08 -3.54552e-09 -9.50374e-09)
(1.4922e-09 -3.0436e-10 -6.15807e-09)
(1.42204e-08 2.18641e-10 -9.7882e-09)
(1.58193e-08 -1.29492e-09 -1.25022e-08)
(3.06752e-09 1.43877e-09 -5.04204e-09)
(1.06673e-08 5.8328e-09 -8.42748e-09)
(7.85679e-09 2.29257e-09 -9.76585e-09)
(3.39741e-09 1.45681e-09 -6.50413e-09)
(4.89775e-09 1.881e-09 -9.22049e-09)
(1.3296e-09 1.26346e-09 -8.71972e-09)
)
;
    }
    procBoundary1to3
    {
        type            processor;
        value           nonuniform List<vector> 
27
(
(2.83821e-08 -8.28066e-10 -1.06631e-08)
(3.22655e-08 -2.34615e-09 -1.11113e-08)
(5.69156e-08 -6.46998e-08 -1.74529e-08)
(3.66943e-08 -1.21928e-08 -9.76965e-09)
(2.92056e-08 -2.8952e-09 -1.69944e-08)
(4.50552e-08 -5.48225e-09 -1.65737e-08)
(6.53154e-08 -1.79001e-09 -3.64507e-08)
(1.84857e-07 3.0407e-08 -5.26432e-08)
(-1.23024e-07 -2.53052e-08 -8.071e-08)
(2.61263e-08 1.54586e-09 -1.18651e-08)
(2.5768e-08 3.805e-09 -1.02931e-08)
(3.11628e-08 -2.4283e-09 -1.38022e-08)
(3.16169e-08 -9.20761e-10 -9.49251e-09)
(3.36579e-08 -1.79556e-09 -1.55402e-08)
(4.05227e-08 -4.15314e-09 -1.94424e-08)
(3.85734e-08 1.45048e-10 -2.60956e-08)
(2.75724e-08 -3.75801e-09 -4.16681e-08)
(1.92582e-08 -9.50627e-09 -5.76117e-08)
(1.66638e-08 2.89659e-09 -1.58841e-08)
(1.87456e-08 4.54022e-09 -1.43497e-08)
(2.03665e-08 4.96087e-09 -1.23782e-08)
(2.94981e-08 -3.53237e-10 -9.29512e-09)
(3.01376e-08 -4.02366e-10 -1.10154e-08)
(2.4244e-08 -5.6159e-10 -1.14123e-08)
(2.05627e-08 -2.76858e-09 -1.31233e-08)
(8.73551e-09 -3.65121e-09 -1.24667e-08)
(2.88025e-09 -4.45665e-10 -1.00129e-08)
)
;
    }
    procBoundary1to5
    {
        type            processor;
        value           nonuniform List<vector> 
32
(
(6.9165e-09 7.77458e-10 -4.14907e-09)
(5.68293e-09 -1.53343e-10 -4.74156e-09)
(4.39136e-09 5.74925e-10 -5.92152e-09)
(2.10197e-09 1.51741e-10 -3.86924e-09)
(2.44486e-10 -7.15473e-10 -6.62807e-10)
(-1.78582e-07 6.06016e-09 3.70076e-09)
(1.32086e-08 2.15238e-09 -6.69495e-09)
(1.21217e-08 1.82404e-09 -6.74543e-09)
(1.1511e-08 -2.5627e-10 -7.14182e-09)
(6.84022e-09 1.134e-09 -7.12757e-09)
(5.47508e-09 8.15436e-10 -7.36734e-09)
(8.96699e-10 -1.65779e-09 -3.80891e-09)
(-4.93773e-09 2.6705e-09 -4.37473e-09)
(1.10613e-08 5.94607e-09 -1.09994e-08)
(1.44046e-08 3.01335e-09 -9.65922e-09)
(1.80758e-08 4.24611e-09 -9.39008e-09)
(1.69203e-08 1.50455e-09 -8.52667e-09)
(1.23023e-08 3.8949e-11 -6.88103e-09)
(8.44881e-09 3.91921e-11 -5.51511e-09)
(3.66038e-09 -2.01977e-09 -4.65398e-09)
(-2.98997e-09 -1.034e-08 -5.87395e-09)
(2.19148e-09 1.2452e-09 -5.67015e-09)
(3.92633e-09 2.36911e-09 -4.10059e-09)
(6.9165e-09 7.77458e-10 -4.14907e-09)
(1.32086e-08 2.15238e-09 -6.69495e-09)
(3.95834e-09 1.9434e-09 -5.30245e-09)
(3.58591e-09 3.02776e-09 -7.26996e-09)
(1.32086e-08 2.15238e-09 -6.69495e-09)
(1.10613e-08 5.94607e-09 -1.09994e-08)
(5.45378e-09 4.16306e-09 -7.10797e-09)
(1.10613e-08 5.94607e-09 -1.09994e-08)
(4.37216e-09 3.41208e-09 -7.48023e-09)
)
;
    }
    procBoundary1to7
    {
        type            processor;
        value           uniform (7.334e-09 3.53622e-09 -1.38087e-08);
    }
}


// ************************************************************************* //
